Title
43188
    1CHL1    C3    1   1.189   3.816   6.131 -0.3187 -0.2664  0.2031
    1CHL1    H3    2   1.081   3.834   6.150  0.5166  2.3502  3.3274
    1CHL1    O3    3   1.264   3.848   6.249  0.0931  0.2970 -0.0827
    1CHL1   H3'    4   1.213   3.801   6.315  0.2951  1.7076  1.1059
    1CHL1    C4    5   1.214   3.674   6.091  0.0865  0.8196 -0.4899
    1CHL1   H4A    6   1.319   3.643   6.104 -0.1180  0.9468  1.8521
    1CHL1   H4B    7   1.160   3.623   6.174  0.7487 -0.2906 -0.7338
    1CHL1    C5    8   1.179   3.640   5.948 -0.1498 -0.5570  0.1844
    1CHL1    C6    9   1.096   3.542   5.921 -0.1150 -0.3925  1.0858
    1CHL1    H6   10   1.057   3.482   6.005  1.1883 -2.5784  0.2105
    1CHL1    C7   11   1.055   3.506   5.778 -0.0315  0.3331 -0.5612
    1CHL1   H7A   12   1.056   3.395   5.771  0.5943  0.2312  0.8012
    1CHL1   H7B   13   0.946   3.527   5.770 -0.2303  1.4452  3.1950
    1CHL1    C8   14   1.146   3.563   5.673  0.1750  1.0470 -0.3252
    1CHL1    H8   15   1.244   3.511   5.673 -1.2200 -1.9168  2.7880
    1CHL1   C14   16   1.081   3.544   5.536 -0.4628  0.2457  0.8416
    1CHL1   H14   17   0.981   3.590   5.543  0.0987  2.1120 -2.0792
    1CHL1   C15   18   1.058   3.404   5.489  0.1123  0.3818 -0.4237
    1CHL1  H15A   19   1.145   3.336   5.505 -0.3111  0.1841  1.2056
    1CHL1  H15B   20   0.967   3.353   5.527 -0.4317  2.2400  0.9101
    1CHL1   C16   21   1.036   3.414   5.329 -0.5538 -0.1094 -0.0229
    1CHL1  H16A   22   1.109   3.351   5.275 -1.0090  0.1803 -1.0015
    1CHL1  H16B   23   0.927   3.401   5.309 -0.9889  1.4673  1.0977
    1CHL1   C17   24   1.077   3.562   5.299 -0.3148 -0.2208  0.2509
    1CHL1   H17   25   0.987   3.626   5.308  0.2635  0.8316 -1.0465
    1CHL1   C13   26   1.159   3.617   5.423 -0.5546  0.3613  0.9169
    1CHL1   C18   27   1.306   3.563   5.414  0.5750 -0.1542 -0.5010
    1CHL1  H18A   28   1.307   3.455   5.392  1.5232 -0.1286 -0.6447
    1CHL1  H18B   29   1.376   3.606   5.339  1.4503 -2.2392 -0.9282
    1CHL1  H18C   30   1.365   3.589   5.505  3.0729 -0.1044 -2.0524
    1CHL1   C12   31   1.146   3.760   5.455 -0.6113 -0.4966  0.8893
    1CHL1  H12A   32   1.185   3.828   5.376 -0.3858 -1.4719  0.1434
    1CHL1  H12B   33   1.038   3.781   5.469 -1.2545  0.3549 -3.6516
    1CHL1   C11   34   1.214   3.802   5.590  0.3288  0.6922 -0.2591
    1CHL1  H11A   35   1.324   3.792   5.577  0.3774  2.0391 -1.0157
    1CHL1  H11B   36   1.187   3.904   5.623  1.2903  1.0160 -0.4244
    1CHL1    C9   37   1.169   3.714   5.708 -0.2857  0.2931  0.1919
    1CHL1    H9   38   1.060   3.736   5.716 -0.3113  0.5249 -0.7123
    1CHL1   C10   39   1.231   3.743   5.846 -0.2396 -0.1795 -0.2113
    1CHL1   C19   40   1.380   3.733   5.832  0.1834  0.0775  0.5852
    1CHL1  H19A   41   1.403   3.633   5.788 -1.0217  0.0904 -0.1186
    1CHL1  H19B   42   1.409   3.808   5.755 -2.0574  0.0973 -0.3153
    1CHL1  H19C   43   1.442   3.741   5.923  1.4223  0.9436 -0.2936
    1CHL1    C1   44   1.193   3.890   5.894  0.0778 -0.1080  0.2580
    1CHL1   H1A   45   1.236   3.966   5.826  0.9099 -1.8262 -1.2444
    1CHL1   H1B   46   1.082   3.893   5.897 -0.1218 -3.3254  0.0116
    1CHL1    C2   47   1.240   3.917   6.031 -0.1257  0.0894  0.3149
    1CHL1   H2A   48   1.200   4.013   6.072  0.5167  0.3507  0.3376
    1CHL1   H2B   49   1.350   3.928   6.033 -0.3085  2.4130  1.1345
    1CHL1   C20   50   1.126   3.588   5.153 -0.1535 -0.3736 -0.6351
    1CHL1   H20   51   1.169   3.690   5.150  0.9964 -0.7833  0.7648
    1CHL1   C21   52   1.010   3.571   5.055  0.4654  0.1057  0.3106
    1CHL1  H21A   53   0.994   3.461   5.053  2.4007 -0.2538  1.9908
    1CHL1  H21B   54   1.028   3.609   4.952  2.0786 -0.6442  0.2963
    1CHL1  H21C   55   0.926   3.622   5.106  0.5883 -0.6939  1.3350
    1CHL1   C22   56   1.233   3.497   5.098  0.3125 -0.1219  0.4634
    1CHL1  H22A   57   1.323   3.495   5.164  1.0663 -1.5530 -0.5616
    1CHL1  H22B   58   1.191   3.394   5.095  1.6064 -0.6511  0.0757
    1CHL1   C23   59   1.280   3.529   4.953  0.9041 -0.5744  0.0395
    1CHL1  H23A   60   1.201   3.518   4.876 -0.3706 -0.8811  1.3395
    1CHL1  H23B   61   1.318   3.633   4.958  0.8178 -0.5803  1.1772
    1CHL1   C24   62   1.387   3.428   4.911  0.0181 -0.4705  0.0142
    1CHL1  H24A   63   1.471   3.424   4.984  0.6495 -1.5367 -0.7375
    1CHL1  H24B   64   1.340   3.328   4.900  1.8672 -1.2631 -1.1570
    1CHL1   C25   65   1.456   3.466   4.770  0.2275 -0.3404  0.3723
    1CHL1   H25   66   1.492   3.570   4.776 -0.0986 -0.2069  0.0597
    1CHL1   C26   67   1.587   3.382   4.765 -0.4006  0.2666  0.8058
    1CHL1  H26A   68   1.651   3.403   4.677  2.4006 -2.7039  1.9105
    1CHL1  H26B   69   1.654   3.412   4.849  0.4117 -1.7555  0.9392
    1CHL1  H26C   70   1.572   3.273   4.774  2.2529 -0.2976 -0.5944
    1CHL1   C27   71   1.363   3.441   4.644  0.1651 -0.1099  0.4719
    1CHL1  H27A   72   1.275   3.508   4.650 -0.7082 -1.2352  0.6674
    1CHL1  H27B   73   1.421   3.483   4.560 -0.9368  0.2517 -0.1154
    1CHL1  H27C   74   1.345   3.333   4.627  3.3636 -0.8078  0.8101
    2CHL1    C3   75   0.493   1.797   6.296 -0.1166 -1.0214 -0.3227
    2CHL1    H3   76   0.390   1.834   6.275  0.8473  0.8697 -2.0641
    2CHL1    O3   77   0.489   1.760   6.433  0.2967  0.3812  0.2657
    2CHL1   H3'   78   0.537   1.677   6.437 -2.6395 -1.5251 -0.9118
    2CHL1    C4   79   0.542   1.685   6.210  0.4728  0.3209 -0.3482
    2CHL1   H4A   80   0.636   1.663   6.264 -0.8141 -0.9178  1.5275
    2CHL1   H4B   81   0.488   1.588   6.219  3.7674 -1.4859  2.0156
    2CHL1    C5   82   0.553   1.729   6.058 -0.2885  0.5584 -0.4964
    2CHL1    C6   83   0.487   1.648   5.974  0.4599  0.6113  0.1273
    2CHL1    H6   84   0.422   1.569   6.012  1.1093 -1.8227 -3.3616
    2CHL1    C7   85   0.487   1.673   5.831 -0.3097  0.5941  0.3991
    2CHL1   H7A   86   0.492   1.580   5.770 -0.6481  0.8467 -0.0220
    2CHL1   H7B   87   0.392   1.726   5.805 -0.1582  1.0779  0.8278
    2CHL1    C8   88   0.596   1.778   5.790 -0.0992  0.6985  0.0027
    2CHL1    H8   89   0.693   1.722   5.792 -0.8398 -0.6813 -0.8882
    2CHL1   C14   90   0.580   1.820   5.644  0.0184 -0.1317 -0.2223
    2CHL1   H14   91   0.485   1.877   5.647 -0.3121 -0.6222 -1.0652
    2CHL1   C15   92   0.566   1.713   5.529  0.4193 -0.6077 -0.2976
    2CHL1  H15A   93   0.640   1.633   5.553  0.8842 -0.6819 -1.8202
    2CHL1  H15B   94   0.463   1.672   5.532  0.3091 -0.3075  0.0388
    2CHL1   C16   95   0.597   1.780   5.399  0.0672  0.0087 -0.1279
    2CHL1  H16A   96   0.691   1.746   5.350  1.8761  2.9144  1.0787
    2CHL1  H16B   97   0.506   1.774   5.335  0.7326  1.1010 -1.2262
    2CHL1   C17   98   0.630   1.922   5.443 -0.3311 -0.5318 -0.3137
    2CHL1   H17   99   0.530   1.970   5.451  0.9949  2.6698 -1.3626
    2CHL1   C13  100   0.680   1.921   5.590  0.6106 -0.4451  0.0645
    2CHL1   C18  101   0.818   1.862   5.594  0.3362  0.3054  0.3618
    2CHL1  H18A  102   0.879   1.952   5.618  1.9630 -0.7436  0.3065
    2CHL1  H18B  103   0.839   1.782   5.668 -2.8357 -0.6759  0.3432
    2CHL1  H18C  104   0.847   1.826   5.493 -1.3893 -3.3978  1.0293
    2CHL1   C12  105   0.666   2.057   5.674  0.0760  0.3695 -0.0696
    2CHL1  H12A  106   0.738   2.137   5.646  0.0908  1.2835  2.2989
    2CHL1  H12B  107   0.562   2.097   5.673  0.1841  0.8294  1.9884
    2CHL1   C11  108   0.693   2.020   5.817 -0.3510  0.4448 -0.0776
    2CHL1  H11A  109   0.798   1.986   5.831 -0.8754 -1.2932 -0.1411
    2CHL1  H11B  110   0.678   2.104   5.888 -1.8991 -0.6371  0.9297
    2CHL1    C9  111   0.602   1.901   5.878  0.6601 -0.1722 -0.1253
    2CHL1    H9  112   0.504   1.954   5.879  0.2489 -0.9134  0.8077
    2CHL1   C10  113   0.632   1.856   6.025  0.4813  0.2241 -0.1947
    2CHL1   C19  114   0.784   1.831   6.043 -0.4592 -0.1512  0.7307
    2CHL1  H19A  115   0.831   1.764   5.967  0.1671 -0.3222  1.2624
    2CHL1  H19B  116   0.843   1.923   6.055 -1.0963 -0.0820  4.1313
    2CHL1  H19C  117   0.801   1.777   6.138 -3.5859  0.1978  1.6148
    2CHL1    C1  118   0.585   1.970   6.124 -0.2288 -0.0324  0.1518
    2CHL1   H1A  119   0.655   2.056   6.124  0.6772 -0.7023 -2.0025
    2CHL1   H1B  120   0.483   2.004   6.093 -0.7079 -0.7415  0.9159
    2CHL1    C2  121   0.590   1.919   6.273  0.2459 -0.0565  0.3805
    2CHL1   H2A  122   0.554   2.004   6.335 -0.5426  1.4821 -2.0694
    2CHL1   H2B  123   0.691   1.892   6.311 -0.3747  0.6399  2.6760
    2CHL1   C20  124   0.715   2.002   5.343  0.8828 -0.8014 -0.4114
    2CHL1   H20  125   0.825   1.989   5.354  1.1248  0.2326 -1.4873
    2CHL1   C21  126   0.688   2.158   5.357 -0.0762 -0.3739  0.0261
    2CHL1  H21A  127   0.732   2.222   5.278  0.4111 -0.8675 -0.1112
    2CHL1  H21B  128   0.749   2.174   5.449  0.6897 -0.7484 -0.4047
    2CHL1  H21C  129   0.581   2.182   5.373 -0.2562  0.1374 -1.6983
    2CHL1   C22  130   0.694   1.959   5.196  0.1332 -0.0501  0.8148
    2CHL1  H22A  131   0.736   1.858   5.175 -0.5454 -0.1526 -0.1194
    2CHL1  H22B  132   0.585   1.956   5.172  0.7294  0.6787 -2.4894
    2CHL1   C23  133   0.770   2.056   5.099  0.1673 -0.6250  1.2274
    2CHL1  H23A  134   0.718   2.152   5.083  0.2480 -0.3103  2.7103
    2CHL1  H23B  135   0.874   2.070   5.135 -0.0786  0.3505  1.5850
    2CHL1   C24  136   0.782   1.988   4.960 -0.0836 -0.1826  0.2434
    2CHL1  H24A  137   0.856   2.039   4.895 -0.5638  0.2108  0.0001
    2CHL1  H24B  138   0.839   1.897   4.988 -0.1255 -0.0708  0.6994
    2CHL1   C25  139   0.654   1.960   4.880  0.0801  0.9892 -0.6160
    2CHL1   H25  140   0.584   1.911   4.950  0.7614  1.4417  0.3945
    2CHL1   C26  141   0.589   2.093   4.836  0.0252 -0.2077  0.1326
    2CHL1  H26A  142   0.662   2.154   4.778  0.4805 -0.4174  0.4739
    2CHL1  H26B  143   0.501   2.072   4.772  2.0920  0.3886 -3.1323
    2CHL1  H26C  144   0.552   2.154   4.921 -2.1212 -0.8426 -0.2951
    2CHL1   C27  145   0.683   1.865   4.754  0.4722 -0.5217  0.0641
    2CHL1  H27A  146   0.743   1.783   4.800 -0.1574 -2.7169 -2.7468
    2CHL1  H27B  147   0.591   1.825   4.706  0.5391 -0.8675  0.2222
    2CHL1  H27C  148   0.745   1.919   4.680 -2.1140  0.5127 -1.4701
    3CHL1    C3  149   6.313   1.710   5.958 -0.5132 -0.4884  0.1570
    3CHL1    H3  150   6.382   1.624   5.964 -1.8776 -1.5453  1.5373
    3CHL1    O3  151   6.266   1.749   6.086 -0.0596  0.0524  0.6876
    3CHL1   H3'  152   6.258   1.845   6.082  0.0150  0.0597  0.7225
    3CHL1    C4  153   6.388   1.828   5.894 -0.7603  0.0814  0.1622
    3CHL1   H4A  154   6.315   1.909   5.876 -0.8070 -0.5033 -2.8297
    3CHL1   H4B  155   6.470   1.859   5.963  0.0605 -2.5703  0.4916
    3CHL1    C5  156   6.438   1.800   5.754  0.0844  0.1546  0.7168
    3CHL1    C6  157   6.567   1.808   5.727  0.4024  0.5979 -0.9666
    3CHL1    H6  158   6.641   1.832   5.804  0.8857 -2.7882 -0.1983
    3CHL1    C7  159   6.631   1.777   5.594  0.0595  0.3577  1.0416
    3CHL1   H7A  160   6.683   1.871   5.565 -3.5225  2.4436  0.7018
    3CHL1   H7B  161   6.697   1.688   5.604  1.1425  0.8934 -0.8314
    3CHL1    C8  162   6.522   1.757   5.486 -0.2063  0.4738 -0.3918
    3CHL1    H8  163   6.486   1.855   5.448 -2.9947  0.0269  0.8588
    3CHL1   C14  164   6.573   1.688   5.363 -0.4075 -0.0389 -0.0478
    3CHL1   H14  165   6.603   1.586   5.394 -1.6135 -0.2984  0.3042
    3CHL1   C15  166   6.709   1.740   5.303 -0.1396 -0.1185 -0.5425
    3CHL1  H15A  167   6.704   1.850   5.320  0.2492  0.5089 -3.7477
    3CHL1  H15B  168   6.801   1.698   5.348  1.7609  1.6586 -2.5120
    3CHL1   C16  169   6.703   1.714   5.156  0.9482 -0.0380  0.1675
    3CHL1  H16A  170   6.703   1.814   5.109 -0.4838  0.3449  0.9181
    3CHL1  H16B  171   6.792   1.666   5.111  1.0601  1.9008 -1.8187
    3CHL1   C17  172   6.573   1.631   5.128  0.6597  0.0655  0.2234
    3CHL1   H17  173   6.607   1.526   5.139  0.0679 -0.0766  0.7586
    3CHL1   C13  174   6.483   1.677   5.241  0.2851  0.5180  0.0713
    3CHL1   C18  175   6.414   1.811   5.203 -0.4562  0.4573  0.4137
    3CHL1  H18A  176   6.354   1.804   5.110 -0.8370 -1.1529  0.7480
    3CHL1  H18B  177   6.356   1.850   5.289  0.6783  0.5567  1.1443
    3CHL1  H18C  178   6.492   1.888   5.184  0.3032  0.1502  2.1181
    3CHL1   C12  179   6.376   1.581   5.287 -0.5274 -0.3159 -0.4787
    3CHL1  H12A  180   6.305   1.565   5.203 -0.9587  1.1943 -0.4231
    3CHL1  H12B  181   6.432   1.488   5.311  1.9352  1.4184  0.9521
    3CHL1   C11  182   6.301   1.641   5.412  0.1335  0.3512 -1.0761
    3CHL1  H11A  183   6.231   1.721   5.381  2.5374  2.2902 -1.8094
    3CHL1  H11B  184   6.236   1.564   5.459  1.6389  0.5281  1.4681
    3CHL1    C9  185   6.395   1.684   5.529  0.3008  0.3322 -0.4277
    3CHL1    H9  186   6.439   1.593   5.574 -0.5136  0.1006 -0.0823
    3CHL1   C10  187   6.328   1.741   5.657  0.5970 -0.0177 -0.4029
    3CHL1   C19  188   6.244   1.861   5.614 -1.0885  0.6433  0.1344
    3CHL1  H19A  189   6.305   1.928   5.550  0.9887 -0.8411  0.4789
    3CHL1  H19B  190   6.159   1.832   5.549 -0.1397  0.6005 -1.1099
    3CHL1  H19C  191   6.196   1.912   5.701 -0.4812  2.9143 -0.7907
    3CHL1    C1  192   6.228   1.636   5.721 -0.1224 -0.6109 -0.3826
    3CHL1   H1A  193   6.132   1.630   5.665  0.4967 -2.3496 -1.3205
    3CHL1   H1B  194   6.280   1.539   5.710  0.1137 -0.4014 -1.2341
    3CHL1    C2  195   6.188   1.671   5.868  0.9022 -0.2050  0.0423
    3CHL1   H2A  196   6.139   1.586   5.920  1.1585  0.2410  1.0327
    3CHL1   H2B  197   6.128   1.765   5.870  1.8036  0.3960 -0.6648
    3CHL1   C20  198   6.525   1.644   4.977  0.0277  0.8313 -0.9300
    3CHL1   H20  199   6.466   1.736   4.955  1.4664  2.3797  1.2252
    3CHL1   C21  200   6.436   1.517   4.954  0.1208  0.0768 -0.0995
    3CHL1  H21A  201   6.452   1.431   5.022  2.6147 -1.4006 -2.3721
    3CHL1  H21B  202   6.443   1.488   4.847 -1.5397  4.0532 -1.5213
    3CHL1  H21C  203   6.329   1.543   4.969 -0.6884 -1.6287 -2.3215
    3CHL1   C22  204   6.637   1.647   4.867  0.6614 -0.2783 -0.3518
    3CHL1  H22A  205   6.592   1.640   4.766  0.3986 -0.2823 -0.2358
    3CHL1  H22B  206   6.693   1.740   4.890 -1.6167  1.0343  0.2432
    3CHL1   C23  207   6.734   1.531   4.876 -0.2479  0.0873 -0.2281
    3CHL1  H23A  208   6.758   1.503   4.980 -3.9825  0.5457  0.9163
    3CHL1  H23B  209   6.689   1.441   4.829  2.1387 -1.4133  0.2152
    3CHL1   C24  210   6.862   1.553   4.805  0.3037 -0.3867  0.6609
    3CHL1  H24A  211   6.830   1.603   4.711  1.0714  0.4678  0.8363
    3CHL1  H24B  212   6.938   1.615   4.857  1.8259 -0.1094 -1.7074
    3CHL1   C25  213   6.929   1.426   4.753  0.1110  0.2021  0.2372
    3CHL1   H25  214   6.855   1.360   4.704  0.5908 -0.4045  0.3075
    3CHL1   C26  215   7.028   1.466   4.645 -0.2977 -0.1124 -0.0581
    3CHL1  H26A  216   7.097   1.547   4.675  0.1531 -0.6408  0.3387
    3CHL1  H26B  217   7.090   1.382   4.608  1.7847  1.8612 -1.3124
    3CHL1  H26C  218   6.972   1.502   4.555 -2.1046 -0.3161  0.9259
    3CHL1   C27  219   6.998   1.357   4.873  0.0034  0.2395  0.2904
    3CHL1  H27A  220   7.049   1.423   4.947  1.3577  0.0751 -0.4722
    3CHL1  H27B  221   6.929   1.292   4.931  0.7832 -0.4523  0.4606
    3CHL1  H27C  222   7.075   1.286   4.837 -0.4689 -1.6913  2.8315
    4CHL1    C3  223   1.879   2.179   6.346 -0.1272 -0.1558  0.3123
    4CHL1    H3  224   1.796   2.125   6.296  0.1912 -0.4231  0.0713
    4CHL1    O3  225   1.843   2.192   6.484 -0.1631 -0.2214  0.8518
    4CHL1   H3'  226   1.906   2.257   6.514  0.8404 -1.2801  1.0826
    4CHL1    C4  227   2.017   2.107   6.324  0.2029  0.2446  0.4002
    4CHL1   H4A  228   2.097   2.169   6.368  0.9939 -1.9700  2.2500
    4CHL1   H4B  229   2.006   2.017   6.388 -1.9158  0.2748  0.1707
    4CHL1    C5  230   2.050   2.086   6.174 -0.0050  0.3265 -0.0931
    4CHL1    C6  231   2.068   1.960   6.120 -0.5254 -0.2290 -0.3579
    4CHL1    H6  232   2.063   1.871   6.184  1.8425  1.4148  2.2963
    4CHL1    C7  233   2.104   1.946   5.974  0.0984 -0.0492  0.2723
    4CHL1   H7A  234   2.175   1.864   5.954 -0.8966 -0.3520 -2.5875
    4CHL1   H7B  235   2.010   1.907   5.929 -0.7407 -1.0783  2.7150
    4CHL1    C8  236   2.146   2.074   5.903 -0.2592 -0.7439  1.0478
    4CHL1    H8  237   2.253   2.084   5.931 -0.4339  1.3152  1.1485
    4CHL1   C14  238   2.134   2.040   5.751  0.1965  0.3997  0.5442
    4CHL1   H14  239   2.026   2.018   5.738  0.0348  1.0088  0.8098
    4CHL1   C15  240   2.223   1.926   5.698  0.2225  0.6639 -0.3618
    4CHL1  H15A  241   2.322   1.927   5.748  0.1335 -0.4328 -0.1285
    4CHL1  H15B  242   2.166   1.834   5.726  0.3523  0.7787  0.2843
    4CHL1   C16  243   2.235   1.959   5.541  0.6181 -0.6497 -0.0725
    4CHL1  H16A  244   2.346   1.967   5.537  0.5835  0.0803  0.2475
    4CHL1  H16B  245   2.195   1.873   5.485  3.1457 -2.8231  1.2354
    4CHL1   C17  246   2.152   2.087   5.521  0.5327 -0.1630  0.7151
    4CHL1   H17  247   2.045   2.063   5.506  0.2767  1.6595 -0.5660
    4CHL1   C13  248   2.171   2.157   5.657 -0.6878  0.4258  0.3432
    4CHL1   C18  249   2.321   2.199   5.675  0.6143 -0.2975  0.0905
    4CHL1  H18A  250   2.351   2.221   5.780  1.6593 -0.0302 -0.2540
    4CHL1  H18B  251   2.393   2.128   5.629  1.6579 -0.9592  2.5753
    4CHL1  H18C  252   2.339   2.296   5.624 -0.2212 -0.5017 -0.6303
    4CHL1   C12  253   2.077   2.277   5.690  0.2766 -0.0595 -0.1047
    4CHL1  H12A  254   2.106   2.361   5.624  0.6634 -2.1490 -2.7440
    4CHL1  H12B  255   1.974   2.247   5.661  0.3357 -0.8209  0.4344
    4CHL1   C11  256   2.077   2.310   5.841  0.8815  0.3440  0.4414
    4CHL1  H11A  257   2.180   2.340   5.870  0.6280  2.1783 -0.3823
    4CHL1  H11B  258   2.008   2.395   5.861  0.1888  0.3747 -1.7784
    4CHL1    C9  259   2.054   2.194   5.937 -0.6683  0.2005  0.0593
    4CHL1    H9  260   1.952   2.167   5.901 -0.6300  1.5782 -1.2060
    4CHL1   C10  261   2.052   2.218   6.091 -0.0879  0.2961  0.2457
    4CHL1   C19  262   2.181   2.292   6.138  0.4493  0.5976  0.5903
    4CHL1  H19A  263   2.183   2.309   6.248  2.0874 -1.3701  0.9266
    4CHL1  H19B  264   2.274   2.242   6.105 -1.9331 -2.6762 -1.8579
    4CHL1  H19C  265   2.173   2.391   6.088 -1.3200  1.0266  1.6445
    4CHL1    C1  266   1.920   2.300   6.127 -0.7676 -0.0062  0.2378
    4CHL1   H1A  267   1.945   2.402   6.091  2.6521 -0.9198 -0.4130
    4CHL1   H1B  268   1.838   2.267   6.060 -1.9041  2.0848  0.5053
    4CHL1    C2  269   1.882   2.315   6.277 -0.0732 -0.1522 -0.1030
    4CHL1   H2A  270   1.784   2.368   6.283 -0.5906 -1.0800 -0.0925
    4CHL1   H2B  271   1.958   2.382   6.321  1.9123 -1.8496 -0.7965
    4CHL1   C20  272   2.192   2.157   5.388 -0.1155  0.0559 -0.3546
    4CHL1   H20  273   2.289   2.208   5.403 -0.0492 -0.1581 -0.0513
    4CHL1   C21  274   2.086   2.257   5.357  0.1039  0.3164 -0.0620
    4CHL1  H21A  275   2.127   2.322   5.276  1.5153 -1.5874 -0.9684
    4CHL1  H21B  276   2.063   2.317   5.448  1.3189 -1.4372  1.4918
    4CHL1  H21C  277   1.989   2.214   5.325  1.0697 -3.9339  2.0172
    4CHL1   C22  278   2.217   2.056   5.265  0.2052  0.3413 -0.5914
    4CHL1  H22A  279   2.310   2.009   5.303  0.4202  1.5796  0.4693
    4CHL1  H22B  280   2.145   1.972   5.262 -0.4693  0.7527  1.8262
    4CHL1   C23  281   2.247   2.125   5.138  0.5266 -0.2805  0.2353
    4CHL1  H23A  282   2.153   2.175   5.107  0.2535  0.1407  1.6812
    4CHL1  H23B  283   2.321   2.206   5.152  0.9455 -0.8602  1.4483
    4CHL1   C24  284   2.287   2.023   5.030  0.8472 -0.8282  0.4602
    4CHL1  H24A  285   2.374   1.964   5.067 -0.2084 -3.1183 -0.5474
    4CHL1  H24B  286   2.203   1.954   5.009 -0.8081  0.7174  1.6248
    4CHL1   C25  287   2.340   2.087   4.898 -0.2314 -0.3514  0.9274
    4CHL1   H25  288   2.425   2.150   4.932  0.5035 -2.6706  3.7761
    4CHL1   C26  289   2.394   1.974   4.816  0.2318  0.0505  1.0077
    4CHL1  H26A  290   2.311   1.924   4.762  1.1001  1.5362 -1.9301
    4CHL1  H26B  291   2.467   2.002   4.737  0.0797  0.7928  1.1262
    4CHL1  H26C  292   2.447   1.896   4.875 -2.2771 -1.4209  1.4617
    4CHL1   C27  293   2.241   2.176   4.821 -0.0467 -0.0595  0.7832
    4CHL1  H27A  294   2.281   2.201   4.720  0.2409 -1.5712  0.4996
    4CHL1  H27B  295   2.158   2.103   4.811  1.2777 -1.3494 -1.6810
    4CHL1  H27C  296   2.196   2.259   4.879 -0.9612 -0.8104  1.1659
    5CHL1    C3  297   0.567   2.451   6.328 -0.7335 -0.1020  0.7007
    5CHL1    H3  298   0.459   2.428   6.333 -0.7321 -0.2658  0.0273
    5CHL1    O3  299   0.615   2.426   6.456  0.2582  0.8437  0.4541
    5CHL1   H3'  300   0.553   2.472   6.514  1.1455  2.5337  0.1389
    5CHL1    C4  301   0.642   2.368   6.217 -0.3970 -0.1489  0.1938
    5CHL1   H4A  302   0.752   2.381   6.229 -0.5161  0.2455  0.9208
    5CHL1   H4B  303   0.619   2.262   6.237 -0.8246 -0.0456  0.2456
    5CHL1    C5  304   0.598   2.412   6.078  0.6592 -0.7602  0.0485
    5CHL1    C6  305   0.534   2.330   6.000 -0.3030 -0.6435  0.0915
    5CHL1    H6  306   0.506   2.230   6.036 -1.9239 -0.7062 -1.2318
    5CHL1    C7  307   0.500   2.355   5.859 -0.1910 -0.2610  0.5035
    5CHL1   H7A  308   0.522   2.265   5.798  0.1488 -0.4372  0.8841
    5CHL1   H7B  309   0.390   2.367   5.849  0.0522  1.0351 -1.3056
    5CHL1    C8  310   0.552   2.491   5.803 -0.1636  0.1068  0.2621
    5CHL1    H8  311   0.662   2.491   5.787 -0.1756 -1.5461  0.0188
    5CHL1   C14  312   0.484   2.529   5.673 -0.1147  0.6306 -0.2392
    5CHL1   H14  313   0.375   2.526   5.692 -0.0244 -0.3104  0.1904
    5CHL1   C15  314   0.505   2.442   5.545  0.0992  0.1563 -0.3204
    5CHL1  H15A  315   0.614   2.441   5.523  0.4746  1.7209  1.2469
    5CHL1  H15B  316   0.465   2.338   5.553  1.4240 -0.2719  1.4320
    5CHL1   C16  317   0.444   2.530   5.426  0.3036  0.2820 -0.3261
    5CHL1  H16A  318   0.518   2.519   5.344 -1.8862 -0.6325 -2.2934
    5CHL1  H16B  319   0.351   2.483   5.389  0.5648 -0.0552 -0.5640
    5CHL1   C17  320   0.431   2.667   5.489 -0.7611 -0.2200 -0.4068
    5CHL1   H17  321   0.327   2.680   5.524 -2.3789 -0.8419 -4.4614
    5CHL1   C13  322   0.511   2.667   5.618 -0.2106 -0.3368 -0.3184
    5CHL1   C18  323   0.659   2.693   5.583 -0.1691  0.8057  0.0881
    5CHL1  H18A  324   0.694   2.638   5.493  0.6306 -0.2466  1.0180
    5CHL1  H18B  325   0.684   2.799   5.560  1.2334  0.8441  1.6144
    5CHL1  H18C  326   0.719   2.654   5.668  1.3492  1.2607 -0.7356
    5CHL1   C12  327   0.472   2.768   5.732 -0.8007 -0.0787  0.4960
    5CHL1  H12A  328   0.476   2.875   5.702 -1.8939 -0.1674  0.0122
    5CHL1  H12B  329   0.364   2.752   5.753 -0.6497 -0.5793  0.9115
    5CHL1   C11  330   0.545   2.747   5.862  0.7232 -0.0630  0.3784
    5CHL1  H11A  331   0.647   2.788   5.844  1.0344 -0.1828  1.7555
    5CHL1  H11B  332   0.492   2.800   5.944  2.1199  2.0287  0.0166
    5CHL1    C9  333   0.534   2.595   5.913 -0.2090 -0.6592  0.0049
    5CHL1    H9  334   0.426   2.586   5.936 -0.0142 -0.6956  0.9455
    5CHL1   C10  335   0.621   2.561   6.038 -0.5460  0.0290  0.8954
    5CHL1   C19  336   0.773   2.584   6.007 -0.1423  0.2375  0.7569
    5CHL1  H19A  337   0.797   2.685   5.965  1.5365  0.4404  2.0984
    5CHL1  H19B  338   0.840   2.555   6.091  0.6725 -0.1766 -0.0185
    5CHL1  H19C  339   0.803   2.510   5.930 -1.0418  0.3065  0.3225
    5CHL1    C1  340   0.566   2.647   6.161 -0.1253  0.3805  1.0848
    5CHL1   H1A  341   0.602   2.750   6.142  0.9692 -0.3281 -0.9907
    5CHL1   H1B  342   0.456   2.661   6.164 -0.1879 -0.1098  1.2949
    5CHL1    C2  343   0.612   2.598   6.299 -0.3858 -0.2931  0.1277
    5CHL1   H2A  344   0.568   2.660   6.380 -0.6564 -1.1852  0.6820
    5CHL1   H2B  345   0.723   2.590   6.306 -0.4534 -3.1250 -0.6252
    5CHL1   C20  346   0.445   2.788   5.400 -0.2980  0.3050  0.2401
    5CHL1   H20  347   0.487   2.874   5.456  2.7991 -2.4995  2.6192
    5CHL1   C21  348   0.301   2.822   5.359  0.4204 -0.8380 -0.0044
    5CHL1  H21A  349   0.256   2.744   5.293 -2.4697  0.1761  0.6313
    5CHL1  H21B  350   0.302   2.926   5.319  1.7693 -1.0824 -0.6689
    5CHL1  H21C  351   0.230   2.826   5.444 -0.3437  0.2050 -0.6562
    5CHL1   C22  352   0.532   2.773   5.271 -0.6852 -0.2628 -0.1775
    5CHL1  H22A  353   0.632   2.746   5.314  0.0533 -0.3588 -1.8791
    5CHL1  H22B  354   0.494   2.686   5.214 -2.8217  1.2781 -1.2064
    5CHL1   C23  355   0.535   2.899   5.185 -0.0021  0.3559  0.0217
    5CHL1  H23A  356   0.434   2.929   5.147 -0.9626  0.6228  2.5722
    5CHL1  H23B  357   0.579   2.977   5.251  0.3985  1.1819 -1.1888
    5CHL1   C24  358   0.628   2.870   5.075  0.0590 -1.0481 -0.3116
    5CHL1  H24A  359   0.722   2.831   5.122 -0.2550  0.4542  1.7346
    5CHL1  H24B  360   0.583   2.798   5.004 -0.5866 -1.0247  0.0671
    5CHL1   C25  361   0.663   2.990   4.987 -1.1179 -0.0277  0.3589
    5CHL1   H25  362   0.733   2.946   4.913  0.0045 -0.6170  1.7323
    5CHL1   C26  363   0.541   3.043   4.910 -0.3737  0.2478 -0.4463
    5CHL1  H26A  364   0.456   3.060   4.979  1.6561  0.7946  2.0630
    5CHL1  H26B  365   0.567   3.142   4.866 -1.9252  0.6575 -0.4805
    5CHL1  H26C  366   0.497   2.975   4.834 -3.0631  0.3919  0.8627
    5CHL1   C27  367   0.757   3.095   5.051 -0.1271  0.5040  0.2392
    5CHL1  H27A  368   0.777   3.184   4.987 -0.1879  0.3875  0.0593
    5CHL1  H27B  369   0.707   3.133   5.143 -2.2480 -1.6666  0.0793
    5CHL1  H27C  370   0.849   3.040   5.079 -0.3487 -1.8133 -3.0459
    6CHL1    C3  371   4.357   1.026   6.455 -0.1297  0.3006  0.8085
    6CHL1    H3  372   4.438   1.099   6.476  3.8031 -3.3049 -0.3515
    6CHL1    O3  373   4.295   0.998   6.580  0.1156 -0.5379 -0.1338
    6CHL1   H3'  374   4.241   0.920   6.568 -1.3192  0.7556 -3.1549
    6CHL1    C4  375   4.262   1.097   6.363  0.4858  0.2372  0.0856
    6CHL1   H4A  376   4.162   1.049   6.356  0.1144  0.9382  0.4389
    6CHL1   H4B  377   4.236   1.195   6.409  1.1453  0.3727  0.1796
    6CHL1    C5  378   4.323   1.127   6.231  0.0771  0.0926  0.2493
    6CHL1    C6  379   4.321   1.258   6.188  0.9746  0.2125  0.8469
    6CHL1    H6  380   4.267   1.335   6.245  0.4254  1.1515 -0.8678
    6CHL1    C7  381   4.381   1.293   6.054  0.5227 -0.1197 -0.1229
    6CHL1   H7A  382   4.320   1.363   5.993 -2.2895 -1.5968  0.7928
    6CHL1   H7B  383   4.479   1.343   6.066  0.2480 -0.0646  2.2700
    6CHL1    C8  384   4.425   1.171   5.969  0.7460  0.5878 -0.1224
    6CHL1    H8  385   4.334   1.136   5.915  1.1454  0.3826 -0.6627
    6CHL1   C14  386   4.521   1.211   5.864  0.5505  0.0202  1.0215
    6CHL1   H14  387   4.617   1.243   5.910  2.1226  0.7387 -2.4314
    6CHL1   C15  388   4.490   1.334   5.780  0.0101  0.1445  0.0991
    6CHL1  H15A  389   4.399   1.314   5.719 -0.1249 -0.5914  0.5271
    6CHL1  H15B  390   4.491   1.428   5.838  0.4922  1.0662 -1.3466
    6CHL1   C16  391   4.598   1.331   5.672  0.0197 -0.0194  0.1812
    6CHL1  H16A  392   4.553   1.375   5.580 -3.2425 -2.5660  0.3790
    6CHL1  H16B  393   4.682   1.398   5.703 -0.8776  0.5036  1.5604
    6CHL1   C17  394   4.648   1.185   5.657  0.3743  0.2293 -0.0318
    6CHL1   H17  395   4.749   1.190   5.702  0.8683 -0.1599 -1.0884
    6CHL1   C13  396   4.566   1.105   5.760  0.3760  0.3283  0.0922
    6CHL1   C18  397   4.440   1.037   5.698 -0.0212 -0.3959 -0.0851
    6CHL1  H18A  398   4.378   0.990   5.777  1.0585 -0.5568  0.6730
    6CHL1  H18B  399   4.383   1.124   5.657 -2.8520 -0.9487  2.2769
    6CHL1  H18C  400   4.470   0.963   5.620  1.5639  0.7698 -0.6276
    6CHL1   C12  401   4.647   1.003   5.837  0.4257  0.4704 -0.0225
    6CHL1  H12A  402   4.692   0.923   5.775 -0.7873  0.0353 -0.3832
    6CHL1  H12B  403   4.731   1.059   5.883  1.7722  1.1241 -3.0926
    6CHL1   C11  404   4.563   0.944   5.960 -0.0288 -0.0066  0.0716
    6CHL1  H11A  405   4.486   0.872   5.924 -0.0095 -0.9738  1.8462
    6CHL1  H11B  406   4.627   0.884   6.029  0.2418  0.0797 -0.1022
    6CHL1    C9  407   4.490   1.057   6.047 -0.3469  0.4461  0.5382
    6CHL1    H9  408   4.573   1.108   6.101  1.0089  0.7495 -1.7101
    6CHL1   C10  409   4.401   1.004   6.162  0.0875 -0.3020  0.1515
    6CHL1   C19  410   4.295   0.915   6.087 -0.2007  0.0117 -0.5362
    6CHL1  H19A  411   4.212   0.890   6.157  1.2379 -1.2063  0.8332
    6CHL1  H19B  412   4.249   0.958   5.996  0.0477  2.5624  0.4651
    6CHL1  H19C  413   4.343   0.821   6.052 -1.6475 -0.8941 -0.1852
    6CHL1    C1  414   4.485   0.922   6.262  0.2221  0.5822  0.6823
    6CHL1   H1A  415   4.517   0.828   6.214 -3.4949  0.6929 -2.4431
    6CHL1   H1B  416   4.570   0.988   6.290  0.4245 -0.0649  1.6418
    6CHL1    C2  417   4.411   0.896   6.395 -0.6071 -0.5641  0.2121
    6CHL1   H2A  418   4.493   0.859   6.459  0.7869  1.9576  0.0074
    6CHL1   H2B  419   4.336   0.815   6.386 -1.5097  0.2697  0.0569
    6CHL1   C20  420   4.673   1.144   5.515  0.5171 -1.0031  0.1956
    6CHL1   H20  421   4.582   1.089   5.482 -0.4725  1.0861 -0.7515
    6CHL1   C21  422   4.779   1.029   5.502 -1.8483 -0.4362 -0.2793
    6CHL1  H21A  423   4.766   0.982   5.403  0.4362  0.5529 -1.1338
    6CHL1  H21B  424   4.763   0.948   5.576  0.7304 -0.4953  0.3231
    6CHL1  H21C  425   4.877   1.078   5.518 -1.5905 -0.8591 -0.5404
    6CHL1   C22  426   4.688   1.248   5.407 -0.1305  0.4492  0.2471
    6CHL1  H22A  427   4.598   1.312   5.402 -0.0747  0.7319  2.2255
    6CHL1  H22B  428   4.774   1.319   5.421  1.2014 -1.0487 -0.0522
    6CHL1   C23  429   4.693   1.190   5.260  0.0889 -0.3969  0.1648
    6CHL1  H23A  430   4.795   1.157   5.232  0.7142  2.6232 -1.5568
    6CHL1  H23B  431   4.619   1.107   5.258 -0.5128  0.1016  0.9030
    6CHL1   C24  432   4.628   1.270   5.153 -0.7523 -0.4416  0.2116
    6CHL1  H24A  433   4.526   1.310   5.173 -0.7029  0.2574 -0.8683
    6CHL1  H24B  434   4.689   1.363   5.149 -0.0496 -0.7451  2.3887
    6CHL1   C25  435   4.624   1.201   5.012 -0.0542 -0.2885 -0.9573
    6CHL1   H25  436   4.556   1.114   5.022 -0.4309  0.1805  0.8565
    6CHL1   C26  437   4.561   1.305   4.919 -0.2042 -0.8702 -0.1154
    6CHL1  H26A  438   4.467   1.348   4.960  1.2222  2.1289  0.2948
    6CHL1  H26B  439   4.632   1.387   4.895 -2.5525  1.4857  0.4465
    6CHL1  H26C  440   4.544   1.257   4.820 -0.3863 -2.1240  0.5044
    6CHL1   C27  441   4.759   1.159   4.959 -0.0589 -0.4433 -0.0235
    6CHL1  H27A  442   4.802   1.072   5.014  0.7468 -1.0260 -1.4959
    6CHL1  H27B  443   4.755   1.128   4.852 -0.2362  1.0602 -0.4629
    6CHL1  H27C  444   4.830   1.244   4.957  0.2252 -0.6573  0.6465
    7CHL1    C3  445   6.438   0.693   6.160  0.4109 -0.7195 -0.3762
    7CHL1    H3  446   6.334   0.653   6.170  0.5653 -1.8135 -2.5635
    7CHL1    O3  447   6.492   0.695   6.289  0.1002  0.7895 -0.2092
    7CHL1   H3'  448   6.499   0.600   6.305 -0.2841  0.9662  1.1573
    7CHL1    C4  449   6.506   0.587   6.067 -0.2451  0.0731  0.2434
    7CHL1   H4A  450   6.615   0.607   6.067 -0.4520  1.2549  0.0290
    7CHL1   H4B  451   6.498   0.487   6.114 -2.6317 -0.0415 -0.2655
    7CHL1    C5  452   6.447   0.596   5.924 -0.1467  0.4566 -0.2078
    7CHL1    C6  453   6.390   0.481   5.865 -0.1991 -0.2494 -0.0921
    7CHL1    H6  454   6.390   0.387   5.922  2.7746 -0.7446 -0.7172
    7CHL1    C7  455   6.367   0.481   5.715 -0.4111  0.1798 -0.4239
    7CHL1   H7A  456   6.424   0.397   5.670  1.0529  0.1177  1.4002
    7CHL1   H7B  457   6.262   0.455   5.693 -0.1220 -0.8404 -0.6447
    7CHL1    C8  458   6.407   0.606   5.638 -0.1435 -0.0667  0.6649
    7CHL1    H8  459   6.513   0.596   5.608 -0.7815 -0.6606 -1.5569
    7CHL1   C14  460   6.331   0.624   5.508 -0.0198  0.2922 -0.0521
    7CHL1   H14  461   6.224   0.642   5.530 -0.7846 -0.8913 -2.5169
    7CHL1   C15  462   6.327   0.505   5.410  0.0707 -0.5057 -0.2901
    7CHL1  H15A  463   6.420   0.444   5.406 -0.6763 -1.7873  1.0167
    7CHL1  H15B  464   6.247   0.436   5.445  2.2944 -2.7083  0.8268
    7CHL1   C16  465   6.289   0.562   5.280 -0.5315 -0.1162  0.0652
    7CHL1  H16A  466   6.370   0.534   5.210 -2.0186  1.2270 -2.3382
    7CHL1  H16B  467   6.200   0.510   5.238  1.0735 -2.5968 -0.4481
    7CHL1   C17  468   6.281   0.722   5.299 -0.2688  0.1573  0.7554
    7CHL1   H17  469   6.180   0.739   5.343 -0.0087  1.2294  0.9792
    7CHL1   C13  470   6.362   0.746   5.428 -0.6818 -0.5803  0.1857
    7CHL1   C18  471   6.511   0.750   5.382  0.7383 -0.3515  0.1455
    7CHL1  H18A  472   6.532   0.847   5.333 -1.9028 -0.2326 -0.9113
    7CHL1  H18B  473   6.583   0.748   5.467  1.6713 -0.0098 -0.6192
    7CHL1  H18C  474   6.536   0.673   5.306  0.2654 -0.6914  0.3309
    7CHL1   C12  475   6.344   0.883   5.507  0.6679  0.4350  0.6098
    7CHL1  H12A  476   6.378   0.966   5.441  0.1090  1.6358  1.7861
    7CHL1  H12B  477   6.234   0.891   5.524  0.6016 -0.3799  0.5912
    7CHL1   C11  478   6.407   0.871   5.645 -0.3456  0.2451  1.2165
    7CHL1  H11A  479   6.512   0.903   5.627 -1.2903  2.1874 -1.5636
    7CHL1  H11B  480   6.374   0.959   5.705 -1.3086  0.5541  0.2511
    7CHL1    C9  481   6.386   0.734   5.718  0.4273  0.2167 -0.8582
    7CHL1    H9  482   6.280   0.739   5.752  0.7524  0.0602  0.2332
    7CHL1   C10  483   6.459   0.732   5.856  0.5680  0.2802  0.2795
    7CHL1   C19  484   6.610   0.757   5.834 -0.9031  0.4745  0.4049
    7CHL1  H19A  485   6.662   0.752   5.932  1.9733  0.0418 -1.0404
    7CHL1  H19B  486   6.654   0.682   5.766  0.5330  1.5382  0.1224
    7CHL1  H19C  487   6.636   0.857   5.794 -0.4323  0.8181  1.5386
    7CHL1    C1  488   6.396   0.833   5.949 -0.5320 -0.0835 -0.8890
    7CHL1   H1A  489   6.404   0.937   5.910 -0.3928  0.1014 -0.3761
    7CHL1   H1B  490   6.289   0.805   5.948 -0.5577 -0.0135 -3.0026
    7CHL1    C2  491   6.440   0.836   6.100 -0.7800 -0.5159 -0.0852
    7CHL1   H2A  492   6.371   0.904   6.156 -0.8816 -1.8502  1.4872
    7CHL1   H2B  493   6.543   0.877   6.097  0.3078 -3.0894 -2.1030
    7CHL1   C20  494   6.290   0.822   5.178  1.0669  1.0002 -0.1113
    7CHL1   H20  495   6.306   0.926   5.215 -0.1955  0.8292  1.0212
    7CHL1   C21  496   6.141   0.828   5.126  0.3062 -0.2888  0.0496
    7CHL1  H21A  497   6.126   0.890   5.035 -3.2348 -1.2667 -0.1790
    7CHL1  H21B  498   6.082   0.873   5.208  0.1870 -3.1295  1.6356
    7CHL1  H21C  499   6.099   0.727   5.104 -0.0551  0.0377 -0.8255
    7CHL1   C22  500   6.392   0.788   5.069 -0.0541 -0.6964  0.7238
    7CHL1  H22A  501   6.477   0.736   5.117 -0.3202 -0.7625  1.1284
    7CHL1  H22B  502   6.345   0.718   4.997 -0.5673 -1.3457  1.6636
    7CHL1   C23  503   6.441   0.909   4.988 -0.1316 -0.5428  0.5964
    7CHL1  H23A  504   6.346   0.944   4.941  0.3191 -1.7159 -1.3262
    7CHL1  H23B  505   6.492   0.983   5.053  1.2909  1.0040 -2.0995
    7CHL1   C24  506   6.544   0.866   4.888 -0.1452 -0.5610 -0.3058
    7CHL1  H24A  507   6.626   0.813   4.942 -0.5303 -2.1868 -1.2367
    7CHL1  H24B  508   6.488   0.793   4.827  0.0272 -0.1011 -1.0337
    7CHL1   C25  509   6.594   0.975   4.789 -0.1807 -0.3030 -0.4356
    7CHL1   H25  510   6.511   1.044   4.761 -0.5996 -0.0550  1.2831
    7CHL1   C26  511   6.692   1.072   4.855 -0.1962  1.4505  0.7685
    7CHL1  H26A  512   6.711   1.156   4.784  0.3388 -0.9152 -2.0981
    7CHL1  H26B  513   6.647   1.106   4.951 -0.0746 -1.8892  2.1292
    7CHL1  H26C  514   6.791   1.025   4.866 -1.6808 -1.4530  2.9487
    7CHL1   C27  515   6.671   0.919   4.663 -0.2038  0.2097  0.7441
    7CHL1  H27A  516   6.699   0.997   4.589 -1.3581  0.6302  0.7329
    7CHL1  H27B  517   6.765   0.865   4.686  1.2372  2.5951  0.7554
    7CHL1  H27C  518   6.606   0.845   4.611  0.4333 -0.0048  0.2303
    8CHL1    C3  519   5.486   0.540   5.887 -0.1846 -0.1261  0.5966
    8CHL1    H3  520   5.412   0.622   5.881  0.7358  0.7214  0.6213
    8CHL1    O3  521   5.572   0.560   5.994  0.3456  0.3383 -0.4404
    8CHL1   H3'  522   5.618   0.475   5.999  0.7578  0.4055 -2.1490
    8CHL1    C4  523   5.398   0.415   5.912  0.0300 -0.6097  0.4843
    8CHL1   H4A  524   5.454   0.320   5.928  0.9549 -0.1415  0.1438
    8CHL1   H4B  525   5.348   0.420   6.011  1.4868 -0.9005  1.2621
    8CHL1    C5  526   5.308   0.391   5.793  0.2766  0.1929 -0.1597
    8CHL1    C6  527   5.174   0.384   5.815  0.3104  0.7880  0.3140
    8CHL1    H6  528   5.141   0.405   5.918  2.1561  2.7067  0.5870
    8CHL1    C7  529   5.070   0.367   5.705 -0.7240  0.1659  0.5583
    8CHL1   H7A  530   4.992   0.288   5.715 -1.2135 -0.3743 -4.5646
    8CHL1   H7B  531   5.020   0.466   5.697  1.6594  1.4726  1.0132
    8CHL1    C8  532   5.140   0.319   5.569 -0.5219  0.6307  0.3780
    8CHL1    H8  533   5.166   0.211   5.576  2.4929  1.1597 -0.8424
    8CHL1   C14  534   5.036   0.344   5.462 -0.7496  0.6765 -0.0928
    8CHL1   H14  535   5.016   0.453   5.455 -1.7823  0.4419 -1.2031
    8CHL1   C15  536   4.900   0.285   5.468  0.5698  0.6323 -0.4031
    8CHL1  H15A  537   4.913   0.180   5.503 -0.2629  1.4947  2.8211
    8CHL1  H15B  538   4.831   0.338   5.537  0.4903  1.2394 -0.9382
    8CHL1   C16  539   4.839   0.287   5.327 -0.1018 -0.5587 -0.0635
    8CHL1  H16A  540   4.803   0.187   5.292  1.0640 -0.5531 -1.3591
    8CHL1  H16B  541   4.749   0.352   5.330 -1.1425 -1.9487  0.3553
    8CHL1   C17  542   4.956   0.331   5.233  0.3269  0.5866  0.4607
    8CHL1   H17  543   4.951   0.441   5.219  0.3529  0.3532 -1.7486
    8CHL1   C13  544   5.086   0.310   5.318  0.4607 -0.3450 -0.4866
    8CHL1   C18  545   5.125   0.162   5.305 -0.3326  0.3196 -0.1147
    8CHL1  H18A  546   5.037   0.094   5.311 -0.3575  0.4294  0.8555
    8CHL1  H18B  547   5.172   0.136   5.207 -2.7534 -1.6191 -0.8796
    8CHL1  H18C  548   5.188   0.128   5.389 -2.1889  0.0299  1.2336
    8CHL1   C12  549   5.216   0.396   5.290  0.4742 -0.6546 -0.0847
    8CHL1  H12A  550   5.253   0.357   5.193 -1.7242 -2.7320 -0.1757
    8CHL1  H12B  551   5.180   0.500   5.278  0.7629 -0.6596 -1.0436
    8CHL1   C11  552   5.321   0.390   5.401 -0.0479 -0.3651  0.7056
    8CHL1  H11A  553   5.366   0.289   5.391  1.8760  0.6777 -2.7203
    8CHL1  H11B  554   5.397   0.468   5.379 -0.4073  0.0584  0.9452
    8CHL1    C9  555   5.261   0.409   5.541 -0.4752 -0.0478 -0.6809
    8CHL1    H9  556   5.221   0.513   5.548  0.0531  0.2278 -1.5406
    8CHL1   C10  557   5.377   0.392   5.650  0.3303  0.5040 -0.6815
    8CHL1   C19  558   5.456   0.252   5.637  1.0187 -0.5259 -0.0920
    8CHL1  H19A  559   5.381   0.171   5.631 -0.2095  0.6422 -1.1466
    8CHL1  H19B  560   5.516   0.248   5.543 -1.5822  0.7531 -1.9074
    8CHL1  H19C  561   5.513   0.223   5.728  1.2970 -3.5060 -1.1002
    8CHL1    C1  562   5.475   0.508   5.637  0.8450 -0.9017 -0.1162
    8CHL1   H1A  563   5.538   0.510   5.546  0.4234 -0.0054 -0.4010
    8CHL1   H1B  564   5.408   0.596   5.633  0.1570 -1.3999  0.3194
    8CHL1    C2  565   5.568   0.522   5.762  0.1725 -0.1469  0.6922
    8CHL1   H2A  566   5.640   0.605   5.742  0.3934 -0.8175 -1.4998
    8CHL1   H2B  567   5.628   0.428   5.765  0.6591  0.1415  0.2056
    8CHL1   C20  568   4.953   0.278   5.093  0.2075 -0.1946  0.1546
    8CHL1   H20  569   5.060   0.273   5.067  0.3189 -0.4461  0.6367
    8CHL1   C21  570   4.886   0.378   4.998  0.3629  0.2088 -0.0100
    8CHL1  H21A  571   4.887   0.333   4.896  0.1184 -0.5086  0.3014
    8CHL1  H21B  572   4.943   0.473   4.997 -0.3041  0.6125 -0.0885
    8CHL1  H21C  573   4.782   0.389   5.034 -0.3522 -2.5050 -1.0237
    8CHL1   C22  574   4.888   0.144   5.076 -0.3892  0.2352  0.1960
    8CHL1  H22A  575   4.913   0.078   5.162  0.5305  0.5054  0.1445
    8CHL1  H22B  576   4.778   0.156   5.086 -0.6095 -0.2724 -1.3279
    8CHL1   C23  577   4.909   0.067   4.949 -0.4945  0.6422 -0.4435
    8CHL1  H23A  578   4.879  -0.039   4.967  0.3648  0.4209 -0.2639
    8CHL1  H23B  579   4.841   0.117   4.877  0.2445  1.2754 -0.7169
    8CHL1   C24  580   5.056   0.070   4.897  0.1955 -0.5745 -0.3022
    8CHL1  H24A  581   5.089   0.172   4.871 -1.1091 -0.0264  0.0935
    8CHL1  H24B  582   5.135   0.043   4.970  0.6414  0.3919 -0.4253
    8CHL1   C25  583   5.072  -0.020   4.769  0.5386 -0.8236  0.2778
    8CHL1   H25  584   5.015  -0.113   4.792  2.0812 -1.3817  2.1019
    8CHL1   C26  585   5.004   0.041   4.639 -0.3749 -0.2881  0.3111
    8CHL1  H26A  586   4.906   0.089   4.662  0.2018  0.9373  0.2982
    8CHL1  H26B  587   5.076   0.116   4.601 -0.2541 -0.7974 -0.4656
    8CHL1  H26C  588   4.995  -0.030   4.554 -0.7769  3.7468 -3.3661
    8CHL1   C27  589   5.215  -0.052   4.743 -0.3838  0.1238 -0.5896
    8CHL1  H27A  590   5.231  -0.091   4.641  1.1458  1.3017 -0.8447
    8CHL1  H27B  591   5.278   0.040   4.750  0.7448 -0.7459  2.2314
    8CHL1  H27C  592   5.252  -0.124   4.819 -1.3562  0.0020 -0.2172
    9CHL1    C3  593   1.982   1.427   6.407 -0.6238  0.4744 -0.4821
    9CHL1    H3  594   1.969   1.319   6.428  0.3931  0.2904 -0.7497
    9CHL1    O3  595   2.008   1.483   6.535  0.1568  0.4150 -0.1854
    9CHL1   H3'  596   1.932   1.466   6.592  0.4390  0.9280  0.3655
    9CHL1    C4  597   2.110   1.433   6.320  0.0053  0.2840 -0.6340
    9CHL1   H4A  598   2.136   1.541   6.308  1.9847 -0.0017  0.6321
    9CHL1   H4B  599   2.192   1.377   6.368 -0.5775  0.4696  0.6326
    9CHL1    C5  600   2.082   1.389   6.176 -0.6709 -0.6513 -0.0989
    9CHL1    C6  601   2.160   1.294   6.121 -0.5434  0.5392 -0.1333
    9CHL1    H6  602   2.245   1.254   6.178 -2.8138 -1.9272  1.7707
    9CHL1    C7  603   2.150   1.264   5.970 -0.5435  0.3574  0.7669
    9CHL1   H7A  604   2.250   1.262   5.922 -1.0086 -0.9892 -0.2015
    9CHL1   H7B  605   2.103   1.165   5.950  3.0676 -1.1201 -1.3742
    9CHL1    C8  606   2.057   1.359   5.897 -0.6903 -0.0967  0.5464
    9CHL1    H8  607   2.111   1.454   5.880  0.6791 -0.9808 -0.2480
    9CHL1   C14  608   2.035   1.313   5.755 -0.0928  0.6979 -0.0303
    9CHL1   H14  609   1.983   1.215   5.765  0.3945  0.4237 -0.1024
    9CHL1   C15  610   2.150   1.263   5.661 -0.1182 -0.2089  0.3228
    9CHL1  H15A  611   2.238   1.331   5.663 -1.9085  2.2798 -0.2631
    9CHL1  H15B  612   2.182   1.160   5.687  0.5751 -0.2667 -0.6903
    9CHL1   C16  613   2.096   1.280   5.518  0.2849  0.3853  0.0192
    9CHL1  H16A  614   2.157   1.353   5.461 -0.9005  0.6500 -0.9533
    9CHL1  H16B  615   2.100   1.181   5.469  1.0783 -1.0862  2.8396
    9CHL1   C17  616   1.952   1.332   5.535 -0.4387  0.7334 -0.3434
    9CHL1   H17  617   1.885   1.249   5.566 -0.2794  0.1519 -1.4980
    9CHL1   C13  618   1.951   1.414   5.670  0.2386 -0.3224  0.3589
    9CHL1   C18  619   2.018   1.550   5.653  0.2309  0.1874 -0.0039
    9CHL1  H18A  620   2.040   1.600   5.751  2.0581 -0.6036  0.0192
    9CHL1  H18B  621   2.114   1.530   5.600 -0.2322 -2.3454  0.0157
    9CHL1  H18C  622   1.954   1.627   5.606  1.8866  2.7125  1.6111
    9CHL1   C12  623   1.815   1.424   5.741 -0.1364 -0.2627 -0.3347
    9CHL1  H12A  624   1.751   1.491   5.681 -0.2810 -1.9321 -2.1449
    9CHL1  H12B  625   1.766   1.325   5.733 -1.8774  0.6370 -1.4054
    9CHL1   C11  626   1.835   1.478   5.877  0.1745 -0.6116 -0.3252
    9CHL1  H11A  627   1.873   1.582   5.878 -2.0073  0.2316  0.5019
    9CHL1  H11B  628   1.737   1.480   5.930  0.3056  0.1114 -0.1026
    9CHL1    C9  629   1.930   1.393   5.972  0.6374 -0.0749 -0.7494
    9CHL1    H9  630   1.884   1.294   5.995  2.2224 -0.8285 -0.6908
    9CHL1   C10  631   1.955   1.449   6.113  0.0167  0.5079  0.2637
    9CHL1   C19  632   1.978   1.602   6.101  0.1884 -0.0942  0.1425
    9CHL1  H19A  633   2.007   1.646   6.199 -2.0790 -1.1353  1.3701
    9CHL1  H19B  634   2.055   1.623   6.024 -0.5333  0.0775 -0.5416
    9CHL1  H19C  635   1.877   1.644   6.084 -0.1213 -0.5546  0.7791
    9CHL1    C1  636   1.828   1.430   6.199  0.5109 -0.3076 -0.3066
    9CHL1   H1A  637   1.749   1.493   6.152  1.6167  1.3784  0.0251
    9CHL1   H1B  638   1.815   1.319   6.202  0.7004 -0.3357  2.7872
    9CHL1    C2  639   1.849   1.479   6.343 -0.3934 -0.3454  0.2515
    9CHL1   H2A  640   1.760   1.459   6.407 -0.2378  1.8573  1.2551
    9CHL1   H2B  641   1.850   1.590   6.346  1.6245 -0.3299 -0.0192
    9CHL1   C20  642   1.869   1.397   5.422 -0.2082  0.1841 -0.4683
    9CHL1   H20  643   1.801   1.469   5.471  0.5809  1.0373 -0.5918
    9CHL1   C21  644   1.774   1.296   5.360  0.3447  0.1303 -0.0292
    9CHL1  H21A  645   1.703   1.260   5.438 -2.0712  0.1094 -2.0929
    9CHL1  H21B  646   1.827   1.209   5.317 -2.2015 -0.1967 -2.8144
    9CHL1  H21C  647   1.701   1.341   5.289 -0.8497  0.0666  1.1128
    9CHL1   C22  648   1.952   1.477   5.312 -0.7587  0.9854 -0.0719
    9CHL1  H22A  649   2.023   1.550   5.357 -1.1830  1.7216 -0.5852
    9CHL1  H22B  650   2.006   1.401   5.252 -0.0810  2.6183 -1.6099
    9CHL1   C23  651   1.863   1.561   5.222  0.0849  0.3966 -0.2995
    9CHL1  H23A  652   1.815   1.486   5.154  0.6957 -1.2957  1.0519
    9CHL1  H23B  653   1.783   1.604   5.285  0.2449  1.0308 -0.5282
    9CHL1   C24  654   1.940   1.664   5.138 -0.2158  0.1049 -0.0429
    9CHL1  H24A  655   2.009   1.729   5.195  0.3776 -0.2245 -0.3653
    9CHL1  H24B  656   1.997   1.609   5.060  1.4721  0.9839  0.5292
    9CHL1   C25  657   1.854   1.771   5.070  0.4460  0.6935 -0.2597
    9CHL1   H25  658   1.809   1.816   5.161 -0.8150  0.8742 -0.9564
    9CHL1   C26  659   1.935   1.868   4.985 -0.3079  0.2856  0.2788
    9CHL1  H26A  660   2.011   1.924   5.044  0.4451 -0.7924  0.3557
    9CHL1  H26B  661   1.981   1.821   4.896  0.3740  0.6087  0.4569
    9CHL1  H26C  662   1.874   1.950   4.942  0.6626  0.9447  0.1377
    9CHL1   C27  663   1.732   1.705   4.984 -0.1154  0.0402 -0.5043
    9CHL1  H27A  664   1.658   1.782   4.953 -0.5533 -0.0191  0.3541
    9CHL1  H27B  665   1.774   1.666   4.889  2.5800  0.6249  0.3842
    9CHL1  H27C  666   1.671   1.638   5.050 -1.1285  2.7703  1.5530
   10CHL1    C3  667   1.651   4.159   5.964 -0.0609 -0.0952  0.5599
   10CHL1    H3  668   1.584   4.072   5.981  1.3259 -2.3002 -3.7456
   10CHL1    O3  669   1.716   4.209   6.079  0.7457  0.1725 -0.5967
   10CHL1   H3'  670   1.701   4.303   6.064 -1.0468  0.1301  0.5717
   10CHL1    C4  671   1.758   4.107   5.861 -0.1095  0.1766  0.9408
   10CHL1   H4A  672   1.818   4.197   5.833 -1.5098  0.6212 -0.8092
   10CHL1   H4B  673   1.818   4.026   5.906  1.7554  0.4557 -0.8934
   10CHL1    C5  674   1.681   4.062   5.738  0.1835  0.2565 -0.0843
   10CHL1    C6  675   1.694   3.933   5.696 -0.2957 -0.6718  0.0114
   10CHL1    H6  676   1.760   3.865   5.752  1.3118  2.4065  2.1500
   10CHL1    C7  677   1.651   3.883   5.559 -0.4995  0.1429 -0.1218
   10CHL1   H7A  678   1.729   3.829   5.500 -0.8765  0.8918 -1.3379
   10CHL1   H7B  679   1.566   3.813   5.573  0.3523 -0.4944  2.5277
   10CHL1    C8  680   1.595   4.003   5.470  0.4212 -0.3622  0.0560
   10CHL1    H8  681   1.679   4.065   5.433  0.9557 -1.1733 -0.1180
   10CHL1   C14  682   1.520   3.951   5.343 -0.0721  0.0318 -0.6129
   10CHL1   H14  683   1.440   3.888   5.386 -1.1643  1.3249 -0.6754
   10CHL1   C15  684   1.604   3.870   5.250  0.4765  0.4177  0.1502
   10CHL1  H15A  685   1.695   3.929   5.225  1.3444 -0.2988  1.4991
   10CHL1  H15B  686   1.641   3.770   5.284 -0.1012  0.0715 -0.2266
   10CHL1   C16  687   1.508   3.852   5.128  0.3495  0.7460  0.3306
   10CHL1  H16A  688   1.561   3.856   5.030 -1.4602  0.6274 -0.7060
   10CHL1  H16B  689   1.462   3.751   5.129 -1.0117  1.3515  1.6667
   10CHL1   C17  690   1.402   3.969   5.145 -0.1392 -0.0594 -0.0066
   10CHL1   H17  691   1.317   3.913   5.190 -0.4634  1.0659  0.8298
   10CHL1   C13  692   1.455   4.058   5.254 -0.5475  0.0651  0.2564
   10CHL1   C18  693   1.558   4.152   5.195  0.4229  0.0538 -0.6461
   10CHL1  H18A  694   1.508   4.218   5.120 -0.7414 -1.4403 -1.2358
   10CHL1  H18B  695   1.611   4.221   5.264  0.5861  1.7585 -2.3945
   10CHL1  H18C  696   1.634   4.096   5.138 -2.3913 -1.5623 -3.1019
   10CHL1   C12  697   1.351   4.117   5.352 -0.0904  0.0188 -0.0280
   10CHL1  H12A  698   1.269   4.183   5.315 -0.2228  1.5920  2.8049
   10CHL1  H12B  699   1.288   4.031   5.384  0.8359 -1.1984 -1.3585
   10CHL1   C11  700   1.415   4.193   5.467  0.0827  0.1044  0.5302
   10CHL1  H11A  701   1.482   4.273   5.428 -0.6970 -0.4206 -2.1153
   10CHL1  H11B  702   1.342   4.238   5.538 -0.8642  0.0170 -0.3527
   10CHL1    C9  703   1.507   4.099   5.547 -0.7035  0.5639  0.5378
   10CHL1    H9  704   1.438   4.023   5.590  0.7704 -0.5272  1.0554
   10CHL1   C10  705   1.585   4.161   5.669  0.5329  0.0868  0.0716
   10CHL1   C19  706   1.667   4.276   5.601 -1.1652  0.8361 -0.2439
   10CHL1  H19A  707   1.605   4.364   5.574 -1.3419  0.4715 -1.0560
   10CHL1  H19B  708   1.748   4.319   5.664 -0.4551  1.0087 -1.2454
   10CHL1  H19C  709   1.716   4.250   5.504  0.6836  1.3987  0.4896
   10CHL1    C1  710   1.491   4.219   5.772  0.0101  0.3629 -0.0017
   10CHL1   H1A  711   1.433   4.303   5.728 -1.3394 -1.7251 -2.5586
   10CHL1   H1B  712   1.418   4.139   5.794  0.7984 -0.6995 -1.0736
   10CHL1    C2  713   1.566   4.273   5.899  0.4816  0.3792  0.4264
   10CHL1   H2A  714   1.505   4.311   5.984 -2.5473 -2.5307 -0.2428
   10CHL1   H2B  715   1.637   4.350   5.863  0.2684  1.1606  1.6348
   10CHL1   C20  716   1.354   4.019   5.014 -0.4049  0.4352  0.1572
   10CHL1   H20  717   1.434   4.068   4.956 -1.9534  0.4981 -2.0706
   10CHL1   C21  718   1.247   4.126   5.035 -0.1434  0.3766  0.2687
   10CHL1  H21A  719   1.267   4.211   5.104  2.3768  1.5350 -1.7170
   10CHL1  H21B  720   1.148   4.080   5.055 -1.1807  2.0906 -0.7444
   10CHL1  H21C  721   1.239   4.165   4.932  3.0049 -1.1520 -0.6823
   10CHL1   C22  722   1.300   3.911   4.919 -0.0434  0.2651  0.0984
   10CHL1  H22A  723   1.362   3.819   4.932 -1.5987 -0.7210  0.8190
   10CHL1  H22B  724   1.198   3.881   4.953 -1.3063  0.1760 -3.3527
   10CHL1   C23  725   1.276   3.952   4.772 -0.4190 -0.8636  0.1944
   10CHL1  H23A  726   1.201   4.034   4.778 -0.6468 -1.1065  0.8056
   10CHL1  H23B  727   1.361   3.993   4.714 -1.2438  1.9187  0.7776
   10CHL1   C24  728   1.229   3.832   4.680  0.0394 -0.0070  0.5108
   10CHL1  H24A  729   1.314   3.769   4.645 -0.2455 -0.1328  0.0262
   10CHL1  H24B  730   1.163   3.775   4.749  2.6960 -0.8537  2.5016
   10CHL1   C25  731   1.152   3.886   4.560 -0.7084  0.2028  0.3457
   10CHL1   H25  732   1.078   3.959   4.596  0.6347  1.2244  1.1134
   10CHL1   C26  733   1.239   3.971   4.465 -0.2582  0.4419  0.6886
   10CHL1  H26A  734   1.184   4.024   4.385  0.9804 -1.5516 -1.6091
   10CHL1  H26B  735   1.295   4.048   4.523  2.1847 -1.0339  0.4364
   10CHL1  H26C  736   1.307   3.911   4.401 -0.2314  1.8934 -0.6999
   10CHL1   C27  737   1.076   3.776   4.482  0.1141 -0.0734  0.0599
   10CHL1  H27A  738   1.004   3.729   4.553  0.3856 -0.5046  0.0509
   10CHL1  H27B  739   1.004   3.832   4.418 -1.0907 -1.7736 -0.1232
   10CHL1  H27C  740   1.148   3.713   4.426  3.2485  0.9126  2.6738
   11CHL1    C3  741   3.662   6.615   6.055 -0.2138  0.9251  1.4197
   11CHL1    H3  742   3.554   6.597   6.034  0.4970 -1.0190 -1.0927
   11CHL1    O3  743   3.678   6.648   6.190  0.0681 -0.2663 -1.0093
   11CHL1   H3'  744   3.747   6.714   6.190  1.2573 -1.4600 -1.3323
   11CHL1    C4  745   3.735   6.481   6.018  0.0961  0.1676  0.3648
   11CHL1   H4A  746   3.846   6.488   6.030  0.1838  1.4964 -0.9467
   11CHL1   H4B  747   3.695   6.410   6.093 -3.0749  1.2727 -0.1397
   11CHL1    C5  748   3.705   6.438   5.872  0.4656  0.0987  0.7994
   11CHL1    C6  749   3.660   6.319   5.849 -0.2413  0.1575  0.0040
   11CHL1    H6  750   3.641   6.255   5.936 -1.2314  2.6831  1.7621
   11CHL1    C7  751   3.629   6.280   5.713 -0.6891  0.0163 -0.3213
   11CHL1   H7A  752   3.648   6.173   5.691 -0.0340  0.2349 -0.8714
   11CHL1   H7B  753   3.520   6.291   5.701 -0.7534  0.7486  0.7987
   11CHL1    C8  754   3.694   6.361   5.600  0.4169  0.5113  0.5027
   11CHL1    H8  755   3.802   6.339   5.608  0.8605  2.4699  0.5235
   11CHL1   C14  756   3.634   6.342   5.463  0.4305 -0.5685  0.1528
   11CHL1   H14  757   3.535   6.390   5.477  0.4199  0.3829 -2.6130
   11CHL1   C15  758   3.595   6.190   5.414  0.3529 -0.4273 -0.1184
   11CHL1  H15A  759   3.684   6.125   5.430  0.9121  0.5535  0.9470
   11CHL1  H15B  760   3.504   6.147   5.463 -0.2157 -2.1583 -2.5291
   11CHL1   C16  761   3.580   6.212   5.256  0.0892  0.2960 -0.7432
   11CHL1  H16A  762   3.651   6.140   5.209 -2.3705 -2.7821 -0.0558
   11CHL1  H16B  763   3.478   6.190   5.219 -0.4964  0.1480  0.8979
   11CHL1   C17  764   3.608   6.360   5.226 -0.5705  0.0116  0.5471
   11CHL1   H17  765   3.511   6.415   5.222 -0.8043 -0.4427 -0.4073
   11CHL1   C13  766   3.693   6.420   5.342  0.4513 -0.8821  0.2455
   11CHL1   C18  767   3.833   6.368   5.299 -0.1634 -1.0943  0.1524
   11CHL1  H18A  768   3.904   6.372   5.385 -0.3694 -0.6570  0.3050
   11CHL1  H18B  769   3.837   6.261   5.270 -2.2063 -0.9652 -0.7781
   11CHL1  H18C  770   3.877   6.434   5.220 -2.4821 -0.8866 -1.0322
   11CHL1   C12  771   3.690   6.563   5.374 -0.1156  0.3843  0.1084
   11CHL1  H12A  772   3.746   6.618   5.295 -0.7726 -2.0069 -2.1458
   11CHL1  H12B  773   3.586   6.602   5.367 -1.0937 -1.6399  2.3068
   11CHL1   C11  774   3.752   6.586   5.512 -0.2274 -0.2853  0.8670
   11CHL1  H11A  775   3.858   6.554   5.507  0.3968  1.6689  0.5126
   11CHL1  H11B  776   3.766   6.695   5.526  0.0253 -0.2980  0.7191
   11CHL1    C9  777   3.688   6.509   5.632 -0.5089 -0.3787  0.0308
   11CHL1    H9  778   3.581   6.539   5.624 -0.5973 -0.8228 -0.5564
   11CHL1   C10  779   3.738   6.546   5.768  0.1237 -0.3933  0.2405
   11CHL1   C19  780   3.894   6.539   5.766  0.3843  0.5649 -0.7479
   11CHL1  H19A  781   3.931   6.619   5.699 -4.0203  2.0198 -1.7547
   11CHL1  H19B  782   3.939   6.555   5.867 -0.2586 -2.4946  0.1283
   11CHL1  H19C  783   3.937   6.444   5.729 -2.1784 -0.7926 -0.4932
   11CHL1    C1  784   3.675   6.683   5.811 -0.0656  0.0371 -0.5742
   11CHL1   H1A  785   3.722   6.755   5.741 -0.2696  0.0691 -0.6768
   11CHL1   H1B  786   3.565   6.680   5.799  0.0514 -1.9774 -1.5902
   11CHL1    C2  787   3.701   6.723   5.957 -0.3578  0.1335  0.1409
   11CHL1   H2A  788   3.656   6.822   5.983  0.1676 -0.2391  2.7964
   11CHL1   H2B  789   3.807   6.739   5.987 -0.9717 -1.5783  3.7594
   11CHL1   C20  790   3.657   6.369   5.076 -0.5315 -0.2664  0.8584
   11CHL1   H20  791   3.750   6.308   5.070  0.4997  1.2125  1.2405
   11CHL1   C21  792   3.682   6.517   5.038 -0.5569 -0.1629 -0.2220
   11CHL1  H21A  793   3.680   6.529   4.928 -0.3458  0.8581 -0.1284
   11CHL1  H21B  794   3.768   6.566   5.089 -1.8555  1.3307  0.6227
   11CHL1  H21C  795   3.601   6.583   5.076  0.5059  0.4135  1.1670
   11CHL1   C22  796   3.562   6.296   4.978  0.2083 -0.0437 -0.0148
   11CHL1  H22A  797   3.515   6.201   5.012 -2.2616  1.0319 -0.2369
   11CHL1  H22B  798   3.478   6.362   4.947  1.1021  1.2603  0.3005
   11CHL1   C23  799   3.633   6.256   4.847 -0.2886  0.5256  0.0710
   11CHL1  H23A  800   3.695   6.335   4.799 -0.2006  0.2169 -0.3334
   11CHL1  H23B  801   3.711   6.186   4.885 -1.6657 -0.8903  0.4177
   11CHL1   C24  802   3.535   6.185   4.744  0.3061  0.6805 -0.2085
   11CHL1  H24A  803   3.524   6.088   4.797 -0.4988  1.8328  1.8564
   11CHL1  H24B  804   3.441   6.244   4.744  0.6107  1.2097 -1.5606
   11CHL1   C25  805   3.582   6.170   4.603 -0.6820  0.2409  0.2060
   11CHL1   H25  806   3.635   6.258   4.561  2.8723 -1.7953  0.0508
   11CHL1   C26  807   3.705   6.077   4.596  0.5473  0.4055  0.3648
   11CHL1  H26A  808   3.786   6.117   4.660 -1.0811  0.8784  2.1920
   11CHL1  H26B  809   3.670   5.979   4.634  0.5998  0.5707  0.8462
   11CHL1  H26C  810   3.743   6.060   4.492 -2.0347 -0.6371 -0.4861
   11CHL1   C27  811   3.469   6.122   4.518  0.1554  0.1503  0.3544
   11CHL1  H27A  812   3.496   6.073   4.423 -2.3436 -0.2783 -0.2042
   11CHL1  H27B  813   3.392   6.066   4.576  0.7449  0.2025  1.2028
   11CHL1  H27C  814   3.415   6.216   4.492 -1.7145  0.1316  3.5125
   12CHL1    C3  815   5.797   5.838   6.245  0.2952 -0.0146  0.2836
   12CHL1    H3  816   5.859   5.748   6.228 -0.8309 -0.6449 -0.5926
   12CHL1    O3  817   5.757   5.843   6.384  0.5026 -0.6521  0.0640
   12CHL1   H3'  818   5.698   5.917   6.401 -0.3247 -1.1503 -0.5801
   12CHL1    C4  819   5.896   5.946   6.216 -0.1109 -0.5687 -0.4099
   12CHL1   H4A  820   5.871   6.050   6.244 -1.5102 -1.2411  0.9862
   12CHL1   H4B  821   5.992   5.926   6.268 -0.8099  1.9874  2.1280
   12CHL1    C5  822   5.921   5.941   6.062  0.0352 -0.2602  0.0278
   12CHL1    C6  823   6.042   5.919   6.011 -0.4988 -1.4539 -0.2261
   12CHL1    H6  824   6.121   5.907   6.087 -1.3042 -0.6414  0.7557
   12CHL1    C7  825   6.077   5.909   5.860  0.7597 -0.7562 -0.0645
   12CHL1   H7A  826   6.177   5.954   5.843  1.2216 -1.6670  0.1809
   12CHL1   H7B  827   6.097   5.809   5.817  2.8875  0.1880 -1.4199
   12CHL1    C8  828   5.976   5.991   5.780  0.2622 -0.3203 -0.1268
   12CHL1    H8  829   5.989   6.100   5.798 -1.3922  0.3111 -2.2574
   12CHL1   C14  830   6.000   5.959   5.635 -1.2772 -0.2679 -0.3942
   12CHL1   H14  831   5.981   5.850   5.621 -0.1787 -0.9827  2.7136
   12CHL1   C15  832   6.142   5.987   5.569 -0.3234  0.3182 -0.2522
   12CHL1  H15A  833   6.176   6.083   5.614  2.0722 -0.0960 -1.0013
   12CHL1  H15B  834   6.213   5.903   5.583 -2.2729 -1.2079  0.8809
   12CHL1   C16  835   6.113   6.018   5.424  0.2868 -0.2807 -0.2931
   12CHL1  H16A  836   6.145   6.119   5.392 -0.1440 -0.7856 -2.4534
   12CHL1  H16B  837   6.145   5.940   5.352  2.0672  0.1815 -0.0341
   12CHL1   C17  838   5.961   6.009   5.412  0.4642 -0.2513 -0.2154
   12CHL1   H17  839   5.942   5.900   5.402 -1.0797 -0.1009  0.7239
   12CHL1   C13  840   5.906   6.043   5.547  0.1599  0.5275  0.0860
   12CHL1   C18  841   5.930   6.195   5.565 -0.3103  0.5602  0.1877
   12CHL1  H18A  842   5.861   6.257   5.504  0.1951  2.3467  1.3604
   12CHL1  H18B  843   5.903   6.234   5.666  0.2683  1.8475 -0.1364
   12CHL1  H18C  844   6.028   6.223   5.522 -0.0243  0.7535  0.9401
   12CHL1   C12  845   5.759   5.996   5.580  0.0953 -0.5751 -0.0772
   12CHL1  H12A  846   5.682   6.045   5.516 -2.5046  0.3618  3.4290
   12CHL1  H12B  847   5.755   5.886   5.569  0.2749 -0.5283 -0.6947
   12CHL1   C11  848   5.722   6.021   5.728 -0.1782  0.2213 -0.0240
   12CHL1  H11A  849   5.709   6.131   5.733 -1.3307  0.1274 -0.6690
   12CHL1  H11B  850   5.626   5.970   5.750 -0.4850  1.5106  1.8973
   12CHL1    C9  851   5.830   5.966   5.821  0.3456  0.2659 -0.1367
   12CHL1    H9  852   5.808   5.858   5.806  0.5764  0.0333  1.0911
   12CHL1   C10  853   5.797   5.973   5.980 -1.3516 -0.2617  0.5205
   12CHL1   C19  854   5.754   6.114   6.010  0.1491  0.2186 -0.7748
   12CHL1  H19A  855   5.742   6.127   6.119  0.0485 -0.0826 -0.7515
   12CHL1  H19B  856   5.825   6.184   5.960  1.1590 -1.2189 -1.4209
   12CHL1  H19C  857   5.656   6.129   5.960  0.9001  0.1645 -2.3160
   12CHL1    C1  858   5.690   5.865   6.012  0.7476  0.5348 -0.0754
   12CHL1   H1A  859   5.594   5.898   5.968 -0.9647 -0.7471  2.4158
   12CHL1   H1B  860   5.715   5.762   5.978 -1.9397 -1.5486  3.4788
   12CHL1    C2  861   5.664   5.853   6.165 -0.4356 -0.1091 -0.1567
   12CHL1   H2A  862   5.597   5.768   6.189 -0.9866  0.5240  0.5677
   12CHL1   H2B  863   5.610   5.946   6.193 -0.1846 -0.2551  0.8159
   12CHL1   C20  864   5.902   6.074   5.282  0.8398 -0.0971 -0.6731
   12CHL1   H20  865   5.868   6.179   5.297  0.5671  0.0706 -2.2586
   12CHL1   C21  866   5.785   5.980   5.249  0.1221  0.0857  0.2169
   12CHL1  H21A  867   5.733   6.011   5.156 -2.7907 -1.3206  1.2234
   12CHL1  H21B  868   5.704   5.955   5.321 -1.9931 -2.9199 -2.9182
   12CHL1  H21C  869   5.822   5.877   5.228 -1.2517 -0.9399  2.3635
   12CHL1   C22  870   5.984   6.094   5.150  1.0773 -0.1854 -0.0421
   12CHL1  H22A  871   6.087   6.113   5.187  0.0051  1.7036  2.2434
   12CHL1  H22B  872   5.963   6.003   5.090  3.3350  0.9106 -2.7124
   12CHL1   C23  873   5.935   6.211   5.056  0.0735  0.5923 -0.3329
   12CHL1  H23A  874   5.828   6.197   5.032 -0.1022 -3.9724  1.9990
   12CHL1  H23B  875   5.942   6.308   5.111  1.2954  0.3934 -0.0892
   12CHL1   C24  876   6.025   6.227   4.923 -0.3342  0.0980 -0.2034
   12CHL1  H24A  877   5.997   6.159   4.839 -2.8502  0.8729 -0.0731
   12CHL1  H24B  878   5.999   6.328   4.883 -1.0343 -0.6129 -1.6462
   12CHL1   C25  879   6.176   6.212   4.943 -0.2756  0.1424  0.0737
   12CHL1   H25  880   6.185   6.110   4.986 -0.4373 -0.0367 -0.3187
   12CHL1   C26  881   6.253   6.205   4.815 -0.0587 -0.1001 -0.3642
   12CHL1  H26A  882   6.357   6.174   4.840  0.1826 -0.5447 -1.8276
   12CHL1  H26B  883   6.201   6.140   4.742 -1.7574 -1.7031  2.1479
   12CHL1  H26C  884   6.270   6.311   4.783 -1.1610  0.7076  1.5468
   12CHL1   C27  885   6.232   6.317   5.036 -0.2947  0.6611 -0.4395
   12CHL1  H27A  886   6.329   6.275   5.070 -0.2072 -0.5450 -2.0644
   12CHL1  H27B  887   6.252   6.415   4.987  1.7204  0.3782 -0.2987
   12CHL1  H27C  888   6.168   6.322   5.127 -0.4826  0.4365 -0.5580
   13CHL1    C3  889   4.749   6.599   6.124 -0.3823  0.0826 -0.1172
   13CHL1    H3  890   4.673   6.660   6.071 -1.0387  0.5964  1.3626
   13CHL1    O3  891   4.738   6.643   6.260 -0.5609 -0.3176  0.7193
   13CHL1   H3'  892   4.802   6.714   6.269 -2.4360  1.7287 -0.9576
   13CHL1    C4  893   4.729   6.452   6.122 -0.2996  0.1207 -0.1290
   13CHL1   H4A  894   4.808   6.404   6.184 -1.1651 -0.3454  0.6314
   13CHL1   H4B  895   4.630   6.435   6.169 -0.8363  3.2740  0.0894
   13CHL1    C5  896   4.734   6.392   5.982  0.1585 -0.3631 -0.2113
   13CHL1    C6  897   4.630   6.331   5.933  0.0244 -1.0961  0.0512
   13CHL1    H6  898   4.539   6.320   5.993  0.2825 -0.9690  0.4712
   13CHL1    C7  899   4.628   6.282   5.791  0.0239 -0.1570  0.8607
   13CHL1   H7A  900   4.572   6.188   5.774  1.0082 -0.3664 -1.7253
   13CHL1   H7B  901   4.569   6.350   5.725 -0.0530 -0.9016  0.1461
   13CHL1    C8  902   4.767   6.271   5.713 -0.6237 -0.1743 -0.5353
   13CHL1    H8  903   4.814   6.175   5.745  0.1149  0.0000 -1.0540
   13CHL1   C14  904   4.761   6.266   5.560 -0.0766  0.1124  0.7935
   13CHL1   H14  905   4.713   6.356   5.518  0.0276 -0.3290 -0.2992
   13CHL1   C15  906   4.675   6.142   5.514 -0.5880  0.2258 -0.3961
   13CHL1  H15A  907   4.692   6.053   5.579 -1.4053 -0.0290 -0.5235
   13CHL1  H15B  908   4.572   6.183   5.514 -0.9789 -0.7222 -0.1296
   13CHL1   C16  909   4.729   6.120   5.381  0.1732  0.0716  0.2068
   13CHL1  H16A  910   4.769   6.018   5.363 -0.0036  0.0082  0.1623
   13CHL1  H16B  911   4.656   6.135   5.298  1.8522  1.0147 -1.1776
   13CHL1   C17  912   4.850   6.217   5.356  0.1035  0.1873 -0.0269
   13CHL1   H17  913   4.798   6.304   5.312 -3.7036 -2.1742 -0.6959
   13CHL1   C13  914   4.903   6.254   5.493  0.3544  0.0133 -0.2282
   13CHL1   C18  915   4.982   6.131   5.552 -0.2918  0.4836  0.3656
   13CHL1  H18A  916   4.922   6.039   5.532  1.8016 -1.0812  0.8580
   13CHL1  H18B  917   5.086   6.116   5.517 -0.7563 -0.4328 -0.7064
   13CHL1  H18C  918   4.993   6.135   5.662  2.0992 -0.6823  0.2465
   13CHL1   C12  919   4.975   6.382   5.523 -0.1249 -0.2066  0.1722
   13CHL1  H12A  920   5.073   6.389   5.470 -0.1380  0.5241  0.2380
   13CHL1  H12B  921   4.925   6.471   5.478  0.1289 -1.1290 -2.1108
   13CHL1   C11  922   4.989   6.403   5.676 -0.4104 -0.6781 -0.2488
   13CHL1  H11A  923   5.070   6.335   5.710 -0.4588  1.0971  3.9687
   13CHL1  H11B  924   5.039   6.499   5.703 -0.6710 -0.0009 -1.9947
   13CHL1    C9  925   4.852   6.393   5.751  0.7765  0.4976  0.1043
   13CHL1    H9  926   4.795   6.477   5.706  2.2135  0.3633 -2.1559
   13CHL1   C10  927   4.862   6.428   5.897 -0.6123  0.4519 -0.3204
   13CHL1   C19  928   4.980   6.342   5.956  0.3700 -0.3545  0.2923
   13CHL1  H19A  929   4.955   6.236   5.935 -2.2009  0.5113 -1.5894
   13CHL1  H19B  930   5.075   6.370   5.906 -0.3462  0.5555 -0.6055
   13CHL1  H19C  931   4.999   6.349   6.065 -0.9166 -0.9004  0.5793
   13CHL1    C1  932   4.898   6.576   5.928 -0.4810 -1.1378  0.3306
   13CHL1   H1A  933   5.004   6.591   5.897 -1.2786  0.8857 -1.6036
   13CHL1   H1B  934   4.839   6.639   5.858 -1.4691  0.1262  2.2137
   13CHL1    C2  935   4.891   6.626   6.072 -0.0654 -0.3162 -0.4698
   13CHL1   H2A  936   4.921   6.733   6.080  1.5887 -0.5238 -2.7574
   13CHL1   H2B  937   4.970   6.575   6.131  1.8878  1.9321 -0.9850
   13CHL1   C20  938   4.940   6.163   5.251 -0.0755 -0.5615  0.5636
   13CHL1   H20  939   4.955   6.055   5.274 -4.0365 -1.6098 -0.9324
   13CHL1   C21  940   5.074   6.247   5.236 -0.2261  0.3604 -0.6791
   13CHL1  H21A  941   5.042   6.351   5.211  1.6964  1.0211 -0.5753
   13CHL1  H21B  942   5.151   6.204   5.168  1.3769  0.4712  1.0013
   13CHL1  H21C  943   5.129   6.242   5.332 -0.1893  0.2779 -0.7047
   13CHL1   C22  944   4.864   6.148   5.115 -0.7932  0.5146  0.4324
   13CHL1  H22A  945   4.777   6.079   5.127  1.1219 -2.0625  0.2554
   13CHL1  H22B  946   4.827   6.250   5.089  0.5221  1.7627  3.0895
   13CHL1   C23  947   4.959   6.084   5.012  0.2916  0.1595  0.0164
   13CHL1  H23A  948   5.039   6.157   4.989  1.7142 -1.0027  1.0751
   13CHL1  H23B  949   5.007   5.997   5.060 -2.3651 -2.1960 -1.2727
   13CHL1   C24  950   4.886   6.037   4.891  0.0783 -0.6264  0.1039
   13CHL1  H24A  951   4.799   5.975   4.922  0.3835 -2.3484 -2.1798
   13CHL1  H24B  952   4.838   6.113   4.825 -0.8794 -0.5830  0.8317
   13CHL1   C25  953   4.974   5.940   4.799  0.3766  0.2816 -0.7732
   13CHL1   H25  954   5.004   5.858   4.868 -0.7131  1.6696  1.4841
   13CHL1   C26  955   4.888   5.878   4.696 -0.2308 -0.5495  1.3078
   13CHL1  H26A  956   4.850   5.966   4.641 -0.6482 -0.8541  1.1046
   13CHL1  H26B  957   4.944   5.803   4.635  1.5476 -0.6122  2.9397
   13CHL1  H26C  958   4.800   5.827   4.740 -1.1402 -0.5691 -0.4368
   13CHL1   C27  959   5.096   6.009   4.738  0.3874  0.2416  0.3298
   13CHL1  H27A  960   5.064   6.101   4.685 -0.7124  1.1000  2.3505
   13CHL1  H27B  961   5.168   6.038   4.818  1.3368  1.7034 -0.9910
   13CHL1  H27C  962   5.131   5.933   4.665  2.8832 -0.4418  2.0888
   14CHL1    C3  963   5.140   2.752   5.977  0.4262 -0.0523 -0.1768
   14CHL1    H3  964   5.036   2.729   5.948  0.1403 -0.2440  0.9700
   14CHL1    O3  965   5.136   2.757   6.119  0.2537 -0.4046  0.3055
   14CHL1   H3'  966   5.225   2.783   6.144  1.0093 -1.4159 -1.2102
   14CHL1    C4  967   5.239   2.646   5.941 -0.2625  0.4970  0.4337
   14CHL1   H4A  968   5.332   2.680   5.993 -1.4345  1.8992  1.6979
   14CHL1   H4B  969   5.198   2.552   5.983  0.5817  0.4014  1.0708
   14CHL1    C5  970   5.253   2.641   5.789  0.1386 -0.2929  0.5564
   14CHL1    C6  971   5.237   2.520   5.730  0.0339  0.2897 -0.1670
   14CHL1    H6  972   5.208   2.434   5.792 -0.6238  0.4124 -0.2972
   14CHL1    C7  973   5.267   2.493   5.583  0.0382 -0.3252 -0.3502
   14CHL1   H7A  974   5.321   2.399   5.559 -0.3622 -0.4352 -0.8416
   14CHL1   H7B  975   5.166   2.487   5.536  0.4101 -0.2956 -1.1688
   14CHL1    C8  976   5.342   2.613   5.512 -0.4512  0.7790 -0.1087
   14CHL1    H8  977   5.449   2.592   5.531 -0.7890 -3.0578 -1.4261
   14CHL1   C14  978   5.310   2.608   5.364  0.3632  0.5957  0.2969
   14CHL1   H14  979   5.201   2.625   5.350  0.1746  1.2577  2.2446
   14CHL1   C15  980   5.331   2.470   5.299  0.5677 -0.5989  0.2642
   14CHL1  H15A  981   5.430   2.423   5.319  1.0551 -0.6402 -1.9523
   14CHL1  H15B  982   5.254   2.391   5.318  0.0745 -0.0340  0.6421
   14CHL1   C16  983   5.336   2.502   5.148 -0.2878  0.3676  0.2645
   14CHL1  H16A  984   5.432   2.478   5.099 -0.5926 -0.3532 -0.0011
   14CHL1  H16B  985   5.258   2.446   5.092  1.0163 -0.6699 -0.5784
   14CHL1   C17  986   5.327   2.663   5.142 -0.7047  0.2135 -0.2064
   14CHL1   H17  987   5.222   2.698   5.133 -0.2163  1.2819 -2.8517
   14CHL1   C13  988   5.375   2.711   5.275 -0.0393  0.7926 -0.3322
   14CHL1   C18  989   5.531   2.705   5.274 -0.0223  0.3680 -0.3597
   14CHL1  H18A  990   5.571   2.608   5.236  1.3303 -0.1144  2.0764
   14CHL1  H18B  991   5.566   2.785   5.207 -1.3699  0.4635 -0.9829
   14CHL1  H18C  992   5.572   2.723   5.376  1.2805  1.3642 -1.0434
   14CHL1   C12  993   5.336   2.846   5.329  0.1384  0.7131 -0.0791
   14CHL1  H12A  994   5.404   2.922   5.285  2.0970  0.0670  1.6493
   14CHL1  H12B  995   5.227   2.857   5.306  0.2557 -0.3549 -1.2547
   14CHL1   C11  996   5.366   2.865   5.482  0.8599 -0.5799  0.2090
   14CHL1  H11A  997   5.476   2.875   5.496  1.1882  0.4215 -2.5003
   14CHL1  H11B  998   5.322   2.964   5.507  0.3577 -0.0111 -2.5620
   14CHL1    C9  999   5.295   2.752   5.566 -0.3329  0.5577  0.1761
   14CHL1    H9 1000   5.185   2.754   5.547 -0.2086  0.6833 -0.5361
   14CHL1   C10 1001   5.298   2.768   5.722  0.5091 -0.2189 -0.2278
   14CHL1   C19 1002   5.444   2.808   5.762 -0.1369  0.0200  0.1559
   14CHL1  H19A 1003   5.460   2.830   5.869  1.9295 -0.8881  0.0744
   14CHL1  H19B 1004   5.514   2.724   5.741 -0.6249  0.1142 -2.1303
   14CHL1  H19C 1005   5.476   2.900   5.709  1.1442 -0.1006  0.6811
   14CHL1    C1 1006   5.197   2.880   5.769 -0.3439  0.2113  0.4320
   14CHL1   H1A 1007   5.236   2.981   5.745 -1.8280  1.1492  1.7378
   14CHL1   H1B 1008   5.105   2.857   5.711  1.3083 -3.3457 -1.0619
   14CHL1    C2 1009   5.176   2.884   5.926  0.0162 -0.4954  0.5889
   14CHL1   H2A 1010   5.095   2.957   5.949  0.9272  1.3528 -1.6666
   14CHL1   H2B 1011   5.271   2.921   5.970  0.2862  0.5234 -0.7932
   14CHL1   C20 1012   5.412   2.713   5.012  0.1521  0.1582 -0.2794
   14CHL1   H20 1013   5.520   2.695   5.029 -0.0458  1.0541  2.3605
   14CHL1   C21 1014   5.391   2.866   4.994 -0.3668 -0.6535 -0.3158
   14CHL1  H21A 1015   5.440   2.933   5.068  0.5990  0.7674 -2.1326
   14CHL1  H21B 1016   5.283   2.889   5.003 -0.2228 -0.6143  1.9324
   14CHL1  H21C 1017   5.436   2.903   4.899  1.5483  1.4251  1.2829
   14CHL1   C22 1018   5.354   2.644   4.889 -0.1704  0.0636  0.1752
   14CHL1  H22A 1019   5.346   2.535   4.904 -0.4146 -0.2086 -1.7219
   14CHL1  H22B 1020   5.248   2.672   4.871 -0.3383 -0.5566  0.1910
   14CHL1   C23 1021   5.426   2.660   4.755 -0.2581 -0.3799  0.0256
   14CHL1  H23A 1022   5.371   2.734   4.694  2.5096  0.1631 -2.0192
   14CHL1  H23B 1023   5.529   2.699   4.770 -0.3700 -0.5527  1.4391
   14CHL1   C24 1024   5.427   2.528   4.673 -0.1426  0.0151  0.2408
   14CHL1  H24A 1025   5.476   2.450   4.736 -0.8008 -1.9289 -1.5346
   14CHL1  H24B 1026   5.323   2.495   4.649  0.6380 -1.9470 -0.7090
   14CHL1   C25 1027   5.493   2.537   4.534  0.1362 -0.6122  0.2464
   14CHL1   H25 1028   5.448   2.617   4.473  0.1035 -0.1975  0.8064
   14CHL1   C26 1029   5.638   2.561   4.543 -0.6134  0.4767  0.4056
   14CHL1  H26A 1030   5.705   2.482   4.584  1.7032  0.3567 -3.1944
   14CHL1  H26B 1031   5.677   2.574   4.440  2.9162  2.4003  1.7851
   14CHL1  H26C 1032   5.665   2.653   4.600  1.4013  0.2994 -0.1932
   14CHL1   C27 1033   5.466   2.399   4.465 -0.4770 -0.1808  0.7606
   14CHL1  H27A 1034   5.362   2.400   4.425  0.7141 -1.6487 -2.7639
   14CHL1  H27B 1035   5.521   2.395   4.369 -0.1173  0.2276  0.9448
   14CHL1  H27C 1036   5.494   2.312   4.528  1.5409 -0.4508 -0.4270
   15CHL1    C3 1037   4.798   2.309   6.349 -0.0546  0.2155  0.5226
   15CHL1    H3 1038   4.800   2.420   6.361 -0.1453  0.2206  0.4914
   15CHL1    O3 1039   4.794   2.268   6.489 -0.4370  0.1166  0.4428
   15CHL1   H3' 1040   4.743   2.187   6.489  0.7848 -0.6830  0.8465
   15CHL1    C4 1041   4.675   2.259   6.267  0.1036 -0.1371 -0.4702
   15CHL1   H4A 1042   4.683   2.148   6.273  0.1990 -0.1164 -0.1916
   15CHL1   H4B 1043   4.581   2.282   6.323 -0.4883  1.4491 -2.0291
   15CHL1    C5 1044   4.675   2.292   6.120  0.0810 -0.9315 -0.4582
   15CHL1    C6 1045   4.571   2.363   6.075 -0.0436 -0.2606 -0.5504
   15CHL1    H6 1046   4.492   2.389   6.146  0.6858 -1.2339  0.6445
   15CHL1    C7 1047   4.561   2.394   5.925 -0.0087  0.5004 -0.0707
   15CHL1   H7A 1048   4.463   2.377   5.877  0.2528  1.5209 -1.0198
   15CHL1   H7B 1049   4.598   2.498   5.908  0.6374  0.2125 -0.4600
   15CHL1    C8 1050   4.665   2.312   5.837 -0.1436 -0.7345  0.1784
   15CHL1    H8 1051   4.630   2.208   5.824  1.2518 -1.2360  0.2204
   15CHL1   C14 1052   4.681   2.367   5.692  0.1531 -0.1303 -0.1712
   15CHL1   H14 1053   4.718   2.472   5.692 -0.0067 -0.0462 -2.0998
   15CHL1   C15 1054   4.552   2.387   5.604  0.2199  0.3286  0.6072
   15CHL1  H15A 1055   4.481   2.302   5.617 -0.0103 -0.1101 -2.6125
   15CHL1  H15B 1056   4.498   2.475   5.644  1.6479  1.1383  0.8596
   15CHL1   C16 1057   4.612   2.401   5.462 -0.0041 -0.3597  0.4723
   15CHL1  H16A 1058   4.552   2.354   5.382  0.6783  1.4967 -1.1933
   15CHL1  H16B 1059   4.626   2.509   5.441  2.7678 -1.0413 -1.7029
   15CHL1   C17 1060   4.754   2.352   5.463 -0.3798  0.3400 -0.7074
   15CHL1   H17 1061   4.810   2.448   5.463  0.3209 -0.0394 -1.9522
   15CHL1   C13 1062   4.782   2.288   5.598 -0.0727 -0.5561  0.3041
   15CHL1   C18 1063   4.742   2.137   5.591 -0.0576 -0.2504 -0.0264
   15CHL1  H18A 1064   4.815   2.077   5.532  0.2972 -0.2054  0.3626
   15CHL1  H18B 1065   4.744   2.087   5.690  1.3872 -0.8243 -0.3144
   15CHL1  H18C 1066   4.645   2.114   5.541  0.3333 -0.6599 -0.6136
   15CHL1   C12 1067   4.923   2.318   5.669  0.3926  0.4581 -0.4398
   15CHL1  H12A 1068   5.009   2.272   5.615 -1.1099 -0.4842 -2.1537
   15CHL1  H12B 1069   4.927   2.428   5.681 -2.4633  0.6453 -0.6827
   15CHL1   C11 1070   4.918   2.255   5.814  0.3685 -0.4738 -0.0531
   15CHL1  H11A 1071   4.899   2.145   5.808 -4.8884  0.1950  0.2375
   15CHL1  H11B 1072   5.016   2.272   5.864  1.8889 -1.7301 -2.4352
   15CHL1    C9 1073   4.802   2.311   5.904  0.2273 -0.1975 -0.2256
   15CHL1    H9 1074   4.829   2.418   5.922  1.2993 -0.6099  0.7923
   15CHL1   C10 1075   4.799   2.247   6.045 -0.5438  0.6142  0.8090
   15CHL1   C19 1076   4.784   2.092   6.031 -0.3740  0.0331  0.6528
   15CHL1  H19A 1077   4.691   2.066   5.976  0.6324  0.5065 -1.4128
   15CHL1  H19B 1078   4.859   2.047   5.962 -0.6872  0.8543 -0.2494
   15CHL1  H19C 1079   4.798   2.039   6.128 -0.0418  2.4529  1.9842
   15CHL1    C1 1080   4.933   2.281   6.124 -0.3586 -0.3420  0.0848
   15CHL1   H1A 1081   5.019   2.229   6.076 -0.3618 -0.2823  0.0146
   15CHL1   H1B 1082   4.953   2.390   6.117  1.1111 -0.4686  1.6733
   15CHL1    C2 1083   4.929   2.257   6.280 -0.2475 -0.2367  1.0341
   15CHL1   H2A 1084   5.007   2.314   6.336 -0.6464  0.5266  0.8354
   15CHL1   H2B 1085   4.940   2.148   6.297  0.3747 -0.3980 -0.3286
   15CHL1   C20 1086   4.802   2.287   5.337 -0.6787  0.2633 -0.0591
   15CHL1   H20 1087   4.749   2.191   5.323 -1.0778  0.4543  0.1269
   15CHL1   C21 1088   4.951   2.246   5.346 -0.5481 -0.0091 -0.3132
   15CHL1  H21A 1089   4.996   2.206   5.252 -0.9580 -0.5962 -0.2677
   15CHL1  H21B 1090   4.960   2.167   5.424 -0.0759 -1.0599 -1.3960
   15CHL1  H21C 1091   5.023   2.325   5.378 -0.9296 -0.3112  1.3877
   15CHL1   C22 1092   4.778   2.373   5.212  0.0110  0.1245  0.0308
   15CHL1  H22A 1093   4.673   2.409   5.216 -0.3159 -0.6773 -0.9371
   15CHL1  H22B 1094   4.826   2.474   5.210 -2.0168  1.1325 -0.5315
   15CHL1   C23 1095   4.798   2.298   5.079  0.0012 -0.4170  0.3124
   15CHL1  H23A 1096   4.887   2.231   5.081  1.5353  1.3542 -2.4861
   15CHL1  H23B 1097   4.716   2.234   5.041 -0.1707  0.3419 -0.6256
   15CHL1   C24 1098   4.822   2.415   4.979  0.2036 -0.6940  0.4051
   15CHL1  H24A 1099   4.728   2.474   4.974  1.3680  1.1805 -0.5914
   15CHL1  H24B 1100   4.907   2.466   5.028 -0.2939 -0.6116  1.2026
   15CHL1   C25 1101   4.868   2.373   4.835 -0.5122 -0.8471 -0.1193
   15CHL1   H25 1102   4.835   2.270   4.808 -1.8346 -0.7797  1.0553
   15CHL1   C26 1103   4.809   2.480   4.736 -0.1995  0.4032  0.2674
   15CHL1  H26A 1104   4.828   2.438   4.635  0.4072 -0.9723  0.9323
   15CHL1  H26B 1105   4.699   2.476   4.756  0.2505 -2.6426  2.8474
   15CHL1  H26C 1106   4.854   2.582   4.731 -1.3698  0.8948 -1.7742
   15CHL1   C27 1107   5.019   2.376   4.816 -0.3498  0.5883 -0.0008
   15CHL1  H27A 1108   5.062   2.472   4.852 -1.4913  1.3227 -0.5701
   15CHL1  H27B 1109   5.065   2.289   4.868  1.5512  1.2853 -0.4291
   15CHL1  H27C 1110   5.036   2.376   4.706 -1.1669 -0.6010 -0.1466
   16CHL1    C3 1111   1.542   1.954   6.482 -0.6211 -0.2608  0.0510
   16CHL1    H3 1112   1.562   2.053   6.435  1.4280 -0.5845  0.1431
   16CHL1    O3 1113   1.548   1.950   6.622 -0.5911 -0.0553 -0.6335
   16CHL1   H3' 1114   1.524   1.860   6.643 -0.9396  0.1383 -0.1611
   16CHL1    C4 1115   1.401   1.899   6.452  0.2561 -0.1289  0.2990
   16CHL1   H4A 1116   1.373   1.807   6.508 -0.8270 -0.4513 -0.7457
   16CHL1   H4B 1117   1.342   1.984   6.491  1.2445  1.3346 -1.2455
   16CHL1    C5 1118   1.383   1.895   6.303 -0.7173 -0.3759  0.3988
   16CHL1    C6 1119   1.290   1.970   6.237  0.5139 -0.2156 -0.1471
   16CHL1    H6 1120   1.215   2.027   6.294  1.0647  0.6405 -0.2565
   16CHL1    C7 1121   1.267   1.958   6.091 -0.1451  0.3472  0.3394
   16CHL1   H7A 1122   1.157   1.965   6.077 -0.3980  1.1405  2.3607
   16CHL1   H7B 1123   1.298   2.050   6.037 -0.2553  0.1269 -0.0994
   16CHL1    C8 1124   1.330   1.835   6.035  0.1095 -0.4124 -0.0301
   16CHL1    H8 1125   1.260   1.752   6.061  1.1965 -1.3234  0.0530
   16CHL1   C14 1126   1.313   1.827   5.881  0.1816 -0.2502 -0.3816
   16CHL1   H14 1127   1.347   1.927   5.846  1.4992 -0.9260 -1.0817
   16CHL1   C15 1128   1.169   1.814   5.816 -0.2235 -0.6001 -1.4114
   16CHL1  H15A 1129   1.115   1.734   5.872  0.5630 -2.4347 -3.1374
   16CHL1  H15B 1130   1.104   1.903   5.827  0.4152 -0.0660 -1.9241
   16CHL1   C16 1131   1.203   1.783   5.666  0.2143 -0.1567  0.1339
   16CHL1  H16A 1132   1.138   1.697   5.638  0.7112 -0.1960 -0.9262
   16CHL1  H16B 1133   1.184   1.873   5.604  0.3118 -0.6373 -0.6060
   16CHL1   C17 1134   1.346   1.733   5.660 -0.4462 -0.1036 -0.5732
   16CHL1   H17 1135   1.402   1.815   5.610 -3.2916 -0.0458 -4.1082
   16CHL1   C13 1136   1.395   1.724   5.808 -0.0003  0.7323 -0.7693
   16CHL1   C18 1137   1.358   1.580   5.853  0.2240  0.2217  0.3389
   16CHL1  H18A 1138   1.432   1.511   5.806  1.3463  2.4320 -1.3216
   16CHL1  H18B 1139   1.364   1.564   5.962  0.8342  0.5308  0.3572
   16CHL1  H18C 1140   1.254   1.552   5.825  0.1425 -0.5374  1.3335
   16CHL1   C12 1141   1.544   1.739   5.835  0.6886 -0.0549  0.5352
   16CHL1  H12A 1142   1.605   1.662   5.782  0.2504 -2.4187  3.2341
   16CHL1  H12B 1143   1.580   1.835   5.792  2.3208 -1.4045 -1.3257
   16CHL1   C11 1144   1.570   1.742   5.990 -0.4990 -0.0116 -0.0341
   16CHL1  H11A 1145   1.547   1.638   6.021  1.1006  0.0434  1.4812
   16CHL1  H11B 1146   1.679   1.751   6.010  0.4404 -1.9874 -3.4208
   16CHL1    C9 1147   1.472   1.826   6.073  0.3859  0.8342 -0.4208
   16CHL1    H9 1148   1.508   1.927   6.042 -1.4039  1.2443 -1.2844
   16CHL1   C10 1149   1.488   1.811   6.225  0.1950 -0.0831  0.3627
   16CHL1   C19 1150   1.473   1.660   6.265  1.1344 -0.2184 -0.3167
   16CHL1  H19A 1151   1.368   1.632   6.243  0.5582 -0.1838  2.0456
   16CHL1  H19B 1152   1.544   1.591   6.215  2.3317  0.1571  0.7798
   16CHL1  H19C 1153   1.502   1.640   6.371  0.8553 -0.4888 -0.2883
   16CHL1    C1 1154   1.632   1.859   6.263 -0.0601  0.9547 -0.3903
   16CHL1   H1A 1155   1.704   1.784   6.224  0.6493  1.1969  0.4237
   16CHL1   H1B 1156   1.656   1.953   6.209 -1.9489  0.0962 -2.9359
   16CHL1    C2 1157   1.651   1.870   6.415  0.5491 -0.1871 -0.4326
   16CHL1   H2A 1158   1.749   1.919   6.428  0.1911  1.0206 -1.9455
   16CHL1   H2B 1159   1.660   1.770   6.464 -1.0641  0.5724  1.5867
   16CHL1   C20 1160   1.374   1.618   5.555  0.1041 -0.0069  0.1876
   16CHL1   H20 1161   1.341   1.521   5.598  0.7541 -0.4688 -0.3342
   16CHL1   C21 1162   1.521   1.621   5.508  0.4404 -0.1075 -0.7836
   16CHL1  H21A 1163   1.521   1.548   5.424 -1.7189 -0.8115 -0.2357
   16CHL1  H21B 1164   1.594   1.589   5.586 -1.0308  1.3998  1.3236
   16CHL1  H21C 1165   1.546   1.724   5.475 -1.1759 -0.0071 -1.8228
   16CHL1   C22 1166   1.293   1.627   5.422  0.1568  0.1608 -0.9529
   16CHL1  H22A 1167   1.318   1.551   5.345 -1.2978 -0.8902 -0.4274
   16CHL1  H22B 1168   1.184   1.609   5.439 -0.0787 -0.2983 -2.7512
   16CHL1   C23 1169   1.306   1.765   5.347  0.8451  0.9005 -0.5073
   16CHL1  H23A 1170   1.271   1.849   5.411  1.8316  0.3472  0.7911
   16CHL1  H23B 1171   1.415   1.780   5.338  0.6470  2.4448 -0.6777
   16CHL1   C24 1172   1.226   1.754   5.219  0.5705  0.2396 -0.8359
   16CHL1  H24A 1173   1.268   1.677   5.151 -0.9995 -0.9497 -0.5059
   16CHL1  H24B 1174   1.120   1.736   5.245  1.5112 -2.5069  1.5907
   16CHL1   C25 1175   1.229   1.876   5.144 -0.4944 -0.1487  1.0934
   16CHL1   H25 1176   1.167   1.857   5.054 -0.1541  0.2584  0.7661
   16CHL1   C26 1177   1.180   1.998   5.217  0.1663  0.6402  0.8577
   16CHL1  H26A 1178   1.176   2.069   5.132  1.0563 -0.8413 -0.4659
   16CHL1  H26B 1179   1.079   2.009   5.261 -0.8117  0.2452 -1.1612
   16CHL1  H26C 1180   1.253   2.031   5.294  0.1121  1.2465  0.6556
   16CHL1   C27 1181   1.372   1.906   5.091  0.7666  0.2251 -0.2268
   16CHL1  H27A 1182   1.403   1.832   5.014 -2.3594 -0.3210 -1.1125
   16CHL1  H27B 1183   1.368   2.003   5.038  2.9508  1.7504  2.1722
   16CHL1  H27C 1184   1.453   1.911   5.167  0.0257 -1.4287  0.7515
   17CHL1    C3 1185   5.511   4.645   5.976 -0.3126  0.4740 -0.5527
   17CHL1    H3 1186   5.403   4.659   5.954 -1.4838 -1.2054  3.2907
   17CHL1    O3 1187   5.548   4.644   6.114  0.3423  0.0236  0.3111
   17CHL1   H3' 1188   5.643   4.629   6.115  0.1053 -1.7007  2.1792
   17CHL1    C4 1189   5.557   4.513   5.921  0.3479 -0.2673 -0.0721
   17CHL1   H4A 1190   5.660   4.485   5.950  1.2485  2.2400 -0.6344
   17CHL1   H4B 1191   5.490   4.431   5.957  2.7877 -2.0423  0.6802
   17CHL1    C5 1192   5.555   4.515   5.769 -0.1631  0.1944  0.2757
   17CHL1    C6 1193   5.483   4.430   5.700  0.8884  0.5197 -0.4976
   17CHL1    H6 1194   5.428   4.356   5.760  0.4447  1.0860 -0.1915
   17CHL1    C7 1195   5.460   4.429   5.551 -0.4755  0.2872 -0.2691
   17CHL1   H7A 1196   5.442   4.325   5.516  2.6044 -0.6005  0.4051
   17CHL1   H7B 1197   5.370   4.490   5.530 -0.6338 -0.9743 -3.8150
   17CHL1    C8 1198   5.589   4.496   5.483  0.5663  0.0886  0.2975
   17CHL1    H8 1199   5.674   4.426   5.491 -0.5565 -1.3374  0.1765
   17CHL1   C14 1200   5.549   4.517   5.345 -0.8254 -0.1097  0.1256
   17CHL1   H14 1201   5.455   4.576   5.341 -0.9084 -0.3149 -1.7559
   17CHL1   C15 1202   5.509   4.391   5.262  0.4202  0.5541  1.0850
   17CHL1  H15A 1203   5.579   4.305   5.274 -1.6893 -1.1168  2.1169
   17CHL1  H15B 1204   5.410   4.348   5.288  0.7457 -0.3400  0.8536
   17CHL1   C16 1205   5.504   4.450   5.118 -0.1766  0.3198  0.5970
   17CHL1  H16A 1206   5.560   4.387   5.045 -0.3868  0.1399  0.5919
   17CHL1  H16B 1207   5.400   4.460   5.079  0.2826 -2.8080 -1.8120
   17CHL1   C17 1208   5.579   4.588   5.125  0.4522  0.1018  0.1568
   17CHL1   H17 1209   5.508   4.672   5.115  0.2860 -0.1807 -1.3727
   17CHL1   C13 1210   5.647   4.589   5.256  0.7329 -0.2521  0.3803
   17CHL1   C18 1211   5.777   4.507   5.243 -1.0876  0.1838 -0.6130
   17CHL1  H18A 1212   5.832   4.496   5.339  0.6387  2.3552 -1.2736
   17CHL1  H18B 1213   5.745   4.404   5.216 -2.8309 -0.0023  1.8214
   17CHL1  H18C 1214   5.847   4.550   5.169 -0.4741  0.1379 -0.0735
   17CHL1   C12 1215   5.666   4.730   5.310  0.0684  0.8058  0.1000
   17CHL1  H12A 1216   5.741   4.792   5.256 -0.0420 -0.3536 -1.4346
   17CHL1  H12B 1217   5.567   4.781   5.303 -0.1088  0.3559 -0.8402
   17CHL1   C11 1218   5.708   4.723   5.460  0.3436 -0.2026  0.4108
   17CHL1  H11A 1219   5.818   4.710   5.473  0.6267  2.3169  1.0535
   17CHL1  H11B 1220   5.689   4.827   5.495  0.1788 -0.3773  0.8445
   17CHL1    C9 1221   5.614   4.630   5.550  1.0279  0.1432  0.2995
   17CHL1    H9 1222   5.519   4.686   5.535  1.3141  0.1078 -2.1002
   17CHL1   C10 1223   5.629   4.627   5.703  0.1463 -0.4209 -0.7305
   17CHL1   C19 1224   5.779   4.615   5.721 -0.0884 -0.1059  0.2413
   17CHL1  H19A 1225   5.810   4.601   5.827  1.6721 -0.0310 -0.2220
   17CHL1  H19B 1226   5.818   4.524   5.671  2.7294  0.2992  1.4756
   17CHL1  H19C 1227   5.831   4.705   5.682  1.4463 -0.7350  0.7327
   17CHL1    C1 1228   5.573   4.757   5.769  0.1147 -0.3802  0.3984
   17CHL1   H1A 1229   5.624   4.849   5.732 -1.3609  0.5183  0.5331
   17CHL1   H1B 1230   5.465   4.776   5.757  0.5364  2.0632 -0.0916
   17CHL1    C2 1231   5.589   4.763   5.915  0.2771 -0.2494  0.0911
   17CHL1   H2A 1232   5.541   4.858   5.948  1.6485  1.7871 -3.2975
   17CHL1   H2B 1233   5.692   4.769   5.957  0.3163 -0.3914  0.0158
   17CHL1   C20 1234   5.659   4.623   4.994  0.2014  0.2269 -0.0852
   17CHL1   H20 1235   5.732   4.541   4.976  1.1600  0.6813  1.5710
   17CHL1   C21 1236   5.724   4.757   5.007  0.5688 -0.5081 -0.3228
   17CHL1  H21A 1237   5.759   4.790   4.907  1.3546  2.9515  0.9405
   17CHL1  H21B 1238   5.812   4.749   5.075  0.6792 -0.8629 -0.5081
   17CHL1  H21C 1239   5.650   4.830   5.048  1.7752  0.6267 -0.0853
   17CHL1   C22 1240   5.564   4.622   4.868 -0.3038 -0.0559  0.3004
   17CHL1  H22A 1241   5.615   4.662   4.778 -0.8107 -1.8164 -0.8099
   17CHL1  H22B 1242   5.546   4.513   4.856  2.6203 -0.4717 -1.2367
   17CHL1   C23 1243   5.423   4.677   4.877  0.2471 -0.1282  0.5838
   17CHL1  H23A 1244   5.384   4.636   4.782  1.7192 -0.3679  0.0474
   17CHL1  H23B 1245   5.363   4.627   4.957 -0.8569  2.0431  1.2016
   17CHL1   C24 1246   5.407   4.828   4.886  0.2857 -0.4370  0.2557
   17CHL1  H24A 1247   5.302   4.862   4.883 -0.2322 -1.7950  1.6330
   17CHL1  H24B 1248   5.440   4.855   4.988 -0.0922  0.3478  0.1755
   17CHL1   C25 1249   5.479   4.911   4.776  0.3035 -0.3557  0.0047
   17CHL1   H25 1250   5.585   4.878   4.781  0.8703  0.6576 -3.2436
   17CHL1   C26 1251   5.425   4.895   4.634  0.0625  0.6284 -0.4675
   17CHL1  H26A 1252   5.428   4.789   4.602 -0.7824  1.1703 -2.4744
   17CHL1  H26B 1253   5.317   4.918   4.643  0.1710  1.0631 -0.2378
   17CHL1  H26C 1254   5.484   4.952   4.559  2.0282  1.0033  1.2576
   17CHL1   C27 1255   5.482   5.059   4.813  0.3028  0.0803 -0.2308
   17CHL1  H27A 1256   5.534   5.128   4.743  3.5746 -1.3690  0.5766
   17CHL1  H27B 1257   5.381   5.095   4.841  1.3242  0.2078  4.0595
   17CHL1  H27C 1258   5.524   5.086   4.912  0.5108  2.2737 -0.8626
   18CHL1    C3 1259   6.024   1.329   6.205 -0.1353 -0.5278 -0.1613
   18CHL1    H3 1260   6.067   1.430   6.189 -2.1646  0.4334  0.2043
   18CHL1    O3 1261   6.002   1.323   6.345 -0.1636  0.3671  0.4023
   18CHL1   H3' 1262   5.924   1.269   6.359 -0.2481  0.4805  0.3685
   18CHL1    C4 1263   5.886   1.319   6.131  0.2583 -0.0834 -0.0440
   18CHL1   H4A 1264   5.849   1.218   6.159  1.0928  0.0698  1.7281
   18CHL1   H4B 1265   5.824   1.403   6.170  1.8685  0.7401  0.8657
   18CHL1    C5 1266   5.910   1.338   5.979 -0.4065 -0.2493 -0.6807
   18CHL1    C6 1267   5.851   1.429   5.899  0.1177  0.1194  0.0253
   18CHL1    H6 1268   5.784   1.506   5.940 -0.6300 -0.4470 -0.1043
   18CHL1    C7 1269   5.872   1.444   5.749  0.2525 -0.5883 -0.1870
   18CHL1   H7A 1270   5.770   1.455   5.708 -0.4926 -0.4520  1.6291
   18CHL1   H7B 1271   5.934   1.532   5.720  0.3547 -1.2178 -2.0297
   18CHL1    C8 1272   5.938   1.319   5.689 -0.7947  0.5553  0.6714
   18CHL1    H8 1273   5.862   1.238   5.694 -1.3382  0.8466 -1.5164
   18CHL1   C14 1274   5.983   1.353   5.543 -0.7463 -0.0810 -0.2766
   18CHL1   H14 1275   6.040   1.448   5.555 -1.1281 -0.1087  2.6670
   18CHL1   C15 1276   5.873   1.400   5.442  0.2709  0.6239  0.9725
   18CHL1  H15A 1277   5.784   1.333   5.438 -1.0156  2.3106 -0.7966
   18CHL1  H15B 1278   5.834   1.503   5.452 -1.1343  0.1075  1.0229
   18CHL1   C16 1279   5.948   1.384   5.306  0.1064 -0.3350 -0.2377
   18CHL1  H16A 1280   5.888   1.313   5.245  0.4418  1.5783 -2.9883
   18CHL1  H16B 1281   5.957   1.476   5.243 -0.4138 -1.5424 -2.1626
   18CHL1   C17 1282   6.082   1.319   5.330  0.9670 -0.5797 -0.4508
   18CHL1   H17 1283   6.155   1.402   5.335  0.5700 -0.2531 -0.0711
   18CHL1   C13 1284   6.075   1.257   5.472 -0.5401  0.2554 -0.2475
   18CHL1   C18 1285   6.005   1.120   5.458 -0.2383  0.1360 -0.0240
   18CHL1  H18A 1286   6.075   1.036   5.439  0.7595  0.8837  0.2992
   18CHL1  H18B 1287   5.931   1.083   5.532 -2.3882 -1.6670 -2.8407
   18CHL1  H18C 1288   5.942   1.129   5.367  0.1463 -3.2109 -0.7608
   18CHL1   C12 1289   6.200   1.242   5.553 -0.3981 -0.1792  0.2050
   18CHL1  H12A 1290   6.262   1.166   5.502 -0.2813  0.9539 -1.4228
   18CHL1  H12B 1291   6.259   1.336   5.560  0.5805 -0.4918 -2.6459
   18CHL1   C11 1292   6.164   1.191   5.698  0.2684  0.1467  0.1140
   18CHL1  H11A 1293   6.115   1.091   5.697 -0.5099  0.4910 -2.2816
   18CHL1  H11B 1294   6.260   1.187   5.753  1.4131  1.9384 -1.6141
   18CHL1    C9 1295   6.063   1.286   5.777 -0.5018  1.0118  0.1491
   18CHL1    H9 1296   6.127   1.376   5.793 -0.1195  0.7348  0.1924
   18CHL1   C10 1297   6.018   1.239   5.918 -0.3329 -0.4203  0.0560
   18CHL1   C19 1298   5.956   1.096   5.909  0.0615 -0.5862 -0.8556
   18CHL1  H19A 1299   5.929   1.067   6.013  0.6658 -0.9826 -0.8042
   18CHL1  H19B 1300   5.871   1.084   5.839 -0.3965 -1.5477 -0.1540
   18CHL1  H19C 1301   6.036   1.027   5.874 -0.0372 -1.3248  0.3298
   18CHL1    C1 1302   6.145   1.242   6.009  0.7539 -0.7947  0.5880
   18CHL1   H1A 1303   6.223   1.176   5.965 -0.4664 -2.0790  0.2983
   18CHL1   H1B 1304   6.185   1.346   6.000 -0.1742 -0.3107  1.8236
   18CHL1    C2 1305   6.117   1.216   6.160  0.6412  0.1846 -1.2981
   18CHL1   H2A 1306   6.211   1.226   6.217  1.0564  1.1094 -2.1107
   18CHL1   H2B 1307   6.072   1.115   6.171  0.7632 -0.0721 -2.9075
   18CHL1   C20 1308   6.137   1.240   5.212 -0.6942 -0.6392 -0.6875
   18CHL1   H20 1309   6.084   1.142   5.207 -0.6240 -0.6240 -2.1443
   18CHL1   C21 1310   6.286   1.221   5.231 -0.4935  0.0362  0.7271
   18CHL1  H21A 1311   6.316   1.161   5.320  1.2947  0.9709  0.8033
   18CHL1  H21B 1312   6.344   1.315   5.227 -1.8160  0.8662  0.7687
   18CHL1  H21C 1313   6.323   1.162   5.144 -0.1901  0.6968  0.4075
   18CHL1   C22 1314   6.102   1.301   5.075  0.2323  0.2634 -0.0417
   18CHL1  H22A 1315   5.994   1.318   5.054 -0.1051 -0.0538  1.3096
   18CHL1  H22B 1316   6.149   1.401   5.078 -1.1538  0.9729 -0.7771
   18CHL1   C23 1317   6.156   1.230   4.951 -0.6667  0.2652 -0.2910
   18CHL1  H23A 1318   6.261   1.263   4.948 -0.5615 -0.0254  0.1009
   18CHL1  H23B 1319   6.155   1.121   4.973 -1.6872  0.2929 -0.1202
   18CHL1   C24 1320   6.087   1.257   4.815 -0.0149  0.1776 -0.4064
   18CHL1  H24A 1321   5.979   1.241   4.837  0.0061  0.9578  0.3152
   18CHL1  H24B 1322   6.105   1.364   4.791  2.9940  0.4380  2.2153
   18CHL1   C25 1323   6.133   1.176   4.697  0.0203  0.0837 -0.1934
   18CHL1   H25 1324   6.073   1.082   4.686 -1.1729  0.8810 -0.7466
   18CHL1   C26 1325   6.110   1.247   4.564 -0.0477  0.5051 -0.1930
   18CHL1  H26A 1326   6.132   1.185   4.475 -2.0056 -0.2093 -0.2436
   18CHL1  H26B 1327   6.004   1.279   4.550  0.4479  0.9033 -3.9006
   18CHL1  H26C 1328   6.175   1.337   4.560  1.0698 -0.2847 -0.0332
   18CHL1   C27 1329   6.283   1.145   4.696  0.1035  0.4221 -0.0724
   18CHL1  H27A 1330   6.351   1.229   4.719  2.3923 -1.4493  0.4625
   18CHL1  H27B 1331   6.296   1.064   4.772 -4.5700  0.1689  0.7778
   18CHL1  H27C 1332   6.311   1.116   4.593  1.5361  0.5003  0.2753
   19CHL1    C3 1333   5.541   5.416   6.103  0.0304  0.1700 -0.0641
   19CHL1    H3 1334   5.508   5.317   6.139  1.8911 -0.5786 -0.3146
   19CHL1    O3 1335   5.595   5.481   6.213 -0.4674 -1.0218 -0.4486
   19CHL1   H3' 1336   5.660   5.426   6.257 -1.0975  0.2328  2.1951
   19CHL1    C4 1337   5.642   5.395   5.990 -0.5162 -0.6028 -0.7075
   19CHL1   H4A 1338   5.682   5.496   5.965  0.1256 -0.8142 -0.5482
   19CHL1   H4B 1339   5.725   5.339   6.039  0.0804  2.2830  1.9637
   19CHL1    C5 1340   5.571   5.327   5.877 -0.1607 -0.3033  0.1159
   19CHL1    C6 1341   5.612   5.210   5.842  0.2982  0.0488  0.5780
   19CHL1    H6 1342   5.692   5.165   5.902  0.2239  1.6220  1.8985
   19CHL1    C7 1343   5.557   5.139   5.722  0.6647  0.3432  0.6738
   19CHL1   H7A 1344   5.637   5.097   5.657 -0.2366  1.0621 -0.9839
   19CHL1   H7B 1345   5.492   5.055   5.754 -3.6857  2.4192 -1.8036
   19CHL1    C8 1346   5.467   5.217   5.632 -0.0853  0.2470  0.4010
   19CHL1    H8 1347   5.538   5.277   5.572  0.8336  0.4497  1.6494
   19CHL1   C14 1348   5.383   5.134   5.540  0.2523  0.1926  0.7071
   19CHL1   H14 1349   5.308   5.089   5.607  0.3579 -2.6901 -0.9401
   19CHL1   C15 1350   5.451   5.027   5.454 -0.0515  0.1017  0.5341
   19CHL1  H15A 1351   5.543   5.067   5.406 -0.3735  0.2342  0.0203
   19CHL1  H15B 1352   5.480   4.935   5.509  1.6846 -0.4303 -1.1384
   19CHL1   C16 1353   5.348   5.000   5.346 -0.0976  0.1402 -0.4543
   19CHL1  H16A 1354   5.402   5.013   5.250 -0.4736 -2.5719 -1.1188
   19CHL1  H16B 1355   5.304   4.899   5.362  0.3892 -0.2828 -1.6921
   19CHL1   C17 1356   5.237   5.103   5.365 -0.1554  0.7233  0.1759
   19CHL1   H17 1357   5.162   5.055   5.432  0.1176 -0.1123 -0.1049
   19CHL1   C13 1358   5.300   5.222   5.441 -0.8117 -0.7472 -0.2067
   19CHL1   C18 1359   5.382   5.305   5.343  0.1600 -0.4206  0.9149
   19CHL1  H18A 1360   5.315   5.366   5.279  2.4472 -0.6666 -1.9143
   19CHL1  H18B 1361   5.453   5.373   5.394  1.3824 -0.7514 -0.3080
   19CHL1  H18C 1362   5.440   5.238   5.276  2.0652  1.6354  0.3844
   19CHL1   C12 1363   5.195   5.306   5.519 -0.4089 -0.2853  0.0660
   19CHL1  H12A 1364   5.134   5.365   5.448 -0.7754  1.6687  1.9153
   19CHL1  H12B 1365   5.119   5.243   5.571 -0.8921  0.1985 -0.0515
   19CHL1   C11 1366   5.267   5.391   5.624 -0.3499  0.9900 -0.5221
   19CHL1  H11A 1367   5.322   5.472   5.571 -1.5007  1.6109 -0.8108
   19CHL1  H11B 1368   5.192   5.442   5.688 -1.3350  1.1468 -1.7629
   19CHL1    C9 1369   5.373   5.312   5.715 -0.4271 -0.0568  1.4300
   19CHL1    H9 1370   5.314   5.240   5.775 -0.6346 -0.5907  0.6010
   19CHL1   C10 1371   5.448   5.399   5.819 -0.5417  0.1406  0.1804
   19CHL1   C19 1372   5.503   5.525   5.749  0.1535 -0.3673  0.6674
   19CHL1  H19A 1373   5.532   5.499   5.645  3.4768  0.5183  1.2528
   19CHL1  H19B 1374   5.416   5.593   5.735  1.7777  1.1795 -3.4841
   19CHL1  H19C 1375   5.579   5.580   5.807  0.5285 -0.7645  0.5593
   19CHL1    C1 1376   5.353   5.438   5.935  0.3088  0.3798 -0.2183
   19CHL1   H1A 1377   5.270   5.500   5.896 -0.8532 -1.0886 -0.1732
   19CHL1   H1B 1378   5.305   5.345   5.972 -0.4720  1.0101  0.3944
   19CHL1    C2 1379   5.420   5.493   6.063  0.3560 -0.6904 -0.1429
   19CHL1   H2A 1380   5.345   5.488   6.145  0.2668  0.8395 -0.1027
   19CHL1   H2B 1381   5.440   5.601   6.043  1.2150 -0.7131  0.5174
   19CHL1   C20 1382   5.153   5.141   5.242  0.0454 -0.2938 -0.3516
   19CHL1   H20 1383   5.119   5.247   5.246  0.5995 -0.0631 -1.2812
   19CHL1   C21 1384   5.030   5.055   5.246  0.6113  0.6776  0.0024
   19CHL1  H21A 1385   4.987   5.076   5.346  0.1854  0.0876 -0.0524
   19CHL1  H21B 1386   5.045   4.945   5.242 -0.1533  0.4521  1.9717
   19CHL1  H21C 1387   4.952   5.092   5.176 -0.1629 -3.6081 -1.7269
   19CHL1   C22 1388   5.220   5.120   5.103  0.1326  0.3787 -0.1077
   19CHL1  H22A 1389   5.315   5.175   5.119 -0.1404  0.6537  0.6471
   19CHL1  H22B 1390   5.230   5.011   5.090 -1.7247  0.1969 -0.2954
   19CHL1   C23 1391   5.147   5.185   4.983 -0.4856  0.6950 -0.1946
   19CHL1  H23A 1392   5.217   5.187   4.897  0.0251  1.5329  0.2290
   19CHL1  H23B 1393   5.056   5.123   4.965  0.2647 -0.5797  0.2543
   19CHL1   C24 1394   5.103   5.330   5.010  0.1475  0.3890 -0.7479
   19CHL1  H24A 1395   5.018   5.352   5.079  1.5610 -1.3923  1.7119
   19CHL1  H24B 1396   5.181   5.385   5.068 -0.8589 -0.7064  1.8017
   19CHL1   C25 1397   5.069   5.410   4.885  0.3105  0.2248 -0.0787
   19CHL1   H25 1398   5.156   5.417   4.817 -0.0839 -1.8050 -0.8598
   19CHL1   C26 1399   4.963   5.334   4.804  0.1341  0.6463  0.4236
   19CHL1  H26A 1400   5.006   5.247   4.752  0.5035  0.5394  0.8952
   19CHL1  H26B 1401   4.882   5.305   4.874  1.0531  2.4311  2.3510
   19CHL1  H26C 1402   4.916   5.396   4.724 -3.0831 -1.1033  0.8005
   19CHL1   C27 1403   5.018   5.551   4.913 -0.3150  0.3108  0.4953
   19CHL1  H27A 1404   5.090   5.622   4.960 -1.4164  1.7306  0.1186
   19CHL1  H27B 1405   4.995   5.602   4.818  0.5577 -0.7987 -0.3431
   19CHL1  H27C 1406   4.921   5.548   4.967 -0.2497 -1.4766  0.5832
   20CHL1    C3 1407   4.480   0.404   5.904  0.5313  0.4244  0.1009
   20CHL1    H3 1408   4.562   0.343   5.859  1.2641  0.2039  1.6704
   20CHL1    O3 1409   4.467   0.378   6.041  0.2776 -0.5094 -0.2012
   20CHL1   H3' 1410   4.426   0.292   6.043 -2.2558  0.5821  1.4939
   20CHL1    C4 1411   4.530   0.549   5.878 -0.7788 -0.5533  0.6624
   20CHL1   H4A 1412   4.448   0.616   5.912 -0.7621 -0.9211  1.4416
   20CHL1   H4B 1413   4.625   0.566   5.933  0.3290 -0.8193 -1.0875
   20CHL1    C5 1414   4.554   0.572   5.730 -0.7512  0.2357  0.5282
   20CHL1    C6 1415   4.678   0.602   5.687  0.1799 -0.2916  0.0979
   20CHL1    H6 1416   4.747   0.630   5.768 -0.8972  1.1541  0.5587
   20CHL1    C7 1417   4.705   0.622   5.539 -0.2753  0.3324 -0.2827
   20CHL1   H7A 1418   4.770   0.712   5.534  1.9677 -1.0580  1.6028
   20CHL1   H7B 1419   4.770   0.540   5.503  1.4048  0.6048  1.8973
   20CHL1    C8 1420   4.580   0.639   5.453 -0.0757  0.0195 -0.8960
   20CHL1    H8 1421   4.534   0.737   5.479  0.8093  0.9578 -2.7203
   20CHL1   C14 1422   4.618   0.637   5.304 -0.6038  0.1478 -1.6677
   20CHL1   H14 1423   4.634   0.528   5.290 -0.1259  0.0003 -0.2099
   20CHL1   C15 1424   4.742   0.709   5.247 -0.3108 -0.5179  0.2619
   20CHL1  H15A 1425   4.748   0.814   5.282  2.1069  0.2137 -2.0022
   20CHL1  H15B 1426   4.839   0.660   5.272 -0.0388  0.0754  0.3980
   20CHL1   C16 1427   4.716   0.702   5.094 -0.2372 -0.5468  0.1008
   20CHL1  H16A 1428   4.698   0.807   5.063  0.2809 -0.6393 -0.5335
   20CHL1  H16B 1429   4.796   0.651   5.036  1.2376  1.5312  0.2112
   20CHL1   C17 1430   4.576   0.630   5.073 -0.7558  0.5928 -0.4190
   20CHL1   H17 1431   4.605   0.524   5.061 -0.0596  0.6871  0.3156
   20CHL1   C13 1432   4.500   0.645   5.207 -0.2664  0.3851  0.9241
   20CHL1   C18 1433   4.447   0.788   5.221 -0.5591  0.5906 -0.3722
   20CHL1  H18A 1434   4.531   0.861   5.220  0.5013 -0.6017 -0.2824
   20CHL1  H18B 1435   4.366   0.807   5.148 -0.9739  2.4878  0.5188
   20CHL1  H18C 1436   4.407   0.796   5.325 -0.3405 -2.3199  0.0025
   20CHL1   C12 1437   4.401   0.532   5.240  0.2644 -0.5440 -0.3318
   20CHL1  H12A 1438   4.315   0.538   5.170 -0.3976 -0.6892  0.4463
   20CHL1  H12B 1439   4.445   0.431   5.224 -0.8660 -0.9412 -1.0196
   20CHL1   C11 1440   4.352   0.551   5.384 -0.5062  1.0349  0.0069
   20CHL1  H11A 1441   4.287   0.639   5.398 -0.2172  1.5680 -1.7558
   20CHL1  H11B 1442   4.280   0.472   5.414  0.8498 -0.5037 -0.5700
   20CHL1    C9 1443   4.471   0.543   5.484  0.1057  0.3669 -0.5508
   20CHL1    H9 1444   4.513   0.443   5.459 -0.4868  0.5825 -2.5544
   20CHL1   C10 1445   4.434   0.539   5.635  1.1431  0.3197 -0.1278
   20CHL1   C19 1446   4.331   0.655   5.664 -0.5571  0.2199 -0.2345
   20CHL1  H19A 1447   4.241   0.647   5.599 -1.7977  2.1863  1.1244
   20CHL1  H19B 1448   4.294   0.642   5.768  0.4316 -2.2199 -0.1277
   20CHL1  H19C 1449   4.365   0.760   5.657  0.4891 -0.1013 -0.1026
   20CHL1    C1 1450   4.369   0.406   5.676 -0.5666 -0.4095 -0.5267
   20CHL1   H1A 1451   4.273   0.390   5.623 -1.7532 -3.3228  2.2071
   20CHL1   H1B 1452   4.421   0.317   5.632 -0.1438 -0.0814 -0.7062
   20CHL1    C2 1453   4.347   0.379   5.823  0.4757 -0.4114  0.9393
   20CHL1   H2A 1454   4.295   0.282   5.840 -1.4008  0.5218  0.7701
   20CHL1   H2B 1455   4.274   0.454   5.859 -2.3046 -2.0398 -0.9456
   20CHL1   C20 1456   4.507   0.679   4.948 -0.5382 -0.2604 -0.5317
   20CHL1   H20 1457   4.489   0.788   4.955  2.4608  0.4009 -1.5334
   20CHL1   C21 1458   4.380   0.600   4.913 -0.2078  0.6362 -0.3811
   20CHL1  H21A 1459   4.396   0.491   4.927  3.5527  0.9242 -1.4951
   20CHL1  H21B 1460   4.348   0.633   4.812  0.6624  1.3559 -0.4312
   20CHL1  H21C 1461   4.304   0.633   4.988  1.1443 -1.1379  1.9189
   20CHL1   C22 1462   4.594   0.672   4.819 -0.2372 -0.0451  0.4917
   20CHL1  H22A 1463   4.697   0.707   4.844  0.1965 -0.7614 -0.2213
   20CHL1  H22B 1464   4.610   0.568   4.782  0.6071  0.4399 -0.5779
   20CHL1   C23 1465   4.546   0.753   4.699  0.5545 -0.1999  0.1831
   20CHL1  H23A 1466   4.464   0.693   4.655  1.3671 -2.1826  1.2679
   20CHL1  H23B 1467   4.510   0.853   4.733  0.1899 -0.2288 -0.1098
   20CHL1   C24 1468   4.654   0.783   4.589  1.0118  0.2765 -0.0380
   20CHL1  H24A 1469   4.736   0.828   4.648  1.3031 -0.8448  0.4350
   20CHL1  H24B 1470   4.695   0.689   4.544 -0.5162 -2.3451  3.5663
   20CHL1   C25 1471   4.609   0.890   4.487 -0.4800 -0.2987  0.0287
   20CHL1   H25 1472   4.571   0.988   4.524 -2.4401 -0.8112 -0.5105
   20CHL1   C26 1473   4.728   0.918   4.388  0.2672  0.2998 -0.0155
   20CHL1  H26A 1474   4.802   0.985   4.438  1.3678 -2.1593  1.8685
   20CHL1  H26B 1475   4.779   0.829   4.344  0.1428 -0.8410  2.0374
   20CHL1  H26C 1476   4.692   0.974   4.299  2.7511  1.3075 -0.4887
   20CHL1   C27 1477   4.486   0.836   4.404  0.2337 -0.1775 -0.6093
   20CHL1  H27A 1478   4.458   0.908   4.324 -0.6944 -1.1866 -1.2151
   20CHL1  H27B 1479   4.517   0.735   4.372  0.2501 -0.4984  0.3876
   20CHL1  H27C 1480   4.401   0.820   4.473  1.2045 -1.4048  0.3488
   21CHL1    C3 1481   2.039   5.536   5.880  0.2751 -0.2034 -0.4724
   21CHL1    H3 1482   1.939   5.490   5.863 -0.2459 -0.4173  2.6165
   21CHL1    O3 1483   2.048   5.532   6.023  0.0112 -0.4574  0.2864
   21CHL1   H3' 1484   2.093   5.449   6.040  1.6016 -0.1859 -2.1301
   21CHL1    C4 1485   2.163   5.470   5.813  0.1208  0.3230 -0.0398
   21CHL1   H4A 1486   2.253   5.529   5.841  0.1270  0.3668 -0.1499
   21CHL1   H4B 1487   2.192   5.366   5.838  1.2092  0.4144 -0.8356
   21CHL1    C5 1488   2.143   5.464   5.662 -0.2960 -0.3784 -0.2735
   21CHL1    C6 1489   2.124   5.353   5.589 -0.4521 -0.2916 -0.8240
   21CHL1    H6 1490   2.132   5.255   5.639  3.3736  0.1454 -0.2887
   21CHL1    C7 1491   2.113   5.346   5.443 -0.5955 -0.1456 -0.5211
   21CHL1   H7A 1492   2.180   5.270   5.399 -0.6949  0.0517 -1.0181
   21CHL1   H7B 1493   2.006   5.332   5.421 -0.3187 -0.5550 -1.6484
   21CHL1    C8 1494   2.151   5.479   5.390 -0.3057  0.0703  0.4672
   21CHL1    H8 1495   2.261   5.496   5.393 -0.2522 -0.0068 -0.6194
   21CHL1   C14 1496   2.119   5.484   5.244  0.1896  0.8045  0.0209
   21CHL1   H14 1497   2.010   5.463   5.246 -0.2194  2.0480 -2.8409
   21CHL1   C15 1498   2.165   5.369   5.164 -0.6731 -0.5544  0.5936
   21CHL1  H15A 1499   2.274   5.360   5.184 -0.3164 -1.1354 -1.3446
   21CHL1  H15B 1500   2.116   5.272   5.186  0.0900 -1.3699 -1.0866
   21CHL1   C16 1501   2.149   5.415   5.016 -0.1757 -0.7383  0.4629
   21CHL1  H16A 1502   2.249   5.407   4.967 -0.4625  0.1877 -0.3074
   21CHL1  H16B 1503   2.076   5.348   4.967 -0.7640 -0.5193  1.0303
   21CHL1   C17 1504   2.092   5.556   5.022  0.3053  0.0208  0.7919
   21CHL1   H17 1505   1.983   5.541   5.036  0.3836  0.3689  1.8536
   21CHL1   C13 1506   2.135   5.610   5.158  0.3448  0.1391 -0.1302
   21CHL1   C18 1507   2.278   5.664   5.146 -0.1424  0.1855  0.1084
   21CHL1  H18A 1508   2.329   5.669   5.245 -0.1591 -0.6539  0.1710
   21CHL1  H18B 1509   2.341   5.587   5.095  0.1429  0.3282  0.2407
   21CHL1  H18C 1510   2.285   5.761   5.093  0.8064 -0.0518 -0.2199
   21CHL1   C12 1511   2.047   5.711   5.228  0.2746  0.4763  0.7730
   21CHL1  H12A 1512   2.043   5.809   5.175  1.4044  0.5877  0.8766
   21CHL1  H12B 1513   1.945   5.669   5.240  0.4682 -0.0138  0.7432
   21CHL1   C11 1514   2.091   5.728   5.369  0.5361  0.3116 -0.2699
   21CHL1  H11A 1515   2.193   5.770   5.385 -0.0998  1.1303  1.9151
   21CHL1  H11B 1516   2.019   5.803   5.407 -1.0879 -1.4770  0.3156
   21CHL1    C9 1517   2.077   5.598   5.454  0.4046 -0.2289  0.0487
   21CHL1    H9 1518   1.968   5.574   5.459 -0.0197  1.1778 -1.4357
   21CHL1   C10 1519   2.129   5.609   5.601 -0.4759 -0.4678 -0.1061
   21CHL1   C19 1520   2.265   5.666   5.612 -0.0600  0.0249  0.0278
   21CHL1  H19A 1521   2.321   5.659   5.708 -1.2923 -0.2478  0.7397
   21CHL1  H19B 1522   2.332   5.621   5.535  0.6178  0.0348  0.6053
   21CHL1  H19C 1523   2.260   5.774   5.588 -0.7222 -0.0655 -0.2498
   21CHL1    C1 1524   2.031   5.698   5.682 -0.1257  0.4180 -0.3140
   21CHL1   H1A 1525   2.053   5.803   5.653 -1.1008  0.7822  0.2268
   21CHL1   H1B 1526   1.929   5.676   5.645  0.0156 -1.4983  0.3268
   21CHL1    C2 1527   2.029   5.679   5.833 -0.3785  0.1542 -0.1670
   21CHL1   H2A 1528   1.942   5.719   5.889  0.5229 -0.3635  1.6662
   21CHL1   H2B 1529   2.120   5.729   5.872 -2.3349  1.7528  2.6762
   21CHL1   C20 1530   2.124   5.628   4.895 -0.4253  0.0122  0.4066
   21CHL1   H20 1531   2.229   5.629   4.859 -0.9161 -1.4634 -1.2305
   21CHL1   C21 1532   2.088   5.780   4.895 -0.0055  0.4412 -0.3310
   21CHL1  H21A 1533   2.152   5.840   4.964  0.0199  0.4533 -0.3647
   21CHL1  H21B 1534   1.981   5.798   4.916  0.2724  0.5575  1.0775
   21CHL1  H21C 1535   2.107   5.817   4.792 -3.4857 -0.2300 -1.3274
   21CHL1   C22 1536   2.051   5.548   4.780 -0.2152  0.3722 -0.1799
   21CHL1  H22A 1537   2.099   5.448   4.780 -0.4257  0.2635 -0.9770
   21CHL1  H22B 1538   1.944   5.540   4.808  0.1012  0.2106  1.0297
   21CHL1   C23 1539   2.068   5.600   4.634 -0.4690 -0.4716 -0.1194
   21CHL1  H23A 1540   2.018   5.698   4.619  0.5812  0.3396  1.4109
   21CHL1  H23B 1541   2.177   5.597   4.610 -0.5321 -1.2518 -0.3460
   21CHL1   C24 1542   2.002   5.511   4.523  0.3556 -0.0098  0.7292
   21CHL1  H24A 1543   2.045   5.410   4.541 -0.6464 -0.5297  0.2989
   21CHL1  H24B 1544   1.900   5.509   4.568  0.6983 -1.1628  1.4817
   21CHL1   C25 1545   2.012   5.558   4.379 -0.4570  0.5563 -0.4496
   21CHL1   H25 1546   2.115   5.595   4.359 -0.8883  2.2626  0.3073
   21CHL1   C26 1547   1.982   5.439   4.284  0.4239 -0.0579 -0.5361
   21CHL1  H26A 1548   2.001   5.463   4.177  2.0550 -2.7246 -0.9564
   21CHL1  H26B 1549   2.054   5.357   4.308  0.6614 -0.6450 -2.9714
   21CHL1  H26C 1550   1.874   5.414   4.292 -0.0016  1.5464 -0.9638
   21CHL1   C27 1551   1.918   5.674   4.355  0.9487  0.0083 -0.2693
   21CHL1  H27A 1552   1.954   5.773   4.392 -0.2332  0.1602  0.5412
   21CHL1  H27B 1553   1.888   5.700   4.252  1.0122  1.5902  0.0759
   21CHL1  H27C 1554   1.826   5.654   4.414  0.3123  1.5388 -0.7020
   22CHL1    C3 1555   5.246   3.817   5.861 -0.2233 -0.0418  0.5477
   22CHL1    H3 1556   5.189   3.911   5.872 -2.1910 -1.2719  1.5022
   22CHL1    O3 1557   5.266   3.746   5.984 -0.0561  0.6326  0.7018
   22CHL1   H3' 1558   5.339   3.690   5.958 -2.0767 -0.9765 -2.0738
   22CHL1    C4 1559   5.172   3.721   5.762  0.3032 -1.1191 -0.7668
   22CHL1   H4A 1560   5.236   3.631   5.765  1.0546 -0.5610  1.3007
   22CHL1   H4B 1561   5.069   3.699   5.799  0.2416  0.0601 -0.1612
   22CHL1    C5 1562   5.157   3.785   5.628  0.0851  0.1460 -0.2246
   22CHL1    C6 1563   5.037   3.799   5.570 -0.1019 -0.7771 -0.2040
   22CHL1    H6 1564   4.943   3.762   5.613  0.8665 -1.8196  1.0606
   22CHL1    C7 1565   5.025   3.864   5.433  0.8603 -0.0491 -0.7295
   22CHL1   H7A 1566   4.959   3.799   5.372  1.6034  0.2530 -1.8653
   22CHL1   H7B 1567   4.987   3.969   5.439 -0.4992 -0.5736  2.7836
   22CHL1    C8 1568   5.156   3.869   5.352 -0.6117 -1.0017 -0.4902
   22CHL1    H8 1569   5.183   3.769   5.312 -0.2108 -1.4914  0.9256
   22CHL1   C14 1570   5.152   3.978   5.244 -0.1358  0.5514 -0.3938
   22CHL1   H14 1571   5.141   4.076   5.296 -1.5756 -0.0597  0.5409
   22CHL1   C15 1572   5.033   3.973   5.146  0.3417 -0.0725  0.8820
   22CHL1  H15A 1573   5.004   3.873   5.108  0.5971  1.1517 -2.9540
   22CHL1  H15B 1574   4.952   4.021   5.206  1.5176  0.7206  1.8810
   22CHL1   C16 1575   5.077   4.053   5.023  0.0615 -0.3925  0.1951
   22CHL1  H16A 1576   5.070   3.982   4.937  2.2657 -0.3944 -0.0263
   22CHL1  H16B 1577   5.023   4.148   5.008  1.2408  0.9311  3.4571
   22CHL1   C17 1578   5.228   4.098   5.040 -0.8635  0.7268 -0.7185
   22CHL1   H17 1579   5.225   4.197   5.091 -1.4391 -0.4920  1.7580
   22CHL1   C13 1580   5.271   3.992   5.148 -0.6421  0.0832 -0.1571
   22CHL1   C18 1581   5.302   3.859   5.079 -0.7121 -0.5069 -0.3173
   22CHL1  H18A 1582   5.213   3.813   5.032 -0.8335 -0.8602  0.2511
   22CHL1  H18B 1583   5.383   3.869   5.003  0.0880  0.3936  0.6132
   22CHL1  H18C 1584   5.344   3.781   5.146 -2.4240 -0.2870  1.0778
   22CHL1   C12 1585   5.381   4.040   5.246 -0.6360  0.4658  0.0847
   22CHL1  H12A 1586   5.476   4.059   5.192  0.4937 -1.0472  1.4146
   22CHL1  H12B 1587   5.347   4.139   5.283  0.7087  1.0402 -0.1699
   22CHL1   C11 1588   5.403   3.944   5.374  0.3715  0.1137  0.6128
   22CHL1  H11A 1589   5.437   3.853   5.319  0.3851  1.2934 -1.4577
   22CHL1  H11B 1590   5.483   3.984   5.439 -0.5355  0.7823  1.3366
   22CHL1    C9 1591   5.271   3.909   5.443  0.0574  0.1337 -0.6002
   22CHL1    H9 1592   5.243   4.009   5.483  0.1710 -0.4731  1.1032
   22CHL1   C10 1593   5.295   3.824   5.568  0.2315 -0.7077  0.3345
   22CHL1   C19 1594   5.369   3.695   5.543 -0.5377  0.2718  0.0266
   22CHL1  H19A 1595   5.299   3.627   5.489  1.1886 -0.4027 -1.4686
   22CHL1  H19B 1596   5.456   3.714   5.476  0.7558 -0.6647  1.3881
   22CHL1  H19C 1597   5.400   3.637   5.632 -1.1319 -0.2400 -0.0970
   22CHL1    C1 1598   5.379   3.910   5.675  0.4308  0.4079 -0.1541
   22CHL1   H1A 1599   5.479   3.930   5.630 -0.5383  1.1833 -2.1083
   22CHL1   H1B 1600   5.336   4.012   5.682  0.1425  0.2209  0.9805
   22CHL1    C2 1601   5.388   3.840   5.815 -0.3379  0.0041  0.6905
   22CHL1   H2A 1602   5.429   3.914   5.887 -1.2261 -0.5440  1.8011
   22CHL1   H2B 1603   5.448   3.748   5.804 -0.8162 -0.1322 -1.1386
   22CHL1   C20 1604   5.306   4.105   4.899  0.0911 -0.9048  0.0662
   22CHL1   H20 1605   5.287   4.002   4.861 -3.2002 -0.2811 -0.2651
   22CHL1   C21 1606   5.461   4.128   4.923 -0.2605  0.2863 -0.2735
   22CHL1  H21A 1607   5.506   4.185   4.839 -2.1684  0.2505 -1.3851
   22CHL1  H21B 1608   5.516   4.033   4.937 -1.4703 -0.5762 -1.1097
   22CHL1  H21C 1609   5.474   4.185   5.018  0.5709  2.2931 -1.5203
   22CHL1   C22 1610   5.241   4.199   4.793  0.5172 -0.0271 -0.5762
   22CHL1  H22A 1611   5.130   4.198   4.807  0.3981 -0.0931 -1.4520
   22CHL1  H22B 1612   5.283   4.301   4.799  2.2030 -0.7394  0.3675
   22CHL1   C23 1613   5.278   4.157   4.648 -0.2974  0.0953  0.0218
   22CHL1  H23A 1614   5.252   4.236   4.574 -2.1372 -0.3029  0.2029
   22CHL1  H23B 1615   5.388   4.141   4.650  0.1355  2.3546  3.1402
   22CHL1   C24 1616   5.198   4.040   4.590  0.2946 -0.1457 -0.1344
   22CHL1  H24A 1617   5.223   3.942   4.637 -0.0076  0.2416  0.8544
   22CHL1  H24B 1618   5.091   4.059   4.612  0.5255  0.7337  0.2663
   22CHL1   C25 1619   5.221   4.022   4.437  0.0802  0.5982  0.3108
   22CHL1   H25 1620   5.172   4.113   4.394 -0.3577  0.5645  0.7262
   22CHL1   C26 1621   5.368   4.016   4.394 -0.1582 -0.8049 -0.9114
   22CHL1  H26A 1622   5.372   4.015   4.283 -0.7221 -1.0157 -0.9360
   22CHL1  H26B 1623   5.426   4.105   4.427  0.4186 -2.5786  3.4892
   22CHL1  H26C 1624   5.423   3.925   4.424  1.6560  0.0485 -1.5358
   22CHL1   C27 1625   5.142   3.900   4.384  0.4557  0.3607 -0.2577
   22CHL1  H27A 1626   5.145   3.889   4.273  0.6145 -0.8418 -0.1552
   22CHL1  H27B 1627   5.181   3.805   4.427  0.9719  0.9248  0.5413
   22CHL1  H27C 1628   5.038   3.917   4.418 -0.0764 -0.2764 -1.4857
   23CHL1    C3 1629   1.290   0.602   6.377 -0.3302 -0.0775 -0.2620
   23CHL1    H3 1630   1.282   0.495   6.406 -2.3671 -0.2794 -1.3867
   23CHL1    O3 1631   1.282   0.667   6.501 -0.2285 -0.3840 -0.1687
   23CHL1   H3' 1632   1.273   0.761   6.482 -2.5426 -0.6305 -0.5773
   23CHL1    C4 1633   1.441   0.634   6.324 -0.2358 -0.0443 -0.3769
   23CHL1   H4A 1634   1.486   0.730   6.357 -0.8535  0.3099 -0.5533
   23CHL1   H4B 1635   1.512   0.573   6.383 -1.7868 -0.6253  0.9541
   23CHL1    C5 1636   1.463   0.604   6.176  0.1437 -0.5001 -0.5603
   23CHL1    C6 1637   1.575   0.543   6.132  0.2664 -0.2306  0.1546
   23CHL1    H6 1638   1.651   0.516   6.206 -0.9106  2.2983  2.4981
   23CHL1    C7 1639   1.606   0.518   5.992  0.0920  0.4197  0.6029
   23CHL1   H7A 1640   1.707   0.557   5.969  0.3898 -0.3553  0.5821
   23CHL1   H7B 1641   1.606   0.408   5.976  1.2229  0.4893  0.0017
   23CHL1    C8 1642   1.507   0.591   5.888 -0.3522  0.4544 -1.1342
   23CHL1    H8 1643   1.541   0.696   5.884  2.8777 -0.5537 -3.8096
   23CHL1   C14 1644   1.510   0.520   5.753 -0.0652 -0.6867  0.5688
   23CHL1   H14 1645   1.469   0.421   5.781  0.4595 -0.9612  0.3932
   23CHL1   C15 1646   1.644   0.489   5.673 -0.2878 -0.6571  0.1105
   23CHL1  H15A 1647   1.695   0.587   5.687 -1.1205 -0.4077  1.5480
   23CHL1  H15B 1648   1.711   0.414   5.722  3.8231  0.8083 -2.6615
   23CHL1   C16 1649   1.613   0.449   5.534  0.4372  0.3302  0.6961
   23CHL1  H16A 1650   1.666   0.522   5.469  1.4881  0.1147  1.2966
   23CHL1  H16B 1651   1.629   0.341   5.516  0.2499 -0.2768  3.6804
   23CHL1   C17 1652   1.458   0.485   5.521  0.3344 -0.2064 -1.2860
   23CHL1   H17 1653   1.409   0.388   5.542 -0.4695  0.2752 -0.9173
   23CHL1   C13 1654   1.419   0.573   5.644  1.0293 -0.6154  0.1538
   23CHL1   C18 1655   1.467   0.724   5.609  0.4337  0.0010  0.0460
   23CHL1  H18A 1656   1.385   0.781   5.561  0.4402  0.6292  0.7544
   23CHL1  H18B 1657   1.482   0.784   5.702  0.1527  2.9064 -1.6707
   23CHL1  H18C 1658   1.556   0.733   5.544 -0.0853  3.0941 -0.3952
   23CHL1   C12 1659   1.272   0.567   5.702 -0.3551  0.1936 -0.1702
   23CHL1  H12A 1660   1.203   0.604   5.623  1.3264 -0.9252 -2.2642
   23CHL1  H12B 1661   1.249   0.459   5.715  0.2457  0.2285  1.3887
   23CHL1   C11 1662   1.266   0.639   5.832 -0.0491 -0.0651 -0.1380
   23CHL1  H11A 1663   1.287   0.748   5.825 -0.4366 -0.0468 -1.2187
   23CHL1  H11B 1664   1.169   0.617   5.882  0.6952 -0.3375  1.2391
   23CHL1    C9 1665   1.365   0.585   5.942 -0.4947 -0.0055  0.2684
   23CHL1    H9 1666   1.348   0.477   5.959  4.7651 -1.5750 -2.1744
   23CHL1   C10 1667   1.347   0.647   6.087 -0.1266  0.2421  0.5514
   23CHL1   C19 1668   1.364   0.803   6.078 -1.0327  0.1577  1.0439
   23CHL1  H19A 1669   1.303   0.851   5.998 -0.4547 -0.6256  0.1165
   23CHL1  H19B 1670   1.317   0.854   6.165 -3.2825  1.4682 -0.8024
   23CHL1  H19C 1671   1.471   0.832   6.077 -1.7212  3.1111 -0.7828
   23CHL1    C1 1672   1.208   0.600   6.141  0.3675  0.2516 -0.0065
   23CHL1   H1A 1673   1.122   0.631   6.078 -1.0003  0.9102  2.0966
   23CHL1   H1B 1674   1.211   0.490   6.123  3.4115  0.2253  0.1419
   23CHL1    C2 1675   1.182   0.652   6.285  0.6352  0.5966 -0.1519
   23CHL1   H2A 1676   1.080   0.622   6.316  0.0881  1.8656 -0.6758
   23CHL1   H2B 1677   1.179   0.763   6.283  0.1278  0.5900  0.0709
   23CHL1   C20 1678   1.398   0.503   5.383  0.1073  0.5573  0.4179
   23CHL1   H20 1679   1.292   0.516   5.413  0.8171 -1.0140  4.1202
   23CHL1   C21 1680   1.434   0.369   5.311  0.3111 -0.1190 -0.1127
   23CHL1  H21A 1681   1.541   0.369   5.279 -0.0277  1.8735 -1.4203
   23CHL1  H21B 1682   1.380   0.364   5.214 -1.1427  1.6986  0.5622
   23CHL1  H21C 1683   1.400   0.282   5.371  2.1409 -1.7244 -1.2798
   23CHL1   C22 1684   1.444   0.625   5.298 -0.6424 -0.1913 -0.2817
   23CHL1  H22A 1685   1.442   0.714   5.365 -0.5180 -1.1464  1.0305
   23CHL1  H22B 1686   1.550   0.611   5.267  0.1031  4.0930 -0.2845
   23CHL1   C23 1687   1.344   0.665   5.187  0.0241 -0.3804 -0.1307
   23CHL1  H23A 1688   1.344   0.585   5.111 -2.6331 -3.1068  2.4460
   23CHL1  H23B 1689   1.242   0.675   5.230  1.2492  3.1308  2.4885
   23CHL1   C24 1690   1.377   0.807   5.131 -0.1421 -0.3514 -0.0282
   23CHL1  H24A 1691   1.289   0.820   5.065 -1.6579  0.9268  2.1187
   23CHL1  H24B 1692   1.370   0.884   5.211  2.4796 -1.2385  1.1615
   23CHL1   C25 1693   1.506   0.815   5.044 -0.6297  0.0341 -1.0182
   23CHL1   H25 1694   1.583   0.774   5.113  0.7853  3.8920 -0.0515
   23CHL1   C26 1695   1.496   0.723   4.921 -0.3941 -0.0255  0.4460
   23CHL1  H26A 1696   1.390   0.720   4.888 -0.2586 -1.2822  0.1050
   23CHL1  H26B 1697   1.562   0.761   4.840  0.7120 -2.6642  0.0171
   23CHL1  H26C 1698   1.522   0.620   4.953  1.7360  0.4136  0.2222
   23CHL1   C27 1699   1.550   0.955   5.012 -0.2378  0.1495  0.2646
   23CHL1  H27A 1700   1.629   0.960   4.934  1.1007  1.8835  1.6517
   23CHL1  H27B 1701   1.470   1.018   4.968 -0.8641 -0.3651  0.6408
   23CHL1  H27C 1702   1.588   1.003   5.105  1.3696  1.3184 -0.9476
   24CHL1    C3 1703   3.022   4.393   5.825 -0.5571  0.7652 -0.4246
   24CHL1    H3 1704   3.127   4.426   5.842  0.4387 -1.4904 -1.8331
   24CHL1    O3 1705   2.956   4.410   5.952  0.7792  0.1435  0.0962
   24CHL1   H3' 1706   2.908   4.331   5.978  0.5916 -0.4308 -1.8413
   24CHL1    C4 1707   2.954   4.479   5.718  0.5513  0.0738 -0.5200
   24CHL1   H4A 1708   2.850   4.442   5.731  0.2911  1.3085  1.0853
   24CHL1   H4B 1709   2.964   4.582   5.756  1.5568 -0.6125  1.1997
   24CHL1    C5 1710   3.009   4.453   5.579 -0.2396 -0.0244  0.3076
   24CHL1    C6 1711   3.065   4.553   5.506  0.1779  0.4748  0.1596
   24CHL1    H6 1712   3.068   4.657   5.541  1.1448  1.0102 -1.4018
   24CHL1    C7 1713   3.129   4.532   5.366 -0.5435 -1.2197  0.1946
   24CHL1   H7A 1714   3.113   4.621   5.300  1.3800 -0.5796  0.5232
   24CHL1   H7B 1715   3.237   4.531   5.390  0.1160  1.3939 -2.0911
   24CHL1    C8 1716   3.100   4.398   5.303  0.3306  0.4576  0.2173
   24CHL1    H8 1717   2.996   4.395   5.263 -0.1052 -2.4783  1.3309
   24CHL1   C14 1718   3.199   4.364   5.191  0.2720  0.6751 -0.2939
   24CHL1   H14 1719   3.295   4.355   5.245  0.2506  0.7269 -0.2474
   24CHL1   C15 1720   3.199   4.464   5.081 -0.2627  0.1114  0.6771
   24CHL1  H15A 1721   3.095   4.474   5.042 -0.5697 -1.5204  0.9752
   24CHL1  H15B 1722   3.232   4.569   5.096 -0.0377  0.3777 -1.3344
   24CHL1   C16 1723   3.285   4.388   4.973  0.9465 -0.0186 -0.4953
   24CHL1  H16A 1724   3.229   4.392   4.877 -0.1247 -0.9337  0.0570
   24CHL1  H16B 1725   3.387   4.431   4.972  0.8321  0.5564  2.9617
   24CHL1   C17 1726   3.293   4.238   5.014 -0.8198  0.2833  0.5265
   24CHL1   H17 1727   3.389   4.225   5.069  0.5871  0.9153 -1.6255
   24CHL1   C13 1728   3.186   4.228   5.123 -0.1526  0.6368 -0.0700
   24CHL1   C18 1729   3.054   4.215   5.054  0.1177 -0.0029 -0.8597
   24CHL1  H18A 1730   2.968   4.212   5.124 -0.3598 -3.3394 -1.4028
   24CHL1  H18B 1731   3.038   4.294   4.978  0.6198  0.8581 -0.0923
   24CHL1  H18C 1732   3.048   4.114   5.007 -0.9257  0.1804 -1.1301
   24CHL1   C12 1733   3.211   4.113   5.230 -0.3632 -0.0477 -0.0078
   24CHL1  H12A 1734   3.193   4.017   5.177  0.9180 -0.2159 -0.1622
   24CHL1  H12B 1735   3.319   4.111   5.257 -0.9536  1.9771  3.0150
   24CHL1   C11 1736   3.115   4.141   5.355  0.3053 -1.0408  0.4359
   24CHL1  H11A 1737   3.011   4.127   5.319  1.0947 -0.3686 -2.3940
   24CHL1  H11B 1738   3.123   4.063   5.434 -1.4547  0.1081  1.8568
   24CHL1    C9 1739   3.120   4.285   5.412  0.4855 -0.2799  0.3357
   24CHL1    H9 1740   3.220   4.312   5.452  0.3368 -1.5498  1.6631
   24CHL1   C10 1741   3.024   4.303   5.534  0.0405  0.4604  0.4393
   24CHL1   C19 1742   2.876   4.267   5.500  0.3195 -0.0976  0.4558
   24CHL1  H19A 1743   2.802   4.295   5.578  0.0396  1.1778 -0.2336
   24CHL1  H19B 1744   2.849   4.322   5.407 -0.0355 -1.5747 -0.3488
   24CHL1  H19C 1745   2.856   4.161   5.476 -1.2575  0.7592 -2.5728
   24CHL1    C1 1746   3.086   4.216   5.651  0.2636  0.2358  0.0680
   24CHL1   H1A 1747   3.077   4.107   5.629  0.7891  0.4356 -1.1905
   24CHL1   H1B 1748   3.193   4.238   5.670  0.5208 -1.7409  1.2679
   24CHL1    C2 1749   3.020   4.247   5.783  0.5540  0.3083 -0.7770
   24CHL1   H2A 1750   3.065   4.184   5.863 -3.6157 -2.4485 -0.2583
   24CHL1   H2B 1751   2.915   4.211   5.778  0.3837  0.4894  0.8779
   24CHL1   C20 1752   3.298   4.145   4.893  0.2507  0.4420 -0.5955
   24CHL1   H20 1753   3.207   4.162   4.832  0.8376 -0.0246 -1.6222
   24CHL1   C21 1754   3.296   3.997   4.935  0.2418  0.1745 -0.4893
   24CHL1  H21A 1755   3.374   3.979   5.012  0.3073 -1.2663 -0.8694
   24CHL1  H21B 1756   3.321   3.922   4.856  1.6344  1.5033 -1.3755
   24CHL1  H21C 1757   3.196   3.976   4.978 -0.4003  1.7524 -1.1473
   24CHL1   C22 1758   3.415   4.169   4.799  0.6166 -0.1511  0.5606
   24CHL1  H22A 1759   3.398   4.271   4.758 -0.1359 -0.3706  0.3127
   24CHL1  H22B 1760   3.517   4.160   4.842  0.6400  0.1802  0.5789
   24CHL1   C23 1761   3.419   4.081   4.672  0.1774  0.0647 -0.5214
   24CHL1  H23A 1762   3.462   3.981   4.693  0.3242  0.5032  1.4445
   24CHL1  H23B 1763   3.313   4.063   4.644  0.4672 -0.0522 -1.5954
   24CHL1   C24 1764   3.508   4.148   4.560  0.3503  0.3292 -0.0730
   24CHL1  H24A 1765   3.459   4.245   4.537  0.4507 -0.0050 -1.8604
   24CHL1  H24B 1766   3.606   4.176   4.604 -0.6020  0.0882  2.2971
   24CHL1   C25 1767   3.516   4.063   4.437  0.3834  0.2234 -0.1442
   24CHL1   H25 1768   3.411   4.039   4.409  0.4968  1.1628 -1.4882
   24CHL1   C26 1769   3.586   4.150   4.325  0.5588 -0.3693 -0.4005
   24CHL1  H26A 1770   3.592   4.103   4.225  3.1746  0.8716 -0.9176
   24CHL1  H26B 1771   3.548   4.254   4.323  1.7583  0.0632 -1.8687
   24CHL1  H26C 1772   3.693   4.161   4.354  0.5010 -1.1162  0.1285
   24CHL1   C27 1773   3.597   3.936   4.452 -0.5545  0.3538 -0.6062
   24CHL1  H27A 1774   3.619   3.879   4.359  1.0030  1.7629 -1.1339
   24CHL1  H27B 1775   3.701   3.952   4.488  0.0300 -1.2118 -1.5071
   24CHL1  H27C 1776   3.542   3.875   4.527 -2.2326 -0.4338 -2.4008
   25CHL1    C3 1777   0.378   0.706   6.251  0.0392  0.3105 -0.3679
   25CHL1    H3 1778   0.280   0.658   6.233 -0.0387  0.7139 -1.0648
   25CHL1    O3 1779   0.362   0.750   6.382 -0.4961  0.1046 -0.2226
   25CHL1   H3' 1780   0.454   0.749   6.412 -1.3597 -0.8038  2.7694
   25CHL1    C4 1781   0.503   0.618   6.218  0.7181 -0.2617  0.9647
   25CHL1   H4A 1782   0.589   0.686   6.237 -0.8812  2.0229  0.5049
   25CHL1   H4B 1783   0.508   0.539   6.297 -1.5305 -0.6300  0.8248
   25CHL1    C5 1784   0.493   0.585   6.063  0.6610  0.0418 -0.6116
   25CHL1    C6 1785   0.473   0.459   6.028  0.4182  0.5490  0.5822
   25CHL1    H6 1786   0.471   0.385   6.110  1.2986  0.3297  0.4149
   25CHL1    C7 1787   0.487   0.416   5.879 -0.0569  0.3389 -0.4523
   25CHL1   H7A 1788   0.558   0.330   5.878 -0.9493 -0.4649  1.0077
   25CHL1   H7B 1789   0.388   0.371   5.853  0.2630 -1.3205  0.9893
   25CHL1    C8 1790   0.530   0.534   5.789  0.2358 -0.5183  0.0529
   25CHL1    H8 1791   0.639   0.544   5.775 -0.0282  0.3776 -1.6120
   25CHL1   C14 1792   0.480   0.502   5.643  0.1362 -0.0950 -0.0953
   25CHL1   H14 1793   0.369   0.506   5.657 -0.0577  1.3479 -1.7521
   25CHL1   C15 1794   0.513   0.370   5.579  0.2082 -0.4964 -0.6284
   25CHL1  H15A 1795   0.618   0.349   5.611  0.7865  1.7562 -0.8747
   25CHL1  H15B 1796   0.440   0.297   5.621  2.4974 -0.9891  2.9249
   25CHL1   C16 1797   0.503   0.395   5.431  0.1627  0.0699  0.5089
   25CHL1  H16A 1798   0.603   0.396   5.384 -0.2444 -0.1518 -0.3773
   25CHL1  H16B 1799   0.441   0.316   5.384  1.1707  0.8159 -2.2616
   25CHL1   C17 1800   0.442   0.535   5.410  0.4537  0.2252 -0.6799
   25CHL1   H17 1801   0.335   0.526   5.437  0.4483 -0.0805 -0.8106
   25CHL1   C13 1802   0.507   0.609   5.537  0.7884  0.4239  1.0631
   25CHL1   C18 1803   0.656   0.627   5.518  0.8085  0.1484  0.4451
   25CHL1  H18A 1804   0.703   0.558   5.444 -1.5292 -1.3487  0.2199
   25CHL1  H18B 1805   0.668   0.727   5.471  4.0103 -0.2572  0.2284
   25CHL1  H18C 1806   0.713   0.631   5.613 -0.2354  0.4008  1.0785
   25CHL1   C12 1807   0.435   0.737   5.587 -0.2073  0.3536 -0.0302
   25CHL1  H12A 1808   0.452   0.821   5.516  0.0376  1.0239  0.8018
   25CHL1  H12B 1809   0.327   0.712   5.591 -0.0158 -1.3939 -2.7298
   25CHL1   C11 1810   0.485   0.780   5.726  0.2954  0.5484 -0.7046
   25CHL1  H11A 1811   0.594   0.796   5.715  0.5828 -0.8403 -0.0754
   25CHL1  H11B 1812   0.425   0.869   5.756  0.5306  0.1483  1.0666
   25CHL1    C9 1813   0.469   0.665   5.828  0.4316  0.3408 -0.4900
   25CHL1    H9 1814   0.362   0.637   5.824 -0.3485  2.8657  0.7521
   25CHL1   C10 1815   0.499   0.710   5.972  0.4363  0.5752 -1.0294
   25CHL1   C19 1816   0.643   0.781   5.968  0.8178 -0.4612  0.8542
   25CHL1  H19A 1817   0.710   0.721   5.903 -0.3177 -0.4279 -0.3782
   25CHL1  H19B 1818   0.645   0.882   5.920  2.8112 -0.6591  0.4205
   25CHL1  H19C 1819   0.685   0.781   6.071 -0.5012  1.7872  1.4762
   25CHL1    C1 1820   0.381   0.805   6.018 -0.3716 -0.3078  0.1439
   25CHL1   H1A 1821   0.389   0.903   5.965  2.7616 -0.4197  0.1844
   25CHL1   H1B 1822   0.286   0.753   5.995 -0.4425 -1.0380  1.9198
   25CHL1    C2 1823   0.387   0.832   6.163  0.2108 -0.6145 -0.0550
   25CHL1   H2A 1824   0.304   0.902   6.188 -1.3257 -2.0744 -0.7921
   25CHL1   H2B 1825   0.482   0.879   6.197 -1.4610  1.3828  2.2544
   25CHL1   C20 1826   0.465   0.586   5.268 -0.3307  0.2912 -0.3761
   25CHL1   H20 1827   0.573   0.609   5.268 -0.0058 -1.0892  0.6767
   25CHL1   C21 1828   0.387   0.719   5.235  0.1694  0.6370  0.2916
   25CHL1  H21A 1829   0.400   0.795   5.316  0.8523  3.3766 -2.2134
   25CHL1  H21B 1830   0.280   0.697   5.217 -0.2104  1.9730  0.7950
   25CHL1  H21C 1831   0.447   0.772   5.158  0.2873  1.1255  0.7144
   25CHL1   C22 1832   0.439   0.486   5.154 -0.0702  0.6632 -0.3972
   25CHL1  H22A 1833   0.522   0.412   5.153  0.7336  1.3838  2.4827
   25CHL1  H22B 1834   0.351   0.425   5.184 -1.5047  1.8573 -1.9725
   25CHL1   C23 1835   0.438   0.538   5.011  0.0720 -0.3600  0.0565
   25CHL1  H23A 1836   0.422   0.445   4.952 -0.1927 -0.5872  0.4765
   25CHL1  H23B 1837   0.352   0.605   4.989  2.2228  2.7962  0.6390
   25CHL1   C24 1838   0.563   0.607   4.969 -0.0698 -0.9040  0.0954
   25CHL1  H24A 1839   0.595   0.695   5.028  1.4132 -0.3270 -1.4750
   25CHL1  H24B 1840   0.648   0.536   4.975 -0.3117 -1.1800  0.2806
   25CHL1   C25 1841   0.558   0.654   4.819 -0.1483 -0.3012 -0.3144
   25CHL1   H25 1842   0.531   0.564   4.759 -1.3117  1.1544 -2.0521
   25CHL1   C26 1843   0.461   0.768   4.794  0.3749 -0.1428 -0.0532
   25CHL1  H26A 1844   0.355   0.756   4.825 -0.0658  1.3489 -0.8717
   25CHL1  H26B 1845   0.492   0.864   4.841 -0.1937  0.7569 -1.4575
   25CHL1  H26C 1846   0.451   0.796   4.687  1.7358  2.2136  0.3635
   25CHL1   C27 1847   0.694   0.699   4.763  0.1309 -0.2823 -0.1630
   25CHL1  H27A 1848   0.781   0.634   4.787  0.8764  1.0791  0.9262
   25CHL1  H27B 1849   0.690   0.712   4.652  0.8824  1.6194 -0.0090
   25CHL1  H27C 1850   0.719   0.797   4.808 -0.1768  0.1349 -0.8884
   26CHL1    C3 1851   4.596   5.929   6.213  0.1847 -0.0978  0.0524
   26CHL1    H3 1852   4.669   5.854   6.247  0.2813  0.3335  0.8084
   26CHL1    O3 1853   4.567   6.004   6.328 -0.2243  0.2165 -0.0662
   26CHL1   H3' 1854   4.552   6.094   6.301 -0.0725  1.0005  2.2196
   26CHL1    C4 1855   4.652   6.019   6.095  0.1510  0.0208  0.7155
   26CHL1   H4A 1856   4.567   6.083   6.065  0.0766 -0.0731  0.7283
   26CHL1   H4B 1857   4.728   6.093   6.129 -1.0488  1.4018  0.4834
   26CHL1    C5 1858   4.691   5.931   5.979 -0.9412  0.0881  0.3316
   26CHL1    C6 1859   4.815   5.940   5.936 -0.3630 -0.2701  0.6302
   26CHL1    H6 1860   4.869   6.029   5.973 -0.1161  0.0062 -0.3735
   26CHL1    C7 1861   4.879   5.854   5.826 -0.0180 -0.1927 -0.8070
   26CHL1   H7A 1862   4.946   5.916   5.762 -1.3514  1.9962 -0.2220
   26CHL1   H7B 1863   4.934   5.772   5.876 -1.6949  0.2379  1.9596
   26CHL1    C8 1864   4.769   5.785   5.740 -0.1374 -0.0320 -0.0949
   26CHL1    H8 1865   4.725   5.859   5.670 -0.7551  0.4537  0.7955
   26CHL1   C14 1866   4.828   5.677   5.646 -0.3393 -0.2155  0.4801
   26CHL1   H14 1867   4.877   5.595   5.703  0.7228 -0.0080 -0.1092
   26CHL1   C15 1868   4.945   5.723   5.556 -0.0640  0.9866  0.4426
   26CHL1  H15A 1869   4.939   5.824   5.510 -1.0313  1.0297  0.6356
   26CHL1  H15B 1870   5.038   5.717   5.617 -1.7744 -0.1641  3.1211
   26CHL1   C16 1871   4.938   5.619   5.445 -0.0781 -0.1286  0.1880
   26CHL1  H16A 1872   4.932   5.672   5.347  3.2933  0.6294  0.2726
   26CHL1  H16B 1873   5.033   5.561   5.448 -0.8764 -1.4205  1.2698
   26CHL1   C17 1874   4.814   5.527   5.468  0.9469 -0.3167  0.3138
   26CHL1   H17 1875   4.850   5.440   5.527 -2.7056 -2.6413 -0.5390
   26CHL1   C13 1876   4.724   5.611   5.560  0.3794  0.3421  0.2823
   26CHL1   C18 1877   4.635   5.712   5.480  0.6256  0.4166  0.3418
   26CHL1  H18A 1878   4.694   5.760   5.400  0.4718 -1.2516 -0.8220
   26CHL1  H18B 1879   4.537   5.668   5.450 -0.4934  1.0899  2.7107
   26CHL1  H18C 1880   4.595   5.785   5.554  1.1259  1.4421 -0.3795
   26CHL1   C12 1881   4.632   5.527   5.655  0.3978  0.4021  0.1516
   26CHL1  H12A 1882   4.554   5.487   5.586 -0.9967  0.2538  1.7625
   26CHL1  H12B 1883   4.690   5.441   5.694 -1.8823 -1.5391 -0.4235
   26CHL1   C11 1884   4.566   5.620   5.759  0.2389 -0.6816 -0.1987
   26CHL1  H11A 1885   4.497   5.688   5.705  0.5558 -0.1075  0.1139
   26CHL1  H11B 1886   4.505   5.561   5.830  0.3489 -3.5870 -2.3019
   26CHL1    C9 1887   4.659   5.714   5.833  0.6106  0.2705 -0.1908
   26CHL1    H9 1888   4.709   5.647   5.906  0.3076 -1.1909 -1.2829
   26CHL1   C10 1889   4.591   5.824   5.927  0.1534 -1.1171  0.1887
   26CHL1   C19 1890   4.489   5.912   5.840 -0.7791  0.6283 -1.1217
   26CHL1  H19A 1891   4.395   5.857   5.818  0.6830 -1.9834 -1.2870
   26CHL1  H19B 1892   4.455   6.000   5.898  0.2862 -0.2255  0.9050
   26CHL1  H19C 1893   4.532   5.944   5.743  0.3153  2.1801 -0.1642
   26CHL1    C1 1894   4.506   5.763   6.045  0.0528 -0.0386 -0.3818
   26CHL1   H1A 1895   4.422   5.712   5.994  2.0681 -1.3814 -2.5752
   26CHL1   H1B 1896   4.560   5.683   6.101 -0.4083  0.2195  0.4587
   26CHL1    C2 1897   4.469   5.862   6.156 -0.1171 -0.8685  0.2855
   26CHL1   H2A 1898   4.416   5.806   6.237 -2.2109 -0.7505 -0.9264
   26CHL1   H2B 1899   4.388   5.932   6.126  1.3598  0.9210  0.3515
   26CHL1   C20 1900   4.744   5.471   5.347 -0.6375 -0.7198  1.1440
   26CHL1   H20 1901   4.635   5.465   5.368 -0.7123 -1.3553  0.6090
   26CHL1   C21 1902   4.805   5.334   5.320  0.5988  0.1877 -0.0936
   26CHL1  H21A 1903   4.772   5.263   5.399 -0.7311  1.1173  0.2162
   26CHL1  H21B 1904   4.916   5.337   5.322  0.5855  0.4273  0.4574
   26CHL1  H21C 1905   4.773   5.299   5.219 -2.7435  1.8126  0.2395
   26CHL1   C22 1906   4.750   5.560   5.219 -0.1778 -0.1913 -0.0935
   26CHL1  H22A 1907   4.749   5.666   5.251 -2.8021 -0.8026  2.2462
   26CHL1  H22B 1908   4.846   5.538   5.167 -0.4119  1.1935 -1.1738
   26CHL1   C23 1909   4.625   5.536   5.134  0.1986  0.4736 -0.0754
   26CHL1  H23A 1910   4.594   5.429   5.129 -0.3868  0.5422  1.4277
   26CHL1  H23B 1911   4.544   5.580   5.195  1.1090  2.0610  0.0389
   26CHL1   C24 1912   4.637   5.602   4.996 -0.7555 -0.1119 -0.3220
   26CHL1  H24A 1913   4.681   5.703   5.012  0.5460 -0.6253 -0.5389
   26CHL1  H24B 1914   4.712   5.536   4.948 -0.6039 -1.4571  1.6396
   26CHL1   C25 1915   4.509   5.594   4.914  0.8290  0.4667 -0.0039
   26CHL1   H25 1916   4.465   5.492   4.925  0.6942  0.5624  0.3458
   26CHL1   C26 1917   4.411   5.705   4.956  0.3335 -0.2677 -0.1215
   26CHL1  H26A 1918   4.368   5.698   5.059 -0.7861  0.1034 -0.5430
   26CHL1  H26B 1919   4.451   5.806   4.934 -1.3226  0.6972  1.0670
   26CHL1  H26C 1920   4.326   5.684   4.887  1.6826 -0.4672 -1.7898
   26CHL1   C27 1921   4.543   5.604   4.771 -0.2584 -0.4368 -0.0517
   26CHL1  H27A 1922   4.628   5.533   4.757 -1.2542 -1.4775 -1.0522
   26CHL1  H27B 1923   4.460   5.580   4.701  0.0879  0.3439 -0.7479
   26CHL1  H27C 1924   4.572   5.706   4.737  1.2234 -0.2670  1.5608
   27CHL1    C3 1925   4.093   4.880   6.052 -0.8609  0.6946 -0.2336
   27CHL1    H3 1926   4.192   4.926   6.030 -0.3156 -0.0442  0.6063
   27CHL1    O3 1927   4.094   4.843   6.189 -0.1543 -0.0962 -0.0982
   27CHL1   H3' 1928   4.007   4.815   6.218  0.3815  0.5503  2.3531
   27CHL1    C4 1929   3.974   4.973   6.027 -0.0978 -0.0077 -0.7237
   27CHL1   H4A 1930   3.883   4.927   6.070  0.2914 -0.3777 -0.2817
   27CHL1   H4B 1931   3.989   5.065   6.088 -0.0768 -0.8133  0.5151
   27CHL1    C5 1932   3.964   5.002   5.880  0.0787 -0.3854  0.3118
   27CHL1    C6 1933   3.969   5.128   5.836 -0.8943 -0.2947  1.1123
   27CHL1    H6 1934   3.994   5.212   5.903 -2.8191  0.9013  0.4110
   27CHL1    C7 1935   3.963   5.174   5.694  0.4593 -0.1900  0.3692
   27CHL1   H7A 1936   3.896   5.262   5.685  0.7308 -0.0813 -0.8074
   27CHL1   H7B 1937   4.059   5.209   5.650 -0.1011  0.5312 -0.3181
   27CHL1    C8 1938   3.901   5.062   5.608  0.0132  0.4848 -0.1407
   27CHL1    H8 1939   3.793   5.056   5.631  0.0918  0.5832  0.2541
   27CHL1   C14 1940   3.928   5.091   5.458 -0.0009  0.5004 -0.2436
   27CHL1   H14 1941   4.039   5.095   5.449 -0.0430  0.3555 -0.8530
   27CHL1   C15 1942   3.879   5.226   5.391 -0.8266  0.6977  0.1199
   27CHL1  H15A 1943   3.776   5.241   5.430 -1.0072  0.2026 -0.1540
   27CHL1  H15B 1944   3.940   5.310   5.429  0.7092 -0.0235 -0.6801
   27CHL1   C16 1945   3.886   5.202   5.246 -0.5529 -0.5767  0.0173
   27CHL1  H16A 1946   3.787   5.227   5.202 -0.0621 -1.3244 -1.6132
   27CHL1  H16B 1947   3.967   5.265   5.204 -0.8290 -0.5933 -0.5501
   27CHL1   C17 1948   3.924   5.056   5.220 -0.0459  0.3825 -0.0363
   27CHL1   H17 1949   4.035   5.054   5.217  0.1639  3.2025  1.7952
   27CHL1   C13 1950   3.886   4.986   5.356  0.0069  0.3905  0.0233
   27CHL1   C18 1951   3.736   4.967   5.359 -0.1069 -0.4369  0.2103
   27CHL1  H18A 1952   3.698   4.943   5.460  0.2060  0.4714  0.5586
   27CHL1  H18B 1953   3.687   5.061   5.324 -0.2309 -0.2997  0.7468
   27CHL1  H18C 1954   3.705   4.893   5.282  0.9860 -0.4689 -0.2178
   27CHL1   C12 1955   3.972   4.856   5.391  0.1127 -0.1002  0.2659
   27CHL1  H12A 1956   3.948   4.767   5.328 -1.1219 -0.4650  1.2065
   27CHL1  H12B 1957   4.076   4.888   5.371 -0.8571  2.1136 -1.7735
   27CHL1   C11 1958   3.945   4.818   5.538  0.0131  0.6268 -0.5657
   27CHL1  H11A 1959   3.837   4.792   5.541 -0.0689  1.0163  1.8656
   27CHL1  H11B 1960   4.003   4.726   5.559 -0.0764  0.6421 -0.2505
   27CHL1    C9 1961   3.971   4.928   5.642 -0.3926  0.6279  0.7967
   27CHL1    H9 1962   4.081   4.945   5.638 -0.4777  1.1271  0.5429
   27CHL1   C10 1963   3.956   4.875   5.787 -0.4450 -0.6899 -0.1164
   27CHL1   C19 1964   3.821   4.816   5.801 -0.7687  0.2806  0.4161
   27CHL1  H19A 1965   3.808   4.783   5.906  0.0131  0.4587  0.5723
   27CHL1  H19B 1966   3.737   4.887   5.781  0.7191  2.0382  0.1505
   27CHL1  H19C 1967   3.810   4.727   5.735  1.3487  0.5459 -0.3647
   27CHL1    C1 1968   4.069   4.779   5.817 -0.4879 -0.5470 -0.3325
   27CHL1   H1A 1969   4.068   4.691   5.750  0.6511  0.1619 -1.3294
   27CHL1   H1B 1970   4.166   4.827   5.791 -0.0175 -1.1954  0.1937
   27CHL1    C2 1971   4.082   4.749   5.972 -0.2766 -0.5710  0.5964
   27CHL1   H2A 1972   4.170   4.682   5.981 -1.9942 -2.9880  0.2817
   27CHL1   H2B 1973   3.995   4.683   5.986 -0.7023 -0.1964 -0.1921
   27CHL1   C20 1974   3.871   5.002   5.086 -0.4958  0.3792  0.1946
   27CHL1   H20 1975   3.768   4.961   5.098  0.2426 -1.2858  1.1643
   27CHL1   C21 1976   3.970   4.899   5.034  0.3373  0.2982  0.3508
   27CHL1  H21A 1977   3.926   4.840   4.952  1.5100 -0.0147 -0.0697
   27CHL1  H21B 1978   4.005   4.838   5.120  1.0831 -0.1034 -0.2262
   27CHL1  H21C 1979   4.066   4.937   4.993 -0.1176 -0.2814 -1.3406
   27CHL1   C22 1980   3.858   5.101   4.966 -0.1646 -0.0429  0.2101
   27CHL1  H22A 1981   3.772   5.169   4.983 -1.0030  0.0323 -3.4740
   27CHL1  H22B 1982   3.946   5.167   4.954 -0.8590  1.0562  1.0503
   27CHL1   C23 1983   3.824   5.028   4.838 -0.0288 -0.2380 -0.3235
   27CHL1  H23A 1984   3.913   4.994   4.782 -0.0892 -1.3271  0.2133
   27CHL1  H23B 1985   3.757   4.941   4.854  0.2567 -1.0534 -3.0332
   27CHL1   C24 1986   3.743   5.122   4.743 -0.1763  0.1019 -0.8172
   27CHL1  H24A 1987   3.662   5.162   4.808  0.5983 -0.3631  0.4923
   27CHL1  H24B 1988   3.799   5.217   4.724 -0.4188  0.5137  0.4180
   27CHL1   C25 1989   3.693   5.058   4.612  0.0068  0.0542 -0.0996
   27CHL1   H25 1990   3.652   4.958   4.641  0.7699 -0.2244  0.0418
   27CHL1   C26 1991   3.589   5.148   4.544 -0.2970 -0.1084 -0.4388
   27CHL1  H26A 1992   3.633   5.247   4.520  0.6987  0.4654  3.1104
   27CHL1  H26B 1993   3.557   5.086   4.458  0.6650 -2.3568  0.7170
   27CHL1  H26C 1994   3.497   5.169   4.603 -0.4771  0.7238 -1.0079
   27CHL1   C27 1995   3.814   5.040   4.516  0.9361  0.3896  0.3075
   27CHL1  H27A 1996   3.774   5.008   4.418  3.8446  1.5972 -1.3852
   27CHL1  H27B 1997   3.861   5.141   4.510  0.4229  0.6257  0.1823
   27CHL1  H27C 1998   3.889   4.971   4.560  0.9537  1.1517  1.5295
   28CHL1    C3 1999   3.234   6.697   5.961  0.1829 -0.1979  0.2474
   28CHL1    H3 2000   3.316   6.752   5.910 -1.5406 -0.7813 -3.5324
   28CHL1    O3 2001   3.244   6.704   6.098  0.0966  0.0595 -0.9074
   28CHL1   H3' 2002   3.162   6.665   6.130  1.0594 -1.3226 -0.0029
   28CHL1    C4 2003   3.107   6.772   5.918 -0.0105  0.0420 -0.4572
   28CHL1   H4A 2004   3.017   6.714   5.949  0.4106 -0.7147 -0.6264
   28CHL1   H4B 2005   3.113   6.877   5.953 -0.4590 -0.0777 -0.0039
   28CHL1    C5 2006   3.096   6.772   5.768  0.1583 -0.5004 -0.1322
   28CHL1    C6 2007   3.086   6.882   5.698  0.0174  0.3129  0.5743
   28CHL1    H6 2008   3.069   6.975   5.755 -0.2173  0.4705  0.2537
   28CHL1    C7 2009   3.078   6.891   5.548  0.4445  0.5811  0.3183
   28CHL1   H7A 2010   3.007   6.972   5.520 -2.8675 -0.8041  3.8423
   28CHL1   H7B 2011   3.175   6.930   5.508  1.2178 -1.6854 -0.1286
   28CHL1    C8 2012   3.056   6.754   5.472 -0.1176 -0.1441  0.4947
   28CHL1    H8 2013   2.947   6.730   5.476 -0.4497  1.3180  0.7365
   28CHL1   C14 2014   3.103   6.757   5.327 -0.1809  0.7815  0.1867
   28CHL1   H14 2015   3.214   6.760   5.325 -0.1123  0.4241 -3.6398
   28CHL1   C15 2016   3.060   6.877   5.249 -0.1205 -0.2976 -0.2021
   28CHL1  H15A 2017   2.950   6.886   5.258  0.0318  1.4577  0.2783
   28CHL1  H15B 2018   3.112   6.973   5.267  0.9145 -1.0755  1.2162
   28CHL1   C16 2019   3.079   6.825   5.103  0.2217  0.2484 -0.3834
   28CHL1  H16A 2020   2.979   6.835   5.055 -0.2551  0.1073  0.5543
   28CHL1  H16B 2021   3.152   6.883   5.043  1.1153  0.2336  0.6686
   28CHL1   C17 2022   3.125   6.676   5.107  0.4677  0.5875 -0.6172
   28CHL1   H17 2023   3.236   6.675   5.105  0.5865 -1.4084  2.0770
   28CHL1   C13 2024   3.072   6.631   5.247  0.5341 -0.0182 -0.3297
   28CHL1   C18 2025   2.915   6.616   5.242  1.1485  0.6178  0.1751
   28CHL1  H18A 2026   2.870   6.697   5.181  1.1448  0.4272 -0.0749
   28CHL1  H18B 2027   2.883   6.520   5.195  0.3506  1.2410 -0.5712
   28CHL1  H18C 2028   2.870   6.610   5.343 -2.0302 -1.2782 -1.2213
   28CHL1   C12 2029   3.141   6.508   5.315 -0.3226 -0.2420  0.1737
   28CHL1  H12A 2030   3.113   6.417   5.258  0.2527 -0.7969  0.7600
   28CHL1  H12B 2031   3.249   6.525   5.300 -0.4877 -1.4850 -3.4127
   28CHL1   C11 2032   3.118   6.504   5.469  0.5897 -0.5101  1.1414
   28CHL1  H11A 2033   3.012   6.474   5.484  0.0071  1.2751  0.8330
   28CHL1  H11B 2034   3.177   6.415   5.499 -1.3946 -2.1858  0.3519
   28CHL1    C9 2035   3.137   6.641   5.543  0.2404  0.3810  0.7870
   28CHL1    H9 2036   3.244   6.665   5.531 -0.1760  1.5649 -0.9452
   28CHL1   C10 2037   3.112   6.635   5.700  0.4479  0.0500  0.0740
   28CHL1   C19 2038   2.983   6.546   5.731 -0.3295  0.0347 -0.1406
   28CHL1  H19A 2039   2.996   6.438   5.706 -1.6474 -0.0863 -0.3523
   28CHL1  H19B 2040   2.958   6.559   5.839  3.1572 -0.3268  0.8548
   28CHL1  H19C 2041   2.894   6.584   5.678 -0.5555  1.6307  1.3059
   28CHL1    C1 2042   3.229   6.550   5.756 -0.2449  0.4897  0.1383
   28CHL1   H1A 2043   3.231   6.443   5.725  3.6625  0.3791  0.2957
   28CHL1   H1B 2044   3.323   6.597   5.720  0.5573 -0.4168  1.0169
   28CHL1    C2 2045   3.235   6.547   5.907 -0.7781  0.2873 -0.0104
   28CHL1   H2A 2046   3.329   6.495   5.934 -1.7942 -1.8485 -0.3792
   28CHL1   H2B 2047   3.151   6.484   5.945  2.2737 -3.2457  1.5546
   28CHL1   C20 2048   3.090   6.608   4.965  0.3755 -0.8909 -0.0899
   28CHL1   H20 2049   2.984   6.626   4.940  0.9448 -0.9346 -2.8616
   28CHL1   C21 2050   3.107   6.460   4.984  0.0024 -0.2760 -0.3524
   28CHL1  H21A 2051   3.022   6.424   5.045 -0.0213  0.8978  0.3339
   28CHL1  H21B 2052   3.195   6.434   5.047  1.2759  0.8730 -1.5926
   28CHL1  H21C 2053   3.128   6.418   4.883  1.7174  2.9938 -1.4956
   28CHL1   C22 2054   3.165   6.664   4.840  0.7972 -0.1190  0.4550
   28CHL1  H22A 2055   3.125   6.618   4.746 -0.8978  1.3277  0.4066
   28CHL1  H22B 2056   3.139   6.770   4.819 -0.3357 -0.0674  1.9382
   28CHL1   C23 2057   3.316   6.655   4.837  0.0141 -0.2019 -0.2966
   28CHL1  H23A 2058   3.368   6.715   4.915  1.1231 -2.5619  0.8776
   28CHL1  H23B 2059   3.347   6.549   4.847  0.4417  0.0865  1.9736
   28CHL1   C24 2060   3.363   6.731   4.710  0.0837 -0.6979 -0.0486
   28CHL1  H24A 2061   3.297   6.690   4.631 -3.1171  0.8432  1.6363
   28CHL1  H24B 2062   3.331   6.838   4.710  0.0762 -0.6626 -2.1178
   28CHL1   C25 2063   3.511   6.732   4.686  0.3133 -0.9279 -0.9819
   28CHL1   H25 2064   3.563   6.793   4.763  0.2757  0.6909 -2.1729
   28CHL1   C26 2065   3.571   6.593   4.686 -0.0760 -0.3224  0.2054
   28CHL1  H26A 2066   3.682   6.591   4.685  0.2078  3.2072  2.6070
   28CHL1  H26B 2067   3.540   6.546   4.782  2.5353  4.1047  3.6333
   28CHL1  H26C 2068   3.535   6.536   4.598 -0.8502 -0.6129  0.6914
   28CHL1   C27 2069   3.544   6.803   4.557  0.5805  0.0456  0.1468
   28CHL1  H27A 2070   3.653   6.826   4.563  0.6343 -0.0982 -0.2221
   28CHL1  H27B 2071   3.516   6.738   4.471 -0.9355 -2.0216  2.0783
   28CHL1  H27C 2072   3.494   6.901   4.544 -0.9920 -0.8732 -1.0662
   29CHL1    C3 2073   2.321   1.381   2.960  0.1582  0.7804 -0.0141
   29CHL1    H3 2074   2.345   1.274   2.976 -2.0849  0.5110  2.1151
   29CHL1    O3 2075   2.288   1.407   2.823  0.1956  0.2412 -0.6840
   29CHL1   H3' 2076   2.241   1.327   2.797 -0.8182  1.1064 -1.6308
   29CHL1    C4 2077   2.199   1.433   3.038  0.5083  0.0303  0.0472
   29CHL1   H4A 2078   2.193   1.542   3.021 -1.3546  0.0971  0.8387
   29CHL1   H4B 2079   2.102   1.397   2.997  0.6919  0.3985 -0.7201
   29CHL1    C5 2080   2.229   1.410   3.182 -0.2898  0.1402 -0.0572
   29CHL1    C6 2081   2.147   1.338   3.254  0.6343 -0.2622 -0.2975
   29CHL1    H6 2082   2.057   1.299   3.204  0.3920  1.1473 -1.0321
   29CHL1    C7 2083   2.174   1.295   3.396 -0.1496 -0.2132 -0.2793
   29CHL1   H7A 2084   2.075   1.295   3.447  0.1502 -0.1577  0.3020
   29CHL1   H7B 2085   2.214   1.191   3.399 -1.0018 -0.5323  1.2290
   29CHL1    C8 2086   2.280   1.389   3.466  0.4989 -0.0895  0.0425
   29CHL1    H8 2087   2.229   1.487   3.474  0.2406 -0.1888 -0.3728
   29CHL1   C14 2088   2.331   1.325   3.597  0.9143 -0.3204  0.1584
   29CHL1   H14 2089   2.374   1.229   3.560  0.8907  0.0014 -0.7180
   29CHL1   C15 2090   2.236   1.270   3.704 -0.1280  0.1373  0.4828
   29CHL1  H15A 2091   2.145   1.333   3.716 -0.3059  0.2221 -1.0820
   29CHL1  H15B 2092   2.204   1.164   3.694  1.7485 -0.4837  0.6235
   29CHL1   C16 2093   2.314   1.267   3.830 -0.1770 -0.1483 -0.1442
   29CHL1  H16A 2094   2.285   1.355   3.891  0.2663  1.0874 -1.6400
   29CHL1  H16B 2095   2.321   1.168   3.880  1.4918 -0.1750 -0.3973
   29CHL1   C17 2096   2.464   1.289   3.787 -0.3474  0.1674  0.6164
   29CHL1   H17 2097   2.500   1.193   3.743  0.1772  0.6362  0.0133
   29CHL1   C13 2098   2.444   1.394   3.672 -0.3705 -0.2379  0.5180
   29CHL1   C18 2099   2.397   1.539   3.716  0.1284 -0.2074 -0.1261
   29CHL1  H18A 2100   2.328   1.539   3.803  1.6494 -3.0632  1.2302
   29CHL1  H18B 2101   2.491   1.588   3.751 -0.3945  0.2862  0.6379
   29CHL1  H18C 2102   2.343   1.592   3.635 -0.6086  2.5383  1.9973
   29CHL1   C12 2103   2.564   1.400   3.564 -0.4930 -0.4055 -0.6392
   29CHL1  H12A 2104   2.652   1.453   3.606 -1.5593  2.7406 -2.0142
   29CHL1  H12B 2105   2.593   1.295   3.543  0.1526 -0.8682  2.1458
   29CHL1   C11 2106   2.524   1.472   3.439  0.2940  0.4024 -0.1154
   29CHL1  H11A 2107   2.491   1.575   3.466  0.6402 -0.1009  2.4617
   29CHL1  H11B 2108   2.614   1.467   3.375  0.5348  0.4015  0.2207
   29CHL1    C9 2109   2.398   1.404   3.375  0.6362  0.0485  0.1924
   29CHL1    H9 2110   2.419   1.297   3.353 -2.8622 -0.7356 -0.0300
   29CHL1   C10 2111   2.364   1.462   3.237 -0.8167 -0.2803 -0.8828
   29CHL1   C19 2112   2.331   1.609   3.245 -0.5012  0.2466 -0.2765
   29CHL1  H19A 2113   2.404   1.677   3.294 -0.7693 -0.0559  0.5638
   29CHL1  H19B 2114   2.317   1.665   3.150  4.8797  0.7700 -1.0997
   29CHL1  H19C 2115   2.249   1.627   3.319  0.6576  0.3606  1.0218
   29CHL1    C1 2116   2.490   1.446   3.141  0.2946  0.6031  0.5105
   29CHL1   H1A 2117   2.571   1.512   3.176  0.4380  0.8748 -0.3111
   29CHL1   H1B 2118   2.517   1.339   3.155  0.3043  0.5350 -0.0036
   29CHL1    C2 2119   2.446   1.461   2.993 -0.1863 -0.4481 -0.0599
   29CHL1   H2A 2120   2.530   1.438   2.924 -0.7455 -0.3660 -0.7720
   29CHL1   H2B 2121   2.432   1.566   2.960  0.4089 -0.3884 -0.1294
   29CHL1   C20 2122   2.556   1.339   3.895 -0.3155 -0.4836 -0.6320
   29CHL1   H20 2123   2.540   1.446   3.917 -1.4610 -0.7015 -0.3537
   29CHL1   C21 2124   2.707   1.331   3.862 -0.3109 -0.7951  0.0654
   29CHL1  H21A 2125   2.742   1.228   3.841  2.0293  0.3009 -1.9919
   29CHL1  H21B 2126   2.770   1.365   3.948  0.1022 -0.0904 -0.5014
   29CHL1  H21C 2127   2.742   1.408   3.789 -0.1295 -0.5160  0.4403
   29CHL1   C22 2128   2.537   1.257   4.037 -0.7814  0.1759  0.7323
   29CHL1  H22A 2129   2.615   1.298   4.104  1.2527 -0.2549 -1.2562
   29CHL1  H22B 2130   2.437   1.284   4.078  1.2031  2.3385  4.6539
   29CHL1   C23 2131   2.556   1.107   4.019  0.3227  0.2444 -0.2380
   29CHL1  H23A 2132   2.491   1.070   3.937 -1.0341 -0.3656  1.0736
   29CHL1  H23B 2133   2.663   1.079   4.003  0.5694  0.6688  0.6131
   29CHL1   C24 2134   2.504   1.032   4.154 -0.7902 -0.8221  0.2877
   29CHL1  H24A 2135   2.397   1.058   4.169 -0.5216 -1.2937  3.7797
   29CHL1  H24B 2136   2.515   0.923   4.139  1.2514 -0.5596 -0.3652
   29CHL1   C25 2137   2.582   1.080   4.278 -0.0031  0.2169  0.1322
   29CHL1   H25 2138   2.590   1.191   4.270  2.2400 -0.0359 -2.3247
   29CHL1   C26 2139   2.499   1.050   4.406 -0.5397 -0.3454  0.6661
   29CHL1  H26A 2140   2.393   1.079   4.395 -0.5629 -0.6091  0.1756
   29CHL1  H26B 2141   2.507   0.940   4.419 -0.1916 -0.4661 -0.4624
   29CHL1  H26C 2142   2.545   1.101   4.493 -2.2325  2.0565  0.2404
   29CHL1   C27 2143   2.723   1.018   4.289  0.1220 -0.1205 -0.8972
   29CHL1  H27A 2144   2.718   0.909   4.307  2.9198 -0.1901 -0.0845
   29CHL1  H27B 2145   2.782   1.031   4.195 -0.0123  1.4628 -0.7925
   29CHL1  H27C 2146   2.770   1.062   4.379 -1.0993 -1.6812  0.5683
   30CHL1    C3 2147   4.386   3.221   2.871  0.6314  0.2491 -0.1416
   30CHL1    H3 2148   4.404   3.330   2.860  0.4700  0.2792 -0.1184
   30CHL1    O3 2149   4.374   3.156   2.742  0.1148 -0.4951 -0.1212
   30CHL1   H3' 2150   4.356   3.063   2.760  1.0030 -0.8806 -1.1149
   30CHL1    C4 2151   4.495   3.151   2.960 -0.0930 -0.2398 -0.4344
   30CHL1   H4A 2152   4.477   3.045   2.985 -1.5033  0.3500  1.2638
   30CHL1   H4B 2153   4.593   3.158   2.907 -0.5655 -0.2394 -1.3178
   30CHL1    C5 2154   4.490   3.217   3.089 -0.2756 -0.2202 -0.2150
   30CHL1    C6 2155   4.592   3.287   3.141 -0.1759 -0.9137  0.4048
   30CHL1    H6 2156   4.693   3.294   3.099  0.3459  0.1952  1.8010
   30CHL1    C7 2157   4.584   3.342   3.279  0.2343 -0.6886  0.8483
   30CHL1   H7A 2158   4.683   3.334   3.331 -1.5048 -1.4130  4.3709
   30CHL1   H7B 2159   4.567   3.451   3.266  1.0381 -0.7977 -1.8121
   30CHL1    C8 2160   4.487   3.275   3.379 -0.1466  0.4384  0.4414
   30CHL1    H8 2161   4.515   3.171   3.408  0.7593  1.2273  2.5367
   30CHL1   C14 2162   4.466   3.349   3.511  0.0372 -0.3058  0.4765
   30CHL1   H14 2163   4.423   3.447   3.482 -0.6781 -0.7485 -0.0255
   30CHL1   C15 2164   4.590   3.387   3.593  0.2778  0.0346 -0.2798
   30CHL1  H15A 2165   4.664   3.305   3.608  2.0317  1.3804 -1.2213
   30CHL1  H15B 2166   4.656   3.464   3.548  0.7641  0.7472  1.5585
   30CHL1   C16 2167   4.535   3.417   3.733 -0.4959  0.6544  0.0042
   30CHL1  H16A 2168   4.583   3.345   3.803 -1.5390  0.4473  0.5181
   30CHL1  H16B 2169   4.557   3.523   3.759  0.1460 -0.1082  3.0216
   30CHL1   C17 2170   4.375   3.391   3.730  0.2975 -0.0990 -0.6644
   30CHL1   H17 2171   4.336   3.485   3.686  1.0452 -0.8070 -2.9583
   30CHL1   C13 2172   4.363   3.294   3.607  0.0735  0.3400  0.8469
   30CHL1   C18 2173   4.397   3.151   3.647 -0.6801 -0.1762 -0.1584
   30CHL1  H18A 2174   4.308   3.107   3.698 -0.7353 -0.0979 -0.1878
   30CHL1  H18B 2175   4.415   3.080   3.564 -0.8292 -2.5412  1.7096
   30CHL1  H18C 2176   4.480   3.152   3.721 -1.4657  0.4911  0.7340
   30CHL1   C12 2177   4.228   3.312   3.534  0.1105  0.6638  0.3937
   30CHL1  H12A 2178   4.139   3.286   3.597 -2.1344  0.9255 -2.4623
   30CHL1  H12B 2179   4.216   3.416   3.496  1.5825  0.1344 -1.6750
   30CHL1   C11 2180   4.235   3.222   3.408  0.1294 -0.5704 -0.7582
   30CHL1  H11A 2181   4.247   3.117   3.444  1.5612  0.0505  0.7059
   30CHL1  H11B 2182   4.149   3.225   3.339  0.2942  1.1643 -0.9207
   30CHL1    C9 2183   4.352   3.261   3.313 -0.1523 -0.0809  0.8699
   30CHL1    H9 2184   4.329   3.365   3.280  0.3451 -0.6611 -1.4289
   30CHL1   C10 2185   4.353   3.194   3.173 -0.0760  0.1874 -0.5418
   30CHL1   C19 2186   4.321   3.042   3.199 -0.4034 -0.0164  0.3520
   30CHL1  H19A 2187   4.404   3.005   3.262  0.3945 -0.2430 -0.7938
   30CHL1  H19B 2188   4.221   3.030   3.247  0.3958 -1.0240  1.8361
   30CHL1  H19C 2189   4.336   2.983   3.106 -0.0002 -0.7754  0.8870
   30CHL1    C1 2190   4.243   3.258   3.081 -0.7673  0.1318 -0.6220
   30CHL1   H1A 2191   4.143   3.233   3.123 -0.1207 -0.5985  0.5618
   30CHL1   H1B 2192   4.256   3.368   3.077 -0.8215  0.2050  0.7080
   30CHL1    C2 2193   4.252   3.209   2.937  0.7647  0.3159  0.5650
   30CHL1   H2A 2194   4.175   3.265   2.879  0.6851  1.0146  1.3261
   30CHL1   H2B 2195   4.213   3.105   2.946  0.5928  0.4611  1.5843
   30CHL1   C20 2196   4.301   3.355   3.865 -0.0322  0.3837  0.4984
   30CHL1   H20 2197   4.298   3.246   3.889  0.0603  0.6646  1.9180
   30CHL1   C21 2198   4.159   3.403   3.857  0.3779  0.7358  0.0129
   30CHL1  H21A 2199   4.100   3.341   3.785 -1.4139  2.5328 -0.1658
   30CHL1  H21B 2200   4.150   3.507   3.821 -4.0459  0.8557  0.8746
   30CHL1  H21C 2201   4.106   3.392   3.954  3.0122 -0.3109  1.4164
   30CHL1   C22 2202   4.379   3.418   3.986 -0.2973  0.5766  0.0100
   30CHL1  H22A 2203   4.484   3.382   3.997  0.0176  1.7922  1.1872
   30CHL1  H22B 2204   4.377   3.528   3.970  0.5786  0.2690 -2.7653
   30CHL1   C23 2205   4.324   3.378   4.127  0.2285 -0.2957  0.1449
   30CHL1  H23A 2206   4.229   3.428   4.154  0.3707 -0.5713  1.2280
   30CHL1  H23B 2207   4.307   3.268   4.120  1.4884 -0.4479 -1.0201
   30CHL1   C24 2208   4.408   3.416   4.251  0.5370  1.1104  0.4326
   30CHL1  H24A 2209   4.498   3.357   4.221  0.0177 -0.7811  2.3519
   30CHL1  H24B 2210   4.430   3.525   4.251 -1.9649  1.6690  0.2024
   30CHL1   C25 2211   4.363   3.357   4.393  0.3769  0.2510 -0.0017
   30CHL1   H25 2212   4.348   3.249   4.373 -0.7613  0.8366 -2.8446
   30CHL1   C26 2213   4.474   3.388   4.492 -0.3229  0.2490  0.2399
   30CHL1  H26A 2214   4.578   3.356   4.467  0.8758  0.3540  4.3690
   30CHL1  H26B 2215   4.483   3.496   4.512  1.0258  0.1869  0.0842
   30CHL1  H26C 2216   4.461   3.337   4.589 -1.5065  2.3399  1.2391
   30CHL1   C27 2217   4.227   3.418   4.434 -0.1958 -0.5357 -0.2887
   30CHL1  H27A 2218   4.151   3.378   4.363  0.4815 -0.2226 -1.2029
   30CHL1  H27B 2219   4.198   3.370   4.530 -0.6923 -0.6689 -0.5005
   30CHL1  H27C 2220   4.234   3.528   4.432  2.7416 -0.6635 -1.3833
   31CHL1    C3 2221   3.427   5.265   2.723  0.4037 -0.5905 -0.6669
   31CHL1    H3 2222   3.426   5.362   2.776  0.2439 -0.0442 -1.6451
   31CHL1    O3 2223   3.419   5.302   2.585 -0.1995 -0.4106 -0.1980
   31CHL1   H3' 2224   3.426   5.222   2.532 -0.9214  0.4476 -1.6470
   31CHL1    C4 2225   3.563   5.197   2.739  1.0201 -0.5501 -0.1228
   31CHL1   H4A 2226   3.564   5.105   2.677  0.9397 -0.7364  0.1523
   31CHL1   H4B 2227   3.643   5.262   2.698 -0.0385 -0.8829 -2.9298
   31CHL1    C5 2228   3.593   5.168   2.884 -0.2470 -0.4079 -0.7270
   31CHL1    C6 2229   3.697   5.214   2.956 -0.2453  0.2608 -0.0767
   31CHL1    H6 2230   3.770   5.278   2.904  0.3279 -0.9084 -0.7652
   31CHL1    C7 2231   3.732   5.181   3.101 -0.1180  0.4868  0.6277
   31CHL1   H7A 2232   3.834   5.139   3.115 -0.6015 -0.6378  0.9780
   31CHL1   H7B 2233   3.728   5.271   3.165 -0.2256  0.2611  0.9430
   31CHL1    C8 2234   3.635   5.080   3.164  0.2135  0.0534 -0.1374
   31CHL1    H8 2235   3.677   4.981   3.138  0.2774 -0.0892  0.4845
   31CHL1   C14 2236   3.634   5.086   3.311  0.1375 -0.4132 -0.3989
   31CHL1   H14 2237   3.588   5.183   3.340 -1.7776 -0.6599 -2.3720
   31CHL1   C15 2238   3.768   5.095   3.392  0.0981 -0.1330  0.4863
   31CHL1  H15A 2239   3.843   5.027   3.345 -1.2238  0.7010 -3.2510
   31CHL1  H15B 2240   3.791   5.203   3.391 -0.1925 -0.0471  1.7655
   31CHL1   C16 2241   3.728   5.067   3.532 -0.3634  0.2036  0.5779
   31CHL1  H16A 2242   3.769   4.967   3.559 -0.9738 -0.3532 -0.4629
   31CHL1  H16B 2243   3.757   5.143   3.607 -0.4028 -1.1477  2.0048
   31CHL1   C17 2244   3.572   5.039   3.526  0.1440  0.0719 -0.6687
   31CHL1   H17 2245   3.533   5.143   3.535 -2.2076 -0.5394 -2.6910
   31CHL1   C13 2246   3.545   4.991   3.381  0.5705  0.2120  0.0604
   31CHL1   C18 2247   3.577   4.837   3.375  0.0055 -0.8269 -0.2019
   31CHL1  H18A 2248   3.676   4.822   3.422  0.0478 -0.9164 -0.3184
   31CHL1  H18B 2249   3.505   4.778   3.435 -1.8052  2.9616  1.6914
   31CHL1  H18C 2250   3.594   4.806   3.269 -0.5814  1.2453 -0.9544
   31CHL1   C12 2251   3.398   5.011   3.348  0.4549 -0.2718  0.5286
   31CHL1  H12A 2252   3.328   4.939   3.396  0.9648 -1.9655 -1.1406
   31CHL1  H12B 2253   3.362   5.111   3.382  1.7254 -0.1610  1.6353
   31CHL1   C11 2254   3.388   5.003   3.199  0.8580  0.4819  0.3866
   31CHL1  H11A 2255   3.423   4.902   3.167  0.1699  0.3410  0.0674
   31CHL1  H11B 2256   3.284   5.021   3.165  0.9234  0.8863  0.3982
   31CHL1    C9 2257   3.494   5.093   3.117 -0.4212 -0.0471  0.1777
   31CHL1    H9 2258   3.469   5.196   3.150  1.7854  0.5160  0.2366
   31CHL1   C10 2259   3.482   5.090   2.960 -0.3943 -0.4245 -0.0528
   31CHL1   C19 2260   3.507   4.946   2.896  0.1915 -0.1494 -0.9572
   31CHL1  H19A 2261   3.476   4.944   2.789 -1.5499 -0.4497 -0.4919
   31CHL1  H19B 2262   3.611   4.910   2.905  0.0793 -0.0563  1.4382
   31CHL1  H19C 2263   3.450   4.873   2.958  0.1410  0.6511 -0.0274
   31CHL1    C1 2264   3.344   5.143   2.916  0.6667 -0.0042  0.0328
   31CHL1   H1A 2265   3.259   5.081   2.953  0.6244  0.3080  0.4746
   31CHL1   H1B 2266   3.329   5.232   2.982  0.6457 -0.8528  1.2115
   31CHL1    C2 2267   3.314   5.180   2.770  0.8994  0.2553 -0.2816
   31CHL1   H2A 2268   3.221   5.241   2.769 -0.2733 -1.1811  3.6229
   31CHL1   H2B 2269   3.296   5.091   2.707 -0.6952 -0.0699  0.6061
   31CHL1   C20 2270   3.509   4.964   3.645 -0.8929  0.1573 -0.6158
   31CHL1   H20 2271   3.499   4.855   3.628 -0.0783  0.1465 -1.1343
   31CHL1   C21 2272   3.370   5.012   3.673 -0.0097  0.3142  0.7483
   31CHL1  H21A 2273   3.358   5.122   3.670  1.5252  0.5234  1.4688
   31CHL1  H21B 2274   3.336   4.971   3.770 -1.5772 -0.8675 -0.2583
   31CHL1  H21C 2275   3.297   4.975   3.598  0.0706  0.2207  0.7156
   31CHL1   C22 2276   3.591   4.981   3.781  0.5419 -0.2078 -0.2148
   31CHL1  H22A 2277   3.544   4.906   3.848 -1.7790  2.9539  1.9664
   31CHL1  H22B 2278   3.696   4.953   3.756  1.5020  2.5278  0.4408
   31CHL1   C23 2279   3.576   5.117   3.845  0.9881 -0.3786 -0.1833
   31CHL1  H23A 2280   3.555   5.187   3.762 -0.9780 -1.3778 -0.5786
   31CHL1  H23B 2281   3.483   5.118   3.906 -0.5500  0.8443 -2.4068
   31CHL1   C24 2282   3.699   5.180   3.917  0.0764 -0.1517 -0.7085
   31CHL1  H24A 2283   3.774   5.198   3.836 -0.7872 -0.6872 -1.6467
   31CHL1  H24B 2284   3.684   5.281   3.960  3.5373  0.2048  0.0121
   31CHL1   C25 2285   3.752   5.095   4.031 -0.3583 -0.5969 -0.9099
   31CHL1   H25 2286   3.774   4.995   3.988  0.8263 -0.9684  0.4897
   31CHL1   C26 2287   3.885   5.145   4.092  0.4012  0.5106  0.4357
   31CHL1  H26A 2288   3.870   5.249   4.130 -2.6548  0.5550 -0.6352
   31CHL1  H26B 2289   3.919   5.090   4.183  3.2832 -0.0262 -0.8550
   31CHL1  H26C 2290   3.962   5.141   4.013  1.5657 -0.2649  1.5659
   31CHL1   C27 2291   3.646   5.077   4.148 -0.1499 -0.4867  0.1953
   31CHL1  H27A 2292   3.538   5.074   4.124 -0.3584 -1.1087  1.1587
   31CHL1  H27B 2293   3.661   4.977   4.194  2.0722 -0.0891  0.4495
   31CHL1  H27C 2294   3.646   5.163   4.218 -0.9470  0.3004 -0.7312
   32CHL1    C3 2295   2.533   0.735   2.759  0.1837 -0.7562  0.3576
   32CHL1    H3 2296   2.436   0.788   2.776 -1.2141 -2.2519 -2.2995
   32CHL1    O3 2297   2.564   0.722   2.617 -0.6842 -0.0751 -0.9922
   32CHL1   H3' 2298   2.648   0.676   2.619 -0.2308  0.6929 -1.5436
   32CHL1    C4 2299   2.655   0.804   2.840  0.4838  0.2448  0.1342
   32CHL1   H4A 2300   2.748   0.755   2.806  1.0047  1.2809  0.0264
   32CHL1   H4B 2301   2.662   0.909   2.805  1.8974 -1.2648 -5.0217
   32CHL1    C5 2302   2.646   0.794   2.991  0.0780 -0.0215 -0.2279
   32CHL1    C6 2303   2.640   0.907   3.059 -0.0589  0.0429 -0.2498
   32CHL1    H6 2304   2.676   1.001   3.013  2.1593 -0.5869  0.0604
   32CHL1    C7 2305   2.615   0.919   3.200 -0.4572  0.0997 -0.3569
   32CHL1   H7A 2306   2.690   0.985   3.248 -2.9983  1.9009  1.4099
   32CHL1   H7B 2307   2.514   0.956   3.229 -0.1652  0.6114  0.0327
   32CHL1    C8 2308   2.624   0.779   3.280 -0.1695  0.6139  0.2766
   32CHL1    H8 2309   2.732   0.768   3.305 -0.0292 -0.7423 -0.7619
   32CHL1   C14 2310   2.548   0.786   3.411 -0.4551 -0.7119  0.1959
   32CHL1   H14 2311   2.441   0.807   3.388 -0.3009  1.8141  1.4195
   32CHL1   C15 2312   2.596   0.903   3.503  0.2964  0.0080 -0.1565
   32CHL1  H15A 2313   2.704   0.926   3.506  0.7042 -1.5181 -1.5558
   32CHL1  H15B 2314   2.544   0.994   3.465  2.6273  1.0842 -0.9374
   32CHL1   C16 2315   2.543   0.853   3.640  0.6498  0.1551  0.0091
   32CHL1  H16A 2316   2.632   0.845   3.705  0.5026  2.1205  0.5272
   32CHL1  H16B 2317   2.483   0.928   3.696  1.7420 -0.3950  2.0054
   32CHL1   C17 2318   2.496   0.706   3.624  0.4162 -0.3137  0.0714
   32CHL1   H17 2319   2.385   0.707   3.615 -0.0464  0.5950  3.8803
   32CHL1   C13 2320   2.564   0.659   3.490 -0.0183 -0.2234 -0.1263
   32CHL1   C18 2321   2.717   0.637   3.523  0.0338 -0.2215 -0.1664
   32CHL1  H18A 2322   2.783   0.721   3.551  0.7663 -1.7052  3.0740
   32CHL1  H18B 2323   2.730   0.560   3.602  2.1453  1.4115  1.1766
   32CHL1  H18C 2324   2.764   0.590   3.434  2.1787 -0.9897  1.2920
   32CHL1   C12 2325   2.494   0.549   3.405  0.5380  0.3096 -0.4256
   32CHL1  H12A 2326   2.498   0.453   3.460  2.4073  1.0557  0.8462
   32CHL1  H12B 2327   2.385   0.570   3.408  0.7765  1.6225 -0.0767
   32CHL1   C11 2328   2.553   0.533   3.275 -0.6643  0.3923  0.4880
   32CHL1  H11A 2329   2.657   0.494   3.288 -0.7177 -0.1905 -0.7259
   32CHL1  H11B 2330   2.494   0.469   3.206 -0.3246 -0.2630  0.7950
   32CHL1    C9 2331   2.557   0.667   3.196 -0.4693 -0.3254 -0.2395
   32CHL1    H9 2332   2.449   0.693   3.191 -0.1665  1.3765  1.1114
   32CHL1   C10 2333   2.618   0.654   3.052 -0.4223  0.1600  0.6776
   32CHL1   C19 2334   2.749   0.579   3.061 -1.0379  0.1021  0.5262
   32CHL1  H19A 2335   2.823   0.608   3.139 -1.1566 -0.2681  0.7751
   32CHL1  H19B 2336   2.721   0.472   3.062  0.3341 -0.3126 -0.9747
   32CHL1  H19C 2337   2.793   0.581   2.959 -1.9858 -0.6677  0.0906
   32CHL1    C1 2338   2.504   0.588   2.961  0.6893  0.2032 -0.0649
   32CHL1   H1A 2339   2.481   0.485   2.996 -1.8268  0.5565 -0.5153
   32CHL1   H1B 2340   2.408   0.642   2.973 -0.4227 -2.0593  2.0614
   32CHL1    C2 2341   2.525   0.585   2.811 -0.2982 -0.8101 -0.2702
   32CHL1   H2A 2342   2.447   0.541   2.745 -1.0790  2.6852 -1.9475
   32CHL1   H2B 2343   2.619   0.529   2.791  1.1826  0.2811  2.9765
   32CHL1   C20 2344   2.512   0.632   3.759  0.8910 -0.5393  0.2716
   32CHL1   H20 2345   2.618   0.602   3.774  0.8127 -1.4800 -0.8866
   32CHL1   C21 2346   2.438   0.494   3.757 -1.0251  0.2688  0.1763
   32CHL1  H21A 2347   2.468   0.421   3.678  2.3280 -0.6447  2.1002
   32CHL1  H21B 2348   2.330   0.509   3.740 -0.6738  1.5311 -1.2593
   32CHL1  H21C 2349   2.462   0.437   3.849  0.6437  0.1242 -0.3080
   32CHL1   C22 2350   2.449   0.705   3.885  0.2605  0.1440  1.4465
   32CHL1  H22A 2351   2.442   0.628   3.965 -1.8597 -1.4481 -0.1388
   32CHL1  H22B 2352   2.504   0.798   3.910  0.1324 -0.1577  2.9392
   32CHL1   C23 2353   2.305   0.752   3.853  0.1000  0.1324 -0.1399
   32CHL1  H23A 2354   2.300   0.823   3.768 -2.1484 -0.8444 -0.9061
   32CHL1  H23B 2355   2.240   0.664   3.838  1.0173 -0.8907  1.5810
   32CHL1   C24 2356   2.257   0.841   3.958  0.1565  0.8283 -0.0559
   32CHL1  H24A 2357   2.252   0.780   4.051  1.5576  1.7712  0.6828
   32CHL1  H24B 2358   2.323   0.929   3.973 -0.3821  1.6986 -2.3431
   32CHL1   C25 2359   2.110   0.898   3.933  0.4567  0.8394  0.1376
   32CHL1   H25 2360   2.102   0.934   3.828  1.4402  1.4091  0.2394
   32CHL1   C26 2361   2.010   0.782   3.944 -0.1507 -0.4822  1.1084
   32CHL1  H26A 2362   2.041   0.696   3.881  0.6057  0.6722 -0.1544
   32CHL1  H26B 2363   2.016   0.753   4.051  1.0745 -0.4463  1.0609
   32CHL1  H26C 2364   1.910   0.815   3.910  0.2432 -0.3115  0.0718
   32CHL1   C27 2365   2.075   1.003   4.033  0.4535  0.1088  0.7956
   32CHL1  H27A 2366   1.975   1.046   4.012  0.8434  0.7667  0.2030
   32CHL1  H27B 2367   2.082   0.964   4.137 -0.4199 -1.7206  0.2047
   32CHL1  H27C 2368   2.142   1.091   4.017  0.1714  0.2184  0.2056
   33CHL1    C3 2369   1.336   4.214   2.438 -0.4902  0.6445  0.6129
   33CHL1    H3 2370   1.446   4.228   2.443 -0.2267  0.4141 -2.5495
   33CHL1    O3 2371   1.297   4.192   2.299 -0.2267 -0.7586 -0.3619
   33CHL1   H3' 2372   1.202   4.200   2.298 -0.1978 -0.3929 -0.8385
   33CHL1    C4 2373   1.296   4.098   2.524  0.0401 -0.6784 -0.3528
   33CHL1   H4A 2374   1.188   4.074   2.511 -0.2055 -0.7292  1.4946
   33CHL1   H4B 2375   1.349   4.019   2.467  1.8387  0.5934 -0.5390
   33CHL1    C5 2376   1.336   4.108   2.672  0.0837  0.6341  0.1588
   33CHL1    C6 2377   1.413   4.025   2.739  0.2362  0.5050 -0.1758
   33CHL1    H6 2378   1.446   3.936   2.683 -1.2581 -0.9167  1.1101
   33CHL1    C7 2379   1.440   4.041   2.889 -0.6321  0.2053  0.0121
   33CHL1   H7A 2380   1.450   3.939   2.932 -2.7802 -0.2398 -0.4580
   33CHL1   H7B 2381   1.542   4.084   2.905 -1.0245  0.9951  0.4253
   33CHL1    C8 2382   1.335   4.131   2.965  0.0458 -0.1131  0.4031
   33CHL1    H8 2383   1.237   4.081   2.973  0.4817 -1.4028 -1.4610
   33CHL1   C14 2384   1.385   4.167   3.106  0.1376 -0.6255 -0.6055
   33CHL1   H14 2385   1.483   4.216   3.093 -0.8682  2.2325  1.5204
   33CHL1   C15 2386   1.421   4.050   3.199  0.2073  0.7921 -0.2808
   33CHL1  H15A 2387   1.336   3.978   3.195 -0.3954  1.5478 -1.7255
   33CHL1  H15B 2388   1.516   3.997   3.176  0.0966 -0.4884  1.8743
   33CHL1   C16 2389   1.425   4.115   3.331 -0.0139 -0.0677 -0.5935
   33CHL1  H16A 2390   1.376   4.055   3.410  2.7288 -1.9485 -0.1465
   33CHL1  H16B 2391   1.529   4.122   3.369  0.2353  2.1040 -1.5594
   33CHL1   C17 2392   1.359   4.260   3.326  0.5658 -0.0473  0.3243
   33CHL1   H17 2393   1.446   4.329   3.318 -0.2678  0.8732 -1.2318
   33CHL1   C13 2394   1.289   4.259   3.184 -0.1553 -1.1753  0.6845
   33CHL1   C18 2395   1.156   4.193   3.213  0.0504 -0.4347  0.3185
   33CHL1  H18A 2396   1.175   4.095   3.263  1.1685  0.1370  1.0393
   33CHL1  H18B 2397   1.080   4.257   3.261 -0.8931 -0.4885 -1.0248
   33CHL1  H18C 2398   1.105   4.170   3.117  0.1001 -1.0230  0.4256
   33CHL1   C12 2399   1.285   4.391   3.101  0.6134  0.3030 -0.1547
   33CHL1  H12A 2400   1.214   4.456   3.157 -0.1100 -2.2259  2.1037
   33CHL1  H12B 2401   1.380   4.445   3.082 -0.2153  1.2158 -1.9571
   33CHL1   C11 2402   1.229   4.369   2.960 -0.0545 -0.0365  0.0322
   33CHL1  H11A 2403   1.126   4.326   2.967 -0.1925  0.4779  1.4959
   33CHL1  H11B 2404   1.228   4.469   2.912  2.7541  1.0648  2.0592
   33CHL1    C9 2405   1.313   4.257   2.879 -0.5512 -0.3655 -0.3153
   33CHL1    H9 2406   1.419   4.291   2.873 -0.6167 -0.2832 -1.0741
   33CHL1   C10 2407   1.262   4.230   2.734 -0.1076 -0.3582  0.3557
   33CHL1   C19 2408   1.110   4.197   2.742  1.0243 -0.0616  0.3049
   33CHL1  H19A 2409   1.091   4.127   2.826 -0.8210 -0.0444 -0.0516
   33CHL1  H19B 2410   1.056   4.292   2.766 -1.0737 -0.6503 -1.7009
   33CHL1  H19C 2411   1.058   4.162   2.651 -1.3475 -0.5665  1.7460
   33CHL1    C1 2412   1.301   4.354   2.648  0.6009 -0.1619  0.5968
   33CHL1   H1A 2413   1.245   4.441   2.690  1.8283  0.4101  1.1076
   33CHL1   H1B 2414   1.411   4.367   2.659  0.6097  0.4411 -0.1310
   33CHL1    C2 2415   1.272   4.344   2.497 -0.1648  0.1224 -0.0433
   33CHL1   H2A 2416   1.313   4.431   2.442 -1.6004  1.1134  0.3962
   33CHL1   H2B 2417   1.162   4.325   2.489 -0.1001 -0.8086  0.9435
   33CHL1   C20 2418   1.288   4.299   3.451 -0.0766 -0.9256 -0.3080
   33CHL1   H20 2419   1.204   4.232   3.480  0.4482 -2.4637 -2.0816
   33CHL1   C21 2420   1.222   4.438   3.445 -0.9688 -0.2804  0.6855
   33CHL1  H21A 2421   1.130   4.433   3.383 -1.0794 -0.9058  0.8870
   33CHL1  H21B 2422   1.294   4.505   3.393  0.8680 -2.3487  0.3963
   33CHL1  H21C 2423   1.190   4.487   3.539 -0.1973  2.1279 -0.2505
   33CHL1   C22 2424   1.382   4.285   3.581  0.1780 -0.2474 -0.3844
   33CHL1  H22A 2425   1.454   4.200   3.579 -0.0151 -0.4203  0.0928
   33CHL1  H22B 2426   1.446   4.375   3.585 -0.4680  0.2459 -0.9352
   33CHL1   C23 2427   1.307   4.285   3.712  0.2762 -0.5967  0.0805
   33CHL1  H23A 2428   1.238   4.368   3.739  0.7958  0.2106 -0.9680
   33CHL1  H23B 2429   1.249   4.191   3.703 -0.4786 -0.0891 -0.6464
   33CHL1   C24 2430   1.405   4.276   3.824 -0.0509 -0.1845  0.1328
   33CHL1  H24A 2431   1.483   4.200   3.802  1.0403  0.8419  0.3427
   33CHL1  H24B 2432   1.454   4.375   3.838 -2.9844  1.3499  0.2287
   33CHL1   C25 2433   1.333   4.258   3.957 -0.2575 -0.7995 -0.2131
   33CHL1   H25 2434   1.244   4.325   3.961 -0.1315 -0.6665  0.7522
   33CHL1   C26 2435   1.264   4.121   3.974 -0.4078 -0.3039 -0.1749
   33CHL1  H26A 2436   1.197   4.104   3.887 -0.0356 -1.2018 -0.2936
   33CHL1  H26B 2437   1.338   4.039   3.984 -0.7957 -0.6658 -0.2269
   33CHL1  H26C 2438   1.194   4.121   4.061 -1.0203  0.3437 -0.6475
   33CHL1   C27 2439   1.412   4.300   4.088 -0.3184 -0.3712  0.0242
   33CHL1  H27A 2440   1.431   4.409   4.072  2.4143 -0.4735  1.8496
   33CHL1  H27B 2441   1.356   4.277   4.181 -0.6680 -2.2510 -0.6085
   33CHL1  H27C 2442   1.513   4.255   4.092 -0.6427 -1.1762 -0.5535
   34CHL1    C3 2443   6.282   5.209   2.572 -0.2073 -0.2444  0.2636
   34CHL1    H3 2444   6.226   5.113   2.569  1.9321 -1.5877  1.0759
   34CHL1    O3 2445   6.318   5.272   2.445  0.1445  0.1745  0.2077
   34CHL1   H3' 2446   6.233   5.269   2.401 -0.1785 -0.2392  0.8529
   34CHL1    C4 2447   6.224   5.320   2.658  0.7494 -0.2092 -0.4244
   34CHL1   H4A 2448   6.292   5.408   2.657  0.2207  0.2154  0.0420
   34CHL1   H4B 2449   6.128   5.343   2.606  1.2528 -2.1453 -2.2880
   34CHL1    C5 2450   6.203   5.280   2.803  0.5921 -0.0690  0.5694
   34CHL1    C6 2451   6.090   5.290   2.866 -0.0146  0.0109 -0.0937
   34CHL1    H6 2452   6.006   5.323   2.804 -0.9405 -3.0859 -0.6792
   34CHL1    C7 2453   6.059   5.267   3.014 -0.1943  0.3380 -0.0489
   34CHL1   H7A 2454   6.006   5.354   3.058 -0.7472  0.0945 -0.2197
   34CHL1   H7B 2455   5.989   5.181   3.022 -1.4122  1.3206  0.0636
   34CHL1    C8 2456   6.183   5.237   3.097  0.0125 -0.7182  0.3115
   34CHL1    H8 2457   6.223   5.339   3.111 -0.1495 -0.6560  0.3243
   34CHL1   C14 2458   6.155   5.170   3.220 -0.0842 -0.2200 -0.3778
   34CHL1   H14 2459   6.121   5.069   3.192 -1.8669  0.4551 -0.7845
   34CHL1   C15 2460   6.045   5.235   3.306  0.7345  0.1228 -0.6767
   34CHL1  H15A 2461   6.052   5.346   3.312  0.4038  0.0969  0.2637
   34CHL1  H15B 2462   5.948   5.211   3.259 -0.7951 -0.1603  2.4204
   34CHL1   C16 2463   6.071   5.164   3.445 -0.1200  0.1314  0.4841
   34CHL1  H16A 2464   6.071   5.241   3.525 -0.1121  0.5537  0.0816
   34CHL1  H16B 2465   5.995   5.091   3.480  0.4525 -0.4287  0.5749
   34CHL1   C17 2466   6.205   5.088   3.438 -0.0635  0.5839  0.2826
   34CHL1   H17 2467   6.182   4.985   3.403 -0.9006  0.8260  0.0988
   34CHL1   C13 2468   6.280   5.149   3.316 -0.2961  0.8484 -0.4400
   34CHL1   C18 2469   6.341   5.284   3.353 -0.2814 -0.6289 -0.1324
   34CHL1  H18A 2470   6.435   5.276   3.412  0.2389 -0.7716 -0.9744
   34CHL1  H18B 2471   6.366   5.345   3.263 -1.8130 -0.6516 -0.6030
   34CHL1  H18C 2472   6.272   5.351   3.409 -0.6166  0.6718 -1.9853
   34CHL1   C12 2473   6.383   5.062   3.241  0.0002 -0.0118  0.2195
   34CHL1  H12A 2474   6.481   5.068   3.294  0.3842  0.5734 -0.5327
   34CHL1  H12B 2475   6.351   4.956   3.241 -1.1777  0.3378  0.5416
   34CHL1   C11 2476   6.409   5.124   3.104 -0.3594  0.3459 -0.2391
   34CHL1  H11A 2477   6.470   5.213   3.129 -0.7433  0.6059 -0.2389
   34CHL1  H11B 2478   6.464   5.038   3.058 -1.4334 -2.1210  2.7364
   34CHL1    C9 2479   6.292   5.160   3.017 -0.2641  0.0502  0.3491
   34CHL1    H9 2480   6.238   5.064   3.000 -0.9683  0.4603  0.2290
   34CHL1   C10 2481   6.328   5.225   2.887 -0.0087 -0.0365  0.6843
   34CHL1   C19 2482   6.430   5.341   2.908  1.2243  0.3277 -0.1558
   34CHL1  H19A 2483   6.535   5.312   2.929  2.1920  3.2861 -0.5265
   34CHL1  H19B 2484   6.442   5.396   2.813  0.7013 -1.7453 -1.5078
   34CHL1  H19C 2485   6.387   5.418   2.975 -0.1864 -1.5014  1.1455
   34CHL1    C1 2486   6.390   5.120   2.794 -0.8190 -0.3112  0.3483
   34CHL1   H1A 2487   6.490   5.094   2.834 -0.2802  1.5133  0.2922
   34CHL1   H1B 2488   6.331   5.026   2.788  0.4981 -1.0810 -1.7922
   34CHL1    C2 2489   6.415   5.172   2.647 -0.9100 -0.3461 -0.2874
   34CHL1   H2A 2490   6.453   5.090   2.583 -2.2192 -1.1422 -0.0806
   34CHL1   H2B 2491   6.486   5.257   2.638  0.3990 -0.8610  3.4132
   34CHL1   C20 2492   6.272   5.083   3.584 -0.5878  0.2596  0.2169
   34CHL1   H20 2493   6.322   5.183   3.594  1.0064 -0.6020  1.4023
   34CHL1   C21 2494   6.384   4.981   3.574  0.2101 -0.5717 -0.7173
   34CHL1  H21A 2495   6.434   4.954   3.669 -1.1321  0.4998  0.3290
   34CHL1  H21B 2496   6.456   5.016   3.497  0.3423 -1.8721 -1.2151
   34CHL1  H21C 2497   6.346   4.880   3.548 -0.5164 -0.1673 -1.2433
   34CHL1   C22 2498   6.179   5.062   3.701 -0.4411  0.2874 -0.4878
   34CHL1  H22A 2499   6.100   5.140   3.692 -0.2169  0.5367 -0.3104
   34CHL1  H22B 2500   6.136   4.960   3.692  0.7863 -0.7681  3.4961
   34CHL1   C23 2501   6.256   5.066   3.832 -0.2562 -0.1562 -0.6414
   34CHL1  H23A 2502   6.319   4.976   3.843 -2.4454 -1.6494  0.3738
   34CHL1  H23B 2503   6.323   5.155   3.828 -0.4535  0.0763  0.7458
   34CHL1   C24 2504   6.166   5.064   3.953  0.9960  0.2585 -0.3594
   34CHL1  H24A 2505   6.088   5.139   3.931 -0.0667 -0.9585 -0.8268
   34CHL1  H24B 2506   6.113   4.966   3.954  0.9315  0.2644 -1.6026
   34CHL1   C25 2507   6.231   5.054   4.090 -0.1912 -0.5481  0.2797
   34CHL1   H25 2508   6.294   5.145   4.103  0.3018 -0.8508  0.0506
   34CHL1   C26 2509   6.137   5.097   4.201  0.0944  1.1478 -0.2910
   34CHL1  H26A 2510   6.058   5.022   4.223  1.4599  0.1574  1.5590
   34CHL1  H26B 2511   6.196   5.096   4.296  2.1956  0.3963 -1.5423
   34CHL1  H26C 2512   6.096   5.199   4.185 -1.0235  0.6384 -0.7739
   34CHL1   C27 2513   6.326   4.934   4.116 -0.6153 -0.7449  0.0250
   34CHL1  H27A 2514   6.367   4.951   4.218 -2.0606  1.5243  0.2963
   34CHL1  H27B 2515   6.279   4.835   4.098 -0.9463 -0.3387 -1.4370
   34CHL1  H27C 2516   6.409   4.926   4.043 -1.7316 -1.6456 -1.1994
   35CHL1    C3 2517   1.940   3.815   2.846 -0.5646  0.2817  0.3825
   35CHL1    H3 2518   1.950   3.705   2.862 -2.9446  0.1623  1.6241
   35CHL1    O3 2519   1.966   3.857   2.716 -0.3639 -0.4329 -0.3039
   35CHL1   H3' 2520   1.922   3.794   2.659  1.9354 -0.7479 -1.8840
   35CHL1    C4 2521   1.793   3.849   2.885 -0.9954  0.6141  0.2743
   35CHL1   H4A 2522   1.766   3.953   2.857 -1.9687 -0.0670 -1.4350
   35CHL1   H4B 2523   1.736   3.777   2.824  0.8825 -1.2792  0.6244
   35CHL1    C5 2524   1.766   3.835   3.030 -0.5118  0.5243  0.3970
   35CHL1    C6 2525   1.667   3.757   3.074 -0.0704 -0.3330  0.2409
   35CHL1    H6 2526   1.604   3.713   2.994 -1.1709  2.1527 -0.3583
   35CHL1    C7 2527   1.624   3.736   3.218 -0.1153 -0.5018 -0.3259
   35CHL1   H7A 2528   1.514   3.751   3.226 -0.2019 -1.1472 -0.2445
   35CHL1   H7B 2529   1.642   3.630   3.246 -0.2179 -0.0714  1.5088
   35CHL1    C8 2530   1.709   3.831   3.319  0.4444 -0.0536 -0.4804
   35CHL1    H8 2531   1.671   3.935   3.312 -1.5285 -0.6435  0.9351
   35CHL1   C14 2532   1.700   3.779   3.466  0.1628 -0.2496 -0.1141
   35CHL1   H14 2533   1.756   3.682   3.467  1.0853  0.2400 -1.5520
   35CHL1   C15 2534   1.561   3.751   3.523 -0.3732 -0.5185  0.1384
   35CHL1  H15A 2535   1.501   3.834   3.479 -0.6785  0.0200  1.5171
   35CHL1  H15B 2536   1.509   3.658   3.491 -1.4139 -0.0702  0.4680
   35CHL1   C16 2537   1.572   3.755   3.677  0.5026  0.1073  0.0214
   35CHL1  H16A 2538   1.525   3.843   3.727  2.8674  1.7547 -0.5259
   35CHL1  H16B 2539   1.527   3.668   3.730 -3.0520  1.7686  0.0233
   35CHL1   C17 2540   1.726   3.787   3.698  0.0879 -0.0257 -0.0606
   35CHL1   H17 2541   1.786   3.694   3.699  0.0264 -0.0931 -1.2433
   35CHL1   C13 2542   1.773   3.859   3.571 -0.1189 -0.6112  1.1012
   35CHL1   C18 2543   1.720   4.008   3.578 -0.1456 -0.3369  0.9240
   35CHL1  H18A 2544   1.781   4.058   3.657  1.3615 -0.8942  0.1509
   35CHL1  H18B 2545   1.734   4.056   3.479  1.4598 -3.6968 -0.6353
   35CHL1  H18C 2546   1.614   4.013   3.613 -0.1383  0.7399  0.8279
   35CHL1   C12 2547   1.922   3.865   3.529 -0.6574  0.0947 -0.5155
   35CHL1  H12A 2548   1.974   3.942   3.590  1.5606 -2.0075  0.3597
   35CHL1  H12B 2549   1.967   3.765   3.539 -0.2536  0.2606 -0.6470
   35CHL1   C11 2550   1.939   3.920   3.384  0.1997 -0.3437 -0.1434
   35CHL1  H11A 2551   1.915   4.028   3.385  1.5873  0.1844  4.5551
   35CHL1  H11B 2552   2.046   3.905   3.358 -0.1861 -1.2302 -1.3087
   35CHL1    C9 2553   1.855   3.847   3.281  0.3067  0.7830  0.2409
   35CHL1    H9 2554   1.878   3.739   3.280 -0.5831  0.5867 -0.5427
   35CHL1   C10 2555   1.868   3.903   3.133  0.5061  0.4191 -0.5877
   35CHL1   C19 2556   1.858   4.058   3.132 -0.0542 -0.0757 -0.0967
   35CHL1  H19A 2557   1.851   4.088   3.026 -2.6529 -0.9432 -0.2445
   35CHL1  H19B 2558   1.767   4.097   3.183  0.1080  0.5203 -0.2574
   35CHL1  H19C 2559   1.943   4.108   3.182 -0.5058  2.9361 -2.0835
   35CHL1    C1 2560   2.011   3.866   3.080  0.4351 -0.4716 -0.2873
   35CHL1   H1A 2561   2.093   3.915   3.136  0.9776 -2.2500  0.5469
   35CHL1   H1B 2562   2.025   3.756   3.087  0.6391 -0.4062  0.3880
   35CHL1    C2 2563   2.039   3.891   2.926  0.2091 -0.8382 -0.3116
   35CHL1   H2A 2564   2.142   3.850   2.916 -0.0084 -1.8915  1.2810
   35CHL1   H2B 2565   2.038   4.001   2.913  0.5483 -0.8887 -0.7853
   35CHL1   C20 2566   1.755   3.850   3.835  0.0404  0.4032 -0.1989
   35CHL1   H20 2567   1.710   3.951   3.832  2.1464  1.3652 -1.6940
   35CHL1   C21 2568   1.905   3.850   3.869 -0.7342  0.1739 -0.2213
   35CHL1  H21A 2569   1.935   3.908   3.958 -1.5834  0.8074 -0.3378
   35CHL1  H21B 2570   1.965   3.888   3.783 -0.8551  0.5870 -0.1243
   35CHL1  H21C 2571   1.933   3.742   3.877  0.3454  0.2222 -2.4994
   35CHL1   C22 2572   1.680   3.776   3.954 -0.0163 -0.0635  0.1691
   35CHL1  H22A 2573   1.572   3.802   3.948 -0.1117 -0.2737  0.8700
   35CHL1  H22B 2574   1.691   3.665   3.952  0.2785 -0.0352  0.1630
   35CHL1   C23 2575   1.730   3.825   4.096  0.1025  0.4032  0.7526
   35CHL1  H23A 2576   1.830   3.781   4.114  0.3576  0.8715  0.4977
   35CHL1  H23B 2577   1.738   3.936   4.089 -2.4612  0.6534  0.7652
   35CHL1   C24 2578   1.633   3.778   4.212 -0.2306  0.4462  0.4036
   35CHL1  H24A 2579   1.541   3.839   4.218 -1.3042 -1.0452 -0.1347
   35CHL1  H24B 2580   1.614   3.675   4.174  0.8186  0.8507 -1.3347
   35CHL1   C25 2581   1.696   3.786   4.351  0.5102 -0.4979 -0.0287
   35CHL1   H25 2582   1.747   3.884   4.357 -0.4539  0.0337 -0.3575
   35CHL1   C26 2583   1.597   3.786   4.469 -0.6602 -0.5885  0.5944
   35CHL1  H26A 2584   1.530   3.874   4.457  1.1975  1.0272  1.4210
   35CHL1  H26B 2585   1.528   3.700   4.480 -2.1222  0.5581  0.6590
   35CHL1  H26C 2586   1.641   3.815   4.567 -1.7326  1.6812  0.4606
   35CHL1   C27 2587   1.797   3.669   4.363 -0.4632 -0.2123  0.3877
   35CHL1  H27A 2588   1.749   3.570   4.348 -0.1176 -0.2735 -0.3846
   35CHL1  H27B 2589   1.888   3.687   4.303 -0.6634  0.2482  0.2157
   35CHL1  H27C 2590   1.827   3.670   4.470 -0.2105  2.0258  0.3436
   36CHL1    C3 2591   5.819   0.585   2.915  0.2005 -0.2679  0.1701
   36CHL1    H3 2592   5.922   0.544   2.920 -0.0693 -1.0287 -0.2771
   36CHL1    O3 2593   5.772   0.561   2.782 -0.5002  0.7964 -0.3653
   36CHL1   H3' 2594   5.796   0.638   2.730  1.6215 -0.7935 -1.9158
   36CHL1    C4 2595   5.723   0.525   3.014  0.3947  0.3820 -0.5439
   36CHL1   H4A 2596   5.631   0.583   3.033  0.1188 -0.4511  0.8169
   36CHL1   H4B 2597   5.694   0.426   2.973 -0.7109  0.9254 -1.1014
   36CHL1    C5 2598   5.804   0.532   3.145  0.0698 -0.4390  0.3455
   36CHL1    C6 2599   5.845   0.424   3.215  0.4092  0.9221  0.2376
   36CHL1    H6 2600   5.824   0.322   3.179  2.6553  0.7653 -0.8147
   36CHL1    C7 2601   5.917   0.434   3.340 -0.0392  0.6246  0.6556
   36CHL1   H7A 2602   5.882   0.352   3.407 -2.6919  1.3143  0.2243
   36CHL1   H7B 2603   6.023   0.411   3.315  0.2102  1.6506  0.7339
   36CHL1    C8 2604   5.913   0.575   3.406 -0.4476  0.6753  0.0317
   36CHL1    H8 2605   5.810   0.587   3.447 -0.3329 -1.0903  0.9083
   36CHL1   C14 2606   6.008   0.575   3.523  0.6543 -0.1020 -0.2975
   36CHL1   H14 2607   6.110   0.553   3.486  0.4639  0.3269 -1.0829
   36CHL1   C15 2608   5.974   0.471   3.636 -0.0943 -0.3729  0.2461
   36CHL1  H15A 2609   5.864   0.459   3.646  0.1140 -2.8572  0.1187
   36CHL1  H15B 2610   6.010   0.368   3.614 -1.1991 -0.9613  1.0643
   36CHL1   C16 2611   6.040   0.532   3.764 -0.1559 -0.0965 -0.3952
   36CHL1  H16A 2612   5.964   0.548   3.844 -0.2071 -1.3840 -0.1685
   36CHL1  H16B 2613   6.130   0.476   3.797 -0.4534 -1.4312 -1.7121
   36CHL1   C17 2614   6.094   0.678   3.726 -0.4182  0.5551  0.2349
   36CHL1   H17 2615   6.200   0.665   3.696  0.1605  2.6980  1.2023
   36CHL1   C13 2616   6.014   0.714   3.594 -0.4421  0.6400 -0.5256
   36CHL1   C18 2617   5.870   0.751   3.637 -0.3455 -0.4556 -0.1249
   36CHL1  H18A 2618   5.875   0.847   3.693 -0.4949 -0.6197  0.1782
   36CHL1  H18B 2619   5.805   0.769   3.549  1.7170 -0.0697 -1.6566
   36CHL1  H18C 2620   5.836   0.681   3.717 -0.4617 -0.5045 -0.2177
   36CHL1   C12 2621   6.081   0.807   3.490 -0.5606 -0.5730 -0.3504
   36CHL1  H12A 2622   6.105   0.910   3.523 -0.2477 -0.2728 -1.4701
   36CHL1  H12B 2623   6.181   0.765   3.466  0.4166  0.2493  2.0175
   36CHL1   C11 2624   5.991   0.818   3.364  0.2149  0.6176 -0.3271
   36CHL1  H11A 2625   5.892   0.861   3.391 -0.7459 -2.9019  2.5970
   36CHL1  H11B 2626   6.036   0.881   3.284  2.4651 -0.8231 -0.2976
   36CHL1    C9 2627   5.951   0.675   3.305 -0.4382 -0.1376 -0.0762
   36CHL1    H9 2628   6.042   0.632   3.259  0.0314  1.3302 -0.6004
   36CHL1   C10 2629   5.847   0.673   3.189  0.5641  0.1198 -0.0495
   36CHL1   C19 2630   5.718   0.744   3.239 -0.0924  0.1363  0.1027
   36CHL1  H19A 2631   5.637   0.741   3.163  0.2895 -0.1912 -0.2992
   36CHL1  H19B 2632   5.678   0.692   3.329  1.0994  1.8053  1.6671
   36CHL1  H19C 2633   5.739   0.848   3.272  1.7851  0.2367 -1.2133
   36CHL1    C1 2634   5.897   0.766   3.069  0.1282  0.0941  0.3088
   36CHL1   H1A 2635   5.872   0.869   3.099 -1.5367  0.7401 -2.8369
   36CHL1   H1B 2636   6.006   0.742   3.064 -0.3351 -2.4383  0.6934
   36CHL1    C2 2637   5.819   0.740   2.936 -0.4537  0.1865 -0.0654
   36CHL1   H2A 2638   5.878   0.788   2.855  1.9387 -0.0480  1.4365
   36CHL1   H2B 2639   5.714   0.775   2.932 -0.0289  1.4521 -0.7084
   36CHL1   C20 2640   6.088   0.776   3.837 -0.9744 -0.3852 -1.4783
   36CHL1   H20 2641   5.982   0.798   3.863 -0.6452 -1.1866  0.7208
   36CHL1   C21 2642   6.148   0.907   3.785  0.2358 -0.7096 -0.4947
   36CHL1  H21A 2643   6.074   0.950   3.715 -0.2273  0.0666  0.4396
   36CHL1  H21B 2644   6.236   0.891   3.719  1.1383  2.1120 -0.0979
   36CHL1  H21C 2645   6.181   0.985   3.857  0.6802 -1.1374 -0.2293
   36CHL1   C22 2646   6.156   0.725   3.969 -0.5755 -0.4576  0.1700
   36CHL1  H22A 2647   6.103   0.638   4.013 -1.2970  0.2595  0.7452
   36CHL1  H22B 2648   6.262   0.695   3.958 -0.3173  0.8250 -0.9918
   36CHL1   C23 2649   6.152   0.826   4.083  0.3974 -0.4636  0.5990
   36CHL1  H23A 2650   6.211   0.915   4.053 -0.2837 -0.4623 -0.8183
   36CHL1  H23B 2651   6.048   0.865   4.088  0.7518  0.6691 -0.4203
   36CHL1   C24 2652   6.207   0.766   4.210 -0.4142  0.1964  0.0257
   36CHL1  H24A 2653   6.148   0.681   4.251  0.0183 -0.7997 -1.3589
   36CHL1  H24B 2654   6.313   0.744   4.185  0.6705  4.3681  0.3279
   36CHL1   C25 2655   6.215   0.870   4.326 -0.0469  0.1496  0.1714
   36CHL1   H25 2656   6.241   0.960   4.267 -0.5522 -0.3278 -0.8288
   36CHL1   C26 2657   6.081   0.889   4.402 -0.2099 -0.2645  0.4843
   36CHL1  H26A 2658   6.078   0.983   4.461  2.1239 -0.3553  0.8572
   36CHL1  H26B 2659   5.992   0.900   4.337  0.9540 -2.3971 -1.6157
   36CHL1  H26C 2660   6.071   0.814   4.483  1.3328  0.6793  1.6001
   36CHL1   C27 2661   6.321   0.830   4.433 -0.4681  0.6088 -0.1111
   36CHL1  H27A 2662   6.420   0.824   4.384  0.1563  2.6096  0.7726
   36CHL1  H27B 2663   6.327   0.903   4.517 -1.4935  0.1403  0.3788
   36CHL1  H27C 2664   6.310   0.728   4.474  2.0186  0.1448 -0.4744
   37CHL1    C3 2665   0.683   4.056   2.807 -0.7865 -0.1509  0.1224
   37CHL1    H3 2666   0.753   3.971   2.820 -0.7849 -0.4830 -1.8065
   37CHL1    O3 2667   0.640   4.043   2.669 -0.7909 -0.1818  0.2143
   37CHL1   H3' 2668   0.613   4.132   2.647 -1.2031  0.2775  2.3074
   37CHL1    C4 2669   0.562   4.047   2.901  0.4564  0.1283 -0.1235
   37CHL1   H4A 2670   0.509   4.140   2.870 -0.3489 -0.7099 -1.3430
   37CHL1   H4B 2671   0.490   3.965   2.883 -1.2768  1.3266  0.9578
   37CHL1    C5 2672   0.600   4.054   3.046  0.7310  0.7450 -0.1928
   37CHL1    C6 2673   0.588   3.948   3.127 -0.3800 -0.2725 -0.2631
   37CHL1    H6 2674   0.542   3.855   3.089  0.7265 -1.8939  2.0823
   37CHL1    C7 2675   0.627   3.951   3.278 -0.0495  0.1524  0.4158
   37CHL1   H7A 2676   0.543   3.909   3.338  0.8747  0.6393  2.1171
   37CHL1   H7B 2677   0.716   3.888   3.302 -1.9527 -2.3119  1.5479
   37CHL1    C8 2678   0.647   4.097   3.336 -0.0932  0.1993  0.9405
   37CHL1    H8 2679   0.550   4.150   3.348  0.2385  0.3707  3.3044
   37CHL1   C14 2680   0.723   4.093   3.465  0.7064  0.7553  0.2608
   37CHL1   H14 2681   0.817   4.040   3.439  1.0346 -0.7922  4.0042
   37CHL1   C15 2682   0.650   4.009   3.576 -0.1944  0.0167 -0.0924
   37CHL1  H15A 2683   0.545   4.040   3.594  0.1936  1.8052 -0.6666
   37CHL1  H15B 2684   0.669   3.900   3.563 -0.0542 -0.0606  0.6787
   37CHL1   C16 2685   0.744   4.047   3.699 -0.2429  0.0254  0.1389
   37CHL1  H16A 2686   0.676   4.073   3.783 -1.1492 -0.0568 -0.5534
   37CHL1  H16B 2687   0.821   3.973   3.728 -0.3065  0.6856  2.1266
   37CHL1   C17 2688   0.823   4.180   3.659  0.7080  0.7403 -0.5501
   37CHL1   H17 2689   0.926   4.141   3.642  0.5543 -0.4469  0.9888
   37CHL1   C13 2690   0.767   4.227   3.528 -0.1789 -0.4933  0.3042
   37CHL1   C18 2691   0.640   4.308   3.563  0.2180 -0.7926  0.5920
   37CHL1  H18A 2692   0.583   4.275   3.652  0.8417 -1.2044  0.8426
   37CHL1  H18B 2693   0.664   4.415   3.578 -0.2444 -0.7521  1.0638
   37CHL1  H18C 2694   0.576   4.318   3.472 -0.6384 -0.3974  1.2214
   37CHL1   C12 2695   0.860   4.295   3.429  0.1044  0.0384  0.2178
   37CHL1  H12A 2696   0.879   4.400   3.460 -2.0518  1.8243 -3.7202
   37CHL1  H12B 2697   0.955   4.239   3.424  0.6887  0.8832  1.4961
   37CHL1   C11 2698   0.784   4.307   3.296 -0.6995  0.0939  0.2840
   37CHL1  H11A 2699   0.700   4.378   3.304 -1.7874 -0.6735 -2.9545
   37CHL1  H11B 2700   0.862   4.352   3.231  0.8371 -0.5567  1.5950
   37CHL1    C9 2701   0.736   4.170   3.232  0.3995  0.1720 -0.2971
   37CHL1    H9 2702   0.826   4.105   3.222 -0.0049 -0.3617 -0.5385
   37CHL1   C10 2703   0.671   4.181   3.090  0.1582  0.1437  0.3525
   37CHL1   C19 2704   0.574   4.299   3.096  0.0371  0.2711 -0.1887
   37CHL1  H19A 2705   0.516   4.303   3.001 -0.5515 -2.0233  0.0225
   37CHL1  H19B 2706   0.502   4.280   3.178 -0.2845 -2.2975 -0.9937
   37CHL1  H19C 2707   0.634   4.392   3.109  0.5756 -0.0476 -0.3844
   37CHL1    C1 2708   0.784   4.210   2.981  0.5840  0.6159  0.2180
   37CHL1   H1A 2709   0.821   4.312   3.001 -1.3955  1.1244  1.6502
   37CHL1   H1B 2710   0.854   4.127   3.006 -1.1201 -0.4951  1.5870
   37CHL1    C2 2711   0.751   4.195   2.837 -0.0850  0.1774  0.1749
   37CHL1   H2A 2712   0.845   4.201   2.779 -0.1216 -1.9022 -0.1796
   37CHL1   H2B 2713   0.683   4.273   2.796 -1.7879 -1.4348 -0.2604
   37CHL1   C20 2714   0.839   4.278   3.784 -1.0202 -0.0406  0.0659
   37CHL1   H20 2715   0.748   4.340   3.790 -1.2514 -0.4173  0.5599
   37CHL1   C21 2716   0.954   4.379   3.757  0.9516  0.3657  0.5007
   37CHL1  H21A 2717   0.976   4.450   3.840  1.9631  1.1017 -0.3716
   37CHL1  H21B 2718   0.919   4.443   3.674 -0.2358  2.3478  2.4266
   37CHL1  H21C 2719   1.049   4.324   3.737 -1.5595 -4.4745  0.4909
   37CHL1   C22 2720   0.866   4.203   3.924 -0.1541 -0.4768  0.0094
   37CHL1  H22A 2721   0.769   4.171   3.967 -0.3246  2.3737  1.9929
   37CHL1  H22B 2722   0.934   4.117   3.902 -2.8711 -2.9151  0.5468
   37CHL1   C23 2723   0.918   4.290   4.042 -0.1754  0.4915 -0.4329
   37CHL1  H23A 2724   1.020   4.327   4.017  0.6160 -1.1511  0.1858
   37CHL1  H23B 2725   0.847   4.375   4.055 -0.5077  0.0089  1.0907
   37CHL1   C24 2726   0.922   4.213   4.174  0.4086  0.6952  0.3842
   37CHL1  H24A 2727   0.821   4.170   4.190  0.5188 -0.3233 -1.4818
   37CHL1  H24B 2728   0.980   4.119   4.163 -2.3965 -0.9035 -1.5891
   37CHL1   C25 2729   0.950   4.291   4.298 -0.5873  0.8926 -0.2730
   37CHL1   H25 2730   0.871   4.368   4.301 -2.2578 -0.7288 -1.0741
   37CHL1   C26 2731   0.936   4.207   4.423 -0.0885  0.0997  0.4757
   37CHL1  H26A 2732   1.004   4.119   4.416 -0.8213 -0.3352 -2.1776
   37CHL1  H26B 2733   0.977   4.265   4.509 -2.0213 -2.0487  3.0180
   37CHL1  H26C 2734   0.834   4.170   4.446 -0.4667  1.0076  0.2939
   37CHL1   C27 2735   1.090   4.355   4.298 -0.6970 -0.3976 -0.3932
   37CHL1  H27A 2736   1.162   4.273   4.318 -0.1552  0.7039  2.8290
   37CHL1  H27B 2737   1.127   4.417   4.213  1.0491  1.7311  1.7704
   37CHL1  H27C 2738   1.101   4.424   4.384  0.3664 -2.2920  1.0790
   38CHL1    C3 2739   4.270   1.765   3.293  0.4653  0.2915  0.1904
   38CHL1    H3 2740   4.162   1.787   3.303  0.1666 -0.5140 -1.0657
   38CHL1    O3 2741   4.297   1.755   3.163  0.0425 -0.3389 -0.1521
   38CHL1   H3' 2742   4.216   1.734   3.116 -0.9729 -0.6949  1.6702
   38CHL1    C4 2743   4.349   1.885   3.352  0.6573 -0.1096 -0.5508
   38CHL1   H4A 2744   4.456   1.854   3.353  0.0505 -2.3538 -0.0629
   38CHL1   H4B 2745   4.337   1.966   3.277 -0.5076 -0.5907 -0.8974
   38CHL1    C5 2746   4.303   1.906   3.498 -0.0952  0.0216 -0.2621
   38CHL1    C6 2747   4.243   2.023   3.524 -0.0594 -0.6058 -0.7954
   38CHL1    H6 2748   4.223   2.104   3.452 -1.8960 -0.1543  0.1525
   38CHL1    C7 2749   4.209   2.056   3.666  0.4805 -0.0090 -0.2033
   38CHL1   H7A 2750   4.243   2.161   3.680 -1.2832  0.8091 -1.6006
   38CHL1   H7B 2751   4.099   2.050   3.680  0.4928 -1.8582 -0.5993
   38CHL1    C8 2752   4.275   1.963   3.776 -0.2649  0.0544 -0.1865
   38CHL1    H8 2753   4.384   1.983   3.782 -0.0523 -0.9579 -0.3746
   38CHL1   C14 2754   4.217   1.974   3.912 -0.6764  0.8770  0.2924
   38CHL1   H14 2755   4.115   1.931   3.908 -0.6189  0.7711 -0.0850
   38CHL1   C15 2756   4.182   2.110   3.967 -0.0204 -0.0872  0.2150
   38CHL1  H15A 2757   4.273   2.175   3.966 -0.5903  0.8411  2.3580
   38CHL1  H15B 2758   4.097   2.157   3.913 -0.7252  0.1594  1.4860
   38CHL1   C16 2759   4.148   2.095   4.118 -0.4817 -0.8218 -0.0846
   38CHL1  H16A 2760   4.206   2.175   4.170  1.7150 -1.7206 -1.0356
   38CHL1  H16B 2761   4.044   2.118   4.151  0.4752  2.7112  0.9664
   38CHL1   C17 2762   4.194   1.949   4.150  0.0401 -0.0858  1.1515
   38CHL1   H17 2763   4.100   1.895   4.128  0.5862 -0.6883  0.2229
   38CHL1   C13 2764   4.277   1.901   4.026  0.4536  0.9241 -0.0316
   38CHL1   C18 2765   4.431   1.935   4.050  0.5657 -0.0298 -0.2849
   38CHL1  H18A 2766   4.464   1.893   4.148 -2.0136 -0.3214  0.5391
   38CHL1  H18B 2767   4.496   1.889   3.972  0.5547  0.9394 -0.8747
   38CHL1  H18C 2768   4.450   2.044   4.050 -1.2232  0.3391  1.4958
   38CHL1   C12 2769   4.260   1.752   3.986  0.4015  0.4897 -0.1164
   38CHL1  H12A 2770   4.298   1.672   4.054  0.1239  0.0534 -0.4699
   38CHL1  H12B 2771   4.152   1.737   3.967  0.0769  0.5937  1.4893
   38CHL1   C11 2772   4.321   1.720   3.846  0.5418  0.9145  0.1354
   38CHL1  H11A 2773   4.431   1.734   3.859  0.3071  1.1981  2.2497
   38CHL1  H11B 2774   4.291   1.617   3.818 -0.9189  1.3882 -0.1115
   38CHL1    C9 2775   4.267   1.816   3.736 -0.9337 -0.0577 -0.5841
   38CHL1    H9 2776   4.158   1.800   3.723 -1.5805  2.1516  1.4111
   38CHL1   C10 2777   4.321   1.781   3.595  0.5090 -0.1120 -0.2824
   38CHL1   C19 2778   4.471   1.761   3.606 -0.3192  0.1012  0.4046
   38CHL1  H19A 2779   4.506   1.747   3.502 -1.6120  1.6426 -0.2919
   38CHL1  H19B 2780   4.514   1.855   3.647 -0.5621  0.6486 -0.5670
   38CHL1  H19C 2781   4.504   1.677   3.671 -1.8308 -1.0408 -0.2195
   38CHL1    C1 2782   4.253   1.652   3.524 -0.1389  0.6001  0.6640
   38CHL1   H1A 2783   4.289   1.571   3.590  0.2120 -0.2958 -0.5933
   38CHL1   H1B 2784   4.146   1.669   3.545  0.0804  1.1503  1.3771
   38CHL1    C2 2785   4.289   1.631   3.375 -0.0968 -0.4386 -0.1601
   38CHL1   H2A 2786   4.218   1.552   3.342 -1.4718  0.9204 -0.5766
   38CHL1   H2B 2787   4.395   1.600   3.361 -0.4091 -1.1970 -0.9645
   38CHL1   C20 2788   4.246   1.927   4.294  0.0464 -0.0518 -0.1289
   38CHL1   H20 2789   4.344   1.978   4.304 -0.6464  1.0991  1.1885
   38CHL1   C21 2790   4.261   1.776   4.328 -0.4044  0.1325  0.9593
   38CHL1  H21A 2791   4.326   1.727   4.253 -0.7052 -0.2223  0.9266
   38CHL1  H21B 2792   4.163   1.724   4.334 -0.0724 -0.6682 -0.3593
   38CHL1  H21C 2793   4.311   1.768   4.427 -0.2678 -0.0978  0.8723
   38CHL1   C22 2794   4.158   2.003   4.393 -0.1867  0.0375 -0.0636
   38CHL1  H22A 2795   4.177   2.112   4.379  0.6641  0.0793  1.2109
   38CHL1  H22B 2796   4.052   1.975   4.374 -0.5760 -1.2942  3.2319
   38CHL1   C23 2797   4.184   1.977   4.540 -1.1836  0.5685 -0.6760
   38CHL1  H23A 2798   4.158   1.872   4.564  0.8549  0.5039  1.6534
   38CHL1  H23B 2799   4.294   1.981   4.555 -0.9203 -2.8527 -0.8288
   38CHL1   C24 2800   4.103   2.079   4.631  0.0218  0.5382  0.4010
   38CHL1  H24A 2801   4.140   2.184   4.622  0.4894  0.3423 -0.0070
   38CHL1  H24B 2802   4.000   2.073   4.589  0.0925 -0.9477  0.3799
   38CHL1   C25 2803   4.099   2.041   4.780  0.7457 -0.4615  0.1019
   38CHL1   H25 2804   4.028   1.958   4.799  0.8033 -0.2518  1.3138
   38CHL1   C26 2805   4.234   1.997   4.841  0.4942  0.0838 -0.5059
   38CHL1  H26A 2806   4.264   1.894   4.811  0.0518 -0.4442  0.7639
   38CHL1  H26B 2807   4.320   2.060   4.812  1.9490 -1.8515 -0.6252
   38CHL1  H26C 2808   4.226   1.985   4.951  1.4191  1.3777 -0.2792
   38CHL1   C27 2809   4.049   2.160   4.856 -0.1590 -0.1991 -0.3099
   38CHL1  H27A 2810   4.038   2.129   4.962 -0.5559  1.3292  0.1208
   38CHL1  H27B 2811   4.117   2.248   4.862  0.2104 -0.4162 -1.1587
   38CHL1  H27C 2812   3.951   2.193   4.816 -0.5428 -0.0768  0.7066
   39CHL1    C3 2813   3.942   2.067   2.992 -0.5375  0.2322 -0.3287
   39CHL1    H3 2814   4.047   2.052   3.025 -0.2098  3.1661  0.2856
   39CHL1    O3 2815   3.940   2.090   2.849 -0.1759  0.0309 -0.2986
   39CHL1   H3' 2816   3.847   2.086   2.827 -0.5427  0.9484  0.9686
   39CHL1    C4 2817   3.850   1.949   3.034 -0.7883  0.1618  0.3271
   39CHL1   H4A 2818   3.749   1.969   2.992  0.1799  1.0040 -1.7004
   39CHL1   H4B 2819   3.888   1.855   2.988  0.4155  1.2866 -1.0714
   39CHL1    C5 2820   3.843   1.936   3.183 -0.1988 -0.1443 -0.5560
   39CHL1    C6 2821   3.879   1.825   3.240 -0.1514 -0.1010 -0.6871
   39CHL1    H6 2822   3.923   1.740   3.186  1.8530 -0.2867  1.0963
   39CHL1    C7 2823   3.878   1.799   3.384 -0.4363 -0.5649 -0.5581
   39CHL1   H7A 2824   3.820   1.707   3.407 -0.1597 -0.7330 -0.5289
   39CHL1   H7B 2825   3.978   1.805   3.433 -1.4048  1.8310  1.3338
   39CHL1    C8 2826   3.790   1.907   3.458  0.6351  0.0705  0.9731
   39CHL1    H8 2827   3.683   1.883   3.447  0.7991 -0.1780 -0.1787
   39CHL1   C14 2828   3.822   1.903   3.611  0.4463 -0.7841  0.3939
   39CHL1   H14 2829   3.931   1.920   3.623  0.7619 -0.8308 -1.9083
   39CHL1   C15 2830   3.802   1.775   3.690 -0.0750 -0.5639 -0.1139
   39CHL1  H15A 2831   3.702   1.744   3.654 -0.5923 -0.5344  1.2681
   39CHL1  H15B 2832   3.878   1.694   3.680  0.1931 -0.9361  3.6249
   39CHL1   C16 2833   3.789   1.808   3.842 -0.1021 -0.5552  0.4459
   39CHL1  H16A 2834   3.699   1.754   3.878 -0.1998  0.0348  1.1265
   39CHL1  H16B 2835   3.867   1.774   3.913 -2.0090 -2.1916  1.8854
   39CHL1   C17 2836   3.786   1.962   3.842 -0.0678  0.2971 -0.2105
   39CHL1   H17 2837   3.895   1.983   3.852 -0.3902  1.9657  0.1716
   39CHL1   C13 2838   3.749   2.005   3.699  0.3881  0.5186  0.1536
   39CHL1   C18 2839   3.594   1.997   3.683  0.5493 -0.8131  0.1374
   39CHL1  H18A 2840   3.569   2.003   3.575  1.1607  0.4680  0.0508
   39CHL1  H18B 2841   3.544   1.914   3.737 -1.2702 -0.0884 -0.3514
   39CHL1  H18C 2842   3.553   2.090   3.728 -0.1692 -0.2601 -1.6147
   39CHL1   C12 2843   3.793   2.140   3.645 -0.4379  0.9464 -0.6202
   39CHL1  H12A 2844   3.736   2.219   3.697  0.4339  0.6587  0.8198
   39CHL1  H12B 2845   3.901   2.164   3.660 -0.2572  0.2610 -0.7710
   39CHL1   C11 2846   3.762   2.163   3.497 -0.5360 -0.1459 -0.4994
   39CHL1  H11A 2847   3.652   2.171   3.489 -0.6664  1.0587  1.7235
   39CHL1  H11B 2848   3.801   2.259   3.455 -0.0588  0.0136  0.2865
   39CHL1    C9 2849   3.817   2.046   3.409  0.3109  1.0191 -0.0569
   39CHL1    H9 2850   3.925   2.066   3.422  0.9262 -0.2588 -2.5807
   39CHL1   C10 2851   3.795   2.065   3.257 -0.3858 -0.2778 -0.2143
   39CHL1   C19 2852   3.644   2.077   3.238 -1.0242 -0.6106 -0.2002
   39CHL1  H19A 2853   3.600   2.173   3.273 -1.6618 -2.0943  3.6206
   39CHL1  H19B 2854   3.610   2.069   3.133 -0.8678 -0.1746 -0.2885
   39CHL1  H19C 2855   3.591   2.000   3.297 -2.5349 -2.2769 -3.4854
   39CHL1    C1 2856   3.865   2.192   3.200  0.3548  0.6145 -0.1212
   39CHL1   H1A 2857   3.820   2.289   3.230 -1.7970  0.0206 -1.2452
   39CHL1   H1B 2858   3.972   2.186   3.231 -0.1634 -0.7533  1.5745
   39CHL1    C2 2859   3.886   2.197   3.049  0.3166 -0.9221  0.2188
   39CHL1   H2A 2860   3.950   2.282   3.018  0.0340 -1.1329 -1.0022
   39CHL1   H2B 2861   3.793   2.228   2.996 -0.3324 -1.4006  1.0454
   39CHL1   C20 2862   3.709   2.014   3.965  0.0319 -0.8171  0.1632
   39CHL1   H20 2863   3.602   1.993   3.941  0.4659 -0.6876 -2.1443
   39CHL1   C21 2864   3.729   2.167   3.985  0.0633 -0.3603 -0.0851
   39CHL1  H21A 2865   3.650   2.217   4.045  1.0483 -0.2146  1.1282
   39CHL1  H21B 2866   3.731   2.223   3.889 -0.8035  1.8218  1.0946
   39CHL1  H21C 2867   3.825   2.187   4.036  0.0721 -1.8911  0.5580
   39CHL1   C22 2868   3.752   1.941   4.094  0.0901  0.5418 -0.5847
   39CHL1  H22A 2869   3.745   1.831   4.081  1.2194  0.2431  1.0576
   39CHL1  H22B 2870   3.861   1.943   4.111  0.0823  3.0266 -0.4383
   39CHL1   C23 2871   3.688   1.968   4.233  0.0665 -0.1788 -0.5554
   39CHL1  H23A 2872   3.729   2.066   4.266 -1.8199 -0.0624  1.6459
   39CHL1  H23B 2873   3.578   1.973   4.228 -0.3150 -1.7515  3.2117
   39CHL1   C24 2874   3.743   1.864   4.341  0.2008  0.0103  0.2710
   39CHL1  H24A 2875   3.668   1.783   4.346 -0.8478  1.0094  1.6419
   39CHL1  H24B 2876   3.843   1.820   4.319  0.0334 -0.2323  0.0013
   39CHL1   C25 2877   3.754   1.925   4.482 -0.1124 -0.1230  0.5600
   39CHL1   H25 2878   3.811   2.020   4.485  1.5272 -0.9704 -1.4710
   39CHL1   C26 2879   3.615   1.963   4.525  0.0974  0.2651 -0.1423
   39CHL1  H26A 2880   3.539   1.886   4.502 -2.8289  2.1083  2.5074
   39CHL1  H26B 2881   3.608   1.995   4.631 -2.1712  0.4802 -0.3203
   39CHL1  H26C 2882   3.586   2.050   4.463 -1.4695 -1.4994 -2.0116
   39CHL1   C27 2883   3.820   1.823   4.578 -0.5107 -0.0981 -0.1255
   39CHL1  H27A 2884   3.807   1.848   4.685 -2.1355  1.4364 -0.6428
   39CHL1  H27B 2885   3.773   1.726   4.553 -0.1407 -0.5248  0.7752
   39CHL1  H27C 2886   3.931   1.824   4.564 -0.1855 -0.2417  1.9985
   40CHL1    C3 2887   5.953   5.672   3.035 -0.1217  0.1626 -0.0928
   40CHL1    H3 2888   5.932   5.564   3.018  0.5770  0.1792 -1.1355
   40CHL1    O3 2889   5.911   5.742   2.920 -0.1185  0.3721  0.3512
   40CHL1   H3' 2890   5.967   5.708   2.850 -1.4110 -0.0558 -0.4974
   40CHL1    C4 2891   5.867   5.720   3.153  0.2684 -0.4063  0.3355
   40CHL1   H4A 2892   5.868   5.831   3.147 -1.5530 -0.4386 -2.2803
   40CHL1   H4B 2893   5.766   5.685   3.126  0.1557  0.1583  0.0041
   40CHL1    C5 2894   5.912   5.658   3.285  0.3173 -0.8716 -0.4401
   40CHL1    C6 2895   5.822   5.596   3.362 -0.6034  0.7016 -0.1019
   40CHL1    H6 2896   5.721   5.575   3.322 -0.1697 -3.0257  0.3556
   40CHL1    C7 2897   5.844   5.561   3.507 -0.2763 -0.2635  0.3251
   40CHL1   H7A 2898   5.765   5.605   3.572  0.1073  1.6868 -0.4587
   40CHL1   H7B 2899   5.844   5.451   3.525 -0.2689 -0.3197 -0.0213
   40CHL1    C8 2900   5.979   5.615   3.563 -0.0191 -0.2732 -0.0265
   40CHL1    H8 2901   5.967   5.723   3.588  1.2845  0.4778 -2.3928
   40CHL1   C14 2902   6.024   5.531   3.680  0.0012  0.4766 -0.0333
   40CHL1   H14 2903   6.047   5.429   3.645 -1.2548  0.4755 -0.9429
   40CHL1   C15 2904   5.931   5.505   3.803 -0.4121  0.3685  0.3417
   40CHL1  H15A 2905   5.862   5.590   3.822 -1.0190 -0.2457  0.9187
   40CHL1  H15B 2906   5.867   5.417   3.780  1.8820 -0.3347 -4.8227
   40CHL1   C16 2907   6.022   5.496   3.926 -0.3200  0.1739  0.9038
   40CHL1  H16A 2908   5.989   5.579   3.993 -0.7415  0.9498 -0.2351
   40CHL1  H16B 2909   6.007   5.400   3.979 -1.9370  0.3838  0.8729
   40CHL1   C17 2910   6.164   5.506   3.871 -0.1317 -0.1702  0.6196
   40CHL1   H17 2911   6.194   5.407   3.831  1.2090 -1.4893  4.5081
   40CHL1   C13 2912   6.153   5.589   3.746 -0.2617 -0.6391  0.1266
   40CHL1   C18 2913   6.129   5.736   3.793 -0.2578 -0.1553 -0.3206
   40CHL1  H18A 2914   6.212   5.778   3.854 -1.6008  1.6372  0.3394
   40CHL1  H18B 2915   6.124   5.816   3.716 -0.3514  0.9767  0.8183
   40CHL1  H18C 2916   6.031   5.752   3.842  0.1220  0.4494  0.2673
   40CHL1   C12 2917   6.271   5.583   3.646  0.5690 -0.3827  0.3136
   40CHL1  H12A 2918   6.361   5.628   3.692 -0.0653  1.0511  0.2287
   40CHL1  H12B 2919   6.289   5.476   3.623 -0.8762 -1.1890  2.6021
   40CHL1   C11 2920   6.231   5.661   3.519 -0.1314 -0.4016 -0.1889
   40CHL1  H11A 2921   6.226   5.769   3.545 -1.4466 -0.6875  0.8214
   40CHL1  H11B 2922   6.308   5.659   3.438 -1.1668  1.1432 -1.2601
   40CHL1    C9 2923   6.097   5.615   3.460  0.0774 -0.0019 -0.4713
   40CHL1    H9 2924   6.103   5.509   3.427 -0.4626 -0.3152  0.4057
   40CHL1   C10 2925   6.063   5.688   3.321  0.0658 -0.6948  0.2327
   40CHL1   C19 2926   6.068   5.847   3.329  0.4100 -0.2167 -0.1805
   40CHL1  H19A 2927   6.165   5.889   3.363 -0.3871  2.4525 -0.9822
   40CHL1  H19B 2928   6.049   5.893   3.230 -0.6185 -0.0316  0.0877
   40CHL1  H19C 2929   5.980   5.890   3.382 -3.4754 -2.1361 -4.3686
   40CHL1    C1 2930   6.157   5.642   3.200  0.5553 -0.6760 -0.0323
   40CHL1   H1A 2931   6.257   5.684   3.225 -0.5983  2.2662  0.1282
   40CHL1   H1B 2932   6.161   5.531   3.200  0.8228 -0.7407 -3.2404
   40CHL1    C2 2933   6.106   5.697   3.061 -0.4384  0.6889 -0.3079
   40CHL1   H2A 2934   6.169   5.646   2.985  0.4921  0.1394  0.8075
   40CHL1   H2B 2935   6.140   5.802   3.049  0.1834  0.6121  0.6588
   40CHL1   C20 2936   6.274   5.547   3.978  0.1733  0.7575 -0.1685
   40CHL1   H20 2937   6.352   5.611   3.932  1.2542  1.4512  2.4191
   40CHL1   C21 2938   6.346   5.419   4.020 -0.4805  0.7521  0.2941
   40CHL1  H21A 2939   6.420   5.435   4.101 -0.8150 -2.2723  1.3230
   40CHL1  H21B 2940   6.381   5.358   3.933  0.1380  2.0662 -0.4127
   40CHL1  H21C 2941   6.273   5.355   4.074  0.8631 -0.0890  1.1844
   40CHL1   C22 2942   6.229   5.635   4.097  0.5824 -0.5223 -0.6676
   40CHL1  H22A 2943   6.151   5.709   4.070 -0.4360 -1.7359 -1.1781
   40CHL1  H22B 2944   6.182   5.566   4.171  2.3567 -1.2312 -0.1513
   40CHL1   C23 2945   6.344   5.710   4.165 -0.1160  0.3015  0.4519
   40CHL1  H23A 2946   6.430   5.641   4.174 -1.0174 -0.8647  0.3324
   40CHL1  H23B 2947   6.374   5.790   4.095 -1.2838  0.7230  0.4117
   40CHL1   C24 2948   6.304   5.762   4.300 -0.0384  0.5076 -0.1647
   40CHL1  H24A 2949   6.199   5.795   4.288 -0.1209  0.0369 -0.7932
   40CHL1  H24B 2950   6.284   5.676   4.367  2.3060 -0.0511 -0.0922
   40CHL1   C25 2951   6.391   5.868   4.367  0.6248  0.3262 -0.1136
   40CHL1   H25 2952   6.399   5.955   4.298 -2.7039  0.8574 -0.0014
   40CHL1   C26 2953   6.336   5.926   4.501  0.1146 -0.2676 -0.0960
   40CHL1  H26A 2954   6.312   5.841   4.569  1.2840 -0.1929  0.4241
   40CHL1  H26B 2955   6.403   5.999   4.550  0.1593 -1.3051  1.4698
   40CHL1  H26C 2956   6.234   5.969   4.490  0.3122  0.2625  0.1473
   40CHL1   C27 2957   6.537   5.805   4.381  0.1247 -0.2008 -0.6070
   40CHL1  H27A 2958   6.585   5.765   4.289  2.1333 -1.4693  0.8997
   40CHL1  H27B 2959   6.607   5.883   4.418 -1.7714  1.5715 -0.6134
   40CHL1  H27C 2960   6.530   5.723   4.456 -0.5609  0.9397  0.6228
   41CHL1    C3 2961   5.326   5.477   2.954 -0.3269  0.3317  1.0267
   41CHL1    H3 2962   5.420   5.417   2.958  0.6634  1.7516  0.0879
   41CHL1    O3 2963   5.278   5.474   2.819 -0.6917 -0.1818 -0.0597
   41CHL1   H3' 2964   5.196   5.523   2.825 -0.2212  0.8493 -1.3848
   41CHL1    C4 2965   5.220   5.414   3.051  0.2824 -0.2233 -0.4802
   41CHL1   H4A 2966   5.128   5.468   3.021 -0.8509 -1.3177  0.9268
   41CHL1   H4B 2967   5.206   5.305   3.038 -1.5969 -0.0551 -0.1027
   41CHL1    C5 2968   5.247   5.430   3.195 -0.2014  0.3355 -0.0297
   41CHL1    C6 2969   5.247   5.325   3.283  0.4409 -0.3849 -0.1506
   41CHL1    H6 2970   5.228   5.222   3.250  0.1852 -0.9178  1.5626
   41CHL1    C7 2971   5.261   5.337   3.431  0.1289 -0.8781  0.8558
   41CHL1   H7A 2972   5.180   5.280   3.482 -0.5798 -0.4340  0.2588
   41CHL1   H7B 2973   5.363   5.298   3.450  0.1712 -0.9850  0.4231
   41CHL1    C8 2974   5.266   5.488   3.479  0.0154  0.3436 -0.0977
   41CHL1    H8 2975   5.163   5.529   3.491  1.0510  2.7195  1.4215
   41CHL1   C14 2976   5.327   5.477   3.616  0.3312  0.5704  0.7734
   41CHL1   H14 2977   5.431   5.443   3.600  0.8413  1.8595  1.1923
   41CHL1   C15 2978   5.247   5.393   3.719 -0.8118 -0.2235 -0.1579
   41CHL1  H15A 2979   5.138   5.410   3.708 -0.7932 -1.0187 -1.7525
   41CHL1  H15B 2980   5.278   5.287   3.709  1.5969  0.3628  0.3816
   41CHL1   C16 2981   5.308   5.448   3.851  0.9171  0.2323 -0.0784
   41CHL1  H16A 2982   5.229   5.478   3.923 -0.4606 -1.1196 -0.9423
   41CHL1  H16B 2983   5.354   5.367   3.911 -0.5218 -0.1664  0.5195
   41CHL1   C17 2984   5.401   5.573   3.815 -0.0411  0.7858  0.2945
   41CHL1   H17 2985   5.503   5.534   3.797 -0.1810  1.2503 -1.7592
   41CHL1   C13 2986   5.346   5.612   3.678 -0.0431  0.1311  0.3776
   41CHL1   C18 2987   5.208   5.691   3.703 -0.5667  0.5829 -0.5962
   41CHL1  H18A 2988   5.228   5.785   3.759  0.8369  1.3145 -2.2154
   41CHL1  H18B 2989   5.163   5.716   3.604  0.3861  0.2102 -1.1414
   41CHL1  H18C 2990   5.131   5.625   3.747  0.7152 -1.2246 -0.9773
   41CHL1   C12 2991   5.437   5.695   3.589  0.1375 -0.2628 -0.5919
   41CHL1  H12A 2992   5.441   5.801   3.620 -1.3710 -0.0046 -1.2296
   41CHL1  H12B 2993   5.541   5.656   3.587  0.4306  0.5313 -1.1785
   41CHL1   C11 2994   5.392   5.704   3.442  0.3094 -0.3744 -0.4178
   41CHL1  H11A 2995   5.308   5.777   3.438  2.8998  2.7830 -1.7920
   41CHL1  H11B 2996   5.472   5.762   3.393 -1.6420  3.9401  1.0146
   41CHL1    C9 2997   5.356   5.570   3.379  0.2300  0.1205  0.2361
   41CHL1    H9 2998   5.451   5.519   3.353 -0.4250 -1.0022  0.0031
   41CHL1   C10 2999   5.290   5.577   3.236 -0.6993  0.7622 -0.4510
   41CHL1   C19 3000   5.172   5.679   3.235 -0.2606  0.1679 -0.0909
   41CHL1  H19A 3001   5.205   5.781   3.262 -0.9726  0.6225 -0.8887
   41CHL1  H19B 3002   5.124   5.677   3.135 -0.3897 -0.6238 -0.0231
   41CHL1  H19C 3003   5.100   5.647   3.313  0.4679 -4.0573 -0.8881
   41CHL1    C1 3004   5.410   5.631   3.142 -0.5182 -0.0336 -0.9628
   41CHL1   H1A 3005   5.437   5.734   3.171  1.5105 -0.7841  0.0451
   41CHL1   H1B 3006   5.503   5.570   3.153 -0.6230 -0.5064 -2.3887
   41CHL1    C2 3007   5.371   5.619   2.998 -0.5049 -0.0692 -0.2649
   41CHL1   H2A 3008   5.454   5.660   2.937 -0.3645  1.7310  1.0800
   41CHL1   H2B 3009   5.289   5.690   2.975 -0.3599  0.7292  1.5633
   41CHL1   C20 3010   5.420   5.674   3.921  0.5887 -0.4181  0.3675
   41CHL1   H20 3011   5.462   5.771   3.884 -0.2079  1.1064  3.1418
   41CHL1   C21 3012   5.536   5.629   4.018 -0.0246  0.2031 -0.3818
   41CHL1  H21A 3013   5.636   5.634   3.971 -0.1140  0.8533 -0.5229
   41CHL1  H21B 3014   5.516   5.526   4.054 -0.8476  0.4546 -0.0980
   41CHL1  H21C 3015   5.528   5.697   4.105 -2.8810  0.3029 -0.6207
   41CHL1   C22 3016   5.295   5.713   4.012  0.5903  0.3505  0.3148
   41CHL1  H22A 3017   5.201   5.714   3.953 -0.2271 -0.1365  1.5613
   41CHL1  H22B 3018   5.281   5.627   4.080 -2.7347  0.6380  0.1774
   41CHL1   C23 3019   5.315   5.838   4.092 -0.1663  0.5062  0.4877
   41CHL1  H23A 3020   5.386   5.819   4.175 -1.6006  0.2062  1.6799
   41CHL1  H23B 3021   5.371   5.906   4.024  0.8286  0.0102  0.7966
   41CHL1   C24 3022   5.186   5.898   4.151 -0.5976 -0.1346  0.2127
   41CHL1  H24A 3023   5.197   5.998   4.198  0.6437 -0.0584 -0.2020
   41CHL1  H24B 3024   5.118   5.904   4.064  1.2040  4.3218 -1.1597
   41CHL1   C25 3025   5.129   5.809   4.260 -0.6328  0.0556  0.0813
   41CHL1   H25 3026   5.146   5.705   4.227  1.5904  0.8111 -1.3191
   41CHL1   C26 3027   5.204   5.825   4.390 -0.1465  0.4655  0.1193
   41CHL1  H26A 3028   5.249   5.926   4.405 -0.7344  0.8467 -0.5813
   41CHL1  H26B 3029   5.135   5.832   4.477 -1.5531 -0.6946 -0.8414
   41CHL1  H26C 3030   5.284   5.750   4.403 -0.8709 -0.5886 -1.2580
   41CHL1   C27 3031   4.982   5.850   4.288  0.2396 -0.2238  0.6934
   41CHL1  H27A 3032   4.963   5.958   4.308  1.6828  1.0439 -3.6728
   41CHL1  H27B 3033   4.936   5.838   4.188 -0.1265  2.1785  0.4985
   41CHL1  H27C 3034   4.917   5.789   4.354 -0.8261 -2.8880 -2.5766
   42CHL1    C3 3035   0.244   3.278   2.972  0.4084  0.1964  0.4761
   42CHL1    H3 3036   0.245   3.383   3.008  0.1248 -0.2284  1.7524
   42CHL1    O3 3037   0.249   3.277   2.831  0.0690 -0.0169  0.2059
   42CHL1   H3' 3038   0.160   3.305   2.807 -1.1679 -2.9803  0.8485
   42CHL1    C4 3039   0.373   3.206   3.019  0.2344 -0.4086 -0.4927
   42CHL1   H4A 3040   0.372   3.107   2.967 -4.2273 -0.5319 -0.5522
   42CHL1   H4B 3041   0.465   3.253   2.978  0.8188 -1.5836 -0.5763
   42CHL1    C5 3042   0.363   3.186   3.170  0.1048  0.2543  0.0091
   42CHL1    C6 3043   0.460   3.234   3.245  0.0555  0.2926  0.1179
   42CHL1    H6 3044   0.546   3.286   3.200  0.9336  2.6645  4.0792
   42CHL1    C7 3045   0.466   3.231   3.398 -0.1381 -0.4786  0.1335
   42CHL1   H7A 3046   0.569   3.195   3.419 -0.0709 -2.2782 -2.7488
   42CHL1   H7B 3047   0.443   3.331   3.441  1.8096 -0.1433  0.4876
   42CHL1    C8 3048   0.363   3.123   3.444 -0.7587  0.1674  0.2909
   42CHL1    H8 3049   0.398   3.020   3.419 -3.5762 -1.0280  0.9682
   42CHL1   C14 3050   0.356   3.125   3.603  0.4384  0.8428  0.8295
   42CHL1   H14 3051   0.339   3.232   3.628  2.6398  1.3630  0.2812
   42CHL1   C15 3052   0.483   3.103   3.687 -0.4427 -0.0626 -0.0359
   42CHL1  H15A 3053   0.531   3.008   3.655 -0.6396 -0.5192  0.9820
   42CHL1  H15B 3054   0.547   3.193   3.675  0.5888 -0.5592  1.4642
   42CHL1   C16 3055   0.425   3.087   3.829 -0.0834  0.4454 -0.3375
   42CHL1  H16A 3056   0.461   2.991   3.872 -0.8154  0.6851  0.8665
   42CHL1  H16B 3057   0.451   3.178   3.887  1.6699 -1.4245  1.9914
   42CHL1   C17 3058   0.270   3.069   3.815  0.4262  0.1005  0.1290
   42CHL1   H17 3059   0.247   3.177   3.820  1.6818  0.3693  0.5443
   42CHL1   C13 3060   0.253   3.029   3.664  0.0908 -0.3981 -0.2207
   42CHL1   C18 3061   0.290   2.879   3.653  0.8325  0.6074 -0.1265
   42CHL1  H18A 3062   0.380   2.836   3.702  0.6327  0.2406 -0.0727
   42CHL1  H18B 3063   0.200   2.822   3.685  0.5361 -0.2888 -2.3481
   42CHL1  H18C 3064   0.306   2.856   3.546  1.9393 -1.5249  0.4362
   42CHL1   C12 3065   0.116   3.057   3.595 -0.5249 -0.1330 -0.5858
   42CHL1  H12A 3066   0.043   2.993   3.648  0.7075 -0.4507  0.7943
   42CHL1  H12B 3067   0.085   3.158   3.630  0.4190 -0.5739  1.7318
   42CHL1   C11 3068   0.121   3.049   3.442  0.8194 -0.1898  0.1359
   42CHL1  H11A 3069   0.148   2.943   3.424  0.9313  0.1781 -2.1962
   42CHL1  H11B 3070   0.019   3.067   3.402  0.3052 -0.2999  1.3506
   42CHL1    C9 3071   0.229   3.144   3.377 -0.0567 -0.0095 -0.4932
   42CHL1    H9 3072   0.197   3.248   3.401  2.4500  0.3317  1.8139
   42CHL1   C10 3073   0.238   3.128   3.231  0.0315  0.4733  0.8871
   42CHL1   C19 3074   0.251   2.971   3.197  0.4047 -0.0388 -0.2516
   42CHL1  H19A 3075   0.157   2.917   3.221 -1.0062  2.6886  0.8382
   42CHL1  H19B 3076   0.260   2.966   3.087 -0.0594 -0.4052 -0.2767
   42CHL1  H19C 3077   0.340   2.924   3.245 -0.1174 -0.4540  0.3340
   42CHL1    C1 3078   0.112   3.185   3.167 -0.6671  0.7726  0.0559
   42CHL1   H1A 3079   0.026   3.125   3.204  1.4640 -0.5322  3.3050
   42CHL1   H1B 3080   0.102   3.276   3.229  0.8015  0.0696  1.3868
   42CHL1    C2 3081   0.113   3.215   3.015  0.2315  0.1634 -0.1277
   42CHL1   H2A 3082   0.031   3.285   2.989 -0.0327  0.3062  1.0236
   42CHL1   H2B 3083   0.097   3.116   2.968  0.1924  0.0082  0.2125
   42CHL1   C20 3084   0.199   2.994   3.936  0.0432  0.2124  0.6356
   42CHL1   H20 3085   0.228   2.887   3.928 -0.3682  0.1981 -0.9393
   42CHL1   C21 3086   0.046   3.020   3.915 -0.0709  0.9232 -0.0843
   42CHL1  H21A 3087  -0.010   3.007   4.010 -0.5075  1.2196 -0.2982
   42CHL1  H21B 3088  -0.001   2.953   3.841 -0.0525 -0.8264  1.4171
   42CHL1  H21C 3089   0.023   3.120   3.873  2.7543  1.4369 -0.6350
   42CHL1   C22 3090   0.246   3.041   4.068  0.1390  0.2259 -0.3057
   42CHL1  H22A 3091   0.355   3.028   4.053  0.1909 -1.7758  1.3189
   42CHL1  H22B 3092   0.220   3.148   4.080 -0.8671  0.1794 -1.8384
   42CHL1   C23 3093   0.201   2.967   4.195 -0.0184  0.5819 -0.3001
   42CHL1  H23A 3094   0.096   2.991   4.223 -0.4827 -0.9088 -0.6434
   42CHL1  H23B 3095   0.209   2.856   4.188 -1.5241  0.2239  2.2443
   42CHL1   C24 3096   0.286   3.010   4.316 -0.0771 -0.4190 -0.0717
   42CHL1  H24A 3097   0.394   2.992   4.302 -0.1267 -1.6578  0.9062
   42CHL1  H24B 3098   0.265   3.119   4.326 -0.8640 -0.3972 -1.6355
   42CHL1   C25 3099   0.239   2.942   4.443 -1.0889 -0.3397 -0.3340
   42CHL1   H25 3100   0.253   2.832   4.442 -2.4704 -0.6151  2.2786
   42CHL1   C26 3101   0.321   2.984   4.566  0.2709 -0.2201  0.5750
   42CHL1  H26A 3102   0.301   3.088   4.600  0.4579  0.0984 -0.2803
   42CHL1  H26B 3103   0.287   2.914   4.645 -0.6637  0.4079  0.7459
   42CHL1  H26C 3104   0.425   2.965   4.533 -0.1872  0.4980 -1.4361
   42CHL1   C27 3105   0.089   2.977   4.477 -0.7362  0.2507 -0.3388
   42CHL1  H27A 3106   0.081   3.082   4.509 -1.1521 -0.1779  1.0213
   42CHL1  H27B 3107   0.016   2.957   4.395 -1.9468  3.6419 -0.2360
   42CHL1  H27C 3108   0.060   2.912   4.562  1.0906  0.9268  0.8571
   43CHL1    C3 3109   6.477   3.213   2.706  0.5367  0.2418 -0.5501
   43CHL1    H3 3110   6.581   3.251   2.721  0.2001  0.9501  0.1007
   43CHL1    O3 3111   6.442   3.262   2.575  0.1447 -0.1526 -0.7172
   43CHL1   H3' 3112   6.402   3.348   2.590 -0.3158 -0.5594  0.5229
   43CHL1    C4 3113   6.454   3.058   2.717  0.8162  0.2651 -0.1345
   43CHL1   H4A 3114   6.352   3.028   2.683  1.2885 -0.4440 -0.9767
   43CHL1   H4B 3115   6.527   3.015   2.645  1.8404  2.3449 -0.4106
   43CHL1    C5 3116   6.479   3.011   2.858 -0.0741  0.5573  0.7351
   43CHL1    C6 3117   6.572   2.917   2.884  0.0578  0.0838  0.3773
   43CHL1    H6 3118   6.632   2.894   2.794 -2.5413 -0.8195 -1.2269
   43CHL1    C7 3119   6.606   2.860   3.017 -0.2117  0.0703 -0.0924
   43CHL1   H7A 3120   6.612   2.749   3.018 -0.6578  0.0468  1.0417
   43CHL1   H7B 3121   6.705   2.903   3.041  0.3872 -0.4817 -1.5002
   43CHL1    C8 3122   6.508   2.901   3.128  0.3329 -0.1317 -0.2044
   43CHL1    H8 3123   6.415   2.839   3.126  0.5230 -0.4509  0.5808
   43CHL1   C14 3124   6.581   2.880   3.259  0.3024 -0.6197 -0.1560
   43CHL1   H14 3125   6.660   2.958   3.255  0.1539 -0.4856 -0.4431
   43CHL1   C15 3126   6.641   2.744   3.297 -0.6078 -1.1794 -0.0470
   43CHL1  H15A 3127   6.559   2.671   3.285 -1.5298 -0.3607  0.9799
   43CHL1  H15B 3128   6.733   2.717   3.241 -2.0526  1.8308 -4.4134
   43CHL1   C16 3129   6.672   2.761   3.447  0.2878 -0.2315 -0.1672
   43CHL1  H16A 3130   6.640   2.664   3.492  0.8671 -1.0960 -1.5466
   43CHL1  H16B 3131   6.782   2.767   3.458  0.1408  2.2298  0.4679
   43CHL1   C17 3132   6.599   2.888   3.497 -0.0364 -0.1831  0.1904
   43CHL1   H17 3133   6.669   2.973   3.511  0.4628 -0.9452  2.8299
   43CHL1   C13 3134   6.499   2.923   3.382  0.6004 -0.5807 -0.7836
   43CHL1   C18 3135   6.374   2.828   3.393  0.9551  0.1441  0.0262
   43CHL1  H18A 3136   6.312   2.827   3.301 -0.1188  3.0991  0.5916
   43CHL1  H18B 3137   6.396   2.720   3.403 -0.6978 -0.3914 -1.5763
   43CHL1  H18C 3138   6.307   2.860   3.476 -0.8768 -1.5604 -0.7117
   43CHL1   C12 3139   6.446   3.069   3.371 -0.0117  0.0280 -0.1634
   43CHL1  H12A 3140   6.357   3.075   3.437 -0.8510 -2.0019 -0.9978
   43CHL1  H12B 3141   6.519   3.148   3.396 -0.7044  0.6414 -0.0519
   43CHL1   C11 3142   6.387   3.098   3.231  0.2047  0.0704 -1.1613
   43CHL1  H11A 3143   6.287   3.049   3.233 -0.6230  1.5887  2.0816
   43CHL1  H11B 3144   6.366   3.207   3.222  1.0833  0.2485 -1.0991
   43CHL1    C9 3145   6.467   3.052   3.112 -0.4249 -0.3658  0.0641
   43CHL1    H9 3146   6.564   3.105   3.120 -0.0501 -0.9661 -0.3851
   43CHL1   C10 3147   6.413   3.078   2.971 -1.1154 -0.5770  0.5608
   43CHL1   C19 3148   6.266   3.041   2.966  0.6141 -0.1552 -0.3004
   43CHL1  H19A 3149   6.219   3.081   2.873 -4.2692  0.4350  2.1122
   43CHL1  H19B 3150   6.241   2.933   2.977 -0.1026  0.0552  0.2024
   43CHL1  H19C 3151   6.213   3.096   3.047  1.6124 -0.0591  0.3017
   43CHL1    C1 3152   6.424   3.232   2.952 -0.9416  0.0741 -0.0313
   43CHL1   H1A 3153   6.351   3.276   3.023 -0.6500  1.0088 -0.3028
   43CHL1   H1B 3154   6.520   3.280   2.980 -1.4274  1.7918 -1.2148
   43CHL1    C2 3155   6.403   3.291   2.809 -0.2068  0.6939 -0.0025
   43CHL1   H2A 3156   6.436   3.397   2.814  1.9871  0.1659 -1.6491
   43CHL1   H2B 3157   6.294   3.296   2.788 -0.1431  0.6451 -0.3408
   43CHL1   C20 3158   6.538   2.867   3.637  0.0078  0.3037 -0.4164
   43CHL1   H20 3159   6.463   2.786   3.636  0.0657  0.0881  2.6146
   43CHL1   C21 3160   6.474   3.000   3.681 -1.1828  0.4918  0.2478
   43CHL1  H21A 3161   6.438   2.984   3.785 -0.1409  1.0886  0.7143
   43CHL1  H21B 3162   6.382   3.013   3.620  0.4834 -2.8911 -3.4978
   43CHL1  H21C 3163   6.547   3.084   3.683 -1.8590  1.0834  2.5901
   43CHL1   C22 3164   6.651   2.825   3.736 -0.5058  0.2944 -0.5969
   43CHL1  H22A 3165   6.680   2.720   3.714  1.3045  0.6539 -0.1312
   43CHL1  H22B 3166   6.742   2.889   3.729 -0.2480  0.0358  0.3537
   43CHL1   C23 3167   6.615   2.833   3.884  0.2732  0.6866 -0.6851
   43CHL1  H23A 3168   6.593   2.934   3.924 -0.7827  0.1397  0.1597
   43CHL1  H23B 3169   6.522   2.773   3.897  1.4853 -0.9130  1.2111
   43CHL1   C24 3170   6.722   2.768   3.980 -1.0809 -0.0207  0.2506
   43CHL1  H24A 3171   6.745   2.667   3.940 -0.1333  0.7724 -1.3121
   43CHL1  H24B 3172   6.814   2.830   3.968 -1.7897  0.9528 -0.2364
   43CHL1   C25 3173   6.673   2.742   4.125  0.4630  0.2643  0.7153
   43CHL1   H25 3174   6.569   2.703   4.119  0.2725  0.9722 -3.7205
   43CHL1   C26 3175   6.772   2.643   4.191 -0.3401 -0.2846 -0.2007
   43CHL1  H26A 3176   6.871   2.693   4.196 -0.0929 -0.8715  1.4699
   43CHL1  H26B 3177   6.728   2.622   4.291 -0.5925  1.7178  0.1414
   43CHL1  H26C 3178   6.773   2.546   4.137  1.6017 -0.1879 -0.4024
   43CHL1   C27 3179   6.657   2.863   4.210  0.4835 -0.1320 -0.5708
   43CHL1  H27A 3180   6.607   2.939   4.147  0.7593  0.0624 -0.5592
   43CHL1  H27B 3181   6.598   2.850   4.303  1.7835  1.8360  0.6122
   43CHL1  H27C 3182   6.753   2.915   4.230 -0.6109  1.4877  0.7428
   44CHL1    C3 3183   0.230   4.748   2.666  0.0715 -0.2084 -0.2766
   44CHL1    H3 3184   0.288   4.840   2.689  1.3518 -0.8759 -0.7399
   44CHL1    O3 3185   0.211   4.735   2.529 -0.0541  0.2340 -0.0109
   44CHL1   H3' 3186   0.139   4.672   2.519 -0.1656  0.3396  0.1311
   44CHL1    C4 3187   0.314   4.635   2.723 -1.2364  0.1089  0.2774
   44CHL1   H4A 3188   0.273   4.540   2.682 -0.4256  0.7690 -2.2589
   44CHL1   H4B 3189   0.407   4.665   2.670 -2.3982  2.2252 -0.6882
   44CHL1    C5 3190   0.351   4.641   2.867 -0.2131 -0.2460  0.0068
   44CHL1    C6 3191   0.471   4.652   2.922  0.1678 -0.0038  0.5408
   44CHL1    H6 3192   0.558   4.640   2.856 -0.1196 -3.0815  0.5636
   44CHL1    C7 3193   0.504   4.671   3.069 -0.2304 -0.6267  0.2448
   44CHL1   H7A 3194   0.591   4.603   3.079  1.2114  1.2680  1.4259
   44CHL1   H7B 3195   0.541   4.772   3.099 -1.9157 -0.3555  1.5588
   44CHL1    C8 3196   0.387   4.628   3.164 -0.3536  0.1699  0.0655
   44CHL1    H8 3197   0.394   4.518   3.165  1.3408  0.1843  3.1483
   44CHL1   C14 3198   0.399   4.684   3.307 -0.5774  0.1687 -0.5411
   44CHL1   H14 3199   0.386   4.793   3.322 -0.3521 -0.1213  2.4560
   44CHL1   C15 3200   0.530   4.657   3.377 -0.1627 -0.8746 -0.4756
   44CHL1  H15A 3201   0.562   4.552   3.363  1.2069 -0.6888  0.9610
   44CHL1  H15B 3202   0.602   4.728   3.331 -0.7549 -0.9676 -1.5852
   44CHL1   C16 3203   0.491   4.682   3.521  0.2860  0.5525  0.5729
   44CHL1  H16A 3204   0.536   4.610   3.593  0.7271  0.7835  0.5271
   44CHL1  H16B 3205   0.520   4.783   3.557 -3.2157  1.8988  0.0782
   44CHL1   C17 3206   0.330   4.691   3.534  0.4411 -0.8516 -0.4162
   44CHL1   H17 3207   0.303   4.798   3.532  0.2051 -0.8883  0.4378
   44CHL1   C13 3208   0.287   4.631   3.402 -0.1522 -0.6373 -0.3638
   44CHL1   C18 3209   0.282   4.485   3.416 -0.9385  0.0824 -0.4089
   44CHL1  H18A 3210   0.375   4.448   3.465 -0.7212 -0.3480 -1.1310
   44CHL1  H18B 3211   0.191   4.457   3.473  0.5075  0.1697  2.0851
   44CHL1  H18C 3212   0.267   4.432   3.320  0.3410 -1.7596  0.3682
   44CHL1   C12 3213   0.149   4.684   3.350  0.5224 -0.7985  0.1378
   44CHL1  H12A 3214   0.059   4.651   3.407 -0.2673 -1.3377 -1.3487
   44CHL1  H12B 3215   0.153   4.795   3.353  0.1024 -0.6790 -2.2336
   44CHL1   C11 3216   0.125   4.637   3.205 -0.3851  0.3938 -0.1115
   44CHL1  H11A 3217   0.111   4.527   3.202  0.3207  0.3189 -1.5801
   44CHL1  H11B 3218   0.029   4.678   3.168 -0.2288 -0.1634 -1.1597
   44CHL1    C9 3219   0.241   4.676   3.109 -0.2680 -0.1252  0.1002
   44CHL1    H9 3220   0.252   4.787   3.110 -1.6560  0.0344  1.3151
   44CHL1   C10 3221   0.223   4.643   2.958 -0.3418 -0.2013  0.1575
   44CHL1   C19 3222   0.157   4.506   2.945 -0.5983  0.5053  0.0028
   44CHL1  H19A 3223   0.217   4.417   2.971 -2.4593 -0.7538  0.1981
   44CHL1  H19B 3224   0.058   4.517   2.995 -1.7106 -1.1230 -1.6977
   44CHL1  H19C 3225   0.125   4.494   2.839  1.3171  1.5090 -0.7280
   44CHL1    C1 3226   0.124   4.756   2.902  0.7127  0.4737  0.2878
   44CHL1   H1A 3227   0.024   4.734   2.946  0.5819 -1.2543 -0.7457
   44CHL1   H1B 3228   0.177   4.852   2.919 -0.9627  1.4264  0.3339
   44CHL1    C2 3229   0.100   4.759   2.753 -0.2167 -0.6366 -0.5283
   44CHL1   H2A 3230   0.043   4.850   2.725 -1.2659 -1.1672 -0.1697
   44CHL1   H2B 3231   0.042   4.667   2.732  0.0245 -1.1844  1.0839
   44CHL1   C20 3232   0.265   4.642   3.667 -0.3221  0.2272 -0.3862
   44CHL1   H20 3233   0.287   4.535   3.688 -2.3031  0.1101  1.3877
   44CHL1   C21 3234   0.109   4.662   3.662  0.2209 -0.8312 -0.2825
   44CHL1  H21A 3235   0.047   4.590   3.603 -0.2356 -0.3313 -0.4203
   44CHL1  H21B 3236   0.085   4.764   3.626 -0.4592 -0.4711  1.1019
   44CHL1  H21C 3237   0.073   4.655   3.767 -2.2855  1.1541 -0.8919
   44CHL1   C22 3238   0.325   4.730   3.785  0.1572  0.0833  0.3432
   44CHL1  H22A 3239   0.371   4.817   3.734 -0.3751  0.1344 -0.0548
   44CHL1  H22B 3240   0.252   4.773   3.857  2.9207  1.9021  2.2809
   44CHL1   C23 3241   0.420   4.642   3.871  0.2759 -0.3405  0.7186
   44CHL1  H23A 3242   0.366   4.557   3.918  1.9388 -1.9714 -0.1731
   44CHL1  H23B 3243   0.492   4.596   3.800 -0.9739  0.0523 -0.8498
   44CHL1   C24 3244   0.502   4.721   3.979 -0.1228  0.0579  0.9773
   44CHL1  H24A 3245   0.424   4.765   4.045 -2.5265 -1.7870 -0.4102
   44CHL1  H24B 3246   0.559   4.642   4.032 -1.3740  0.7907  3.6138
   44CHL1   C25 3247   0.605   4.826   3.933  0.3778  0.0600 -0.3932
   44CHL1   H25 3248   0.558   4.919   3.895 -0.8460  0.3148  1.5731
   44CHL1   C26 3249   0.685   4.871   4.055 -0.3550 -0.4222  0.2037
   44CHL1  H26A 3250   0.620   4.882   4.145 -0.4588 -1.3761  0.2520
   44CHL1  H26B 3251   0.759   4.789   4.064 -1.2263 -1.0624  1.9076
   44CHL1  H26C 3252   0.734   4.967   4.027 -0.2658 -0.7117 -0.6660
   44CHL1   C27 3253   0.701   4.770   3.822 -0.3741 -0.3677  1.0517
   44CHL1  H27A 3254   0.753   4.681   3.862 -1.5629 -1.8215 -0.4713
   44CHL1  H27B 3255   0.647   4.754   3.726 -2.9010 -1.1003  2.4715
   44CHL1  H27C 3256   0.781   4.846   3.816 -1.2993  0.6132  0.8418
   45CHL1    C3 3257   3.100   5.488   2.757  0.5296  0.2726 -0.1609
   45CHL1    H3 3258   3.203   5.444   2.751  1.0431  1.4336 -0.1004
   45CHL1    O3 3259   3.037   5.490   2.630  0.0178  0.3662  0.4737
   45CHL1   H3' 3260   3.029   5.395   2.618 -3.0942  0.4893  0.6320
   45CHL1    C4 3261   3.002   5.409   2.849  0.2627 -0.5677 -0.9366
   45CHL1   H4A 3262   2.901   5.453   2.834  0.4650  0.2341 -0.0324
   45CHL1   H4B 3263   3.010   5.302   2.819  4.4392 -0.8047  0.2872
   45CHL1    C5 3264   3.036   5.422   2.995  0.0549  0.0765 -0.6194
   45CHL1    C6 3265   3.039   5.310   3.070 -0.4828 -0.1577 -0.1480
   45CHL1    H6 3266   3.003   5.213   3.031  1.1964 -0.5070 -0.9135
   45CHL1    C7 3267   3.090   5.314   3.215  0.3008  0.6088 -0.1326
   45CHL1   H7A 3268   3.050   5.234   3.280  1.4016 -0.3027 -0.5433
   45CHL1   H7B 3269   3.198   5.290   3.227 -0.1785 -1.5891  0.2333
   45CHL1    C8 3270   3.063   5.453   3.287 -0.0912 -0.3782  0.2799
   45CHL1    H8 3271   2.954   5.476   3.286  0.3582  1.9946 -0.2849
   45CHL1   C14 3272   3.113   5.457   3.437 -0.2538 -0.0624  0.4314
   45CHL1   H14 3273   3.219   5.423   3.436 -0.7561 -1.8216  1.7897
   45CHL1   C15 3274   3.050   5.353   3.529 -0.1805 -0.0325 -0.3168
   45CHL1  H15A 3275   2.939   5.347   3.527 -0.2081  0.5062 -0.6634
   45CHL1  H15B 3276   3.103   5.257   3.512  1.1138  0.4016  1.1109
   45CHL1   C16 3277   3.104   5.413   3.667  0.2827  0.7967 -0.5236
   45CHL1  H16A 3278   3.011   5.430   3.725 -0.3193  0.6018 -1.4134
   45CHL1  H16B 3279   3.154   5.337   3.729  0.4589  0.4325 -1.1034
   45CHL1   C17 3280   3.173   5.552   3.637 -0.4814 -0.1084  0.2517
   45CHL1   H17 3281   3.281   5.537   3.612 -0.2841  0.9295  0.4342
   45CHL1   C13 3282   3.113   5.591   3.500  0.0561  0.8013  0.1948
   45CHL1   C18 3283   2.964   5.640   3.518  0.1429 -0.1914  0.3332
   45CHL1  H18A 3284   2.899   5.627   3.429 -1.2990 -0.9449  1.4417
   45CHL1  H18B 3285   2.909   5.581   3.595  3.0218 -1.6199  1.4804
   45CHL1  H18C 3286   2.970   5.745   3.553  1.7515 -0.1106 -0.0886
   45CHL1   C12 3287   3.184   5.693   3.403 -0.5352  0.7421 -0.3978
   45CHL1  H12A 3288   3.187   5.795   3.445  1.4056  0.0927  1.2174
   45CHL1  H12B 3289   3.287   5.651   3.406 -1.5381 -2.1398 -1.9774
   45CHL1   C11 3290   3.137   5.696   3.259 -0.2157 -0.3257  0.4091
   45CHL1  H11A 3291   3.035   5.737   3.272 -0.3695 -1.1433  2.0696
   45CHL1  H11B 3292   3.195   5.770   3.200  0.4719  0.2480  1.7738
   45CHL1    C9 3293   3.130   5.559   3.193 -0.2020  0.1386 -0.4566
   45CHL1    H9 3294   3.237   5.531   3.191 -0.4550 -1.6762  3.1813
   45CHL1   C10 3295   3.073   5.563   3.047  0.5441  0.6305 -0.4542
   45CHL1   C19 3296   2.942   5.646   3.052  0.0505  0.1929  0.7853
   45CHL1  H19A 3297   2.881   5.632   2.961  1.8941  0.3702 -0.5242
   45CHL1  H19B 3298   2.878   5.622   3.140 -2.2705 -0.3368 -0.9714
   45CHL1  H19C 3299   2.960   5.756   3.047  3.0000 -0.2634 -1.2242
   45CHL1    C1 3300   3.170   5.629   2.944 -0.0064  0.4206 -0.3503
   45CHL1   H1A 3301   3.202   5.730   2.977  0.7967  0.5389 -1.4363
   45CHL1   H1B 3302   3.268   5.577   2.931 -0.9269 -1.7486  0.7949
   45CHL1    C2 3303   3.112   5.623   2.804 -0.6019 -0.6228  0.1570
   45CHL1   H2A 3304   3.183   5.683   2.743 -2.4477  1.6215  0.0705
   45CHL1   H2B 3305   3.010   5.667   2.803  0.1901  1.4462  2.0070
   45CHL1   C20 3306   3.165   5.643   3.759  0.3599 -0.0987  0.1219
   45CHL1   H20 3307   3.059   5.651   3.791  0.7161  0.6583  1.1565
   45CHL1   C21 3308   3.220   5.785   3.728 -0.5386 -0.1905  0.1430
   45CHL1  H21A 3309   3.159   5.832   3.648  1.2966 -2.5162 -2.9129
   45CHL1  H21B 3310   3.320   5.764   3.683 -1.0044 -1.3014 -0.4256
   45CHL1  H21C 3311   3.231   5.857   3.811 -0.2699  1.9185 -1.6265
   45CHL1   C22 3312   3.245   5.580   3.875 -0.9087  0.5770  0.8320
   45CHL1  H22A 3313   3.214   5.477   3.901 -1.1143  0.4378  0.0675
   45CHL1  H22B 3314   3.348   5.552   3.846 -0.7142  0.0533  1.9632
   45CHL1   C23 3315   3.252   5.666   4.001 -0.3879  0.1261 -0.2168
   45CHL1  H23A 3316   3.318   5.751   3.974  0.2578 -0.4952 -0.6182
   45CHL1  H23B 3317   3.155   5.710   4.033 -0.1472 -0.1050  0.8889
   45CHL1   C24 3318   3.334   5.603   4.119  0.1257  0.2725  0.1574
   45CHL1  H24A 3319   3.443   5.605   4.096  0.4887  0.3766  1.7487
   45CHL1  H24B 3320   3.331   5.673   4.205  1.3236  0.6970 -0.1186
   45CHL1   C25 3321   3.276   5.468   4.159 -1.1633  0.4133  0.7765
   45CHL1   H25 3322   3.274   5.403   4.069 -2.4036  0.7781  0.5168
   45CHL1   C26 3323   3.368   5.400   4.263  0.3117 -1.0137 -0.2549
   45CHL1  H26A 3324   3.324   5.306   4.302  1.8046 -2.1562 -1.2104
   45CHL1  H26B 3325   3.469   5.395   4.216 -0.1058  0.8690 -1.4880
   45CHL1  H26C 3326   3.373   5.460   4.357  1.7941 -1.2929 -0.1288
   45CHL1   C27 3327   3.137   5.474   4.220 -0.3477  0.2840  0.5082
   45CHL1  H27A 3328   3.133   5.547   4.304 -0.0805 -0.3191  1.0561
   45CHL1  H27B 3329   3.075   5.521   4.141  0.5729  0.2157 -0.2681
   45CHL1  H27C 3330   3.092   5.376   4.245 -0.2301 -0.0125 -0.4132
   46CHL1    C3 3331   6.001   4.805   2.999 -0.2378 -0.9061 -0.3678
   46CHL1    H3 3332   6.094   4.857   3.031 -0.1501  1.6297 -4.1359
   46CHL1    O3 3333   5.994   4.816   2.855 -0.4218  0.6685 -0.1237
   46CHL1   H3' 3334   5.933   4.748   2.825  1.5882 -1.3586  0.1875
   46CHL1    C4 3335   6.003   4.658   3.048 -0.1805  0.2901  0.0796
   46CHL1   H4A 3336   5.909   4.604   3.024 -1.3042  2.0218  0.4104
   46CHL1   H4B 3337   6.087   4.610   2.993  0.3964  0.8346  0.4705
   46CHL1    C5 3338   6.012   4.665   3.198  0.2285 -0.1018  0.5072
   46CHL1    C6 3339   6.124   4.625   3.262  0.3796 -0.3477  0.8332
   46CHL1    H6 3340   6.205   4.581   3.202  0.7717 -0.3278  1.3464
   46CHL1    C7 3341   6.138   4.614   3.412  0.0780 -0.9181  0.3984
   46CHL1   H7A 3342   6.192   4.525   3.451  1.1522  0.7339  2.9203
   46CHL1   H7B 3343   6.198   4.702   3.441 -0.6694 -0.0833 -0.5356
   46CHL1    C8 3344   6.001   4.633   3.488  0.2510 -0.4066 -0.4252
   46CHL1    H8 3345   5.952   4.533   3.489 -1.0820  0.2168  0.9609
   46CHL1   C14 3346   6.024   4.677   3.633 -0.1283  0.4022  0.3091
   46CHL1   H14 3347   6.061   4.781   3.632 -1.1705  0.7791 -0.8555
   46CHL1   C15 3348   6.114   4.579   3.710  0.2747  0.0223  0.4154
   46CHL1  H15A 3349   6.094   4.472   3.686  2.7931 -1.0874  2.7111
   46CHL1  H15B 3350   6.223   4.592   3.692  0.9950 -1.0444  3.4918
   46CHL1   C16 3351   6.079   4.611   3.852  0.4244 -0.0165 -0.2035
   46CHL1  H16A 3352   6.046   4.519   3.905 -1.0591  0.6993  0.1955
   46CHL1  H16B 3353   6.158   4.663   3.909  1.1833 -3.6076  2.3823
   46CHL1   C17 3354   5.957   4.714   3.845  0.5326  0.1794 -0.9350
   46CHL1   H17 3355   6.002   4.816   3.844 -1.9068  1.4052  1.2403
   46CHL1   C13 3356   5.897   4.695   3.706  1.2651  0.4333 -0.4333
   46CHL1   C18 3357   5.814   4.558   3.712 -0.3315  0.6597  0.1650
   46CHL1  H18A 3358   5.878   4.477   3.755 -2.0781 -0.2239  1.2364
   46CHL1  H18B 3359   5.719   4.573   3.768 -0.8925 -0.1665 -0.5315
   46CHL1  H18C 3360   5.799   4.520   3.608  3.0726  1.5431 -0.7668
   46CHL1   C12 3361   5.810   4.804   3.650  0.3744 -1.4900 -0.6338
   46CHL1  H12A 3362   5.707   4.810   3.692  0.2433 -2.5236 -0.7850
   46CHL1  H12B 3363   5.852   4.906   3.661  0.3865 -1.3542 -1.8898
   46CHL1   C11 3364   5.782   4.770   3.504 -0.4456 -0.0761  0.8254
   46CHL1  H11A 3365   5.715   4.681   3.502 -2.6081  1.4622  1.5694
   46CHL1  H11B 3366   5.722   4.854   3.463 -0.5484 -0.9240 -0.8664
   46CHL1    C9 3367   5.917   4.743   3.420 -0.3838 -0.7050 -0.8194
   46CHL1    H9 3368   5.983   4.831   3.433  0.6638 -1.4241 -1.0500
   46CHL1   C10 3369   5.895   4.725   3.265  0.2710  0.4290  0.4751
   46CHL1   C19 3370   5.778   4.628   3.251  0.0752  0.2925  0.6320
   46CHL1  H19A 3371   5.754   4.606   3.144  0.4525  0.1476  0.5749
   46CHL1  H19B 3372   5.797   4.530   3.300 -1.2095 -0.1029  0.3647
   46CHL1  H19C 3373   5.685   4.667   3.296  0.8571  1.9939  0.8684
   46CHL1    C1 3374   5.861   4.868   3.209  0.6551 -0.7486  0.2236
   46CHL1   H1A 3375   5.761   4.894   3.248 -0.2184 -0.9045 -1.8109
   46CHL1   H1B 3376   5.934   4.937   3.258  0.6140 -0.2213 -0.4296
   46CHL1    C2 3377   5.870   4.866   3.056 -0.4631 -0.0648 -0.3810
   46CHL1   H2A 3378   5.856   4.973   3.028  1.3150  0.7060  1.3662
   46CHL1   H2B 3379   5.790   4.806   3.009 -0.7373  0.7873 -1.0221
   46CHL1   C20 3380   5.872   4.713   3.974  0.5801 -0.0587  0.4549
   46CHL1   H20 3381   5.834   4.611   3.996  0.1943  0.0763  0.4218
   46CHL1   C21 3382   5.746   4.799   3.971  0.0482  0.1264 -0.3258
   46CHL1  H21A 3383   5.659   4.760   3.914  0.8089 -2.5302  0.1542
   46CHL1  H21B 3384   5.763   4.902   3.935 -0.3828  0.6181  0.8257
   46CHL1  H21C 3385   5.714   4.817   4.076 -1.6810 -1.5416 -0.5041
   46CHL1   C22 3386   5.960   4.743   4.098  0.2070 -0.5764  0.2398
   46CHL1  H22A 3387   6.067   4.723   4.077 -0.1255 -0.8961 -1.2326
   46CHL1  H22B 3388   5.947   4.848   4.132  0.2009 -0.7432  0.7700
   46CHL1   C23 3389   5.926   4.660   4.220 -0.0237  0.2781 -0.5036
   46CHL1  H23A 3390   5.828   4.610   4.208 -0.1281  0.7152 -1.5987
   46CHL1  H23B 3391   6.000   4.579   4.234  2.2228  2.4464  1.1739
   46CHL1   C24 3392   5.909   4.743   4.351 -0.7697  0.2300 -0.1867
   46CHL1  H24A 3393   6.009   4.789   4.368 -0.1992 -0.9128 -0.3644
   46CHL1  H24B 3394   5.834   4.825   4.348  1.5859  2.6218  1.5120
   46CHL1   C25 3395   5.867   4.661   4.474  1.4670 -0.5063  0.6156
   46CHL1   H25 3396   5.935   4.579   4.507 -1.8704 -2.2767  3.7364
   46CHL1   C26 3397   5.833   4.760   4.588  0.6301 -0.3521  0.1793
   46CHL1  H26A 3398   5.791   4.703   4.674 -1.8450 -0.1808 -0.8498
   46CHL1  H26B 3399   5.918   4.826   4.614  1.8749 -1.5830 -0.5846
   46CHL1  H26C 3400   5.753   4.829   4.554 -0.0331 -1.2329 -0.1087
   46CHL1   C27 3401   5.741   4.578   4.452 -0.7333 -0.4513 -0.6185
   46CHL1  H27A 3402   5.723   4.518   4.544 -0.3813  0.8288  0.3126
   46CHL1  H27B 3403   5.649   4.637   4.430  0.3163  0.9900 -1.2890
   46CHL1  H27C 3404   5.763   4.506   4.371  0.2130 -0.9830  0.0908
   47CHL1    C3 3405   3.715   0.623   3.115 -0.0907 -0.2793  0.5216
   47CHL1    H3 3406   3.810   0.577   3.150 -1.0208 -0.7321  2.6001
   47CHL1    O3 3407   3.690   0.610   2.978 -0.7970 -0.0638  0.1814
   47CHL1   H3' 3408   3.608   0.659   2.965 -1.2877 -1.4308 -2.5997
   47CHL1    C4 3409   3.600   0.556   3.190 -0.2686  0.4717 -0.5931
   47CHL1   H4A 3410   3.508   0.605   3.153 -0.3493  0.2873 -0.6393
   47CHL1   H4B 3411   3.591   0.450   3.156  0.8772  0.6138 -1.4027
   47CHL1    C5 3412   3.607   0.569   3.345 -0.6448  0.4470  0.6656
   47CHL1    C6 3413   3.605   0.457   3.421  0.0778  0.1037  0.1493
   47CHL1    H6 3414   3.573   0.364   3.372  0.6933  0.0965 -0.2636
   47CHL1    C7 3415   3.618   0.461   3.566 -0.3632 -0.1434 -0.1004
   47CHL1   H7A 3416   3.535   0.400   3.609 -2.1795  0.9806 -1.8006
   47CHL1   H7B 3417   3.716   0.426   3.603  0.2881  0.4122 -1.2446
   47CHL1    C8 3418   3.595   0.605   3.630 -1.4967 -0.5476  0.4629
   47CHL1    H8 3419   3.489   0.635   3.622 -1.5223 -0.4151  1.2217
   47CHL1   C14 3420   3.644   0.602   3.775 -0.0704 -0.2958 -0.1064
   47CHL1   H14 3421   3.752   0.575   3.775 -0.6427 -3.1505  2.1907
   47CHL1   C15 3422   3.599   0.495   3.878  0.0698  0.0716 -0.3242
   47CHL1  H15A 3423   3.491   0.474   3.870 -0.1214  0.5981  0.7227
   47CHL1  H15B 3424   3.661   0.403   3.864  1.1386  0.5339  1.1577
   47CHL1   C16 3425   3.636   0.555   4.014  0.1620 -0.4623 -0.6569
   47CHL1  H16A 3426   3.542   0.561   4.073  1.2072 -0.2791  1.0673
   47CHL1  H16B 3427   3.710   0.497   4.074 -2.1023 -1.1620  1.6209
   47CHL1   C17 3428   3.683   0.696   3.991  0.1105 -0.7257 -0.5592
   47CHL1   H17 3429   3.793   0.710   3.981  0.0248  4.3460  2.2750
   47CHL1   C13 3430   3.633   0.733   3.853  0.3900  0.1363 -0.0501
   47CHL1   C18 3431   3.480   0.777   3.862 -0.5845 -0.4427  1.2870
   47CHL1  H18A 3432   3.447   0.781   3.756 -3.7239 -1.4464  2.1160
   47CHL1  H18B 3433   3.416   0.709   3.922 -2.6085  0.6270  0.4237
   47CHL1  H18C 3434   3.481   0.877   3.910  2.5551  0.4713 -0.3859
   47CHL1   C12 3435   3.719   0.834   3.775  0.1495  0.4724 -0.3668
   47CHL1  H12A 3436   3.696   0.932   3.821 -3.2825 -0.6162  0.5075
   47CHL1  H12B 3437   3.826   0.810   3.794  0.5100  3.2914  1.8260
   47CHL1   C11 3438   3.685   0.841   3.629 -0.3737 -0.0792 -0.1027
   47CHL1  H11A 3439   3.591   0.898   3.615  0.0868  0.3928 -1.3643
   47CHL1  H11B 3440   3.763   0.900   3.576  1.0412 -2.1647 -0.4980
   47CHL1    C9 3441   3.685   0.705   3.549 -0.2650  0.1654  0.7996
   47CHL1    H9 3442   3.784   0.654   3.550 -0.2232  0.2146  2.2095
   47CHL1   C10 3443   3.640   0.716   3.402 -0.4775  0.4817 -0.2501
   47CHL1   C19 3444   3.503   0.784   3.389  0.7202 -0.3257 -0.9066
   47CHL1  H19A 3445   3.424   0.719   3.432  0.0246  1.0928  0.0578
   47CHL1  H19B 3446   3.498   0.881   3.444  0.7644 -1.1465  0.6093
   47CHL1  H19C 3447   3.483   0.793   3.280 -0.0674 -1.9820 -0.9304
   47CHL1    C1 3448   3.747   0.787   3.312 -0.0184 -0.2876  0.1381
   47CHL1   H1A 3449   3.735   0.893   3.341  0.3744 -0.2366  0.1199
   47CHL1   H1B 3450   3.848   0.748   3.340  0.9476  0.0218 -2.6512
   47CHL1    C2 3451   3.726   0.770   3.160 -0.3477 -0.2709 -0.3785
   47CHL1   H2A 3452   3.805   0.828   3.108 -0.5930  0.4172  0.0037
   47CHL1   H2B 3453   3.632   0.826   3.138 -0.5075 -0.2403  0.3599
   47CHL1   C20 3454   3.647   0.788   4.107  0.4677 -0.4710 -0.5007
   47CHL1   H20 3455   3.536   0.793   4.110  0.5356  3.1583 -0.3755
   47CHL1   C21 3456   3.699   0.935   4.089  0.3475 -0.2286  0.0383
   47CHL1  H21A 3457   3.805   0.937   4.053  0.5017 -0.7589  0.4373
   47CHL1  H21B 3458   3.698   0.987   4.187 -0.1609 -0.8209  0.3518
   47CHL1  H21C 3459   3.622   0.984   4.026  0.0678  2.2454  2.1710
   47CHL1   C22 3460   3.698   0.732   4.247 -0.2185 -0.5427  0.5891
   47CHL1  H22A 3461   3.708   0.622   4.244 -0.6125 -0.5961  1.0695
   47CHL1  H22B 3462   3.798   0.778   4.256 -0.8002  0.7717  0.6117
   47CHL1   C23 3463   3.620   0.789   4.371  0.7731 -0.7455  0.1074
   47CHL1  H23A 3464   3.631   0.899   4.377 -1.5811 -0.3441 -1.6064
   47CHL1  H23B 3465   3.513   0.774   4.345 -0.2095 -2.1079  4.1314
   47CHL1   C24 3466   3.664   0.733   4.503  0.3773  0.2937 -0.0175
   47CHL1  H24A 3467   3.599   0.772   4.585 -3.9942  0.0393 -3.0185
   47CHL1  H24B 3468   3.662   0.622   4.501 -0.9091  0.3063 -0.2174
   47CHL1   C25 3469   3.805   0.782   4.534 -0.2385  0.0704  0.0583
   47CHL1   H25 3470   3.877   0.749   4.456  1.1744  0.0108  1.3229
   47CHL1   C26 3471   3.818   0.934   4.532 -0.2129 -0.8000 -0.3393
   47CHL1  H26A 3472   3.903   0.974   4.590  1.0867 -2.8183 -0.7714
   47CHL1  H26B 3473   3.826   0.973   4.428 -2.4173  0.4051 -0.1202
   47CHL1  H26C 3474   3.724   0.972   4.577  0.9517  0.7644  0.8836
   47CHL1   C27 3475   3.847   0.725   4.675  0.1848 -0.7742  0.6215
   47CHL1  H27A 3476   3.954   0.750   4.689  0.2438  0.4011 -1.4811
   47CHL1  H27B 3477   3.785   0.760   4.760  1.0447 -1.8019  1.6929
   47CHL1  H27C 3478   3.837   0.615   4.673 -0.4346 -0.7173 -0.4708
   48CHL1    C3 3479   6.658   4.604   2.935  0.2636  0.5865 -0.6310
   48CHL1    H3 3480   6.752   4.660   2.956  0.5030  0.7548 -2.0782
   48CHL1    O3 3481   6.640   4.606   2.797  0.1329  0.3091 -0.1646
   48CHL1   H3' 3482   6.547   4.583   2.790  0.3229 -0.1285 -1.5663
   48CHL1    C4 3483   6.680   4.463   2.988 -0.2910  0.5433  0.1669
   48CHL1   H4A 3484   6.587   4.405   2.972  0.3735 -0.1995 -1.2482
   48CHL1   H4B 3485   6.764   4.410   2.937 -1.2290 -1.0108  0.1910
   48CHL1    C5 3486   6.707   4.466   3.132  0.0321 -0.3358  0.0707
   48CHL1    C6 3487   6.808   4.400   3.188 -0.2796 -0.1457 -0.3512
   48CHL1    H6 3488   6.884   4.349   3.127  2.1279  1.7355  0.8866
   48CHL1    C7 3489   6.833   4.397   3.338  0.2814 -0.2944  0.0686
   48CHL1   H7A 3490   6.847   4.295   3.381  0.9597 -1.1741 -2.0944
   48CHL1   H7B 3491   6.922   4.450   3.378  0.0212  0.5665 -0.4822
   48CHL1    C8 3492   6.703   4.429   3.420  0.6686 -0.4713 -0.1727
   48CHL1    H8 3493   6.638   4.341   3.409  0.4373 -0.8362  3.0016
   48CHL1   C14 3494   6.728   4.445   3.566 -0.3366 -0.2926 -0.5600
   48CHL1   H14 3495   6.809   4.520   3.563 -1.0258  0.4520 -2.3902
   48CHL1   C15 3496   6.798   4.319   3.639 -0.6412 -0.4160 -0.1944
   48CHL1  H15A 3497   6.742   4.228   3.611 -0.3950 -0.4709 -0.5123
   48CHL1  H15B 3498   6.906   4.300   3.620 -0.7852  0.3957 -2.1610
   48CHL1   C16 3499   6.777   4.357   3.788  0.8012 -0.6603 -0.4258
   48CHL1  H16A 3500   6.721   4.273   3.835 -1.9400  0.4559 -1.5303
   48CHL1  H16B 3501   6.870   4.384   3.842 -0.1171 -0.6422  1.1956
   48CHL1   C17 3502   6.684   4.485   3.796 -0.5801 -0.9303  0.3119
   48CHL1   H17 3503   6.745   4.576   3.811 -2.7720  0.6736  0.1179
   48CHL1   C13 3504   6.617   4.505   3.655 -0.1178  0.2264 -0.1260
   48CHL1   C18 3505   6.492   4.411   3.650 -0.2350 -0.4042  0.2283
   48CHL1  H18A 3506   6.416   4.452   3.719 -1.0279  0.0124 -0.8504
   48CHL1  H18B 3507   6.457   4.404   3.544 -0.0037 -1.0161  0.1848
   48CHL1  H18C 3508   6.511   4.307   3.686  1.9880  0.2515  1.0994
   48CHL1   C12 3509   6.585   4.643   3.601  0.1318  0.4404  0.6804
   48CHL1  H12A 3510   6.507   4.698   3.659 -0.1270  0.1248  0.6374
   48CHL1  H12B 3511   6.673   4.710   3.614  1.0855 -0.2611 -1.7789
   48CHL1   C11 3512   6.540   4.633   3.449  0.3430  0.4567 -0.2004
   48CHL1  H11A 3513   6.437   4.592   3.451  0.0758  0.9754  3.4428
   48CHL1  H11B 3514   6.539   4.737   3.409  0.1838  0.3919 -0.3691
   48CHL1    C9 3515   6.651   4.558   3.362  0.2603 -0.0221  0.0715
   48CHL1    H9 3516   6.728   4.638   3.363 -2.1264  2.4266  1.1787
   48CHL1   C10 3517   6.605   4.544   3.215  0.2216 -0.6367 -0.0691
   48CHL1   C19 3518   6.471   4.474   3.211  0.3184  0.0861 -0.0616
   48CHL1  H19A 3519   6.428   4.462   3.109 -0.1506 -0.5866  0.2078
   48CHL1  H19B 3520   6.474   4.373   3.257 -0.8891 -0.3578 -0.9038
   48CHL1  H19C 3521   6.393   4.536   3.259 -2.7132 -2.1285 -1.7567
   48CHL1    C1 3522   6.573   4.683   3.152  0.2188 -0.4209 -0.5188
   48CHL1   H1A 3523   6.489   4.732   3.206  0.5747  0.6459 -0.9172
   48CHL1   H1B 3524   6.668   4.736   3.175  2.0106 -2.4088 -2.8279
   48CHL1    C2 3525   6.544   4.678   3.000  0.4789 -0.4085  0.1835
   48CHL1   H2A 3526   6.542   4.782   2.961 -0.0255 -1.1873 -2.0490
   48CHL1   H2B 3527   6.446   4.634   2.970  0.0699  1.0981 -0.8141
   48CHL1   C20 3528   6.596   4.490   3.931 -0.0504 -0.5173 -0.2827
   48CHL1   H20 3529   6.524   4.408   3.913  0.1914 -0.4040 -1.9973
   48CHL1   C21 3530   6.513   4.626   3.950 -0.1948  0.5287  0.2049
   48CHL1  H21A 3531   6.435   4.625   3.871 -1.6282 -1.6996  1.5488
   48CHL1  H21B 3532   6.579   4.714   3.933 -2.4200  2.6103  1.6212
   48CHL1  H21C 3533   6.463   4.632   4.049  2.1068 -1.9797  1.6491
   48CHL1   C22 3534   6.686   4.452   4.050  0.2401 -0.2149 -0.6089
   48CHL1  H22A 3535   6.623   4.453   4.141  2.1740 -2.1536  0.8720
   48CHL1  H22B 3536   6.723   4.347   4.043  0.8913 -0.0647  0.3956
   48CHL1   C23 3537   6.791   4.561   4.086 -0.3045  0.1489 -0.4541
   48CHL1  H23A 3538   6.856   4.566   3.996  0.2438  1.7581 -0.0021
   48CHL1  H23B 3539   6.734   4.655   4.104 -2.5108 -1.2347  0.1630
   48CHL1   C24 3540   6.884   4.527   4.198 -0.1242  0.2342  0.0173
   48CHL1  H24A 3541   6.828   4.540   4.293 -0.4678 -1.0704  0.0151
   48CHL1  H24B 3542   6.924   4.424   4.183  0.6872  0.5168  0.1906
   48CHL1   C25 3543   6.998   4.631   4.199  0.7157 -0.1841  0.2235
   48CHL1   H25 3544   7.008   4.670   4.095  1.2324 -3.3622 -1.0086
   48CHL1   C26 3545   6.953   4.750   4.287 -0.2655 -0.0595  0.4562
   48CHL1  H26A 3546   6.879   4.812   4.231  0.7794  1.5462  0.7875
   48CHL1  H26B 3547   6.910   4.719   4.385 -1.8283 -0.2893 -0.2628
   48CHL1  H26C 3548   7.045   4.807   4.311  0.7428 -0.4512 -2.2141
   48CHL1   C27 3549   7.129   4.576   4.247 -0.4020 -0.0045 -0.1278
   48CHL1  H27A 3550   7.207   4.654   4.239 -1.3319  0.9760  0.0463
   48CHL1  H27B 3551   7.116   4.544   4.353 -2.3661 -0.7480 -0.5531
   48CHL1  H27C 3552   7.157   4.483   4.193 -0.3900 -0.6107  0.9002
   49CHL1    C3 3553   2.360   5.272   2.685 -0.2704  0.3990 -0.5767
   49CHL1    H3 3554   2.325   5.167   2.676 -2.1129  1.0556 -1.6391
   49CHL1    O3 3555   2.304   5.346   2.578  0.2549 -0.0892 -0.2225
   49CHL1   H3' 3556   2.319   5.297   2.497 -0.1909  0.0974 -0.4219
   49CHL1    C4 3557   2.305   5.335   2.810 -0.4058  0.0084 -0.0638
   49CHL1   H4A 3558   2.330   5.443   2.801  4.2712 -0.9097 -0.2971
   49CHL1   H4B 3559   2.194   5.323   2.803 -0.3377 -1.8494  1.3823
   49CHL1    C5 3560   2.370   5.269   2.933 -0.2033 -0.3531  0.5882
   49CHL1    C6 3561   2.285   5.221   3.031  1.1613  0.0772 -0.1868
   49CHL1    H6 3562   2.176   5.232   3.021  0.8495 -1.0914  1.5258
   49CHL1    C7 3563   2.332   5.162   3.163 -0.8523 -0.1821  0.4996
   49CHL1   H7A 3564   2.283   5.217   3.245 -1.8249  1.8033 -1.3071
   49CHL1   H7B 3565   2.310   5.053   3.169  1.0729 -0.5823  1.0645
   49CHL1    C8 3566   2.480   5.185   3.185 -0.3525  0.7094 -0.7470
   49CHL1    H8 3567   2.493   5.293   3.209  0.9675  0.7475 -1.5445
   49CHL1   C14 3568   2.524   5.092   3.294 -0.4948  1.2363 -0.1749
   49CHL1   H14 3569   2.503   4.986   3.271  0.7751  1.4887 -2.9941
   49CHL1   C15 3570   2.456   5.104   3.435 -0.6290 -0.1157  0.5081
   49CHL1  H15A 3571   2.432   5.211   3.452  1.6136  0.1646  2.2885
   49CHL1  H15B 3572   2.357   5.053   3.430 -0.4175 -0.4368 -1.7323
   49CHL1   C16 3573   2.556   5.043   3.537 -0.3823 -0.0637 -0.1515
   49CHL1  H16A 3574   2.570   5.120   3.615  0.8764 -1.3894  0.9957
   49CHL1  H16B 3575   2.510   4.953   3.582  0.7741 -0.8518 -0.5027
   49CHL1   C17 3576   2.683   5.007   3.449  0.5241  0.6471  0.3036
   49CHL1   H17 3577   2.668   4.903   3.413  1.9347  0.9470 -1.2789
   49CHL1   C13 3578   2.672   5.089   3.314 -0.2243  0.2833  0.1623
   49CHL1   C18 3579   2.720   5.229   3.348  0.8204 -0.7274  0.0317
   49CHL1  H18A 3580   2.677   5.271   3.441  0.9158  2.8068 -1.3840
   49CHL1  H18B 3581   2.831   5.225   3.345  0.7909 -2.0050 -0.2040
   49CHL1  H18C 3582   2.688   5.303   3.272  1.4235 -0.1163  0.3686
   49CHL1   C12 3583   2.735   5.028   3.180 -0.6716 -0.6579 -0.7200
   49CHL1  H12A 3584   2.845   5.018   3.196 -0.8912 -0.8410  0.8070
   49CHL1  H12B 3585   2.696   4.926   3.161 -0.8584 -0.7386  0.0638
   49CHL1   C11 3586   2.714   5.131   3.070 -0.7314  0.1108  0.1743
   49CHL1  H11A 3587   2.777   5.220   3.090  0.8332 -1.1066  0.8979
   49CHL1  H11B 3588   2.761   5.086   2.980  2.7812  1.1228  1.3622
   49CHL1    C9 3589   2.562   5.159   3.055  0.6902 -0.6154 -0.0901
   49CHL1    H9 3590   2.525   5.058   3.025 -2.9480  0.7701 -0.6848
   49CHL1   C10 3591   2.520   5.252   2.936  0.6501 -1.0501  0.2394
   49CHL1   C19 3592   2.573   5.396   2.969 -0.5483  0.7357  0.3609
   49CHL1  H19A 3593   2.684   5.411   2.971 -0.4468  0.1334 -0.4198
   49CHL1  H19B 3594   2.542   5.475   2.897  2.6894  0.7227 -1.2251
   49CHL1  H19C 3595   2.544   5.415   3.074 -1.5072 -0.6398  0.3627
   49CHL1    C1 3596   2.568   5.199   2.796 -0.2447  0.9196 -0.5913
   49CHL1   H1A 3597   2.678   5.191   2.783  0.0748  0.1714  1.9207
   49CHL1   H1B 3598   2.517   5.101   2.782  1.0280 -0.0413  1.0783
   49CHL1    C2 3599   2.518   5.280   2.676 -0.8240 -0.3524 -0.9460
   49CHL1   H2A 3600   2.550   5.239   2.577  0.6338  2.0127 -1.5280
   49CHL1   H2B 3601   2.548   5.387   2.681 -0.4108 -0.5453  1.7145
   49CHL1   C20 3602   2.816   5.009   3.525 -0.5223  0.6568 -0.3697
   49CHL1   H20 3603   2.826   5.117   3.551 -0.0911  1.4969 -3.5652
   49CHL1   C21 3604   2.940   4.965   3.451 -0.1497 -0.7089  0.4992
   49CHL1  H21A 3605   3.035   4.957   3.507  1.2240  0.8695 -1.4418
   49CHL1  H21B 3606   2.961   5.047   3.378 -0.8479  0.1049  1.1822
   49CHL1  H21C 3607   2.918   4.876   3.388 -1.4065  0.1063 -0.2649
   49CHL1   C22 3608   2.811   4.918   3.659  0.3721  0.3357 -0.4094
   49CHL1  H22A 3609   2.720   4.949   3.714  1.2175 -1.2370  2.0251
   49CHL1  H22B 3610   2.812   4.811   3.631  0.4826  0.3692 -0.5338
   49CHL1   C23 3611   2.928   4.938   3.752 -0.8750  0.3447 -0.4979
   49CHL1  H23A 3612   2.963   4.840   3.789  3.2942  1.4778 -0.9342
   49CHL1  H23B 3613   3.016   4.985   3.703  0.8825 -1.3402  0.8945
   49CHL1   C24 3614   2.895   5.027   3.875  0.4392 -0.4398 -0.1592
   49CHL1  H24A 3615   2.857   5.124   3.838 -1.0083 -0.6201  0.7674
   49CHL1  H24B 3616   2.833   4.982   3.955 -0.6799  2.0235  0.4608
   49CHL1   C25 3617   3.024   5.073   3.953 -0.3514 -0.2476  0.0257
   49CHL1   H25 3618   3.089   5.130   3.883  1.2708 -1.3229  0.6203
   49CHL1   C26 3619   2.974   5.169   4.064  0.2596  0.2503 -0.2671
   49CHL1  H26A 3620   3.049   5.189   4.143 -0.3556  1.4679  0.0302
   49CHL1  H26B 3621   2.938   5.266   4.025 -2.7685 -0.9808 -0.8192
   49CHL1  H26C 3622   2.890   5.121   4.120  0.6431 -0.4038 -0.2446
   49CHL1   C27 3623   3.114   4.963   4.011 -0.1597 -0.3168 -0.1631
   49CHL1  H27A 3624   3.139   4.899   3.924 -0.7959  0.3197 -0.8315
   49CHL1  H27B 3625   3.199   5.014   4.061 -1.1498  0.7687  0.4879
   49CHL1  H27C 3626   3.063   4.903   4.091  2.7381 -0.2879  1.8620
   50CHL1    C3 3627   6.778   5.136   2.963  0.2564  1.0540 -0.1745
   50CHL1    H3 3628   6.670   5.135   2.991  0.3821 -2.1551  0.5994
   50CHL1    O3 3629   6.808   5.139   2.830 -0.9370  0.1275  0.3723
   50CHL1   H3' 3630   6.788   5.052   2.795  0.8251 -0.3823  0.5318
   50CHL1    C4 3631   6.842   5.254   3.034 -0.1464  0.1335 -0.5644
   50CHL1   H4A 3632   6.947   5.231   3.006  0.4603  0.7762  1.1225
   50CHL1   H4B 3633   6.814   5.349   2.984 -0.9338 -1.4748 -3.4486
   50CHL1    C5 3634   6.829   5.249   3.182 -0.2227 -0.1846 -0.0243
   50CHL1    C6 3635   6.772   5.351   3.245  0.4326  0.4126  0.5063
   50CHL1    H6 3636   6.732   5.439   3.192  0.3406  0.1486  0.1299
   50CHL1    C7 3637   6.745   5.361   3.396 -0.3315  0.3139  0.5234
   50CHL1   H7A 3638   6.788   5.450   3.447  1.1356  0.4312 -0.8345
   50CHL1   H7B 3639   6.635   5.363   3.408 -0.3281  0.9015  0.4998
   50CHL1    C8 3640   6.813   5.245   3.475  0.4138 -0.6251 -0.1077
   50CHL1    H8 3641   6.919   5.273   3.495  0.2483  1.0515 -1.2921
   50CHL1   C14 3642   6.744   5.229   3.610  0.5218  0.4108 -0.2473
   50CHL1   H14 3643   6.645   5.190   3.580 -0.2099  0.8714  1.4572
   50CHL1   C15 3644   6.726   5.347   3.694  0.6556 -0.6595 -0.2255
   50CHL1  H15A 3645   6.821   5.405   3.695  0.8218 -0.8479  2.4099
   50CHL1  H15B 3646   6.642   5.405   3.648  2.0522  1.0394 -0.7496
   50CHL1   C16 3647   6.697   5.291   3.834  0.7252  0.1451 -0.5080
   50CHL1  H16A 3648   6.752   5.348   3.911  0.4636  0.5216 -0.5955
   50CHL1  H16B 3649   6.593   5.294   3.874  0.7995  0.7894 -0.3493
   50CHL1   C17 3650   6.732   5.141   3.827  0.4917  1.1170  0.3916
   50CHL1   H17 3651   6.635   5.090   3.811 -0.8562  3.4789  0.5460
   50CHL1   C13 3652   6.808   5.124   3.696 -0.4792  0.3968 -0.3565
   50CHL1   C18 3653   6.957   5.152   3.734  0.3326 -0.5943  0.0917
   50CHL1  H18A 3654   6.950   5.246   3.793  0.5729 -1.3338  1.3521
   50CHL1  H18B 3655   6.994   5.064   3.791 -2.1552 -2.7838 -1.4117
   50CHL1  H18C 3656   7.028   5.162   3.649  2.1830  0.7915  1.7208
   50CHL1   C12 3657   6.794   4.994   3.623 -0.2029  0.9406  0.5189
   50CHL1  H12A 3658   6.844   4.905   3.667  0.4531 -0.6657 -3.1694
   50CHL1  H12B 3659   6.686   4.968   3.616 -0.6269  2.6279  0.3013
   50CHL1   C11 3660   6.868   4.999   3.482  0.7482  0.0425 -0.1506
   50CHL1  H11A 3661   6.973   5.025   3.506  1.0419  2.8671 -3.6685
   50CHL1  H11B 3662   6.872   4.899   3.435  3.8428 -0.6628  1.3342
   50CHL1    C9 3663   6.814   5.115   3.395 -0.6434  0.5607  0.1614
   50CHL1    H9 3664   6.704   5.101   3.389 -0.6118 -0.7704  1.9555
   50CHL1   C10 3665   6.873   5.119   3.248 -0.9346 -0.3782 -0.0100
   50CHL1   C19 3666   7.021   5.117   3.260 -0.0264 -0.7747 -1.1511
   50CHL1  H19A 3667   7.082   5.143   3.171  1.9049 -1.7391 -0.1911
   50CHL1  H19B 3668   7.061   5.178   3.344  1.8812 -2.5041 -0.7012
   50CHL1  H19C 3669   7.051   5.012   3.284  0.1151 -0.0039  2.8241
   50CHL1    C1 3670   6.814   5.001   3.163 -0.1784  0.3248  0.7135
   50CHL1   H1A 3671   6.858   4.906   3.203  2.7517  0.9620 -0.6601
   50CHL1   H1B 3672   6.707   4.994   3.192 -0.2841  2.0790  0.8147
   50CHL1    C2 3673   6.835   5.004   3.010 -0.1854 -0.4604 -0.4942
   50CHL1   H2A 3674   6.774   4.918   2.975 -0.0541 -0.3091 -1.0990
   50CHL1   H2B 3675   6.943   4.983   2.994  0.0102 -0.3381  0.5823
   50CHL1   C20 3676   6.774   5.074   3.961 -0.5857  0.3882 -0.2710
   50CHL1   H20 3677   6.874   5.107   3.996 -1.8048  2.1382  1.7813
   50CHL1   C21 3678   6.767   4.920   3.947  0.3629 -0.5645  0.4756
   50CHL1  H21A 3679   6.758   4.881   4.050  3.1466  1.8903  1.8087
   50CHL1  H21B 3680   6.860   4.879   3.901  0.9953  1.0184  0.2767
   50CHL1  H21C 3681   6.677   4.889   3.890 -0.3549 -0.4976  1.5545
   50CHL1   C22 3682   6.688   5.119   4.081  1.3707 -0.4738  1.2636
   50CHL1  H22A 3683   6.672   5.228   4.098  0.3345 -0.5998  1.1720
   50CHL1  H22B 3684   6.589   5.070   4.064  1.7572 -1.0141  0.5173
   50CHL1   C23 3685   6.736   5.074   4.223 -0.0619 -0.3175  0.3177
   50CHL1  H23A 3686   6.712   4.966   4.233  2.5590 -0.8302  2.1162
   50CHL1  H23B 3687   6.846   5.088   4.232  0.0213  1.6433 -2.4784
   50CHL1   C24 3688   6.677   5.144   4.348  0.4193  0.3708  0.6126
   50CHL1  H24A 3689   6.567   5.130   4.344  0.4420  0.3689 -1.6256
   50CHL1  H24B 3690   6.714   5.088   4.437 -0.8544  0.6044  1.3171
   50CHL1   C25 3691   6.721   5.287   4.381  0.0121  0.5769 -0.4508
   50CHL1   H25 3692   6.709   5.346   4.288  1.1718  0.9082 -0.4026
   50CHL1   C26 3693   6.627   5.359   4.481  1.1483 -0.0862 -0.2836
   50CHL1  H26A 3694   6.525   5.361   4.437  1.6061  0.2711 -1.3582
   50CHL1  H26B 3695   6.619   5.302   4.576 -0.5623 -0.6345 -0.7299
   50CHL1  H26C 3696   6.654   5.467   4.486  0.4304  0.1545 -1.2453
   50CHL1   C27 3697   6.865   5.283   4.423  0.4102 -0.5876  0.1259
   50CHL1  H27A 3698   6.872   5.229   4.520 -2.7129 -2.0037 -0.3232
   50CHL1  H27B 3699   6.932   5.225   4.358  0.0129  0.6760 -1.4757
   50CHL1  H27C 3700   6.906   5.386   4.436 -0.5298 -0.1902  0.0857
   51CHL1    C3 3701   3.444   3.270   3.021  0.2468  0.0398 -0.2136
   51CHL1    H3 3702   3.547   3.274   3.063 -0.4474 -0.1661  1.6140
   51CHL1    O3 3703   3.447   3.277   2.878 -0.4511  0.4753  0.7390
   51CHL1   H3' 3704   3.481   3.365   2.860  0.0831  0.5421  1.9967
   51CHL1    C4 3705   3.372   3.151   3.070  0.3290  0.3095  0.1277
   51CHL1   H4A 3706   3.274   3.159   3.017  0.5921 -1.9490 -0.8053
   51CHL1   H4B 3707   3.412   3.054   3.034  1.8924  0.9276  0.1183
   51CHL1    C5 3708   3.360   3.157   3.221  0.1994  1.2881 -0.1693
   51CHL1    C6 3709   3.421   3.062   3.294 -0.3243 -0.2273  0.1816
   51CHL1    H6 3710   3.474   2.984   3.237 -1.5964  0.3562 -1.9347
   51CHL1    C7 3711   3.416   3.065   3.443  0.3026 -0.2392 -0.0838
   51CHL1   H7A 3712   3.408   2.960   3.476  2.2759 -0.8274 -1.2840
   51CHL1   H7B 3713   3.512   3.101   3.486 -0.5205  0.1993  1.4739
   51CHL1    C8 3714   3.294   3.142   3.502  0.7138  0.0546  1.1538
   51CHL1    H8 3715   3.207   3.090   3.455  1.2147  0.9455 -0.8882
   51CHL1   C14 3716   3.295   3.147   3.654  0.2293  0.0439 -0.4602
   51CHL1   H14 3717   3.370   3.224   3.685  0.4162  0.3258 -1.5612
   51CHL1   C15 3718   3.316   3.012   3.724  0.7560 -0.1688  0.6040
   51CHL1  H15A 3719   3.245   2.939   3.680  1.2959  0.0303 -0.6543
   51CHL1  H15B 3720   3.418   2.970   3.712  0.5558 -0.7594  0.9449
   51CHL1   C16 3721   3.282   3.040   3.870 -0.1934  0.5937  0.1963
   51CHL1  H16A 3722   3.237   2.952   3.920 -1.2101  1.8354  1.5414
   51CHL1  H16B 3723   3.367   3.079   3.930  1.5772 -0.6296 -1.3941
   51CHL1   C17 3724   3.183   3.162   3.866 -0.0656 -0.3984 -0.2576
   51CHL1   H17 3725   3.243   3.247   3.903  1.6326 -1.7247  0.1535
   51CHL1   C13 3726   3.166   3.202   3.716  0.5056  0.0641 -0.2695
   51CHL1   C18 3727   3.042   3.126   3.665  0.1222  0.2583  1.0162
   51CHL1  H18A 3728   3.029   3.114   3.555 -0.6409 -0.2218  1.1499
   51CHL1  H18B 3729   3.056   3.024   3.708 -0.8868 -1.2124 -1.8884
   51CHL1  H18C 3730   2.944   3.162   3.701 -0.3152  0.1639 -0.0379
   51CHL1   C12 3731   3.163   3.352   3.669 -0.1136  0.4894 -0.4516
   51CHL1  H12A 3732   3.067   3.400   3.699  1.0186  1.3349  2.0350
   51CHL1  H12B 3733   3.248   3.409   3.711  0.1545  0.1961 -0.5868
   51CHL1   C11 3734   3.168   3.359   3.517  0.0083  0.0602 -0.8461
   51CHL1  H11A 3735   3.070   3.319   3.482  1.2372 -2.9455 -1.1364
   51CHL1  H11B 3736   3.181   3.464   3.483  3.4779 -0.5382 -1.7312
   51CHL1    C9 3737   3.293   3.280   3.445  0.9430 -0.4459  0.3167
   51CHL1    H9 3738   3.385   3.337   3.469 -0.0219  2.1954 -1.7188
   51CHL1   C10 3739   3.279   3.273   3.290 -0.1011  0.4191  0.3543
   51CHL1   C19 3740   3.129   3.258   3.248  0.2014  0.0197  0.5726
   51CHL1  H19A 3741   3.069   3.352   3.257  1.6604  0.8680  1.9737
   51CHL1  H19B 3742   3.126   3.227   3.142  1.4384 -0.2754  0.6187
   51CHL1  H19C 3743   3.082   3.171   3.298 -1.6595 -0.3139 -1.5723
   51CHL1    C1 3744   3.346   3.394   3.231 -0.0226 -0.4487 -0.1072
   51CHL1   H1A 3745   3.285   3.484   3.254  0.0300 -0.3778 -0.2450
   51CHL1   H1B 3746   3.447   3.402   3.277 -0.4650  1.2606  0.6345
   51CHL1    C2 3747   3.363   3.390   3.078  0.8232  0.1298  0.5150
   51CHL1   H2A 3748   3.419   3.480   3.047  0.0893  0.3580 -0.1738
   51CHL1   H2B 3749   3.270   3.407   3.021  1.1592  1.3018  0.2904
   51CHL1   C20 3750   3.066   3.144   3.960 -0.5175  0.9500 -0.9988
   51CHL1   H20 3751   2.995   3.065   3.928 -0.1371  0.0967  0.1799
   51CHL1   C21 3752   2.990   3.280   3.961  0.0210  0.1481 -0.5501
   51CHL1  H21A 3753   3.055   3.353   4.014 -0.3076  0.4688 -0.5785
   51CHL1  H21B 3754   2.892   3.252   4.007 -0.1122 -0.2800 -1.0893
   51CHL1  H21C 3755   2.976   3.320   3.859  2.0403  1.9917 -0.1788
   51CHL1   C22 3756   3.109   3.111   4.105 -0.0300 -0.2032  0.4186
   51CHL1  H22A 3757   3.170   3.018   4.104  0.7630  0.3007  1.0421
   51CHL1  H22B 3758   3.174   3.192   4.144  1.2229  0.3882 -2.6410
   51CHL1   C23 3759   2.996   3.091   4.201  0.2068  0.0035 -1.1285
   51CHL1  H23A 3760   2.945   3.185   4.231  0.7424 -0.5279  1.7178
   51CHL1  H23B 3761   2.934   3.011   4.156 -0.0183 -0.0025 -0.8127
   51CHL1   C24 3762   3.043   3.035   4.337  0.4560  0.5199  0.1501
   51CHL1  H24A 3763   3.098   2.939   4.330 -0.1196 -0.1523  3.4068
   51CHL1  H24B 3764   3.124   3.108   4.355  1.6311 -0.3772 -1.2673
   51CHL1   C25 3765   2.938   3.024   4.445  0.1789 -0.0278  0.3548
   51CHL1   H25 3766   2.989   3.016   4.544  0.2844 -0.0940  0.2947
   51CHL1   C26 3767   2.846   3.144   4.469  0.1451 -0.2191  0.2624
   51CHL1  H26A 3768   2.794   3.174   4.375  0.9790 -0.5862 -0.3208
   51CHL1  H26B 3769   2.761   3.121   4.537  1.4983 -0.6434  1.8583
   51CHL1  H26C 3770   2.902   3.235   4.499 -1.9207  1.8887 -1.8289
   51CHL1   C27 3771   2.847   2.900   4.434  0.5178 -0.2763 -0.0699
   51CHL1  H27A 3772   2.904   2.809   4.404  3.3786  1.6706 -0.9738
   51CHL1  H27B 3773   2.788   2.880   4.525  0.4362 -0.9828 -0.2761
   51CHL1  H27C 3774   2.775   2.932   4.355 -1.4493  2.6552  2.6692
   52CHL1    C3 3775   6.445   0.437   2.660 -0.1620  0.6443 -0.0190
   52CHL1    H3 3776   6.556   0.441   2.651 -0.2198 -0.4093 -1.6112
   52CHL1    O3 3777   6.407   0.436   2.527  0.1506 -0.0729  0.3255
   52CHL1   H3' 3778   6.418   0.346   2.496  0.9080  0.4448 -0.9582
   52CHL1    C4 3779   6.403   0.303   2.726 -0.6640 -1.0728 -0.1368
   52CHL1   H4A 3780   6.293   0.289   2.724 -0.8799 -0.7220  3.0706
   52CHL1   H4B 3781   6.444   0.209   2.683  0.1546 -1.8744  2.2017
   52CHL1    C5 3782   6.435   0.303   2.881  0.1138 -0.4528  0.9487
   52CHL1    C6 3783   6.509   0.205   2.930  0.0785  0.5438 -0.8041
   52CHL1    H6 3784   6.551   0.129   2.863  1.0903 -0.3232  0.7541
   52CHL1    C7 3785   6.553   0.192   3.071  0.2610  0.3443  0.3189
   52CHL1   H7A 3786   6.548   0.082   3.087  0.0593  0.1175 -1.1445
   52CHL1   H7B 3787   6.659   0.220   3.090  0.7860 -1.1348 -0.2836
   52CHL1    C8 3788   6.453   0.274   3.158  0.0162 -0.5063  0.0807
   52CHL1    H8 3789   6.353   0.228   3.170 -0.7006  0.3422 -2.1327
   52CHL1   C14 3790   6.505   0.256   3.305 -0.0258  0.5786  0.0798
   52CHL1   H14 3791   6.613   0.284   3.304  0.5834 -1.5845 -2.2083
   52CHL1   C15 3792   6.523   0.115   3.361  0.1965  0.7695  0.4627
   52CHL1  H15A 3793   6.456   0.039   3.315  1.6435  1.0263 -2.2623
   52CHL1  H15B 3794   6.623   0.078   3.329  0.7332  0.3793  2.4395
   52CHL1   C16 3795   6.513   0.129   3.514 -0.0614  0.6729 -0.1743
   52CHL1  H16A 3796   6.415   0.090   3.548 -0.4806  1.8604  0.0149
   52CHL1  H16B 3797   6.583   0.080   3.584 -1.6511  1.2910  1.9363
   52CHL1   C17 3798   6.492   0.289   3.543  0.0403 -0.2249 -0.3958
   52CHL1   H17 3799   6.596   0.328   3.534 -1.0033  3.2605  0.7683
   52CHL1   C13 3800   6.432   0.340   3.404  0.7468 -0.5012 -0.3532
   52CHL1   C18 3801   6.279   0.310   3.403  1.1197 -0.0071 -0.0252
   52CHL1  H18A 3802   6.239   0.340   3.304  0.7022  2.5487  0.8379
   52CHL1  H18B 3803   6.244   0.207   3.420  2.2632 -0.3920  0.1104
   52CHL1  H18C 3804   6.231   0.375   3.479  0.1481  0.1200 -0.7324
   52CHL1   C12 3805   6.460   0.485   3.359 -0.2703 -0.1962 -0.1402
   52CHL1  H12A 3806   6.422   0.564   3.427  2.1936  1.6300 -0.7590
   52CHL1  H12B 3807   6.569   0.498   3.344  0.1623 -0.5814  2.2711
   52CHL1   C11 3808   6.397   0.521   3.224 -0.5380  0.2398  0.1462
   52CHL1  H11A 3809   6.287   0.516   3.240 -0.2490 -1.1948  1.9790
   52CHL1  H11B 3810   6.428   0.624   3.198  1.8951 -0.3043  0.7157
   52CHL1    C9 3811   6.449   0.417   3.111 -0.4069  0.6422 -0.0926
   52CHL1    H9 3812   6.557   0.434   3.092 -0.3276 -0.5738 -0.8528
   52CHL1   C10 3813   6.388   0.426   2.969  1.0374 -0.1811  0.7081
   52CHL1   C19 3814   6.230   0.420   2.979 -0.0268 -0.3839  0.3179
   52CHL1  H19A 3815   6.197   0.321   3.019  1.0704 -0.9009 -0.0285
   52CHL1  H19B 3816   6.184   0.497   3.044  0.0280  0.7693 -0.9546
   52CHL1  H19C 3817   6.187   0.442   2.879  0.3420  1.3604  0.5270
   52CHL1    C1 3818   6.432   0.558   2.885 -0.5032  0.1283  0.3743
   52CHL1   H1A 3819   6.390   0.647   2.937 -1.0571 -0.5642  1.1384
   52CHL1   H1B 3820   6.543   0.563   2.887 -0.2969 -2.5300 -0.6542
   52CHL1    C2 3821   6.394   0.560   2.732  0.4525 -0.0543  0.2411
   52CHL1   H2A 3822   6.447   0.652   2.699  1.6438 -0.9064 -0.2784
   52CHL1   H2B 3823   6.284   0.574   2.725  0.2373 -0.4260  2.0979
   52CHL1   C20 3824   6.430   0.321   3.677 -0.2636 -0.0775  0.7096
   52CHL1   H20 3825   6.326   0.283   3.675 -0.0957 -0.5305 -1.5892
   52CHL1   C21 3826   6.418   0.474   3.684  0.0282 -0.4446  0.4515
   52CHL1  H21A 3827   6.336   0.508   3.617  0.9427 -1.3395 -1.1950
   52CHL1  H21B 3828   6.515   0.524   3.667 -0.8067  1.5972  1.4231
   52CHL1  H21C 3829   6.390   0.504   3.788  1.7702  1.7311  0.3535
   52CHL1   C22 3830   6.503   0.256   3.800  0.3368  0.0346  0.0360
   52CHL1  H22A 3831   6.485   0.146   3.798 -1.5430  0.3107 -0.7371
   52CHL1  H22B 3832   6.612   0.276   3.798  0.5220  0.0884  3.7964
   52CHL1   C23 3833   6.450   0.304   3.936 -0.4093 -0.5511  0.3693
   52CHL1  H23A 3834   6.468   0.412   3.953 -2.8989  0.1601 -1.0209
   52CHL1  H23B 3835   6.342   0.283   3.947 -0.7457  0.3851 -0.9305
   52CHL1   C24 3836   6.537   0.245   4.050 -0.0703 -0.4545 -0.0494
   52CHL1  H24A 3837   6.547   0.137   4.027  0.4024  0.0218 -2.3608
   52CHL1  H24B 3838   6.641   0.284   4.045 -0.4057  0.5037  0.2296
   52CHL1   C25 3839   6.479   0.247   4.189  0.0085 -0.0843  0.7297
   52CHL1   H25 3840   6.393   0.177   4.178  0.6459 -0.5504 -1.9564
   52CHL1   C26 3841   6.580   0.188   4.291 -0.0001  0.4521 -0.4514
   52CHL1  H26A 3842   6.542   0.189   4.396  2.0407 -0.3445  0.3470
   52CHL1  H26B 3843   6.600   0.083   4.261  0.6568  1.3239 -3.3142
   52CHL1  H26C 3844   6.678   0.240   4.295  0.5957 -0.6290  3.4402
   52CHL1   C27 3845   6.420   0.387   4.235  0.6788  1.0620  0.1639
   52CHL1  H27A 3846   6.375   0.394   4.337  1.5006  3.7387  0.4361
   52CHL1  H27B 3847   6.506   0.457   4.241 -0.2499  2.1277  2.0636
   52CHL1  H27C 3848   6.348   0.418   4.157 -1.2924 -1.9655  0.6305
   53CHL1    C3 3849   3.714   5.721   2.805  0.1546 -0.0146  0.3511
   53CHL1    H3 3850   3.806   5.783   2.813  1.9731 -2.5949  0.6542
   53CHL1    O3 3851   3.664   5.726   2.674  0.2455  0.1359  0.4280
   53CHL1   H3' 3852   3.625   5.640   2.659  0.4512  0.4461 -2.4729
   53CHL1    C4 3853   3.753   5.580   2.852  0.2556 -0.5369 -0.2971
   53CHL1   H4A 3854   3.668   5.512   2.829  0.2309 -0.9289  0.9035
   53CHL1   H4B 3855   3.846   5.545   2.803  1.8162  0.9423  1.4450
   53CHL1    C5 3856   3.789   5.586   2.997  0.4383  0.1526 -0.3660
   53CHL1    C6 3857   3.907   5.551   3.047  0.2380 -0.0297  0.3396
   53CHL1    H6 3858   3.977   5.507   2.975 -0.5155 -2.1514  0.8283
   53CHL1    C7 3859   3.937   5.548   3.199 -0.2641  0.1941  0.1945
   53CHL1   H7A 3860   3.997   5.460   3.231  0.1987  0.1363 -0.8052
   53CHL1   H7B 3861   3.996   5.638   3.227  0.5404  0.0767 -1.0773
   53CHL1    C8 3862   3.811   5.545   3.295  0.3710  0.4444 -0.2977
   53CHL1    H8 3863   3.761   5.447   3.287  0.8047  0.2446 -0.6358
   53CHL1   C14 3864   3.855   5.571   3.442  0.6075  0.0820 -0.0678
   53CHL1   H14 3865   3.925   5.657   3.439  0.8141 -0.0723  0.2929
   53CHL1   C15 3866   3.950   5.478   3.511 -0.2858 -0.3762  0.2740
   53CHL1  H15A 3867   3.910   5.374   3.512  2.0518 -1.4315 -2.1237
   53CHL1  H15B 3868   4.051   5.477   3.465 -0.3124 -0.8816  0.2177
   53CHL1   C16 3869   3.951   5.532   3.657  0.1676  0.1556  0.2169
   53CHL1  H16A 3870   3.944   5.449   3.731  0.6004  0.3332  0.4613
   53CHL1  H16B 3871   4.038   5.599   3.673  0.6571 -0.7484  1.4666
   53CHL1   C17 3872   3.824   5.624   3.669  0.5504 -0.9441 -0.5711
   53CHL1   H17 3873   3.864   5.727   3.661 -1.1268 -0.1299  0.9829
   53CHL1   C13 3874   3.744   5.603   3.541  0.2349 -0.3808 -0.1669
   53CHL1   C18 3875   3.642   5.482   3.552 -0.5430 -0.9936 -0.0410
   53CHL1  H18A 3876   3.604   5.446   3.453  1.0333 -1.7583 -0.4071
   53CHL1  H18B 3877   3.695   5.394   3.595 -0.7971  0.2427  3.0415
   53CHL1  H18C 3878   3.561   5.494   3.627 -1.4051 -2.4730 -0.6803
   53CHL1   C12 3879   3.669   5.722   3.485  0.2910  0.1239  0.4756
   53CHL1  H12A 3880   3.590   5.756   3.556  1.3245  0.1367  1.6549
   53CHL1  H12B 3881   3.740   5.806   3.469  1.3628 -0.4029  2.1369
   53CHL1   C11 3882   3.609   5.701   3.342  0.0269  0.2363  0.3163
   53CHL1  H11A 3883   3.525   5.629   3.353 -2.1316  2.7013  1.0002
   53CHL1  H11B 3884   3.557   5.793   3.309  0.5342  0.4016 -0.0271
   53CHL1    C9 3885   3.724   5.659   3.242  0.0090 -0.2892  0.1319
   53CHL1    H9 3886   3.795   5.744   3.237 -0.2462 -0.1268 -1.1488
   53CHL1   C10 3887   3.679   5.648   3.095  0.0670  0.3724  0.3330
   53CHL1   C19 3888   3.554   5.551   3.097  0.1735 -0.1158 -0.3317
   53CHL1  H19A 3889   3.587   5.459   3.149  2.3466  0.8964  0.2154
   53CHL1  H19B 3890   3.469   5.600   3.149 -0.7209 -4.0515  2.3289
   53CHL1  H19C 3891   3.509   5.533   2.998 -1.9391  0.3453  0.5013
   53CHL1    C1 3892   3.636   5.786   3.042 -0.7468  0.3050  0.1338
   53CHL1   H1A 3893   3.552   5.827   3.103 -0.0779 -0.3900  1.5767
   53CHL1   H1B 3894   3.714   5.864   3.057 -1.5984  1.4460 -1.1034
   53CHL1    C2 3895   3.600   5.777   2.894  0.4666  0.0324 -0.6488
   53CHL1   H2A 3896   3.585   5.879   2.853  0.0494 -0.7963 -2.7062
   53CHL1   H2B 3897   3.510   5.714   2.879  1.7512 -2.3278  0.8344
   53CHL1   C20 3898   3.752   5.599   3.803  0.1637 -0.3862  0.1228
   53CHL1   H20 3899   3.718   5.493   3.799  1.1513 -0.6681 -1.6876
   53CHL1   C21 3900   3.623   5.691   3.823 -0.3225  0.6118  1.0743
   53CHL1  H21A 3901   3.588   5.700   3.928 -0.2424 -0.2277  1.1762
   53CHL1  H21B 3902   3.536   5.653   3.764 -0.0950 -1.0525  1.7634
   53CHL1  H21C 3903   3.645   5.796   3.794  0.4900  0.2295  0.2696
   53CHL1   C22 3904   3.846   5.620   3.922 -0.0434  0.2839 -1.0729
   53CHL1  H22A 3905   3.950   5.584   3.905 -0.3250 -1.0897 -0.0972
   53CHL1  H22B 3906   3.860   5.729   3.934  0.1298  0.2831 -1.2515
   53CHL1   C23 3907   3.799   5.567   4.060  0.0767 -0.0062  0.2062
   53CHL1  H23A 3908   3.700   5.611   4.086  0.8636  1.5768  0.6050
   53CHL1  H23B 3909   3.786   5.457   4.043  2.5722 -0.2240 -0.5892
   53CHL1   C24 3910   3.913   5.578   4.158  0.7015 -0.3944 -0.1289
   53CHL1  H24A 3911   4.008   5.536   4.120  0.3692 -1.4128  0.1225
   53CHL1  H24B 3912   3.924   5.687   4.177 -0.6615  0.1733 -2.2654
   53CHL1   C25 3913   3.887   5.498   4.284  0.0884 -0.3352 -0.4089
   53CHL1   H25 3914   3.852   5.395   4.262  0.9843 -0.7264 -0.0302
   53CHL1   C26 3915   4.009   5.492   4.371 -0.6015 -0.0654  0.3684
   53CHL1  H26A 3916   4.045   5.592   4.404  0.2849 -0.1059 -0.4177
   53CHL1  H26B 3917   3.988   5.426   4.458  0.3226 -0.2540  0.4619
   53CHL1  H26C 3918   4.091   5.438   4.319  0.7202  0.7746  1.4926
   53CHL1   C27 3919   3.770   5.560   4.358 -0.4847  0.1741  0.1526
   53CHL1  H27A 3920   3.787   5.666   4.387 -1.3377  0.0711  1.0534
   53CHL1  H27B 3921   3.677   5.558   4.298  0.0876 -2.2430 -0.8038
   53CHL1  H27C 3922   3.742   5.507   4.451 -1.8366 -0.8972 -0.8278
   54CHL1    C3 3923   2.264   3.596   2.634  0.6647  0.4518  0.1634
   54CHL1    H3 3924   2.190   3.678   2.648 -2.2246 -2.0245  0.5682
   54CHL1    O3 3925   2.284   3.561   2.495  0.2432  0.2745  0.1756
   54CHL1   H3' 3926   2.196   3.551   2.458  0.6286  0.5704 -0.8730
   54CHL1    C4 3927   2.398   3.655   2.692 -0.5393 -0.3638 -0.0495
   54CHL1   H4A 3928   2.485   3.595   2.659 -0.9604 -1.6634  1.1340
   54CHL1   H4B 3929   2.418   3.746   2.631 -1.1487 -0.6371 -0.6614
   54CHL1    C5 3930   2.401   3.689   2.837  0.3459 -0.3523  0.2403
   54CHL1    C6 3931   2.424   3.813   2.886  0.4039  0.4212 -0.4434
   54CHL1    H6 3932   2.452   3.892   2.814  2.5103 -0.3119 -0.5040
   54CHL1    C7 3933   2.420   3.854   3.029  0.4594 -0.2290  0.9498
   54CHL1   H7A 3934   2.506   3.916   3.063  0.6876 -1.3967  2.6455
   54CHL1   H7B 3935   2.328   3.915   3.036 -0.2014 -0.9278 -1.0001
   54CHL1    C8 3936   2.412   3.736   3.130 -0.1527 -0.5094 -0.6719
   54CHL1    H8 3937   2.514   3.697   3.150  0.3523  1.1732  0.2243
   54CHL1   C14 3938   2.367   3.782   3.267 -0.2351  0.1980 -0.2647
   54CHL1   H14 3939   2.264   3.821   3.259 -0.7319 -0.5504  1.9716
   54CHL1   C15 3940   2.442   3.891   3.353  0.6428 -0.2855 -0.0819
   54CHL1  H15A 3941   2.552   3.877   3.351  0.7007  0.2774 -2.1458
   54CHL1  H15B 3942   2.411   3.994   3.325 -1.2370 -0.6466  0.5597
   54CHL1   C16 3943   2.387   3.874   3.491 -0.2759 -0.2411  0.1788
   54CHL1  H16A 3944   2.475   3.863   3.557 -0.0894  1.9134  0.3413
   54CHL1  H16B 3945   2.335   3.963   3.532  0.9691  0.2833  0.6352
   54CHL1   C17 3946   2.287   3.749   3.489 -0.0606  0.4744  0.1388
   54CHL1   H17 3947   2.180   3.772   3.470 -0.4518 -0.5172  1.0514
   54CHL1   C13 3948   2.340   3.669   3.364 -0.7643  0.0036 -0.2080
   54CHL1   C18 3949   2.471   3.601   3.406  0.1938  0.2249 -0.4848
   54CHL1  H18A 3950   2.511   3.551   3.316 -1.6749 -1.5465 -0.4092
   54CHL1  H18B 3951   2.552   3.668   3.442  0.2741 -1.2032  2.2109
   54CHL1  H18C 3952   2.454   3.522   3.482 -1.4214  3.0567  2.3352
   54CHL1   C12 3953   2.240   3.569   3.298 -0.0226 -0.0053  0.1749
   54CHL1  H12A 3954   2.209   3.484   3.362  1.3082  1.3600  2.7574
   54CHL1  H12B 3955   2.156   3.639   3.275 -0.7138 -0.9943 -0.3906
   54CHL1   C11 3956   2.295   3.502   3.166 -0.7163 -0.4233 -0.7474
   54CHL1  H11A 3957   2.381   3.437   3.191 -1.2626 -1.4895 -1.5632
   54CHL1  H11B 3958   2.220   3.435   3.118  0.0185 -1.4911 -0.4449
   54CHL1    C9 3959   2.326   3.618   3.069 -0.0390  0.0505  0.1622
   54CHL1    H9 3960   2.230   3.669   3.049  0.3902  0.3316 -1.2902
   54CHL1   C10 3961   2.362   3.574   2.926  0.1956 -0.1497  0.2560
   54CHL1   C19 3962   2.468   3.462   2.942  0.6428 -0.0087  0.9638
   54CHL1  H19A 3963   2.495   3.432   2.838  1.8640  1.3819  0.8461
   54CHL1  H19B 3964   2.560   3.485   3.000  2.0828 -2.2774 -0.2683
   54CHL1  H19C 3965   2.414   3.375   2.985 -1.1023  0.4658 -0.1382
   54CHL1    C1 3966   2.236   3.505   2.862 -0.1471  0.0608 -0.0228
   54CHL1   H1A 3967   2.203   3.414   2.917 -0.6138  0.4558  0.3621
   54CHL1   H1B 3968   2.161   3.586   2.875  1.6346  1.4735  2.2359
   54CHL1    C2 3969   2.233   3.472   2.718  0.5829  0.0704  0.9536
   54CHL1   H2A 3970   2.134   3.426   2.699  1.7150 -1.6292 -1.3535
   54CHL1   H2B 3971   2.314   3.403   2.687  1.2412  1.1831  0.1307
   54CHL1   C20 3972   2.300   3.680   3.617  0.2794  0.1439 -0.3637
   54CHL1   H20 3973   2.402   3.640   3.639 -0.0184 -0.3224  0.1881
   54CHL1   C21 3974   2.202   3.565   3.618  0.1537  0.2968 -0.4472
   54CHL1  H21A 3975   2.205   3.510   3.715  0.8308  0.3554 -0.4285
   54CHL1  H21B 3976   2.236   3.481   3.553 -0.1021 -1.2115  1.2822
   54CHL1  H21C 3977   2.098   3.597   3.598  0.8389  1.9312 -1.6255
   54CHL1   C22 3978   2.272   3.775   3.738  0.1177 -0.4028  0.2864
   54CHL1  H22A 3979   2.310   3.878   3.723 -0.4796 -0.5594 -3.0869
   54CHL1  H22B 3980   2.163   3.784   3.755  0.4324  1.9318  1.5544
   54CHL1   C23 3981   2.340   3.721   3.869 -0.4579  0.4219 -0.0754
   54CHL1  H23A 3982   2.325   3.611   3.877 -2.7638  0.3963 -3.0323
   54CHL1  H23B 3983   2.449   3.739   3.857 -0.4399  0.1972 -0.2633
   54CHL1   C24 3984   2.279   3.787   3.988  0.7907 -0.3910  0.0564
   54CHL1  H24A 3985   2.319   3.890   3.997  1.2328 -0.3803 -1.6206
   54CHL1  H24B 3986   2.168   3.792   3.981  0.8591  2.9003 -0.1999
   54CHL1   C25 3987   2.319   3.719   4.125 -0.4678  0.5669  0.4377
   54CHL1   H25 3988   2.307   3.613   4.096 -0.4742 -0.3085  3.2888
   54CHL1   C26 3989   2.464   3.742   4.160 -0.7127 -0.3755 -0.2555
   54CHL1  H26A 3990   2.541   3.723   4.082  0.5721 -0.9026  1.0988
   54CHL1  H26B 3991   2.484   3.848   4.185 -0.1633 -0.6521  0.5265
   54CHL1  H26C 3992   2.502   3.673   4.239  1.0919  0.9921  0.1299
   54CHL1   C27 3993   2.229   3.768   4.239 -0.0767 -0.2357  0.5095
   54CHL1  H27A 3994   2.120   3.751   4.227 -0.1326  0.2700  0.2441
   54CHL1  H27B 3995   2.254   3.717   4.335  2.2190  2.2653  1.3899
   54CHL1  H27C 3996   2.259   3.873   4.262  1.2132 -0.6101  0.6509
   55CHL1    C3 3997   6.848   6.426   2.774 -0.5110  0.2735  0.0551
   55CHL1    H3 3998   6.909   6.513   2.808  0.2074 -0.3932  0.5238
   55CHL1    O3 3999   6.837   6.436   2.628  0.2615  0.1197  0.0910
   55CHL1   H3' 4000   6.743   6.443   2.608  0.5577 -0.6486 -1.7431
   55CHL1    C4 4001   6.924   6.296   2.815  0.2096 -0.1545 -0.1701
   55CHL1   H4A 4002   6.869   6.203   2.789 -0.1420  0.1889 -0.6822
   55CHL1   H4B 4003   7.023   6.297   2.764  0.4421  3.4694  0.1011
   55CHL1    C5 4004   6.940   6.308   2.965 -0.2710  0.2102  0.4669
   55CHL1    C6 4005   7.059   6.323   3.025  0.4318 -0.0929  0.4660
   55CHL1    H6 4006   7.151   6.340   2.968 -0.3957 -0.2648 -0.9487
   55CHL1    C7 4007   7.079   6.324   3.177 -0.1194 -0.0662  0.6696
   55CHL1   H7A 4008   7.162   6.268   3.225  0.5908  0.8759  0.5644
   55CHL1   H7B 4009   7.093   6.431   3.203 -2.4403 -0.0893  2.3458
   55CHL1    C8 4010   6.953   6.283   3.263  0.0119 -0.0794  0.1339
   55CHL1    H8 4011   6.929   6.174   3.264 -1.2815  0.1798  1.8022
   55CHL1   C14 4012   6.963   6.321   3.407  0.2027  0.0775 -0.7204
   55CHL1   H14 4013   6.971   6.432   3.403 -0.8867  0.1670 -0.8596
   55CHL1   C15 4014   7.083   6.256   3.486  0.0878 -0.6322 -0.0223
   55CHL1  H15A 4015   7.088   6.150   3.453  2.5303 -0.4001 -0.5929
   55CHL1  H15B 4016   7.181   6.299   3.458 -1.3401  1.8918 -1.5329
   55CHL1   C16 4017   7.047   6.281   3.635 -0.0469  0.1963  0.6530
   55CHL1  H16A 4018   7.048   6.180   3.681 -0.2767 -1.0538 -1.9038
   55CHL1  H16B 4019   7.115   6.351   3.687  0.3747  0.7363 -0.5797
   55CHL1   C17 4020   6.897   6.338   3.640 -0.2194  0.6049 -0.4844
   55CHL1   H17 4021   6.893   6.448   3.630  1.0296  0.7049 -0.0968
   55CHL1   C13 4022   6.841   6.299   3.502  0.1284  0.0495  0.6312
   55CHL1   C18 4023   6.811   6.142   3.511  0.2342  0.2453 -0.0233
   55CHL1  H18A 4024   6.904   6.086   3.537  0.9514  1.3228 -0.2077
   55CHL1  H18B 4025   6.729   6.128   3.585  0.6719  0.6690  0.5510
   55CHL1  H18C 4026   6.782   6.110   3.409  1.4751 -1.0453 -0.0083
   55CHL1   C12 4027   6.722   6.372   3.436  0.5493 -0.6720 -0.0068
   55CHL1  H12A 4028   6.628   6.347   3.490 -0.2704 -1.8719 -1.8885
   55CHL1  H12B 4029   6.738   6.482   3.442 -0.1934 -0.4930 -1.0641
   55CHL1   C11 4030   6.703   6.338   3.291 -0.2362  0.2020  0.4869
   55CHL1  H11A 4031   6.659   6.236   3.290 -1.3015  0.5587 -2.6402
   55CHL1  H11B 4032   6.631   6.413   3.253  1.3881  2.8236  2.2828
   55CHL1    C9 4033   6.833   6.353   3.204  0.9188 -0.4897  0.9601
   55CHL1    H9 4034   6.850   6.463   3.207 -0.0882 -0.2528 -0.6695
   55CHL1   C10 4035   6.811   6.316   3.050 -0.1950 -0.7025 -0.1931
   55CHL1   C19 4036   6.735   6.180   3.049 -0.2163  0.2585 -1.1725
   55CHL1  H19A 4037   6.634   6.176   3.096  0.3331  0.0117  0.0180
   55CHL1  H19B 4038   6.716   6.145   2.945 -2.8512 -2.4136  0.0376
   55CHL1  H19C 4039   6.799   6.103   3.098 -1.1516 -1.2696 -2.2663
   55CHL1    C1 4040   6.730   6.434   2.991 -0.0748 -0.5435 -0.1364
   55CHL1   H1A 4041   6.631   6.444   3.042  0.1358 -0.8635  0.3423
   55CHL1   H1B 4042   6.780   6.530   3.013  1.8451 -2.0437  2.7137
   55CHL1    C2 4043   6.712   6.426   2.841  0.5284  0.0584  0.1397
   55CHL1   H2A 4044   6.655   6.518   2.812 -4.4910 -1.8083  2.7517
   55CHL1   H2B 4045   6.647   6.341   2.811  0.0314 -0.0654  1.4914
   55CHL1   C20 4046   6.825   6.292   3.772  0.7412 -0.2900  0.4588
   55CHL1   H20 4047   6.813   6.182   3.786 -0.4906  0.0926  2.6704
   55CHL1   C21 4048   6.690   6.362   3.768 -0.4510  0.5689  0.9397
   55CHL1  H21A 4049   6.630   6.350   3.861 -0.3569  0.3631  0.9727
   55CHL1  H21B 4050   6.630   6.311   3.689 -0.3998 -0.9767  1.8604
   55CHL1  H21C 4051   6.691   6.471   3.745 -1.5747  0.5665  0.8115
   55CHL1   C22 4052   6.909   6.331   3.894 -0.3813 -0.2912 -0.7394
   55CHL1  H22A 4053   6.993   6.262   3.914  0.1773 -0.2386 -2.7002
   55CHL1  H22B 4054   6.952   6.431   3.875  1.1070 -0.9649 -1.0624
   55CHL1   C23 4055   6.832   6.333   4.029 -0.1391 -0.8639  0.0728
   55CHL1  H23A 4056   6.753   6.411   4.024 -0.8773 -1.6705 -1.2961
   55CHL1  H23B 4057   6.790   6.230   4.035  1.5131 -1.6971 -1.7361
   55CHL1   C24 4058   6.923   6.359   4.148 -1.1108 -0.0252 -0.0240
   55CHL1  H24A 4059   7.021   6.307   4.152 -1.9502 -1.6162  0.4264
   55CHL1  H24B 4060   6.952   6.466   4.136 -0.3624 -0.1274  0.7533
   55CHL1   C25 4061   6.856   6.350   4.281  0.6111 -0.6574  0.2215
   55CHL1   H25 4062   6.762   6.409   4.287  1.5476  0.7555  1.9175
   55CHL1   C26 4063   6.811   6.205   4.320  0.6373  0.3172  0.0598
   55CHL1  H26A 4064   6.755   6.196   4.416 -1.4571 -4.1062 -1.3069
   55CHL1  H26B 4065   6.738   6.172   4.243 -0.0202  0.3233  0.6678
   55CHL1  H26C 4066   6.886   6.123   4.315  1.1818  0.8633 -3.1752
   55CHL1   C27 4067   6.953   6.408   4.383  0.2528  0.0407  0.3950
   55CHL1  H27A 4068   7.051   6.356   4.375  0.2102 -0.1021  0.7745
   55CHL1  H27B 4069   6.963   6.517   4.366 -0.3279 -0.0966 -1.0127
   55CHL1  H27C 4070   6.910   6.398   4.485 -0.4678 -1.5658 -0.0287
   56CHL1    C3 4071   0.276   5.696   2.519 -0.3144  0.2818 -0.2061
   56CHL1    H3 4072   0.363   5.630   2.540  0.3308  1.2246  0.1586
   56CHL1    O3 4073   0.252   5.685   2.381 -0.0658  0.2675 -0.0396
   56CHL1   H3' 4074   0.179   5.744   2.362  0.1079  0.5340  0.1357
   56CHL1    C4 4075   0.153   5.638   2.590 -0.0162 -0.5151 -0.4254
   56CHL1   H4A 4076   0.068   5.704   2.562 -0.5347 -1.0209 -0.0703
   56CHL1   H4B 4077   0.125   5.536   2.556 -0.5778 -0.6684  0.4568
   56CHL1    C5 4078   0.167   5.649   2.740 -0.6529  1.1726 -0.5687
   56CHL1    C6 4079   0.148   5.536   2.815  0.3049 -0.1724  1.0783
   56CHL1    H6 4080   0.114   5.443   2.767  0.7583 -0.9659  2.2194
   56CHL1    C7 4081   0.155   5.528   2.964  0.3655 -0.0547  0.3680
   56CHL1   H7A 4082   0.062   5.485   3.007 -0.4396  1.9978  0.7596
   56CHL1   H7B 4083   0.252   5.480   2.988 -0.1413 -0.1176  2.3904
   56CHL1    C8 4084   0.169   5.676   3.023 -0.5339  0.4444  0.6737
   56CHL1    H8 4085   0.066   5.719   3.028 -1.7262 -2.0840 -0.1200
   56CHL1   C14 4086   0.216   5.671   3.170  0.5433  0.7965  0.4281
   56CHL1   H14 4087   0.315   5.620   3.166  0.4519  0.3246  2.5691
   56CHL1   C15 4088   0.134   5.589   3.269 -0.2549  0.3788  0.0318
   56CHL1  H15A 4089   0.026   5.592   3.246 -0.1259  0.1857 -0.6124
   56CHL1  H15B 4090   0.163   5.482   3.259 -0.4242  0.4076 -0.8580
   56CHL1   C16 4091   0.171   5.650   3.407 -0.4034  0.4792  0.6067
   56CHL1  H16A 4092   0.079   5.686   3.457  0.0736  1.4925  0.7811
   56CHL1  H16B 4093   0.214   5.575   3.477 -2.1654 -0.5523  0.6186
   56CHL1   C17 4094   0.270   5.768   3.380 -0.6815  0.6661  0.5716
   56CHL1   H17 4095   0.372   5.725   3.373 -0.4164  1.3764 -0.1535
   56CHL1   C13 4096   0.240   5.811   3.236 -0.1696  0.2185 -0.4467
   56CHL1   C18 4097   0.110   5.891   3.243  0.4359 -0.3568 -0.4434
   56CHL1  H18A 4098   0.034   5.851   3.313  1.4626  0.8561  1.4343
   56CHL1  H18B 4099   0.119   5.999   3.268 -1.7079 -0.4089  0.7873
   56CHL1  H18C 4100   0.067   5.899   3.141  0.9951 -0.1475 -0.6665
   56CHL1   C12 4101   0.356   5.874   3.153  0.3686 -0.8716 -0.5889
   56CHL1  H12A 4102   0.377   5.975   3.193 -1.5826 -0.9784  0.8650
   56CHL1  H12B 4103   0.441   5.804   3.164 -0.8292 -2.1355  1.1034
   56CHL1   C11 4104   0.316   5.890   3.009 -0.3585 -0.3656  0.9038
   56CHL1  H11A 4105   0.242   5.972   2.999  0.1086  0.2023  1.8682
   56CHL1  H11B 4106   0.410   5.928   2.963 -0.6897 -1.5112 -0.7553
   56CHL1    C9 4107   0.263   5.764   2.941  0.1073  0.3072  0.2419
   56CHL1    H9 4108   0.355   5.703   2.927  0.0895  0.7564 -2.1383
   56CHL1   C10 4109   0.212   5.781   2.799 -0.4603 -0.1526  0.3785
   56CHL1   C19 4110   0.091   5.877   2.788 -0.2138  0.4792 -0.1265
   56CHL1  H19A 4111   0.059   5.895   2.683  1.6525  1.4835 -0.5734
   56CHL1  H19B 4112   0.011   5.820   2.839  0.5604 -0.3933  0.1343
   56CHL1  H19C 4113   0.115   5.975   2.836  0.4536  1.3722 -2.1465
   56CHL1    C1 4114   0.337   5.837   2.718  0.2378 -0.5547  0.2198
   56CHL1   H1A 4115   0.374   5.934   2.756  1.2190 -0.3203 -1.2554
   56CHL1   H1B 4116   0.425   5.769   2.723 -0.3285 -1.2532  1.0124
   56CHL1    C2 4117   0.305   5.836   2.570 -0.3041  0.5128  0.2782
   56CHL1   H2A 4118   0.395   5.873   2.516 -1.4697 -0.8795 -2.9156
   56CHL1   H2B 4119   0.225   5.909   2.549 -2.1257 -0.7896  2.2308
   56CHL1   C20 4120   0.271   5.877   3.491  0.5120 -0.4103  0.1165
   56CHL1   H20 4121   0.176   5.933   3.504  0.5857 -0.9505  4.8461
   56CHL1   C21 4122   0.386   5.985   3.469 -0.3529  0.8054  0.1360
   56CHL1  H21A 4123   0.355   6.056   3.389  0.4839  1.4258  0.3509
   56CHL1  H21B 4124   0.487   5.942   3.454 -0.7786 -0.6873  1.3671
   56CHL1  H21C 4125   0.392   6.052   3.558  3.1894  1.3485 -0.3970
   56CHL1   C22 4126   0.288   5.807   3.626  0.4714  0.0363 -0.3001
   56CHL1  H22A 4127   0.197   5.749   3.652  0.0415  0.6391 -0.4430
   56CHL1  H22B 4128   0.368   5.729   3.629  0.0969 -0.3636 -0.5467
   56CHL1   C23 4129   0.315   5.900   3.744  0.1546  0.5820  0.4925
   56CHL1  H23A 4130   0.413   5.950   3.725  1.5673 -2.3287 -0.4320
   56CHL1  H23B 4131   0.235   5.978   3.744  1.0100  1.5011 -0.9853
   56CHL1   C24 4132   0.303   5.826   3.874 -0.3655  0.2902  0.7013
   56CHL1  H24A 4133   0.197   5.795   3.885 -0.7156  1.5983  1.1995
   56CHL1  H24B 4134   0.369   5.736   3.872  0.4156  0.8294 -1.6183
   56CHL1   C25 4135   0.334   5.914   3.996 -0.0788  0.4158 -0.1669
   56CHL1   H25 4136   0.422   5.978   3.973 -0.7022  1.6882  0.8558
   56CHL1   C26 4137   0.220   6.011   4.027  0.4302  0.1445 -0.2549
   56CHL1  H26A 4138   0.171   6.045   3.934  3.2816  1.8400 -1.2583
   56CHL1  H26B 4139   0.152   5.961   4.100  1.0264 -0.7800 -0.3129
   56CHL1  H26C 4140   0.259   6.105   4.071 -0.6392 -0.0770  1.2387
   56CHL1   C27 4141   0.358   5.830   4.126 -0.0155  0.5993  0.7589
   56CHL1  H27A 4142   0.268   5.776   4.161 -0.8476  1.6381  0.2736
   56CHL1  H27B 4143   0.426   5.743   4.106 -1.5804 -0.2042 -1.4823
   56CHL1  H27C 4144   0.402   5.893   4.206  1.9571 -1.1119  1.1098
   57SAPC     N 4145   0.310   1.537   6.746 -0.8127  0.4284 -0.1657
   57SAPC   C12 4146   0.442   1.509   6.822  1.2915  0.0918  0.0591
   57SAPC  H12A 4147   0.427   1.542   6.923  0.6749  0.1927 -0.0643
   57SAPC  H12B 4148   0.526   1.554   6.770  0.3770  0.2702 -1.2985
   57SAPC   C13 4149   0.279   1.673   6.770 -0.3075  0.2864 -0.9913
   57SAPC  H13A 4150   0.190   1.697   6.713 -1.4904 -0.6459  0.3953
   57SAPC  H13B 4151   0.255   1.711   6.868  2.4406  1.3747 -0.6628
   57SAPC  H13C 4152   0.359   1.737   6.735 -1.0670  0.3088 -2.8453
   57SAPC   C14 4153   0.342   1.521   6.601  0.3855 -0.0174 -0.4431
   57SAPC  H14A 4154   0.424   1.587   6.578  0.2591  0.0176 -0.7973
   57SAPC  H14B 4155   0.371   1.419   6.585  5.2148  0.9626  0.5899
   57SAPC  H14C 4156   0.261   1.562   6.543 -0.3059  1.6987  1.6167
   57SAPC   C15 4157   0.193   1.448   6.785 -0.4200 -0.0267  0.7378
   57SAPC  H15A 4158   0.114   1.464   6.713  0.4828 -1.8877 -0.7453
   57SAPC  H15B 4159   0.219   1.343   6.783 -0.2657 -0.0070 -1.5873
   57SAPC  H15C 4160   0.149   1.472   6.880  0.1208  3.3112  0.2825
   57SAPC   C11 4161   0.480   1.357   6.841  0.1199 -0.0062 -0.7406
   57SAPC  H11A 4162   0.489   1.301   6.746 -0.7698  2.5981 -2.4564
   57SAPC  H11B 4163   0.399   1.321   6.908  1.9146 -0.7855  1.1196
   57SAPC     P 4164   0.739   1.376   6.834 -0.0864  0.1825  0.0802
   57SAPC   O13 4165   0.764   1.502   6.765  0.0706  0.2289  0.0448
   57SAPC   O14 4166   0.849   1.343   6.924 -0.0968 -0.2306 -0.1508
   57SAPC   O12 4167   0.601   1.367   6.909 -0.2935  0.5500  0.1576
   57SAPC   O11 4168   0.728   1.255   6.731  0.1333 -0.4401  0.2314
   57SAPC    C1 4169   0.838   1.168   6.690  0.3093 -0.4251  0.2201
   57SAPC    HA 4170   0.932   1.213   6.730  0.5164  0.7237 -1.4424
   57SAPC    HB 4171   0.829   1.065   6.731 -0.5994 -0.7331 -0.6905
   57SAPC    C2 4172   0.848   1.148   6.531 -0.0961 -0.1067  0.5069
   57SAPC    HS 4173   0.876   1.239   6.475  0.0162 -0.6141 -0.2740
   57SAPC   O21 4174   0.726   1.093   6.479  0.1802 -0.0658  0.1884
   57SAPC   C21 4175   0.634   1.173   6.441  0.6909 -0.3969 -0.3921
   57SAPC   O22 4176   0.636   1.291   6.431  0.3692  0.5039 -0.4144
   57SAPC   C22 4177   0.508   1.084   6.417 -0.0999  1.1499 -0.7121
   57SAPC   H2R 4178   0.545   0.993   6.365  0.2159  1.2611 -0.6831
   57SAPC   H2S 4179   0.469   1.059   6.518  2.1599  0.7983  0.1338
   57SAPC    C3 4180   0.959   1.043   6.498 -0.1336 -0.9297 -0.2623
   57SAPC    HX 4181   0.928   0.958   6.563  1.6975 -0.8953  0.7195
   57SAPC    HY 4182   1.062   1.071   6.527  0.2831 -2.3928 -0.2555
   57SAPC   O31 4183   0.958   0.989   6.365  0.7881 -0.0363  0.4898
   57SAPC   C31 4184   1.014   1.067   6.271 -0.0652  0.2649 -0.3378
   57SAPC   O32 4185   1.055   1.180   6.289  0.3244 -0.2633 -0.2487
   57SAPC   C32 4186   1.039   0.985   6.152  0.8003  0.2588  0.3230
   57SAPC   H2X 4187   0.981   0.891   6.167 -0.0478  0.4966 -1.2604
   57SAPC   H2Y 4188   1.142   0.945   6.151  0.8083  0.0750  2.7241
   57SAPC   C23 4189   0.409   1.160   6.323 -0.2502 -0.0104  0.5290
   57SAPC   H3R 4190   0.400   1.260   6.368 -2.0619 -0.0474  0.3025
   57SAPC   H3S 4191   0.316   1.099   6.323  0.0609 -0.4979  1.2081
   57SAPC   C24 4192   0.453   1.182   6.172 -0.4673 -0.5737 -0.5873
   57SAPC   H4R 4193   0.487   1.087   6.126 -2.5077 -1.5890 -0.1095
   57SAPC   H4S 4194   0.519   1.271   6.181 -0.0192 -0.9313 -0.2971
   57SAPC   C25 4195   0.338   1.222   6.085  0.4826  0.0896  0.3752
   57SAPC   H5R 4196   0.240   1.234   6.133 -0.5406  0.6684 -1.7615
   57SAPC   C26 4197   0.328   1.195   5.952  0.0404 -0.1223  0.3505
   57SAPC   H6R 4198   0.239   1.231   5.898  0.6899 -0.9751 -1.3470
   57SAPC   C27 4199   0.440   1.156   5.849 -0.6582  0.3122 -0.2488
   57SAPC   H7R 4200   0.386   1.106   5.765 -3.0970 -0.9006  1.8950
   57SAPC   H7S 4201   0.505   1.076   5.890  2.0521  1.6073 -1.7450
   57SAPC   C28 4202   0.529   1.271   5.805  0.1132  0.6097 -0.6144
   57SAPC   H8R 4203   0.569   1.324   5.893 -1.2489 -2.4349  2.0377
   57SAPC   C29 4204   0.557   1.300   5.681  0.2413 -0.1827  0.6371
   57SAPC   H9R 4205   0.633   1.377   5.657  2.0111 -1.8762  0.5534
   57SAPC  C210 4206   0.508   1.237   5.556  0.0092  0.2169 -0.2263
   57SAPC  H10R 4207   0.504   1.314   5.477 -1.6661 -1.0521 -1.4330
   57SAPC  H10S 4208   0.402   1.209   5.572 -0.3223  1.9403  0.8309
   57SAPC  C211 4209   0.576   1.108   5.521  0.3806 -0.1728  0.5089
   57SAPC  H11R 4210   0.619   1.049   5.603 -0.1589 -0.0320  0.8981
   57SAPC  C212 4211   0.598   1.074   5.388  0.0740 -0.8900 -0.5567
   57SAPC  H12R 4212   0.638   0.975   5.361  1.0669 -0.6024 -0.1978
   57SAPC  C213 4213   0.568   1.149   5.262 -0.5219 -0.1075 -0.4141
   57SAPC  H13R 4214   0.656   1.139   5.196 -1.7290 -0.7207 -2.0077
   57SAPC  H13S 4215   0.561   1.255   5.294  2.8993 -0.6584  2.7894
   57SAPC  C214 4216   0.440   1.102   5.199  0.5423 -0.7496 -0.1792
   57SAPC  H14R 4217   0.357   1.093   5.272 -0.6413  0.1273 -1.3749
   57SAPC  C215 4218   0.404   1.095   5.069 -0.1311 -0.5663  0.4535
   57SAPC  H15R 4219   0.301   1.074   5.036  0.4544 -0.6273 -1.4751
   57SAPC  C216 4220   0.495   1.142   4.953 -0.0666  0.1620  0.8301
   57SAPC  H16R 4221   0.491   1.072   4.867 -1.7379 -0.8015  1.6484
   57SAPC  H16S 4222   0.597   1.143   4.998 -0.1965 -0.7883  1.1753
   57SAPC  C217 4223   0.456   1.281   4.893  0.0661  0.7176 -0.3860
   57SAPC  H17R 4224   0.432   1.348   4.978 -1.5992 -0.1606 -0.1218
   57SAPC  H17S 4225   0.358   1.264   4.843  1.0703 -2.4671 -1.5549
   57SAPC  C218 4226   0.569   1.329   4.799 -0.2317  0.3613 -0.3676
   57SAPC  H18R 4227   0.584   1.261   4.712 -1.7531  0.3742 -0.6662
   57SAPC  H18S 4228   0.663   1.321   4.857 -0.9580  0.9116  0.9225
   57SAPC  C219 4229   0.568   1.482   4.761 -0.0566  0.0509 -0.5927
   57SAPC  H19R 4230   0.660   1.505   4.703  0.3251  3.7178  1.1640
   57SAPC  H19S 4231   0.569   1.549   4.850 -1.0777  1.1132 -1.3424
   57SAPC  C220 4232   0.442   1.535   4.692  0.0708  0.4729  0.3244
   57SAPC  H20R 4233   0.426   1.478   4.599  2.1541  1.6903 -0.8504
   57SAPC  H20S 4234   0.457   1.642   4.664  1.6749  1.1999  3.3946
   57SAPC  H20T 4235   0.356   1.522   4.761 -0.8443 -0.6475 -0.9760
   57SAPC   C33 4236   0.984   1.034   6.016  0.5681  0.0090 -1.0333
   57SAPC   H3X 4237   1.035   1.125   5.977  0.7063  1.1400  1.6291
   57SAPC   H3Y 4238   0.880   1.068   6.035 -0.3422 -1.9558 -2.1777
   57SAPC   C34 4239   1.003   0.929   5.905 -0.1698  0.1161 -0.4732
   57SAPC   H4X 4240   0.951   0.832   5.921 -1.7357  1.1526  1.1014
   57SAPC   H4Y 4241   1.108   0.894   5.910 -0.9069 -2.1509  0.8983
   57SAPC   C35 4242   0.972   0.960   5.761  0.3608 -0.4862 -0.1742
   57SAPC   H5X 4243   1.037   1.046   5.734 -0.3959  0.3302  0.5047
   57SAPC   H5Y 4244   0.864   0.987   5.755  0.5896  0.9734  1.4077
   57SAPC   C36 4245   0.989   0.849   5.663  0.3898  0.1469 -0.1977
   57SAPC   H6X 4246   0.917   0.767   5.685  0.5042 -0.0550 -0.5769
   57SAPC   H6Y 4247   1.089   0.807   5.684  0.1240  0.6065  2.4605
   57SAPC   C37 4248   0.965   0.883   5.516  0.9483 -0.1152  1.6805
   57SAPC   H7X 4249   1.032   0.966   5.486 -0.4546  1.0536  1.6274
   57SAPC   H7Y 4250   0.859   0.915   5.503  0.8472 -1.3547 -1.3608
   57SAPC   C38 4251   0.997   0.767   5.419  0.2365  0.3940  0.1163
   57SAPC   H8X 4252   0.927   0.686   5.450 -0.4611  0.1737 -1.9224
   57SAPC   H8Y 4253   1.099   0.728   5.440  0.8823  0.5950 -2.3739
   57SAPC   C39 4254   0.973   0.790   5.271  0.6451  0.3426 -0.3897
   57SAPC   H9X 4255   0.959   0.693   5.219  2.0849 -0.1941  0.1811
   57SAPC   H9Y 4256   1.058   0.841   5.221  0.2097  1.4896  0.0029
   57SAPC  C310 4257   0.848   0.871   5.232 -0.7704 -0.4076  0.5768
   57SAPC  H10X 4258   0.853   0.972   5.279 -0.0184 -1.2671  2.4765
   57SAPC  H10Y 4259   0.762   0.817   5.277 -0.7175 -0.7875  0.2216
   57SAPC  C311 4260   0.816   0.897   5.077  0.0139  1.2302 -0.2773
   57SAPC  H11X 4261   0.706   0.892   5.058 -0.1133  2.2809  0.1104
   57SAPC  H11Y 4262   0.858   0.813   5.019  0.2084  1.3466 -0.3070
   57SAPC  C312 4263   0.877   1.022   5.025 -0.1566  0.9425  0.5985
   57SAPC  H12X 4264   0.833   1.111   5.075 -2.6320 -0.2482  0.6742
   57SAPC  H12Y 4265   0.848   1.025   4.918  2.2989 -1.6962 -0.2912
   57SAPC  C313 4266   1.036   1.013   5.018  0.4648 -0.3430 -0.7080
   57SAPC  H13X 4267   1.073   0.914   4.983 -0.2296 -0.5101 -0.9820
   57SAPC  H13Y 4268   1.067   1.021   5.124 -0.6953  0.8767 -0.4329
   57SAPC  C314 4269   1.105   1.114   4.931 -0.1888  0.3034  0.3201
   57SAPC  H14X 4270   1.212   1.128   4.956  0.0235 -0.1589 -0.3095
   57SAPC  H14Y 4271   1.061   1.215   4.943 -1.5850 -0.3582  0.9343
   57SAPC  C315 4272   1.104   1.071   4.783  0.0193  0.2928  0.2431
   57SAPC  H15X 4273   0.996   1.057   4.764  0.0992  0.5311 -0.3860
   57SAPC  H15Y 4274   1.166   0.980   4.766 -0.9261 -0.1709 -0.8147
   57SAPC  C316 4275   1.169   1.189   4.697 -0.7217 -0.1281  1.1036
   57SAPC  H16X 4276   1.279   1.175   4.709 -0.4812 -1.6261 -1.8096
   57SAPC  H16Y 4277   1.146   1.287   4.743  0.9032  0.7318  0.2006
   57SAPC  C317 4278   1.114   1.169   4.551  0.1820 -0.7629 -0.3430
   57SAPC  H17X 4279   1.095   1.271   4.511 -1.0361 -1.1410 -0.7579
   57SAPC  H17Y 4280   1.011   1.130   4.560  0.8390 -2.2914  1.2580
   57SAPC  C318 4281   1.203   1.085   4.453 -0.1668  0.8911  0.5766
   57SAPC  H18X 4282   1.170   1.099   4.348 -2.1271 -0.1816  1.0019
   57SAPC  H18Y 4283   1.190   0.979   4.483 -0.8283  1.0021  0.7014
   57SAPC  H18Z 4284   1.310   1.110   4.468 -0.0164  0.2264  0.6559
   58SAPC     N 4285   5.118   0.668   6.991 -0.5484  0.6930 -0.0714
   58SAPC   C12 4286   5.071   0.681   6.848  0.1826 -0.7890 -0.3118
   58SAPC  H12A 4287   4.963   0.692   6.843  0.2577  0.2358 -0.0023
   58SAPC  H12B 4288   5.104   0.589   6.803  2.0520  0.5935 -1.9264
   58SAPC   C13 4289   5.262   0.697   7.013 -0.2022  0.1379 -0.3277
   58SAPC  H13A 4290   5.300   0.669   7.110  0.4572  2.8365  0.2939
   58SAPC  H13B 4291   5.324   0.646   6.941 -2.1335  1.5664 -3.2187
   58SAPC  H13C 4292   5.285   0.803   7.007  3.4555 -0.3545  1.8439
   58SAPC   C14 4293   5.035   0.755   7.077  0.1024 -0.5092  0.5152
   58SAPC  H14A 4294   4.936   0.715   7.091  0.2229 -0.5105  1.4658
   58SAPC  H14B 4295   5.062   0.763   7.182 -0.1046 -0.3351  0.5561
   58SAPC  H14C 4296   5.030   0.859   7.047 -0.0682 -0.1492  1.7305
   58SAPC   C15 4297   5.098   0.534   7.034  0.4221  0.5094  0.2785
   58SAPC  H15A 4298   4.999   0.494   7.019 -0.4251  2.6110 -0.1707
   58SAPC  H15B 4299   5.161   0.463   6.982  1.3532  2.0443 -0.7603
   58SAPC  H15C 4300   5.116   0.513   7.139 -1.5082 -2.1119  0.1858
   58SAPC   C11 4301   5.128   0.809   6.768  0.2301  0.3085  0.2776
   58SAPC  H11A 4302   5.087   0.787   6.667  0.3476 -2.5279  0.7696
   58SAPC  H11B 4303   5.239   0.812   6.764  0.3536 -1.6080  1.1466
   58SAPC     P 4304   5.164   1.059   6.861 -0.4135  0.2478  0.1559
   58SAPC   O13 4305   5.091   1.167   6.933 -0.0343  0.1909 -0.2530
   58SAPC   O14 4306   5.286   1.001   6.931 -0.3543  0.3930 -0.4914
   58SAPC   O12 4307   5.071   0.930   6.815 -0.1570  0.0696  0.1906
   58SAPC   O11 4308   5.202   1.112   6.714 -0.1380 -0.0711 -0.0638
   58SAPC    C1 4309   5.114   1.145   6.616 -0.3291 -0.3335  0.0306
   58SAPC    HA 4310   5.036   1.071   6.588 -1.4244  0.7376  0.1622
   58SAPC    HB 4311   5.061   1.241   6.634 -0.1532 -0.0464 -0.9224
   58SAPC    C2 4312   5.203   1.170   6.488  0.4410  0.2593 -1.1578
   58SAPC    HS 4313   5.128   1.173   6.407  0.2341  0.0438 -0.9746
   58SAPC   O21 4314   5.312   1.082   6.467 -0.4292  0.0261  0.0233
   58SAPC   C21 4315   5.271   0.960   6.436 -0.2315 -0.0141  0.7660
   58SAPC   O22 4316   5.156   0.928   6.403  0.4649  0.2921  0.2241
   58SAPC   C22 4317   5.381   0.859   6.459 -0.3503 -0.0526  0.4662
   58SAPC   H2R 4318   5.412   0.862   6.566  0.8506 -2.9470  0.2888
   58SAPC   H2S 4319   5.347   0.756   6.434 -0.2314  0.1122 -0.3879
   58SAPC    C3 4320   5.275   1.304   6.507 -0.2786 -0.1834  1.1069
   58SAPC    HX 4321   5.322   1.296   6.608 -1.1058 -0.6855  1.4667
   58SAPC    HY 4322   5.196   1.383   6.505 -0.4274 -0.3112 -1.9215
   58SAPC   O31 4323   5.369   1.336   6.398  0.5425  0.0468 -0.1608
   58SAPC   C31 4324   5.330   1.335   6.271  0.4750 -0.7880 -0.1852
   58SAPC   O32 4325   5.214   1.351   6.238  0.3621 -0.7830  0.4927
   58SAPC   C32 4326   5.446   1.329   6.173 -0.4304  0.1882 -0.1524
   58SAPC   H2X 4327   5.404   1.281   6.082 -2.3424  0.3824  0.5670
   58SAPC   H2Y 4328   5.529   1.265   6.210  0.3268  1.4365  0.3538
   58SAPC   C23 4329   5.513   0.887   6.375  0.4932  0.6692  0.6791
   58SAPC   H3R 4330   5.600   0.840   6.426 -0.4456 -0.3484  1.3616
   58SAPC   H3S 4331   5.542   0.993   6.357  0.4107  0.3832 -1.3672
   58SAPC   C24 4332   5.493   0.815   6.240  0.0194 -0.1532  0.3809
   58SAPC   H4R 4333   5.458   0.710   6.250  1.9856 -0.6878  2.4912
   58SAPC   H4S 4334   5.594   0.803   6.195 -0.5216  0.2299 -0.9948
   58SAPC   C25 4335   5.399   0.891   6.153 -0.3179 -0.1068 -0.4264
   58SAPC   H5R 4336   5.298   0.891   6.196 -0.7081 -1.7357 -1.2601
   58SAPC   C26 4337   5.417   0.952   6.036 -0.4433  0.1272 -0.4001
   58SAPC   H6R 4338   5.327   1.001   5.995 -2.4638  0.0139  3.4808
   58SAPC   C27 4339   5.550   0.976   5.968 -0.1878 -0.8388 -0.2252
   58SAPC   H7R 4340   5.591   0.885   5.919  0.9534  0.6135 -2.1309
   58SAPC   H7S 4341   5.622   1.001   6.048 -1.8197  1.2606  0.7007
   58SAPC   C28 4342   5.558   1.090   5.868 -0.0058  0.2599  0.2121
   58SAPC   H8R 4343   5.562   1.187   5.920 -2.0501 -0.3188  1.5605
   58SAPC   C29 4344   5.542   1.089   5.735  0.0306  0.5681  0.3158
   58SAPC   H9R 4345   5.569   1.179   5.680  2.6016 -0.9264 -1.0600
   58SAPC  C210 4346   5.529   0.965   5.641 -0.1879 -0.0373 -0.5549
   58SAPC  H10R 4347   5.449   0.998   5.572 -0.2867 -0.3387 -0.5845
   58SAPC  H10S 4348   5.473   0.883   5.691 -1.7582  0.4980 -1.3664
   58SAPC  C211 4349   5.657   0.916   5.587 -0.3618 -0.2916 -0.3059
   58SAPC  H11R 4350   5.737   0.905   5.661  0.8581 -0.2137 -1.5721
   58SAPC  C212 4351   5.700   0.911   5.456 -0.5128  0.6007  0.3018
   58SAPC  H12R 4352   5.782   0.844   5.427 -0.5803  1.1670 -1.3034
   58SAPC  C213 4353   5.616   0.962   5.335 -0.0388  0.1495  0.0210
   58SAPC  H13R 4354   5.512   0.996   5.355 -0.2702  0.3761 -1.4844
   58SAPC  H13S 4355   5.608   0.887   5.254 -0.2379  1.0390 -0.7968
   58SAPC  C214 4356   5.683   1.085   5.274  0.0150 -0.4119  0.0996
   58SAPC  H14R 4357   5.724   1.164   5.339  2.0215  0.9807 -2.6820
   58SAPC  C215 4358   5.719   1.106   5.144  0.7096  0.0535 -0.4543
   58SAPC  H15R 4359   5.770   1.201   5.123  2.7702 -0.5623  1.4130
   58SAPC  C216 4360   5.671   1.022   5.027 -0.4116 -0.9399  0.2398
   58SAPC  H16R 4361   5.648   1.068   4.929 -0.6918 -0.6831  0.4251
   58SAPC  H16S 4362   5.575   0.970   5.048 -0.7871 -0.8428 -1.1698
   58SAPC  C217 4363   5.778   0.914   5.000 -0.2641 -0.1323 -0.2506
   58SAPC  H17R 4364   5.807   0.866   5.096  0.9553 -1.5131 -1.2665
   58SAPC  H17S 4365   5.868   0.963   4.955  0.3018  0.1790  1.1698
   58SAPC  C218 4366   5.722   0.805   4.905 -1.4660  0.0016  0.1198
   58SAPC  H18R 4367   5.613   0.799   4.923 -1.3623  1.3834  1.3763
   58SAPC  H18S 4368   5.764   0.707   4.937 -0.8936  0.1755 -0.0912
   58SAPC  C219 4369   5.735   0.836   4.755 -0.2249 -0.1048  0.5103
   58SAPC  H19R 4370   5.837   0.812   4.718 -1.1239 -1.6390 -1.1765
   58SAPC  H19S 4371   5.715   0.944   4.742 -2.2611 -0.5622 -0.5566
   58SAPC  C220 4372   5.629   0.767   4.657 -0.1365  0.2079  0.2101
   58SAPC  H20R 4373   5.524   0.802   4.671  0.5110  1.8481  1.1861
   58SAPC  H20S 4374   5.617   0.660   4.685  4.0006 -0.4155  0.2297
   58SAPC  H20T 4375   5.654   0.781   4.550 -0.6260  1.0742  0.2013
   58SAPC   C33 4376   5.505   1.466   6.148  0.0202 -0.3413  0.2638
   58SAPC   H3X 4377   5.604   1.450   6.100 -1.0957 -0.5112 -2.1118
   58SAPC   H3Y 4378   5.526   1.523   6.241  0.4720 -0.5278  0.2768
   58SAPC   C34 4379   5.430   1.560   6.050  1.8477 -0.0049  0.7207
   58SAPC   H4X 4380   5.480   1.659   6.049  4.0910 -1.0997  0.1773
   58SAPC   H4Y 4381   5.335   1.594   6.098  1.2776 -1.4110  0.6514
   58SAPC   C35 4382   5.397   1.495   5.914  0.4314 -0.1543 -0.2373
   58SAPC   H5X 4383   5.309   1.550   5.874  0.3962 -0.3802 -0.4725
   58SAPC   H5Y 4384   5.387   1.385   5.918 -0.6622 -0.0531  0.2962
   58SAPC   C36 4385   5.496   1.532   5.800  0.3950  0.2920  0.2186
   58SAPC   H6X 4386   5.595   1.500   5.837 -0.1670 -0.7175  0.8961
   58SAPC   H6Y 4387   5.497   1.642   5.780 -0.2401  0.0822 -1.0995
   58SAPC   C37 4388   5.454   1.466   5.668  0.0084 -0.1785  0.7029
   58SAPC   H7X 4389   5.351   1.498   5.643  0.4802 -0.6496 -2.2405
   58SAPC   H7Y 4390   5.458   1.355   5.675  0.6281 -0.3820 -1.7153
   58SAPC   C38 4391   5.540   1.496   5.543  0.3471 -0.4540 -0.0389
   58SAPC   H8X 4392   5.646   1.463   5.546  0.1823 -1.0330 -0.6250
   58SAPC   H8Y 4393   5.537   1.604   5.518 -2.0265 -0.5199 -0.2748
   58SAPC   C39 4394   5.494   1.429   5.408 -0.4020 -0.7309 -0.0286
   58SAPC   H9X 4395   5.387   1.454   5.420 -0.1350 -0.8078  4.4731
   58SAPC   H9Y 4396   5.517   1.320   5.408  1.7359 -0.3575  1.7536
   58SAPC  C310 4397   5.565   1.493   5.293 -0.3346 -0.3250  0.2629
   58SAPC  H10X 4398   5.668   1.452   5.287  0.1818  1.0441 -0.9776
   58SAPC  H10Y 4399   5.571   1.603   5.306  0.9747 -0.5418  1.8607
   58SAPC  C311 4400   5.509   1.444   5.153  0.3153 -0.2241 -0.6839
   58SAPC  H11X 4401   5.407   1.485   5.138  1.5683  2.6048 -2.0071
   58SAPC  H11Y 4402   5.510   1.332   5.152  0.4120 -0.2848 -3.8198
   58SAPC  C312 4403   5.597   1.501   5.034 -0.0913 -0.3715  0.5649
   58SAPC  H12X 4404   5.702   1.464   5.042  0.1379  0.4202  1.3370
   58SAPC  H12Y 4405   5.590   1.611   5.035 -0.8851 -0.4161  1.1553
   58SAPC  C313 4406   5.538   1.460   4.893  0.0805  0.2091 -0.2065
   58SAPC  H13X 4407   5.574   1.538   4.822  0.5755  0.0273 -0.1568
   58SAPC  H13Y 4408   5.427   1.472   4.894  0.2377  2.1004 -0.9740
   58SAPC  C314 4409   5.588   1.329   4.842  0.7462 -0.4134  0.2371
   58SAPC  H14X 4410   5.547   1.247   4.905 -1.2313 -0.1280 -0.5854
   58SAPC  H14Y 4411   5.696   1.327   4.867  1.1158 -1.4762 -1.2873
   58SAPC  C315 4412   5.550   1.314   4.688  0.2708 -0.0272 -0.3628
   58SAPC  H15X 4413   5.596   1.399   4.632 -1.1352  0.8381 -0.2584
   58SAPC  H15Y 4414   5.439   1.313   4.685  0.2458 -1.7358  0.1309
   58SAPC  C316 4415   5.589   1.173   4.637  0.3528  0.4195 -0.2035
   58SAPC  H16X 4416   5.555   1.093   4.707 -0.6524 -0.2077 -1.3647
   58SAPC  H16Y 4417   5.700   1.167   4.643  0.2700 -3.2329 -0.0807
   58SAPC  C317 4418   5.538   1.138   4.496  0.1995 -0.1922 -0.2268
   58SAPC  H17X 4419   5.578   1.039   4.462  0.3303  0.1487 -1.0810
   58SAPC  H17Y 4420   5.574   1.214   4.424  1.5424  0.7668  1.3834
   58SAPC  C318 4421   5.386   1.124   4.487  0.1185 -0.6778 -0.2711
   58SAPC  H18X 4422   5.347   1.115   4.383  1.5048  0.1723 -0.8906
   58SAPC  H18Y 4423   5.336   1.214   4.530  2.7504  0.5666  0.3904
   58SAPC  H18Z 4424   5.366   1.036   4.552  0.1163  0.2074  0.9566
   59SAPC     N 4425   3.684   2.499   6.686 -0.1857 -0.1681  0.4420
   59SAPC   C12 4426   3.637   2.621   6.604 -0.3846  0.4635 -0.7582
   59SAPC  H12A 4427   3.535   2.607   6.571 -0.0145 -0.7890 -1.4135
   59SAPC  H12B 4428   3.694   2.630   6.513 -0.9589  1.6669 -1.0238
   59SAPC   C13 4429   3.644   2.370   6.627  0.1841 -0.2578 -0.2628
   59SAPC  H13A 4430   3.695   2.370   6.531  0.7684 -1.3944  0.0369
   59SAPC  H13B 4431   3.674   2.285   6.686 -0.0915 -1.1614 -1.3854
   59SAPC  H13C 4432   3.537   2.362   6.614 -0.1161 -0.2015  1.8995
   59SAPC   C14 4433   3.832   2.491   6.681  0.0860 -0.6859 -0.7112
   59SAPC  H14A 4434   3.879   2.573   6.734 -1.1319 -0.1716 -0.3879
   59SAPC  H14B 4435   3.857   2.407   6.745  1.1487  0.1052 -0.0467
   59SAPC  H14C 4436   3.862   2.488   6.578 -2.9460 -0.8222 -1.6748
   59SAPC   C15 4437   3.629   2.517   6.824  0.1138  0.1191  0.6758
   59SAPC  H15A 4438   3.622   2.420   6.871 -0.5143 -0.5120 -0.6609
   59SAPC  H15B 4439   3.669   2.601   6.879  0.9104  0.5483 -0.5126
   59SAPC  H15C 4440   3.523   2.539   6.818 -0.0730 -1.0782 -1.8691
   59SAPC   C11 4441   3.646   2.761   6.669  0.2213  0.2240 -0.0132
   59SAPC  H11A 4442   3.597   2.775   6.767  2.1441  0.8412  0.9259
   59SAPC  H11B 4443   3.603   2.846   6.612  0.1456  0.2534  0.0888
   59SAPC     P 4444   3.864   2.888   6.591 -0.6022 -0.3052 -0.1462
   59SAPC   O13 4445   3.801   3.019   6.615  0.2275  0.0472  0.0960
   59SAPC   O14 4446   4.010   2.871   6.625 -0.6078  0.1983 -0.2212
   59SAPC   O12 4447   3.790   2.790   6.691  0.5446  0.8981  0.1647
   59SAPC   O11 4448   3.838   2.839   6.436  1.0459  0.1520  0.4161
   59SAPC    C1 4449   3.922   2.888   6.332  0.1330  0.0165 -0.1093
   59SAPC    HA 4450   4.026   2.880   6.369  0.6871 -0.0563 -1.6131
   59SAPC    HB 4451   3.918   2.828   6.238  0.6653 -0.5942  0.2489
   59SAPC    C2 4452   3.883   3.029   6.291  0.0811  0.3959  0.2696
   59SAPC    HS 4453   3.901   3.104   6.371  0.1638 -0.4648  1.0759
   59SAPC   O21 4454   3.750   3.031   6.237  0.3324 -0.0782 -0.2043
   59SAPC   C21 4455   3.684   3.146   6.247  0.8686 -0.1038  0.4046
   59SAPC   O22 4456   3.722   3.243   6.305  0.2053  0.3116  0.3862
   59SAPC   C22 4457   3.546   3.136   6.175 -0.0119  0.5018 -0.8681
   59SAPC   H2R 4458   3.493   3.043   6.206  2.6006 -0.2821  1.7368
   59SAPC   H2S 4459   3.482   3.219   6.210 -0.8173 -0.4092 -0.0923
   59SAPC    C3 4460   3.989   3.064   6.171  0.4540  1.0260 -0.4257
   59SAPC    HX 4461   3.988   2.980   6.099 -1.8923 -0.9967  1.7303
   59SAPC    HY 4462   4.091   3.065   6.216 -0.1635 -0.5317  1.1249
   59SAPC   O31 4463   3.969   3.180   6.101 -0.3611 -0.1775 -0.4394
   59SAPC   C31 4464   3.980   3.294   6.162 -0.6504  0.1918  0.1256
   59SAPC   O32 4465   4.034   3.311   6.273  0.6736 -0.5779  0.0988
   59SAPC   C32 4466   3.936   3.404   6.067 -0.1696 -0.0922  0.2167
   59SAPC   H2X 4467   3.845   3.448   6.111  0.5036  0.8758  0.6855
   59SAPC   H2Y 4468   3.911   3.361   5.968 -1.0412  0.2280  0.2915
   59SAPC   C23 4469   3.560   3.134   6.023  0.0035  0.0923  0.4074
   59SAPC   H3R 4470   3.453   3.142   5.993 -0.8668 -2.0409  2.6201
   59SAPC   H3S 4471   3.599   3.046   5.967  1.5485  0.6380  0.5751
   59SAPC   C24 4472   3.643   3.248   5.972  0.3025 -0.0545  1.3667
   59SAPC   H4R 4473   3.749   3.232   5.998  0.3665  0.5496  1.4710
   59SAPC   H4S 4474   3.608   3.352   5.989 -2.0190 -0.4857 -0.2246
   59SAPC   C25 4475   3.624   3.230   5.820  0.6504 -0.1887 -0.0373
   59SAPC   H5R 4476   3.538   3.280   5.772  0.4054 -2.0568 -1.7103
   59SAPC   C26 4477   3.709   3.165   5.740 -0.2567  0.1553  0.4323
   59SAPC   H6R 4478   3.686   3.171   5.633  2.0420  1.5805 -0.0598
   59SAPC   C27 4479   3.832   3.079   5.780  0.6540 -0.3078 -0.3265
   59SAPC   H7R 4480   3.905   3.140   5.838  1.5401 -1.3117 -0.3490
   59SAPC   H7S 4481   3.893   3.075   5.688  2.4964  1.3716  0.7407
   59SAPC   C28 4482   3.814   2.939   5.829  0.4095 -0.3778  0.3846
   59SAPC   H8R 4483   3.830   2.932   5.937  1.6695 -0.0012  0.2424
   59SAPC   C29 4484   3.785   2.832   5.751 -0.1588  0.5434  0.8922
   59SAPC   H9R 4485   3.773   2.735   5.802 -0.5224  0.5524  0.8255
   59SAPC  C210 4486   3.774   2.829   5.601 -0.0412  0.1335  0.3721
   59SAPC  H10R 4487   3.766   2.933   5.565  0.7145  1.1804  2.9993
   59SAPC  H10S 4488   3.672   2.787   5.583  0.9917 -1.7923 -1.5681
   59SAPC  C211 4489   3.862   2.747   5.517 -0.9275  0.7612  0.4923
   59SAPC  H11R 4490   3.963   2.735   5.558 -1.1333  2.1645  1.4611
   59SAPC  C212 4491   3.828   2.669   5.407  0.4527 -0.2382  0.2117
   59SAPC  H12R 4492   3.906   2.605   5.363 -0.3572 -0.3167 -1.1553
   59SAPC  C213 4493   3.688   2.646   5.357  0.0048  0.1873  0.3119
   59SAPC  H13R 4494   3.678   2.609   5.252  0.8215  0.6123  0.0797
   59SAPC  H13S 4495   3.630   2.740   5.366  0.7325  0.8785 -1.6154
   59SAPC  C214 4496   3.613   2.549   5.441  0.5323  0.1020  0.7984
   59SAPC  H14R 4497   3.548   2.601   5.513  0.9025  0.0223  1.1951
   59SAPC  C215 4498   3.639   2.416   5.451  0.2418 -0.1380  0.4925
   59SAPC  H15R 4499   3.579   2.361   5.524  0.0471 -0.5563  0.0203
   59SAPC  C216 4500   3.726   2.351   5.349 -0.6309 -0.3487  0.2400
   59SAPC  H16R 4501   3.784   2.269   5.396 -2.3012 -0.2235  2.7014
   59SAPC  H16S 4502   3.806   2.413   5.303 -1.0970 -0.8549 -1.2947
   59SAPC  C217 4503   3.658   2.282   5.232  0.6354  0.0318  0.2461
   59SAPC  H17R 4504   3.614   2.361   5.167  1.3640  1.2050  1.1347
   59SAPC  H17S 4505   3.574   2.221   5.270 -1.7340  2.5507 -0.6265
   59SAPC  C218 4506   3.745   2.194   5.149 -0.1239 -0.0341 -0.3208
   59SAPC  H18R 4507   3.814   2.124   5.200  2.1436  0.7518 -2.1470
   59SAPC  H18S 4508   3.821   2.254   5.095 -2.5976  3.8515  0.1027
   59SAPC  C219 4509   3.664   2.107   5.048 -0.1326 -0.7267 -0.7311
   59SAPC  H19R 4510   3.607   2.177   4.984  0.3800  0.0219 -0.3907
   59SAPC  H19S 4511   3.584   2.052   5.100  0.0486 -0.9102 -0.6464
   59SAPC  C220 4512   3.745   2.020   4.962 -0.7140 -0.0710  0.0791
   59SAPC  H20R 4513   3.695   1.926   4.929  0.0553 -1.1176  1.7544
   59SAPC  H20S 4514   3.839   1.987   5.011  0.7418 -1.7636 -3.4671
   59SAPC  H20T 4515   3.787   2.073   4.874 -1.1809  0.2895  0.0717
   59SAPC   C33 4516   4.045   3.524   6.047 -0.0787 -0.4219  0.3231
   59SAPC   H3X 4517   4.073   3.566   6.147 -1.0638 -1.7609  1.1947
   59SAPC   H3Y 4518   3.988   3.606   5.998 -1.6559 -1.9858 -0.5903
   59SAPC   C34 4519   4.167   3.497   5.957 -0.2790 -0.4568 -0.0484
   59SAPC   H4X 4520   4.225   3.412   5.999  0.4632 -0.8221 -1.7376
   59SAPC   H4Y 4521   4.228   3.589   5.968 -2.4719  1.1421 -0.5110
   59SAPC   C35 4522   4.128   3.455   5.815 -0.2011  0.1902  0.0618
   59SAPC   H5X 4523   4.073   3.539   5.768 -0.5488  0.0542  0.2192
   59SAPC   H5Y 4524   4.062   3.366   5.829 -0.7319  0.6645  0.6733
   59SAPC   C36 4525   4.247   3.418   5.724  0.1490  0.2330 -0.2205
   59SAPC   H6X 4526   4.308   3.330   5.754  2.7703  1.8095 -0.6544
   59SAPC   H6Y 4527   4.322   3.499   5.726  3.1539 -2.3845  1.1367
   59SAPC   C37 4528   4.215   3.391   5.582  0.8356 -0.2420  0.4522
   59SAPC   H7X 4529   4.311   3.366   5.532  0.7654  0.0268  0.1763
   59SAPC   H7Y 4530   4.169   3.484   5.542  0.6446 -0.2136  0.7323
   59SAPC   C38 4531   4.096   3.283   5.568 -0.4267 -0.4290 -0.0227
   59SAPC   H8X 4532   4.012   3.335   5.619  0.1876  2.6142 -1.8076
   59SAPC   H8Y 4533   4.131   3.194   5.624  2.5843  2.2578  2.7287
   59SAPC   C39 4534   4.063   3.251   5.422  0.3970 -0.3281  0.0135
   59SAPC   H9X 4535   4.162   3.209   5.394  1.0380  0.8526  0.4327
   59SAPC   H9Y 4536   4.043   3.330   5.345 -2.2522 -1.3489 -0.4338
   59SAPC  C310 4537   3.949   3.149   5.407 -0.4653  0.0672  0.1363
   59SAPC  H10X 4538   3.851   3.201   5.411 -1.8402 -1.8859 -3.5249
   59SAPC  H10Y 4539   3.950   3.073   5.488 -1.1420 -0.9516 -0.7712
   59SAPC  C311 4540   3.946   3.075   5.272 -0.5027  0.0038  0.1828
   59SAPC  H11X 4541   3.944   3.146   5.187 -1.0179  1.1692  1.1367
   59SAPC  H11Y 4542   3.855   3.010   5.269 -0.7540  0.3908 -1.9033
   59SAPC  C312 4543   4.065   2.973   5.268  0.7899 -0.1907  0.6589
   59SAPC  H12X 4544   4.046   2.900   5.350 -1.1037 -0.0718  0.3706
   59SAPC  H12Y 4545   4.158   3.029   5.293  0.2229  0.3070  1.7201
   59SAPC  C313 4546   4.058   2.910   5.128 -0.1215 -0.3954 -0.3503
   59SAPC  H13X 4547   4.161   2.879   5.099  0.7679  1.4594  0.5976
   59SAPC  H13Y 4548   4.033   2.989   5.053  0.6646  1.7632  1.5529
   59SAPC  C314 4549   3.973   2.785   5.125 -0.3322 -0.7798 -0.1699
   59SAPC  H14X 4550   3.868   2.814   5.143 -0.7244 -1.8748 -0.5799
   59SAPC  H14Y 4551   4.002   2.719   5.210  3.1730  0.4049 -0.2906
   59SAPC  C315 4552   3.996   2.712   4.989  0.3389 -0.1643 -0.1387
   59SAPC  H15X 4553   4.094   2.660   4.992  1.3567  1.5055 -1.9601
   59SAPC  H15Y 4554   3.995   2.780   4.901 -0.8037  0.3923  0.2816
   59SAPC  C316 4555   3.885   2.609   4.968  0.5355 -0.1670  0.5279
   59SAPC  H16X 4556   3.798   2.673   4.944  2.2638  1.4938 -1.6475
   59SAPC  H16Y 4557   3.868   2.541   5.055  2.1135 -0.2745  0.7848
   59SAPC  C317 4558   3.924   2.531   4.838  0.0703  0.0382 -0.0583
   59SAPC  H17X 4559   4.018   2.471   4.838  0.4674  0.5869  1.9500
   59SAPC  H17Y 4560   3.931   2.607   4.757  0.6729  0.1872  0.1273
   59SAPC  C318 4561   3.810   2.434   4.806 -0.3526 -0.5486  0.4906
   59SAPC  H18X 4562   3.821   2.399   4.701  1.6557  2.5714 -0.4773
   59SAPC  H18Y 4563   3.720   2.498   4.808 -0.6610 -0.9657  0.0558
   59SAPC  H18Z 4564   3.798   2.356   4.884  1.1679 -2.3796 -1.0117
   60SAPC     N 4565   4.734   4.255   6.637 -0.2708  0.0368 -0.4518
   60SAPC   C12 4566   4.848   4.346   6.604 -0.5504  0.1807 -0.1415
   60SAPC  H12A 4567   4.813   4.440   6.564  0.4192  0.8452  0.5218
   60SAPC  H12B 4568   4.908   4.316   6.518 -0.8004  1.8454 -0.9387
   60SAPC   C13 4569   4.657   4.229   6.518 -0.1560 -0.3616  0.6247
   60SAPC  H13A 4570   4.714   4.176   6.443 -1.9783 -1.2581 -0.1907
   60SAPC  H13B 4571   4.566   4.173   6.536 -1.2892  0.8048 -1.2230
   60SAPC  H13C 4572   4.626   4.323   6.475 -1.6944 -1.4595 -0.7880
   60SAPC   C14 4573   4.791   4.129   6.685  0.5504  0.1246 -0.4350
   60SAPC  H14A 4574   4.722   4.053   6.720 -0.1000  0.3282 -1.2503
   60SAPC  H14B 4575   4.851   4.077   6.613  0.8022 -1.3088  0.7558
   60SAPC  H14C 4576   4.859   4.153   6.765  0.4740 -0.2597 -0.2504
   60SAPC   C15 4577   4.647   4.315   6.743 -0.2356  0.4225 -0.7614
   60SAPC  H15A 4578   4.595   4.227   6.779  1.5591  0.4017  2.0800
   60SAPC  H15B 4579   4.700   4.363   6.824 -1.5930  0.7080 -0.0226
   60SAPC  H15C 4580   4.581   4.392   6.709  0.0515  0.7006 -0.6932
   60SAPC   C11 4581   4.943   4.394   6.715  0.3234 -0.2633 -0.5045
   60SAPC  H11A 4582   5.021   4.459   6.671  0.1717 -0.6817 -1.4135
   60SAPC  H11B 4583   5.001   4.306   6.750  1.3445  0.1546 -1.0938
   60SAPC     P 4584   4.831   4.619   6.795  0.0319 -0.3005  0.3658
   60SAPC   O13 4585   4.699   4.618   6.725 -0.1215  0.2467 -0.2051
   60SAPC   O14 4586   4.836   4.694   6.926  0.1504  0.2994  0.0885
   60SAPC   O12 4587   4.883   4.468   6.822 -0.5727 -0.2745  0.3319
   60SAPC   O11 4588   4.929   4.678   6.688  0.6415  0.3243 -0.5914
   60SAPC    C1 4589   4.894   4.808   6.628 -0.4994  0.0730 -0.3881
   60SAPC    HA 4590   4.796   4.796   6.575 -0.3708  0.4991 -0.7291
   60SAPC    HB 4591   4.895   4.888   6.704 -0.3509 -0.7801  0.5329
   60SAPC    C2 4592   5.002   4.854   6.527 -0.6798  0.0563  0.1618
   60SAPC    HS 4593   4.993   4.964   6.515  2.4526  0.4686  0.7164
   60SAPC   O21 4594   4.976   4.786   6.403  0.5136  0.1700 -0.2227
   60SAPC   C21 4595   4.924   4.861   6.306  0.4037  0.5081  0.1222
   60SAPC   O22 4596   4.924   4.982   6.304  0.4934  0.2818 -0.0145
   60SAPC   C22 4597   4.874   4.771   6.187 -0.1806  0.1281  0.4800
   60SAPC   H2R 4598   4.964   4.745   6.128 -0.0551 -1.0270  1.1536
   60SAPC   H2S 4599   4.849   4.685   6.253  0.4357  0.5644  1.2849
   60SAPC    C3 4600   5.147   4.840   6.584 -0.2858  0.5655 -0.0290
   60SAPC    HX 4601   5.160   4.750   6.647  1.3793  0.2225 -0.8101
   60SAPC    HY 4602   5.159   4.921   6.660 -0.4105  0.0493  0.5508
   60SAPC   O31 4603   5.250   4.826   6.480  0.5704 -0.1532 -1.2800
   60SAPC   C31 4604   5.296   4.949   6.434  0.2209 -0.1267  0.1302
   60SAPC   O32 4605   5.272   5.056   6.476 -0.5233 -0.2646  0.5424
   60SAPC   C32 4606   5.384   4.917   6.316 -0.1562  1.2165 -0.6828
   60SAPC   H2X 4607   5.357   4.817   6.276 -1.0043  1.1112  0.1254
   60SAPC   H2Y 4608   5.487   4.906   6.356 -0.9177  0.1500  1.1048
   60SAPC   C23 4609   4.765   4.847   6.113 -0.1574 -0.1090  0.4768
   60SAPC   H3R 4610   4.813   4.946   6.098  2.0490 -0.9982  1.1944
   60SAPC   H3S 4611   4.669   4.856   6.168 -0.5691  2.2515 -0.5242
   60SAPC   C24 4612   4.731   4.781   5.974 -0.1456  0.2849  0.4358
   60SAPC   H4R 4613   4.818   4.782   5.905 -0.4101  0.9452  0.1000
   60SAPC   H4S 4614   4.657   4.854   5.936  1.3900  2.6109  1.6855
   60SAPC   C25 4615   4.677   4.639   5.983 -0.0250 -0.2831  0.8301
   60SAPC   H5R 4616   4.702   4.599   6.082 -3.0896  4.0852  3.7682
   60SAPC   C26 4617   4.610   4.576   5.885 -0.3956 -0.3448 -0.2395
   60SAPC   H6R 4618   4.563   4.478   5.901 -0.2270 -1.0767 -3.5971
   60SAPC   C27 4619   4.570   4.620   5.747 -0.4674 -0.0311  0.6407
   60SAPC   H7R 4620   4.591   4.542   5.670 -2.7338  0.9776 -1.1094
   60SAPC   H7S 4621   4.636   4.704   5.716 -0.2353 -0.1216  0.8881
   60SAPC   C28 4622   4.424   4.654   5.724 -0.1992  1.0991 -0.1349
   60SAPC   H8R 4623   4.394   4.758   5.744 -0.4236  0.9660  0.2263
   60SAPC   C29 4624   4.327   4.566   5.680  0.0473  0.5003 -0.2402
   60SAPC   H9R 4625   4.228   4.606   5.655  0.6538  1.5188 -1.0642
   60SAPC  C210 4626   4.335   4.420   5.655 -0.3202 -0.4681 -0.3033
   60SAPC  H10R 4627   4.442   4.395   5.639 -0.1217  0.0182  0.2279
   60SAPC  H10S 4628   4.281   4.399   5.560  1.6433  0.2096 -1.6422
   60SAPC  C211 4629   4.271   4.333   5.766 -0.5005  0.5280 -0.1573
   60SAPC  H11R 4630   4.249   4.394   5.855  1.3564  1.2772 -0.1664
   60SAPC  C212 4631   4.253   4.201   5.757 -0.7119 -0.6907 -0.2329
   60SAPC  H12R 4632   4.210   4.145   5.841 -3.0645  1.1616 -0.0930
   60SAPC  C213 4633   4.291   4.120   5.638 -0.2835  0.1838  0.2966
   60SAPC  H13R 4634   4.384   4.070   5.671  0.6021  1.1287 -0.6946
   60SAPC  H13S 4635   4.313   4.186   5.551  2.6107 -1.1146 -0.0774
   60SAPC  C214 4636   4.180   4.033   5.596  0.4149  0.7198  0.1972
   60SAPC  H14R 4637   4.108   4.094   5.541  0.0642  0.8197  0.7572
   60SAPC  C215 4638   4.145   3.903   5.610 -0.2399 -0.0827 -0.4032
   60SAPC  H15R 4639   4.051   3.863   5.569 -1.0900  1.6912 -0.2717
   60SAPC  C216 4640   4.231   3.811   5.689 -1.1683  0.2614 -0.2955
   60SAPC  H16R 4641   4.177   3.714   5.687 -0.1908 -0.2879 -0.6674
   60SAPC  H16S 4642   4.233   3.832   5.798 -0.8900 -1.1561 -0.0165
   60SAPC  C217 4643   4.378   3.772   5.643  0.0846 -0.3373 -0.4597
   60SAPC  H17R 4644   4.431   3.720   5.726 -0.3247 -1.0277 -0.6327
   60SAPC  H17S 4645   4.432   3.870   5.638  1.6716 -1.2343 -1.7618
   60SAPC  C218 4646   4.389   3.719   5.496 -0.3862  0.0236 -0.0484
   60SAPC  H18R 4647   4.336   3.803   5.447  1.1238  0.2954 -1.3040
   60SAPC  H18S 4648   4.335   3.624   5.477  0.5497 -0.8114  1.2258
   60SAPC  C219 4649   4.537   3.708   5.457  0.5186  0.0239 -0.3686
   60SAPC  H19R 4650   4.541   3.630   5.378  1.3210  0.3765 -0.6842
   60SAPC  H19S 4651   4.590   3.676   5.549  1.2096 -0.2692 -0.8584
   60SAPC  C220 4652   4.617   3.839   5.423  0.2668  0.1365 -0.4994
   60SAPC  H20R 4653   4.555   3.913   5.368  0.9997  0.2288 -1.2369
   60SAPC  H20S 4654   4.706   3.818   5.359  0.8835 -0.2189  0.4566
   60SAPC  H20T 4655   4.654   3.887   5.516 -1.7988  0.5328  0.1542
   60SAPC   C33 4656   5.377   5.009   6.193 -0.2462 -0.9679 -0.1289
   60SAPC   H3X 4657   5.451   4.975   6.117  1.4222 -0.5942  1.2725
   60SAPC   H3Y 4658   5.409   5.109   6.229 -1.9251  0.1337 -1.5100
   60SAPC   C34 4659   5.231   5.029   6.134 -0.4658 -0.3352  0.2946
   60SAPC   H4X 4660   5.239   5.122   6.073  0.0875 -0.3644  0.3183
   60SAPC   H4Y 4661   5.155   5.045   6.215  0.0479  0.9916  0.5394
   60SAPC   C35 4662   5.168   4.912   6.055 -0.3981  0.0471  0.3262
   60SAPC   H5X 4663   5.059   4.935   6.055 -0.5966 -0.8405  1.0674
   60SAPC   H5Y 4664   5.190   4.818   6.110 -1.2052  1.0357  2.4459
   60SAPC   C36 4665   5.213   4.893   5.906 -0.2343  0.2235  0.1508
   60SAPC   H6X 4666   5.318   4.861   5.893 -0.5927 -0.9292  0.0193
   60SAPC   H6Y 4667   5.190   4.991   5.858  1.9479  0.6773 -0.0715
   60SAPC   C37 4668   5.138   4.781   5.831 -0.8394 -0.8776  0.5632
   60SAPC   H7X 4669   5.032   4.785   5.865 -0.8782  2.0800  0.3657
   60SAPC   H7Y 4670   5.162   4.683   5.877 -2.3975 -1.2217  0.6937
   60SAPC   C38 4671   5.146   4.798   5.678 -1.1960 -0.4151 -0.3690
   60SAPC   H8X 4672   5.253   4.799   5.647 -1.3015 -0.7162 -0.7541
   60SAPC   H8Y 4673   5.094   4.890   5.643 -1.4580 -1.0703 -1.7562
   60SAPC   C39 4674   5.086   4.679   5.612 -0.1610 -0.4489 -0.1108
   60SAPC   H9X 4675   4.976   4.678   5.618 -0.2538  2.3188  0.1053
   60SAPC   H9Y 4676   5.127   4.588   5.660  1.1566 -0.7823 -1.7806
   60SAPC  C310 4677   5.130   4.662   5.463  0.0959  0.3232  0.2001
   60SAPC  H10X 4678   5.239   4.679   5.461  0.0412  0.6377 -1.1530
   60SAPC  H10Y 4679   5.095   4.738   5.389 -0.4396  0.1491  0.2706
   60SAPC  C311 4680   5.099   4.519   5.416 -0.2067  0.4965  0.3871
   60SAPC  H11X 4681   4.990   4.500   5.420 -0.5813  1.8906 -1.7437
   60SAPC  H11Y 4682   5.152   4.445   5.481  1.5115 -0.0568 -1.5633
   60SAPC  C312 4683   5.137   4.480   5.276 -0.4523  0.3550  0.3126
   60SAPC  H12X 4684   5.106   4.375   5.258  2.4046 -0.5624  0.3289
   60SAPC  H12Y 4685   5.243   4.503   5.254 -0.6670  0.0834 -1.1026
   60SAPC  C313 4686   5.062   4.561   5.170  0.4088  0.2892  0.1452
   60SAPC  H13X 4687   5.115   4.659   5.172 -1.3883  1.2862  0.4781
   60SAPC  H13Y 4688   4.958   4.574   5.206 -0.7713 -1.4558 -2.3502
   60SAPC  C314 4689   5.058   4.502   5.029 -0.0744  0.6977  0.2915
   60SAPC  H14X 4690   4.992   4.413   5.022  2.7897 -1.4584 -1.2530
   60SAPC  H14Y 4691   5.159   4.465   5.003 -0.3430 -1.1249  1.5938
   60SAPC  C315 4692   5.014   4.613   4.936 -0.2428  0.6157  0.2381
   60SAPC  H15X 4693   5.073   4.705   4.955 -1.1816  1.5962 -1.3928
   60SAPC  H15Y 4694   4.910   4.644   4.960 -1.3974 -0.3212 -3.1367
   60SAPC  C316 4695   5.025   4.583   4.785  0.1831  0.6334 -0.3014
   60SAPC  H16X 4696   4.951   4.506   4.754 -0.4274  2.1443 -2.9205
   60SAPC  H16Y 4697   5.124   4.536   4.764 -0.6360 -0.4298 -1.9478
   60SAPC  C317 4698   5.001   4.699   4.691  0.2828 -0.1041 -0.9595
   60SAPC  H17X 4699   5.098   4.752   4.678  1.0351 -1.2793 -0.3579
   60SAPC  H17Y 4700   4.920   4.761   4.735 -0.7695 -2.0473 -0.0343
   60SAPC  C318 4701   4.978   4.651   4.555  0.3529  0.3426 -0.1698
   60SAPC  H18X 4702   4.991   4.725   4.473 -0.6300  0.0907 -0.5714
   60SAPC  H18Y 4703   4.878   4.605   4.545  1.0223 -0.9770 -1.2771
   60SAPC  H18Z 4704   5.044   4.565   4.528  0.2909  0.3477 -0.3406
   61SAPC     N 4705   3.522   4.956   6.629 -0.4140  0.0177 -0.9820
   61SAPC   C12 4706   3.380   4.938   6.581 -0.0542  0.0648 -0.1888
   61SAPC  H12A 4707   3.312   4.971   6.657  0.2806  0.2240  0.0453
   61SAPC  H12B 4708   3.364   4.831   6.573  2.8580 -0.3419 -2.4874
   61SAPC   C13 4709   3.540   4.915   6.769 -0.5297  0.6242 -0.3771
   61SAPC  H13A 4710   3.508   4.813   6.788 -0.8867  0.6674 -0.7363
   61SAPC  H13B 4711   3.643   4.921   6.801 -1.4551 -0.7067  3.4140
   61SAPC  H13C 4712   3.489   4.989   6.828 -2.3488 -0.3440 -0.6811
   61SAPC   C14 4713   3.610   4.860   6.551  0.2317  0.1516 -0.2771
   61SAPC  H14A 4714   3.603   4.889   6.448  0.8765 -2.3498 -1.0889
   61SAPC  H14B 4715   3.716   4.872   6.571  0.3279 -1.7651  0.5752
   61SAPC  H14C 4716   3.585   4.755   6.559 -2.9418  0.8215 -0.2916
   61SAPC   C15 4717   3.572   5.099   6.619  0.3356  0.0109 -0.1652
   61SAPC  H15A 4718   3.677   5.112   6.644 -0.2548  0.1082  2.6820
   61SAPC  H15B 4719   3.559   5.142   6.521  1.0627  3.0826  0.9889
   61SAPC  H15C 4720   3.518   5.175   6.672 -1.6235  0.3692 -2.5444
   61SAPC   C11 4721   3.344   5.006   6.444  0.3728  0.2658  0.5239
   61SAPC  H11A 4722   3.247   4.962   6.411  1.3295  0.2261 -2.4747
   61SAPC  H11B 4723   3.417   4.980   6.365  0.4532  0.9975  0.3498
   61SAPC     P 4724   3.382   5.256   6.368  0.1291  0.1767 -0.1714
   61SAPC   O13 4725   3.315   5.382   6.413 -0.4467 -0.0817  0.2868
   61SAPC   O14 4726   3.528   5.247   6.351 -0.7150 -0.6380  0.2697
   61SAPC   O12 4727   3.333   5.142   6.464  0.3339 -0.2670  0.6028
   61SAPC   O11 4728   3.322   5.218   6.227  0.4172  0.0768  0.4366
   61SAPC    C1 4729   3.406   5.136   6.138 -0.3878  0.1543  0.5256
   61SAPC    HA 4730   3.495   5.082   6.176 -0.4270 -0.0451  0.3356
   61SAPC    HB 4731   3.352   5.049   6.094 -0.8152  1.3090 -1.3410
   61SAPC    C2 4732   3.453   5.217   6.016  0.4615 -0.4595 -0.0862
   61SAPC    HS 4733   3.483   5.320   6.044  0.8036 -0.8074  0.8818
   61SAPC   O21 4734   3.343   5.213   5.924  0.0367 -0.4369 -0.4601
   61SAPC   C21 4735   3.260   5.318   5.947  0.2860 -0.5720 -0.7399
   61SAPC   O22 4736   3.289   5.418   6.008  0.4589  0.1489 -0.3000
   61SAPC   C22 4737   3.139   5.295   5.857  0.0072  0.0292 -0.4075
   61SAPC   H2R 4738   3.161   5.215   5.784  0.0899  0.2476 -0.6243
   61SAPC   H2S 4739   3.066   5.264   5.934  0.3925 -3.2630 -1.2438
   61SAPC    C3 4740   3.575   5.154   5.940  0.2469 -0.3961  0.7391
   61SAPC    HX 4741   3.547   5.047   5.948  0.0063 -0.4717 -0.7519
   61SAPC    HY 4742   3.674   5.164   5.988  0.4949  0.3092  0.1130
   61SAPC   O31 4743   3.575   5.197   5.803  0.1426 -0.5794 -0.9485
   61SAPC   C31 4744   3.588   5.322   5.770 -0.3639 -0.1942 -0.4531
   61SAPC   O32 4745   3.616   5.415   5.840 -0.1438  0.0133 -0.1111
   61SAPC   C32 4746   3.553   5.341   5.621 -0.4454  0.4171 -0.0102
   61SAPC   H2X 4747   3.642   5.332   5.554 -0.3773 -2.0539  0.3266
   61SAPC   H2Y 4748   3.526   5.448   5.609  2.5490  1.4358  1.2810
   61SAPC   C23 4749   3.090   5.421   5.779 -0.1384  0.0365 -0.5435
   61SAPC   H3R 4750   3.180   5.465   5.730 -0.7183  2.6357  0.5822
   61SAPC   H3S 4751   3.054   5.496   5.852  0.3909 -0.9788  0.7931
   61SAPC   C24 4752   2.976   5.383   5.686  0.6608 -0.2786  0.1613
   61SAPC   H4R 4753   2.930   5.482   5.663 -1.3870 -1.3893 -0.7066
   61SAPC   H4S 4754   2.902   5.334   5.753 -0.9694  1.3379 -0.3905
   61SAPC   C25 4755   3.009   5.321   5.552 -0.1088 -0.2305 -0.2470
   61SAPC   H5R 4756   3.038   5.215   5.560 -0.6973 -0.3369  0.6563
   61SAPC   C26 4757   2.998   5.373   5.430  0.6560  0.0352 -0.2185
   61SAPC   H6R 4758   3.033   5.314   5.344 -0.0501  2.0280 -1.9597
   61SAPC   C27 4759   2.966   5.511   5.390  0.1666 -0.3366  0.3416
   61SAPC   H7R 4760   2.885   5.559   5.449  0.4696  1.6533 -0.7890
   61SAPC   H7S 4761   2.929   5.506   5.285 -0.6572  0.4204  0.5860
   61SAPC   C28 4762   3.086   5.604   5.395  0.1843 -0.5518  0.2080
   61SAPC   H8R 4763   3.118   5.620   5.500 -0.4673  0.4299  0.2749
   61SAPC   C29 4764   3.151   5.655   5.283 -0.2485  0.2962 -0.7118
   61SAPC   H9R 4765   3.227   5.733   5.297 -0.6999  0.3120  2.1826
   61SAPC  C210 4766   3.110   5.635   5.138  0.4606 -0.2543 -0.3497
   61SAPC  H10R 4767   3.004   5.668   5.132  0.6358  0.3189 -0.3448
   61SAPC  H10S 4768   3.110   5.526   5.117 -1.8213 -0.1753 -0.9732
   61SAPC  C211 4769   3.197   5.698   5.033 -0.1846 -0.2148  0.5982
   61SAPC  H11R 4770   3.269   5.625   4.991 -0.5018 -1.2486  1.7738
   61SAPC  C212 4771   3.190   5.827   4.996 -1.0458 -0.6411  0.2757
   61SAPC  H12R 4772   3.244   5.858   4.906 -0.1852  2.7441  1.7794
   61SAPC  C213 4773   3.113   5.938   5.057  0.4748  0.8942  0.2280
   61SAPC  H13R 4774   3.043   5.895   5.132  2.4988 -0.8803  1.2074
   61SAPC  H13S 4775   3.057   5.991   4.977  1.8801  3.1112  0.6578
   61SAPC  C214 4776   3.198   6.036   5.132 -0.4714 -0.6808  0.2520
   61SAPC  H14R 4777   3.287   6.067   5.075 -1.1533  1.0637  0.0436
   61SAPC  C215 4778   3.177   6.087   5.253  0.1312 -0.5721  0.2917
   61SAPC  H15R 4779   3.247   6.160   5.295  0.1706  0.4012 -1.3933
   61SAPC  C216 4780   3.063   6.053   5.349 -0.0287 -0.1394  0.2895
   61SAPC  H16R 4781   3.062   5.942   5.361  2.2617 -0.0901  1.5928
   61SAPC  H16S 4782   2.968   6.095   5.309 -0.7636 -0.5568  1.5550
   61SAPC  C217 4783   3.081   6.108   5.485  0.2138 -0.0203  0.1410
   61SAPC  H17R 4784   3.092   6.218   5.474  0.7149 -0.2354 -1.8287
   61SAPC  H17S 4785   3.183   6.093   5.525  1.1392  0.8529 -1.7896
   61SAPC  C218 4786   2.961   6.067   5.569  0.1017 -0.7238  0.3435
   61SAPC  H18R 4787   2.974   5.957   5.581 -2.5384 -1.0620  0.7783
   61SAPC  H18S 4788   2.870   6.089   5.508  2.0043 -0.5207 -2.6181
   61SAPC  C219 4789   2.958   6.151   5.694  0.4593 -0.1105 -0.9285
   61SAPC  H19R 4790   2.867   6.115   5.746 -0.4400  0.7618 -1.8450
   61SAPC  H19S 4791   2.932   6.255   5.663 -0.6130 -0.6857 -2.0666
   61SAPC  C220 4792   3.073   6.135   5.782 -0.3588 -0.7500  0.7881
   61SAPC  H20R 4793   3.045   6.178   5.881 -0.7626  0.9176 -0.0122
   61SAPC  H20S 4794   3.163   6.191   5.748 -1.0028  0.4863  1.0515
   61SAPC  H20T 4795   3.100   6.029   5.801 -3.0664 -1.2690  2.0685
   61SAPC   C33 4796   3.455   5.242   5.577  0.5305 -0.2236  0.6098
   61SAPC   H3X 4797   3.372   5.214   5.645  0.9008 -0.0847  1.1218
   61SAPC   H3Y 4798   3.507   5.144   5.570 -0.2033 -0.5511 -0.7144
   61SAPC   C34 4799   3.381   5.277   5.446  0.0359 -0.2367  0.6882
   61SAPC   H4X 4800   3.335   5.377   5.463  1.1645  0.1802  1.4158
   61SAPC   H4Y 4801   3.304   5.198   5.431 -0.2122  0.0986  0.1480
   61SAPC   C35 4802   3.472   5.284   5.328  0.3500 -0.8142 -0.2642
   61SAPC   H5X 4803   3.516   5.186   5.301  1.0754  0.0124 -2.3321
   61SAPC   H5Y 4804   3.557   5.355   5.339  1.8666 -2.7009  0.8818
   61SAPC   C36 4805   3.395   5.326   5.204  0.1153 -0.3450  0.3217
   61SAPC   H6X 4806   3.389   5.437   5.203 -1.2923 -0.3826  1.5946
   61SAPC   H6Y 4807   3.291   5.289   5.207  0.1569 -0.5463 -0.5253
   61SAPC   C37 4808   3.457   5.277   5.071  0.6305  0.0157 -0.1753
   61SAPC   H7X 4809   3.449   5.167   5.058 -0.9010  0.1396 -0.6060
   61SAPC   H7Y 4810   3.564   5.304   5.077  1.2708 -2.2901 -0.2805
   61SAPC   C38 4811   3.401   5.343   4.945  0.0124  0.6290  0.1509
   61SAPC   H8X 4812   3.486   5.356   4.874 -0.9064 -0.4114 -1.1738
   61SAPC   H8Y 4813   3.367   5.446   4.968  3.2105  2.1719 -1.3260
   61SAPC   C39 4814   3.292   5.262   4.880  0.3194 -0.6969 -0.4152
   61SAPC   H9X 4815   3.207   5.259   4.952 -1.1039  1.5052 -1.8640
   61SAPC   H9Y 4816   3.313   5.157   4.848 -2.8736 -2.0215  1.3131
   61SAPC  C310 4817   3.239   5.342   4.756  1.2386 -0.0390  0.2121
   61SAPC  H10X 4818   3.308   5.337   4.670 -1.6966 -0.4245 -2.2788
   61SAPC  H10Y 4819   3.235   5.450   4.784  0.8519  1.0718 -3.5894
   61SAPC  C311 4820   3.103   5.288   4.708 -0.3389 -0.1054 -0.0870
   61SAPC  H11X 4821   3.025   5.335   4.772 -1.6224 -0.6118 -1.2439
   61SAPC  H11Y 4822   3.108   5.177   4.715  0.4846 -0.1137 -0.6475
   61SAPC  C312 4823   3.071   5.319   4.566  0.1155  0.0092  0.1925
   61SAPC  H12X 4824   3.163   5.342   4.508 -0.6851  1.2041 -0.6417
   61SAPC  H12Y 4825   3.001   5.405   4.570  1.0827  0.9206 -1.3679
   61SAPC  C313 4826   3.004   5.202   4.484  0.3410 -0.2775 -0.5250
   61SAPC  H13X 4827   3.078   5.120   4.478  0.2912 -0.1911 -3.2502
   61SAPC  H13Y 4828   2.994   5.248   4.384 -0.1766  0.4864 -0.1364
   61SAPC  C314 4829   2.866   5.144   4.535  0.2453 -0.5522  0.5129
   61SAPC  H14X 4830   2.796   5.229   4.552 -0.6160 -0.6098 -2.2040
   61SAPC  H14Y 4831   2.878   5.111   4.640  0.9931  2.1009  1.3338
   61SAPC  C315 4832   2.804   5.043   4.431 -0.4094  0.0340 -0.1002
   61SAPC  H15X 4833   2.882   4.968   4.409 -1.6392 -0.5581 -2.7805
   61SAPC  H15Y 4834   2.796   5.099   4.336 -3.0602  0.9144  0.5504
   61SAPC  C316 4835   2.681   4.965   4.468  0.0716 -0.0077 -0.0514
   61SAPC  H16X 4836   2.587   5.023   4.456 -0.2906 -0.5741 -0.0264
   61SAPC  H16Y 4837   2.678   4.945   4.577 -0.7499 -0.4480 -0.1411
   61SAPC  C317 4838   2.660   4.836   4.387 -0.0877  0.5093  0.1424
   61SAPC  H17X 4839   2.580   4.769   4.424 -0.4758 -0.7709 -2.7151
   61SAPC  H17Y 4840   2.751   4.776   4.409  0.0635  0.7033  0.0527
   61SAPC  C318 4841   2.634   4.857   4.239 -0.9241  0.1611 -0.1952
   61SAPC  H18X 4842   2.633   4.762   4.181  1.6739  0.3689 -0.6634
   61SAPC  H18Y 4843   2.717   4.914   4.194 -1.5899  0.1555 -1.4573
   61SAPC  H18Z 4844   2.543   4.919   4.223 -1.9559 -1.0574  0.6662
   62SAPC     N 4845   3.240   6.945   6.377 -0.6557  0.6660  0.3759
   62SAPC   C12 4846   3.374   6.967   6.297 -0.3201 -0.1591  0.2874
   62SAPC  H12A 4847   3.384   7.072   6.274  2.2386 -0.6343 -1.0931
   62SAPC  H12B 4848   3.366   6.913   6.204 -1.4806  0.0678  0.2299
   62SAPC   C13 4849   3.131   6.959   6.286 -0.2727  0.0815 -0.0658
   62SAPC  H13A 4850   3.128   7.059   6.247 -0.6570  1.1640  2.5494
   62SAPC  H13B 4851   3.141   6.890   6.203 -4.7865 -0.1175 -0.6661
   62SAPC  H13C 4852   3.042   6.920   6.333  0.9021 -2.2717  0.3764
   62SAPC   C14 4853   3.240   6.807   6.437  0.0467  0.4076 -0.0682
   62SAPC  H14A 4854   3.291   6.737   6.372  0.2528 -1.4062  1.9408
   62SAPC  H14B 4855   3.295   6.808   6.530  0.0911  1.6323 -0.0970
   62SAPC  H14C 4856   3.141   6.772   6.462  0.1775 -1.2914 -1.6296
   62SAPC   C15 4857   3.231   7.043   6.483  0.9257  0.5940 -0.0251
   62SAPC  H15A 4858   3.202   7.138   6.441 -1.0526 -0.8390 -2.2409
   62SAPC  H15B 4859   3.162   7.022   6.564 -1.1597  1.3909 -1.5082
   62SAPC  H15C 4860   3.327   7.059   6.529  0.6159  0.4079  0.7061
   62SAPC   C11 4861   3.508   6.935   6.370 -0.7931 -1.1818 -0.0039
   62SAPC  H11A 4862   3.593   6.919   6.300 -2.1411  1.9982 -2.6555
   62SAPC  H11B 4863   3.483   6.841   6.424 -1.4544 -0.9688  0.0792
   62SAPC     P 4864   3.617   7.159   6.400 -0.2357 -0.2391 -0.1961
   62SAPC   O13 4865   3.602   7.269   6.500 -0.0975  0.0886  0.3859
   62SAPC   O14 4866   3.751   7.110   6.371  0.3122  0.1150 -0.2497
   62SAPC   O12 4867   3.538   7.040   6.462  0.0418  0.3331  0.5521
   62SAPC   O11 4868   3.540   7.214   6.272 -0.6497  0.3825 -0.0050
   62SAPC    C1 4869   3.446   7.324   6.281 -0.7887  0.5165 -0.0255
   62SAPC    HA 4870   3.392   7.331   6.378 -0.0654  0.1379  0.4100
   62SAPC    HB 4871   3.505   7.416   6.261  1.1361 -0.1634  2.2064
   62SAPC    C2 4872   3.343   7.320   6.167  0.4820  0.2086  0.0437
   62SAPC    HS 4873   3.293   7.221   6.169  1.7699 -0.4638  0.0960
   62SAPC   O21 4874   3.406   7.324   6.037  0.6220  0.2168 -0.0296
   62SAPC   C21 4875   3.439   7.209   5.973  0.2375 -0.4277 -0.1577
   62SAPC   O22 4876   3.410   7.096   6.006  0.0796 -0.2957 -0.0121
   62SAPC   C22 4877   3.524   7.247   5.847  0.6768 -0.1144  0.0723
   62SAPC   H2R 4878   3.560   7.352   5.855 -0.3366  0.1022  4.3943
   62SAPC   H2S 4879   3.608   7.176   5.835 -0.1799 -0.9386 -1.2899
   62SAPC    C3 4880   3.231   7.425   6.188 -0.3716 -0.0070  0.8181
   62SAPC    HX 4881   3.269   7.529   6.185  0.1854 -0.1623  2.0250
   62SAPC    HY 4882   3.195   7.409   6.292 -0.8870 -0.1592  0.6217
   62SAPC   O31 4883   3.126   7.416   6.089 -0.2599  0.1548 -0.3134
   62SAPC   C31 4884   3.036   7.319   6.100 -1.3425 -0.1066 -0.1915
   62SAPC   O32 4885   3.037   7.219   6.170 -0.1136 -0.0337 -0.1558
   62SAPC   C32 4886   2.930   7.341   5.997  0.5945 -0.1996  0.0452
   62SAPC   H2X 4887   2.848   7.403   6.040 -0.9112 -0.7528 -1.8906
   62SAPC   H2Y 4888   2.871   7.251   5.971 -1.9868  2.0661 -2.6608
   62SAPC   C23 4889   3.430   7.232   5.722 -0.0258 -0.6005 -0.5090
   62SAPC   H3R 4890   3.477   7.275   5.631 -0.2100 -1.2820 -0.9380
   62SAPC   H3S 4891   3.345   7.301   5.741 -0.7488 -1.9726  1.6192
   62SAPC   C24 4892   3.391   7.090   5.681 -0.2951  1.5050  0.1527
   62SAPC   H4R 4893   3.337   7.115   5.586 -1.4094 -0.3525  0.2579
   62SAPC   H4S 4894   3.329   7.038   5.756  0.2444  0.6416  0.0102
   62SAPC   C25 4895   3.510   6.999   5.666 -0.2332  0.0780  0.3288
   62SAPC   H5R 4896   3.551   6.950   5.756 -0.4216 -0.5529  0.0764
   62SAPC   C26 4897   3.578   6.987   5.552  0.0061 -1.1423 -0.0070
   62SAPC   H6R 4898   3.660   6.914   5.545  0.4010 -0.6824 -0.3523
   62SAPC   C27 4899   3.535   7.039   5.418  0.3043 -0.1531  0.8284
   62SAPC   H7R 4900   3.619   7.085   5.362  1.2006  0.3478  2.4910
   62SAPC   H7S 4901   3.449   7.109   5.425 -2.0075 -2.5298 -1.5854
   62SAPC   C28 4902   3.478   6.934   5.327  0.9850 -0.1773  0.1520
   62SAPC   H8R 4903   3.387   6.888   5.368 -0.1293  0.4427 -1.5267
   62SAPC   C29 4904   3.516   6.891   5.205  0.1382  0.1311 -0.8216
   62SAPC   H9R 4905   3.468   6.807   5.154  0.1710  1.5661 -3.3601
   62SAPC  C210 4906   3.634   6.942   5.129 -0.0417  0.1384 -0.3829
   62SAPC  H10R 4907   3.723   6.887   5.166  1.2507  0.3654 -2.8762
   62SAPC  H10S 4908   3.662   7.045   5.159 -1.3063  0.4301 -0.1388
   62SAPC  C211 4909   3.620   6.936   4.980  0.6496  0.2265  0.8182
   62SAPC  H11R 4910   3.523   6.947   4.930  1.9865 -2.4789 -2.9080
   62SAPC  C212 4911   3.732   6.928   4.904  0.2480 -0.6835  1.4976
   62SAPC  H12R 4912   3.715   6.940   4.796  2.1114  2.0850  1.4046
   62SAPC  C213 4913   3.874   6.902   4.944 -0.8554  0.3986  0.3487
   62SAPC  H13R 4914   3.937   6.860   4.863 -0.3255 -1.0842  1.4758
   62SAPC  H13S 4915   3.876   6.823   5.023 -3.1271 -0.4298 -0.3405
   62SAPC  C214 4916   3.947   7.025   4.999 -0.2794  0.0632  0.0102
   62SAPC  H14R 4917   3.955   7.029   5.109  1.0189 -0.3214 -0.0485
   62SAPC  C215 4918   4.004   7.117   4.923 -0.4596 -0.7162 -0.3327
   62SAPC  H15R 4919   4.060   7.199   4.971  1.1618 -2.5965  1.1282
   62SAPC  C216 4920   4.003   7.118   4.776  0.5697 -1.2034  0.0928
   62SAPC  H16R 4921   3.993   7.017   4.729  1.2655 -0.3935 -1.9103
   62SAPC  H16S 4922   4.101   7.157   4.741  1.4343  0.4764  3.9662
   62SAPC  C217 4923   3.886   7.200   4.721  0.4329  0.3370 -0.0047
   62SAPC  H17R 4924   3.905   7.304   4.757  1.3271 -0.4590  1.9840
   62SAPC  H17S 4925   3.790   7.173   4.771  0.3343  2.0442  0.8040
   62SAPC  C218 4926   3.870   7.195   4.574 -0.1595  0.2375 -0.2603
   62SAPC  H18R 4927   3.843   7.091   4.546  0.5351 -0.5748  1.8853
   62SAPC  H18S 4928   3.959   7.236   4.522  1.4043  0.0347  2.0954
   62SAPC  C219 4929   3.754   7.281   4.531  0.5467  0.6519 -0.6525
   62SAPC  H19R 4930   3.770   7.391   4.541 -1.3763  0.8072  1.8871
   62SAPC  H19S 4931   3.668   7.267   4.600  1.8845 -0.8809  0.7928
   62SAPC  C220 4932   3.716   7.266   4.385 -0.2020 -0.2258 -0.8308
   62SAPC  H20R 4933   3.634   7.336   4.359  1.0190  1.2072 -0.9150
   62SAPC  H20S 4934   3.668   7.166   4.377  0.9893 -0.7929 -1.1422
   62SAPC  H20T 4935   3.800   7.288   4.316 -0.4666 -0.0358 -1.0947
   62SAPC   C33 4936   2.982   7.377   5.854  0.2457 -0.6485  0.0759
   62SAPC   H3X 4937   3.084   7.335   5.838  0.6973 -0.4201  2.1646
   62SAPC   H3Y 4938   3.001   7.487   5.854 -0.0136 -0.5974 -0.6357
   62SAPC   C34 4939   2.885   7.340   5.739 -0.2021 -0.5258 -0.6527
   62SAPC   H4X 4940   2.812   7.422   5.759 -1.3515 -2.0255  1.6855
   62SAPC   H4Y 4941   2.842   7.239   5.751 -2.9024  0.5884 -0.2742
   62SAPC   C35 4942   2.953   7.344   5.602 -0.1712  0.1353 -0.0954
   62SAPC   H5X 4943   3.018   7.255   5.595  1.5682  1.3280  0.1143
   62SAPC   H5Y 4944   3.021   7.429   5.578 -1.4707  1.5312  0.9346
   62SAPC   C36 4945   2.852   7.320   5.490  0.5129 -0.2020  0.5715
   62SAPC   H6X 4946   2.801   7.417   5.472  3.7795  1.2999 -1.4449
   62SAPC   H6Y 4947   2.774   7.246   5.518 -0.0141  0.0161 -0.2783
   62SAPC   C37 4948   2.917   7.278   5.361  0.1390  0.1793  0.1321
   62SAPC   H7X 4949   2.984   7.192   5.381 -0.0124 -0.3202 -1.3953
   62SAPC   H7Y 4950   2.978   7.364   5.326 -1.1209  0.8086 -0.5845
   62SAPC   C38 4951   2.825   7.259   5.241 -0.0841  0.4635  0.0162
   62SAPC   H8X 4952   2.741   7.330   5.241 -1.1916 -0.8080 -0.1562
   62SAPC   H8Y 4953   2.781   7.163   5.274  1.0359  0.8611  3.0071
   62SAPC   C39 4954   2.895   7.231   5.101 -0.0470  0.1728 -0.2589
   62SAPC   H9X 4955   2.979   7.160   5.117  1.1533  0.9626 -2.5010
   62SAPC   H9Y 4956   2.943   7.320   5.055 -1.8162  0.3283 -1.9598
   62SAPC  C310 4957   2.794   7.188   4.996 -0.0769 -0.1273 -0.9973
   62SAPC  H10X 4958   2.723   7.273   4.991  1.6713  1.4598 -0.0979
   62SAPC  H10Y 4959   2.749   7.092   5.029 -0.5089  0.7156  1.0056
   62SAPC  C311 4960   2.852   7.185   4.855 -0.8442 -0.4464 -0.0522
   62SAPC  H11X 4961   2.934   7.111   4.861 -0.6901 -0.1641  2.2982
   62SAPC  H11Y 4962   2.905   7.281   4.837 -0.8097 -0.4365  0.0980
   62SAPC  C312 4963   2.749   7.148   4.758 -0.3658 -0.3307  0.2633
   62SAPC  H12X 4964   2.675   7.232   4.761 -1.6067 -1.3618 -0.3648
   62SAPC  H12Y 4965   2.684   7.064   4.788 -0.4457 -0.5317 -0.4439
   62SAPC  C313 4966   2.782   7.140   4.611  0.4590 -0.1628 -0.1975
   62SAPC  H13X 4967   2.694   7.118   4.547 -0.0768  0.8830  0.1534
   62SAPC  H13Y 4968   2.844   7.047   4.607  0.7892 -0.1023  2.0339
   62SAPC  C314 4969   2.860   7.259   4.561  0.7543 -0.0651  0.1363
   62SAPC  H14X 4970   2.945   7.298   4.621 -1.3099  2.1067  1.8033
   62SAPC  H14Y 4971   2.794   7.347   4.547 -0.5318 -0.8825  0.8977
   62SAPC  C315 4972   2.930   7.231   4.429 -0.3208 -0.0565 -0.2733
   62SAPC  H15X 4973   2.996   7.146   4.456  0.0876  0.4712  0.4470
   62SAPC  H15Y 4974   3.008   7.309   4.412  1.4376 -1.3306  1.4209
   62SAPC  C316 4975   2.847   7.192   4.306  0.5247 -0.0769  0.5697
   62SAPC  H16X 4976   2.789   7.100   4.327  1.0029 -0.1182  1.8443
   62SAPC  H16Y 4977   2.917   7.163   4.225  0.3209 -1.2884  0.8095
   62SAPC  C317 4978   2.765   7.303   4.244  0.0413  0.3816 -0.5053
   62SAPC  H17X 4979   2.841   7.384   4.230 -1.0324  1.3251 -1.0461
   62SAPC  H17Y 4980   2.686   7.341   4.312  0.9584  0.3740  0.5981
   62SAPC  C318 4981   2.692   7.261   4.113 -0.8876 -0.3506  0.4929
   62SAPC  H18X 4982   2.683   7.360   4.063 -1.0560 -0.0626  1.0838
   62SAPC  H18Y 4983   2.591   7.217   4.125 -2.2854  1.8359 -2.1092
   62SAPC  H18Z 4984   2.767   7.191   4.070  0.4320 -0.0774  2.2638
   63SAPC     N 4985   5.459   3.297   6.733  0.2350 -0.5589 -0.3452
   63SAPC   C12 4986   5.384   3.281   6.607  0.3189 -0.0774 -0.1763
   63SAPC  H12A 4987   5.439   3.207   6.552 -1.5728 -1.9084  0.2944
   63SAPC  H12B 4988   5.394   3.376   6.555  2.8361 -0.9866 -1.5169
   63SAPC   C13 4989   5.458   3.170   6.815  0.0092 -0.1115  0.5880
   63SAPC  H13A 4990   5.499   3.181   6.915  0.5154  0.7621  0.2904
   63SAPC  H13B 4991   5.356   3.143   6.838  0.5444 -0.6848  2.5696
   63SAPC  H13C 4992   5.504   3.086   6.765 -2.4057 -0.8042 -0.6105
   63SAPC   C14 4993   5.601   3.344   6.718 -0.3825 -0.1805 -0.1308
   63SAPC  H14A 4994   5.657   3.251   6.724 -0.8750 -0.3607  2.4885
   63SAPC  H14B 4995   5.615   3.409   6.633 -0.1241 -0.2235 -0.1207
   63SAPC  H14C 4996   5.628   3.397   6.808 -0.0885 -0.5923  0.0245
   63SAPC   C15 4997   5.386   3.404   6.818 -0.0066 -0.3522 -0.7816
   63SAPC  H15A 4998   5.398   3.509   6.793 -1.2264  0.6693  2.4336
   63SAPC  H15B 4999   5.279   3.388   6.815 -0.0722  0.1119 -1.1327
   63SAPC  H15C 5000   5.423   3.395   6.919  0.5730 -1.3437 -1.0733
   63SAPC   C11 5001   5.242   3.225   6.612 -0.3858  1.0599 -0.5193
   63SAPC  H11A 5002   5.231   3.121   6.650  0.2181  1.4650  0.8315
   63SAPC  H11B 5003   5.217   3.218   6.504 -2.1909  2.2395 -0.2208
   63SAPC     P 5004   5.097   3.441   6.608 -0.2077  0.1556 -0.3398
   63SAPC   O13 5005   4.996   3.515   6.695 -0.0212  0.3770  0.0011
   63SAPC   O14 5006   5.216   3.522   6.568  0.4868  0.3352  0.1532
   63SAPC   O12 5007   5.148   3.305   6.686 -0.6044 -0.5100  0.6352
   63SAPC   O11 5008   5.035   3.375   6.467  0.0848  0.9624 -0.4659
   63SAPC    C1 5009   4.976   3.461   6.376  0.3745 -0.5983  0.5515
   63SAPC    HA 5010   4.885   3.509   6.418  0.6064 -0.8578  1.3778
   63SAPC    HB 5011   5.036   3.554   6.361 -0.9553  0.3011  0.6447
   63SAPC    C2 5012   4.940   3.391   6.240  0.2547  0.1883 -0.6558
   63SAPC    HS 5013   4.902   3.469   6.170  1.9474  2.0361  0.4002
   63SAPC   O21 5014   4.834   3.288   6.260  0.3953  0.4841 -0.3924
   63SAPC   C21 5015   4.706   3.327   6.226 -0.7418 -0.0142  0.4891
   63SAPC   O22 5016   4.682   3.438   6.177 -0.0467 -0.2302  0.4681
   63SAPC   C22 5017   4.610   3.214   6.233  0.7639  0.0371  0.2941
   63SAPC   H2R 5018   4.653   3.137   6.165 -2.1526 -2.8121  1.4140
   63SAPC   H2S 5019   4.600   3.174   6.336  0.8888  0.1959  0.3687
   63SAPC    C3 5020   5.055   3.320   6.167 -0.5139  0.4419  0.1763
   63SAPC    HX 5021   5.096   3.237   6.229  1.5159  0.4023 -1.1055
   63SAPC    HY 5022   5.134   3.396   6.144  0.5119 -0.9268 -1.0236
   63SAPC   O31 5023   5.009   3.256   6.045  0.1267  0.0006 -0.0596
   63SAPC   C31 5024   4.968   3.334   5.946 -0.4341  0.1207 -0.0330
   63SAPC   O32 5025   4.972   3.458   5.947 -0.5709 -0.1081  0.6686
   63SAPC   C32 5026   4.926   3.251   5.830  0.4813  0.6663 -0.3200
   63SAPC   H2X 5027   4.916   3.142   5.850 -0.4103  0.6729 -0.6488
   63SAPC   H2Y 5028   4.994   3.260   5.743 -0.1083 -0.8330 -0.9737
   63SAPC   C23 5029   4.475   3.256   6.164  0.3252  0.2548  0.7815
   63SAPC   H3R 5030   4.479   3.310   6.066  1.1153 -0.5496  0.3551
   63SAPC   H3S 5031   4.418   3.321   6.233 -0.4197 -1.0967  1.4627
   63SAPC   C24 5032   4.383   3.141   6.141  0.4220 -0.1900 -0.3065
   63SAPC   H4R 5033   4.285   3.182   6.109 -0.2913 -1.3415  0.3502
   63SAPC   H4S 5034   4.343   3.087   6.230  1.4330 -0.3580  0.0561
   63SAPC   C25 5035   4.442   3.042   6.051  0.3817 -0.5210 -0.6367
   63SAPC   H5R 5036   4.520   2.985   6.104 -0.7142 -0.7360  0.7864
   63SAPC   C26 5037   4.417   3.010   5.926 -0.4460 -0.6596  0.4775
   63SAPC   H6R 5038   4.465   2.923   5.877 -3.4239 -2.1252 -0.0984
   63SAPC   C27 5039   4.303   3.077   5.846  0.1549 -0.2064  0.4815
   63SAPC   H7R 5040   4.339   3.117   5.748 -1.7218  0.6040  0.0902
   63SAPC   H7S 5041   4.259   3.170   5.887 -2.8194 -0.8596 -1.0028
   63SAPC   C28 5042   4.191   2.975   5.814  0.2754 -0.5401 -0.3132
   63SAPC   H8R 5043   4.112   2.952   5.888  0.1220 -0.2127 -0.3714
   63SAPC   C29 5044   4.186   2.907   5.701 -1.1923 -0.8008 -0.5572
   63SAPC   H9R 5045   4.107   2.830   5.696  0.0366 -2.2098  0.6736
   63SAPC  C210 5046   4.269   2.917   5.571 -0.9250  0.2407  0.0355
   63SAPC  H10R 5047   4.345   2.994   5.596 -1.1590  0.2990  0.5909
   63SAPC  H10S 5048   4.221   2.959   5.481 -2.4563 -1.6794 -0.1139
   63SAPC  C211 5049   4.348   2.788   5.543  0.2295  0.7680  0.1912
   63SAPC  H11R 5050   4.354   2.718   5.627  1.8008  0.3290 -0.2618
   63SAPC  C212 5051   4.405   2.749   5.423 -0.6077 -0.4826 -0.2012
   63SAPC  H12R 5052   4.450   2.649   5.432 -3.4767 -1.8546  0.0760
   63SAPC  C213 5053   4.396   2.825   5.291 -0.4153 -0.2877  0.6986
   63SAPC  H13R 5054   4.422   2.930   5.314  2.0193 -0.4464 -0.9670
   63SAPC  H13S 5055   4.292   2.845   5.258 -0.2499  2.4073  1.6003
   63SAPC  C214 5056   4.480   2.766   5.179 -0.6891 -0.1672  0.0962
   63SAPC  H14R 5057   4.530   2.669   5.195  1.2277  0.8056  0.2708
   63SAPC  C215 5058   4.500   2.839   5.065  0.1811  0.0061  0.3775
   63SAPC  H15R 5059   4.544   2.785   4.980 -0.7551 -2.1748  1.2120
   63SAPC  C216 5060   4.452   2.981   5.032  0.1148 -0.7285 -0.6934
   63SAPC  H16R 5061   4.410   3.035   5.119 -0.1488  0.9818 -1.8151
   63SAPC  H16S 5062   4.381   2.966   4.947 -0.6869 -1.2969  0.0622
   63SAPC  C217 5063   4.559   3.074   4.974  0.0968 -0.6033  0.9215
   63SAPC  H17R 5064   4.625   3.023   4.900  0.0313 -0.0718  0.4982
   63SAPC  H17S 5065   4.620   3.106   5.062  1.3585 -1.9748  0.5957
   63SAPC  C218 5066   4.508   3.202   4.897  0.1753 -0.0641  0.0794
   63SAPC  H18R 5067   4.437   3.161   4.822  2.3022 -0.5827 -1.7718
   63SAPC  H18S 5068   4.602   3.243   4.855  1.9759 -1.2456  2.6601
   63SAPC  C219 5069   4.436   3.311   4.970  0.0114 -0.3883  0.4832
   63SAPC  H19R 5070   4.506   3.390   5.004 -0.5466 -0.4682  1.8970
   63SAPC  H19S 5071   4.401   3.264   5.065  2.3309 -1.6178  0.8027
   63SAPC  C220 5072   4.320   3.370   4.882  0.0258 -0.3234  0.3804
   63SAPC  H20R 5073   4.253   3.291   4.842  0.6147 -0.0361 -1.2343
   63SAPC  H20S 5074   4.364   3.424   4.796 -0.4614 -0.1484  0.2350
   63SAPC  H20T 5075   4.260   3.438   4.947 -0.2675  2.0647 -2.1724
   63SAPC   C33 5076   4.792   3.306   5.775 -0.0184 -0.0716 -0.2472
   63SAPC   H3X 5077   4.802   3.415   5.757 -1.4516  0.1088 -0.0657
   63SAPC   H3Y 5078   4.706   3.284   5.842 -0.5898 -1.4269 -1.3800
   63SAPC   C34 5079   4.765   3.250   5.642  0.1315 -0.3673  0.2461
   63SAPC   H4X 5080   4.749   3.140   5.639 -0.3581 -0.3013 -2.1827
   63SAPC   H4Y 5081   4.857   3.263   5.581  0.4730 -2.6122  0.2017
   63SAPC   C35 5082   4.647   3.326   5.585 -0.1257  0.2467  1.1541
   63SAPC   H5X 5083   4.671   3.434   5.579  0.0943  0.2372  1.7936
   63SAPC   H5Y 5084   4.558   3.321   5.651 -0.9993 -0.7463 -0.0429
   63SAPC   C36 5085   4.629   3.272   5.444  0.4585  0.0395  0.3724
   63SAPC   H6X 5086   4.529   3.301   5.407  0.8555  0.6589 -0.2368
   63SAPC   H6Y 5087   4.631   3.161   5.450  0.4474  0.0764  1.3432
   63SAPC   C37 5088   4.736   3.298   5.337  0.1572 -0.4038  0.7140
   63SAPC   H7X 5089   4.684   3.242   5.256  0.0316 -2.3522  2.0792
   63SAPC   H7Y 5090   4.830   3.240   5.353 -1.1722 -3.1319 -0.6116
   63SAPC   C38 5091   4.750   3.441   5.289 -0.0615 -0.3122 -0.2131
   63SAPC   H8X 5092   4.799   3.494   5.373 -0.4610 -0.2080 -0.0420
   63SAPC   H8Y 5093   4.652   3.492   5.273  0.2548  1.3082  2.4671
   63SAPC   C39 5094   4.828   3.468   5.161 -0.4764 -0.0158  0.8912
   63SAPC   H9X 5095   4.819   3.383   5.089  2.8205  0.2331  0.0499
   63SAPC   H9Y 5096   4.935   3.477   5.186 -0.4196  0.5119  0.4623
   63SAPC  C310 5097   4.801   3.605   5.093  0.0837  0.0578  0.2621
   63SAPC  H10X 5098   4.790   3.677   5.177 -0.0650 -1.5684  1.6893
   63SAPC  H10Y 5099   4.694   3.601   5.064  0.2427  2.0092 -0.7788
   63SAPC  C311 5100   4.884   3.639   4.974  0.0921 -0.3674  0.6596
   63SAPC  H11X 5101   4.994   3.638   4.989  0.0977 -3.2085  0.9628
   63SAPC  H11Y 5102   4.854   3.742   4.947  0.5311  0.0649  1.7809
   63SAPC  C312 5103   4.865   3.541   4.855  0.4117  0.5688 -0.1220
   63SAPC  H12X 5104   4.757   3.531   4.831 -0.4616 -1.1322  3.8531
   63SAPC  H12Y 5105   4.902   3.441   4.887 -2.9051 -0.9867 -0.6687
   63SAPC  C313 5106   4.955   3.564   4.730  0.2706  0.3487 -0.4258
   63SAPC  H13X 5107   5.057   3.536   4.763 -0.0064  0.9038  0.9629
   63SAPC  H13Y 5108   4.964   3.671   4.701  1.9105 -0.2771 -2.5011
   63SAPC  C314 5109   4.925   3.479   4.606  0.2594  0.6791 -0.5540
   63SAPC  H14X 5110   4.817   3.496   4.588  0.5295  2.5031 -0.6020
   63SAPC  H14Y 5111   4.954   3.372   4.618  1.5300  0.8484 -1.8497
   63SAPC  C315 5112   5.013   3.524   4.490 -0.0039 -0.4553  0.2544
   63SAPC  H15X 5113   5.119   3.521   4.523  0.0678  1.2280  0.2638
   63SAPC  H15Y 5114   4.981   3.623   4.451 -2.4160 -1.5525 -0.8000
   63SAPC  C316 5115   5.001   3.428   4.363  0.0227  0.1866  0.3426
   63SAPC  H16X 5116   5.033   3.327   4.396 -0.2940 -0.1252 -0.2844
   63SAPC  H16Y 5117   5.061   3.458   4.274 -3.0257  1.9760 -1.2818
   63SAPC  C317 5118   4.850   3.415   4.319  0.3148  0.2751 -0.0601
   63SAPC  H17X 5119   4.797   3.356   4.396  0.8676 -1.5765 -1.0504
   63SAPC  H17Y 5120   4.850   3.368   4.218  3.2457  0.5357 -0.2760
   63SAPC  C318 5121   4.772   3.547   4.315 -0.1753  0.7693 -0.6664
   63SAPC  H18X 5122   4.672   3.534   4.268 -1.4408 -0.3234  2.0966
   63SAPC  H18Y 5123   4.831   3.611   4.246  1.5920 -0.6617 -0.5679
   63SAPC  H18Z 5124   4.755   3.598   4.412  0.8596  0.3265 -0.2274
   64SAPC     N 5125   4.443   6.317   6.738  0.2333  0.0326 -0.1772
   64SAPC   C12 5126   4.374   6.282   6.602 -1.5790  0.9228 -0.0520
   64SAPC  H12A 5127   4.452   6.291   6.527  0.5447 -1.5962  1.6689
   64SAPC  H12B 5128   4.300   6.356   6.576 -3.3462 -0.4915  0.7082
   64SAPC   C13 5129   4.536   6.211   6.774 -0.0165 -0.2782 -0.4941
   64SAPC  H13A 5130   4.601   6.235   6.857 -0.4288 -1.0544  0.0730
   64SAPC  H13B 5131   4.484   6.123   6.811 -2.2232 -0.0209 -2.7558
   64SAPC  H13C 5132   4.604   6.185   6.694 -1.1695 -2.3148 -0.8818
   64SAPC   C14 5133   4.524   6.441   6.724  0.5086  0.5491  0.1157
   64SAPC  H14A 5134   4.462   6.522   6.688 -0.4563 -0.9016 -1.6119
   64SAPC  H14B 5135   4.591   6.466   6.806  1.6457  0.5091 -0.7854
   64SAPC  H14C 5136   4.592   6.430   6.642 -0.0109  0.8479 -0.3683
   64SAPC   C15 5137   4.333   6.326   6.843  0.3859 -0.8011  0.8954
   64SAPC  H15A 5138   4.288   6.421   6.819  0.1685 -1.3222 -0.8606
   64SAPC  H15B 5139   4.261   6.247   6.829 -3.0329  2.4306 -1.9238
   64SAPC  H15C 5140   4.380   6.317   6.940  2.2892  0.3048  0.1456
   64SAPC   C11 5141   4.320   6.137   6.590 -0.6249  0.1776  0.7172
   64SAPC  H11A 5142   4.398   6.066   6.625 -0.1691  0.7345  0.8357
   64SAPC  H11B 5143   4.313   6.114   6.482 -0.0046  1.9579  0.2629
   64SAPC     P 5144   4.065   6.160   6.618 -0.6821  0.1671  0.3834
   64SAPC   O13 5145   3.964   6.139   6.721 -0.2027  0.4145  0.1884
   64SAPC   O14 5146   4.072   6.288   6.548  0.3304 -0.0638  0.5857
   64SAPC   O12 5147   4.205   6.111   6.675 -0.4212  0.3854  0.2455
   64SAPC   O11 5148   4.022   6.061   6.504  0.0808  0.2805 -0.5738
   64SAPC    C1 5149   4.047   5.921   6.515 -0.2356 -0.2695 -0.2003
   64SAPC    HA 5150   4.098   5.896   6.611 -1.0381 -0.7611  0.1056
   64SAPC    HB 5151   3.954   5.860   6.510  0.3008 -1.0690 -0.5895
   64SAPC    C2 5152   4.149   5.868   6.415  0.0045  0.4202 -0.3360
   64SAPC    HS 5153   4.253   5.904   6.427  0.1009  1.2595 -3.0552
   64SAPC   O21 5154   4.097   5.893   6.288 -0.3370 -0.3888  0.4569
   64SAPC   C21 5155   4.128   6.004   6.221 -0.1031 -0.0165 -0.1363
   64SAPC   O22 5156   4.217   6.079   6.254 -0.1648 -0.0668  0.0145
   64SAPC   C22 5157   4.023   6.042   6.117 -0.8293 -0.9518  0.4799
   64SAPC   H2R 5158   3.951   5.959   6.102 -0.4119 -1.0358 -1.2210
   64SAPC   H2S 5159   3.964   6.132   6.143 -2.0094 -1.3109 -0.8525
   64SAPC    C3 5160   4.158   5.716   6.437 -0.8344  0.3290  0.4474
   64SAPC    HX 5161   4.061   5.667   6.411 -1.1521  1.2576 -0.1859
   64SAPC    HY 5162   4.194   5.697   6.540 -0.1534  0.3493  0.2115
   64SAPC   O31 5163   4.258   5.657   6.352 -0.8603  0.2086  0.0800
   64SAPC   C31 5164   4.277   5.525   6.358 -0.2169  0.5243 -0.1100
   64SAPC   O32 5165   4.214   5.442   6.428 -0.2237  0.1086  0.0240
   64SAPC   C32 5166   4.391   5.489   6.270  0.3464  0.6548 -0.1423
   64SAPC   H2X 5167   4.487   5.500   6.326 -0.2451  1.5921  0.7279
   64SAPC   H2Y 5168   4.389   5.555   6.181  1.6079 -0.1657 -0.8103
   64SAPC   C23 5169   4.076   6.073   5.972 -0.0826 -0.6483 -0.0765
   64SAPC   H3R 5170   4.127   5.983   5.933 -0.1127 -0.7495  0.1125
   64SAPC   H3S 5171   4.157   6.144   5.997 -2.3243  0.9145  3.6699
   64SAPC   C24 5172   3.965   6.130   5.880  0.4096 -0.6053 -0.2556
   64SAPC   H4R 5173   4.013   6.141   5.780  1.4521 -1.2885  0.1571
   64SAPC   H4S 5174   3.916   6.222   5.918  1.0446 -0.1018 -0.6412
   64SAPC   C25 5175   3.854   6.028   5.880 -0.1741 -0.5166 -0.5764
   64SAPC   H5R 5176   3.765   6.047   5.941 -2.0032 -1.3506 -2.8165
   64SAPC   C26 5177   3.848   5.915   5.806 -0.7072 -0.0814  0.0248
   64SAPC   H6R 5178   3.758   5.852   5.807 -0.8519  0.1221 -0.1599
   64SAPC   C27 5179   3.953   5.887   5.696 -0.7001 -0.1743  0.1867
   64SAPC   H7R 5180   3.945   5.779   5.672 -0.5912 -0.1597  0.0848
   64SAPC   H7S 5181   4.056   5.885   5.736 -0.1775 -0.1660 -1.1263
   64SAPC   C28 5182   3.938   5.973   5.577 -0.0889  0.0234  0.5777
   64SAPC   H8R 5183   3.834   5.993   5.548  0.8249  0.1519 -3.0771
   64SAPC   C29 5184   4.027   6.036   5.501 -0.2740 -0.3091 -0.3826
   64SAPC   H9R 5185   4.000   6.102   5.418  1.0998  1.7989  0.7429
   64SAPC  C210 5186   4.176   6.041   5.529 -0.4602 -0.5972  0.5198
   64SAPC  H10R 5187   4.222   5.946   5.496 -1.4142 -0.5840 -0.9024
   64SAPC  H10S 5188   4.196   6.039   5.639  0.6875 -0.5608  0.3297
   64SAPC  C211 5189   4.257   6.157   5.471  0.6719  0.8358  0.2728
   64SAPC  H11R 5190   4.271   6.246   5.535  1.6263  0.6421  0.3599
   64SAPC  C212 5191   4.334   6.150   5.362 -0.7578  0.4864 -0.2985
   64SAPC  H12R 5192   4.399   6.235   5.339  2.0752 -1.5808 -0.5370
   64SAPC  C213 5193   4.349   6.032   5.263 -0.3622  0.0487 -0.6578
   64SAPC  H13R 5194   4.254   5.975   5.254 -1.0732  0.7958  1.5523
   64SAPC  H13S 5195   4.425   5.961   5.302 -0.2193  1.1900  1.2571
   64SAPC  C214 5196   4.386   6.087   5.132  0.4451  0.0123 -0.7282
   64SAPC  H14R 5197   4.492   6.115   5.124  0.4568  0.5995  1.0324
   64SAPC  C215 5198   4.307   6.127   5.034 -0.5444  0.6841  0.6357
   64SAPC  H15R 5199   4.352   6.161   4.939  1.2704 -2.0648  0.3867
   64SAPC  C216 5200   4.165   6.096   5.017  0.5182  0.3018 -0.0195
   64SAPC  H16R 5201   4.113   6.167   4.950 -0.0158  0.5149  0.6102
   64SAPC  H16S 5202   4.108   6.107   5.111 -2.7350 -0.2651 -1.7808
   64SAPC  C217 5203   4.137   5.952   4.955  0.0797 -0.6018  0.5315
   64SAPC  H17R 5204   4.038   5.916   4.990 -0.5270 -0.3990 -0.9306
   64SAPC  H17S 5205   4.214   5.881   4.991  2.9685  1.0336 -1.9566
   64SAPC  C218 5206   4.149   5.947   4.805  0.3633  0.0720  0.2212
   64SAPC  H18R 5207   4.216   5.864   4.772 -0.9619 -1.3972  1.0816
   64SAPC  H18S 5208   4.198   6.041   4.771  0.3748 -0.5797 -1.6555
   64SAPC  C219 5209   4.017   5.908   4.736 -0.6984  0.3333 -0.4851
   64SAPC  H19R 5210   3.938   5.976   4.774 -4.1723 -2.5458 -1.9963
   64SAPC  H19S 5211   3.997   5.805   4.772  2.8087 -0.6604 -0.9508
   64SAPC  C220 5212   4.006   5.916   4.587  0.0882  0.5243  0.2632
   64SAPC  H20R 5213   3.919   5.858   4.548 -0.3053  1.7129 -0.6780
   64SAPC  H20S 5214   4.098   5.887   4.532 -0.4630  0.5052 -0.6618
   64SAPC  H20T 5215   3.974   6.019   4.559  1.4472  0.7231 -0.6543
   64SAPC   C33 5216   4.377   5.343   6.205 -0.2439  0.1276  0.5234
   64SAPC   H3X 5217   4.311   5.344   6.115  0.8155  0.4309 -0.2803
   64SAPC   H3Y 5218   4.321   5.267   6.263  0.3068 -1.6501 -1.1461
   64SAPC   C34 5219   4.511   5.280   6.161 -0.4067  0.1475  0.3258
   64SAPC   H4X 5220   4.568   5.264   6.255  0.1645 -0.6229 -0.1356
   64SAPC   H4Y 5221   4.565   5.348   6.091 -1.5050  0.4045 -0.2987
   64SAPC   C35 5222   4.507   5.135   6.103 -0.2794 -0.3791  0.4123
   64SAPC   H5X 5223   4.459   5.071   6.180  0.6207 -1.2779  0.2592
   64SAPC   H5Y 5224   4.611   5.096   6.094  0.0100  0.6805 -1.2453
   64SAPC   C36 5225   4.425   5.110   5.970  0.3951 -0.7663 -0.2938
   64SAPC   H6X 5226   4.319   5.124   6.001  0.7118 -1.4358  1.2064
   64SAPC   H6Y 5227   4.441   5.007   5.932 -1.1569 -0.8821 -0.7192
   64SAPC   C37 5228   4.444   5.211   5.851  0.3586  0.3644 -0.0792
   64SAPC   H7X 5229   4.552   5.232   5.840  0.8423 -0.7889  1.9274
   64SAPC   H7Y 5230   4.400   5.308   5.882 -1.3328 -0.2410 -0.4395
   64SAPC   C38 5231   4.383   5.145   5.730 -0.1455 -1.0213  0.2891
   64SAPC   H8X 5232   4.272   5.141   5.732 -0.2951  1.1010 -0.7949
   64SAPC   H8Y 5233   4.431   5.045   5.722  1.5177 -0.2177 -0.1465
   64SAPC   C39 5234   4.427   5.233   5.609 -0.3867 -0.1720 -0.1343
   64SAPC   H9X 5235   4.537   5.245   5.606 -0.3372  0.1367  1.7588
   64SAPC   H9Y 5236   4.387   5.336   5.616  0.9017  0.3166  0.4083
   64SAPC  C310 5237   4.373   5.173   5.473  0.1781  0.5617  0.1369
   64SAPC  H10X 5238   4.263   5.156   5.474  0.2785 -0.1236  0.0108
   64SAPC  H10Y 5239   4.419   5.072   5.464  0.1214  0.4409  1.1580
   64SAPC  C311 5240   4.420   5.265   5.365  0.1438 -0.0441  0.0489
   64SAPC  H11X 5241   4.526   5.247   5.337 -0.1007  1.6618 -2.3257
   64SAPC  H11Y 5242   4.420   5.369   5.405 -1.6514  0.4155 -0.9904
   64SAPC  C312 5243   4.340   5.269   5.232 -0.0014 -0.2749  0.1611
   64SAPC  H12X 5244   4.382   5.357   5.178  4.8041 -1.4089  1.5546
   64SAPC  H12Y 5245   4.231   5.279   5.253  0.2162  0.5494  0.9280
   64SAPC  C313 5246   4.362   5.152   5.136 -1.0021  0.7365 -0.5644
   64SAPC  H13X 5247   4.270   5.122   5.082  0.2287 -0.6856 -1.9608
   64SAPC  H13Y 5248   4.381   5.061   5.197  2.5633  2.6376  1.4769
   64SAPC  C314 5249   4.460   5.168   5.022  0.2127  0.6196 -0.3681
   64SAPC  H14X 5250   4.557   5.211   5.056  0.3229  0.5441 -0.5852
   64SAPC  H14Y 5251   4.419   5.239   4.947  0.4510 -1.3391 -2.4439
   64SAPC  C315 5252   4.486   5.035   4.947  0.1316  0.7075  0.5252
   64SAPC  H15X 5253   4.393   5.010   4.892 -0.9066  0.2335  2.4236
   64SAPC  H15Y 5254   4.497   4.945   5.011  1.6584  1.5904  1.5859
   64SAPC  C316 5255   4.597   5.044   4.840  0.2285  0.1542  0.2128
   64SAPC  H16X 5256   4.690   5.066   4.896 -0.0676  0.6251  0.5301
   64SAPC  H16Y 5257   4.578   5.135   4.779 -1.2635 -1.2203 -1.4680
   64SAPC  C317 5258   4.603   4.923   4.751  0.0266 -0.8467 -0.5782
   64SAPC  H17X 5259   4.506   4.909   4.698  0.7327 -0.1577 -2.1403
   64SAPC  H17Y 5260   4.611   4.834   4.817  0.0222  0.9117  1.9455
   64SAPC  C318 5261   4.727   4.928   4.660 -0.1250  0.4681 -1.0154
   64SAPC  H18X 5262   4.760   4.833   4.611 -0.6757  0.4355 -1.3278
   64SAPC  H18Y 5263   4.810   4.961   4.726 -0.2794 -1.0681 -0.0041
   64SAPC  H18Z 5264   4.708   4.987   4.568 -0.3537  0.2385 -1.1173
   65SAPC     N 5265   3.434   0.273   2.249  0.1300 -0.6460  0.3671
   65SAPC   C12 5266   3.315   0.243   2.346 -0.9134  0.9735 -0.7452
   65SAPC  H12A 5267   3.257   0.164   2.302 -1.5064  0.4508  0.9366
   65SAPC  H12B 5268   3.261   0.337   2.344  0.6473  2.0238  1.6869
   65SAPC   C13 5269   3.543   0.166   2.260 -0.7131  0.0129  0.0826
   65SAPC  H13A 5270   3.512   0.066   2.233  0.2463 -1.1264  2.8088
   65SAPC  H13B 5271   3.627   0.197   2.199 -0.5516 -0.4946  0.0428
   65SAPC  H13C 5272   3.577   0.163   2.362 -0.1623  0.4575 -0.0803
   65SAPC   C14 5273   3.381   0.262   2.105  0.2773 -0.5788 -0.0484
   65SAPC  H14A 5274   3.463   0.296   2.043 -1.9432  1.7085 -2.0053
   65SAPC  H14B 5275   3.358   0.161   2.073  0.3417 -1.3749  2.2926
   65SAPC  H14C 5276   3.298   0.329   2.088 -1.1891 -2.5710 -1.2130
   65SAPC   C15 5277   3.494   0.408   2.279  0.8266 -0.6835 -0.6425
   65SAPC  H15A 5278   3.590   0.426   2.233  0.7141  3.0083  0.2258
   65SAPC  H15B 5279   3.427   0.491   2.264 -0.2374 -0.9539  2.1677
   65SAPC  H15C 5280   3.522   0.412   2.383  0.5807 -0.2550 -0.5889
   65SAPC   C11 5281   3.344   0.231   2.496  0.1431  0.4175 -0.3097
   65SAPC  H11A 5282   3.420   0.157   2.529 -0.5001  0.7778  2.2468
   65SAPC  H11B 5283   3.249   0.205   2.549  0.1911  0.4512 -0.2081
   65SAPC     P 5284   3.302   0.454   2.609 -0.0661 -0.1361  0.7225
   65SAPC   O13 5285   3.382   0.569   2.654  0.2514 -0.3276 -0.2241
   65SAPC   O14 5286   3.197   0.483   2.508  0.1348 -0.1143 -0.0702
   65SAPC   O12 5287   3.394   0.352   2.549 -0.6528  0.4395 -0.2289
   65SAPC   O11 5288   3.225   0.382   2.728 -1.3252 -0.1038  0.4683
   65SAPC    C1 5289   3.305   0.300   2.819  0.3281  0.0374  0.9093
   65SAPC    HA 5290   3.319   0.202   2.769  0.1787  1.3760 -2.0065
   65SAPC    HB 5291   3.406   0.337   2.847 -0.0380 -0.0100  2.3395
   65SAPC    C2 5292   3.226   0.288   2.947  0.1077  0.0520 -0.0343
   65SAPC    HS 5293   3.279   0.210   3.006  0.0109  0.6308  0.8346
   65SAPC   O21 5294   3.090   0.247   2.919  0.0349 -0.4329 -0.0646
   65SAPC   C21 5295   3.068   0.113   2.921  0.7846 -0.5153 -0.6017
   65SAPC   O22 5296   3.152   0.028   2.913  0.8135  0.2315 -0.4760
   65SAPC   C22 5297   2.914   0.091   2.922  1.0460 -0.3392 -0.4917
   65SAPC   H2R 5298   2.877   0.127   3.020  2.8844  0.2799  0.0278
   65SAPC   H2S 5299   2.869   0.162   2.851  0.5354 -1.2141 -1.0563
   65SAPC    C3 5300   3.217   0.414   3.026 -0.1562  0.1258 -0.2864
   65SAPC    HX 5301   3.182   0.500   2.965 -0.3799  1.5163  1.6720
   65SAPC    HY 5302   3.318   0.452   3.054 -0.2930  1.0771 -1.0393
   65SAPC   O31 5303   3.117   0.398   3.134 -0.1523 -0.3727  0.1887
   65SAPC   C31 5304   3.168   0.392   3.254  0.3858  0.1795 -0.7846
   65SAPC   O32 5305   3.285   0.378   3.273  0.3078 -0.2201 -0.1342
   65SAPC   C32 5306   3.058   0.395   3.364  0.0636  0.6624 -0.2882
   65SAPC   H2X 5307   2.987   0.311   3.345 -0.2426  0.3993  1.7324
   65SAPC   H2Y 5308   3.006   0.493   3.368 -1.2513  0.0148 -1.1466
   65SAPC   C23 5309   2.869  -0.059   2.904 -0.4694 -0.1629  0.1986
   65SAPC   H3R 5310   2.910  -0.103   2.810 -1.0851  0.0058 -0.1613
   65SAPC   H3S 5311   2.759  -0.061   2.883 -0.1352 -0.3954 -1.6965
   65SAPC   C24 5312   2.901  -0.139   3.034 -0.1646  0.0824 -0.5876
   65SAPC   H4R 5313   2.837  -0.095   3.114  0.1328 -0.0886 -0.2542
   65SAPC   H4S 5314   3.004  -0.123   3.071 -0.3630  1.2949 -0.5216
   65SAPC   C25 5315   2.876  -0.284   3.030  0.3327 -0.1091  0.3704
   65SAPC   H5R 5316   2.776  -0.312   2.993  0.4491 -2.1781  1.4850
   65SAPC   C26 5317   2.963  -0.383   3.058  0.2802 -0.1470 -0.1094
   65SAPC   H6R 5318   2.934  -0.485   3.029 -2.6605  0.7337 -0.5332
   65SAPC   C27 5319   3.107  -0.373   3.108 -0.4362  0.0915 -0.0252
   65SAPC   H7R 5320   3.125  -0.454   3.183 -0.5444 -0.3599 -0.4788
   65SAPC   H7S 5321   3.129  -0.277   3.158  0.6955 -0.2432  0.1537
   65SAPC   C28 5322   3.205  -0.366   2.995 -0.8901  0.4604  0.1002
   65SAPC   H8R 5323   3.167  -0.321   2.903 -2.0939 -3.3967 -1.4708
   65SAPC   C29 5324   3.338  -0.404   2.996 -0.0127 -0.0400 -0.2649
   65SAPC   H9R 5325   3.397  -0.372   2.910  1.7863  1.2342  1.3483
   65SAPC  C210 5326   3.418  -0.467   3.111  0.0804  1.0991  0.9666
   65SAPC  H10R 5327   3.431  -0.575   3.090  0.5216  1.4678 -0.8331
   65SAPC  H10S 5328   3.350  -0.463   3.199 -1.6011  2.5062 -0.3364
   65SAPC  C211 5329   3.545  -0.390   3.152 -0.1061  0.3873 -0.5102
   65SAPC  H11R 5330   3.594  -0.336   3.070 -1.7862  1.0767 -1.0916
   65SAPC  C212 5331   3.618  -0.418   3.263  0.5206  0.1903  0.0585
   65SAPC  H12R 5332   3.712  -0.368   3.289  1.3751 -1.8872  1.2648
   65SAPC  C213 5333   3.571  -0.509   3.376  0.4195 -0.3718 -0.4179
   65SAPC  H13R 5334   3.537  -0.607   3.336  1.2098 -1.8897  2.3005
   65SAPC  H13S 5335   3.481  -0.473   3.430  0.2484  0.5351 -1.2899
   65SAPC  C214 5336   3.673  -0.539   3.482 -0.9197  0.4330  0.1382
   65SAPC  H14R 5337   3.771  -0.493   3.463 -1.7325  1.6883 -1.2862
   65SAPC  C215 5338   3.643  -0.619   3.587 -0.7684  0.6177 -0.1985
   65SAPC  H15R 5339   3.719  -0.643   3.663 -2.2226 -0.1915  1.0463
   65SAPC  C216 5340   3.512  -0.691   3.623  0.5271 -0.5240  0.1418
   65SAPC  H16R 5341   3.434  -0.658   3.551 -0.3970  0.7791  1.6733
   65SAPC  H16S 5342   3.465  -0.666   3.720 -2.6485  1.6583 -1.7639
   65SAPC  C217 5343   3.520  -0.840   3.604  0.6627 -0.4313 -0.2213
   65SAPC  H17R 5344   3.534  -0.874   3.709  0.6711  1.3311  0.3821
   65SAPC  H17S 5345   3.618  -0.869   3.560  1.5422  2.1442 -0.1194
   65SAPC  C218 5346   3.402  -0.898   3.525 -0.3545  0.2221 -0.4489
   65SAPC  H18R 5347   3.304  -0.869   3.569 -0.0975 -0.0702  0.3296
   65SAPC  H18S 5348   3.401  -1.009   3.521 -2.7372  0.2115 -1.5121
   65SAPC  C219 5349   3.389  -0.847   3.379  0.0133  0.4052  0.1949
   65SAPC  H19R 5350   3.357  -0.740   3.384 -1.0625  0.2553 -2.2239
   65SAPC  H19S 5351   3.299  -0.890   3.329  0.5815  1.4388 -1.8336
   65SAPC  C220 5352   3.508  -0.865   3.286  0.5679  0.3603  0.7920
   65SAPC  H20R 5353   3.532  -0.972   3.265 -0.0143  0.6004 -1.3415
   65SAPC  H20S 5354   3.604  -0.816   3.310 -0.0551  0.6301  2.9482
   65SAPC  H20T 5355   3.476  -0.833   3.185  0.4331  1.0754  1.0549
   65SAPC   C33 5356   3.120   0.358   3.502  0.0111 -0.4191 -0.1380
   65SAPC   H3X 5357   3.203   0.429   3.521  1.4891 -2.2853  0.7837
   65SAPC   H3Y 5358   3.166   0.257   3.493  0.4024 -0.1497 -1.3414
   65SAPC   C34 5359   3.021   0.356   3.626 -0.0414  0.0826 -0.0656
   65SAPC   H4X 5360   2.955   0.267   3.628  0.0482  0.0149 -0.1112
   65SAPC   H4Y 5361   2.964   0.451   3.613  0.4028  0.4648  0.7157
   65SAPC   C35 5362   3.096   0.364   3.760  0.9273  0.0485 -0.3466
   65SAPC   H5X 5363   3.024   0.356   3.844  1.8153 -1.5513  0.3208
   65SAPC   H5Y 5364   3.151   0.458   3.779 -1.3843  0.9619  2.4942
   65SAPC   C36 5365   3.201   0.254   3.782  0.3700  0.3609 -0.4226
   65SAPC   H6X 5366   3.240   0.260   3.886  2.3734  0.7276 -1.1476
   65SAPC   H6Y 5367   3.283   0.285   3.713  1.1502  3.5988  1.7035
   65SAPC   C37 5368   3.152   0.113   3.752  0.1290  0.5242 -0.3855
   65SAPC   H7X 5369   3.240   0.053   3.784  0.2082 -0.0628 -1.6631
   65SAPC   H7Y 5370   3.134   0.082   3.647 -1.5907 -0.1244  0.0572
   65SAPC   C38 5371   3.025   0.072   3.829 -0.4089  0.1330 -0.2952
   65SAPC   H8X 5372   2.943   0.142   3.802 -0.1540  0.1448 -1.0614
   65SAPC   H8Y 5373   3.046   0.086   3.938 -0.1502  1.9367 -0.5305
   65SAPC   C39 5374   2.983  -0.069   3.789 -0.0250 -0.2761  0.1911
   65SAPC   H9X 5375   3.079  -0.125   3.787 -0.3918 -0.9273  0.4991
   65SAPC   H9Y 5376   2.942  -0.061   3.686 -1.0213 -1.1721  0.4977
   65SAPC  C310 5377   2.885  -0.132   3.885 -0.4074 -0.3416  0.5179
   65SAPC  H10X 5378   2.867  -0.234   3.845  0.0251 -0.4866  0.6864
   65SAPC  H10Y 5379   2.785  -0.084   3.890 -1.0373 -1.5495 -0.0053
   65SAPC  C311 5380   2.930  -0.152   4.032 -1.1224  0.5886  0.4885
   65SAPC  H11X 5381   2.912  -0.055   4.082  3.0023  1.5716  0.3980
   65SAPC  H11Y 5382   3.036  -0.183   4.043 -0.9033  0.4134 -1.6710
   65SAPC  C312 5383   2.849  -0.261   4.101  0.1856  0.2564 -0.4787
   65SAPC  H12X 5384   2.872  -0.251   4.209  1.0173 -0.3091 -0.5929
   65SAPC  H12Y 5385   2.870  -0.363   4.061 -2.6843 -1.0189  0.9010
   65SAPC  C313 5386   2.698  -0.240   4.095 -0.1520  0.0513 -0.2684
   65SAPC  H13X 5387   2.652  -0.327   4.147 -1.7105  1.1828  0.3241
   65SAPC  H13Y 5388   2.659  -0.239   3.991 -2.6261  1.8717  0.5823
   65SAPC  C314 5389   2.640  -0.111   4.162  0.2104 -0.3807 -0.4835
   65SAPC  H14X 5390   2.645  -0.020   4.098 -0.2620  0.2642  0.3855
   65SAPC  H14Y 5391   2.692  -0.094   4.258  1.4765  0.2139 -1.2514
   65SAPC  C315 5392   2.490  -0.117   4.210  0.6433  0.0375 -0.0487
   65SAPC  H15X 5393   2.481  -0.200   4.283 -0.7293  0.8626  0.7507
   65SAPC  H15Y 5394   2.432  -0.131   4.116  2.5887  0.4160 -1.3827
   65SAPC  C316 5395   2.437   0.012   4.282  0.1463 -0.1709  0.6712
   65SAPC  H16X 5396   2.326   0.020   4.278  0.2383  0.7446 -1.0070
   65SAPC  H16Y 5397   2.473   0.103   4.228 -0.9068  0.5020  1.0569
   65SAPC  C317 5398   2.481   0.024   4.429  0.4618 -0.2001 -0.1462
   65SAPC  H17X 5399   2.481   0.133   4.445  0.0399 -0.4095  1.4362
   65SAPC  H17Y 5400   2.585  -0.013   4.442  1.1672  1.1805 -1.6075
   65SAPC  C318 5401   2.388  -0.037   4.538  0.6873  0.0517 -0.5729
   65SAPC  H18X 5402   2.396  -0.146   4.520 -1.0688 -0.1132 -0.4819
   65SAPC  H18Y 5403   2.284  -0.001   4.523  0.2968 -0.6396  0.4171
   65SAPC  H18Z 5404   2.427  -0.002   4.636  0.6170 -0.0923 -0.4944
   66SAPC     N 5405   5.465   2.543   2.480  0.3059  0.3295  0.1189
   66SAPC   C12 5406   5.559   2.555   2.597 -0.5278  0.4612  0.2895
   66SAPC  H12A 5407   5.509   2.599   2.682  1.6120  1.6047  1.0220
   66SAPC  H12B 5408   5.645   2.612   2.564 -1.4950  0.6180 -2.1751
   66SAPC   C13 5409   5.353   2.459   2.523 -0.1765  0.1435  0.6683
   66SAPC  H13A 5410   5.276   2.463   2.448  0.7417  1.6310 -0.2506
   66SAPC  H13B 5411   5.384   2.359   2.551  1.4272  0.5121  0.3505
   66SAPC  H13C 5412   5.305   2.506   2.607 -1.1530 -0.4830  0.4740
   66SAPC   C14 5413   5.423   2.678   2.431 -0.2343 -0.7080 -0.6128
   66SAPC  H14A 5414   5.376   2.738   2.507 -1.0880 -0.4501 -1.3263
   66SAPC  H14B 5415   5.506   2.719   2.375  1.4518 -2.8523  0.1700
   66SAPC  H14C 5416   5.348   2.658   2.356 -0.5529 -3.8142  0.4007
   66SAPC   C15 5417   5.528   2.468   2.364 -0.0013 -0.2474 -0.2303
   66SAPC  H15A 5418   5.574   2.377   2.401  2.6584  0.2932 -1.8545
   66SAPC  H15B 5419   5.451   2.438   2.294 -0.9135 -0.5862  0.9024
   66SAPC  H15C 5420   5.612   2.525   2.325  1.8677 -1.8331  1.2581
   66SAPC   C11 5421   5.619   2.419   2.645  0.2505 -0.1170 -0.6464
   66SAPC  H11A 5422   5.534   2.351   2.669 -1.1144  2.0286  1.0518
   66SAPC  H11B 5423   5.663   2.441   2.744 -0.2490 -0.7370 -0.2789
   66SAPC     P 5424   5.862   2.371   2.528  0.2177 -0.3994  0.3211
   66SAPC   O13 5425   5.915   2.246   2.474 -0.8309 -0.5281 -0.1567
   66SAPC   O14 5426   5.889   2.490   2.446 -0.0212  0.2107 -0.1570
   66SAPC   O12 5427   5.711   2.358   2.549 -0.0334  0.0059 -0.3269
   66SAPC   O11 5428   5.919   2.402   2.669  0.4413  0.0167 -0.1711
   66SAPC    C1 5429   6.011   2.314   2.737 -0.2816 -0.6781  0.4383
   66SAPC    HA 5430   6.095   2.277   2.674  0.0809  1.6615 -0.5752
   66SAPC    HB 5431   6.053   2.380   2.817  0.3616  1.2322 -1.3992
   66SAPC    C2 5432   5.953   2.189   2.804  0.1479 -0.9165 -0.0802
   66SAPC    HS 5433   5.908   2.125   2.725 -0.7757 -0.3213 -0.0442
   66SAPC   O21 5434   5.862   2.229   2.900  0.1019  0.4901 -0.3311
   66SAPC   C21 5435   5.736   2.211   2.893 -0.1026  0.4892  0.1594
   66SAPC   O22 5436   5.678   2.150   2.802 -0.1275 -0.0541 -0.1097
   66SAPC   C22 5437   5.671   2.260   3.020  0.3855  0.4803  0.1690
   66SAPC   H2R 5438   5.734   2.329   3.080 -1.2563  1.4375  0.8696
   66SAPC   H2S 5439   5.588   2.330   2.994 -0.3736 -0.8741 -1.1843
   66SAPC    C3 5440   6.066   2.099   2.863  0.0829  0.7594  0.5050
   66SAPC    HX 5441   6.121   2.164   2.935  0.8917 -0.9771  1.5297
   66SAPC    HY 5442   6.140   2.078   2.783  0.5577 -1.8941  1.5282
   66SAPC   O31 5443   6.022   1.980   2.929  0.0239 -0.3517  0.7330
   66SAPC   C31 5444   6.006   1.869   2.859  0.2978 -0.1007  0.1673
   66SAPC   O32 5445   6.054   1.847   2.748  0.7914 -0.0711  0.5061
   66SAPC   C32 5446   5.935   1.758   2.932  0.0981  0.1531 -0.7212
   66SAPC   H2X 5447   5.886   1.686   2.864 -1.3199 -0.7077  1.1435
   66SAPC   H2Y 5448   5.843   1.797   2.980 -0.0782  1.3909 -2.0008
   66SAPC   C23 5449   5.617   2.133   3.104  0.1675 -0.7314  0.7787
   66SAPC   H3R 5450   5.536   2.076   3.052 -0.1014 -0.1174  0.5175
   66SAPC   H3S 5451   5.583   2.169   3.203  0.8603  0.8241  0.4763
   66SAPC   C24 5452   5.732   2.032   3.139 -0.8533  0.7869 -0.1583
   66SAPC   H4R 5453   5.815   2.101   3.166 -1.0295 -0.3288  3.7455
   66SAPC   H4S 5454   5.756   1.981   3.043 -0.8772  0.2357  0.1240
   66SAPC   C25 5455   5.713   1.930   3.248 -0.5127  0.4768 -0.4479
   66SAPC   H5R 5456   5.702   1.823   3.225 -1.8390  0.6043 -0.4875
   66SAPC   C26 5457   5.709   1.973   3.376 -0.7360  1.0548 -0.1501
   66SAPC   H6R 5458   5.706   1.897   3.455 -1.4415  0.9526 -0.2625
   66SAPC   C27 5459   5.716   2.115   3.435 -0.3777  0.4939 -0.0757
   66SAPC   H7R 5460   5.773   2.167   3.356  0.7188 -1.8728 -0.9392
   66SAPC   H7S 5461   5.765   2.133   3.533 -0.6502 -0.5551  0.2717
   66SAPC   C28 5462   5.570   2.155   3.456  0.4413 -0.2145 -0.5231
   66SAPC   H8R 5463   5.501   2.083   3.502  1.1791 -1.0249 -0.6541
   66SAPC   C29 5464   5.510   2.272   3.429  0.1296  0.4731 -0.1270
   66SAPC   H9R 5465   5.403   2.280   3.453  0.0658 -0.2016 -0.1821
   66SAPC  C210 5466   5.557   2.394   3.355 -0.5314  0.1389 -0.3510
   66SAPC  H10R 5467   5.649   2.362   3.302 -0.5843  0.9104 -0.9211
   66SAPC  H10S 5468   5.594   2.479   3.416 -2.4255  0.6296  0.1922
   66SAPC  C211 5469   5.455   2.437   3.249 -0.0535  0.0208 -0.4201
   66SAPC  H11R 5470   5.409   2.350   3.200  0.9057 -0.0835 -1.1592
   66SAPC  C212 5471   5.392   2.551   3.225 -0.2887 -0.7422  0.8211
   66SAPC  H12R 5472   5.319   2.559   3.144 -0.8833 -1.5519  1.2585
   66SAPC  C213 5473   5.435   2.681   3.284  0.5173  0.1359 -0.3219
   66SAPC  H13R 5474   5.442   2.671   3.394  0.6195 -0.3246 -0.3720
   66SAPC  H13S 5475   5.346   2.747   3.273  0.9835  1.0522  1.0746
   66SAPC  C214 5476   5.557   2.748   3.220 -0.0099  0.0390 -0.0231
   66SAPC  H14R 5477   5.566   2.721   3.114  1.2893  2.3730 -0.5718
   66SAPC  C215 5478   5.646   2.826   3.287 -0.1132 -0.2247  0.6382
   66SAPC  H15R 5479   5.732   2.860   3.228 -0.7276 -2.3645 -1.6910
   66SAPC  C216 5480   5.641   2.877   3.430  0.8874 -0.1261 -0.3654
   66SAPC  H16R 5481   5.547   2.854   3.484  0.8164  0.3143 -0.2978
   66SAPC  H16S 5482   5.655   2.987   3.440  0.7317 -0.1977  0.8063
   66SAPC  C217 5483   5.751   2.824   3.517  0.2546  0.2094 -0.0480
   66SAPC  H17R 5484   5.847   2.858   3.473 -0.6986  1.5258 -1.1976
   66SAPC  H17S 5485   5.754   2.713   3.516  1.2645  0.2287 -1.0077
   66SAPC  C218 5486   5.735   2.877   3.664  0.1725 -0.7693 -0.2895
   66SAPC  H18R 5487   5.653   2.812   3.702  0.7814 -0.9612  0.7458
   66SAPC  H18S 5488   5.696   2.981   3.657  0.3110 -0.8374 -3.7607
   66SAPC  C219 5489   5.851   2.850   3.762  0.1835 -0.4638  0.0874
   66SAPC  H19R 5490   5.886   2.744   3.755  1.4860  0.0406 -2.5807
   66SAPC  H19S 5491   5.815   2.873   3.864 -1.9417  1.3254 -0.9920
   66SAPC  C220 5492   5.965   2.946   3.733 -0.0749  0.9692 -0.3070
   66SAPC  H20R 5493   6.044   2.948   3.810  0.7021  2.5152 -1.0966
   66SAPC  H20S 5494   5.932   3.051   3.715  2.0665  1.7038 -0.2521
   66SAPC  H20T 5495   6.010   2.917   3.635 -0.7587  0.7006 -0.5528
   66SAPC   C33 5496   6.026   1.690   3.036  0.0301 -0.1149  0.4334
   66SAPC   H3X 5497   6.133   1.686   3.008 -0.0746 -0.7836  0.1383
   66SAPC   H3Y 5498   5.996   1.584   3.052 -0.9266 -0.0510 -0.7999
   66SAPC   C34 5499   6.020   1.756   3.177  0.4457  0.7261 -0.0292
   66SAPC   H4X 5500   5.914   1.779   3.203  0.5251  2.8242 -1.2748
   66SAPC   H4Y 5501   6.080   1.849   3.189 -0.7094  1.4682  0.2321
   66SAPC   C35 5502   6.068   1.666   3.285  0.6571 -0.1217  0.0319
   66SAPC   H5X 5503   6.160   1.620   3.244  0.0330  1.1330 -3.0742
   66SAPC   H5Y 5504   6.000   1.581   3.308  0.8225 -1.0188 -2.5082
   66SAPC   C36 5505   6.112   1.735   3.419 -0.2232 -0.0600 -0.0972
   66SAPC   H6X 5506   6.176   1.816   3.376 -1.7106  0.4640 -1.4254
   66SAPC   H6Y 5507   6.174   1.667   3.482  0.1215 -0.5846 -0.9782
   66SAPC   C37 5508   5.993   1.794   3.502 -0.7873  0.1943  0.4097
   66SAPC   H7X 5509   5.934   1.708   3.542  1.7136 -2.7916 -1.7475
   66SAPC   H7Y 5510   5.923   1.839   3.428  1.8758  2.0543 -1.1358
   66SAPC   C38 5511   6.044   1.881   3.614 -0.0656  0.4767  0.2967
   66SAPC   H8X 5512   6.072   1.987   3.594  0.3092  0.0093 -1.8722
   66SAPC   H8Y 5513   6.142   1.847   3.654  0.3220  2.1022  0.8305
   66SAPC   C39 5514   5.940   1.889   3.730 -0.5334 -0.3110  0.5230
   66SAPC   H9X 5515   5.835   1.899   3.694 -0.3864  3.6672  0.7586
   66SAPC   H9Y 5516   5.962   1.969   3.804  0.6842  0.6806 -0.8564
   66SAPC  C310 5517   5.939   1.762   3.817  0.1961  0.3239  0.7669
   66SAPC  H10X 5518   6.045   1.738   3.839  0.2037 -0.2066  0.2075
   66SAPC  H10Y 5519   5.898   1.681   3.752 -1.6468  0.1019  2.1310
   66SAPC  C311 5520   5.861   1.781   3.952  0.6733  0.1666 -0.5431
   66SAPC  H11X 5521   5.754   1.802   3.931  0.1808 -0.0209  1.5628
   66SAPC  H11Y 5522   5.903   1.867   4.008 -1.2438  0.3091  0.7672
   66SAPC  C312 5523   5.869   1.664   4.055  0.3316  0.8613  0.5736
   66SAPC  H12X 5524   5.969   1.642   4.099 -0.1574 -0.6442  1.0128
   66SAPC  H12Y 5525   5.834   1.566   4.015  0.7489  0.6406  0.7458
   66SAPC  C313 5526   5.797   1.687   4.187 -0.0768 -0.2243  0.1976
   66SAPC  H13X 5527   5.689   1.700   4.166 -0.6998 -0.0002  3.0963
   66SAPC  H13Y 5528   5.845   1.780   4.227  3.9849 -0.4126 -3.5182
   66SAPC  C314 5529   5.796   1.578   4.288 -0.2745 -0.0542 -0.3942
   66SAPC  H14X 5530   5.903   1.547   4.296 -0.8168 -1.9015 -0.0350
   66SAPC  H14Y 5531   5.744   1.490   4.247 -1.5852 -0.0761  1.1850
   66SAPC  C315 5532   5.731   1.611   4.420 -0.7747 -0.3724  0.1144
   66SAPC  H15X 5533   5.778   1.699   4.470 -1.1739  0.2497 -0.5949
   66SAPC  H15Y 5534   5.734   1.517   4.480  0.2080 -0.0084  0.6694
   66SAPC  C316 5535   5.582   1.649   4.391 -0.8286 -0.2860  0.4440
   66SAPC  H16X 5536   5.540   1.572   4.323  1.6806 -2.4641  1.1705
   66SAPC  H16Y 5537   5.589   1.742   4.331 -0.9640 -0.4651  0.1469
   66SAPC  C317 5538   5.502   1.674   4.524 -0.5757  0.6425 -0.3366
   66SAPC  H17X 5539   5.559   1.743   4.589 -0.7932  1.2764 -0.8014
   66SAPC  H17Y 5540   5.486   1.574   4.568  0.5834  0.2810 -0.7091
   66SAPC  C318 5541   5.370   1.743   4.503  0.4228  0.0952 -0.5086
   66SAPC  H18X 5542   5.392   1.851   4.493 -1.4525  0.3882 -2.1985
   66SAPC  H18Y 5543   5.300   1.720   4.587 -0.5012  2.7482 -0.4452
   66SAPC  H18Z 5544   5.330   1.711   4.404 -0.0423  2.8918 -1.3314
   67SAPC     N 5545   1.992   0.554   2.238  0.0734  0.4428 -0.0468
   67SAPC   C12 5546   1.902   0.435   2.264 -0.0445  0.7482 -0.6961
   67SAPC  H12A 5547   1.809   0.480   2.297  0.7703  1.0544  1.3568
   67SAPC  H12B 5548   1.937   0.359   2.332 -1.3611 -0.3916 -1.2387
   67SAPC   C13 5549   1.919   0.654   2.152  0.5767 -0.4323  0.0741
   67SAPC  H13A 5550   1.827   0.677   2.204  0.5907 -1.2425  0.4783
   67SAPC  H13B 5551   1.971   0.748   2.141 -1.5118  0.8007  0.1145
   67SAPC  H13C 5552   1.890   0.617   2.055 -1.7244  1.3583 -0.0102
   67SAPC   C14 5553   2.022   0.622   2.373  0.2646 -0.1819  0.1179
   67SAPC  H14A 5554   2.081   0.557   2.436 -0.9732 -1.4592 -0.0047
   67SAPC  H14B 5555   2.090   0.704   2.353  0.4049  0.0026  1.2634
   67SAPC  H14C 5556   1.925   0.656   2.407 -0.8373 -1.7020 -1.4011
   67SAPC   C15 5557   2.115   0.508   2.169  0.1530  0.1159 -0.5228
   67SAPC  H15A 5558   2.180   0.446   2.229  1.0478 -0.2613 -1.8455
   67SAPC  H15B 5559   2.087   0.437   2.092  0.8611  1.6364 -2.2488
   67SAPC  H15C 5560   2.166   0.590   2.121 -1.9115  0.1400 -2.9005
   67SAPC   C11 5561   1.864   0.343   2.142  0.4928 -0.1389 -0.1275
   67SAPC  H11A 5562   1.828   0.412   2.064 -1.2664  0.6260  1.2923
   67SAPC  H11B 5563   1.771   0.289   2.171 -0.4565 -0.0564 -2.7590
   67SAPC     P 5564   1.996   0.116   2.170  0.2205  0.1678 -0.3781
   67SAPC   O13 5565   1.892   0.019   2.126 -0.5096 -0.3355  0.1383
   67SAPC   O14 5566   2.144   0.084   2.157  0.4248 -0.2135 -0.0654
   67SAPC   O12 5567   1.967   0.253   2.100  0.1213 -0.0846  0.4577
   67SAPC   O11 5568   1.966   0.151   2.320 -0.4082  0.0516 -0.1522
   67SAPC    C1 5569   2.072   0.128   2.415 -1.0958 -0.7045 -0.6309
   67SAPC    HA 5570   2.111   0.024   2.409  1.4352  0.0361  1.3207
   67SAPC    HB 5571   2.160   0.193   2.398 -1.9874  0.9505  0.7410
   67SAPC    C2 5572   2.009   0.138   2.555 -0.8189  0.1009 -0.5151
   67SAPC    HS 5573   1.945   0.229   2.553  1.3126  1.6746 -1.3733
   67SAPC   O21 5574   2.106   0.142   2.662 -0.4442  0.5653  0.3354
   67SAPC   C21 5575   2.180   0.251   2.669 -0.2966  0.6224 -0.0555
   67SAPC   O22 5576   2.172   0.348   2.595 -0.2607 -0.0081 -0.0418
   67SAPC   C22 5577   2.273   0.236   2.787 -0.2306  0.2001  0.4799
   67SAPC   H2R 5578   2.317   0.134   2.778  0.0770  0.1189  2.3900
   67SAPC   H2S 5579   2.366   0.294   2.774 -0.0447 -0.3988 -1.0497
   67SAPC    C3 5580   1.928   0.006   2.571 -0.8526 -0.4446  0.5069
   67SAPC    HX 5581   2.003  -0.075   2.560 -0.9614 -0.3404 -1.3986
   67SAPC    HY 5582   1.863   0.003   2.480  3.3998 -0.5686 -2.8538
   67SAPC   O31 5583   1.846   0.025   2.691  0.1820  0.0253  0.8471
   67SAPC   C31 5584   1.875  -0.054   2.791  0.1948 -1.3011 -0.0621
   67SAPC   O32 5585   1.970  -0.123   2.802 -0.5891  0.3734 -0.3168
   67SAPC   C32 5586   1.769  -0.050   2.891 -0.5136 -0.1615  0.4559
   67SAPC   H2X 5587   1.734  -0.156   2.892  0.0068 -0.3732 -0.9377
   67SAPC   H2Y 5588   1.690   0.020   2.857  0.5654  0.0144 -1.8813
   67SAPC   C23 5589   2.206   0.264   2.925 -0.7244 -0.0138  0.2054
   67SAPC   H3R 5590   2.282   0.256   3.005 -2.1933 -2.6549  1.4664
   67SAPC   H3S 5591   2.125   0.193   2.950  0.0187 -0.5643  1.1301
   67SAPC   C24 5592   2.145   0.407   2.950  0.8054 -0.0213 -0.3719
   67SAPC   H4R 5593   2.226   0.482   2.939  0.4396  0.7997  2.0396
   67SAPC   H4S 5594   2.126   0.406   3.060 -1.7137 -0.7621 -0.7596
   67SAPC   C25 5595   2.008   0.449   2.900  0.0137 -0.1078  0.3218
   67SAPC   H5R 5596   1.928   0.373   2.905 -1.0342  0.8584 -1.0927
   67SAPC   C26 5597   1.974   0.560   2.824 -0.3342  0.0933  0.3109
   67SAPC   H6R 5598   1.870   0.562   2.787  0.0792 -1.5812 -1.0864
   67SAPC   C27 5599   2.072   0.669   2.775 -0.1386 -0.0738  0.4581
   67SAPC   H7R 5600   2.153   0.633   2.708  1.0726  1.0179  1.2730
   67SAPC   H7S 5601   2.143   0.700   2.855  3.0399 -0.1032 -2.1262
   67SAPC   C28 5602   2.000   0.790   2.715  0.0815  0.4443 -0.1801
   67SAPC   H8R 5603   2.004   0.812   2.607  1.2950  2.0202  0.1395
   67SAPC   C29 5604   1.960   0.892   2.789  0.2347 -0.5793 -0.6250
   67SAPC   H9R 5605   1.903   0.977   2.748  1.4732  1.0800  0.9291
   67SAPC  C210 5606   1.966   0.900   2.940 -1.0009 -0.2593  0.0975
   67SAPC  H10R 5607   1.948   0.808   3.000 -1.6972  1.5043  2.7678
   67SAPC  H10S 5608   1.884   0.971   2.965 -2.2906 -0.5213 -2.8772
   67SAPC  C211 5609   2.101   0.954   2.989 -0.2639 -0.0391 -0.3860
   67SAPC  H11R 5610   2.171   0.983   2.909 -2.0735  2.3602 -1.2054
   67SAPC  C212 5611   2.134   0.945   3.119  0.3556 -0.2581  0.1223
   67SAPC  H12R 5612   2.228   0.987   3.158 -0.4078  0.9086  0.7521
   67SAPC  C213 5613   2.045   0.893   3.227  0.3832  0.4127 -0.5015
   67SAPC  H13R 5614   2.038   0.783   3.208  0.8884  0.0672  1.1529
   67SAPC  H13S 5615   1.940   0.926   3.238 -0.8487 -2.8442 -1.3301
   67SAPC  C214 5616   2.099   0.920   3.362 -0.1316  0.0704 -0.5463
   67SAPC  H14R 5617   2.200   0.961   3.374 -0.1283 -0.0092 -0.2993
   67SAPC  C215 5618   2.027   0.913   3.477  0.3876  0.1352 -0.0292
   67SAPC  H15R 5619   2.062   0.950   3.574 -2.1751 -0.0145  1.0380
   67SAPC  C216 5620   1.884   0.860   3.488 -0.8264  0.7580  0.2298
   67SAPC  H16R 5621   1.845   0.810   3.397  0.5954 -0.2374  0.1420
   67SAPC  H16S 5622   1.801   0.928   3.517 -1.8237 -0.3248  0.0229
   67SAPC  C217 5623   1.870   0.741   3.597 -0.5103 -0.1973  0.2886
   67SAPC  H17R 5624   1.769   0.699   3.578  0.1506 -1.2200 -1.1455
   67SAPC  H17S 5625   1.890   0.787   3.696  1.3324 -2.0513  0.8679
   67SAPC  C218 5626   1.981   0.633   3.574 -0.4353  0.1689  0.2414
   67SAPC  H18R 5627   1.964   0.552   3.647 -0.4599  0.1803  0.2485
   67SAPC  H18S 5628   2.086   0.668   3.584  0.4452 -1.7815 -1.4713
   67SAPC  C219 5629   1.984   0.563   3.438 -0.0636 -0.0257 -0.3911
   67SAPC  H19R 5630   2.024   0.632   3.361  1.0694  0.7561  0.8787
   67SAPC  H19S 5631   1.878   0.543   3.410 -0.5479 -1.5723  2.2337
   67SAPC  C220 5632   2.064   0.432   3.448  0.3875  0.9713 -0.2105
   67SAPC  H20R 5633   2.171   0.450   3.470  1.1831 -2.1001 -1.0633
   67SAPC  H20S 5634   2.044   0.372   3.356 -2.6003 -0.1821  1.0577
   67SAPC  H20T 5635   2.029   0.364   3.528 -0.0802  1.7608  0.2709
   67SAPC   C33 5636   1.834  -0.023   3.033 -1.0060 -0.2363 -0.0464
   67SAPC   H3X 5637   1.930  -0.078   3.043 -1.1073 -0.1088  1.9772
   67SAPC   H3Y 5638   1.765  -0.073   3.103 -1.2198  0.4239  0.2225
   67SAPC   C34 5639   1.834   0.122   3.089 -0.6795 -0.3130  0.5887
   67SAPC   H4X 5640   1.817   0.183   2.998 -0.8211 -1.1771  0.0298
   67SAPC   H4Y 5641   1.938   0.145   3.122  0.4048 -0.4644 -2.4190
   67SAPC   C35 5642   1.728   0.146   3.198  0.3111  0.6761  0.3923
   67SAPC   H5X 5643   1.649   0.069   3.184  0.9627 -0.1352  1.0075
   67SAPC   H5Y 5644   1.676   0.244   3.188 -2.0771 -0.4962  0.6621
   67SAPC   C36 5645   1.790   0.137   3.339  0.0440 -0.2878  0.0710
   67SAPC   H6X 5646   1.894   0.177   3.336  0.5443 -1.5999 -1.4679
   67SAPC   H6Y 5647   1.807   0.031   3.368 -0.1645 -0.4324 -0.3213
   67SAPC   C37 5648   1.713   0.207   3.450 -0.3623  0.2159 -0.4513
   67SAPC   H7X 5649   1.614   0.157   3.454 -1.0329  1.5488  0.2102
   67SAPC   H7Y 5650   1.692   0.313   3.425 -1.5796 -0.1889 -1.2266
   67SAPC   C38 5651   1.776   0.210   3.589  0.2202 -0.0024 -0.2434
   67SAPC   H8X 5652   1.847   0.295   3.588  0.4269 -0.0144 -4.0820
   67SAPC   H8Y 5653   1.829   0.119   3.625  0.7796  0.1818 -0.5991
   67SAPC   C39 5654   1.669   0.235   3.699  0.2447  0.2475 -0.0334
   67SAPC   H9X 5655   1.574   0.191   3.662  0.3542  0.9790 -1.2543
   67SAPC   H9Y 5656   1.649   0.344   3.710 -2.1770 -0.0635 -0.7033
   67SAPC  C310 5657   1.702   0.170   3.835  0.8891  0.0260 -0.0874
   67SAPC  H10X 5658   1.679   0.061   3.834  0.2209  0.1296  1.3331
   67SAPC  H10Y 5659   1.626   0.210   3.906  1.0377  3.2308 -1.5282
   67SAPC  C311 5660   1.841   0.201   3.893  0.7849  0.0390  1.0760
   67SAPC  H11X 5661   1.915   0.147   3.830 -2.4910 -0.3068 -2.8542
   67SAPC  H11Y 5662   1.858   0.163   3.996  2.1045 -2.0177  0.1600
   67SAPC  C312 5663   1.880   0.354   3.896 -0.0863  0.1241  0.0543
   67SAPC  H12X 5664   1.815   0.410   3.965 -0.3317  0.8322 -0.7331
   67SAPC  H12Y 5665   1.867   0.411   3.802 -2.3177  3.7322  2.3433
   67SAPC  C313 5666   2.027   0.365   3.938 -0.2239 -0.1490  0.1740
   67SAPC  H13X 5667   2.049   0.471   3.910 -0.1971 -0.2711 -0.2743
   67SAPC  H13Y 5668   2.079   0.298   3.866 -1.8786 -2.1676  0.7718
   67SAPC  C314 5669   2.060   0.324   4.081  0.4745  0.1928 -0.4107
   67SAPC  H14X 5670   2.041   0.215   4.092  1.8075  0.0690  0.9561
   67SAPC  H14Y 5671   2.000   0.386   4.151  2.9286  1.4651  0.6994
   67SAPC  C315 5672   2.209   0.343   4.137  0.4481  0.0453  0.3005
   67SAPC  H15X 5673   2.274   0.318   4.051  3.1128  1.0727  1.9034
   67SAPC  H15Y 5674   2.232   0.284   4.229  0.7238  1.4067  1.1408
   67SAPC  C316 5675   2.222   0.488   4.167  0.0629 -0.8201  0.0681
   67SAPC  H16X 5676   2.130   0.524   4.218 -0.8910 -1.7684 -0.9299
   67SAPC  H16Y 5677   2.234   0.547   4.074 -1.3066 -0.7449 -0.0874
   67SAPC  C317 5678   2.343   0.511   4.260 -0.5202 -0.6347  0.1627
   67SAPC  H17X 5679   2.430   0.459   4.214  0.2105 -2.2491  3.1095
   67SAPC  H17Y 5680   2.330   0.461   4.358 -3.7569 -1.4718 -0.5934
   67SAPC  C318 5681   2.389   0.665   4.279  0.3873 -0.2216 -0.3526
   67SAPC  H18X 5682   2.309   0.733   4.315 -0.1969 -0.7542 -0.6460
   67SAPC  H18Y 5683   2.423   0.706   4.182  1.1476  0.0928  0.0363
   67SAPC  H18Z 5684   2.481   0.675   4.342 -0.1519  0.1199  0.4020
   68SAPC     N 5685   6.871   1.687   2.159  0.1541 -0.6484 -0.5587
   68SAPC   C12 5686   6.918   1.596   2.263 -0.1987  0.2739  0.2561
   68SAPC  H12A 5687   7.023   1.621   2.276 -0.5446  1.9080  0.0113
   68SAPC  H12B 5688   6.904   1.493   2.234 -0.8818  0.0527  1.3001
   68SAPC   C13 5689   6.727   1.671   2.124 -1.4919 -0.0464  0.3208
   68SAPC  H13A 5690   6.681   1.749   2.064 -2.3840  0.7983  2.0128
   68SAPC  H13B 5691   6.709   1.575   2.078  0.3358 -2.0349  3.4358
   68SAPC  H13C 5692   6.665   1.660   2.211 -0.4773 -1.0207  0.9395
   68SAPC   C14 5693   6.877   1.825   2.225 -0.4089  0.0570  0.2557
   68SAPC  H14A 5694   6.979   1.849   2.252  0.0385 -1.3020 -0.1328
   68SAPC  H14B 5695   6.835   1.903   2.163  0.7649 -0.6475 -1.5238
   68SAPC  H14C 5696   6.821   1.806   2.315 -1.4046 -0.5103 -0.4693
   68SAPC   C15 5697   6.951   1.671   2.037 -0.0312 -0.5829  0.5773
   68SAPC  H15A 5698   6.936   1.573   1.992 -0.2739  0.8326 -2.6860
   68SAPC  H15B 5699   6.911   1.746   1.971 -0.3040  0.1238  1.5354
   68SAPC  H15C 5700   7.057   1.685   2.051  0.8620 -2.7742 -2.6569
   68SAPC   C11 5701   6.870   1.596   2.410  0.7990 -0.0302  0.8059
   68SAPC  H11A 5702   6.901   1.690   2.460  3.0077 -0.6951  0.8022
   68SAPC  H11B 5703   6.932   1.522   2.466 -0.3872 -0.2202  1.9041
   68SAPC     P 5704   6.647   1.663   2.506  0.4569 -0.5853  0.4694
   68SAPC   O13 5705   6.654   1.792   2.430  0.2194  0.3208 -0.7589
   68SAPC   O14 5706   6.512   1.603   2.514  0.1074  0.0761 -0.0793
   68SAPC   O12 5707   6.734   1.565   2.425  0.6741 -0.5317 -0.2856
   68SAPC   O11 5708   6.715   1.669   2.644  0.1990  0.2328  0.2717
   68SAPC    C1 5709   6.725   1.547   2.721  0.0107 -0.1597 -0.3334
   68SAPC    HA 5710   6.704   1.454   2.664 -0.6760 -0.5492  0.5436
   68SAPC    HB 5711   6.825   1.546   2.769 -0.4960  0.3189  0.7517
   68SAPC    C2 5712   6.619   1.541   2.834 -0.0007  0.8953  0.1303
   68SAPC    HS 5713   6.517   1.536   2.789 -0.1990  0.9854  0.5620
   68SAPC   O21 5714   6.631   1.657   2.926  0.1767  0.7890  0.2399
   68SAPC   C21 5715   6.537   1.750   2.915  0.1245 -0.5487 -0.4410
   68SAPC   O22 5716   6.429   1.738   2.860 -0.2428 -0.0880 -0.5518
   68SAPC   C22 5717   6.590   1.876   2.982  0.1895 -0.5174  0.6615
   68SAPC   H2R 5718   6.701   1.873   2.986  0.1824  0.2678  2.1152
   68SAPC   H2S 5719   6.550   1.959   2.919 -1.5288 -0.5825  1.6185
   68SAPC    C3 5720   6.641   1.407   2.908  0.5378 -0.0767 -0.0905
   68SAPC    HX 5721   6.750   1.411   2.930  0.7712 -0.0344 -1.2076
   68SAPC    HY 5722   6.625   1.326   2.835  1.3506 -2.0164  1.7859
   68SAPC   O31 5723   6.560   1.383   3.026 -0.2471  0.0653  0.3472
   68SAPC   C31 5724   6.440   1.343   3.004 -0.6303  1.1001 -0.3145
   68SAPC   O32 5725   6.389   1.311   2.901 -0.1937 -0.4549 -0.7121
   68SAPC   C32 5726   6.363   1.336   3.134  0.5610 -0.4830 -0.1172
   68SAPC   H2X 5727   6.325   1.233   3.148  3.2837 -1.5537 -0.0433
   68SAPC   H2Y 5728   6.276   1.402   3.112 -0.2139 -1.6633 -0.6358
   68SAPC   C23 5729   6.540   1.889   3.127  0.3362 -0.0974 -0.4898
   68SAPC   H3R 5730   6.588   1.979   3.171  2.0539 -1.6107  0.9054
   68SAPC   H3S 5731   6.567   1.804   3.194  2.3903 -0.4675 -1.7011
   68SAPC   C24 5732   6.386   1.897   3.140 -0.3550 -0.0606  0.3096
   68SAPC   H4R 5733   6.373   1.873   3.247 -2.6259 -3.0754 -0.4976
   68SAPC   H4S 5734   6.339   1.815   3.081  0.4616  0.8352 -1.7056
   68SAPC   C25 5735   6.352   2.036   3.090  0.6494  0.3960 -0.5453
   68SAPC   H5R 5736   6.375   2.064   2.987 -0.4508  0.6216 -0.7423
   68SAPC   C26 5737   6.302   2.133   3.172 -0.4718 -0.1895 -0.0693
   68SAPC   H6R 5738   6.275   2.232   3.132 -1.1151  0.4415  1.8317
   68SAPC   C27 5739   6.297   2.122   3.319  1.4462 -0.0596  0.6175
   68SAPC   H7R 5740   6.252   2.027   3.357 -1.2853  1.6715  2.0101
   68SAPC   H7S 5741   6.221   2.195   3.352  1.6164  0.0319  0.8155
   68SAPC   C28 5742   6.433   2.139   3.391  0.7582  0.4525  0.7447
   68SAPC   H8R 5743   6.520   2.080   3.357  0.8541  1.3934 -0.6731
   68SAPC   C29 5744   6.471   2.231   3.471  0.4540  0.6235 -0.4043
   68SAPC   H9R 5745   6.557   2.216   3.537 -0.4970  0.7647  0.9253
   68SAPC  C210 5746   6.384   2.348   3.509 -0.2285 -0.3745  0.1559
   68SAPC  H10R 5747   6.317   2.386   3.430 -0.0868 -0.3665  0.0387
   68SAPC  H10S 5748   6.452   2.435   3.525  0.5772 -0.2085 -3.3131
   68SAPC  C211 5749   6.311   2.322   3.633 -0.0688  0.4134 -0.2784
   68SAPC  H11R 5750   6.234   2.244   3.629  0.7281 -0.5438  1.9069
   68SAPC  C212 5751   6.339   2.370   3.758 -0.0246 -0.3598  0.4037
   68SAPC  H12R 5752   6.262   2.337   3.830 -2.3782 -2.2310 -2.6984
   68SAPC  C213 5753   6.456   2.461   3.805 -0.1642 -0.1041 -0.6538
   68SAPC  H13R 5754   6.431   2.497   3.908  0.1839  0.0520 -0.6223
   68SAPC  H13S 5755   6.453   2.554   3.745 -1.6903  0.1381 -0.2412
   68SAPC  C214 5756   6.593   2.402   3.794 -1.2307  0.2297 -0.1596
   68SAPC  H14R 5757   6.641   2.425   3.697 -0.9061 -1.2214 -0.3661
   68SAPC  C215 5758   6.655   2.316   3.873 -0.0022 -0.2986  0.4391
   68SAPC  H15R 5759   6.760   2.298   3.850  0.4090 -0.7020  2.4036
   68SAPC  C216 5760   6.613   2.264   4.010  0.2081 -0.8722 -0.3985
   68SAPC  H16R 5761   6.520   2.204   4.007 -1.2781  1.1471  1.8535
   68SAPC  H16S 5762   6.585   2.354   4.070 -0.1525  0.8519 -2.9610
   68SAPC  C217 5763   6.722   2.181   4.083  0.6033 -0.4172  0.5236
   68SAPC  H17R 5764   6.815   2.242   4.090  0.3156  1.1910 -4.6923
   68SAPC  H17S 5765   6.742   2.090   4.023 -0.5377 -0.8149  0.7238
   68SAPC  C218 5766   6.664   2.147   4.223 -0.1753 -0.1930  0.7935
   68SAPC  H18R 5767   6.586   2.069   4.235 -2.1977  1.9029  1.9969
   68SAPC  H18S 5768   6.610   2.235   4.262  2.3966  2.3720 -0.9731
   68SAPC  C219 5769   6.774   2.102   4.310 -0.3394 -0.2826 -0.3593
   68SAPC  H19R 5770   6.731   2.096   4.412 -0.8893 -1.4837 -0.6510
   68SAPC  H19S 5771   6.854   2.179   4.319 -2.2105  1.7570 -0.2140
   68SAPC  C220 5772   6.849   1.976   4.265 -0.3035  0.3343  0.4858
   68SAPC  H20R 5773   6.922   1.947   4.343  0.3217  1.2163  0.2471
   68SAPC  H20S 5774   6.918   1.999   4.180  4.3646 -0.8448  3.6035
   68SAPC  H20T 5775   6.786   1.887   4.247 -0.0239  0.0775  0.7778
   68SAPC   C33 5776   6.441   1.368   3.264  0.4056 -0.8654 -0.0888
   68SAPC   H3X 5777   6.536   1.310   3.254  2.3620  2.2459 -1.1296
   68SAPC   H3Y 5778   6.383   1.338   3.353  0.9586 -1.4571  0.0820
   68SAPC   C34 5779   6.467   1.522   3.278 -0.4453  0.8562  0.5741
   68SAPC   H4X 5780   6.376   1.577   3.247 -0.3706 -0.0644 -1.4154
   68SAPC   H4Y 5781   6.545   1.557   3.207 -0.0195 -0.5742  0.3169
   68SAPC   C35 5782   6.526   1.551   3.419 -0.2858 -0.2377 -0.2818
   68SAPC   H5X 5783   6.621   1.497   3.440 -0.8192 -0.4296  1.8285
   68SAPC   H5Y 5784   6.450   1.516   3.491 -0.8317 -0.4756 -0.9597
   68SAPC   C36 5785   6.547   1.702   3.456 -0.0295 -0.2993 -0.4941
   68SAPC   H6X 5786   6.475   1.766   3.401  0.5413  0.6147 -0.2089
   68SAPC   H6Y 5787   6.651   1.731   3.429  0.4548  0.2128  1.6905
   68SAPC   C37 5788   6.522   1.740   3.600  0.2443  0.9240 -0.1209
   68SAPC   H7X 5789   6.597   1.682   3.658  0.9931  0.6532 -1.3214
   68SAPC   H7Y 5790   6.423   1.694   3.619  1.5219 -1.1599  1.9846
   68SAPC   C38 5791   6.535   1.882   3.632 -0.6076 -0.2014  0.1869
   68SAPC   H8X 5792   6.448   1.929   3.582 -1.5500  0.6919  2.5419
   68SAPC   H8Y 5793   6.626   1.923   3.583  0.4813  0.0072  2.3018
   68SAPC   C39 5794   6.538   1.923   3.783 -0.4464 -0.1242 -0.0376
   68SAPC   H9X 5795   6.577   2.027   3.780  1.5078 -0.8460 -1.5360
   68SAPC   H9Y 5796   6.611   1.858   3.835  0.5363  1.0610  0.1135
   68SAPC  C310 5797   6.402   1.890   3.844 -0.8944  0.2231 -0.6255
   68SAPC  H10X 5798   6.386   1.781   3.829 -0.8365  0.3419 -1.6250
   68SAPC  H10Y 5799   6.322   1.941   3.785 -1.7527 -0.0784  0.2457
   68SAPC  C311 5800   6.386   1.936   3.988 -0.5913  0.5232  0.5781
   68SAPC  H11X 5801   6.408   2.043   4.006 -0.5551  0.4376  1.0413
   68SAPC  H11Y 5802   6.467   1.885   4.044 -0.3641 -1.7484 -1.6117
   68SAPC  C312 5803   6.259   1.882   4.054 -0.1412  0.4648 -0.4058
   68SAPC  H12X 5804   6.255   1.772   4.040 -1.8930  0.2654  1.2830
   68SAPC  H12Y 5805   6.167   1.929   4.014  0.2754  1.3203 -0.3818
   68SAPC  C313 5806   6.258   1.912   4.207  0.1965 -0.2405 -0.2468
   68SAPC  H13X 5807   6.224   2.017   4.225  1.0522  0.1652 -0.9532
   68SAPC  H13Y 5808   6.356   1.897   4.258  0.5266  3.3374  0.4338
   68SAPC  C314 5809   6.146   1.826   4.271  0.2768  0.0395  0.2362
   68SAPC  H14X 5810   6.161   1.717   4.262  0.1418  0.0352  0.0538
   68SAPC  H14Y 5811   6.063   1.835   4.198  0.3122  1.9592  0.3660
   68SAPC  C315 5812   6.089   1.867   4.407 -0.0615 -0.0794  0.0955
   68SAPC  H15X 5813   5.990   1.822   4.428  0.5290 -0.5069  2.1089
   68SAPC  H15Y 5814   6.065   1.976   4.411  3.2480  0.7341  1.5861
   68SAPC  C316 5815   6.177   1.826   4.523 -0.6088 -0.4532  0.3880
   68SAPC  H16X 5816   6.119   1.834   4.617 -1.3709  0.4178 -0.1393
   68SAPC  H16Y 5817   6.270   1.885   4.520  0.2517 -1.6499  1.9261
   68SAPC  C317 5818   6.221   1.675   4.514  0.3864  0.1282 -0.2210
   68SAPC  H17X 5819   6.289   1.656   4.428  1.5948 -0.2060  0.7751
   68SAPC  H17Y 5820   6.129   1.615   4.496  0.2165  0.4904 -0.5626
   68SAPC  C318 5821   6.277   1.619   4.651 -0.1738 -0.0902 -0.2109
   68SAPC  H18X 5822   6.365   1.680   4.682 -1.3019  1.0996  0.7929
   68SAPC  H18Y 5823   6.299   1.513   4.630 -0.2714  0.2076 -1.9769
   68SAPC  H18Z 5824   6.193   1.638   4.722 -0.2050  2.8446 -0.8713
   69SAPC     N 5825   4.212   4.317   1.968  0.1596 -0.5389 -0.1277
   69SAPC   C12 5826   4.274   4.301   2.103 -0.9395 -0.0270  0.0365
   69SAPC  H12A 5827   4.365   4.357   2.120  0.0481 -2.0191  1.7792
   69SAPC  H12B 5828   4.298   4.196   2.114 -1.6726 -0.1468  0.5782
   69SAPC   C13 5829   4.311   4.292   1.866 -0.9172 -0.3276 -0.5768
   69SAPC  H13A 5830   4.271   4.292   1.766  2.4681 -0.2685 -2.0478
   69SAPC  H13B 5831   4.392   4.363   1.859  0.9651 -2.0765  1.5570
   69SAPC  H13C 5832   4.347   4.191   1.879 -0.9958 -0.5068 -1.6809
   69SAPC   C14 5833   4.106   4.213   1.937 -0.2673  0.0022 -0.4232
   69SAPC  H14A 5834   4.162   4.121   1.930  1.5429  0.9506  0.7952
   69SAPC  H14B 5835   4.036   4.207   2.018  0.3307 -2.8825 -0.0108
   69SAPC  H14C 5836   4.050   4.225   1.845 -0.7156 -1.9364 -0.4264
   69SAPC   C15 5837   4.147   4.447   1.943  0.2278  0.0791 -1.0053
   69SAPC  H15A 5838   4.209   4.530   1.974 -0.5251 -0.2445  1.5844
   69SAPC  H15B 5839   4.119   4.466   1.841 -0.7408  0.2833 -0.7113
   69SAPC  H15C 5840   4.061   4.445   2.008 -0.4894 -0.4439 -1.9526
   69SAPC   C11 5841   4.187   4.333   2.227  0.2548 -0.3828  0.1762
   69SAPC  H11A 5842   4.239   4.297   2.319  0.8807  0.7993  0.3098
   69SAPC  H11B 5843   4.089   4.282   2.213 -0.8342  1.3978  0.9707
   69SAPC     P 5844   4.281   4.573   2.307  0.2531 -0.3052  0.2120
   69SAPC   O13 5845   4.411   4.536   2.254 -1.1808 -0.5069  0.1753
   69SAPC   O14 5846   4.241   4.710   2.280  0.0799  0.1929  0.3991
   69SAPC   O12 5847   4.169   4.471   2.246 -0.0560 -0.4850  0.6800
   69SAPC   O11 5848   4.273   4.543   2.458 -0.5389  0.5101  0.0710
   69SAPC    C1 5849   4.373   4.461   2.524  0.4953 -0.8880  1.3576
   69SAPC    HA 5850   4.397   4.376   2.456 -1.6348  1.6540 -3.1100
   69SAPC    HB 5851   4.471   4.511   2.532  1.2858 -2.3827  1.2827
   69SAPC    C2 5852   4.337   4.408   2.661 -0.1206 -0.1935  0.1619
   69SAPC    HS 5853   4.240   4.355   2.647 -0.7861  0.9588  0.2713
   69SAPC   O21 5854   4.318   4.524   2.744  0.5150 -0.7159 -0.3117
   69SAPC   C21 5855   4.228   4.523   2.843 -0.2982 -0.6084 -0.4125
   69SAPC   O22 5856   4.159   4.426   2.874  0.1099  0.0068  0.0661
   69SAPC   C22 5857   4.216   4.661   2.906 -0.0715  0.0552 -0.0600
   69SAPC   H2R 5858   4.317   4.706   2.923 -0.6713  0.9598  1.2808
   69SAPC   H2S 5859   4.174   4.730   2.830  0.6653  1.8573  1.0872
   69SAPC    C3 5860   4.450   4.309   2.713  0.6437 -0.7028 -0.1196
   69SAPC    HX 5861   4.550   4.357   2.717  0.3177 -0.0868  2.0511
   69SAPC    HY 5862   4.457   4.230   2.635 -1.3305  0.2325 -1.3409
   69SAPC   O31 5863   4.422   4.254   2.847  0.3818  0.2553 -0.5851
   69SAPC   C31 5864   4.331   4.163   2.857  0.0379  0.0937 -0.2249
   69SAPC   O32 5865   4.271   4.107   2.768 -0.3902  0.0101 -0.3733
   69SAPC   C32 5866   4.321   4.147   3.010  0.2653  0.5204 -1.1530
   69SAPC   H2X 5867   4.322   4.249   3.055 -1.2549  1.0779 -2.3088
   69SAPC   H2Y 5868   4.408   4.081   3.032  1.8677  3.2132  1.3426
   69SAPC   C23 5869   4.136   4.663   3.038 -0.3686 -0.2838 -0.0906
   69SAPC   H3R 5870   4.199   4.612   3.114 -0.7117 -2.6260 -1.2919
   69SAPC   H3S 5871   4.052   4.591   3.024  0.5151 -1.0961 -1.5471
   69SAPC   C24 5872   4.089   4.804   3.076  0.0972  0.1181 -0.8248
   69SAPC   H4R 5873   4.054   4.864   2.989 -0.8137 -0.0847 -0.6089
   69SAPC   H4S 5874   4.173   4.861   3.122  0.1510 -1.9310  1.8614
   69SAPC   C25 5875   3.973   4.791   3.174 -0.6332  0.1921  0.2022
   69SAPC   H5R 5876   3.882   4.800   3.114  0.5801  0.6325 -1.6598
   69SAPC   C26 5877   3.973   4.791   3.311 -0.0342  0.4020 -0.1874
   69SAPC   H6R 5878   3.878   4.757   3.355  1.5194 -0.3395  2.8894
   69SAPC   C27 5879   4.097   4.792   3.397  0.4374 -0.2784 -0.0085
   69SAPC   H7R 5880   4.182   4.814   3.329 -0.6797 -0.3748 -1.4814
   69SAPC   H7S 5881   4.117   4.702   3.460 -0.3844  0.5298  1.4570
   69SAPC   C28 5882   4.101   4.906   3.496 -0.2089 -0.0794 -0.1836
   69SAPC   H8R 5883   4.130   5.002   3.452 -1.6150  1.1481  1.4216
   69SAPC   C29 5884   4.062   4.909   3.620 -0.9595  0.6977  0.0702
   69SAPC   H9R 5885   4.065   5.005   3.672 -0.4234  1.6500 -1.6512
   69SAPC  C210 5886   4.017   4.789   3.700 -0.1491  0.7098 -0.7967
   69SAPC  H10R 5887   4.113   4.739   3.726  0.5322  0.9563 -2.6616
   69SAPC  H10S 5888   3.974   4.706   3.640 -0.4146 -0.4279  0.8847
   69SAPC  C211 5889   3.926   4.811   3.817  0.4703  0.1271  0.4623
   69SAPC  H11R 5890   3.822   4.815   3.782  0.8162 -3.8743 -1.5918
   69SAPC  C212 5891   3.954   4.785   3.948  0.2499  0.0149  0.3277
   69SAPC  H12R 5892   3.874   4.796   4.022 -2.3507  0.3350 -2.3246
   69SAPC  C213 5893   4.085   4.745   4.008  0.2279  0.0837  0.1085
   69SAPC  H13R 5894   4.128   4.659   3.952 -1.9568 -0.9462 -0.0917
   69SAPC  H13S 5895   4.066   4.713   4.113 -1.9921  2.2072  0.4411
   69SAPC  C214 5896   4.187   4.860   4.011  0.4258  0.1344 -0.3998
   69SAPC  H14R 5897   4.172   4.937   3.933 -2.4591 -1.9371 -2.0852
   69SAPC  C215 5898   4.270   4.886   4.113 -0.2395 -0.2694 -0.0821
   69SAPC  H15R 5899   4.329   4.978   4.108 -0.5988 -0.0708 -0.7895
   69SAPC  C216 5900   4.284   4.800   4.241 -0.0246  0.6091 -0.1238
   69SAPC  H16R 5901   4.202   4.725   4.250  1.1292 -0.7990 -0.8608
   69SAPC  H16S 5902   4.286   4.862   4.333 -1.7263  1.8189 -0.8564
   69SAPC  C217 5903   4.411   4.716   4.238 -0.4470  0.0856 -0.4454
   69SAPC  H17R 5904   4.397   4.632   4.167  1.0727 -0.9087  0.3876
   69SAPC  H17S 5905   4.419   4.688   4.345 -0.9110  1.5948  0.0135
   69SAPC  C218 5906   4.542   4.787   4.205  0.0814  0.5995  0.2422
   69SAPC  H18R 5907   4.540   4.818   4.098 -2.1751  1.2974  0.4333
   69SAPC  H18S 5908   4.618   4.711   4.232 -1.2176 -0.1860  1.9106
   69SAPC  C219 5909   4.584   4.911   4.280  0.6246  0.0951  0.1627
   69SAPC  H19R 5910   4.598   4.878   4.385 -1.8112  0.7367  0.7369
   69SAPC  H19S 5911   4.502   4.986   4.277  0.9443  0.4206 -0.8437
   69SAPC  C220 5912   4.717   4.968   4.233 -0.4343 -1.0354 -0.3433
   69SAPC  H20R 5913   4.780   4.878   4.215  1.9285  0.6302 -0.9264
   69SAPC  H20S 5914   4.785   5.017   4.307 -0.0525 -1.5317 -0.3550
   69SAPC  H20T 5915   4.698   5.029   4.143  0.4591  0.6547  0.5661
   69SAPC   C33 5916   4.192   4.072   3.057 -0.3091 -0.0296 -0.0517
   69SAPC   H3X 5917   4.212   4.011   3.148 -0.4948  0.2155  0.1544
   69SAPC   H3Y 5918   4.155   3.997   2.983 -1.1099 -0.0999  0.4107
   69SAPC   C34 5919   4.076   4.166   3.095 -0.6611 -0.4940 -0.3996
   69SAPC   H4X 5920   4.045   4.222   3.005 -1.5570  0.9092  0.7332
   69SAPC   H4Y 5921   4.105   4.244   3.169 -0.1871 -1.0680  0.0294
   69SAPC   C35 5922   3.949   4.086   3.144  0.0699  0.1527  0.3167
   69SAPC   H5X 5923   3.938   4.011   3.063  0.3448 -1.4830  1.7435
   69SAPC   H5Y 5924   3.876   4.168   3.158  0.1447  0.4894 -1.1000
   69SAPC   C36 5925   3.968   4.008   3.273  0.3570 -0.2590  1.0453
   69SAPC   H6X 5926   4.045   3.928   3.259 -0.9571 -1.3800 -0.0105
   69SAPC   H6Y 5927   3.870   3.957   3.278  0.8204 -1.2554  0.3075
   69SAPC   C37 5928   3.969   4.087   3.402 -0.5703  0.1922 -0.0107
   69SAPC   H7X 5929   3.886   4.160   3.389 -0.5209  0.0868 -0.9668
   69SAPC   H7Y 5930   4.062   4.134   3.439 -1.1304  0.9119  0.5284
   69SAPC   C38 5931   3.905   3.996   3.510  0.2717  0.9321  0.3810
   69SAPC   H8X 5932   3.797   3.985   3.486  0.2645 -0.6300  1.0417
   69SAPC   H8Y 5933   3.907   4.050   3.607 -1.7744  0.5705  0.6634
   69SAPC   C39 5934   3.986   3.866   3.535 -0.0003 -0.1906  0.3646
   69SAPC   H9X 5935   3.998   3.824   3.433  0.4759 -0.7666  0.6524
   69SAPC   H9Y 5936   3.935   3.794   3.602 -4.3239 -0.1698 -2.5125
   69SAPC  C310 5937   4.130   3.901   3.578 -0.4541 -0.1832 -0.3602
   69SAPC  H10X 5938   4.188   3.961   3.505  1.2335  0.8647  1.7410
   69SAPC  H10Y 5939   4.171   3.798   3.575 -0.1153 -0.0324 -1.5076
   69SAPC  C311 5940   4.138   3.961   3.725  0.2890 -0.0123 -0.2591
   69SAPC  H11X 5941   4.067   3.896   3.779  1.4275 -1.2971 -0.2427
   69SAPC  H11Y 5942   4.098   4.064   3.722  0.5539  0.0868 -0.4692
   69SAPC  C312 5943   4.280   3.957   3.780  0.3029  0.1881 -0.2968
   69SAPC  H12X 5944   4.305   4.051   3.835  0.0079  0.6442 -0.9332
   69SAPC  H12Y 5945   4.335   3.940   3.685  1.0006 -2.7642  0.5522
   69SAPC  C313 5946   4.308   3.843   3.876  0.3659 -0.6480 -0.0034
   69SAPC  H13X 5947   4.254   3.749   3.849  1.3425 -1.2459  0.0499
   69SAPC  H13Y 5948   4.281   3.882   3.976  1.0539  1.1034 -0.4715
   69SAPC  C314 5949   4.452   3.811   3.888 -0.4019  0.5151  0.6874
   69SAPC  H14X 5950   4.491   3.761   3.797 -1.3028 -0.1806  0.6668
   69SAPC  H14Y 5951   4.473   3.741   3.971  0.7350 -0.0635 -0.0614
   69SAPC  C315 5952   4.531   3.930   3.934  0.2123 -0.0577 -0.7812
   69SAPC  H15X 5953   4.510   3.957   4.040 -0.9459  1.2850 -1.3206
   69SAPC  H15Y 5954   4.516   4.028   3.884 -1.3888  1.0423  1.6338
   69SAPC  C316 5955   4.677   3.891   3.930 -0.1423 -0.3205  0.1739
   69SAPC  H16X 5956   4.716   3.897   3.826 -1.4381  4.0352 -0.2536
   69SAPC  H16Y 5957   4.688   3.787   3.968  1.2704 -0.0307  0.5996
   69SAPC  C317 5958   4.763   3.992   4.021  0.2076 -0.4492 -0.0166
   69SAPC  H17X 5959   4.724   4.000   4.124 -0.5758  2.1465 -0.4459
   69SAPC  H17Y 5960   4.757   4.091   3.971  0.8026 -1.1206 -1.4820
   69SAPC  C318 5961   4.909   3.949   4.025  0.7782 -0.0019  0.0738
   69SAPC  H18X 5962   4.919   3.871   4.103 -1.5287  1.0331  1.5278
   69SAPC  H18Y 5963   4.976   4.033   4.054 -1.9744  2.5143 -0.2146
   69SAPC  H18Z 5964   4.927   3.908   3.924  0.0304 -4.1291  1.4223
   70SAPC     N 5965   6.042   4.739   2.290 -0.5651 -0.1445 -0.4363
   70SAPC   C12 5966   6.072   4.646   2.403 -0.4716  0.7084 -0.4274
   70SAPC  H12A 5967   6.002   4.564   2.405  0.6828 -0.2715  0.7386
   70SAPC  H12B 5968   6.055   4.695   2.498  0.5663  1.2375 -0.5062
   70SAPC   C13 5969   6.022   4.663   2.172  0.4859 -0.1646 -0.0145
   70SAPC  H13A 5970   5.927   4.611   2.169 -0.1255  0.9669 -1.3693
   70SAPC  H13B 5971   6.027   4.737   2.093 -2.0712  1.2715  1.0543
   70SAPC  H13C 5972   6.110   4.600   2.164  0.9780  0.7666 -3.4254
   70SAPC   C14 5973   5.925   4.833   2.326  0.1174  0.0462 -0.1624
   70SAPC  H14A 5974   5.923   4.869   2.428 -4.2006 -1.8266  0.6518
   70SAPC  H14B 5975   5.901   4.910   2.254  1.9289  0.8223  0.0233
   70SAPC  H14C 5976   5.841   4.765   2.326  1.0483 -1.1523 -1.9776
   70SAPC   C15 5977   6.168   4.821   2.258  0.0194 -0.7358  0.6063
   70SAPC  H15A 5978   6.203   4.870   2.348 -2.4358 -0.8333  1.6743
   70SAPC  H15B 5979   6.251   4.760   2.225  1.0679  1.1669 -0.4578
   70SAPC  H15C 5980   6.151   4.891   2.178  0.2959 -2.5138 -1.0703
   70SAPC   C11 5981   6.213   4.577   2.414  0.5296 -0.7032 -0.1965
   70SAPC  H11A 5982   6.197   4.508   2.500 -2.7148  0.2892  0.1602
   70SAPC  H11B 5983   6.281   4.653   2.459 -0.0511 -0.5869  0.5147
   70SAPC     P 5984   6.378   4.509   2.235 -0.1056  0.0184  0.1565
   70SAPC   O13 5985   6.373   4.465   2.098  0.3172 -0.0380 -0.1636
   70SAPC   O14 5986   6.442   4.638   2.268 -0.4313 -0.2992  0.2134
   70SAPC   O12 5987   6.231   4.508   2.292 -0.3216 -0.1642 -0.1113
   70SAPC   O11 5988   6.434   4.393   2.325 -0.2011 -0.0719  0.2618
   70SAPC    C1 5989   6.371   4.266   2.332 -0.6306  0.3382  0.5772
   70SAPC    HA 5990   6.267   4.271   2.370 -0.4241 -0.6233  1.3169
   70SAPC    HB 5991   6.374   4.211   2.235 -1.7420 -2.9007  2.2133
   70SAPC    C2 5992   6.460   4.168   2.413 -0.4049 -0.9277 -0.2476
   70SAPC    HS 5993   6.428   4.061   2.412  2.4465 -1.8825  0.8600
   70SAPC   O21 5994   6.478   4.218   2.554 -0.0420  0.0406 -0.3102
   70SAPC   C21 5995   6.379   4.198   2.637 -0.3388 -0.6748 -0.2294
   70SAPC   O22 5996   6.275   4.133   2.618 -0.0702 -0.4451  0.4862
   70SAPC   C22 5997   6.410   4.277   2.762 -0.5770 -0.0497 -0.7980
   70SAPC   H2R 5998   6.516   4.310   2.750 -0.4182 -0.3168 -0.1736
   70SAPC   H2S 5999   6.340   4.363   2.765 -0.3201  0.2308 -2.1286
   70SAPC    C3 6000   6.601   4.174   2.346 -0.7169  0.3428 -0.1925
   70SAPC    HX 6001   6.641   4.278   2.349  0.3117 -0.0243 -0.7035
   70SAPC    HY 6002   6.599   4.138   2.241  0.0225 -2.0164  0.5312
   70SAPC   O31 6003   6.696   4.100   2.433 -0.3111  0.4525  0.8764
   70SAPC   C31 6004   6.683   3.967   2.403 -0.1134 -0.5702 -0.5938
   70SAPC   O32 6005   6.625   3.918   2.313  0.2141 -0.0605  0.6948
   70SAPC   C32 6006   6.791   3.899   2.494 -0.5271 -0.1876 -0.5081
   70SAPC   H2X 6007   6.811   3.958   2.586 -0.2491  0.4537 -0.9693
   70SAPC   H2Y 6008   6.889   3.902   2.442 -1.4511  0.5955 -2.3336
   70SAPC   C23 6009   6.390   4.176   2.879  0.5409  0.4392  0.2172
   70SAPC   H3R 6010   6.283   4.152   2.897  1.3243 -1.6953  2.6809
   70SAPC   H3S 6011   6.425   4.215   2.977  2.0209 -0.8141  0.2278
   70SAPC   C24 6012   6.469   4.036   2.856 -0.5230 -0.0217 -0.2638
   70SAPC   H4R 6013   6.449   3.976   2.764 -0.0851  0.4692 -0.6902
   70SAPC   H4S 6014   6.429   3.965   2.931 -1.1848  1.3615  0.7475
   70SAPC   C25 6015   6.623   4.056   2.867  0.4524 -0.1274  1.0210
   70SAPC   H5R 6016   6.659   4.113   2.779  1.1928 -0.7819  0.8804
   70SAPC   C26 6017   6.696   4.018   2.973  0.0980  0.2187 -0.4283
   70SAPC   H6R 6018   6.802   4.046   2.968 -0.6688  3.3837 -3.9616
   70SAPC   C27 6019   6.652   3.957   3.099 -0.3320  0.3889 -0.6583
   70SAPC   H7R 6020   6.728   3.893   3.149 -2.2866 -0.8520  0.8859
   70SAPC   H7S 6021   6.564   3.891   3.084  1.4091 -2.0400 -0.7341
   70SAPC   C28 6022   6.609   4.058   3.200 -0.0402  0.6795  0.0542
   70SAPC   H8R 6023   6.538   4.136   3.167  0.5370  0.5770 -1.4803
   70SAPC   C29 6024   6.656   4.062   3.328  0.2211  0.8813 -0.3375
   70SAPC   H9R 6025   6.614   4.137   3.397 -0.4069 -0.6733  1.0356
   70SAPC  C210 6026   6.742   3.962   3.406 -0.0826  0.2600 -0.2393
   70SAPC  H10R 6027   6.798   4.008   3.490  1.0820 -3.0049  0.9190
   70SAPC  H10S 6028   6.820   3.918   3.340  0.3915  1.3937 -0.4647
   70SAPC  C211 6029   6.655   3.850   3.458 -0.0142  0.0647 -0.6093
   70SAPC  H11R 6030   6.614   3.773   3.391  1.8398  0.0571 -1.8084
   70SAPC  C212 6031   6.625   3.838   3.592 -0.2266 -0.0037 -0.2308
   70SAPC  H12R 6032   6.569   3.751   3.628  0.6632  0.3499  2.1859
   70SAPC  C213 6033   6.682   3.922   3.704  0.2110  0.3820  0.8176
   70SAPC  H13R 6034   6.599   3.940   3.776  0.5659  1.6795  0.9424
   70SAPC  H13S 6035   6.700   4.027   3.670  1.7614 -0.5955 -1.6416
   70SAPC  C214 6036   6.802   3.870   3.773 -0.2039 -0.3022 -0.4161
   70SAPC  H14R 6037   6.872   3.820   3.705  1.8874  0.1975  1.2660
   70SAPC  C215 6038   6.840   3.880   3.903 -0.2485  0.0153  0.1416
   70SAPC  H15R 6039   6.942   3.845   3.923  0.4397  0.9280 -1.5341
   70SAPC  C216 6040   6.781   3.942   4.024 -0.0972 -0.3234  0.0515
   70SAPC  H16R 6041   6.679   3.975   3.993 -0.5441 -1.0618  0.6828
   70SAPC  H16S 6042   6.840   4.028   4.061  1.3527  0.0966 -2.9082
   70SAPC  C217 6043   6.760   3.845   4.144  0.4466 -0.5849 -0.0782
   70SAPC  H17R 6044   6.763   3.907   4.236 -1.5855  0.5461 -0.7229
   70SAPC  H17S 6045   6.853   3.784   4.154 -1.2154 -3.3070 -0.1467
   70SAPC  C218 6046   6.626   3.773   4.125 -0.0559 -0.1472  0.3052
   70SAPC  H18R 6047   6.629   3.701   4.041 -1.1558  1.2116 -0.9640
   70SAPC  H18S 6048   6.549   3.850   4.102 -2.9780 -2.2340  2.2856
   70SAPC  C219 6049   6.591   3.701   4.256  0.0067  0.1438 -0.2045
   70SAPC  H19R 6050   6.677   3.636   4.282  0.0427 -0.4168 -1.6334
   70SAPC  H19S 6051   6.498   3.645   4.231 -0.8527  1.3399  0.2121
   70SAPC  C220 6052   6.544   3.788   4.377  0.0605  0.4015  0.6291
   70SAPC  H20R 6053   6.546   3.736   4.475  0.3061  2.6487  1.8801
   70SAPC  H20S 6054   6.442   3.826   4.355 -0.6036 -2.4158 -1.8527
   70SAPC  H20T 6055   6.614   3.874   4.384 -2.1887  2.2887  1.3893
   70SAPC   C33 6056   6.741   3.752   2.540  0.1407  0.6620 -0.5757
   70SAPC   H3X 6057   6.835   3.700   2.566  1.3599  2.8632 -0.3361
   70SAPC   H3Y 6058   6.702   3.707   2.446 -0.2246  2.4826 -1.3544
   70SAPC   C34 6059   6.657   3.771   2.667  0.3843  0.3161 -0.2020
   70SAPC   H4X 6060   6.569   3.836   2.646 -0.8508 -0.7045  1.5241
   70SAPC   H4Y 6061   6.710   3.818   2.752  2.1634  0.3435 -1.2821
   70SAPC   C35 6062   6.609   3.635   2.713  0.4147 -0.0257 -0.3214
   70SAPC   H5X 6063   6.614   3.574   2.620 -0.6381 -0.7494  0.0717
   70SAPC   H5Y 6064   6.513   3.643   2.768  0.2193 -2.2504 -0.2365
   70SAPC   C36 6065   6.709   3.566   2.810  0.0399 -0.3135 -0.7277
   70SAPC   H6X 6066   6.813   3.580   2.772  0.1187 -0.3410 -0.5227
   70SAPC   H6Y 6067   6.701   3.455   2.809  3.5481 -0.6838  0.2002
   70SAPC   C37 6068   6.686   3.617   2.954 -0.4851  0.5848 -0.6662
   70SAPC   H7X 6069   6.729   3.718   2.962  2.8759 -0.8688  1.7206
   70SAPC   H7Y 6070   6.576   3.614   2.969 -0.3704  1.3542  0.3791
   70SAPC   C38 6071   6.758   3.519   3.049  0.4032  0.1694 -0.3073
   70SAPC   H8X 6072   6.867   3.521   3.027  0.1586 -0.5072 -1.6714
   70SAPC   H8Y 6073   6.725   3.413   3.042 -1.0488  0.6087 -0.4388
   70SAPC   C39 6074   6.729   3.572   3.196  0.1035 -0.5955  0.1365
   70SAPC   H9X 6075   6.620   3.581   3.218  0.6726  2.8706  2.1519
   70SAPC   H9Y 6076   6.771   3.673   3.214 -0.0974 -0.8291  2.0618
   70SAPC  C310 6077   6.797   3.472   3.293 -0.3765 -0.5366 -0.1944
   70SAPC  H10X 6078   6.906   3.480   3.278 -0.4563 -0.4994 -0.8094
   70SAPC  H10Y 6079   6.779   3.368   3.256 -2.3600  0.2877 -1.7695
   70SAPC  C311 6080   6.743   3.506   3.429  0.1456  0.2272 -0.5118
   70SAPC  H11X 6081   6.633   3.515   3.415  0.4181 -0.4539 -3.7007
   70SAPC  H11Y 6082   6.787   3.600   3.469  0.1030  0.3688 -0.8017
   70SAPC  C312 6083   6.761   3.381   3.526 -0.3719 -0.0867  0.3507
   70SAPC  H12X 6084   6.865   3.341   3.528 -0.8598 -1.5606 -1.1843
   70SAPC  H12Y 6085   6.696   3.297   3.495 -1.2852 -0.4979  3.1172
   70SAPC  C313 6086   6.715   3.411   3.667  0.3241  0.1082  0.0964
   70SAPC  H13X 6087   6.676   3.317   3.712 -1.5526  1.7465  2.1220
   70SAPC  H13Y 6088   6.630   3.483   3.675 -0.7159 -0.7493 -2.2734
   70SAPC  C314 6089   6.822   3.472   3.764 -0.0703 -0.0169 -0.1510
   70SAPC  H14X 6090   6.820   3.575   3.723 -0.7488 -0.3828 -1.0976
   70SAPC  H14Y 6091   6.923   3.432   3.743  0.0245  0.8835 -1.5602
   70SAPC  C315 6092   6.794   3.477   3.912 -0.0255  0.0037  0.2766
   70SAPC  H15X 6093   6.698   3.526   3.938 -0.7839 -0.9470 -0.6276
   70SAPC  H15Y 6094   6.875   3.546   3.941  0.1403  1.3316 -2.9417
   70SAPC  C316 6095   6.801   3.342   3.984 -0.2039  0.2603  0.0535
   70SAPC  H16X 6096   6.900   3.307   3.950 -0.0459 -0.7022  1.4114
   70SAPC  H16Y 6097   6.713   3.290   3.942 -0.5054  0.3198  0.5948
   70SAPC  C317 6098   6.794   3.345   4.138  0.0558 -0.5222  0.0676
   70SAPC  H17X 6099   6.691   3.371   4.171 -0.3617  0.1208 -1.6204
   70SAPC  H17Y 6100   6.864   3.422   4.177 -0.1521 -0.2510 -0.0899
   70SAPC  C318 6101   6.828   3.213   4.195  0.1269  0.5252  0.0625
   70SAPC  H18X 6102   6.808   3.210   4.304  0.4036  1.4947  0.1509
   70SAPC  H18Y 6103   6.936   3.189   4.189  0.3871  0.7572  2.7137
   70SAPC  H18Z 6104   6.762   3.139   4.145  1.5211  0.2800 -1.4906
   71SAPC     N 6105   0.546   1.363   1.808  0.5363 -0.2539 -0.3318
   71SAPC   C12 6106   0.519   1.258   1.910  0.0504 -0.1366 -0.7751
   71SAPC  H12A 6107   0.562   1.297   2.001 -0.7221 -0.1167 -0.4095
   71SAPC  H12B 6108   0.562   1.166   1.875  2.4110  0.2291  0.9198
   71SAPC   C13 6109   0.493   1.491   1.846 -0.7882 -0.6188 -0.3680
   71SAPC  H13A 6110   0.497   1.573   1.776 -0.8081  0.8067  1.2434
   71SAPC  H13B 6111   0.387   1.478   1.863 -0.6065 -0.4672  0.9307
   71SAPC  H13C 6112   0.535   1.518   1.941  0.4482 -3.3139 -0.0648
   71SAPC   C14 6113   0.696   1.375   1.790 -0.0601  0.1595 -0.1467
   71SAPC  H14A 6114   0.757   1.373   1.879  0.1874 -1.5955 -0.3067
   71SAPC  H14B 6115   0.730   1.293   1.727  1.8288  0.0414  0.9452
   71SAPC  H14C 6116   0.707   1.466   1.733 -0.6727 -0.5027 -1.3889
   71SAPC   C15 6117   0.477   1.322   1.686 -0.8239 -0.0956  0.0567
   71SAPC  H15A 6118   0.499   1.394   1.608 -2.3942 -0.6323 -0.9239
   71SAPC  H15B 6119   0.504   1.227   1.643 -1.3181  0.4022 -1.3999
   71SAPC  H15C 6120   0.373   1.308   1.709 -0.5998 -1.2262  0.4482
   71SAPC   C11 6121   0.373   1.215   1.937 -0.4613  0.3077 -0.2301
   71SAPC  H11A 6122   0.375   1.118   1.992  1.2879  0.0898 -0.6110
   71SAPC  H11B 6123   0.330   1.185   1.840 -1.9061 -0.4230  0.6013
   71SAPC     P 6124   0.311   1.350   2.156  0.1203  0.3352  0.0551
   71SAPC   O13 6125   0.462   1.359   2.177 -0.1276  0.6561 -0.0487
   71SAPC   O14 6126   0.238   1.471   2.192  0.3173 -0.3805 -0.4444
   71SAPC   O12 6127   0.283   1.311   1.999 -0.0980  0.4704  0.1373
   71SAPC   O11 6128   0.260   1.230   2.241  0.7039 -0.0929 -0.1361
   71SAPC    C1 6129   0.118   1.202   2.248  0.5826  0.3889 -0.4975
   71SAPC    HA 6130   0.052   1.291   2.258  0.4014  0.1745  0.2966
   71SAPC    HB 6131   0.083   1.149   2.158  1.1200  1.2335 -1.2241
   71SAPC    C2 6132   0.085   1.129   2.381 -0.0849 -0.4153 -1.1446
   71SAPC    HS 6133  -0.022   1.100   2.381 -0.1432 -0.2226 -2.2704
   71SAPC   O21 6134   0.117   1.216   2.499  0.1935  0.0802 -0.9179
   71SAPC   C21 6135   0.049   1.207   2.606 -0.7983 -0.5362  0.1490
   71SAPC   O22 6136  -0.061   1.161   2.622  0.1995  0.3983 -0.1756
   71SAPC   C22 6137   0.136   1.255   2.726 -0.9297 -0.4309  0.4079
   71SAPC   H2R 6138   0.228   1.297   2.679 -1.2442 -1.7544 -1.4905
   71SAPC   H2S 6139   0.097   1.344   2.780 -1.2961  0.5325 -1.3562
   71SAPC    C3 6140   0.159   0.993   2.398 -0.4774  0.0493 -0.4242
   71SAPC    HX 6141   0.267   1.017   2.411 -0.7630  0.0801  2.4362
   71SAPC    HY 6142   0.148   0.930   2.307  0.4200  0.0486 -0.5444
   71SAPC   O31 6143   0.117   0.925   2.512 -0.2826 -0.5560 -1.4593
   71SAPC   C31 6144   0.037   0.817   2.505  0.1636  0.2066 -0.1486
   71SAPC   O32 6145   0.008   0.753   2.408 -0.3056 -0.1379 -0.0933
   71SAPC   C32 6146  -0.008   0.792   2.647  0.6379  0.5911  0.4856
   71SAPC   H2X 6147  -0.091   0.864   2.666 -1.3159 -0.6122 -2.6832
   71SAPC   H2Y 6148   0.085   0.805   2.706  0.9875  0.9589 -0.1266
   71SAPC   C23 6149   0.185   1.144   2.826  1.0041 -0.2858 -0.1566
   71SAPC   H3R 6150   0.285   1.160   2.870  0.3105 -1.5476  2.0053
   71SAPC   H3S 6151   0.200   1.052   2.765  1.2408  0.6189 -1.5174
   71SAPC   C24 6152   0.081   1.116   2.936 -0.0219 -0.0063  0.2912
   71SAPC   H4R 6153   0.118   1.021   2.980 -1.3303 -0.2197  0.9936
   71SAPC   H4S 6154  -0.024   1.099   2.905 -0.7515  0.3684  2.3772
   71SAPC   C25 6155   0.084   1.233   3.033  0.0995 -0.3528  0.4783
   71SAPC   H5R 6156   0.094   1.329   2.981  2.9288 -3.4374 -5.6811
   71SAPC   C26 6157   0.109   1.225   3.164 -0.4111 -0.0477  0.1751
   71SAPC   H6R 6158   0.097   1.317   3.224  0.3647  0.2704 -0.1469
   71SAPC   C27 6159   0.101   1.095   3.250 -0.0446  0.0995 -0.4040
   71SAPC   H7R 6160   0.063   1.009   3.191 -0.9996  2.1097 -2.8711
   71SAPC   H7S 6161   0.016   1.118   3.317 -0.0331 -2.2114  0.4833
   71SAPC   C28 6162   0.232   1.068   3.327  0.2205 -0.6057  0.6238
   71SAPC   H8R 6163   0.324   1.099   3.277 -1.5990  1.0500 -1.9215
   71SAPC   C29 6164   0.234   1.027   3.455 -0.9619 -0.0731  0.5131
   71SAPC   H9R 6165   0.332   1.006   3.501  0.0367  0.1098 -1.4335
   71SAPC  C210 6166   0.113   0.996   3.543  0.8845  0.2194  0.2798
   71SAPC  H10R 6167   0.158   0.930   3.622  0.3302 -0.4956  0.0087
   71SAPC  H10S 6168   0.036   0.941   3.486  0.3767  0.2607  0.9074
   71SAPC  C211 6169   0.050   1.128   3.588  0.1212  0.1102 -0.5671
   71SAPC  H11R 6170   0.044   1.200   3.505  0.1109 -1.5362 -2.0388
   71SAPC  C212 6171  -0.006   1.156   3.707  0.0127 -0.9508  0.7311
   71SAPC  H12R 6172  -0.052   1.254   3.727 -0.5570 -0.6064 -1.8534
   71SAPC  C213 6173   0.003   1.073   3.832  0.0038 -0.3065 -0.1864
   71SAPC  H13R 6174   0.031   0.969   3.805 -0.3239  0.0902 -2.1338
   71SAPC  H13S 6175  -0.100   1.067   3.872  0.8824 -0.2132  2.2733
   71SAPC  C214 6176   0.099   1.132   3.934  0.1586 -1.1744  0.9964
   71SAPC  H14R 6177   0.196   1.159   3.890 -0.6929  0.1957 -0.1726
   71SAPC  C215 6178   0.083   1.150   4.065  1.1173 -0.3311  0.7330
   71SAPC  H15R 6179   0.164   1.205   4.115  2.2328 -2.0625  0.9097
   71SAPC  C216 6180  -0.044   1.116   4.139 -0.8452 -0.0594  0.7948
   71SAPC  H16R 6181  -0.035   1.026   4.204 -1.5360 -1.1503 -0.5816
   71SAPC  H16S 6182  -0.129   1.088   4.075 -0.2505  0.4331 -0.2321
   71SAPC  C217 6183  -0.097   1.215   4.246 -0.1266  0.4380  0.2243
   71SAPC  H17R 6184  -0.150   1.294   4.189  0.0384  1.3616  1.3388
   71SAPC  H17S 6185  -0.008   1.260   4.294  0.6443 -0.7730 -0.0054
   71SAPC  C218 6186  -0.205   1.165   4.334  0.2809 -0.5658  0.2354
   71SAPC  H18R 6187  -0.166   1.092   4.408  0.0120  0.1077  1.0601
   71SAPC  H18S 6188  -0.292   1.125   4.278 -0.3623  0.5564  0.3869
   71SAPC  C219 6189  -0.268   1.281   4.423 -0.2468  0.0849 -0.6329
   71SAPC  H19R 6190  -0.282   1.375   4.365  0.0883  0.0558 -0.7641
   71SAPC  H19S 6191  -0.201   1.297   4.510 -0.7313 -1.9501  0.1764
   71SAPC  C220 6192  -0.408   1.246   4.485  0.4062  0.0469  0.4062
   71SAPC  H20R 6193  -0.396   1.154   4.547  1.1739 -0.3474 -0.3138
   71SAPC  H20S 6194  -0.479   1.220   4.404  0.3863  0.9810  0.1107
   71SAPC  H20T 6195  -0.442   1.331   4.548 -1.4327 -1.3018  1.3375
   71SAPC   C33 6196  -0.066   0.653   2.658  1.1083  0.3957  0.8547
   71SAPC   H3X 6197  -0.009   0.570   2.609  2.1448  1.7197 -0.2768
   71SAPC   H3Y 6198  -0.166   0.663   2.609  1.3044 -1.8511 -0.1353
   71SAPC   C34 6199  -0.077   0.608   2.796 -0.0927 -0.4433  0.0621
   71SAPC   H4X 6200  -0.156   0.531   2.788  0.4242 -0.8908 -0.7870
   71SAPC   H4Y 6201  -0.114   0.695   2.856  2.8417  0.4476  0.7429
   71SAPC   C35 6202   0.054   0.555   2.858  0.0334  0.8701  0.0739
   71SAPC   H5X 6203   0.138   0.623   2.831  0.0888  1.2764  1.1771
   71SAPC   H5Y 6204   0.072   0.458   2.807 -1.0230  0.9282 -0.4403
   71SAPC   C36 6205   0.035   0.537   3.008  0.3150 -0.0559 -0.2075
   71SAPC   H6X 6206  -0.060   0.482   3.019  0.7350 -0.9894 -1.1765
   71SAPC   H6Y 6207   0.028   0.632   3.067 -0.1466 -0.3209  0.1722
   71SAPC   C37 6208   0.154   0.455   3.061  1.5755 -0.5806  0.2421
   71SAPC   H7X 6209   0.239   0.521   3.035  0.4611 -0.2039 -2.9144
   71SAPC   H7Y 6210   0.156   0.357   3.008  0.2867 -0.4644 -0.0487
   71SAPC   C38 6211   0.139   0.431   3.212 -0.1192  0.5891  0.1279
   71SAPC   H8X 6212   0.140   0.527   3.269 -2.8676  0.5596  0.3494
   71SAPC   H8Y 6213   0.222   0.364   3.241 -0.7465 -0.0356  0.4833
   71SAPC   C39 6214   0.008   0.358   3.257 -0.1997  0.0834  0.0607
   71SAPC   H9X 6215   0.001   0.275   3.183  0.3668  0.0504  0.0451
   71SAPC   H9Y 6216  -0.086   0.414   3.237  0.8882  1.8404 -0.4297
   71SAPC  C310 6217   0.012   0.304   3.408 -0.0359 -0.1481 -1.0063
   71SAPC  H10X 6218   0.112   0.267   3.438 -1.2825 -2.0564  1.1119
   71SAPC  H10Y 6219  -0.056   0.218   3.421  1.2472 -0.9458  0.8549
   71SAPC  C311 6220  -0.024   0.418   3.503 -0.5602  0.8072  0.2334
   71SAPC  H11X 6221  -0.105   0.483   3.463  1.5728  4.4888  1.4072
   71SAPC  H11Y 6222   0.071   0.474   3.511  0.6388 -0.5349 -2.7861
   71SAPC  C312 6223  -0.070   0.374   3.640  0.0044 -0.1141 -0.1381
   71SAPC  H12X 6224  -0.003   0.295   3.680 -0.0209  0.8818  2.0190
   71SAPC  H12Y 6225  -0.178   0.345   3.637 -0.8922  2.9771 -0.8466
   71SAPC  C313 6226  -0.050   0.498   3.739  0.2520 -0.4374 -0.2305
   71SAPC  H13X 6227  -0.041   0.586   3.671  0.6491 -1.9603 -2.2663
   71SAPC  H13Y 6228   0.046   0.482   3.792  1.0988 -0.0063 -1.5733
   71SAPC  C314 6229  -0.168   0.521   3.842  0.4467  0.3070  0.1810
   71SAPC  H14X 6230  -0.166   0.428   3.902  1.5388  0.6915  0.7703
   71SAPC  H14Y 6231  -0.264   0.516   3.787  1.0231 -1.5739 -0.7433
   71SAPC  C315 6232  -0.151   0.643   3.932  0.0600 -0.0223  0.0136
   71SAPC  H15X 6233  -0.110   0.729   3.875 -2.0090 -0.8107 -2.9065
   71SAPC  H15Y 6234  -0.082   0.613   4.014 -0.4534 -3.8958 -0.7734
   71SAPC  C316 6235  -0.284   0.684   3.993 -0.7901  0.4888 -0.1705
   71SAPC  H16X 6236  -0.345   0.608   4.047 -0.5361  1.2743  1.3013
   71SAPC  H16Y 6237  -0.349   0.710   3.907 -1.6283 -0.8100  0.0404
   71SAPC  C317 6238  -0.265   0.818   4.072  0.2569 -0.0844 -0.2790
   71SAPC  H17X 6239  -0.201   0.891   4.019  1.5032  1.5804  3.1612
   71SAPC  H17Y 6240  -0.210   0.792   4.165 -0.6829  0.8034  0.5489
   71SAPC  C318 6241  -0.403   0.882   4.112 -0.8915  0.0101 -0.1695
   71SAPC  H18X 6242  -0.388   0.984   4.153  1.4972 -0.2080 -0.3498
   71SAPC  H18Y 6243  -0.447   0.815   4.190 -1.2821  0.3252 -0.1134
   71SAPC  H18Z 6244  -0.477   0.874   4.029 -1.1625 -2.5825  0.2189
   72SAPC     N 6245   6.108   6.363   1.821  0.2482 -0.3372 -0.2997
   72SAPC   C12 6246   6.222   6.366   1.927 -0.0973 -0.4018  0.7760
   72SAPC  H12A 6247   6.211   6.466   1.966  0.4731  0.8052 -1.8684
   72SAPC  H12B 6248   6.318   6.374   1.879  0.0535  0.5536  1.2151
   72SAPC   C13 6249   5.978   6.410   1.884  0.1899 -0.2705  0.1688
   72SAPC  H13A 6250   5.901   6.396   1.810  1.1374 -3.1453 -0.4009
   72SAPC  H13B 6251   5.953   6.358   1.975  0.5674 -0.1366  0.3523
   72SAPC  H13C 6252   5.980   6.517   1.900 -2.6018  0.0537 -1.0916
   72SAPC   C14 6253   6.142   6.461   1.713  0.2494  0.0675 -0.0226
   72SAPC  H14A 6254   6.065   6.453   1.638  0.0980  0.0793  0.1304
   72SAPC  H14B 6255   6.139   6.564   1.745  0.3175  0.5097 -1.3739
   72SAPC  H14C 6256   6.237   6.451   1.663 -0.3181 -1.3696 -0.8824
   72SAPC   C15 6257   6.093   6.233   1.761  0.3454  0.2326  0.6994
   72SAPC  H15A 6258   6.033   6.229   1.671  1.0149 -2.1726  0.2683
   72SAPC  H15B 6259   6.192   6.200   1.732  0.1709  1.0931 -0.9786
   72SAPC  H15C 6260   6.057   6.158   1.831  0.7225  1.4385  2.2397
   72SAPC   C11 6261   6.219   6.264   2.039  0.4587 -0.5879 -0.7117
   72SAPC  H11A 6262   6.231   6.163   1.994  2.6502  0.7316 -3.4762
   72SAPC  H11B 6263   6.121   6.263   2.090  0.3302 -0.5906 -0.9543
   72SAPC     P 6264   6.298   6.422   2.233 -0.0359 -0.1318  0.2746
   72SAPC   O13 6265   6.419   6.426   2.320 -0.0644  0.1491 -0.0544
   72SAPC   O14 6266   6.272   6.541   2.146  0.1402 -0.2027  0.3657
   72SAPC   O12 6267   6.325   6.295   2.134 -0.1476 -0.2906 -0.0843
   72SAPC   O11 6268   6.169   6.395   2.316  0.1510 -0.0345 -0.7445
   72SAPC    C1 6269   6.167   6.265   2.382  0.1525 -0.3231  0.6901
   72SAPC    HA 6270   6.101   6.190   2.335  0.3076 -0.6413  0.9760
   72SAPC    HB 6271   6.261   6.206   2.383  1.3398  1.4731  2.1381
   72SAPC    C2 6272   6.115   6.290   2.529  0.9607  0.3446  1.1674
   72SAPC    HS 6273   6.028   6.357   2.508  0.9272 -0.0006  0.1636
   72SAPC   O21 6274   6.213   6.344   2.617 -0.0944  0.0238  0.0057
   72SAPC   C21 6275   6.186   6.461   2.671  0.8323  0.4848 -0.4299
   72SAPC   O22 6276   6.096   6.537   2.651  0.4162 -0.0810 -0.3910
   72SAPC   C22 6277   6.293   6.476   2.780 -0.4300  0.1872  0.1004
   72SAPC   H2R 6278   6.258   6.428   2.874 -1.0707 -0.5465 -0.5000
   72SAPC   H2S 6279   6.388   6.430   2.746 -1.2241 -0.1897 -1.7310
   72SAPC    C3 6280   6.055   6.161   2.578 -0.4268  0.2395  0.1460
   72SAPC    HX 6281   6.140   6.091   2.571  1.1347  1.6975  2.7469
   72SAPC    HY 6282   5.980   6.128   2.504 -0.1402  1.9384 -0.9694
   72SAPC   O31 6283   6.019   6.169   2.722  0.6673 -0.1215  0.3786
   72SAPC   C31 6284   5.903   6.106   2.753 -0.5044  0.4012  0.2291
   72SAPC   O32 6285   5.829   6.056   2.671  0.0149  0.0097  1.7922
   72SAPC   C32 6286   5.886   6.102   2.909 -0.4192  0.3878 -0.1478
   72SAPC   H2X 6287   5.924   6.004   2.944 -1.1901  0.3540  0.6325
   72SAPC   H2Y 6288   5.776   6.094   2.926 -0.3959  0.8728  0.2458
   72SAPC   C23 6289   6.331   6.621   2.811 -0.0245  0.0744  0.1014
   72SAPC   H3R 6290   6.369   6.684   2.727 -0.3405  1.2096  0.7807
   72SAPC   H3S 6291   6.413   6.618   2.885 -0.2454 -0.9914  0.3159
   72SAPC   C24 6292   6.217   6.693   2.886  0.0567 -0.7707  0.4411
   72SAPC   H4R 6293   6.174   6.628   2.965  0.9638 -1.1816  0.6161
   72SAPC   H4S 6294   6.138   6.707   2.809  0.0860  1.0840  0.7139
   72SAPC   C25 6295   6.260   6.832   2.929 -0.1074  0.2866  0.0229
   72SAPC   H5R 6296   6.279   6.900   2.845 -2.7595  0.2598 -0.6769
   72SAPC   C26 6297   6.281   6.875   3.050  0.0890 -0.0514  0.0034
   72SAPC   H6R 6298   6.296   6.983   3.064 -0.1051 -0.3980  3.8339
   72SAPC   C27 6299   6.267   6.800   3.180 -0.3439 -0.7084  0.2318
   72SAPC   H7R 6300   6.174   6.741   3.172  0.8212 -2.5230 -0.7756
   72SAPC   H7S 6301   6.269   6.867   3.268  0.9779  0.0104 -0.3184
   72SAPC   C28 6302   6.388   6.720   3.202  0.2877  0.0798  0.5909
   72SAPC   H8R 6303   6.435   6.676   3.114  0.5726 -0.4115  0.9800
   72SAPC   C29 6304   6.446   6.691   3.315  0.0192  0.0519 -0.5391
   72SAPC   H9R 6305   6.540   6.634   3.327 -0.2223  0.1022  2.3176
   72SAPC  C210 6306   6.407   6.731   3.451 -0.3364 -0.3448 -0.6536
   72SAPC  H10R 6307   6.303   6.766   3.468  0.0079 -0.3313  1.6191
   72SAPC  H10S 6308   6.483   6.811   3.464 -0.3532 -0.3486 -0.5375
   72SAPC  C211 6309   6.437   6.620   3.552  0.5059  0.1573 -0.3814
   72SAPC  H11R 6310   6.452   6.522   3.504 -0.9066  1.0935 -2.9334
   72SAPC  C212 6311   6.433   6.625   3.688 -0.1806 -0.1816  0.7337
   72SAPC  H12R 6312   6.447   6.532   3.744 -1.2629 -1.4492 -1.0094
   72SAPC  C213 6313   6.393   6.747   3.768 -0.3867 -0.4188 -0.4126
   72SAPC  H13R 6314   6.335   6.817   3.705 -1.8529  0.2021  1.5469
   72SAPC  H13S 6315   6.489   6.795   3.796  0.4845 -2.4976  0.3581
   72SAPC  C214 6316   6.309   6.740   3.894 -0.1072  0.2405 -0.2203
   72SAPC  H14R 6317   6.216   6.798   3.895  0.4792  1.2531  2.0777
   72SAPC  C215 6318   6.332   6.675   4.015  0.8639  0.3302  0.5329
   72SAPC  H15R 6319   6.271   6.697   4.104  0.8930  2.7136  0.0309
   72SAPC  C216 6320   6.465   6.600   4.033  0.3853  0.4712 -1.4569
   72SAPC  H16R 6321   6.533   6.625   3.949  0.5552 -1.1352 -1.8282
   72SAPC  H16S 6322   6.464   6.489   4.037  2.2783  0.4545  2.0215
   72SAPC  C217 6323   6.519   6.657   4.160 -1.0121 -0.3998  0.3657
   72SAPC  H17R 6324   6.507   6.766   4.179  0.2953 -0.2123  0.1940
   72SAPC  H17S 6325   6.629   6.641   4.164 -0.5757  2.2848  1.5222
   72SAPC  C218 6326   6.453   6.608   4.290 -0.1617 -0.0336 -0.5254
   72SAPC  H18R 6327   6.426   6.502   4.272  1.0590 -0.2650 -1.1347
   72SAPC  H18S 6328   6.348   6.643   4.289 -0.6729 -1.5002 -0.0614
   72SAPC  C219 6329   6.540   6.624   4.418  0.1944 -0.0226 -0.3694
   72SAPC  H19R 6330   6.646   6.607   4.390  0.4426  1.4276 -0.3957
   72SAPC  H19S 6331   6.510   6.540   4.483 -1.3447 -0.4013 -1.5181
   72SAPC  C220 6332   6.523   6.761   4.483  0.2546  0.2559  0.2919
   72SAPC  H20R 6333   6.554   6.841   4.412 -1.3009 -1.0478 -1.9835
   72SAPC  H20S 6334   6.584   6.763   4.575  1.0415 -0.8019 -0.1900
   72SAPC  H20T 6335   6.414   6.774   4.501 -0.1906 -0.6434 -1.4802
   72SAPC   C33 6336   5.941   6.226   2.983  0.4570 -0.4507 -0.2891
   72SAPC   H3X 6337   5.883   6.314   2.947  0.5378 -0.4394 -0.3931
   72SAPC   H3Y 6338   6.048   6.255   2.974 -0.0715  1.5588 -0.6361
   72SAPC   C34 6339   5.921   6.229   3.132  0.3732 -0.4850 -0.3377
   72SAPC   H4X 6340   5.996   6.158   3.174  1.5049  1.9593  2.1393
   72SAPC   H4Y 6341   5.821   6.200   3.171  0.3530 -1.6202 -1.1860
   72SAPC   C35 6342   5.960   6.362   3.198  0.1098 -0.2821  0.7595
   72SAPC   H5X 6343   6.052   6.408   3.157 -1.0164  2.2274  0.8715
   72SAPC   H5Y 6344   5.981   6.338   3.305  0.0546  0.2600  0.8955
   72SAPC   C36 6345   5.859   6.477   3.200 -0.4424  0.2429 -0.5687
   72SAPC   H6X 6346   5.776   6.433   3.260 -1.1409  0.6249 -1.2397
   72SAPC   H6Y 6347   5.818   6.502   3.100 -0.0791  0.6286 -0.6230
   72SAPC   C37 6348   5.903   6.611   3.269 -1.0269 -0.1807  0.2839
   72SAPC   H7X 6349   5.821   6.681   3.296 -2.8717 -2.3419  0.6324
   72SAPC   H7Y 6350   5.978   6.665   3.208  0.7028 -0.5534  1.9917
   72SAPC   C38 6351   5.991   6.588   3.399 -0.1287 -0.1673 -0.1805
   72SAPC   H8X 6352   6.045   6.681   3.428 -0.3655 -0.7179  2.2754
   72SAPC   H8Y 6353   6.070   6.514   3.377  0.2543 -0.2905  1.5087
   72SAPC   C39 6354   5.915   6.539   3.526  0.2164  0.1235  0.0737
   72SAPC   H9X 6355   5.826   6.477   3.501 -0.4971  0.7061  1.0829
   72SAPC   H9Y 6356   5.884   6.628   3.585  2.0926 -0.4234  1.9881
   72SAPC  C310 6357   5.993   6.452   3.626  0.3671  0.7809 -0.1673
   72SAPC  H10X 6358   6.099   6.480   3.612  0.8119 -1.5768 -2.3274
   72SAPC  H10Y 6359   5.999   6.346   3.592  1.4654  0.9800 -0.6128
   72SAPC  C311 6360   5.935   6.465   3.770  0.1463 -0.3713 -0.0751
   72SAPC  H11X 6361   5.842   6.403   3.765  0.3989 -0.9625  1.8464
   72SAPC  H11Y 6362   5.912   6.571   3.790 -0.6866 -0.4191 -0.7289
   72SAPC  C312 6363   6.030   6.403   3.875 -0.6672  0.6182 -0.7162
   72SAPC  H12X 6364   6.124   6.463   3.876  0.1056 -0.5502 -0.8426
   72SAPC  H12Y 6365   6.073   6.301   3.860  0.4000  0.3876  2.9250
   72SAPC  C313 6366   5.951   6.416   4.013 -0.4748  0.7507  0.4064
   72SAPC  H13X 6367   5.989   6.329   4.069 -0.3071  1.4833  1.4564
   72SAPC  H13Y 6368   5.843   6.400   3.991 -0.7063  1.1470  1.2302
   72SAPC  C314 6369   5.984   6.539   4.100  0.3610  0.3824  0.3322
   72SAPC  H14X 6370   5.940   6.633   4.060 -3.4667 -0.4325  2.1776
   72SAPC  H14Y 6371   6.093   6.552   4.116  0.4070  0.9110 -0.3476
   72SAPC  C315 6372   5.927   6.514   4.238 -0.2735  0.5421  0.1688
   72SAPC  H15X 6373   5.966   6.417   4.275  2.1664  1.8602  1.3126
   72SAPC  H15Y 6374   5.816   6.514   4.231 -0.2046  2.2968 -1.7632
   72SAPC  C316 6375   5.966   6.625   4.341  0.2673  0.3939 -0.2477
   72SAPC  H16X 6376   5.902   6.712   4.317  0.3323  0.7156  0.7227
   72SAPC  H16Y 6377   6.074   6.650   4.338  0.2611  0.4986  0.4152
   72SAPC  C317 6378   5.943   6.582   4.488 -0.0329  0.0077 -1.0069
   72SAPC  H17X 6379   5.986   6.663   4.551  0.3096  0.8645 -2.2954
   72SAPC  H17Y 6380   6.010   6.495   4.505  1.4361  1.7743  3.8874
   72SAPC  C318 6381   5.806   6.535   4.538 -0.5612 -0.5017 -0.1047
   72SAPC  H18X 6382   5.788   6.435   4.494  0.5105 -2.4422  3.4707
   72SAPC  H18Y 6383   5.722   6.605   4.517 -0.5506 -0.4077  0.1623
   72SAPC  H18Z 6384   5.818   6.521   4.648  0.3327 -0.5199 -0.2022
   73SLPC     N 6385   6.086   3.132   6.634  0.1952  0.2046 -0.0276
   73SLPC   C13 6386   5.960   3.056   6.626  0.3795  0.7701 -0.0139
   73SLPC  H13A 6387   5.957   2.977   6.552  1.4466  0.3897  0.3238
   73SLPC  H13B 6388   5.921   3.032   6.724 -1.8277 -0.2216 -1.0797
   73SLPC  H13C 6389   5.891   3.126   6.582  0.7074  0.9416 -0.2553
   73SLPC   C14 6390   6.134   3.176   6.502 -0.3641 -0.0808 -0.2418
   73SLPC  H14A 6391   6.080   3.263   6.470 -0.0481  0.4699  0.6934
   73SLPC  H14B 6392   6.238   3.204   6.509 -0.0078 -0.4574 -2.8430
   73SLPC  H14C 6393   6.120   3.093   6.434 -0.8685 -2.0079  2.0648
   73SLPC   C15 6394   6.189   3.048   6.692 -0.3605  0.0676 -0.5789
   73SLPC  H15A 6395   6.280   3.103   6.711 -0.9158  0.9160 -0.3104
   73SLPC  H15B 6396   6.150   3.006   6.784 -1.1529  1.7103 -0.1271
   73SLPC  H15C 6397   6.216   2.964   6.630 -3.4723 -0.4400 -1.3926
   73SLPC   C12 6398   6.062   3.251   6.719  0.1834  0.8160 -0.0901
   73SLPC  H12A 6399   6.154   3.301   6.745  0.2074 -0.1739  1.9489
   73SLPC  H12B 6400   6.007   3.215   6.805 -0.6642  0.6805 -0.6834
   73SLPC   C11 6401   5.968   3.361   6.654 -0.1540 -0.1489 -0.0627
   73SLPC  H11A 6402   5.940   3.427   6.739  1.6272 -0.2666  0.6452
   73SLPC  H11B 6403   5.872   3.322   6.614  0.0733 -1.4128  0.5678
   73SLPC     P 6404   6.022   3.589   6.537 -0.1823 -0.2587  0.0834
   73SLPC   O13 6405   5.931   3.630   6.435 -0.6383  0.7074 -0.0376
   73SLPC   O14 6406   5.991   3.654   6.664  0.1976  0.2234  0.1532
   73SLPC   O12 6407   6.039   3.429   6.545 -0.0878 -0.2948 -0.2001
   73SLPC   O11 6408   6.156   3.644   6.497 -0.0980  0.8039  0.1965
   73SLPC    C1 6409   6.287   3.584   6.529  1.0804  0.4222 -0.0154
   73SLPC    HA 6410   6.361   3.651   6.576  1.5242  1.5191 -2.1425
   73SLPC    HB 6411   6.278   3.490   6.587 -0.2937 -0.6674 -1.8831
   73SLPC    C2 6412   6.372   3.540   6.402  0.1245 -0.0341  0.0804
   73SLPC    HS 6413   6.431   3.629   6.369 -0.6585  0.9358  1.2020
   73SLPC   O21 6414   6.291   3.478   6.298 -0.0886  0.3893 -0.2275
   73SLPC   C21 6415   6.220   3.572   6.224 -0.4376 -0.2474  0.1955
   73SLPC   O22 6416   6.232   3.691   6.238  0.3222  0.0019 -0.4004
   73SLPC   C22 6417   6.129   3.499   6.125  0.2185  0.1580 -0.2893
   73SLPC   H2R 6418   6.183   3.418   6.072  1.9490  1.7801 -1.1244
   73SLPC   H2S 6419   6.038   3.461   6.176 -0.4189  0.6330 -1.0537
   73SLPC    C3 6420   6.484   3.443   6.449 -0.3002 -0.0973 -0.0333
   73SLPC    HX 6421   6.432   3.350   6.479 -0.8695  0.3873  0.5222
   73SLPC    HY 6422   6.531   3.499   6.532  2.1974  0.9229 -2.0012
   73SLPC   O31 6423   6.574   3.419   6.342 -0.2227  0.6077  0.0661
   73SLPC   C31 6424   6.685   3.494   6.343  0.1841 -0.0435 -0.1516
   73SLPC   O32 6425   6.715   3.579   6.429 -0.1796 -0.0994  0.8775
   73SLPC   C32 6426   6.758   3.461   6.214  0.0253  0.4572  0.3857
   73SLPC   H2X 6427   6.830   3.378   6.230 -0.3114  0.4376  1.9760
   73SLPC   H2Y 6428   6.816   3.549   6.176  0.3291 -0.4792 -1.4515
   73SLPC   C23 6429   6.092   3.588   6.008 -0.0613  0.6072  0.1938
   73SLPC   H3R 6430   6.173   3.579   5.933  1.4118 -0.1158  1.8224
   73SLPC   H3S 6431   6.095   3.697   6.029 -0.3228  0.4077  1.3357
   73SLPC   C24 6432   5.960   3.539   5.953 -0.6934 -0.5110  1.1913
   73SLPC   H4R 6433   5.884   3.556   6.031 -1.2552  2.0559  0.2059
   73SLPC   H4S 6434   5.956   3.433   5.920  1.0945 -0.4031  0.4843
   73SLPC   C25 6435   5.924   3.619   5.822 -0.1194  0.0196 -0.2522
   73SLPC   H5R 6436   6.000   3.601   5.743  1.0580 -1.0221  1.0519
   73SLPC   H5S 6437   5.920   3.725   5.853  1.2874  0.5866 -1.8652
   73SLPC   C26 6438   5.780   3.590   5.768  0.2989 -0.3757  0.4744
   73SLPC   H6R 6439   5.715   3.563   5.854  0.1578 -2.0651 -0.1312
   73SLPC   H6S 6440   5.786   3.511   5.691  0.4825 -0.5092  0.6232
   73SLPC   C27 6441   5.730   3.720   5.693 -0.4496  0.2191  0.2065
   73SLPC   H7R 6442   5.737   3.805   5.763  0.4694  0.6724 -0.4148
   73SLPC   H7S 6443   5.624   3.707   5.663 -0.4032 -0.4607  0.3225
   73SLPC   C28 6444   5.796   3.746   5.555  0.1629  0.3890 -0.2709
   73SLPC   H8R 6445   5.907   3.744   5.565  0.0517 -0.7168  0.9053
   73SLPC   H8S 6446   5.762   3.851   5.538  2.1726  1.3187  1.0856
   73SLPC   C29 6447   5.768   3.650   5.446 -0.0586  1.1437  0.3553
   73SLPC   H9R 6448   5.783   3.549   5.487  0.1154  0.3823 -1.4604
   73SLPC  C210 6449   5.737   3.666   5.316 -0.3595  0.7250  0.2624
   73SLPC  H10R 6450   5.722   3.572   5.261 -2.7002  1.1263  0.0974
   73SLPC  C211 6451   5.720   3.802   5.248 -0.0444 -0.0078 -0.3239
   73SLPC  H11R 6452   5.746   3.884   5.317  0.9587  1.7995 -2.7154
   73SLPC  H11S 6453   5.616   3.808   5.208  0.7775  1.7988 -2.3377
   73SLPC  C212 6454   5.812   3.824   5.125  0.4487 -0.0084  0.2482
   73SLPC  H12R 6455   5.913   3.863   5.148  0.1978  0.4563  0.5681
   73SLPC  C213 6456   5.803   3.778   5.000  0.9088 -0.2723 -0.8135
   73SLPC  H13R 6457   5.879   3.796   4.922  2.6123  0.8718  1.0043
   73SLPC  C214 6458   5.683   3.694   4.963 -0.6906  0.4414  0.2359
   73SLPC  H14R 6459   5.604   3.698   5.041 -1.8686 -0.8468 -0.8541
   73SLPC  H14S 6460   5.719   3.589   4.961  2.1166  1.2880  1.0676
   73SLPC  C215 6461   5.608   3.740   4.835 -0.3836 -0.5988  0.0158
   73SLPC  H15R 6462   5.671   3.709   4.749  0.4313  0.2607  0.2825
   73SLPC  H15S 6463   5.596   3.850   4.849 -1.7267 -0.8470  0.9632
   73SLPC  C216 6464   5.475   3.673   4.819 -0.3872  0.5126  0.3625
   73SLPC  H16R 6465   5.419   3.687   4.914 -1.7602 -0.0546 -0.3308
   73SLPC  H16S 6466   5.503   3.566   4.806 -0.4903  0.7517 -2.4913
   73SLPC  C217 6467   5.399   3.733   4.704 -0.9688 -0.7488 -0.5916
   73SLPC  H17R 6468   5.424   3.837   4.675 -1.5911  0.2497  2.1186
   73SLPC  H17S 6469   5.293   3.737   4.739 -0.8326 -1.7314 -0.0613
   73SLPC  C218 6470   5.401   3.639   4.582 -0.4202  0.1898 -0.3706
   73SLPC  H18R 6471   5.334   3.677   4.502  0.2687  0.7287 -0.6915
   73SLPC  H18S 6472   5.363   3.537   4.603  0.2584  0.1771  0.8666
   73SLPC  H18T 6473   5.507   3.629   4.550  0.1555  0.0571  1.4760
   73SLPC   C33 6474   6.674   3.417   6.087 -0.1116 -0.5805 -0.8125
   73SLPC   H3X 6475   6.601   3.497   6.066 -0.0392 -1.0323 -2.9317
   73SLPC   H3Y 6476   6.620   3.325   6.119  0.3067 -0.3516  0.6490
   73SLPC   C34 6477   6.743   3.387   5.954 -0.0336  0.1412 -0.2693
   73SLPC   H4X 6478   6.667   3.346   5.884 -1.8896 -0.0294  1.7327
   73SLPC   H4Y 6479   6.825   3.314   5.974 -0.9984 -0.4440  1.8252
   73SLPC   C35 6480   6.805   3.511   5.892 -0.0063  0.3805  0.1237
   73SLPC   H5X 6481   6.877   3.563   5.959 -2.2143  1.9531  1.3869
   73SLPC   H5Y 6482   6.728   3.588   5.873 -1.4432 -0.9147  0.4899
   73SLPC   C36 6483   6.871   3.469   5.756  1.1086  0.1388  0.1757
   73SLPC   H6X 6484   6.808   3.420   5.679  0.6498  2.0852 -0.7449
   73SLPC   H6Y 6485   6.943   3.393   5.791 -0.2223 -2.3007 -2.0328
   73SLPC   C37 6486   6.939   3.587   5.683 -0.5196 -0.3355 -0.0210
   73SLPC   H7X 6487   7.005   3.638   5.756 -0.2260 -0.4121 -0.2320
   73SLPC   H7Y 6488   6.865   3.668   5.666 -1.0811 -0.3205  2.2582
   73SLPC   C38 6489   7.018   3.537   5.560 -0.3540  0.5410 -0.1721
   73SLPC   H8X 6490   6.951   3.479   5.493  0.2984  2.1042 -2.3142
   73SLPC   H8Y 6491   7.098   3.462   5.577 -1.7146 -0.9860 -0.3024
   73SLPC   C39 6492   7.077   3.649   5.475 -0.3123  0.0724  0.4843
   73SLPC   H9X 6493   7.187   3.639   5.466 -0.3543 -0.6406  0.7129
   73SLPC   H9Y 6494   7.066   3.750   5.521  2.6955  1.3999 -1.4214
   73SLPC  C310 6495   7.024   3.676   5.338  0.5028  0.1036  0.3613
   73SLPC  H10X 6496   7.026   3.786   5.321 -0.5011  0.2160  0.8808
   73SLPC  H10Y 6497   6.914   3.661   5.332  0.3147  1.3573  0.3589
   73SLPC  C311 6498   7.095   3.608   5.225  0.0077  0.4679  0.5123
   73SLPC  H11X 6499   7.115   3.499   5.229 -1.4681  0.2142  2.6731
   73SLPC  H11Y 6500   7.195   3.656   5.225  0.3079 -0.1405  0.1890
   73SLPC  C312 6501   7.043   3.638   5.077 -0.2521  0.2428  0.3945
   73SLPC  H12X 6502   7.055   3.748   5.062 -0.5502  1.0445  4.7680
   73SLPC  H12Y 6503   6.937   3.606   5.069  0.8235 -3.8180  0.1149
   73SLPC  C313 6504   7.120   3.555   4.972  0.0540  0.1391  1.2829
   73SLPC  H13X 6505   7.143   3.453   5.009  1.9822  0.4551  1.0837
   73SLPC  H13Y 6506   7.220   3.599   4.949 -0.5450  0.6005 -0.6114
   73SLPC  C314 6507   7.048   3.541   4.836  0.4936  0.7207  0.2413
   73SLPC  H14X 6508   7.009   3.642   4.814 -0.6259  0.1834 -0.3886
   73SLPC  H14Y 6509   6.962   3.473   4.855  0.7730  0.1514 -0.4438
   73SLPC  C315 6510   7.144   3.484   4.725 -0.2105  0.0230  0.1794
   73SLPC  H15X 6511   7.166   3.380   4.756  0.0839  0.6119  2.0785
   73SLPC  H15Y 6512   7.237   3.545   4.726 -0.9829  1.2580 -0.2973
   73SLPC  C316 6513   7.095   3.486   4.585  0.3130 -0.0835  0.4038
   73SLPC  H16X 6514   7.080   3.586   4.539 -0.5368 -0.9322 -1.2419
   73SLPC  H16Y 6515   7.000   3.430   4.595 -0.0542  0.3596 -0.4953
   73SLPC  C317 6516   7.183   3.400   4.490 -0.3363 -0.0615 -0.1148
   73SLPC  H17X 6517   7.201   3.301   4.535  0.0228 -0.2179 -0.5939
   73SLPC  H17Y 6518   7.287   3.439   4.486  0.5721 -1.8210  3.1409
   73SLPC  C318 6519   7.129   3.376   4.343 -0.0196 -0.2703 -0.3498
   73SLPC  H18X 6520   7.037   3.315   4.353  0.4081 -0.6330  2.3086
   73SLPC  H18Y 6521   7.203   3.326   4.276  0.4564  1.6159 -1.2885
   73SLPC  H18Z 6522   7.100   3.471   4.294  0.6613  0.4215  0.5540
   74SLPC     N 6523   6.866   2.120   6.801 -0.2953  0.1316  0.2923
   74SLPC   C13 6524   6.832   2.002   6.889  1.2654  0.1573  0.2751
   74SLPC  H13A 6525   6.920   1.976   6.946  3.3383  0.9031 -2.3808
   74SLPC  H13B 6526   6.755   2.030   6.959 -2.3013 -1.7078 -2.5519
   74SLPC  H13C 6527   6.797   1.923   6.825  0.5248 -0.0901  0.9734
   74SLPC   C14 6528   6.991   2.083   6.727 -0.1653  0.5906  0.8451
   74SLPC  H14A 6529   6.954   2.030   6.640  0.1865 -0.4956  1.3457
   74SLPC  H14B 6530   7.033   2.178   6.696 -0.1604  0.4093  0.2778
   74SLPC  H14C 6531   7.063   2.032   6.790  0.2940 -0.3149 -0.3603
   74SLPC   C15 6532   6.912   2.231   6.893 -0.7564  0.3982 -0.5752
   74SLPC  H15A 6533   6.975   2.299   6.837  0.9603  0.0932  0.9131
   74SLPC  H15B 6534   6.836   2.291   6.942 -1.1287 -0.7745  0.3333
   74SLPC  H15C 6535   6.988   2.194   6.960  1.5482  1.2639 -2.5600
   74SLPC   C12 6536   6.762   2.168   6.706 -0.4400 -0.6214  0.1652
   74SLPC  H12A 6537   6.798   2.257   6.657 -1.0663 -1.5018 -2.0004
   74SLPC  H12B 6538   6.674   2.203   6.757  0.1734  0.4034  0.5484
   74SLPC   C11 6539   6.721   2.069   6.585  0.0600 -0.8714 -0.1330
   74SLPC  H11A 6540   6.810   2.027   6.533  2.2944  0.2608  2.5535
   74SLPC  H11B 6541   6.666   2.132   6.511  1.1309  0.6857  0.3566
   74SLPC     P 6542   6.489   1.990   6.689  0.5132 -0.0439 -0.1665
   74SLPC   O13 6543   6.458   1.858   6.741 -0.2217  0.5940  0.0691
   74SLPC   O14 6544   6.483   2.092   6.800 -1.0428  0.1727  0.5821
   74SLPC   O12 6545   6.634   1.969   6.637 -0.9672  0.6327  0.1472
   74SLPC   O11 6546   6.396   2.032   6.569  0.0283  0.6880 -0.3300
   74SLPC    C1 6547   6.400   1.951   6.447 -0.4345 -0.4564 -0.4819
   74SLPC    HA 6548   6.500   1.904   6.437 -0.0849  0.2448 -0.3761
   74SLPC    HB 6549   6.331   1.865   6.446  0.8111 -1.4940 -0.3649
   74SLPC    C2 6550   6.359   2.033   6.323  0.4134  0.7716  0.7364
   74SLPC    HS 6551   6.333   1.967   6.238  0.6773  0.7887  0.6405
   74SLPC   O21 6552   6.462   2.112   6.282  0.7004 -0.0932 -0.3395
   74SLPC   C21 6553   6.573   2.059   6.226 -0.3779 -0.4491 -0.9343
   74SLPC   O22 6554   6.594   1.944   6.208 -0.9186 -0.2812 -0.2054
   74SLPC   C22 6555   6.672   2.175   6.193  0.5478  0.3729  0.2454
   74SLPC   H2R 6556   6.623   2.275   6.191 -0.4080 -0.0387 -3.1120
   74SLPC   H2S 6557   6.758   2.161   6.262  0.9554 -0.6176 -0.4363
   74SLPC    C3 6558   6.227   2.112   6.336  0.6929 -0.3114  0.0731
   74SLPC    HX 6559   6.241   2.187   6.417  0.8404 -0.6532  0.3627
   74SLPC    HY 6560   6.142   2.047   6.366 -0.5247  2.1103  2.2533
   74SLPC   O31 6561   6.181   2.194   6.222 -0.0896 -0.0300 -0.0725
   74SLPC   C31 6562   6.159   2.134   6.116  0.2137  0.7503  0.3472
   74SLPC   O32 6563   6.160   2.014   6.096 -0.5401  0.0562 -0.0197
   74SLPC   C32 6564   6.103   2.232   6.014 -0.3500 -1.0589 -0.3316
   74SLPC   H2X 6565   6.173   2.317   6.002 -1.8099  0.1311 -0.8119
   74SLPC   H2Y 6566   6.014   2.276   6.065 -0.7274 -0.2704 -1.6388
   74SLPC   C23 6567   6.729   2.156   6.053  0.2915 -0.4519  0.0763
   74SLPC   H3R 6568   6.779   2.056   6.052  0.1419 -0.5338 -1.3198
   74SLPC   H3S 6569   6.803   2.239   6.043 -0.2957  0.4625  2.6538
   74SLPC   C24 6570   6.630   2.160   5.946 -0.0041  0.5513  0.0954
   74SLPC   H4R 6571   6.556   2.241   5.964 -0.5680 -0.0763  0.6286
   74SLPC   H4S 6572   6.566   2.069   5.943  1.6061 -0.8861  3.7415
   74SLPC   C25 6573   6.687   2.194   5.801 -0.9038 -0.0741  0.5222
   74SLPC   H5R 6574   6.782   2.141   5.779  0.1784  2.1080 -0.3605
   74SLPC   H5S 6575   6.727   2.297   5.813  0.4751 -0.5543  0.2934
   74SLPC   C26 6576   6.599   2.187   5.680 -0.9212 -0.3939  0.9058
   74SLPC   H6R 6577   6.499   2.225   5.709  0.0722  0.9820  2.7126
   74SLPC   H6S 6578   6.583   2.084   5.643 -1.1479  0.0588 -0.3039
   74SLPC   C27 6579   6.645   2.275   5.556  0.1611 -0.4101 -0.1801
   74SLPC   H7R 6580   6.750   2.253   5.527 -0.5269 -0.3048 -3.0519
   74SLPC   H7S 6581   6.646   2.384   5.574 -0.4786 -0.6715  1.6716
   74SLPC   C28 6582   6.555   2.262   5.437 -0.7888  0.2684 -0.0027
   74SLPC   H8R 6583   6.587   2.350   5.376  0.8244 -0.5393 -0.3730
   74SLPC   H8S 6584   6.450   2.286   5.466 -0.9385  0.1933 -0.4771
   74SLPC   C29 6585   6.560   2.135   5.355 -0.1759  0.0114  0.1197
   74SLPC   H9R 6586   6.505   2.047   5.393  1.8746 -1.0988  0.6704
   74SLPC  C210 6587   6.623   2.128   5.239 -0.0408 -0.8510  0.2737
   74SLPC  H10R 6588   6.630   2.034   5.182  0.3551  1.0139 -2.9915
   74SLPC  C211 6589   6.688   2.237   5.160  0.2024 -0.7367 -0.2072
   74SLPC  H11R 6590   6.753   2.293   5.230  0.0399 -1.5470  0.6024
   74SLPC  H11S 6591   6.605   2.307   5.138  1.5416  1.3170  0.9886
   74SLPC  C212 6592   6.768   2.210   5.032  0.2277  0.7045  0.1774
   74SLPC  H12R 6593   6.877   2.222   5.039  0.2689 -0.1905  1.3465
   74SLPC  C213 6594   6.707   2.178   4.912 -0.2554 -0.1441 -1.0136
   74SLPC  H13R 6595   6.774   2.151   4.829 -0.2127 -0.3790 -0.9045
   74SLPC  C214 6596   6.562   2.164   4.897  0.1259 -0.8161  0.4806
   74SLPC  H14R 6597   6.541   2.240   4.819  1.3975  0.2767  1.1607
   74SLPC  H14S 6598   6.509   2.208   4.984  1.1696  1.3358  0.0757
   74SLPC  C215 6599   6.508   2.026   4.867  0.2086  0.2653 -0.6183
   74SLPC  H15R 6600   6.535   1.962   4.953  0.2537  0.7652 -0.2527
   74SLPC  H15S 6601   6.564   1.978   4.784  1.4033 -0.9420  0.8336
   74SLPC  C216 6602   6.355   2.017   4.843  0.3945 -0.2864  0.2425
   74SLPC  H16R 6603   6.322   1.911   4.835 -0.4354 -0.1319  1.5053
   74SLPC  H16S 6604   6.330   2.074   4.750 -3.7860  1.4062  2.1723
   74SLPC  C217 6605   6.263   2.076   4.956  0.3975  0.5774  0.6377
   74SLPC  H17R 6606   6.268   2.184   4.930  0.7089  0.1977 -0.9754
   74SLPC  H17S 6607   6.312   2.051   5.053 -0.4211  0.1455  0.9440
   74SLPC  C218 6608   6.122   2.020   4.942 -0.5441 -0.3594 -0.3108
   74SLPC  H18R 6609   6.072   2.055   5.035  1.3367 -1.1775  1.0739
   74SLPC  H18S 6610   6.134   1.910   4.933 -1.2577 -0.4074 -0.7787
   74SLPC  H18T 6611   6.074   2.059   4.850 -0.1114  2.4200  0.5509
   74SLPC   C33 6612   6.045   2.181   5.882 -0.5092  0.1944  0.5047
   74SLPC   H3X 6613   5.957   2.245   5.860  0.3358  1.0006 -0.6887
   74SLPC   H3Y 6614   6.005   2.078   5.889  0.1393 -0.3110 -2.1292
   74SLPC   C34 6615   6.140   2.193   5.762 -0.6784  0.5802 -0.1993
   74SLPC   H4X 6616   6.236   2.137   5.759 -0.7446  0.4825 -0.4642
   74SLPC   H4Y 6617   6.163   2.302   5.764  1.0601  0.2699 -0.9316
   74SLPC   C35 6618   6.090   2.170   5.619 -0.1082  0.0011  0.2947
   74SLPC   H5X 6619   5.989   2.212   5.604  0.2390  0.6847 -0.1911
   74SLPC   H5Y 6620   6.075   2.063   5.592 -2.5925  0.8273 -2.0876
   74SLPC   C36 6621   6.184   2.225   5.510 -0.4226 -0.0728  0.3417
   74SLPC   H6X 6622   6.284   2.176   5.512  0.4134  1.5677  0.4488
   74SLPC   H6Y 6623   6.204   2.333   5.529  1.7882 -0.4069  0.2660
   74SLPC   C37 6624   6.144   2.207   5.359 -0.4183 -0.2222 -0.0665
   74SLPC   H7X 6625   6.035   2.219   5.344 -0.8539 -3.3961 -0.2487
   74SLPC   H7Y 6626   6.162   2.102   5.326  0.2153  0.3053 -1.4832
   74SLPC   C38 6627   6.229   2.297   5.269  0.6651  0.9767  0.1484
   74SLPC   H8X 6628   6.215   2.258   5.166 -2.7469 -0.2761  0.9665
   74SLPC   H8Y 6629   6.339   2.286   5.279  0.5087  0.0318  0.9819
   74SLPC   C39 6630   6.188   2.449   5.275  0.4673  0.0900  0.0215
   74SLPC   H9X 6631   6.192   2.487   5.380  2.0303  1.9339 -0.6547
   74SLPC   H9Y 6632   6.087   2.447   5.230  1.0040 -0.6344 -1.2060
   74SLPC  C310 6633   6.270   2.547   5.187 -0.1527 -0.3806  0.2147
   74SLPC  H10X 6634   6.363   2.562   5.247 -0.1378 -2.5655  0.8602
   74SLPC  H10Y 6635   6.199   2.630   5.168 -3.5420 -3.3294 -1.1365
   74SLPC  C311 6636   6.316   2.492   5.053  0.1063  0.2058  0.1754
   74SLPC  H11X 6637   6.222   2.469   4.999 -0.9355  0.3870  1.8457
   74SLPC  H11Y 6638   6.372   2.397   5.068 -3.8819 -2.1617  1.8920
   74SLPC  C312 6639   6.392   2.599   4.977 -0.4564 -0.3412  0.8738
   74SLPC  H12X 6640   6.455   2.656   5.049 -2.6335  2.2176  0.9308
   74SLPC  H12Y 6641   6.316   2.672   4.941  2.3665  2.9095  0.9264
   74SLPC  C313 6642   6.467   2.538   4.851 -0.7937 -0.5754 -0.5521
   74SLPC  H13X 6643   6.391   2.499   4.780  0.1206 -0.2891 -1.7138
   74SLPC  H13Y 6644   6.542   2.465   4.889  0.8126  1.6474  0.7642
   74SLPC  C314 6645   6.542   2.646   4.769  0.4956  0.2468  0.0498
   74SLPC  H14X 6646   6.629   2.667   4.835  1.5864 -1.5272 -0.7497
   74SLPC  H14Y 6647   6.480   2.738   4.768  1.3358  0.9365  2.7237
   74SLPC  C315 6648   6.586   2.607   4.629  0.1805  0.1994 -0.3712
   74SLPC  H15X 6649   6.641   2.692   4.583  0.7540  0.2040  0.2938
   74SLPC  H15Y 6650   6.493   2.588   4.572  0.0653  0.5771 -0.3102
   74SLPC  C316 6651   6.682   2.483   4.627  0.3250 -0.0514  0.5657
   74SLPC  H16X 6652   6.707   2.462   4.521 -2.1966 -1.4329  0.1865
   74SLPC  H16Y 6653   6.627   2.396   4.669 -1.8682  1.3430  0.6971
   74SLPC  C317 6654   6.822   2.506   4.695 -0.2413 -0.1844  1.0995
   74SLPC  H17X 6655   6.871   2.408   4.711 -0.4455 -0.5405 -0.3284
   74SLPC  H17Y 6656   6.809   2.550   4.796  0.1007 -0.6487  1.3476
   74SLPC  C318 6657   6.916   2.600   4.611 -0.0186  0.1363 -0.0491
   74SLPC  H18X 6658   6.993   2.640   4.681 -0.4674 -0.5184  0.8351
   74SLPC  H18Y 6659   6.851   2.674   4.561  0.0999 -0.1443 -0.6240
   74SLPC  H18Z 6660   6.966   2.548   4.526  0.7459 -1.5027  1.3455
   75SLPC     N 6661   1.499   4.087   6.418 -0.2418  0.4971 -0.1197
   75SLPC   C13 6662   1.615   4.185   6.388  0.5207 -0.0032 -0.4091
   75SLPC  H13A 6663   1.596   4.285   6.424  4.2774 -0.1553  2.6704
   75SLPC  H13B 6664   1.702   4.160   6.446  1.3792  0.4702 -1.4609
   75SLPC  H13C 6665   1.643   4.202   6.285  2.1037  2.6089  0.3670
   75SLPC   C14 6666   1.376   4.124   6.341 -0.0121 -0.2151  0.0380
   75SLPC  H14A 6667   1.345   4.221   6.376 -1.5972 -1.0788  1.1517
   75SLPC  H14B 6668   1.386   4.123   6.234 -0.7055  0.1206 -0.0385
   75SLPC  H14C 6669   1.301   4.048   6.360 -0.0190 -0.3368 -0.4705
   75SLPC   C15 6670   1.465   4.102   6.565  0.0336 -0.5769  0.2957
   75SLPC  H15A 6671   1.558   4.094   6.620 -0.6408 -1.6281  1.3208
   75SLPC  H15B 6672   1.423   4.199   6.586 -0.0799 -0.2749 -1.2211
   75SLPC  H15C 6673   1.389   4.030   6.591 -1.1321 -0.4557 -2.4823
   75SLPC   C12 6674   1.545   3.945   6.393  0.1060 -0.0767 -0.1963
   75SLPC  H12A 6675   1.573   3.929   6.290  0.7414 -0.9326  0.1025
   75SLPC  H12B 6676   1.465   3.875   6.413  1.0539 -1.1040  0.0837
   75SLPC   C11 6677   1.666   3.887   6.469 -0.6437 -0.0398 -0.3047
   75SLPC  H11A 6678   1.756   3.944   6.437 -0.7594 -0.1279 -0.7928
   75SLPC  H11B 6679   1.697   3.788   6.428  2.2369  0.1775  1.0971
   75SLPC     P 6680   1.562   3.760   6.667 -0.1448 -0.2183 -0.1959
   75SLPC   O13 6681   1.661   3.659   6.706 -0.4783 -0.1697  0.1721
   75SLPC   O14 6682   1.468   3.813   6.766 -0.5403  0.2590 -0.4385
   75SLPC   O12 6683   1.645   3.878   6.612 -0.0952  0.2240 -0.1331
   75SLPC   O11 6684   1.483   3.716   6.536 -0.2778  0.1328 -0.0638
   75SLPC    C1 6685   1.393   3.605   6.548 -0.2042 -0.4633 -0.5624
   75SLPC    HA 6686   1.317   3.631   6.625  0.1762  1.8695 -0.8957
   75SLPC    HB 6687   1.332   3.590   6.457 -2.4585 -2.7493  1.2107
   75SLPC    C2 6688   1.463   3.464   6.570 -0.0502  0.0356 -0.1844
   75SLPC    HS 6689   1.503   3.487   6.672  1.0276  0.3395 -0.6660
   75SLPC   O21 6690   1.571   3.445   6.476  0.3148  0.1692  0.0710
   75SLPC   C21 6691   1.667   3.367   6.516 -0.0792 -0.1208  0.1721
   75SLPC   O22 6692   1.675   3.304   6.624 -0.0108  0.3984  0.0681
   75SLPC   C22 6693   1.788   3.387   6.423 -0.2804  0.0048 -0.1416
   75SLPC   H2R 6694   1.810   3.496   6.416  0.3981 -0.1201  0.0006
   75SLPC   H2S 6695   1.880   3.353   6.475  0.5798  0.7404 -1.1443
   75SLPC    C3 6696   1.362   3.347   6.571  0.5763  0.1943  0.2650
   75SLPC    HX 6697   1.284   3.379   6.643  1.0216 -1.1411  1.3749
   75SLPC    HY 6698   1.409   3.254   6.608 -1.1216 -1.0787 -0.6589
   75SLPC   O31 6699   1.297   3.331   6.439  0.0527  0.0198 -0.1843
   75SLPC   C31 6700   1.357   3.240   6.363 -0.0843 -0.0908 -0.2409
   75SLPC   O32 6701   1.450   3.166   6.396  0.1552 -0.6736  0.6975
   75SLPC   C32 6702   1.299   3.256   6.221 -0.0868  0.1391  0.0852
   75SLPC   H2X 6703   1.327   3.353   6.176 -1.6734  1.2965  1.4637
   75SLPC   H2Y 6704   1.188   3.257   6.235 -0.5016  0.7071 -2.6461
   75SLPC   C23 6705   1.774   3.322   6.284  0.9014  0.7519  0.8017
   75SLPC   H3R 6706   1.684   3.365   6.235  0.9014 -1.2511 -1.1486
   75SLPC   H3S 6707   1.752   3.214   6.304  0.6700  0.4317 -0.9992
   75SLPC   C24 6708   1.903   3.324   6.208 -0.4214 -0.2340  0.0571
   75SLPC   H4R 6709   1.997   3.325   6.268 -0.5647  3.2781  0.4026
   75SLPC   H4S 6710   1.904   3.420   6.152 -1.8867 -0.4944 -0.4627
   75SLPC   C25 6711   1.912   3.208   6.106 -0.4311 -0.3089  0.1080
   75SLPC   H5R 6712   1.809   3.189   6.069  0.0612  0.5135 -1.7999
   75SLPC   H5S 6713   1.923   3.114   6.165 -2.2517 -1.6221 -1.5167
   75SLPC   C26 6714   2.002   3.209   5.978 -0.3366 -0.2150  0.1248
   75SLPC   H6R 6715   2.106   3.236   6.002 -0.1575  0.2614 -1.0929
   75SLPC   H6S 6716   1.944   3.291   5.929 -0.1651  0.6249  1.2831
   75SLPC   C27 6717   1.988   3.082   5.897  0.1645 -0.0335 -0.2275
   75SLPC   H7R 6718   1.886   3.039   5.908  0.4039 -0.0736  2.3441
   75SLPC   H7S 6719   2.057   3.006   5.940  2.3165  1.0220 -1.6290
   75SLPC   C28 6720   2.029   3.102   5.749 -0.0321 -0.4386  0.7104
   75SLPC   H8R 6721   1.943   3.157   5.706 -1.6796 -1.4019  2.6180
   75SLPC   H8S 6722   2.024   3.003   5.699 -0.4242 -0.3575  0.5856
   75SLPC   C29 6723   2.159   3.185   5.725 -0.1766 -0.4044 -0.1318
   75SLPC   H9R 6724   2.177   3.263   5.800 -2.1258 -0.1340  0.0875
   75SLPC  C210 6725   2.248   3.174   5.621 -0.3731 -0.3620 -0.5318
   75SLPC  H10R 6726   2.345   3.224   5.610  0.4272 -1.2861  1.7870
   75SLPC  C211 6727   2.222   3.077   5.505 -0.3194 -0.6863 -0.3358
   75SLPC  H11R 6728   2.159   3.133   5.433 -0.3545  0.6431  0.6962
   75SLPC  H11S 6729   2.157   2.995   5.542 -2.1647  1.1337  0.6441
   75SLPC  C212 6730   2.342   3.024   5.440 -0.3245 -0.2898 -0.4733
   75SLPC  H12R 6731   2.422   3.009   5.514 -1.1118  0.3436  0.5561
   75SLPC  C213 6732   2.362   2.981   5.318  0.7547  0.1065 -0.1826
   75SLPC  H13R 6733   2.455   2.926   5.298  0.9270  0.8939 -1.6346
   75SLPC  C214 6734   2.257   2.978   5.206  0.5897  0.1599 -0.2748
   75SLPC  H14R 6735   2.152   2.995   5.239  0.5264  2.2065 -1.3886
   75SLPC  H14S 6736   2.253   2.873   5.169 -0.1032 -0.2114  0.7940
   75SLPC  C215 6737   2.271   3.075   5.085  0.8932  0.2034 -0.0152
   75SLPC  H15R 6738   2.174   3.055   5.032  1.0990 -0.7551 -0.0534
   75SLPC  H15S 6739   2.344   3.036   5.011 -1.5296  0.9616 -3.0712
   75SLPC  C216 6740   2.299   3.217   5.110  0.0698 -0.3802 -0.1207
   75SLPC  H16R 6741   2.239   3.246   5.199 -1.5712  1.9596 -1.8557
   75SLPC  H16S 6742   2.276   3.285   5.025  2.0079 -3.3316 -3.2857
   75SLPC  C217 6743   2.448   3.248   5.130 -0.3179  0.4522  0.2000
   75SLPC  H17R 6744   2.497   3.165   5.185 -0.8108 -0.2819 -0.4562
   75SLPC  H17S 6745   2.446   3.338   5.196  0.0378  0.3734  0.3234
   75SLPC  C218 6746   2.541   3.285   5.009  0.9932  0.0212  0.5063
   75SLPC  H18R 6747   2.636   3.324   5.052 -0.2199  2.7538  0.9276
   75SLPC  H18S 6748   2.496   3.363   4.944  2.4845  0.6699  0.1998
   75SLPC  H18T 6749   2.554   3.197   4.942  0.4487  1.5329 -1.6863
   75SLPC   C33 6750   1.352   3.147   6.130 -0.0703  0.3237  0.0796
   75SLPC   H3X 6751   1.277   3.145   6.048  0.8461 -0.1927 -0.7656
   75SLPC   H3Y 6752   1.368   3.045   6.170  0.1335 -0.5569 -2.1096
   75SLPC   C34 6753   1.492   3.170   6.058 -0.6719 -0.1443  0.2561
   75SLPC   H4X 6754   1.570   3.170   6.136 -0.9314 -0.4700  0.5198
   75SLPC   H4Y 6755   1.512   3.267   6.009  3.6286 -0.9592  0.0474
   75SLPC   C35 6756   1.521   3.061   5.951  0.1639 -0.3836 -0.0915
   75SLPC   H5X 6757   1.426   3.005   5.938 -1.1031  1.7759 -0.6995
   75SLPC   H5Y 6758   1.601   2.992   5.985  0.2486 -0.9394 -1.3754
   75SLPC   C36 6759   1.562   3.112   5.807 -0.0089  0.2675 -0.0632
   75SLPC   H6X 6760   1.577   3.016   5.754  0.6591 -0.0985  0.7633
   75SLPC   H6Y 6761   1.664   3.155   5.817  1.4425 -3.0653  0.7301
   75SLPC   C37 6762   1.463   3.207   5.729 -0.1383 -0.7430  0.0486
   75SLPC   H7X 6763   1.466   3.309   5.773 -0.0426 -0.1998 -1.1818
   75SLPC   H7Y 6764   1.360   3.166   5.737 -0.7233  0.9115  2.0356
   75SLPC   C38 6765   1.495   3.221   5.581 -0.3541 -0.1784  0.1666
   75SLPC   H8X 6766   1.598   3.263   5.576 -0.6252  0.3967 -4.3074
   75SLPC   H8Y 6767   1.445   3.306   5.530 -1.8125  0.0185  1.8397
   75SLPC   C39 6768   1.495   3.098   5.495 -0.3251  0.4446 -0.0568
   75SLPC   H9X 6769   1.391   3.060   5.500 -0.2594  0.3438  0.6841
   75SLPC   H9Y 6770   1.574   3.028   5.529 -0.6368  0.8449  1.5773
   75SLPC  C310 6771   1.513   3.139   5.347  0.0546 -0.2475 -0.0370
   75SLPC  H10X 6772   1.611   3.192   5.353  0.2482 -0.7232  3.4284
   75SLPC  H10Y 6773   1.437   3.208   5.306 -0.3970 -0.1304  0.9503
   75SLPC  C311 6774   1.522   3.014   5.256 -0.3834 -0.2163  0.2083
   75SLPC  H11X 6775   1.418   2.978   5.244 -0.1524 -0.6561 -0.4883
   75SLPC  H11Y 6776   1.580   2.930   5.299  0.8556  1.4188  1.9131
   75SLPC  C312 6777   1.584   3.031   5.115  0.4738 -0.1213 -0.1863
   75SLPC  H12X 6778   1.521   3.107   5.065 -0.2349 -3.1035 -4.3506
   75SLPC  H12Y 6779   1.582   2.935   5.059  0.3706 -1.2768  1.7110
   75SLPC  C313 6780   1.713   3.112   5.096 -0.0321  0.0164  0.2739
   75SLPC  H13X 6781   1.801   3.086   5.159  0.9645  0.6609 -0.8204
   75SLPC  H13Y 6782   1.694   3.218   5.121 -0.4916 -0.1586  0.6771
   75SLPC  C314 6783   1.767   3.099   4.953 -0.1335  0.2269 -0.4722
   75SLPC  H14X 6784   1.686   3.112   4.878 -2.2387 -2.6233  1.1050
   75SLPC  H14Y 6785   1.821   3.003   4.935 -0.7821 -0.8757  2.7593
   75SLPC  C315 6786   1.862   3.213   4.926  0.1724  0.5330  0.6707
   75SLPC  H15X 6787   1.952   3.194   4.988  0.6015  1.1638  0.2526
   75SLPC  H15Y 6788   1.821   3.314   4.951 -1.8568 -0.0171 -0.2868
   75SLPC  C316 6789   1.913   3.206   4.778 -0.7073  0.6395  0.0283
   75SLPC  H16X 6790   1.823   3.209   4.712  0.5994 -1.0306 -1.9675
   75SLPC  H16Y 6791   1.970   3.112   4.767 -0.5953  0.8802 -1.7690
   75SLPC  C317 6792   2.006   3.324   4.740 -0.1193 -0.3731  0.3147
   75SLPC  H17X 6793   2.092   3.307   4.809 -1.5273 -1.4907  1.8989
   75SLPC  H17Y 6794   1.947   3.415   4.763 -1.1999 -0.1029 -3.0483
   75SLPC  C318 6795   2.045   3.345   4.594  0.0466  0.9101 -0.1128
   75SLPC  H18X 6796   2.143   3.394   4.576 -0.3981  2.3857  1.2763
   75SLPC  H18Y 6797   1.969   3.410   4.546 -0.0848 -0.2899 -1.6087
   75SLPC  H18Z 6798   2.055   3.247   4.542 -0.7253  0.7906 -0.0445
   76SLPC     N 6799   2.975   1.678   7.242  0.0950 -0.3381  0.9706
   76SLPC   C13 6800   2.973   1.652   7.389  0.1961 -0.4884  0.2444
   76SLPC  H13A 6801   3.055   1.698   7.443  0.9924  1.0341 -2.0842
   76SLPC  H13B 6802   2.889   1.699   7.436  0.1368 -1.1858  0.8545
   76SLPC  H13C 6803   2.965   1.545   7.398  3.2007 -0.7619  0.9758
   76SLPC   C14 6804   3.031   1.817   7.231 -0.4928 -0.3815  0.6638
   76SLPC  H14A 6805   3.137   1.804   7.244 -0.3906 -0.4616 -0.2135
   76SLPC  H14B 6806   3.015   1.861   7.134  0.7678  1.0253  1.0639
   76SLPC  H14C 6807   2.994   1.888   7.303  2.2290  1.6591  0.1898
   76SLPC   C15 6808   2.840   1.679   7.193 -0.3877  0.6613  0.2157
   76SLPC  H15A 6809   2.785   1.765   7.229  0.3304  2.4933 -2.6869
   76SLPC  H15B 6810   2.856   1.701   7.089  1.1371  1.3987  0.5730
   76SLPC  H15C 6811   2.794   1.582   7.200 -0.0291  0.6164  2.9176
   76SLPC   C12 6812   3.064   1.577   7.169  0.4102 -0.3705 -0.2516
   76SLPC  H12A 6813   3.020   1.482   7.195 -2.8239  1.0515 -0.0525
   76SLPC  H12B 6814   3.160   1.581   7.219  1.1675 -2.1790 -1.4608
   76SLPC   C11 6815   3.080   1.598   7.013 -0.0122  0.0910  0.9726
   76SLPC  H11A 6816   2.981   1.600   6.963 -0.0047 -1.4833  0.8500
   76SLPC  H11B 6817   3.125   1.504   6.975 -1.8625 -0.6111  0.4216
   76SLPC     P 6818   3.127   1.799   6.863  0.2641 -0.2739 -0.7525
   76SLPC   O13 6819   3.005   1.886   6.896  0.1533  0.0786  0.2730
   76SLPC   O14 6820   3.246   1.875   6.823 -0.3580  0.0061  0.0242
   76SLPC   O12 6821   3.168   1.701   6.978 -0.2473  0.4423  0.2528
   76SLPC   O11 6822   3.085   1.704   6.751  0.0222  0.2308  0.1333
   76SLPC    C1 6823   3.166   1.616   6.673  0.3102 -0.3701  1.1279
   76SLPC    HA 6824   3.265   1.592   6.717  1.9492  2.4336 -0.7196
   76SLPC    HB 6825   3.100   1.527   6.667 -0.1482  0.0439 -0.9590
   76SLPC    C2 6826   3.187   1.656   6.528  0.6781  0.4289  0.4415
   76SLPC    HS 6827   3.213   1.764   6.531 -1.8618  1.1470 -0.2411
   76SLPC   O21 6828   3.060   1.658   6.464 -0.1546  0.3678 -0.0343
   76SLPC   C21 6829   3.048   1.724   6.349 -0.3706 -0.3407  0.2470
   76SLPC   O22 6830   3.132   1.800   6.305  0.3306  0.3255  0.8940
   76SLPC   C22 6831   2.915   1.695   6.280  0.0986  0.1765  0.2852
   76SLPC   H2R 6832   2.835   1.667   6.352  0.0915 -2.3517 -0.6303
   76SLPC   H2S 6833   2.878   1.786   6.229 -1.6493  0.3334  1.7126
   76SLPC    C3 6834   3.295   1.567   6.456  0.8574 -0.4414 -0.2341
   76SLPC    HX 6835   3.389   1.579   6.513 -0.2742  1.5431  1.3367
   76SLPC    HY 6836   3.306   1.608   6.353  0.0213 -3.4591 -1.6242
   76SLPC   O31 6837   3.257   1.435   6.429  0.1076 -0.7061  0.0786
   76SLPC   C31 6838   3.309   1.341   6.508 -0.0463 -0.1441 -0.6279
   76SLPC   O32 6839   3.365   1.361   6.611 -0.0985 -0.0073  0.0971
   76SLPC   C32 6840   3.299   1.197   6.451 -0.6684  0.2014 -0.3017
   76SLPC   H2X 6841   3.286   1.131   6.540 -0.0127  0.4267 -0.0292
   76SLPC   H2Y 6842   3.405   1.178   6.424 -0.5281  2.2180 -1.3596
   76SLPC   C23 6843   2.920   1.586   6.163 -0.2255  0.0614  0.1871
   76SLPC   H3R 6844   2.816   1.564   6.130  0.1095  1.1926 -1.7319
   76SLPC   H3S 6845   2.986   1.502   6.194  1.5494  1.7545  1.2562
   76SLPC   C24 6846   2.973   1.648   6.038  0.1156 -0.4541  0.2397
   76SLPC   H4R 6847   3.072   1.694   6.061  0.1852 -0.4220 -0.1243
   76SLPC   H4S 6848   2.899   1.729   6.022 -0.7180 -1.0284  1.0800
   76SLPC   C25 6849   2.982   1.549   5.916  0.8797  0.3905 -0.5642
   76SLPC   H5R 6850   2.876   1.524   5.895  0.5772  1.1844 -0.0473
   76SLPC   H5S 6851   3.034   1.457   5.951 -2.3752 -1.3022  0.2879
   76SLPC   C26 6852   3.053   1.607   5.793  0.7672  0.0993 -0.5371
   76SLPC   H6R 6853   2.988   1.695   5.772 -0.4850 -0.2798  1.5364
   76SLPC   H6S 6854   3.053   1.537   5.707 -1.2738  0.9993 -1.3594
   76SLPC   C27 6855   3.192   1.646   5.810  1.0058  0.0648 -0.2320
   76SLPC   H7R 6856   3.254   1.561   5.844 -1.1704 -0.5751  2.4482
   76SLPC   H7S 6857   3.200   1.722   5.891  1.3569 -0.7348  0.4919
   76SLPC   C28 6858   3.252   1.711   5.687  0.0752  0.2241  0.2728
   76SLPC   H8R 6859   3.348   1.755   5.722  0.0869  1.6186 -1.3451
   76SLPC   H8S 6860   3.201   1.800   5.645  1.1686  0.6988 -0.1005
   76SLPC   C29 6861   3.269   1.602   5.581  0.4564 -0.1504  0.7817
   76SLPC   H9R 6862   3.361   1.545   5.600  0.1229 -0.8587  0.3456
   76SLPC  C210 6863   3.186   1.590   5.470 -0.1211  1.0222 -0.7839
   76SLPC  H10R 6864   3.211   1.507   5.403 -1.4690 -0.7209  0.7416
   76SLPC  C211 6865   3.069   1.676   5.435 -0.2399  0.8673 -0.3393
   76SLPC  H11R 6866   3.093   1.710   5.332  0.8886 -1.5024 -0.9332
   76SLPC  H11S 6867   3.062   1.762   5.504 -0.0969  0.9581 -0.4388
   76SLPC  C212 6868   2.934   1.601   5.438 -0.1285 -0.6711 -0.4872
   76SLPC  H12R 6869   2.915   1.542   5.530 -0.1864 -0.3124 -0.2680
   76SLPC  C213 6870   2.840   1.601   5.342  0.4999  0.7633  0.0846
   76SLPC  H13R 6871   2.743   1.549   5.346 -0.1755  2.0198  0.3121
   76SLPC  C214 6872   2.846   1.651   5.202 -0.6045  0.2906 -0.5077
   76SLPC  H14R 6873   2.944   1.699   5.179 -0.2830 -0.5946 -1.0298
   76SLPC  H14S 6874   2.773   1.732   5.178 -1.0314 -0.0069 -0.2198
   76SLPC  C215 6875   2.819   1.542   5.098  0.4271  0.0772 -0.1228
   76SLPC  H15R 6876   2.715   1.505   5.105 -0.8983  3.2518 -1.3779
   76SLPC  H15S 6877   2.882   1.455   5.129 -0.2364 -1.1585 -2.0824
   76SLPC  C216 6878   2.850   1.591   4.956 -0.4344 -0.0683 -0.3036
   76SLPC  H16R 6879   2.830   1.502   4.894  0.7633 -1.5453  1.3272
   76SLPC  H16S 6880   2.957   1.615   4.938 -0.8328  0.3763 -2.3445
   76SLPC  C217 6881   2.767   1.706   4.906  0.3113  0.5445  0.4775
   76SLPC  H17R 6882   2.812   1.794   4.956 -2.4271  2.9768 -0.9989
   76SLPC  H17S 6883   2.662   1.691   4.940  0.3041 -1.3034 -0.1910
   76SLPC  C218 6884   2.764   1.736   4.755  0.1924 -0.3853  0.5080
   76SLPC  H18R 6885   2.871   1.739   4.725  0.9470  0.8972  3.0277
   76SLPC  H18S 6886   2.707   1.828   4.729  1.2456 -0.5178 -2.6081
   76SLPC  H18T 6887   2.715   1.652   4.702 -0.9432 -1.2748  2.8263
   76SLPC   C33 6888   3.196   1.176   6.338  0.7673  0.3214 -0.2108
   76SLPC   H3X 6889   3.105   1.234   6.368  0.7306  0.0888  0.1417
   76SLPC   H3Y 6890   3.175   1.067   6.346  1.4247 -0.0042 -2.3952
   76SLPC   C34 6891   3.256   1.202   6.203  0.2276 -0.0314  0.3008
   76SLPC   H4X 6892   3.353   1.152   6.179  0.0708  1.1711 -3.4391
   76SLPC   H4Y 6893   3.275   1.312   6.200  2.8947 -0.4278 -2.4491
   76SLPC   C35 6894   3.160   1.168   6.083  0.2799  0.7563 -1.3149
   76SLPC   H5X 6895   3.073   1.237   6.079 -0.6677 -0.3797 -0.8982
   76SLPC   H5Y 6896   3.126   1.064   6.102  0.7645  0.9407  0.9568
   76SLPC   C36 6897   3.226   1.190   5.952  0.0280 -0.3486  0.3816
   76SLPC   H6X 6898   3.294   1.105   5.929 -0.2469 -0.3660 -0.3817
   76SLPC   H6Y 6899   3.278   1.288   5.956 -3.4938  1.6602  0.4852
   76SLPC   C37 6900   3.114   1.186   5.844  0.9720 -0.1966  0.2773
   76SLPC   H7X 6901   3.033   1.259   5.865  1.2483  1.4784 -3.6673
   76SLPC   H7Y 6902   3.068   1.085   5.853  0.6519 -0.1441 -0.7171
   76SLPC   C38 6903   3.181   1.210   5.711  0.3147 -0.2879  0.2580
   76SLPC   H8X 6904   3.239   1.119   5.683 -1.2518 -1.2743  0.0917
   76SLPC   H8Y 6905   3.248   1.297   5.728 -0.4310  0.1688  0.9336
   76SLPC   C39 6906   3.099   1.239   5.584  0.1094 -0.0033 -0.9522
   76SLPC   H9X 6907   3.081   1.348   5.586 -0.6627 -0.1204  1.2743
   76SLPC   H9Y 6908   3.002   1.186   5.591 -0.4564  1.1983  1.0281
   76SLPC  C310 6909   3.169   1.183   5.458 -0.4576 -0.0096  0.0365
   76SLPC  H10X 6910   3.192   1.075   5.472 -1.3082 -0.4470 -1.6835
   76SLPC  H10Y 6911   3.264   1.240   5.468 -0.2698 -0.4009  0.5266
   76SLPC  C311 6912   3.105   1.212   5.328 -0.3433 -0.1327 -0.5570
   76SLPC  H11X 6913   3.096   1.322   5.314  3.8694  0.6074  1.0510
   76SLPC  H11Y 6914   3.002   1.171   5.322 -0.1106 -0.8047 -0.0550
   76SLPC  C312 6915   3.170   1.160   5.199  0.1739  0.0223  0.3148
   76SLPC  H12X 6916   3.177   1.049   5.203  0.1184 -0.0502 -1.0755
   76SLPC  H12Y 6917   3.272   1.203   5.198 -0.7097  2.3112 -1.7391
   76SLPC  C313 6918   3.113   1.215   5.066  0.1144 -0.7079 -0.9151
   76SLPC  H13X 6919   3.104   1.325   5.075 -0.6470 -0.8466  0.1626
   76SLPC  H13Y 6920   3.018   1.166   5.037 -0.2585 -0.2082 -0.5479
   76SLPC  C314 6921   3.200   1.189   4.945  0.1569  0.4963  0.1276
   76SLPC  H14X 6922   3.197   1.078   4.936 -0.1223  0.5645 -0.6953
   76SLPC  H14Y 6923   3.305   1.222   4.956  1.0992 -1.5407 -1.9196
   76SLPC  C315 6924   3.148   1.258   4.821  0.5288  0.6815  0.1627
   76SLPC  H15X 6925   3.186   1.212   4.727 -2.1669 -0.1871 -0.5963
   76SLPC  H15Y 6926   3.168   1.367   4.829 -3.1530  1.4212  1.2992
   76SLPC  C316 6927   2.993   1.237   4.797 -0.3578  0.2359 -0.0699
   76SLPC  H16X 6928   2.939   1.273   4.888 -1.1155  0.4252 -0.5799
   76SLPC  H16Y 6929   2.976   1.129   4.781  1.4559  0.3171 -3.4846
   76SLPC  C317 6930   2.926   1.297   4.669 -0.3545  0.0884 -0.0305
   76SLPC  H17X 6931   2.980   1.250   4.583 -0.1419 -1.3089  0.8274
   76SLPC  H17Y 6932   2.950   1.405   4.662 -2.2056  0.4810 -0.7212
   76SLPC  C318 6933   2.776   1.274   4.645 -0.2423 -0.0956 -0.1043
   76SLPC  H18X 6934   2.766   1.295   4.536 -1.5351  0.7094  0.1530
   76SLPC  H18Y 6935   2.709   1.344   4.699 -1.5142 -0.6365 -0.9212
   76SLPC  H18Z 6936   2.743   1.171   4.672 -1.7813  0.4489  0.1980
   77SLPC     N 6937   1.570   0.650   6.780  0.0808  0.6635 -0.1497
   77SLPC   C13 6938   1.594   0.791   6.741  0.4914 -0.3616  0.8151
   77SLPC  H13A 6939   1.512   0.831   6.683  1.4364  0.2294 -0.1719
   77SLPC  H13B 6940   1.618   0.854   6.826  0.5538  1.2773 -0.3673
   77SLPC  H13C 6941   1.673   0.796   6.666 -2.7776 -0.9398 -2.9813
   77SLPC   C14 6942   1.458   0.661   6.868 -0.1157 -0.3355  0.1972
   77SLPC  H14A 6943   1.371   0.699   6.818  1.2300  1.6312 -0.7792
   77SLPC  H14B 6944   1.418   0.564   6.893 -0.3764  0.0278  1.2545
   77SLPC  H14C 6945   1.487   0.713   6.958 -2.3172 -2.3745  2.2378
   77SLPC   C15 6946   1.688   0.601   6.864 -0.4863  0.2517 -0.3313
   77SLPC  H15A 6947   1.651   0.523   6.929  1.0402  0.2450  0.5718
   77SLPC  H15B 6948   1.761   0.566   6.792 -0.3894 -0.8039  0.2621
   77SLPC  H15C 6949   1.739   0.684   6.910 -0.1849  1.5105 -2.7452
   77SLPC   C12 6950   1.537   0.566   6.654  0.0279  0.3103 -0.5159
   77SLPC  H12A 6951   1.629   0.564   6.598 -0.0655 -2.0372 -0.7076
   77SLPC  H12B 6952   1.462   0.614   6.593  0.4959 -0.5766 -1.8376
   77SLPC   C11 6953   1.492   0.414   6.672  0.4964  0.2432 -0.4131
   77SLPC  H11A 6954   1.474   0.371   6.572  3.0699  1.7433 -1.6213
   77SLPC  H11B 6955   1.395   0.417   6.726  1.6784 -0.6769  1.9212
   77SLPC     P 6956   1.724   0.293   6.672  0.1792  0.0330 -0.0130
   77SLPC   O13 6957   1.845   0.321   6.756 -0.2516  0.6912  0.3786
   77SLPC   O14 6958   1.712   0.150   6.651 -0.0435  0.1042 -0.0574
   77SLPC   O12 6959   1.597   0.340   6.748 -0.0797  0.6761 -0.2060
   77SLPC   O11 6960   1.724   0.370   6.532 -0.1534  0.2715 -0.0724
   77SLPC    C1 6961   1.742   0.288   6.420 -0.1205  0.5223  0.3976
   77SLPC    HA 6962   1.702   0.185   6.432  0.7585 -0.0656 -1.4161
   77SLPC    HB 6963   1.676   0.330   6.341 -1.3037  0.9763  1.5831
   77SLPC    C2 6964   1.891   0.294   6.375 -0.0770  0.9233 -0.0651
   77SLPC    HS 6965   1.946   0.273   6.469  0.7935 -1.6511 -1.0756
   77SLPC   O21 6966   1.924   0.424   6.325 -0.5083  0.5255  0.6568
   77SLPC   C21 6967   2.057   0.447   6.315 -0.6204  0.0536 -0.6699
   77SLPC   O22 6968   2.145   0.366   6.342 -0.0774 -0.1119  0.2383
   77SLPC   C22 6969   2.076   0.598   6.279 -0.1719 -0.3210  0.4313
   77SLPC   H2R 6970   2.023   0.667   6.348 -0.6479 -0.2006 -0.0446
   77SLPC   H2S 6971   2.187   0.607   6.280  0.0979 -2.9014 -0.5946
   77SLPC    C3 6972   1.925   0.170   6.284 -0.5028 -0.6337 -0.7295
   77SLPC    HX 6973   1.897   0.072   6.328 -0.5062 -0.1009  0.4769
   77SLPC    HY 6974   2.036   0.162   6.287 -0.5261 -0.9146 -0.5647
   77SLPC   O31 6975   1.862   0.180   6.157  0.7224 -0.3237  0.2893
   77SLPC   C31 6976   1.938   0.147   6.054  0.3308  0.2239  0.3146
   77SLPC   O32 6977   2.058   0.125   6.066  0.3789 -0.4399 -0.3721
   77SLPC   C32 6978   1.846   0.121   5.929  0.0119  0.2124 -1.0992
   77SLPC   H2X 6979   1.861   0.204   5.857  2.7244  2.3289  1.6289
   77SLPC   H2Y 6980   1.741   0.113   5.964  0.9529 -5.0913  1.6564
   77SLPC   C23 6981   2.028   0.618   6.133  0.5887  0.1101  0.3863
   77SLPC   H3R 6982   2.032   0.728   6.118  2.5906  0.3469  2.1436
   77SLPC   H3S 6983   1.923   0.583   6.144  0.9296 -0.2513  3.8305
   77SLPC   C24 6984   2.098   0.532   6.020 -0.8417 -1.0094 -0.2158
   77SLPC   H4R 6985   2.131   0.432   6.058  1.8321 -0.0214  0.3273
   77SLPC   H4S 6986   2.192   0.581   5.986 -0.8683  0.7597  2.0451
   77SLPC   C25 6987   2.007   0.524   5.895 -0.7965 -0.6458  0.0171
   77SLPC   H5R 6988   1.980   0.625   5.857  0.6601  0.6646  2.2051
   77SLPC   H5S 6989   1.918   0.468   5.932  0.9509 -3.4889  0.2634
   77SLPC   C26 6990   2.065   0.443   5.784  0.0110 -0.4238  0.2729
   77SLPC   H6R 6991   2.092   0.340   5.815  3.1236  0.5985  1.3186
   77SLPC   H6S 6992   2.159   0.491   5.751 -0.3828  0.2755  0.1591
   77SLPC   C27 6993   1.976   0.425   5.654 -0.3871  0.7116 -0.3481
   77SLPC   H7R 6994   1.922   0.519   5.630  0.5807  0.6498 -3.0910
   77SLPC   H7S 6995   1.895   0.350   5.665 -0.3416  0.7291  0.1391
   77SLPC   C28 6996   2.051   0.394   5.526 -0.5678 -0.1839 -0.2352
   77SLPC   H8R 6997   2.128   0.472   5.508 -1.9038  1.1506 -0.4612
   77SLPC   H8S 6998   1.975   0.424   5.450 -0.4543 -1.0627 -0.7001
   77SLPC   C29 6999   2.103   0.250   5.532 -0.8639 -0.2750  0.1828
   77SLPC   H9R 7000   2.139   0.220   5.631  0.7190  2.5145  0.5523
   77SLPC  C210 7001   2.091   0.164   5.435  0.1573  0.4973  0.1996
   77SLPC  H10R 7002   2.138   0.066   5.450 -0.5310  0.4109  2.0579
   77SLPC  C211 7003   2.041   0.194   5.293 -0.3173 -0.0074 -0.3069
   77SLPC  H11R 7004   2.104   0.147   5.214  1.7738  3.7952 -1.1607
   77SLPC  H11S 7005   2.056   0.302   5.269  1.4629 -0.2231 -0.3218
   77SLPC  C212 7006   1.897   0.155   5.272  0.1325  0.3561  1.1393
   77SLPC  H12R 7007   1.870   0.049   5.285  0.0736 -0.3492 -3.3627
   77SLPC  C213 7008   1.802   0.227   5.227 -0.0450  0.3291  0.1095
   77SLPC  H13R 7009   1.702   0.183   5.216  0.7269 -1.1797 -1.2428
   77SLPC  C214 7010   1.805   0.378   5.196  0.1836 -0.4798 -0.7217
   77SLPC  H14R 7011   1.871   0.434   5.266 -0.0132  0.3161 -1.1529
   77SLPC  H14S 7012   1.702   0.419   5.203 -0.1466 -1.0119 -2.1118
   77SLPC  C215 7013   1.854   0.403   5.052 -0.1961 -0.3664  0.1427
   77SLPC  H15R 7014   1.779   0.357   4.984  0.0273 -4.3159  2.3147
   77SLPC  H15S 7015   1.945   0.342   5.036 -0.1540 -0.2189 -0.2033
   77SLPC  C216 7016   1.877   0.550   5.000  0.0510 -0.3195 -0.3630
   77SLPC  H16R 7017   1.950   0.601   5.066 -1.7428 -0.7369  2.0528
   77SLPC  H16S 7018   1.781   0.604   5.010  0.2929  0.1357 -0.4534
   77SLPC  C217 7019   1.913   0.554   4.850  0.0307  0.3597 -0.0691
   77SLPC  H17R 7020   1.842   0.490   4.793  0.8748  1.6267 -2.7084
   77SLPC  H17S 7021   2.017   0.516   4.837  0.9225  2.5907  0.1433
   77SLPC  C218 7022   1.903   0.700   4.797  0.7761 -0.3260  0.2242
   77SLPC  H18R 7023   1.807   0.753   4.820  1.4616  0.3092  1.7337
   77SLPC  H18S 7024   1.918   0.700   4.687 -0.7551 -2.4359 -0.0439
   77SLPC  H18T 7025   1.988   0.757   4.840  0.9789 -0.0775 -0.4972
   77SLPC   C33 7026   1.882  -0.012   5.860  0.0967  0.7392  0.0346
   77SLPC   H3X 7027   1.873  -0.088   5.941 -0.1202  1.7755  1.0023
   77SLPC   H3Y 7028   1.989  -0.014   5.831  0.0601 -0.4979 -0.0679
   77SLPC   C34 7029   1.784  -0.056   5.752 -0.2250  0.0367 -0.2571
   77SLPC   H4X 7030   1.788   0.018   5.669 -0.6752  0.4290  0.0732
   77SLPC   H4Y 7031   1.682  -0.064   5.793  0.1059 -0.2662  0.5210
   77SLPC   C35 7032   1.850  -0.186   5.709  0.2523  0.0126 -0.1633
   77SLPC   H5X 7033   1.859  -0.248   5.801  1.9481  1.5100  0.7524
   77SLPC   H5Y 7034   1.953  -0.167   5.672  0.6067  1.0610  1.2494
   77SLPC   C36 7035   1.774  -0.280   5.609  0.0588 -0.1195  0.0874
   77SLPC   H6X 7036   1.669  -0.294   5.643  0.2753 -1.7528  0.1638
   77SLPC   H6Y 7037   1.820  -0.380   5.592 -0.1419 -0.2202  0.1324
   77SLPC   C37 7038   1.764  -0.225   5.464  0.2075  0.4027 -0.0010
   77SLPC   H7X 7039   1.865  -0.231   5.420  0.2751  0.7194  0.1027
   77SLPC   H7Y 7040   1.735  -0.118   5.477  1.1380  0.6300  0.2190
   77SLPC   C38 7041   1.668  -0.302   5.377 -0.2735  0.4272 -0.6101
   77SLPC   H8X 7042   1.573  -0.302   5.434  0.7833  1.2769  1.2432
   77SLPC   H8Y 7043   1.702  -0.407   5.367  0.9318  0.7619 -0.1830
   77SLPC   C39 7044   1.660  -0.243   5.234 -0.4933 -0.0646  0.0859
   77SLPC   H9X 7045   1.596  -0.305   5.168  0.7079  0.7308 -1.9564
   77SLPC   H9Y 7046   1.757  -0.219   5.184 -1.5761  1.1610 -1.5528
   77SLPC  C310 7047   1.594  -0.109   5.223 -0.2979 -0.3410  0.0271
   77SLPC  H10X 7048   1.657  -0.025   5.259  0.7406 -0.3490 -1.6278
   77SLPC  H10Y 7049   1.511  -0.121   5.295 -1.8701  0.2101 -1.5996
   77SLPC  C311 7050   1.542  -0.072   5.084 -0.7344  0.5740 -0.0815
   77SLPC  H11X 7051   1.496  -0.169   5.056  0.1862  0.6046 -1.8525
   77SLPC  H11Y 7052   1.616  -0.043   5.005  0.2308  0.6828  0.8453
   77SLPC  C312 7053   1.446   0.051   5.093 -1.2497  0.0336  0.1782
   77SLPC  H12X 7054   1.508   0.133   5.134 -0.5129 -1.1225  1.4892
   77SLPC  H12Y 7055   1.366   0.030   5.167 -1.6690  0.4427 -0.1548
   77SLPC  C313 7056   1.397   0.077   4.950 -0.0562 -0.1395 -0.3919
   77SLPC  H13X 7057   1.372  -0.027   4.917  2.7638 -1.5601  1.5595
   77SLPC  H13Y 7058   1.486   0.117   4.897 -0.4644  3.7184  1.5569
   77SLPC  C314 7059   1.275   0.166   4.929  0.0790 -0.1818 -1.0745
   77SLPC  H14X 7060   1.298   0.261   4.981 -0.0572 -0.5207 -0.3877
   77SLPC  H14Y 7061   1.198   0.110   4.986 -0.9894  2.0376 -0.2074
   77SLPC  C315 7062   1.245   0.176   4.782  0.6205 -0.4152  0.0971
   77SLPC  H15X 7063   1.164   0.248   4.759  2.4752  0.9512 -2.7456
   77SLPC  H15Y 7064   1.204   0.078   4.749  1.1786 -1.2987  1.8934
   77SLPC  C316 7065   1.348   0.226   4.686 -0.2501 -0.6016 -0.0914
   77SLPC  H16X 7066   1.320   0.226   4.578  0.1882 -1.7441 -0.2236
   77SLPC  H16Y 7067   1.434   0.156   4.682 -0.0204 -0.3946  1.0122
   77SLPC  C317 7068   1.386   0.379   4.708  0.0654 -0.6258 -0.4611
   77SLPC  H17X 7069   1.422   0.399   4.811 -2.0946 -0.9827  0.4076
   77SLPC  H17Y 7070   1.290   0.433   4.701  0.1837 -0.1425  1.1272
   77SLPC  C318 7071   1.492   0.418   4.607  0.3702  0.2118 -0.1349
   77SLPC  H18X 7072   1.574   0.346   4.586  0.0458 -0.2488  0.1668
   77SLPC  H18Y 7073   1.538   0.513   4.643  1.9972 -1.2721  1.9726
   77SLPC  H18Z 7074   1.453   0.437   4.505  3.0727 -1.0986 -1.5086
   78SLPC     N 7075   5.836   0.237   6.640  0.1932 -0.5525  0.0299
   78SLPC   C13 7076   5.858   0.090   6.660  0.0848 -0.0772 -0.3084
   78SLPC  H13A 7077   5.940   0.053   6.598  0.4738 -0.3689  0.3706
   78SLPC  H13B 7078   5.886   0.085   6.764 -0.4313  1.4578 -0.0806
   78SLPC  H13C 7079   5.766   0.034   6.649 -0.5132  1.0382 -1.1785
   78SLPC   C14 7080   5.800   0.257   6.497  0.4682 -0.3907  0.1839
   78SLPC  H14A 7081   5.748   0.351   6.489 -1.5088 -1.4280  0.3013
   78SLPC  H14B 7082   5.886   0.248   6.433 -0.5758 -0.3453 -1.2643
   78SLPC  H14C 7083   5.727   0.185   6.465 -2.1095  1.5879  1.1676
   78SLPC   C15 7084   5.959   0.314   6.659 -0.4823  0.2750 -0.2497
   78SLPC  H15A 7085   5.986   0.308   6.764 -0.9982  0.8012 -0.0851
   78SLPC  H15B 7086   6.037   0.274   6.596 -1.2120  1.4313 -1.9606
   78SLPC  H15C 7087   5.938   0.419   6.650 -1.3968  0.2080  0.9259
   78SLPC   C12 7088   5.720   0.285   6.730  0.2591  0.0138 -0.2140
   78SLPC  H12A 7089   5.686   0.382   6.697 -2.4819 -0.3932  1.1638
   78SLPC  H12B 7090   5.756   0.310   6.828  0.8084 -1.6466  0.0420
   78SLPC   C11 7091   5.595   0.203   6.741  0.1871  0.4185  0.2303
   78SLPC  H11A 7092   5.619   0.094   6.750  3.7398  1.0977  0.6209
   78SLPC  H11B 7093   5.536   0.215   6.648 -1.9488  0.4288  1.5298
   78SLPC     P 7094   5.410   0.359   6.846 -0.3045  0.5027 -0.2069
   78SLPC   O13 7095   5.320   0.350   6.964 -0.2546  0.8211 -0.3570
   78SLPC   O14 7096   5.477   0.483   6.819  0.0885  0.0826  0.3115
   78SLPC   O12 7097   5.516   0.243   6.856 -0.4682  0.0088  0.0750
   78SLPC   O11 7098   5.322   0.321   6.724 -0.5823  0.3059  0.0841
   78SLPC    C1 7099   5.179   0.342   6.720  0.5474  0.7017 -0.1778
   78SLPC    HA 7100   5.121   0.330   6.815 -0.7088  1.3294 -0.8341
   78SLPC    HB 7101   5.163   0.449   6.696  2.6130  1.1325  0.1608
   78SLPC    C2 7102   5.101   0.248   6.620 -0.0685 -0.2740  0.5743
   78SLPC    HS 7103   5.100   0.147   6.664  0.3453  0.5212  2.5093
   78SLPC   O21 7104   5.170   0.252   6.496  0.2444 -0.3669 -0.5441
   78SLPC   C21 7105   5.263   0.161   6.480 -0.2214  0.7257  0.5800
   78SLPC   O22 7106   5.295   0.072   6.557  0.0965  0.0778 -0.2923
   78SLPC   C22 7107   5.321   0.179   6.335 -0.2194  0.5880  0.1076
   78SLPC   H2R 7108   5.395   0.261   6.324  1.4353 -1.0773 -1.8175
   78SLPC   H2S 7109   5.375   0.085   6.309 -1.4969 -0.3147  0.5958
   78SLPC    C3 7110   4.949   0.298   6.605 -0.2534  0.3771  0.0895
   78SLPC    HX 7111   4.953   0.400   6.562  0.2322 -0.1490 -1.1693
   78SLPC    HY 7112   4.900   0.313   6.703 -1.0671 -2.3614  0.1748
   78SLPC   O31 7113   4.874   0.216   6.518  0.0629  0.1274 -0.1477
   78SLPC   C31 7114   4.877   0.256   6.386 -0.2107  0.2702 -0.5237
   78SLPC   O32 7115   4.943   0.352   6.352 -0.1708  0.4691 -0.2166
   78SLPC   C32 7116   4.804   0.151   6.301 -0.6296  0.1168 -0.0434
   78SLPC   H2X 7117   4.697   0.142   6.328 -1.6535 -0.4772 -3.7780
   78SLPC   H2Y 7118   4.856   0.056   6.322 -0.3351  0.1735 -0.5054
   78SLPC   C23 7119   5.209   0.184   6.220 -0.6047 -0.2967 -0.1043
   78SLPC   H3R 7120   5.185   0.290   6.199  0.4484 -0.4090 -2.1425
   78SLPC   H3S 7121   5.113   0.135   6.250 -0.7961  0.7337  1.0284
   78SLPC   C24 7122   5.250   0.110   6.094 -0.0950  0.6051  0.4110
   78SLPC   H4R 7123   5.329   0.163   6.036 -0.3596 -0.4045 -0.9152
   78SLPC   H4S 7124   5.163   0.125   6.027 -0.6950 -1.6566  0.6258
   78SLPC   C25 7125   5.268  -0.042   6.101 -0.1830  0.4478 -0.4900
   78SLPC   H5R 7126   5.209  -0.080   6.188  0.2504 -1.7080 -1.0821
   78SLPC   H5S 7127   5.372  -0.069   6.129 -0.5475 -0.2617  0.2232
   78SLPC   C26 7128   5.243  -0.120   5.973  0.1208  0.3008 -0.1875
   78SLPC   H6R 7129   5.134  -0.126   5.956  0.0705  0.3928  0.1001
   78SLPC   H6S 7130   5.260  -0.228   5.993 -0.3544  0.1172 -0.7609
   78SLPC   C27 7131   5.304  -0.056   5.847 -0.1474  0.2499  0.8330
   78SLPC   H7R 7132   5.415  -0.053   5.854 -0.2487  1.4935  2.3711
   78SLPC   H7S 7133   5.270   0.049   5.839 -2.1728 -0.2849  1.7181
   78SLPC   C28 7134   5.265  -0.139   5.721 -0.1209 -0.5722  0.6569
   78SLPC   H8R 7135   5.271  -0.248   5.741 -1.2889 -0.4193  2.0628
   78SLPC   H8S 7136   5.334  -0.119   5.637 -0.3533 -3.1374 -0.2249
   78SLPC   C29 7137   5.121  -0.106   5.677 -0.1584 -0.4245 -0.3258
   78SLPC   H9R 7138   5.078  -0.035   5.749 -0.8433  0.0737 -1.2115
   78SLPC  C210 7139   5.055  -0.151   5.573  0.4581  0.1726 -0.2031
   78SLPC  H10R 7140   4.957  -0.107   5.550 -0.6296 -0.3503  2.8793
   78SLPC  C211 7141   5.127  -0.250   5.477 -0.2824 -0.0987 -0.2300
   78SLPC  H11R 7142   5.047  -0.308   5.426 -0.3440 -1.2772  1.1527
   78SLPC  H11S 7143   5.194  -0.321   5.530  0.6969  2.0890  1.6392
   78SLPC  C212 7144   5.227  -0.194   5.372 -0.0449  0.2906  0.1024
   78SLPC  H12R 7145   5.314  -0.139   5.411  0.4226 -0.6009  0.3585
   78SLPC  C213 7146   5.195  -0.174   5.241 -0.9263  0.1354  0.3320
   78SLPC  H13R 7147   5.254  -0.100   5.185  0.6469 -1.3341 -0.0291
   78SLPC  C214 7148   5.085  -0.236   5.166  0.5051 -0.1581  0.3783
   78SLPC  H14R 7149   5.037  -0.158   5.103 -0.8200 -1.5453 -0.4271
   78SLPC  H14S 7150   5.011  -0.283   5.234  1.6377  0.1658  1.8685
   78SLPC  C215 7151   5.122  -0.349   5.073 -0.1660  0.1653  0.2914
   78SLPC  H15R 7152   5.176  -0.423   5.136  0.9313 -1.4675 -2.4334
   78SLPC  H15S 7153   5.197  -0.304   5.005 -0.3410  0.9106  0.5824
   78SLPC  C216 7154   5.008  -0.414   5.002 -0.3509  0.2964 -0.6426
   78SLPC  H16R 7155   4.940  -0.334   4.967  0.3814  1.8661  1.3043
   78SLPC  H16S 7156   4.951  -0.483   5.068 -0.1545 -0.9570 -1.7483
   78SLPC  C217 7157   5.060  -0.490   4.877  0.5416 -0.4140  0.4063
   78SLPC  H17R 7158   5.122  -0.577   4.905  2.6427  1.0044  0.4358
   78SLPC  H17S 7159   5.137  -0.423   4.833  4.0499 -2.9370  2.2537
   78SLPC  C218 7160   4.956  -0.537   4.780 -0.5608 -0.7793  0.1573
   78SLPC  H18R 7161   4.911  -0.449   4.729 -1.6012 -0.9802  0.7002
   78SLPC  H18S 7162   4.873  -0.583   4.838 -0.6107 -0.5167  0.2977
   78SLPC  H18T 7163   4.989  -0.618   4.711 -0.9706 -0.6272 -0.2287
   78SLPC   C33 7164   4.819   0.164   6.148 -0.0865  0.1070  0.2274
   78SLPC   H3X 7165   4.924   0.185   6.118  0.2514 -1.0075  0.6010
   78SLPC   H3Y 7166   4.768   0.251   6.101  1.2307  1.0124  0.4310
   78SLPC   C34 7167   4.744   0.052   6.074  0.1466 -0.3069  0.2646
   78SLPC   H4X 7168   4.634   0.063   6.088 -0.2941 -0.6356 -2.4954
   78SLPC   H4Y 7169   4.765  -0.053   6.103 -1.4290 -0.4709  0.9274
   78SLPC   C35 7170   4.758   0.065   5.922 -0.5364 -0.0805 -0.0756
   78SLPC   H5X 7171   4.857   0.029   5.887 -0.1228  1.8080 -1.0100
   78SLPC   H5Y 7172   4.758   0.175   5.908 -1.9185 -0.1120 -0.4761
   78SLPC   C36 7173   4.652  -0.019   5.860  0.0295 -0.0610 -0.2343
   78SLPC   H6X 7174   4.552   0.028   5.869 -0.5807 -1.2395 -0.6482
   78SLPC   H6Y 7175   4.653  -0.122   5.903 -1.1235 -0.0702 -0.1877
   78SLPC   C37 7176   4.667  -0.053   5.705  0.6230  0.2336 -0.1775
   78SLPC   H7X 7177   4.762  -0.110   5.691  0.4041  0.0336 -0.8805
   78SLPC   H7Y 7178   4.680   0.040   5.646 -2.1115  0.2317 -0.8771
   78SLPC   C38 7179   4.551  -0.121   5.640  0.3613  0.2201 -0.1968
   78SLPC   H8X 7180   4.462  -0.054   5.641  0.8269  0.8805 -1.1974
   78SLPC   H8Y 7181   4.530  -0.215   5.696 -1.2090 -0.0612 -1.1651
   78SLPC   C39 7182   4.565  -0.161   5.496 -0.1515  0.3538 -0.1786
   78SLPC   H9X 7183   4.612  -0.081   5.434  2.0097  0.2026  1.1713
   78SLPC   H9Y 7184   4.463  -0.180   5.456 -0.1035 -0.8037  0.2217
   78SLPC  C310 7185   4.636  -0.292   5.467 -0.6301  0.6321  0.8978
   78SLPC  H10X 7186   4.604  -0.374   5.535  0.7902 -1.2512 -0.6059
   78SLPC  H10Y 7187   4.745  -0.275   5.478 -0.4602  0.8104 -0.7815
   78SLPC  C311 7188   4.626  -0.331   5.319  0.5282 -0.2052  0.0032
   78SLPC  H11X 7189   4.706  -0.408   5.306 -0.2053 -1.0097  0.1385
   78SLPC  H11Y 7190   4.637  -0.244   5.251  0.0520  0.5936  0.9176
   78SLPC  C312 7191   4.495  -0.401   5.287 -0.0487  0.7079  0.3307
   78SLPC  H12X 7192   4.424  -0.332   5.236 -2.1160 -1.9804 -0.6105
   78SLPC  H12Y 7193   4.451  -0.454   5.373 -0.7207  0.0390 -0.4096
   78SLPC  C313 7194   4.517  -0.516   5.183 -0.0459 -0.6517 -0.2818
   78SLPC  H13X 7195   4.417  -0.556   5.155 -0.2176  0.2683 -1.0648
   78SLPC  H13Y 7196   4.564  -0.595   5.244 -0.7225  0.1967  1.3999
   78SLPC  C314 7197   4.607  -0.490   5.059  0.3808  0.5137  0.3924
   78SLPC  H14X 7198   4.623  -0.585   5.003 -2.5314  0.6484 -0.8825
   78SLPC  H14Y 7199   4.710  -0.464   5.090  0.8771  0.9758 -1.5140
   78SLPC  C315 7200   4.556  -0.376   4.966 -0.1559  0.5433 -0.2604
   78SLPC  H15X 7201   4.551  -0.278   5.017  2.7855  0.2591  0.7566
   78SLPC  H15Y 7202   4.454  -0.398   4.927 -0.3567 -2.5003  1.5878
   78SLPC  C316 7203   4.654  -0.347   4.845 -0.8476  0.3558  0.0506
   78SLPC  H16X 7204   4.673  -0.431   4.774 -3.4788 -0.5600  0.3288
   78SLPC  H16Y 7205   4.751  -0.315   4.888  0.4998 -0.3031 -2.2826
   78SLPC  C317 7206   4.606  -0.223   4.756 -1.1173  0.1296 -0.7932
   78SLPC  H17X 7207   4.593  -0.136   4.824  0.6726 -0.6883  0.6933
   78SLPC  H17Y 7208   4.505  -0.235   4.713 -1.6638 -1.6595  0.7956
   78SLPC  C318 7209   4.720  -0.196   4.654 -0.1363  0.6000  0.4524
   78SLPC  H18X 7210   4.705  -0.105   4.592  1.6046  1.5730  1.3752
   78SLPC  H18Y 7211   4.736  -0.284   4.588  0.5442 -0.0213  1.4147
   78SLPC  H18Z 7212   4.812  -0.167   4.709  1.3222 -0.7648 -1.1469
   79SLPC     N 7213   4.483   2.367   6.694 -0.2746  0.3326  0.1605
   79SLPC   C13 7214   4.628   2.361   6.741  0.4603  0.6712  1.0796
   79SLPC  H13A 7215   4.655   2.305   6.829  1.5351 -0.8724 -0.1570
   79SLPC  H13B 7216   4.673   2.298   6.666 -0.2275 -1.3873  2.2944
   79SLPC  H13C 7217   4.675   2.457   6.750 -0.0482  1.0832 -0.3150
   79SLPC   C14 7218   4.480   2.448   6.565 -0.3694 -0.8205  0.0590
   79SLPC  H14A 7219   4.538   2.402   6.486 -2.8328  0.7770 -2.9033
   79SLPC  H14B 7220   4.378   2.468   6.535  0.2611  0.5311 -1.2683
   79SLPC  H14C 7221   4.517   2.548   6.578  1.1853 -1.3720  0.0198
   79SLPC   C15 7222   4.402   2.441   6.795 -0.0487 -0.1649 -0.0926
   79SLPC  H15A 7223   4.432   2.545   6.788 -0.3709 -0.1726 -2.1574
   79SLPC  H15B 7224   4.298   2.445   6.767 -0.0615  0.0899 -0.0127
   79SLPC  H15C 7225   4.417   2.408   6.897  0.8558  0.2538 -0.0774
   79SLPC   C12 7226   4.429   2.224   6.676 -0.2494  0.2209  0.0375
   79SLPC  H12A 7227   4.434   2.162   6.764 -1.5426 -0.6947 -0.4987
   79SLPC  H12B 7228   4.500   2.173   6.613  0.9431 -0.2588  1.7345
   79SLPC   C11 7229   4.289   2.213   6.609  0.5732  0.3300 -0.5628
   79SLPC  H11A 7230   4.269   2.105   6.590  2.8570 -1.0165  3.5562
   79SLPC  H11B 7231   4.289   2.252   6.505  0.9008  0.7463 -0.4080
   79SLPC     P 7232   4.103   2.204   6.799  0.2499  0.0678 -0.3515
   79SLPC   O13 7233   4.202   2.146   6.893  0.4427  0.1802 -0.0636
   79SLPC   O14 7234   3.996   2.296   6.845 -0.3663  0.2942  0.3171
   79SLPC   O12 7235   4.187   2.280   6.686  0.2914  0.1936 -0.3025
   79SLPC   O11 7236   4.046   2.086   6.714  0.1233  0.0669 -0.0678
   79SLPC    C1 7237   3.937   2.128   6.623 -0.6630  0.1636  0.2061
   79SLPC    HA 7238   3.857   2.175   6.684  0.2983 -0.4361  2.0319
   79SLPC    HB 7239   3.982   2.199   6.551 -0.6169  0.2992  0.3695
   79SLPC    C2 7240   3.888   2.004   6.550  0.4169 -0.4911  0.0073
   79SLPC    HS 7241   3.875   1.920   6.623 -2.6094 -1.1039 -1.0713
   79SLPC   O21 7242   3.976   1.956   6.446  0.3643  0.1582 -0.1217
   79SLPC   C21 7243   4.014   2.030   6.335 -0.4388 -0.1582  0.0652
   79SLPC   O22 7244   3.982   2.146   6.319 -0.1758 -0.6021 -0.2461
   79SLPC   C22 7245   4.094   1.944   6.239 -0.8361 -0.0298 -0.2979
   79SLPC   H2R 7246   4.141   1.860   6.295 -0.4848  1.2059  1.3553
   79SLPC   H2S 7247   4.015   1.907   6.170  0.0124 -0.6529 -0.9530
   79SLPC    C3 7248   3.742   2.035   6.496  0.6566  0.1831 -0.7378
   79SLPC    HX 7249   3.745   2.140   6.462 -1.7824  0.8184  0.7419
   79SLPC    HY 7250   3.675   2.036   6.584  0.5480 -1.9681 -0.7441
   79SLPC   O31 7251   3.700   1.944   6.385  0.1293  0.1105 -0.6103
   79SLPC   C31 7252   3.566   1.934   6.364 -0.3570  0.0155 -0.2224
   79SLPC   O32 7253   3.480   2.000   6.422 -0.8173 -0.8251  0.1687
   79SLPC   C32 7254   3.546   1.806   6.285  0.4064 -0.9626  0.1625
   79SLPC   H2X 7255   3.518   1.733   6.364 -1.0254  0.8230  1.3823
   79SLPC   H2Y 7256   3.647   1.772   6.252  0.3652 -0.2039 -0.8000
   79SLPC   C23 7257   4.189   2.029   6.149  0.1205 -0.4330 -0.3688
   79SLPC   H3R 7258   4.291   2.027   6.193  0.3300 -1.8223 -0.8848
   79SLPC   H3S 7259   4.163   2.137   6.138 -0.4907 -0.2870  2.0631
   79SLPC   C24 7260   4.173   1.977   6.006 -0.8838 -0.0580 -0.5687
   79SLPC   H4R 7261   4.070   1.988   5.966 -1.7233 -3.1878  0.4850
   79SLPC   H4S 7262   4.220   1.876   6.007  1.9407  1.1507  0.5574
   79SLPC   C25 7263   4.266   2.053   5.914  0.0598  0.1867 -0.2442
   79SLPC   H5R 7264   4.358   2.083   5.969 -0.1078  0.2759 -0.0106
   79SLPC   H5S 7265   4.208   2.141   5.877 -1.6225  0.9343  3.6267
   79SLPC   C26 7266   4.312   1.979   5.793  0.1926  0.6148  0.1521
   79SLPC   H6R 7267   4.372   1.891   5.824  0.3324  0.0085 -1.7046
   79SLPC   H6S 7268   4.381   2.049   5.740  2.4677 -1.6048 -0.0044
   79SLPC   C27 7269   4.203   1.951   5.688 -0.5888 -0.2138  0.0056
   79SLPC   H7R 7270   4.164   2.045   5.644 -0.4774  0.5731  1.5259
   79SLPC   H7S 7271   4.125   1.895   5.743  2.0268 -2.0532  2.1083
   79SLPC   C28 7272   4.243   1.870   5.570 -0.4028  0.4237  0.0465
   79SLPC   H8R 7273   4.161   1.815   5.519  0.9870 -0.7156 -1.0751
   79SLPC   H8S 7274   4.297   1.787   5.620  1.4181  1.3026 -0.3721
   79SLPC   C29 7275   4.350   1.918   5.475 -0.1439 -0.3208 -0.2873
   79SLPC   H9R 7276   4.421   1.997   5.504  0.1213 -0.9578  0.8496
   79SLPC  C210 7277   4.374   1.869   5.354 -0.4722 -0.0040 -0.0527
   79SLPC  H10R 7278   4.449   1.920   5.292  0.1866  0.0324  0.7545
   79SLPC  C211 7279   4.315   1.762   5.267 -0.1017  0.0694 -0.4861
   79SLPC  H11R 7280   4.357   1.778   5.166 -2.0910 -1.0305 -1.5477
   79SLPC  H11S 7281   4.208   1.789   5.253 -0.3155  0.2967  1.2896
   79SLPC  C212 7282   4.317   1.618   5.322 -0.5243 -0.5070  0.2520
   79SLPC  H12R 7283   4.372   1.606   5.417 -0.6305  1.1398  0.5519
   79SLPC  C213 7284   4.291   1.506   5.252 -0.3281 -0.2294  0.2137
   79SLPC  H13R 7285   4.305   1.405   5.294 -0.7790 -0.2255  0.3812
   79SLPC  C214 7286   4.236   1.506   5.111  0.6876  0.3490  0.0934
   79SLPC  H14R 7287   4.287   1.434   5.044 -2.3527 -0.2694 -1.7597
   79SLPC  H14S 7288   4.260   1.601   5.060  2.0058 -1.1982 -2.3634
   79SLPC  C215 7289   4.081   1.488   5.105 -0.3365 -0.1242 -0.2424
   79SLPC  H15R 7290   4.031   1.587   5.115 -0.6042 -0.2718 -0.1125
   79SLPC  H15S 7291   4.052   1.416   5.184  1.0195 -0.8029 -0.3543
   79SLPC  C216 7292   4.022   1.436   4.973  0.0913  0.5007  0.8126
   79SLPC  H16R 7293   3.912   1.448   4.987 -0.0896  0.2821 -0.3447
   79SLPC  H16S 7294   4.045   1.328   4.964 -3.5474 -0.3486  0.1700
   79SLPC  C217 7295   4.080   1.488   4.835  0.2272 -0.1855  0.5331
   79SLPC  H17R 7296   4.016   1.450   4.753  0.8159  0.1664 -0.1082
   79SLPC  H17S 7297   4.179   1.438   4.828 -0.6613 -2.1069  1.2076
   79SLPC  C218 7298   4.091   1.643   4.817 -0.1814 -0.1294  0.3154
   79SLPC  H18R 7299   3.997   1.699   4.803  0.6615  1.3758  0.4744
   79SLPC  H18S 7300   4.156   1.663   4.729  1.4794  1.3232  1.7886
   79SLPC  H18T 7301   4.141   1.678   4.910 -1.6448  3.7254 -0.1627
   79SLPC   C33 7302   3.425   1.811   6.176  0.2882 -0.1055 -0.6339
   79SLPC   H3X 7303   3.413   1.920   6.156  1.3738  0.0836 -0.3170
   79SLPC   H3Y 7304   3.329   1.772   6.217  0.5599  1.0984  1.3149
   79SLPC   C34 7305   3.468   1.747   6.043 -0.8677  0.2287 -0.7044
   79SLPC   H4X 7306   3.551   1.812   6.006 -0.7381  1.2180  1.2279
   79SLPC   H4Y 7307   3.396   1.761   5.959  1.1674  0.1461 -2.5717
   79SLPC   C35 7308   3.496   1.608   6.053  0.1935  1.1212 -0.1621
   79SLPC   H5X 7309   3.402   1.553   6.076  1.4187 -2.0507 -2.0515
   79SLPC   H5Y 7310   3.563   1.594   6.140 -1.0446  2.2253  1.0104
   79SLPC   C36 7311   3.570   1.532   5.938 -0.3232 -0.3668 -0.1863
   79SLPC   H6X 7312   3.651   1.597   5.898  0.6535 -0.5673  1.3819
   79SLPC   H6Y 7313   3.502   1.537   5.850 -1.8130  0.6520  0.9581
   79SLPC   C37 7314   3.600   1.383   5.969  0.1213 -0.7918 -0.1177
   79SLPC   H7X 7315   3.514   1.325   6.010 -0.8594  0.0993 -0.8255
   79SLPC   H7Y 7316   3.676   1.395   6.048 -2.2530 -0.0285  2.2057
   79SLPC   C38 7317   3.654   1.305   5.854  0.2700  0.6311 -0.0522
   79SLPC   H8X 7318   3.697   1.214   5.900 -0.7134  0.1751 -0.0262
   79SLPC   H8Y 7319   3.746   1.355   5.817  0.2691 -0.3028 -1.3958
   79SLPC   C39 7320   3.569   1.257   5.737  0.7402 -0.4146 -0.0975
   79SLPC   H9X 7321   3.541   1.341   5.670  0.9567 -1.1351 -1.1051
   79SLPC   H9Y 7322   3.483   1.206   5.785 -1.0035  1.3612 -1.1776
   79SLPC  C310 7323   3.627   1.145   5.658 -0.5372  0.1467 -0.1954
   79SLPC  H10X 7324   3.644   1.064   5.732  1.5020  1.6963  1.1528
   79SLPC  H10Y 7325   3.730   1.186   5.643 -0.9128  1.9639  1.6925
   79SLPC  C311 7326   3.545   1.105   5.533 -0.3200 -0.4974  0.3211
   79SLPC  H11X 7327   3.527   1.191   5.465 -0.3553  1.5046  2.7040
   79SLPC  H11Y 7328   3.442   1.069   5.557 -0.7560  0.0222 -0.7134
   79SLPC  C312 7329   3.624   0.987   5.462 -0.1960 -0.0560  0.6220
   79SLPC  H12X 7330   3.656   0.924   5.548 -0.9198 -0.6147  0.4909
   79SLPC  H12Y 7331   3.718   1.029   5.420 -2.0646  1.1682 -2.6828
   79SLPC  C313 7332   3.547   0.910   5.365 -0.5816  1.1563  0.5395
   79SLPC  H13X 7333   3.463   0.861   5.418  2.2680 -0.3278  4.0663
   79SLPC  H13Y 7334   3.607   0.822   5.333 -1.6627  0.5056  0.2186
   79SLPC  C314 7335   3.501   0.986   5.236 -0.2888 -0.2196 -0.3960
   79SLPC  H14X 7336   3.428   1.065   5.264  1.7022  1.7236 -0.4403
   79SLPC  H14Y 7337   3.454   0.921   5.158  0.7574  0.6042 -1.7738
   79SLPC  C315 7338   3.622   1.051   5.171 -0.4815  0.2106  1.1048
   79SLPC  H15X 7339   3.694   0.967   5.165 -0.5300  0.2344  0.1384
   79SLPC  H15Y 7340   3.665   1.134   5.231 -2.5840  2.2887 -0.1107
   79SLPC  C316 7341   3.615   1.122   5.030 -0.6861  0.4171 -0.1073
   79SLPC  H16X 7342   3.553   1.214   5.035 -1.0132  0.2779 -1.2195
   79SLPC  H16Y 7343   3.556   1.063   4.956 -1.4746  1.9957 -0.7927
   79SLPC  C317 7344   3.748   1.142   4.958 -0.3170  0.2231 -0.2822
   79SLPC  H17X 7345   3.786   1.039   4.940 -2.6468 -1.4175  3.0167
   79SLPC  H17Y 7346   3.816   1.206   5.018  1.0817  0.6182 -2.1889
   79SLPC  C318 7347   3.723   1.211   4.827 -0.5695  0.4114 -0.2262
   79SLPC  H18X 7348   3.643   1.156   4.774 -0.7443 -1.6869  2.0568
   79SLPC  H18Y 7349   3.816   1.206   4.766  0.0339  1.4705  0.5613
   79SLPC  H18Z 7350   3.710   1.322   4.833 -3.2867  0.2762 -1.8700
   80SLPC     N 7351   1.954   3.042   6.759  0.0326 -0.1513  0.0112
   80SLPC   C13 7352   1.882   2.996   6.886 -0.6228 -0.1808  0.4570
   80SLPC  H13A 7353   1.789   3.050   6.896  0.3659  1.8051 -0.5465
   80SLPC  H13B 7354   1.865   2.889   6.893 -0.1944 -0.2263  0.8852
   80SLPC  H13C 7355   1.940   3.016   6.975 -1.2543  0.0306  0.8314
   80SLPC   C14 7356   1.986   3.188   6.750 -0.0376  0.3057  0.2523
   80SLPC  H14A 7357   2.017   3.226   6.654 -0.8105  2.2860  0.7461
   80SLPC  H14B 7358   1.905   3.249   6.785 -0.0643 -0.9840  2.7254
   80SLPC  H14C 7359   2.072   3.203   6.813 -1.8188  1.7289  2.4878
   80SLPC   C15 7360   1.870   2.997   6.642 -0.2545 -0.2404  0.1030
   80SLPC  H15A 7361   1.856   2.890   6.645 -3.1469  0.0717  0.5217
   80SLPC  H15B 7362   1.771   3.041   6.642 -0.2582 -0.2472  0.3195
   80SLPC  H15C 7363   1.926   3.021   6.553 -0.5838 -1.8276 -0.5636
   80SLPC   C12 7364   2.085   2.967   6.769 -0.3237  0.7776  0.3976
   80SLPC  H12A 7365   2.140   2.990   6.679 -0.2520  0.8077  0.4489
   80SLPC  H12B 7366   2.058   2.862   6.772  0.5560  0.5301 -0.0208
   80SLPC   C11 7367   2.185   2.998   6.889 -0.3374  0.6070  0.5171
   80SLPC  H11A 7368   2.260   2.919   6.870 -2.4639 -1.0980 -1.4111
   80SLPC  H11B 7369   2.126   2.979   6.981 -0.5794 -0.8596  0.0760
   80SLPC     P 7370   2.347   3.176   6.795  0.0362 -0.0062  0.5202
   80SLPC   O13 7371   2.372   3.319   6.817  0.3985  0.2774  0.2751
   80SLPC   O14 7372   2.459   3.084   6.812  0.2153  0.3531  0.4766
   80SLPC   O12 7373   2.229   3.130   6.887  0.2503  0.4017 -0.5059
   80SLPC   O11 7374   2.284   3.146   6.655  0.7646 -0.3001  0.1420
   80SLPC    C1 7375   2.349   3.165   6.529 -0.5289 -0.2714 -0.5757
   80SLPC    HA 7376   2.342   3.273   6.504 -2.5313  0.3258  2.1725
   80SLPC    HB 7377   2.457   3.137   6.530 -0.6694 -0.8426  1.1392
   80SLPC    C2 7378   2.270   3.101   6.410  0.1588 -0.1539  0.0788
   80SLPC    HS 7379   2.169   3.148   6.415  0.1833 -0.1994  1.5134
   80SLPC   O21 7380   2.274   2.961   6.409 -0.4222  0.0659  0.1744
   80SLPC   C21 7381   2.164   2.898   6.377 -0.2033 -1.0245  0.7518
   80SLPC   O22 7382   2.059   2.953   6.354 -0.6717 -0.1296  0.3590
   80SLPC   C22 7383   2.176   2.744   6.367 -0.5475 -0.0246 -0.4881
   80SLPC   H2R 7384   2.219   2.722   6.467  0.8028  3.0595 -0.2817
   80SLPC   H2S 7385   2.073   2.703   6.358 -0.8377  0.9482 -1.9582
   80SLPC    C3 7386   2.326   3.156   6.274 -0.1509  0.5543 -0.3956
   80SLPC    HX 7387   2.336   3.266   6.286  0.4287  0.5441 -0.7989
   80SLPC    HY 7388   2.258   3.117   6.195  2.5284 -3.4779 -1.0000
   80SLPC   O31 7389   2.454   3.112   6.242 -0.3407 -0.0979 -0.3210
   80SLPC   C31 7390   2.494   3.134   6.116  0.2337 -0.2227  0.5072
   80SLPC   O32 7391   2.429   3.198   6.037  0.2169 -0.3342 -0.0361
   80SLPC   C32 7392   2.636   3.085   6.086  0.4162  0.2113 -0.0537
   80SLPC   H2X 7393   2.626   2.981   6.121 -0.7679 -0.1579 -1.3815
   80SLPC   H2Y 7394   2.712   3.139   6.146 -1.4269 -0.1537  2.8351
   80SLPC   C23 7395   2.280   2.692   6.266 -0.1454  0.3623 -0.1348
   80SLPC   H3R 7396   2.297   2.583   6.285 -2.9811  0.0861  1.2824
   80SLPC   H3S 7397   2.381   2.737   6.276  1.2559 -2.4002 -0.6800
   80SLPC   C24 7398   2.237   2.711   6.122  0.7825 -0.5722  0.7658
   80SLPC   H4R 7399   2.199   2.815   6.113  1.2625 -0.2109  2.5539
   80SLPC   H4S 7400   2.148   2.649   6.096 -0.6853  1.9380 -0.5885
   80SLPC   C25 7401   2.337   2.692   6.005 -0.7947  0.0891 -0.0794
   80SLPC   H5R 7402   2.367   2.585   6.009  1.3195  0.6577  3.6159
   80SLPC   H5S 7403   2.428   2.755   6.015 -2.2528  2.3325 -0.3120
   80SLPC   C26 7404   2.278   2.721   5.866 -0.1196  0.9161 -0.8115
   80SLPC   H6R 7405   2.257   2.830   5.870 -1.3940  0.6589  2.6174
   80SLPC   H6S 7406   2.188   2.659   5.844  0.4050  0.0929 -0.7171
   80SLPC   C27 7407   2.379   2.699   5.747  0.6074  0.2335 -0.8241
   80SLPC   H7R 7408   2.409   2.593   5.732  1.5628  0.6230 -1.7987
   80SLPC   H7S 7409   2.474   2.755   5.759 -0.3742  2.0008 -1.0917
   80SLPC   C28 7410   2.332   2.751   5.611 -0.1312 -0.6315  0.0746
   80SLPC   H8R 7411   2.414   2.781   5.542  0.2094 -1.4548  0.1095
   80SLPC   H8S 7412   2.275   2.843   5.637 -0.6558 -0.5996 -1.1034
   80SLPC   C29 7413   2.247   2.651   5.535  0.0569 -0.1044 -0.1936
   80SLPC   H9R 7414   2.149   2.627   5.578  0.6600 -3.4134 -0.3549
   80SLPC  C210 7415   2.282   2.587   5.418 -0.9890  0.8737 -0.1869
   80SLPC  H10R 7416   2.207   2.526   5.366 -1.3282  1.5755 -0.5431
   80SLPC  C211 7417   2.420   2.586   5.353 -0.1213  0.5695 -0.3765
   80SLPC  H11R 7418   2.491   2.546   5.429  1.0940  0.3080 -1.6046
   80SLPC  H11S 7419   2.460   2.689   5.353  1.1080  0.1168 -0.3349
   80SLPC  C212 7420   2.444   2.521   5.215  0.3054  0.2004 -0.6179
   80SLPC  H12R 7421   2.370   2.444   5.185 -1.2386  1.4792 -0.2205
   80SLPC  C213 7422   2.542   2.548   5.129  0.8723  0.2678  0.5088
   80SLPC  H13R 7423   2.557   2.490   5.036  1.9863  2.4212 -0.7347
   80SLPC  C214 7424   2.660   2.628   5.164 -0.6376  0.0182 -0.1453
   80SLPC  H14R 7425   2.748   2.561   5.164 -0.7945 -0.3763  3.2557
   80SLPC  H14S 7426   2.657   2.677   5.264 -0.3377 -0.5866  0.1633
   80SLPC  C215 7427   2.681   2.741   5.060 -0.0546  0.3730 -0.1551
   80SLPC  H15R 7428   2.593   2.807   5.078 -0.0336 -0.2692  2.9204
   80SLPC  H15S 7429   2.673   2.704   4.956  1.1362  2.3334 -1.0102
   80SLPC  C216 7430   2.815   2.818   5.089  0.1776  0.2398 -0.1372
   80SLPC  H16R 7431   2.893   2.744   5.061 -0.0679 -0.3805  0.7875
   80SLPC  H16S 7432   2.810   2.837   5.198 -1.0207 -2.1307  0.2764
   80SLPC  C217 7433   2.821   2.952   5.015 -0.3009  0.6219 -0.1981
   80SLPC  H17R 7434   2.905   3.015   5.050  0.6291 -0.6777 -0.0058
   80SLPC  H17S 7435   2.730   3.011   5.037 -1.2368  0.1494 -2.5380
   80SLPC  C218 7436   2.822   2.942   4.860  0.1666  0.2607  0.3725
   80SLPC  H18R 7437   2.838   3.039   4.809 -0.9285 -0.1631 -0.8241
   80SLPC  H18S 7438   2.723   2.909   4.822  0.1434  0.7679 -0.0086
   80SLPC  H18T 7439   2.905   2.876   4.827 -0.4721 -0.1491 -0.4363
   80SLPC   C33 7440   2.679   3.080   5.940  0.1873  0.2924  0.2316
   80SLPC   H3X 7441   2.787   3.055   5.932  0.1955  0.8202 -1.9003
   80SLPC   H3Y 7442   2.668   3.182   5.899  0.9936  0.5896  0.7232
   80SLPC   C34 7443   2.603   2.978   5.852 -0.0572 -0.1949 -0.2526
   80SLPC   H4X 7444   2.498   3.010   5.837 -0.4990 -1.4444  0.0747
   80SLPC   H4Y 7445   2.594   2.881   5.906  1.5543  0.1699  0.7644
   80SLPC   C35 7446   2.685   2.940   5.723  0.4940  0.3148  0.5961
   80SLPC   H5X 7447   2.629   2.864   5.663  1.5147  0.3333 -0.4161
   80SLPC   H5Y 7448   2.779   2.899   5.764  0.8811  1.0435  0.4584
   80SLPC   C36 7449   2.718   3.049   5.623  0.2842  0.4724  0.1721
   80SLPC   H6X 7450   2.782   3.119   5.681  0.8854 -0.4971  0.7031
   80SLPC   H6Y 7451   2.627   3.101   5.585  0.2407  0.5821  0.4230
   80SLPC   C37 7452   2.799   3.004   5.508 -0.3476  0.0839 -0.2729
   80SLPC   H7X 7453   2.751   2.942   5.430 -0.5852 -0.7854  0.5447
   80SLPC   H7Y 7454   2.871   2.932   5.553 -2.3350 -2.1586 -0.4673
   80SLPC   C38 7455   2.874   3.129   5.455  0.2467 -0.0765  0.4414
   80SLPC   H8X 7456   2.980   3.102   5.435  0.2655  1.3141 -1.6329
   80SLPC   H8Y 7457   2.873   3.210   5.531 -1.4294 -0.3315  0.7325
   80SLPC   C39 7458   2.813   3.171   5.324  0.3067  0.6375  0.0605
   80SLPC   H9X 7459   2.703   3.169   5.336  0.3076 -1.5627 -0.0158
   80SLPC   H9Y 7460   2.835   3.096   5.245  0.5904  0.5483  0.2237
   80SLPC  C310 7461   2.852   3.316   5.294 -0.7853 -0.7724  0.3547
   80SLPC  H10X 7462   2.844   3.341   5.186  1.2033 -0.1680  0.3047
   80SLPC  H10Y 7463   2.960   3.332   5.316 -0.9144 -2.7286  2.9528
   80SLPC  C311 7464   2.767   3.418   5.381 -0.0361 -0.5946  0.2329
   80SLPC  H11X 7465   2.777   3.393   5.488  0.8467 -0.3269  0.2267
   80SLPC  H11Y 7466   2.664   3.400   5.345 -0.8085  0.6867  1.6889
   80SLPC  C312 7467   2.802   3.572   5.371 -0.0398 -0.0901  0.3442
   80SLPC  H12X 7468   2.899   3.593   5.420 -1.0043 -0.0809  2.3395
   80SLPC  H12Y 7469   2.719   3.635   5.409 -0.0895 -0.0353  0.1475
   80SLPC  C313 7470   2.821   3.619   5.227 -0.3888 -0.2067 -0.6319
   80SLPC  H13X 7471   2.721   3.611   5.178 -0.8193 -3.2760  0.5092
   80SLPC  H13Y 7472   2.901   3.568   5.169  1.4668  0.5759  1.1206
   80SLPC  C314 7473   2.869   3.760   5.222 -0.0067 -1.0172 -1.3424
   80SLPC  H14X 7474   2.975   3.756   5.253  0.2483  0.1665 -2.0294
   80SLPC  H14Y 7475   2.824   3.822   5.303  2.7513 -1.8382  1.0041
   80SLPC  C315 7476   2.863   3.834   5.084  0.1627 -0.3079 -0.3087
   80SLPC  H15X 7477   2.891   3.941   5.093  0.6847 -0.4661 -0.0610
   80SLPC  H15Y 7478   2.754   3.834   5.061 -0.3697  2.7298  1.6359
   80SLPC  C316 7479   2.934   3.768   4.962 -0.1747  1.3329 -1.3276
   80SLPC  H16X 7480   2.878   3.675   4.940  1.0578  0.5378 -1.1497
   80SLPC  H16Y 7481   3.041   3.749   4.985 -0.2056  2.2474 -0.3678
   80SLPC  C317 7482   2.915   3.845   4.832  0.1140  0.1246 -0.0593
   80SLPC  H17X 7483   2.966   3.943   4.845  0.7009 -0.3304  1.2711
   80SLPC  H17Y 7484   2.808   3.848   4.802  0.2329 -0.6546 -0.5727
   80SLPC  C318 7485   2.997   3.777   4.715 -0.0319 -0.2291 -0.0547
   80SLPC  H18X 7486   2.970   3.833   4.623  0.5216 -1.1936 -0.8212
   80SLPC  H18Y 7487   2.982   3.668   4.701  2.0288 -0.5661  0.1096
   80SLPC  H18Z 7488   3.103   3.810   4.719 -0.2200  0.8618 -2.4542
   81SLPC     N 7489   0.312   3.066   2.558  1.2305  0.5019 -0.0535
   81SLPC   C13 7490   0.348   3.001   2.427  0.0107 -0.2050 -0.4938
   81SLPC  H13A 7491   0.366   2.895   2.438 -2.6036 -0.6674  0.0308
   81SLPC  H13B 7492   0.258   3.001   2.366  0.7315 -1.1237 -1.5887
   81SLPC  H13C 7493   0.430   3.044   2.372 -1.2873  1.2573 -1.3882
   81SLPC   C14 7494   0.230   3.188   2.540 -0.0169  0.1810  0.6746
   81SLPC  H14A 7495   0.126   3.168   2.523  0.3852 -0.9927 -0.5550
   81SLPC  H14B 7496   0.225   3.256   2.623 -0.9613  1.7612 -0.6031
   81SLPC  H14C 7497   0.257   3.246   2.452 -3.5893  0.3736 -0.4593
   81SLPC   C15 7498   0.442   3.111   2.617 -0.0764 -0.0250 -0.5498
   81SLPC  H15A 7499   0.427   3.172   2.705 -1.3140 -3.4870  1.8373
   81SLPC  H15B 7500   0.505   3.024   2.633 -0.0248 -0.0205 -0.7261
   81SLPC  H15C 7501   0.502   3.170   2.549 -0.4148 -1.7182 -2.3923
   81SLPC   C12 7502   0.237   2.984   2.662  0.3117  1.0103 -0.4546
   81SLPC  H12A 7503   0.141   2.959   2.619  1.7489  0.4662 -3.6328
   81SLPC  H12B 7504   0.216   3.044   2.750 -2.2233  1.9218 -1.5703
   81SLPC   C11 7505   0.303   2.849   2.697 -0.9753 -0.0414  0.2945
   81SLPC  H11A 7506   0.244   2.800   2.777 -0.1104 -1.1676  0.2717
   81SLPC  H11B 7507   0.409   2.856   2.733 -0.3154  0.1370 -1.5928
   81SLPC     P 7508   0.197   2.668   2.544 -0.3963  0.5535 -0.4055
   81SLPC   O13 7509   0.079   2.749   2.510  0.5626 -0.3972  0.5788
   81SLPC   O14 7510   0.230   2.577   2.434 -0.3473 -0.4199  0.3412
   81SLPC   O12 7511   0.314   2.761   2.585  0.0292 -0.1690  0.5073
   81SLPC   O11 7512   0.169   2.577   2.673  0.0994 -0.1058  0.4887
   81SLPC    C1 7513   0.258   2.466   2.698  0.3147  0.2010  0.2912
   81SLPC    HA 7514   0.189   2.379   2.706 -0.0164  0.3921 -0.3811
   81SLPC    HB 7515   0.334   2.443   2.621  0.1164  0.7346 -0.0705
   81SLPC    C2 7516   0.331   2.475   2.838 -0.1142 -0.1359 -0.1472
   81SLPC    HS 7517   0.329   2.373   2.884 -3.2870 -0.5942 -1.0563
   81SLPC   O21 7518   0.248   2.564   2.922  0.1339 -0.0419 -0.6266
   81SLPC   C21 7519   0.150   2.504   2.980 -0.2109  0.1622  0.1782
   81SLPC   O22 7520   0.113   2.389   2.963 -0.7183  0.1352 -0.4190
   81SLPC   C22 7521   0.094   2.594   3.093 -0.4231  0.1662  0.4923
   81SLPC   H2R 7522   0.109   2.702   3.070 -3.4357  0.6115  0.2900
   81SLPC   H2S 7523  -0.015   2.574   3.087 -0.6295  0.1363  3.0375
   81SLPC    C3 7524   0.478   2.527   2.823  0.1022  0.3665  0.6944
   81SLPC    HX 7525   0.491   2.615   2.758  0.3824 -1.7839 -2.3746
   81SLPC    HY 7526   0.510   2.442   2.759 -1.4462  0.1068  0.2251
   81SLPC   O31 7527   0.542   2.534   2.950  0.3055  0.3531 -0.2535
   81SLPC   C31 7528   0.627   2.632   2.970  0.5105  1.1221 -0.2677
   81SLPC   O32 7529   0.668   2.712   2.889 -0.1879 -0.6614  0.2525
   81SLPC   C32 7530   0.691   2.605   3.110  0.1345  0.0897  0.2892
   81SLPC   H2X 7531   0.747   2.697   3.137  2.5370 -0.6418 -1.7436
   81SLPC   H2Y 7532   0.756   2.515   3.099  0.6974  0.5242 -0.0326
   81SLPC   C23 7533   0.163   2.545   3.227  0.3202  0.1026  0.7022
   81SLPC   H3R 7534   0.271   2.571   3.222  0.0538  1.0558 -1.2899
   81SLPC   H3S 7535   0.137   2.437   3.238 -1.0925  0.3050 -0.3005
   81SLPC   C24 7536   0.083   2.615   3.339  0.1560  0.2457  0.1938
   81SLPC   H4R 7537  -0.018   2.569   3.344 -0.4374  1.3373 -1.1202
   81SLPC   H4S 7538   0.063   2.721   3.313  0.2715  0.5782  1.3952
   81SLPC   C25 7539   0.147   2.604   3.472  0.2529  0.8063 -1.0153
   81SLPC   H5R 7540   0.080   2.663   3.539 -1.2884 -1.6902 -0.1893
   81SLPC   H5S 7541   0.247   2.652   3.468  0.6142  0.1975  0.1704
   81SLPC   C26 7542   0.172   2.459   3.516  0.3594  0.4425  0.1022
   81SLPC   H6R 7543   0.260   2.417   3.462  0.2301  1.1413 -0.6742
   81SLPC   H6S 7544   0.082   2.395   3.505  0.8253 -0.4638  1.2997
   81SLPC   C27 7545   0.213   2.446   3.666  0.0328  0.7571  0.0003
   81SLPC   H7R 7546   0.295   2.516   3.693  0.4666  1.0990 -2.0246
   81SLPC   H7S 7547   0.249   2.342   3.674 -1.5995  0.0406 -1.3057
   81SLPC   C28 7548   0.088   2.444   3.760 -0.5666  0.7160  0.2506
   81SLPC   H8R 7549   0.008   2.387   3.708 -0.9589  1.6665 -0.2021
   81SLPC   H8S 7550   0.047   2.547   3.768  0.9419  1.3531  0.2086
   81SLPC   C29 7551   0.136   2.389   3.895  0.1207  0.9617  0.4581
   81SLPC   H9R 7552   0.127   2.279   3.899  1.7590  0.8522  2.0241
   81SLPC  C210 7553   0.179   2.453   4.001  0.1523 -0.4352 -0.6604
   81SLPC  H10R 7554   0.192   2.386   4.088 -0.0440  0.1907 -0.1331
   81SLPC  C211 7555   0.177   2.603   4.027 -0.4623 -0.0462  0.0676
   81SLPC  H11R 7556   0.127   2.631   4.122 -3.0587 -0.8211 -0.9832
   81SLPC  H11S 7557   0.111   2.655   3.954 -0.0485  2.8590  1.6390
   81SLPC  C212 7558   0.320   2.646   4.007 -0.3340  0.4342 -0.7033
   81SLPC  H12R 7559   0.347   2.649   3.901 -1.0740  1.1764 -0.8798
   81SLPC  C213 7560   0.408   2.681   4.101  0.1272  0.2635  0.5607
   81SLPC  H13R 7561   0.512   2.711   4.082  0.0505  1.0315  1.3084
   81SLPC  C214 7562   0.385   2.681   4.245 -0.2816  0.1281  0.3795
   81SLPC  H14R 7563   0.277   2.677   4.271 -0.3666 -0.4513 -0.0365
   81SLPC  H14S 7564   0.435   2.774   4.278 -0.8437  0.1817  1.0954
   81SLPC  C215 7565   0.465   2.574   4.323 -0.1346 -0.1484  0.5683
   81SLPC  H15R 7566   0.466   2.597   4.431 -0.7585 -1.3041  0.8345
   81SLPC  H15S 7567   0.569   2.567   4.284  0.0183 -0.6696  1.0609
   81SLPC  C216 7568   0.416   2.432   4.282 -0.0990  0.0717 -0.1589
   81SLPC  H16R 7569   0.422   2.428   4.171  0.3178 -0.6372 -0.1115
   81SLPC  H16S 7570   0.306   2.421   4.296  0.2518 -1.7737  1.4977
   81SLPC  C217 7571   0.498   2.313   4.349  0.1738  0.0048  0.5692
   81SLPC  H17R 7572   0.476   2.305   4.457  1.6843 -0.1829  0.8767
   81SLPC  H17S 7573   0.604   2.344   4.340  0.4063 -1.0565 -0.7396
   81SLPC  C218 7574   0.480   2.177   4.284 -1.0931 -0.5924  0.1577
   81SLPC  H18R 7575   0.376   2.147   4.262 -1.4617  0.1977  0.7568
   81SLPC  H18S 7576   0.534   2.108   4.351 -1.1671 -2.6744 -1.8111
   81SLPC  H18T 7577   0.523   2.196   4.183  0.4465  0.2391  0.9270
   81SLPC   C33 7578   0.595   2.580   3.224  0.1181 -0.1999 -0.0597
   81SLPC   H3X 7579   0.542   2.484   3.207 -0.5261  0.5152 -2.3841
   81SLPC   H3Y 7580   0.516   2.658   3.222  0.7226  0.4254  0.1986
   81SLPC   C34 7581   0.678   2.589   3.352 -0.2985 -0.8677  0.3886
   81SLPC   H4X 7582   0.725   2.690   3.359 -1.1078 -0.3861 -0.7243
   81SLPC   H4Y 7583   0.764   2.522   3.331 -0.4632 -1.6462  2.0830
   81SLPC   C35 7584   0.605   2.547   3.475 -0.7419 -0.3692  0.1199
   81SLPC   H5X 7585   0.587   2.440   3.452  0.7496 -0.6977  0.3895
   81SLPC   H5Y 7586   0.512   2.599   3.505 -0.3606  1.3555 -1.5183
   81SLPC   C36 7587   0.705   2.549   3.598  0.2023 -0.4366 -0.1671
   81SLPC   H6X 7588   0.748   2.649   3.619  0.0267 -0.7480  1.8861
   81SLPC   H6Y 7589   0.793   2.489   3.564  0.3690 -0.2326 -0.1000
   81SLPC   C37 7590   0.638   2.491   3.729 -0.2366 -0.5018  0.3513
   81SLPC   H7X 7591   0.652   2.382   3.718 -2.6271 -0.7411 -1.1783
   81SLPC   H7Y 7592   0.529   2.510   3.716  0.3010  1.7621 -1.5844
   81SLPC   C38 7593   0.694   2.551   3.854 -0.7100  0.5285 -0.5666
   81SLPC   H8X 7594   0.633   2.510   3.938 -1.1460 -0.0205 -1.1475
   81SLPC   H8Y 7595   0.683   2.662   3.855 -1.6458  0.4854  1.9808
   81SLPC   C39 7596   0.844   2.514   3.873  0.3045  0.6520  0.0006
   81SLPC   H9X 7597   0.895   2.564   3.787 -0.9669  1.6142 -0.2214
   81SLPC   H9Y 7598   0.854   2.404   3.870  1.0911  0.6372  2.0636
   81SLPC  C310 7599   0.905   2.549   4.010 -0.0268 -0.1986 -0.2724
   81SLPC  H10X 7600   0.846   2.507   4.095  0.6319  3.1308  2.0326
   81SLPC  H10Y 7601   0.890   2.658   4.026  0.4767 -0.4331  2.3341
   81SLPC  C311 7602   1.051   2.504   4.025 -0.0742 -0.0155  0.0566
   81SLPC  H11X 7603   1.111   2.517   3.932 -0.5185 -1.3548 -0.4475
   81SLPC  H11Y 7604   1.045   2.394   4.044 -0.2256  0.0102  0.1608
   81SLPC  C312 7605   1.106   2.586   4.147  0.4391  0.5648 -0.5461
   81SLPC  H12X 7606   1.054   2.563   4.242  2.4719 -1.6044  0.1284
   81SLPC  H12Y 7607   1.101   2.695   4.124 -0.9988  0.9114  1.1901
   81SLPC  C313 7608   1.256   2.543   4.169  1.0311 -0.5774  1.0913
   81SLPC  H13X 7609   1.319   2.567   4.081  0.7193  0.4862  1.1487
   81SLPC  H13Y 7610   1.258   2.433   4.184  0.9887 -0.6848  0.3493
   81SLPC  C314 7611   1.313   2.624   4.292  0.4394  0.1444 -0.1106
   81SLPC  H14X 7612   1.252   2.608   4.383 -0.7891 -2.7089 -1.3058
   81SLPC  H14Y 7613   1.304   2.727   4.251 -1.5071 -0.8356 -2.3687
   81SLPC  C315 7614   1.459   2.569   4.310 -0.4337  0.3148 -0.2516
   81SLPC  H15X 7615   1.515   2.586   4.216  0.2468  0.5656  0.1868
   81SLPC  H15Y 7616   1.465   2.462   4.339  1.8607  0.5141  0.2253
   81SLPC  C316 7617   1.528   2.650   4.413 -0.0639 -0.6280 -0.0175
   81SLPC  H16X 7618   1.475   2.651   4.510  1.0154  0.3965  0.5913
   81SLPC  H16Y 7619   1.521   2.758   4.388 -1.1027 -1.0386 -1.6844
   81SLPC  C317 7620   1.676   2.600   4.440  0.3139  0.2822  0.4086
   81SLPC  H17X 7621   1.730   2.609   4.343  0.6724  1.6825  0.7152
   81SLPC  H17Y 7622   1.673   2.492   4.468 -0.6471 -0.1049 -1.0704
   81SLPC  C318 7623   1.765   2.680   4.535 -0.5010  0.0174  0.2373
   81SLPC  H18X 7624   1.767   2.785   4.501  0.6329 -0.0039  0.1675
   81SLPC  H18Y 7625   1.871   2.647   4.523 -0.8982 -0.2754 -3.7198
   81SLPC  H18Z 7626   1.707   2.675   4.630  1.1188 -3.0149  1.2290
   82SLPC     N 7627   2.016   2.513   1.884 -0.7559  0.4504  0.3633
   82SLPC   C13 7628   2.093   2.380   1.920  0.3531 -0.6197  0.3291
   82SLPC  H13A 7629   2.199   2.397   1.924  0.1639  0.4653  1.5413
   82SLPC  H13B 7630   2.062   2.325   2.008  0.1545 -0.7407  0.1849
   82SLPC  H13C 7631   2.078   2.321   1.831 -1.9279 -0.1140  0.3064
   82SLPC   C14 7632   1.879   2.475   1.848 -0.3292  0.2751 -0.2542
   82SLPC  H14A 7633   1.809   2.557   1.851 -0.2809  0.2843  1.5922
   82SLPC  H14B 7634   1.882   2.440   1.746  5.0673 -0.2010 -0.1976
   82SLPC  H14C 7635   1.843   2.393   1.907 -0.2474  0.5210  0.1417
   82SLPC   C15 7636   2.080   2.578   1.764 -0.4896  0.8014 -0.6414
   82SLPC  H15A 7637   2.188   2.571   1.760 -0.5181 -1.2138  0.4678
   82SLPC  H15B 7638   2.045   2.534   1.672  0.3138  1.0064 -1.0564
   82SLPC  H15C 7639   2.052   2.682   1.772 -0.9833  0.6455 -0.3141
   82SLPC   C12 7640   2.020   2.602   2.008 -0.7268  0.4191 -0.2358
   82SLPC  H12A 7641   1.963   2.690   1.981 -1.5812 -0.6769 -2.2082
   82SLPC  H12B 7642   2.122   2.617   2.038 -0.8671 -2.0253  1.8140
   82SLPC   C11 7643   1.961   2.558   2.148  0.0027 -0.9069  0.0383
   82SLPC  H11A 7644   2.008   2.627   2.221  1.9593 -3.6883  1.5840
   82SLPC  H11B 7645   1.998   2.462   2.188 -0.5415 -1.1586 -0.0513
   82SLPC     P 7646   1.743   2.707   2.142 -0.1653  0.2246 -0.4170
   82SLPC   O13 7647   1.800   2.781   2.030  0.5429 -0.0766  0.0735
   82SLPC   O14 7648   1.595   2.688   2.155 -0.0793 -0.1541  0.0937
   82SLPC   O12 7649   1.816   2.566   2.144 -0.0555  0.0614 -0.0123
   82SLPC   O11 7650   1.804   2.766   2.279  0.2084  0.1052  0.6273
   82SLPC    C1 7651   1.805   2.693   2.399  0.4133  0.8973  0.1077
   82SLPC    HA 7652   1.743   2.601   2.395  0.0195  1.1490  0.3566
   82SLPC    HB 7653   1.911   2.665   2.419  0.0550 -0.7667 -0.1776
   82SLPC    C2 7654   1.760   2.788   2.521 -0.7065  0.2932  0.2565
   82SLPC    HS 7655   1.668   2.836   2.484 -1.3987 -0.1218  1.3790
   82SLPC   O21 7656   1.869   2.884   2.539  0.0624  0.9311 -0.3458
   82SLPC   C21 7657   1.836   2.992   2.607  0.3717 -0.2700  0.4945
   82SLPC   O22 7658   1.723   3.023   2.640  0.6318  0.2965 -0.1462
   82SLPC   C22 7659   1.961   3.081   2.621  0.2029  0.2122  1.0707
   82SLPC   H2R 7660   1.992   3.102   2.516 -0.4643 -0.3924  0.7436
   82SLPC   H2S 7661   1.931   3.178   2.665 -1.4723  1.1946 -1.9862
   82SLPC    C3 7662   1.725   2.691   2.640 -0.0039 -0.5648  0.6444
   82SLPC    HX 7663   1.811   2.624   2.660  0.3327 -0.4437 -0.3414
   82SLPC    HY 7664   1.642   2.625   2.607 -1.2690 -0.1977  2.8973
   82SLPC   O31 7665   1.704   2.755   2.766 -0.2392  0.3656 -0.2582
   82SLPC   C31 7666   1.575   2.769   2.803 -0.1765 -0.1078  0.3008
   82SLPC   O32 7667   1.477   2.760   2.733 -0.2857  0.2509  0.2434
   82SLPC   C32 7668   1.580   2.835   2.943  0.3660  0.5885  0.2758
   82SLPC   H2X 7669   1.485   2.829   3.001  0.6732  0.6127  0.7899
   82SLPC   H2Y 7670   1.596   2.941   2.913 -1.1007  0.4152 -1.2830
   82SLPC   C23 7671   2.069   3.012   2.706  0.1248 -0.2838 -0.0167
   82SLPC   H3R 7672   2.107   2.932   2.639 -0.1228 -0.8159  0.4680
   82SLPC   H3S 7673   2.035   2.969   2.803  1.6852  2.2540  1.8115
   82SLPC   C24 7674   2.188   3.103   2.747  0.3384 -0.0779 -0.3417
   82SLPC   H4R 7675   2.160   3.193   2.805 -0.5727 -0.1144 -0.7132
   82SLPC   H4S 7676   2.246   3.136   2.658  0.3158  1.3345  0.1357
   82SLPC   C25 7677   2.278   3.031   2.845 -0.0336  0.5523 -1.1082
   82SLPC   H5R 7678   2.353   3.107   2.876 -1.7211  1.3403  1.3334
   82SLPC   H5S 7679   2.337   2.955   2.790  1.3632  1.2279 -0.6004
   82SLPC   C26 7680   2.209   2.962   2.972  0.4610 -0.7561  0.5878
   82SLPC   H6R 7681   2.169   2.867   2.929 -0.5157 -0.8238  1.5903
   82SLPC   H6S 7682   2.118   3.021   2.996  0.6803  1.4049 -3.1605
   82SLPC   C27 7683   2.305   2.937   3.088 -0.4842 -0.0871 -0.2981
   82SLPC   H7R 7684   2.407   2.921   3.046 -0.3238 -0.0088  0.0562
   82SLPC   H7S 7685   2.265   2.846   3.137  1.4219 -1.1945 -0.6749
   82SLPC   C28 7686   2.296   3.065   3.181  0.3781  0.3538 -0.0239
   82SLPC   H8R 7687   2.191   3.086   3.212  0.8688  2.0262  0.6300
   82SLPC   H8S 7688   2.334   3.140   3.108  1.0574 -2.1632 -2.4055
   82SLPC   C29 7689   2.390   3.055   3.300  0.2876 -0.0582 -0.4190
   82SLPC   H9R 7690   2.496   3.062   3.274  0.6155 -0.1027  0.8649
   82SLPC  C210 7691   2.356   3.009   3.422 -0.0653 -0.3611 -0.1991
   82SLPC  H10R 7692   2.425   3.007   3.508 -0.1629  1.0003 -0.0743
   82SLPC  C211 7693   2.224   2.980   3.475  0.1821  0.3925 -0.8921
   82SLPC  H11R 7694   2.211   2.894   3.544  0.7720  2.5773  2.1637
   82SLPC  H11S 7695   2.160   2.953   3.388 -0.0185 -3.6233  0.2968
   82SLPC  C212 7696   2.167   3.104   3.537 -0.0403  0.4664  0.8902
   82SLPC  H12R 7697   2.138   3.180   3.462 -0.7552  0.1778  0.8654
   82SLPC  C213 7698   2.132   3.141   3.660 -0.1665  0.7582 -1.1534
   82SLPC  H13R 7699   2.114   3.248   3.680  0.2399  1.0281 -2.1334
   82SLPC  C214 7700   2.151   3.052   3.783  0.2475 -0.6406  0.1870
   82SLPC  H14R 7701   2.165   2.943   3.767 -0.3809 -0.8351  0.8807
   82SLPC  H14S 7702   2.054   3.050   3.838  0.1699  1.5749  0.2007
   82SLPC  C215 7703   2.264   3.098   3.882  0.2403  0.1244 -0.2753
   82SLPC  H15R 7704   2.359   3.076   3.830  1.1536  1.8661  0.5609
   82SLPC  H15S 7705   2.256   3.035   3.974  0.2633  0.5807  0.0460
   82SLPC  C216 7706   2.255   3.240   3.938  0.2271  1.0304  0.0146
   82SLPC  H16R 7707   2.272   3.324   3.867  0.0732  1.8583  0.9450
   82SLPC  H16S 7708   2.343   3.247   4.006  0.1664 -0.9784  0.3910
   82SLPC  C217 7709   2.124   3.259   4.012  0.0476  1.4337  0.2671
   82SLPC  H17R 7710   2.085   3.167   4.060  0.4563 -0.4663 -2.7421
   82SLPC  H17S 7711   2.043   3.279   3.938  0.6836 -1.4263 -1.3643
   82SLPC  C218 7712   2.129   3.382   4.099 -0.1577 -0.8345 -0.3399
   82SLPC  H18R 7713   2.043   3.386   4.169  0.0171 -0.0587 -0.1527
   82SLPC  H18S 7714   2.125   3.471   4.032 -0.3454 -0.5704  0.0184
   82SLPC  H18T 7715   2.222   3.386   4.160 -1.2047  0.4117  1.2866
   82SLPC   C33 7716   1.697   2.805   3.029 -0.1416  0.7432  0.2530
   82SLPC   H3X 7717   1.792   2.832   2.977 -0.4771  0.2409 -0.6327
   82SLPC   H3Y 7718   1.694   2.697   3.056 -5.0371  0.2230 -1.3574
   82SLPC   C34 7719   1.697   2.886   3.163  0.4533 -0.7205 -0.4028
   82SLPC   H4X 7720   1.678   2.993   3.142 -2.5577 -0.9919  0.4656
   82SLPC   H4Y 7721   1.799   2.882   3.208  0.2539  1.3064  0.3425
   82SLPC   C35 7722   1.597   2.842   3.274  0.2531  0.8882 -0.0159
   82SLPC   H5X 7723   1.622   2.734   3.280  1.0012  1.0882  0.5568
   82SLPC   H5Y 7724   1.492   2.851   3.237 -0.6178  3.0903  2.6022
   82SLPC   C36 7725   1.599   2.905   3.414 -0.6198 -0.3067  0.7689
   82SLPC   H6X 7726   1.529   2.853   3.483 -1.6023  1.7207  1.3871
   82SLPC   H6Y 7727   1.584   3.015   3.419  1.0437 -0.0842  1.7864
   82SLPC   C37 7728   1.741   2.891   3.478  0.3525 -0.3729  1.1110
   82SLPC   H7X 7729   1.822   2.964   3.454  0.1692  0.3379  2.5184
   82SLPC   H7Y 7730   1.777   2.789   3.452 -2.2479 -1.5078  1.6867
   82SLPC   C38 7731   1.742   2.888   3.632  0.6165  0.1232 -0.0377
   82SLPC   H8X 7732   1.849   2.882   3.663  0.8280 -1.0189 -0.9242
   82SLPC   H8Y 7733   1.691   2.797   3.670  0.3851  0.1557 -0.2656
   82SLPC   C39 7734   1.683   3.018   3.702  0.0234 -0.2723 -0.2124
   82SLPC   H9X 7735   1.665   2.979   3.805  1.5917 -1.4129 -0.3403
   82SLPC   H9Y 7736   1.579   3.030   3.664 -1.2189  1.6433  3.2582
   82SLPC  C310 7737   1.764   3.144   3.688  0.1712  0.0782  0.2674
   82SLPC  H10X 7738   1.823   3.153   3.594 -0.7515 -1.4735 -0.5073
   82SLPC  H10Y 7739   1.836   3.142   3.772  1.1373  0.1286 -0.5488
   82SLPC  C311 7740   1.671   3.260   3.701  0.1174  0.1292  0.2651
   82SLPC  H11X 7741   1.621   3.248   3.800 -0.4404 -0.7456 -0.1031
   82SLPC  H11Y 7742   1.603   3.247   3.614  0.1312  3.0127 -0.2657
   82SLPC  C312 7743   1.739   3.403   3.693 -0.2783  0.0820  0.2123
   82SLPC  H12X 7744   1.785   3.432   3.789  0.0122  1.2643 -0.2705
   82SLPC  H12Y 7745   1.656   3.475   3.676 -1.4255 -1.0139  0.9244
   82SLPC  C313 7746   1.845   3.420   3.576  0.0301  0.5831  0.0697
   82SLPC  H13X 7747   1.935   3.359   3.600 -0.7864 -0.1549  1.4055
   82SLPC  H13Y 7748   1.888   3.522   3.584  0.8720  0.2841 -0.5055
   82SLPC  C314 7749   1.803   3.396   3.431  0.4455  1.0396 -0.3216
   82SLPC  H14X 7750   1.709   3.450   3.411  0.0291 -0.0402 -1.3607
   82SLPC  H14Y 7751   1.773   3.290   3.419 -0.4735  1.3219 -0.5723
   82SLPC  C315 7752   1.911   3.431   3.325 -0.6135  0.6424  0.0704
   82SLPC  H15X 7753   1.998   3.370   3.357  0.2147  1.3083 -0.8912
   82SLPC  H15Y 7754   1.931   3.540   3.326  3.4456  0.0343 -0.6143
   82SLPC  C316 7755   1.869   3.383   3.189  0.4938  0.1340  0.0188
   82SLPC  H16X 7756   1.760   3.365   3.180  0.7940 -2.8634  1.3981
   82SLPC  H16Y 7757   1.907   3.282   3.165  0.4113 -0.5656  2.5665
   82SLPC  C317 7758   1.919   3.477   3.076  0.9252  0.0375 -0.4562
   82SLPC  H17X 7759   2.021   3.517   3.091  0.0387  2.8140 -1.3015
   82SLPC  H17Y 7760   1.870   3.576   3.068  0.6544 -0.0346  0.2626
   82SLPC  C318 7761   1.900   3.404   2.937 -0.5966 -0.7026 -0.5067
   82SLPC  H18X 7762   1.931   3.298   2.944  0.5437 -0.2896  3.5577
   82SLPC  H18Y 7763   1.943   3.467   2.856  2.6575 -1.3508  0.5934
   82SLPC  H18Z 7764   1.792   3.395   2.912 -1.0388 -1.3625  1.4739
   83SLPC     N 7765   3.887   2.555   2.143  0.0706  0.5191 -0.1053
   83SLPC   C13 7766   3.968   2.479   2.042 -0.2617 -0.9212 -0.2206
   83SLPC  H13A 7767   3.913   2.493   1.950 -2.8249  2.3157  1.5710
   83SLPC  H13B 7768   4.066   2.523   2.029  0.4858 -2.1969  0.8259
   83SLPC  H13C 7769   3.968   2.378   2.079 -1.4297 -0.5889  0.7581
   83SLPC   C14 7770   3.889   2.703   2.107  0.0603  0.0603  0.4097
   83SLPC  H14A 7771   3.853   2.715   2.006 -0.4131 -1.9782  0.2843
   83SLPC  H14B 7772   3.821   2.755   2.173 -1.0307 -1.0451  0.1868
   83SLPC  H14C 7773   3.992   2.735   2.116  0.2762 -0.1343 -1.1310
   83SLPC   C15 7774   3.971   2.543   2.268  0.3871 -0.2374  0.3928
   83SLPC  H15A 7775   3.967   2.444   2.309 -0.3601  0.5027  2.2312
   83SLPC  H15B 7776   4.076   2.571   2.267 -0.3262  3.1631  2.4282
   83SLPC  H15C 7777   3.916   2.594   2.346  0.1195  0.2790 -0.1294
   83SLPC   C12 7778   3.744   2.497   2.157 -0.2328 -0.0844  0.2246
   83SLPC  H12A 7779   3.698   2.513   2.061 -0.1787 -0.2016  0.1781
   83SLPC  H12B 7780   3.679   2.538   2.233  0.0774  1.3908 -0.2729
   83SLPC   C11 7781   3.735   2.341   2.184 -0.6549  0.3506 -0.2849
   83SLPC  H11A 7782   3.801   2.290   2.111 -0.0229 -1.9329  1.7361
   83SLPC  H11B 7783   3.631   2.304   2.173 -1.2897  1.7939  0.5632
   83SLPC     P 7784   3.688   2.334   2.441  0.0946 -0.0523  0.3162
   83SLPC   O13 7785   3.571   2.424   2.410 -0.3758 -0.5604 -0.2345
   83SLPC   O14 7786   3.664   2.211   2.525 -0.2952  0.2389  0.1425
   83SLPC   O12 7787   3.776   2.300   2.309  0.4145 -0.2708 -0.6678
   83SLPC   O11 7788   3.793   2.422   2.515 -0.2274  0.3065  0.5506
   83SLPC    C1 7789   3.905   2.371   2.582 -0.1113  0.0852 -0.4198
   83SLPC    HA 7790   3.888   2.263   2.603 -0.3343  0.2892  0.5206
   83SLPC    HB 7791   3.994   2.402   2.524  1.1102 -0.5257  1.0395
   83SLPC    C2 7792   3.925   2.442   2.724 -0.8211 -0.0793 -0.3426
   83SLPC    HS 7793   3.903   2.366   2.803  0.1159  1.5008  1.5343
   83SLPC   O21 7794   3.842   2.560   2.753  0.3487  0.2887  0.5667
   83SLPC   C21 7795   3.713   2.527   2.769  0.1327  0.5642 -0.5600
   83SLPC   O22 7796   3.665   2.417   2.781  0.2374 -0.1969 -0.2898
   83SLPC   C22 7797   3.638   2.653   2.795 -0.1027 -0.2132 -0.0672
   83SLPC   H2R 7798   3.687   2.725   2.725  2.1598 -0.7430  0.8598
   83SLPC   H2S 7799   3.532   2.641   2.766  0.2591 -0.2984 -1.4487
   83SLPC    C3 7800   4.076   2.480   2.742 -0.2402 -0.1697  0.0247
   83SLPC    HX 7801   4.101   2.559   2.667 -1.7571  0.1028 -0.2326
   83SLPC    HY 7802   4.139   2.392   2.719 -0.0252  0.4235 -1.8789
   83SLPC   O31 7803   4.107   2.520   2.874  0.4786 -0.2260  0.0294
   83SLPC   C31 7804   4.085   2.650   2.892  0.1915  0.0296  0.3040
   83SLPC   O32 7805   4.065   2.730   2.801 -0.4543  0.5406 -0.1702
   83SLPC   C32 7806   4.098   2.682   3.041  0.0029 -0.4962  0.3414
   83SLPC   H2X 7807   4.047   2.780   3.054 -0.7916 -0.4071 -2.7219
   83SLPC   H2Y 7808   4.205   2.693   3.067 -0.0999 -1.1716  1.0834
   83SLPC   C23 7809   3.662   2.700   2.941 -0.0468  0.2440  0.2225
   83SLPC   H3R 7810   3.609   2.797   2.950  1.0430  0.8295  0.4573
   83SLPC   H3S 7811   3.768   2.723   2.963 -0.0103 -0.3265  0.6611
   83SLPC   C24 7812   3.612   2.618   3.061 -0.1213 -0.6962  0.9496
   83SLPC   H4R 7813   3.644   2.512   3.059 -3.7834 -1.9540  1.5734
   83SLPC   H4S 7814   3.504   2.599   3.041 -0.3661  0.9782  0.4867
   83SLPC   C25 7815   3.640   2.689   3.194 -0.3495 -0.2939  0.1439
   83SLPC   H5R 7816   3.592   2.789   3.188 -1.7028 -0.9812 -1.1672
   83SLPC   H5S 7817   3.746   2.720   3.203 -0.5632  0.5861 -0.2168
   83SLPC   C26 7818   3.597   2.604   3.311  0.5847 -0.2458 -0.1518
   83SLPC   H6R 7819   3.643   2.503   3.302 -0.4543 -0.8531  1.0877
   83SLPC   H6S 7820   3.486   2.600   3.311  0.4648  1.7507  1.6045
   83SLPC   C27 7821   3.628   2.668   3.446  0.9964 -0.2011  0.7064
   83SLPC   H7R 7822   3.567   2.759   3.463  1.4685  0.3789 -0.5896
   83SLPC   H7S 7823   3.738   2.686   3.441  1.0238 -0.3989  0.5479
   83SLPC   C28 7824   3.610   2.570   3.561  0.7573  0.2396 -0.3200
   83SLPC   H8R 7825   3.678   2.609   3.640  1.8949 -0.3561 -0.9840
   83SLPC   H8S 7826   3.654   2.472   3.532 -0.6848 -0.2614 -0.9141
   83SLPC   C29 7827   3.472   2.536   3.600 -0.8433 -0.4063  1.0055
   83SLPC   H9R 7828   3.396   2.526   3.521 -1.0834  1.3671  0.9660
   83SLPC  C210 7829   3.427   2.534   3.729 -0.1977 -0.8774  1.1384
   83SLPC  H10R 7830   3.319   2.530   3.749 -0.6761 -1.2988 -1.2899
   83SLPC  C211 7831   3.513   2.557   3.850  0.0926 -0.1588  0.3126
   83SLPC  H11R 7832   3.601   2.491   3.836 -0.8789 -1.8961  1.9874
   83SLPC  H11S 7833   3.455   2.506   3.930 -0.7749  1.1267  0.5345
   83SLPC  C212 7834   3.557   2.693   3.894  0.4983  0.1853  0.1667
   83SLPC  H12R 7835   3.503   2.775   3.846 -1.1027 -1.7677 -1.5671
   83SLPC  C213 7836   3.651   2.717   3.985 -0.0453  0.4030 -0.3915
   83SLPC  H13R 7837   3.680   2.821   4.006  0.2581 -0.0439  1.6060
   83SLPC  C214 7838   3.735   2.616   4.058  0.0597  0.8900  0.1468
   83SLPC  H14R 7839   3.835   2.614   4.012  1.2595  3.4847  2.3738
   83SLPC  H14S 7840   3.695   2.512   4.052 -0.0315  0.7407  2.4124
   83SLPC  C215 7841   3.761   2.638   4.214 -0.3125 -0.0894 -0.0232
   83SLPC  H15R 7842   3.662   2.646   4.264 -0.5493 -3.3528  0.1972
   83SLPC  H15S 7843   3.821   2.732   4.217  0.9380 -0.8509 -0.3995
   83SLPC  C216 7844   3.829   2.517   4.281  0.0070  0.3750  0.0790
   83SLPC  H16R 7845   3.892   2.462   4.208 -0.9052 -2.1661  1.0880
   83SLPC  H16S 7846   3.746   2.449   4.310 -0.4441  0.1423 -1.6914
   83SLPC  C217 7847   3.929   2.551   4.387 -0.0417 -0.5339 -0.3896
   83SLPC  H17R 7848   3.874   2.608   4.466  0.5062 -0.8576  0.2282
   83SLPC  H17S 7849   4.008   2.622   4.354  0.0023  0.0494  0.8884
   83SLPC  C218 7850   3.998   2.423   4.440  0.5959  0.5612 -0.3299
   83SLPC  H18R 7851   4.026   2.444   4.546  2.9533 -0.9608 -0.5740
   83SLPC  H18S 7852   4.097   2.399   4.395  1.2152  3.7076 -0.8842
   83SLPC  H18T 7853   3.930   2.335   4.450 -3.6037  3.5245 -0.4397
   83SLPC   C33 7854   4.031   2.566   3.130  0.1878  0.2149 -0.1047
   83SLPC   H3X 7855   4.085   2.471   3.110 -1.7941 -0.9812 -0.0313
   83SLPC   H3Y 7856   3.924   2.542   3.113  0.4698 -1.2666  0.0743
   83SLPC   C34 7857   4.050   2.599   3.281 -0.1268  0.0371 -0.4551
   83SLPC   H4X 7858   3.986   2.682   3.319  2.5677  1.3733  1.4359
   83SLPC   H4Y 7859   4.156   2.632   3.286 -0.1577 -0.0433  0.9429
   83SLPC   C35 7860   4.026   2.479   3.374  0.1292 -0.1219  0.3417
   83SLPC   H5X 7861   4.099   2.396   3.362  2.3445  1.6967  0.5353
   83SLPC   H5Y 7862   3.926   2.433   3.359 -0.3942  0.5141  1.7138
   83SLPC   C36 7863   4.045   2.518   3.524  0.7670  0.4929  0.7642
   83SLPC   H6X 7864   3.971   2.600   3.541 -1.5529 -1.1457 -0.7336
   83SLPC   H6Y 7865   4.148   2.557   3.531  1.1382  0.0868 -1.5056
   83SLPC   C37 7866   3.993   2.405   3.617 -1.0579 -0.7051 -0.0349
   83SLPC   H7X 7867   4.050   2.314   3.589  0.7479  0.2662  0.3429
   83SLPC   H7Y 7868   3.883   2.391   3.609 -1.4815  2.3720 -0.9669
   83SLPC   C38 7869   3.996   2.445   3.764 -0.4163 -0.6258  0.3727
   83SLPC   H8X 7870   3.955   2.361   3.824  2.3708 -1.9265  0.6011
   83SLPC   H8Y 7871   3.933   2.530   3.800  0.9087  0.4441  0.2606
   83SLPC   C39 7872   4.134   2.477   3.819 -0.9453 -0.3640 -0.1929
   83SLPC   H9X 7873   4.150   2.580   3.778  1.8049  0.0047  1.5812
   83SLPC   H9Y 7874   4.214   2.410   3.781  0.3628  0.4339  1.0831
   83SLPC  C310 7875   4.142   2.481   3.973  0.1617  0.1762  0.3447
   83SLPC  H10X 7876   4.116   2.380   4.010  1.1027 -0.3445 -0.3836
   83SLPC  H10Y 7877   4.064   2.555   4.002 -0.5553 -1.3847  2.6538
   83SLPC  C311 7878   4.278   2.512   4.027  0.6387 -0.3370  0.0448
   83SLPC  H11X 7879   4.311   2.606   3.980 -0.7826 -1.0592 -2.5958
   83SLPC  H11Y 7880   4.337   2.431   3.979 -1.1900 -1.3154 -0.6650
   83SLPC  C312 7881   4.309   2.495   4.176 -0.6157  0.4634 -0.0316
   83SLPC  H12X 7882   4.414   2.461   4.183 -0.4347  1.0300  0.0098
   83SLPC  H12Y 7883   4.245   2.414   4.217  0.9445  0.3090  2.2977
   83SLPC  C313 7884   4.302   2.628   4.251 -0.2322 -0.6011 -0.1342
   83SLPC  H13X 7885   4.266   2.612   4.355 -2.1633  2.5841 -0.1412
   83SLPC  H13Y 7886   4.214   2.690   4.221 -0.4296 -0.4948  0.6571
   83SLPC  C314 7887   4.422   2.716   4.233 -0.3398  0.0982  0.3693
   83SLPC  H14X 7888   4.392   2.822   4.248 -1.6112 -0.3210  0.9257
   83SLPC  H14Y 7889   4.456   2.709   4.127 -2.6314 -0.4267 -0.3869
   83SLPC  C315 7890   4.530   2.687   4.341 -0.7941  0.1759  0.4532
   83SLPC  H15X 7891   4.627   2.733   4.312 -1.4609  0.6584 -1.1553
   83SLPC  H15Y 7892   4.555   2.579   4.345  0.1950  0.4264  2.1104
   83SLPC  C316 7893   4.493   2.748   4.472 -0.0143 -0.3256 -0.6726
   83SLPC  H16X 7894   4.397   2.706   4.508  0.6465 -2.1086 -0.9057
   83SLPC  H16Y 7895   4.477   2.857   4.454 -0.4436 -0.5336 -1.5589
   83SLPC  C317 7896   4.599   2.723   4.585 -0.0108 -1.0097  0.3892
   83SLPC  H17X 7897   4.698   2.753   4.544 -0.7292  1.0429  0.0368
   83SLPC  H17Y 7898   4.593   2.613   4.602 -4.5748 -1.1197 -0.5964
   83SLPC  C318 7899   4.562   2.794   4.716  0.1976 -0.3304 -0.3431
   83SLPC  H18X 7900   4.465   2.761   4.757  1.2096 -2.3590  0.5319
   83SLPC  H18Y 7901   4.559   2.902   4.689  0.3292 -1.0268 -3.5408
   83SLPC  H18Z 7902   4.631   2.779   4.802 -0.6524 -1.4592  0.1702
   84SLPC     N 7903   3.786   6.223   2.112  0.1197  0.6314 -0.2434
   84SLPC   C13 7904   3.730   6.202   1.976  0.7823  0.6660  0.3382
   84SLPC  H13A 7905   3.630   6.161   1.971  1.3088 -1.0270  2.1008
   84SLPC  H13B 7906   3.743   6.289   1.913  2.2585 -0.5211 -1.1050
   84SLPC  H13C 7907   3.785   6.128   1.919 -1.0950  0.6480 -1.5846
   84SLPC   C14 7908   3.701   6.323   2.184  0.3812  0.4585 -0.2132
   84SLPC  H14A 7909   3.713   6.338   2.290 -4.3196  0.3291  0.5644
   84SLPC  H14B 7910   3.719   6.420   2.141 -2.1017  1.5430  1.0031
   84SLPC  H14C 7911   3.597   6.297   2.166  1.0177 -2.1569 -0.5695
   84SLPC   C15 7912   3.927   6.281   2.090  0.6310  0.6620 -0.7673
   84SLPC  H15A 7913   3.990   6.213   2.035  1.3869  1.5538 -1.0241
   84SLPC  H15B 7914   3.916   6.367   2.025  1.0474  0.5445 -0.9963
   84SLPC  H15C 7915   3.980   6.314   2.177  3.1756 -2.2360 -1.0563
   84SLPC   C12 7916   3.785   6.093   2.192 -0.0363  0.2854  0.6963
   84SLPC  H12A 7917   3.683   6.063   2.209 -0.2243  1.9210  2.9096
   84SLPC  H12B 7918   3.832   6.108   2.289 -1.2732 -2.0843  1.7439
   84SLPC   C11 7919   3.874   5.973   2.138 -0.3049  0.3547 -0.3074
   84SLPC  H11A 7920   3.845   5.943   2.035  0.4502 -0.0070 -0.4204
   84SLPC  H11B 7921   3.852   5.886   2.204  1.3672  0.4213  0.3803
   84SLPC     P 7922   4.104   5.970   2.252 -0.4950  0.2133 -0.1770
   84SLPC   O13 7923   4.121   5.825   2.262  0.7153  0.1874  0.1168
   84SLPC   O14 7924   4.227   6.050   2.233 -0.3223  0.1788  0.5002
   84SLPC   O12 7925   4.012   6.007   2.133  0.1788  0.0158 -0.3719
   84SLPC   O11 7926   4.023   6.023   2.377  0.1983  0.3454 -0.0262
   84SLPC    C1 7927   4.047   6.149   2.427  0.4789  0.0171 -0.3607
   84SLPC    HA 7928   4.088   6.220   2.352 -0.8489  0.0272 -1.1092
   84SLPC    HB 7929   3.949   6.195   2.452 -0.5424 -1.9070 -0.6564
   84SLPC    C2 7930   4.138   6.154   2.554 -0.5793 -0.3124  0.0959
   84SLPC    HS 7931   4.243   6.134   2.523  0.1672  1.0472  1.6123
   84SLPC   O21 7932   4.086   6.060   2.646 -0.2461  0.2871  0.1982
   84SLPC   C21 7933   4.163   5.993   2.716 -0.5464  0.4802  0.6880
   84SLPC   O22 7934   4.289   5.997   2.705  0.4295 -0.0369 -0.1449
   84SLPC   C22 7935   4.074   5.936   2.830 -1.1453  0.2933 -0.2752
   84SLPC   H2R 7936   4.022   6.023   2.875 -0.3792  0.7750 -0.3113
   84SLPC   H2S 7937   3.993   5.883   2.775 -0.5946 -2.3762  1.3013
   84SLPC    C3 7938   4.125   6.286   2.629  0.3983  0.2484 -0.1225
   84SLPC    HX 7939   4.016   6.281   2.650  0.6795 -0.0187  1.3976
   84SLPC    HY 7940   4.138   6.373   2.561  1.1347  0.0266 -0.2665
   84SLPC   O31 7941   4.197   6.299   2.752  0.0705 -0.6526 -0.1129
   84SLPC   C31 7942   4.331   6.309   2.737 -0.1601  0.1282 -0.3556
   84SLPC   O32 7943   4.385   6.340   2.632  0.3944 -0.2867 -0.6123
   84SLPC   C32 7944   4.396   6.269   2.872  0.4061  0.7343  0.1439
   84SLPC   H2X 7945   4.502   6.291   2.849  0.5629  1.3056  1.3535
   84SLPC   H2Y 7946   4.365   6.163   2.883  1.9913  0.3651  1.4576
   84SLPC   C23 7947   4.142   5.834   2.924 -0.2395 -0.1928 -0.5723
   84SLPC   H3R 7948   4.195   5.753   2.870  2.2496  0.8702  0.1609
   84SLPC   H3S 7949   4.069   5.790   2.995  0.4100 -1.2606 -0.5596
   84SLPC   C24 7950   4.241   5.906   3.017  0.0259 -0.5761  0.2973
   84SLPC   H4R 7951   4.204   6.002   3.059  3.6956  0.6846  1.1116
   84SLPC   H4S 7952   4.334   5.923   2.958 -0.2267 -0.9590 -0.2141
   84SLPC   C25 7953   4.264   5.827   3.142  0.1305 -0.2795 -0.3608
   84SLPC   H5R 7954   4.324   5.739   3.111  1.0953 -0.9318  2.9920
   84SLPC   H5S 7955   4.174   5.790   3.195  1.1500 -1.2794  0.7377
   84SLPC   C26 7956   4.349   5.897   3.254 -0.4700  1.1438  0.4016
   84SLPC   H6R 7957   4.294   5.981   3.302 -0.2490  1.0152  0.8856
   84SLPC   H6S 7958   4.434   5.939   3.195 -0.4739  0.3286 -0.1913
   84SLPC   C27 7959   4.396   5.799   3.365 -0.4686 -0.6321  0.7288
   84SLPC   H7R 7960   4.484   5.834   3.423 -1.2072 -0.8277  2.0149
   84SLPC   H7S 7961   4.421   5.700   3.321  0.6947 -1.1053  2.3667
   84SLPC   C28 7962   4.281   5.774   3.466  0.2204  0.4134  0.3866
   84SLPC   H8R 7963   4.197   5.742   3.401 -2.2221  3.3622  1.8772
   84SLPC   H8S 7964   4.245   5.871   3.505 -1.3666 -1.1228  3.1057
   84SLPC   C29 7965   4.307   5.666   3.569  0.4891  0.2248 -0.6178
   84SLPC   H9R 7966   4.266   5.565   3.553  1.0726 -0.0932 -0.1297
   84SLPC  C210 7967   4.360   5.683   3.686  1.6090 -0.1382 -0.4862
   84SLPC  H10R 7968   4.369   5.591   3.746  0.5410  1.7465  2.7817
   84SLPC  C211 7969   4.402   5.805   3.752 -0.3998  0.3547  0.1292
   84SLPC  H11R 7970   4.403   5.882   3.672 -2.1080 -1.4696 -1.7727
   84SLPC  H11S 7971   4.503   5.772   3.784 -2.3182 -5.5984  1.1912
   84SLPC  C212 7972   4.319   5.827   3.875 -0.0654 -0.2123  0.1178
   84SLPC  H12R 7973   4.232   5.889   3.848  1.2541  0.8920 -1.8739
   84SLPC  C213 7974   4.337   5.779   4.003 -0.4340  0.3872  0.1034
   84SLPC  H13R 7975   4.272   5.813   4.084  1.7503  0.7308  1.8068
   84SLPC  C214 7976   4.453   5.687   4.051 -0.7564  0.0995  0.7213
   84SLPC  H14R 7977   4.543   5.705   3.988 -1.5009  0.2777 -0.3097
   84SLPC  H14S 7978   4.415   5.583   4.053  0.0991 -0.2369  0.1904
   84SLPC  C215 7979   4.487   5.732   4.200  0.6071 -0.0607  0.4806
   84SLPC  H15R 7980   4.391   5.708   4.251  0.7497 -1.1375  0.2767
   84SLPC  H15S 7981   4.507   5.841   4.196 -0.2701  0.1403  1.3793
   84SLPC  C216 7982   4.614   5.667   4.265  0.0524  0.2518 -0.4948
   84SLPC  H16R 7983   4.703   5.709   4.214  0.7994  2.3421  2.2828
   84SLPC  H16S 7984   4.604   5.556   4.260  0.9510  0.1426 -0.1034
   84SLPC  C217 7985   4.624   5.696   4.421 -0.2158  0.1189  1.2782
   84SLPC  H17R 7986   4.720   5.654   4.458  0.1501  1.8690  2.4829
   84SLPC  H17S 7987   4.540   5.643   4.471 -0.1620 -0.2459  0.9838
   84SLPC  C218 7988   4.614   5.843   4.461  0.4259 -0.4862  0.6566
   84SLPC  H18R 7989   4.535   5.899   4.405  0.4834 -0.0753  0.9795
   84SLPC  H18S 7990   4.709   5.897   4.441 -1.9143  3.0104 -2.3887
   84SLPC  H18T 7991   4.580   5.861   4.566 -0.8956  0.3779  0.1099
   84SLPC   C33 7992   4.347   6.364   2.980  0.0317  0.1549  0.0228
   84SLPC   H3X 7993   4.236   6.372   2.982  0.0962  1.3035  1.7673
   84SLPC   H3Y 7994   4.382   6.469   2.970 -0.7135  0.5273  1.0921
   84SLPC   C34 7995   4.383   6.296   3.112 -0.3823 -0.2741 -0.0931
   84SLPC   H4X 7996   4.489   6.311   3.144 -0.6375 -1.2862  1.3055
   84SLPC   H4Y 7997   4.358   6.188   3.111 -0.0625 -0.3672 -2.1942
   84SLPC   C35 7998   4.314   6.354   3.235 -0.1628 -0.1091  0.4304
   84SLPC   H5X 7999   4.205   6.341   3.218  0.4441 -2.6616 -2.3951
   84SLPC   H5Y 8000   4.331   6.463   3.224 -0.5996 -0.0633  0.1640
   84SLPC   C36 8001   4.366   6.301   3.360  0.2267  0.1876 -0.2173
   84SLPC   H6X 8002   4.476   6.322   3.357  0.2248  0.2417  0.1059
   84SLPC   H6Y 8003   4.333   6.195   3.352 -2.3850  0.9052  0.2832
   84SLPC   C37 8004   4.325   6.363   3.489  0.5343  0.1218  0.0541
   84SLPC   H7X 8005   4.214   6.362   3.486  0.5165  0.2582  0.5532
   84SLPC   H7Y 8006   4.357   6.470   3.496  1.8963 -0.3832  3.0961
   84SLPC   C38 8007   4.376   6.281   3.611  0.1007  0.0657 -0.7769
   84SLPC   H8X 8008   4.487   6.278   3.605  0.0973 -3.1174 -0.7840
   84SLPC   H8Y 8009   4.342   6.177   3.597  0.5905 -0.4067  1.2735
   84SLPC   C39 8010   4.317   6.319   3.746 -0.3155 -0.1276  0.7384
   84SLPC   H9X 8011   4.206   6.323   3.742 -0.2640  1.2962  0.2116
   84SLPC   H9Y 8012   4.371   6.413   3.770  0.2258 -0.0012 -0.8781
   84SLPC  C310 8013   4.341   6.212   3.855 -0.0470  0.4139 -0.4547
   84SLPC  H10X 8014   4.449   6.184   3.858 -0.4873 -1.6178 -1.4221
   84SLPC  H10Y 8015   4.289   6.114   3.844  0.4507  0.2964 -1.9487
   84SLPC  C311 8016   4.296   6.267   3.995 -0.3370 -0.1942 -0.3052
   84SLPC  H11X 8017   4.194   6.308   3.985 -1.1954 -2.4859 -1.6471
   84SLPC  H11Y 8018   4.370   6.347   4.020 -0.7311 -0.2667  1.2124
   84SLPC  C312 8019   4.296   6.148   4.102  0.0799  0.1204  0.1075
   84SLPC  H12X 8020   4.389   6.088   4.088 -0.4916 -0.7781  0.1016
   84SLPC  H12Y 8021   4.203   6.092   4.078 -0.9892  2.5252 -1.8729
   84SLPC  C313 8022   4.295   6.209   4.234 -0.1587  0.1447 -0.9927
   84SLPC  H13X 8023   4.210   6.281   4.243 -1.1967 -1.2633  1.6686
   84SLPC  H13Y 8024   4.387   6.264   4.263 -1.1132  1.7611 -0.9000
   84SLPC  C314 8025   4.255   6.106   4.338  0.0954 -0.0385  1.0292
   84SLPC  H14X 8026   4.317   6.015   4.326 -0.9586 -0.4586 -1.7910
   84SLPC  H14Y 8027   4.153   6.066   4.325 -0.2562  0.9368  0.7384
   84SLPC  C315 8028   4.277   6.153   4.482  0.2485 -0.6125 -0.5835
   84SLPC  H15X 8029   4.217   6.091   4.552 -1.1022  0.2402 -0.9594
   84SLPC  H15Y 8030   4.228   6.252   4.490  1.0031 -0.0303 -2.5211
   84SLPC  C316 8031   4.420   6.165   4.541 -0.0919  0.9257 -0.1244
   84SLPC  H16X 8032   4.493   6.207   4.468 -0.6497  1.5428 -0.3374
   84SLPC  H16Y 8033   4.461   6.065   4.566  1.6380  0.5787 -3.6860
   84SLPC  C317 8034   4.431   6.243   4.674  0.0358 -0.2570  0.6885
   84SLPC  H17X 8035   4.339   6.227   4.734 -0.1212 -0.2744  0.4431
   84SLPC  H17Y 8036   4.451   6.350   4.651  2.5634 -0.8805 -0.3458
   84SLPC  C318 8037   4.554   6.212   4.759  0.0248  0.1831 -0.2810
   84SLPC  H18X 8038   4.644   6.265   4.722 -1.7331  3.7437  0.1702
   84SLPC  H18Y 8039   4.578   6.103   4.765 -0.3963  0.1494  1.0583
   84SLPC  H18Z 8040   4.539   6.243   4.864 -0.5968 -0.6800 -0.1020
   85SLPC     N 8041   2.291   4.619   1.816 -0.4879 -0.6530 -0.4576
   85SLPC   C13 8042   2.217   4.489   1.840 -0.1010 -0.5125  0.8058
   85SLPC  H13A 8043   2.136   4.497   1.911  0.5323 -1.0270  1.5874
   85SLPC  H13B 8044   2.163   4.477   1.747  1.9573 -0.3287 -0.4866
   85SLPC  H13C 8045   2.276   4.407   1.877 -0.9006 -2.8285 -2.5245
   85SLPC   C14 8046   2.202   4.721   1.755  0.5633  0.1556  0.1467
   85SLPC  H14A 8047   2.140   4.681   1.677  0.8616 -1.1337  0.5407
   85SLPC  H14B 8048   2.129   4.754   1.828 -1.0780 -2.4832 -0.1669
   85SLPC  H14C 8049   2.262   4.805   1.724 -1.2272  1.0681 -0.9879
   85SLPC   C15 8050   2.391   4.595   1.710  0.4687 -0.6980 -0.4207
   85SLPC  H15A 8051   2.353   4.539   1.626  1.1493 -2.0982  0.1770
   85SLPC  H15B 8052   2.431   4.689   1.675 -0.2640 -0.2029  0.0348
   85SLPC  H15C 8053   2.472   4.541   1.756 -0.2767 -1.3076  0.2143
   85SLPC   C12 8054   2.355   4.669   1.944 -0.0985  0.0398  0.8351
   85SLPC  H12A 8055   2.411   4.756   1.912 -0.6750 -0.0062 -0.3441
   85SLPC  H12B 8056   2.430   4.605   1.987  0.3156  0.3344  0.5694
   85SLPC   C11 8057   2.261   4.714   2.060  0.6543 -0.3436  0.0980
   85SLPC  H11A 8058   2.323   4.749   2.146 -1.6048  1.9583  0.9416
   85SLPC  H11B 8059   2.197   4.631   2.098  1.4140 -1.3407 -0.7688
   85SLPC     P 8060   2.162   4.968   2.089 -0.2107 -0.3901 -0.4502
   85SLPC   O13 8061   2.295   5.025   2.125  0.3434 -0.3495  0.0556
   85SLPC   O14 8062   2.057   5.042   2.013 -0.2070  0.1904 -1.0892
   85SLPC   O12 8063   2.179   4.827   2.020 -0.3960  0.0178 -0.0485
   85SLPC   O11 8064   2.097   4.933   2.235 -0.0051  0.0256  0.0612
   85SLPC    C1 8065   1.962   4.894   2.246  0.2702  0.0360  0.4215
   85SLPC    HA 8066   1.902   4.986   2.261  0.5373  0.2207  0.3445
   85SLPC    HB 8067   1.926   4.829   2.163  0.1093  0.7328 -0.0568
   85SLPC    C2 8068   1.955   4.794   2.367  0.0248  0.8693  0.1748
   85SLPC    HS 8069   1.855   4.745   2.360 -0.6934  2.2724  0.3619
   85SLPC   O21 8070   1.968   4.878   2.477 -0.1304  0.1076  0.8930
   85SLPC   C21 8071   1.893   4.861   2.588 -0.0982 -0.0932 -0.7240
   85SLPC   O22 8072   1.812   4.778   2.604  0.0432  0.0350 -0.6267
   85SLPC   C22 8073   1.934   4.975   2.691  0.2731  0.3568  0.2901
   85SLPC   H2R 8074   2.044   4.966   2.704  0.4907 -0.0262 -1.5917
   85SLPC   H2S 8075   1.898   5.068   2.644 -0.7529 -1.4899 -2.8696
   85SLPC    C3 8076   2.065   4.681   2.363 -0.8832 -0.7319  0.2448
   85SLPC    HX 8077   2.157   4.745   2.363 -2.5925  1.9070  1.1477
   85SLPC    HY 8078   2.070   4.611   2.277 -2.4235 -0.8426  0.2258
   85SLPC   O31 8079   2.060   4.610   2.487 -0.3970  0.6272 -0.0604
   85SLPC   C31 8080   2.158   4.514   2.500  0.6265 -0.9827 -0.3217
   85SLPC   O32 8081   2.250   4.510   2.417  0.0450  0.0286 -0.1811
   85SLPC   C32 8082   2.117   4.425   2.624  0.2176 -0.1012  0.1045
   85SLPC   H2X 8083   2.011   4.398   2.610 -0.0555  0.9045  0.1310
   85SLPC   H2Y 8084   2.116   4.494   2.711  1.0117 -0.3899  0.3516
   85SLPC   C23 8085   1.871   4.965   2.825 -0.0379  0.1644 -0.5706
   85SLPC   H3R 8086   1.901   4.863   2.858  2.6594  0.0762 -2.9176
   85SLPC   H3S 8087   1.760   4.976   2.825 -0.0842 -0.1179  0.5458
   85SLPC   C24 8088   1.935   5.068   2.921  0.2283 -0.8744 -0.3627
   85SLPC   H4R 8089   1.927   5.178   2.902  0.3711 -0.9228 -0.7055
   85SLPC   H4S 8090   2.043   5.042   2.922  0.1652 -1.2385 -1.5088
   85SLPC   C25 8091   1.893   5.045   3.069 -0.1017 -1.1043  0.7189
   85SLPC   H5R 8092   1.918   5.136   3.128  1.3871 -0.8063 -0.3153
   85SLPC   H5S 8093   1.782   5.051   3.069 -0.0778 -0.1580 -0.4802
   85SLPC   C26 8094   1.957   4.928   3.136 -0.1362  0.0189 -0.3826
   85SLPC   H6R 8095   2.065   4.944   3.160 -0.0769  0.3260 -0.8455
   85SLPC   H6S 8096   1.957   4.835   3.076 -1.4003  0.2538 -0.7728
   85SLPC   C27 8097   1.889   4.890   3.272 -0.5510  0.0419 -0.3207
   85SLPC   H7R 8098   1.913   4.786   3.302  1.1804  0.5648  0.2310
   85SLPC   H7S 8099   1.778   4.903   3.270 -0.2600  3.8562 -2.7775
   85SLPC   C28 8100   1.951   4.967   3.392 -0.0443  0.4086 -0.2843
   85SLPC   H8R 8101   2.057   4.984   3.364  0.2170 -1.9482 -0.9313
   85SLPC   H8S 8102   1.945   4.901   3.481  0.5445 -2.7530 -2.4627
   85SLPC   C29 8103   1.879   5.099   3.416  0.1651  0.3183 -0.2503
   85SLPC   H9R 8104   1.780   5.096   3.367 -1.0117  0.2157  1.9862
   85SLPC  C210 8105   1.929   5.196   3.495  1.0136 -0.0991 -0.7303
   85SLPC  H10R 8106   1.865   5.285   3.506  2.6719  1.1484 -0.7175
   85SLPC  C211 8107   2.056   5.193   3.575 -0.3362  0.6869 -0.6465
   85SLPC  H11R 8108   2.114   5.287   3.567  0.8519  0.2697  2.0153
   85SLPC  H11S 8109   2.130   5.112   3.555  0.1323  1.2929 -1.4305
   85SLPC  C212 8110   2.003   5.166   3.712 -0.2290 -0.0683  0.0171
   85SLPC  H12R 8111   1.951   5.070   3.727 -1.0775  0.1600 -1.2737
   85SLPC  C213 8112   2.020   5.242   3.827 -0.5377  0.2174 -0.1351
   85SLPC  H13R 8113   1.971   5.206   3.919 -1.7663  0.5091 -0.6615
   85SLPC  C214 8114   2.118   5.361   3.845  0.1908  0.5275  0.4460
   85SLPC  H14R 8115   2.078   5.456   3.886  0.0805  0.8939 -0.4759
   85SLPC  H14S 8116   2.186   5.381   3.759  1.7423 -0.2806  1.4450
   85SLPC  C215 8117   2.217   5.329   3.964 -0.1226  0.2203 -0.2782
   85SLPC  H15R 8118   2.160   5.334   4.059  0.7769 -1.1864  0.3728
   85SLPC  H15S 8119   2.295   5.408   3.960  1.1755 -0.7406  2.6576
   85SLPC  C216 8120   2.298   5.195   3.956 -0.6303 -0.3987 -0.1740
   85SLPC  H16R 8121   2.338   5.174   3.855  0.0024 -0.3046  0.0501
   85SLPC  H16S 8122   2.225   5.115   3.980  1.2383 -2.3401 -0.5852
   85SLPC  C217 8123   2.420   5.199   4.052  0.3043 -0.4202  0.5025
   85SLPC  H17R 8124   2.495   5.275   4.021 -1.7491  0.8894 -1.6214
   85SLPC  H17S 8125   2.467   5.103   4.023  0.8113  0.0391 -0.2230
   85SLPC  C218 8126   2.394   5.204   4.209  0.2382  0.2589 -0.0590
   85SLPC  H18R 8127   2.488   5.192   4.267 -0.1079  2.5195  1.0796
   85SLPC  H18S 8128   2.330   5.118   4.240 -0.1312  0.5389 -0.0383
   85SLPC  H18T 8129   2.341   5.292   4.251  1.2255  1.0438 -0.4185
   85SLPC   C33 8130   2.212   4.304   2.634 -0.2062  0.1889  0.2635
   85SLPC   H3X 8131   2.320   4.329   2.622 -0.2254 -0.1928 -0.8631
   85SLPC   H3Y 8132   2.197   4.241   2.543 -0.8805  0.4054  0.2247
   85SLPC   C34 8133   2.197   4.224   2.762 -0.3928 -0.0259 -0.4734
   85SLPC   H4X 8134   2.288   4.161   2.769 -1.3799 -1.3016  1.8720
   85SLPC   H4Y 8135   2.103   4.165   2.769 -1.3765  1.6110  1.1767
   85SLPC   C35 8136   2.206   4.316   2.894  0.0945  0.2679  0.2720
   85SLPC   H5X 8137   2.117   4.380   2.911  0.5901  1.6039 -1.8403
   85SLPC   H5Y 8138   2.294   4.382   2.881  0.7459 -0.5975  0.1631
   85SLPC   C36 8139   2.229   4.230   3.020 -0.1956  0.4921  0.4947
   85SLPC   H6X 8140   2.323   4.170   3.018 -1.4457 -1.6101 -1.5413
   85SLPC   H6Y 8141   2.143   4.161   3.037 -1.2087  1.8534  1.0243
   85SLPC   C37 8142   2.220   4.318   3.151 -0.5293  0.1198  0.3867
   85SLPC   H7X 8143   2.126   4.376   3.140 -1.0038 -0.5548  0.8295
   85SLPC   H7Y 8144   2.307   4.387   3.157 -0.1706 -0.1459 -1.2685
   85SLPC   C38 8145   2.231   4.232   3.278  0.0745  0.2808  0.4361
   85SLPC   H8X 8146   2.328   4.178   3.271  0.1002  0.3043  0.6246
   85SLPC   H8Y 8147   2.144   4.164   3.280 -0.1438  0.5659  0.7961
   85SLPC   C39 8148   2.245   4.307   3.411  0.3817  0.0500  0.0684
   85SLPC   H9X 8149   2.159   4.376   3.421  1.6261  1.4703  1.3819
   85SLPC   H9Y 8150   2.339   4.365   3.398  0.9565 -0.5386  1.4200
   85SLPC  C310 8151   2.264   4.213   3.538  0.4207  0.1046 -0.1718
   85SLPC  H10X 8152   2.362   4.163   3.522  0.0795 -0.6572  0.1083
   85SLPC  H10Y 8153   2.178   4.143   3.535 -0.1132  0.7575 -2.0271
   85SLPC  C311 8154   2.279   4.293   3.674  0.0873  0.0985 -0.3116
   85SLPC  H11X 8155   2.200   4.371   3.680  0.4452  0.4970 -0.7667
   85SLPC  H11Y 8156   2.382   4.333   3.672  0.9675 -1.8879  1.3181
   85SLPC  C312 8157   2.272   4.205   3.804 -0.2955  0.8195 -0.3815
   85SLPC  H12X 8158   2.362   4.141   3.812  0.2081  1.5595  0.0014
   85SLPC  H12Y 8159   2.190   4.133   3.780  2.3195 -1.2950 -3.9200
   85SLPC  C313 8160   2.252   4.282   3.934  0.5545  0.0979 -0.3775
   85SLPC  H13X 8161   2.198   4.378   3.922 -0.4201  0.0428  2.6898
   85SLPC  H13Y 8162   2.355   4.315   3.961  0.2373  1.6288 -0.9100
   85SLPC  C314 8163   2.197   4.188   4.047  0.5700 -0.4704  1.0311
   85SLPC  H14X 8164   2.267   4.102   4.057 -1.2818 -1.9858  1.3401
   85SLPC  H14Y 8165   2.099   4.153   4.010  1.3039 -0.2587 -1.2924
   85SLPC  C315 8166   2.178   4.262   4.179  0.3679  0.3950  0.3587
   85SLPC  H15X 8167   2.088   4.324   4.158  1.6975  2.1467 -0.4462
   85SLPC  H15Y 8168   2.262   4.331   4.204 -0.0718  1.1766 -0.2670
   85SLPC  C316 8169   2.147   4.173   4.297  1.0121  0.5819 -0.2571
   85SLPC  H16X 8170   2.167   4.239   4.384  3.4787  0.9625 -1.0412
   85SLPC  H16Y 8171   2.219   4.089   4.300  2.1416  1.4823 -1.4094
   85SLPC  C317 8172   2.008   4.101   4.315 -0.9894 -0.2571 -0.2080
   85SLPC  H17X 8173   2.014   4.044   4.410  0.6868 -1.1304 -0.8127
   85SLPC  H17Y 8174   1.982   4.033   4.231 -0.0976  0.3950 -1.0455
   85SLPC  C318 8175   1.891   4.196   4.330 -0.6901 -0.4390  0.1747
   85SLPC  H18X 8176   1.900   4.298   4.287  0.5843 -0.5590  0.1259
   85SLPC  H18Y 8177   1.873   4.209   4.439  0.4026 -0.1453  0.3280
   85SLPC  H18Z 8178   1.796   4.149   4.295 -0.7602 -0.9249  0.9982
   86SLPC     N 8179   3.386   1.216   2.005  0.1373 -0.5866 -0.0738
   86SLPC   C13 8180   3.398   1.067   1.980 -0.8155 -0.6125  0.1706
   86SLPC  H13A 8181   3.405   1.047   1.874  0.1594  2.4496 -0.4360
   86SLPC  H13B 8182   3.483   1.024   2.030 -0.4236 -0.1287 -0.0723
   86SLPC  H13C 8183   3.314   1.011   2.018  0.6922 -1.2960  2.6999
   86SLPC   C14 8184   3.282   1.272   1.911 -0.2051 -0.0423  0.0032
   86SLPC  H14A 8185   3.190   1.217   1.922 -0.2283  0.3929  2.5762
   86SLPC  H14B 8186   3.265   1.376   1.936  1.7956 -0.3480  3.1642
   86SLPC  H14C 8187   3.314   1.254   1.809 -0.2132  1.3271 -0.2619
   86SLPC   C15 8188   3.521   1.273   1.976  0.7879 -0.0299  0.2902
   86SLPC  H15A 8189   3.539   1.267   1.869 -2.0488 -0.4889 -0.2455
   86SLPC  H15B 8190   3.508   1.375   2.010 -0.6277  0.4897 -1.5660
   86SLPC  H15C 8191   3.596   1.216   2.026  1.0783 -1.7310 -1.9206
   86SLPC   C12 8192   3.348   1.249   2.149  0.2378 -0.5587  0.3372
   86SLPC  H12A 8193   3.242   1.231   2.160  0.2475 -0.9675 -0.2322
   86SLPC  H12B 8194   3.354   1.356   2.164 -1.5324 -0.6302  2.1142
   86SLPC   C11 8195   3.412   1.179   2.267 -0.1441  0.3785 -0.2306
   86SLPC  H11A 8196   3.418   1.243   2.358 -1.5971  1.6422 -0.9806
   86SLPC  H11B 8197   3.513   1.154   2.229 -0.9009 -1.1365 -1.3220
   86SLPC     P 8198   3.204   1.040   2.366  0.1457 -0.0461 -0.5574
   86SLPC   O13 8199   3.147   1.178   2.356  0.2902 -0.4675  0.9697
   86SLPC   O14 8200   3.129   0.932   2.307  0.5909  0.4413  0.3377
   86SLPC   O12 8201   3.349   1.050   2.296 -0.2992  0.0634  0.0223
   86SLPC   O11 8202   3.232   1.017   2.518 -0.5940  0.2592 -0.5911
   86SLPC    C1 8203   3.321   1.102   2.589  0.3610 -0.6514  0.3164
   86SLPC    HA 8204   3.415   1.049   2.614 -0.2946 -1.4187  1.2539
   86SLPC    HB 8205   3.350   1.191   2.529  0.7416 -1.6614 -1.0515
   86SLPC    C2 8206   3.260   1.150   2.724  0.3173  0.1179  0.2875
   86SLPC    HS 8207   3.349   1.155   2.790  1.0196 -0.5495 -0.5885
   86SLPC   O21 8208   3.158   1.064   2.788  0.1274  0.0555 -0.0023
   86SLPC   C21 8209   3.198   0.936   2.809  0.5382 -0.3010 -0.4078
   86SLPC   O22 8210   3.308   0.895   2.792 -0.1057  0.8881 -0.0013
   86SLPC   C22 8211   3.083   0.859   2.880  0.1482 -0.2068  0.1110
   86SLPC   H2R 8212   3.017   0.939   2.922 -1.3591 -0.5334 -1.5008
   86SLPC   H2S 8213   3.021   0.800   2.809 -3.4090  2.2072  0.9378
   86SLPC    C3 8214   3.206   1.298   2.699 -0.0576  0.6705  0.3438
   86SLPC    HX 8215   3.137   1.277   2.615 -1.3208  0.2621  1.4308
   86SLPC    HY 8216   3.285   1.360   2.652 -0.1960 -0.4710 -1.4722
   86SLPC   O31 8217   3.144   1.352   2.814  0.5319 -0.2733  0.0918
   86SLPC   C31 8218   3.071   1.461   2.785 -0.2145 -0.5192  0.6067
   86SLPC   O32 8219   3.066   1.515   2.673 -0.2062 -0.6380  0.3549
   86SLPC   C32 8220   2.996   1.507   2.906  0.1052  0.3757  0.5477
   86SLPC   H2X 8221   2.982   1.616   2.893  0.0622  0.2440 -0.6079
   86SLPC   H2Y 8222   3.055   1.495   2.999 -0.3313  1.9187  1.0483
   86SLPC   C23 8223   3.118   0.788   3.009 -0.0443 -0.4520 -0.3021
   86SLPC   H3R 8224   3.228   0.773   3.008 -0.0599 -0.8272  1.0098
   86SLPC   H3S 8225   3.070   0.688   3.015  0.0382 -0.4839 -0.1751
   86SLPC   C24 8226   3.076   0.853   3.140  0.4234 -0.3271  0.5527
   86SLPC   H4R 8227   2.967   0.835   3.134  0.7702 -2.0372 -2.7812
   86SLPC   H4S 8228   3.090   0.963   3.150 -1.6405  0.0870 -0.6160
   86SLPC   C25 8229   3.130   0.775   3.263 -0.0829 -0.3067  0.1572
   86SLPC   H5R 8230   3.241   0.768   3.261  0.2859  2.8185 -3.7224
   86SLPC   H5S 8231   3.077   0.678   3.255  1.9781 -1.3748 -1.7290
   86SLPC   C26 8232   3.086   0.841   3.396  0.6776  0.4813  0.1538
   86SLPC   H6R 8233   2.979   0.871   3.390 -0.1152 -2.1919 -0.4256
   86SLPC   H6S 8234   3.153   0.927   3.415  0.6687  0.3122  0.9731
   86SLPC   C27 8235   3.108   0.760   3.529  0.4035 -0.3013  0.6337
   86SLPC   H7R 8236   3.193   0.688   3.519 -0.3971 -1.3502  1.2078
   86SLPC   H7S 8237   3.020   0.693   3.537  1.5707 -1.8771  0.6996
   86SLPC   C28 8238   3.122   0.848   3.654 -0.2142  0.1928  0.3233
   86SLPC   H8R 8239   3.204   0.917   3.624  0.4501 -1.0750 -0.8869
   86SLPC   H8S 8240   3.151   0.776   3.733 -1.3586 -0.8217 -0.1526
   86SLPC   C29 8241   3.001   0.922   3.699  1.0193  0.3846  0.4411
   86SLPC   H9R 8242   2.977   1.014   3.642  0.3080 -0.6648 -1.0358
   86SLPC  C210 8243   2.922   0.883   3.801  0.3280  0.1496  0.3033
   86SLPC  H10R 8244   2.834   0.942   3.830 -0.9110 -1.2848 -0.3914
   86SLPC  C211 8245   2.942   0.752   3.881  0.1745 -0.8636  0.5729
   86SLPC  H11R 8246   3.049   0.741   3.908 -0.3119 -0.8116  2.7792
   86SLPC  H11S 8247   2.914   0.663   3.821  1.0215 -0.8708  0.1803
   86SLPC  C212 8248   2.860   0.756   4.008  0.4902  0.8336  0.1469
   86SLPC  H12R 8249   2.756   0.779   3.984  0.4303  0.5112  0.0868
   86SLPC  C213 8250   2.902   0.726   4.134 -0.0249 -0.2164  0.4682
   86SLPC  H13R 8251   2.826   0.728   4.214 -1.4684  0.8717 -0.8687
   86SLPC  C214 8252   3.045   0.697   4.175 -0.0190 -1.0233 -0.8268
   86SLPC  H14R 8253   3.111   0.782   4.146 -1.5276  0.6433  0.3783
   86SLPC  H14S 8254   3.081   0.605   4.124  1.1332 -0.2085 -1.5350
   86SLPC  C215 8255   3.059   0.660   4.329  0.6021 -0.7802 -0.0909
   86SLPC  H15R 8256   2.983   0.586   4.362  0.6406 -1.2513 -1.0213
   86SLPC  H15S 8257   3.037   0.753   4.387 -0.4837 -1.4884  0.6737
   86SLPC  C216 8258   3.200   0.589   4.352  0.7565 -0.6755 -0.2525
   86SLPC  H16R 8259   3.279   0.662   4.327  0.6933 -0.3531  0.4672
   86SLPC  H16S 8260   3.201   0.502   4.282 -1.0327  1.4371 -3.1307
   86SLPC  C217 8261   3.220   0.541   4.502 -0.0219  0.8011 -0.0469
   86SLPC  H17R 8262   3.179   0.438   4.498 -0.1032  0.8634 -1.0306
   86SLPC  H17S 8263   3.161   0.604   4.572  1.4904  1.3133  0.8395
   86SLPC  C218 8264   3.366   0.526   4.537  0.1481 -0.5425 -0.0138
   86SLPC  H18R 8265   3.381   0.475   4.634 -0.2454  0.6095  0.6644
   86SLPC  H18S 8266   3.416   0.625   4.538 -0.9040  0.0147 -0.7794
   86SLPC  H18T 8267   3.425   0.464   4.466  0.6759  1.4079 -1.3564
   86SLPC   C33 8268   2.870   1.425   2.931 -0.8425 -0.0992  0.1387
   86SLPC   H3X 8269   2.883   1.322   2.891 -0.4088  0.6449 -1.7919
   86SLPC   H3Y 8270   2.792   1.469   2.865  0.9273  0.4136 -1.7511
   86SLPC   C34 8271   2.841   1.425   3.081 -1.0977 -0.0267 -0.4405
   86SLPC   H4X 8272   2.736   1.389   3.090 -1.1598  0.1775 -0.3494
   86SLPC   H4Y 8273   2.839   1.528   3.124  0.2497 -0.3381  0.4027
   86SLPC   C35 8274   2.932   1.338   3.174  0.5251 -0.3355  0.2907
   86SLPC   H5X 8275   3.041   1.352   3.155  0.6997  0.2338  1.5856
   86SLPC   H5Y 8276   2.906   1.234   3.145 -2.8672  0.1983  1.0140
   86SLPC   C36 8277   2.911   1.375   3.323  0.1509 -1.0365 -0.3692
   86SLPC   H6X 8278   2.811   1.344   3.359  0.6184 -1.0512  0.9728
   86SLPC   H6Y 8279   2.902   1.486   3.331  0.8317 -0.9793 -0.2727
   86SLPC   C37 8280   3.013   1.317   3.411 -0.2308  0.2024  0.8722
   86SLPC   H7X 8281   3.118   1.343   3.385  0.7071 -1.1467  3.0071
   86SLPC   H7Y 8282   3.014   1.208   3.389  1.7549 -0.0539  1.9180
   86SLPC   C38 8283   2.996   1.341   3.559  0.2849 -0.1663 -0.4426
   86SLPC   H8X 8284   2.895   1.305   3.588  1.2793 -2.9313 -0.1938
   86SLPC   H8Y 8285   2.995   1.452   3.563  0.9599 -0.1823  0.3897
   86SLPC   C39 8286   3.102   1.284   3.652  0.1425  0.1815  0.0994
   86SLPC   H9X 8287   3.186   1.356   3.642  0.3584 -0.0917 -0.0884
   86SLPC   H9Y 8288   3.133   1.183   3.616 -0.7025 -0.2236  0.4825
   86SLPC  C310 8289   3.050   1.283   3.794 -0.2053 -0.2597  0.0539
   86SLPC  H10X 8290   2.967   1.210   3.807 -1.0349  0.7320  0.5297
   86SLPC  H10Y 8291   3.020   1.386   3.825  1.3900 -0.1037  1.2020
   86SLPC  C311 8292   3.156   1.250   3.903  0.3120 -0.8533  0.0052
   86SLPC  H11X 8293   3.229   1.332   3.884 -0.6237 -0.0272 -0.1620
   86SLPC  H11Y 8294   3.207   1.152   3.906 -0.8813 -1.4684  2.1208
   86SLPC  C312 8295   3.100   1.292   4.044 -0.2070  0.8081 -0.4541
   86SLPC  H12X 8296   2.990   1.295   4.033 -0.3648  0.2928  0.7601
   86SLPC  H12Y 8297   3.144   1.392   4.067 -0.3812  0.7038  0.3678
   86SLPC  C313 8298   3.149   1.187   4.144 -0.3714 -0.6233 -0.1752
   86SLPC  H13X 8299   3.250   1.215   4.182 -1.1715  0.1726  1.4845
   86SLPC  H13Y 8300   3.161   1.085   4.102 -0.3407  0.2301 -2.4117
   86SLPC  C314 8301   3.053   1.175   4.261  0.0869 -0.6548  0.1107
   86SLPC  H14X 8302   2.949   1.148   4.232  0.2558  0.5588 -1.8402
   86SLPC  H14Y 8303   3.054   1.273   4.314  2.0368 -0.9605  0.7046
   86SLPC  C315 8304   3.108   1.070   4.359  0.2271  0.4273 -0.5283
   86SLPC  H15X 8305   3.098   0.982   4.291 -1.5542 -0.4216  0.7482
   86SLPC  H15Y 8306   3.035   1.059   4.443  1.2789  0.6330  0.4241
   86SLPC  C316 8307   3.258   1.090   4.400 -0.2449 -0.1691 -0.4411
   86SLPC  H16X 8308   3.276   1.196   4.427 -1.4185 -0.1455  0.3096
   86SLPC  H16Y 8309   3.323   1.062   4.314  2.6658  2.1632  0.7887
   86SLPC  C317 8310   3.298   1.006   4.519 -0.2232 -0.1832 -0.3096
   86SLPC  H17X 8311   3.298   0.897   4.496  1.0061 -0.1629 -0.4915
   86SLPC  H17Y 8312   3.219   1.009   4.597  1.1392  1.0635  1.0812
   86SLPC  C318 8313   3.432   1.048   4.573  0.1790 -0.3775 -0.0507
   86SLPC  H18X 8314   3.466   0.980   4.655 -1.0482 -1.7041 -0.5909
   86SLPC  H18Y 8315   3.459   1.146   4.616  0.0149 -0.3010 -0.1232
   86SLPC  H18Z 8316   3.513   1.048   4.497  0.3061  2.6126 -0.0338
   87SLPC     N 8317   0.655   5.002   2.105 -0.3719  0.0880  0.4232
   87SLPC   C13 8318   0.755   4.983   1.992  0.1358  0.4836  0.1910
   87SLPC  H13A 8319   0.695   5.001   1.904  0.0432  0.6994  0.2973
   87SLPC  H13B 8320   0.834   5.055   2.001 -0.2887  1.1895 -1.3698
   87SLPC  H13C 8321   0.786   4.880   2.002  2.0641  0.7497 -2.2663
   87SLPC   C14 8322   0.718   4.949   2.234 -0.2133  0.0960  0.4407
   87SLPC  H14A 8323   0.792   5.021   2.266 -0.0223 -0.2270  0.7264
   87SLPC  H14B 8324   0.642   4.941   2.310  0.8143  0.6872  1.5701
   87SLPC  H14C 8325   0.770   4.856   2.217 -2.7330 -1.1185 -1.2889
   87SLPC   C15 8326   0.542   4.911   2.076  0.2184  0.1475  0.9101
   87SLPC  H15A 8327   0.579   4.810   2.067 -1.4987 -0.3358 -2.1157
   87SLPC  H15B 8328   0.472   4.923   2.158  0.7996  2.4814  1.1279
   87SLPC  H15C 8329   0.484   4.927   1.986 -0.4309 -1.4809  1.0095
   87SLPC   C12 8330   0.605   5.143   2.124  0.7356  0.2987 -0.1072
   87SLPC  H12A 8331   0.527   5.142   2.200  2.6161  2.5256  2.0458
   87SLPC  H12B 8332   0.563   5.179   2.031 -0.0798  1.6726  0.7512
   87SLPC   C11 8333   0.706   5.246   2.152  0.7014 -0.1303 -1.1822
   87SLPC  H11A 8334   0.780   5.193   2.216 -1.1509 -0.3823  0.8546
   87SLPC  H11B 8335   0.683   5.332   2.218 -0.2274 -1.7926  0.7840
   87SLPC     P 8336   0.698   5.389   1.931  0.0735  0.2740  0.2038
   87SLPC   O13 8337   0.731   5.338   1.803 -0.3759 -0.3371  0.0980
   87SLPC   O14 8338   0.550   5.387   1.961 -0.1844  0.3527 -0.0233
   87SLPC   O12 8339   0.767   5.290   2.035  0.2439  0.0288  0.1303
   87SLPC   O11 8340   0.755   5.530   1.946 -0.0217 -0.3601  0.2116
   87SLPC    C1 8341   0.894   5.554   1.990 -0.4140  0.3402 -0.4661
   87SLPC    HA 8342   0.948   5.458   2.007  1.9922  1.3157 -1.9940
   87SLPC    HB 8343   0.945   5.599   1.902  1.2831 -0.5931 -0.0038
   87SLPC    C2 8344   0.915   5.634   2.123 -0.1565  0.1677  0.1146
   87SLPC    HS 8345   1.019   5.626   2.160 -0.6911 -3.2320  1.2520
   87SLPC   O21 8346   0.813   5.597   2.220  0.2389 -0.5115  0.8097
   87SLPC   C21 8347   0.849   5.513   2.305  0.7171  0.3071  0.5772
   87SLPC   O22 8348   0.952   5.450   2.301 -0.2586  0.1887  0.8526
   87SLPC   C22 8349   0.753   5.516   2.419  0.7205 -0.0611 -0.0786
   87SLPC   H2R 8350   0.697   5.612   2.412 -0.8340 -0.9418 -0.1032
   87SLPC   H2S 8351   0.677   5.438   2.397  0.1926  1.0404 -2.4998
   87SLPC    C3 8352   0.889   5.788   2.076  0.0388  0.2742  0.1123
   87SLPC    HX 8353   0.799   5.768   2.015  0.0749 -0.5168  0.3149
   87SLPC    HY 8354   0.971   5.825   2.009  0.1101 -0.2937 -0.1135
   87SLPC   O31 8355   0.872   5.879   2.190  0.1292  0.4216  0.6806
   87SLPC   C31 8356   0.772   5.962   2.186 -0.2263  0.2662  0.2530
   87SLPC   O32 8357   0.699   5.965   2.087 -0.2282 -0.2323  0.4498
   87SLPC   C32 8358   0.784   6.061   2.304 -0.1659 -0.6078 -0.7640
   87SLPC   H2X 8359   0.769   6.163   2.261 -0.0384  0.4098  1.4665
   87SLPC   H2Y 8360   0.890   6.055   2.336  0.0421  0.6289 -1.1540
   87SLPC   C23 8361   0.807   5.507   2.563 -0.4881 -0.8059  0.5771
   87SLPC   H3R 8362   0.887   5.584   2.579  0.4255 -1.4450 -0.7378
   87SLPC   H3S 8363   0.844   5.404   2.580  1.3857 -0.2655  0.0518
   87SLPC   C24 8364   0.704   5.546   2.670  0.3429  0.3428  0.1377
   87SLPC   H4R 8365   0.635   5.460   2.684 -1.1619  1.4739 -0.0677
   87SLPC   H4S 8366   0.643   5.632   2.636  2.5675  2.1177  0.4513
   87SLPC   C25 8367   0.762   5.557   2.812 -0.1857 -0.3060  0.4466
   87SLPC   H5R 8368   0.837   5.639   2.822 -2.5083  2.0010  0.0041
   87SLPC   H5S 8369   0.813   5.460   2.831 -1.4872 -1.8884 -3.2317
   87SLPC   C26 8370   0.657   5.581   2.923  0.6923 -0.3528 -0.3523
   87SLPC   H6R 8371   0.580   5.502   2.926 -1.0349  1.2876  0.1086
   87SLPC   H6S 8372   0.599   5.672   2.895 -0.1308 -0.6750  0.2846
   87SLPC   C27 8373   0.709   5.582   3.069  0.1162  0.7800  0.7697
   87SLPC   H7R 8374   0.730   5.475   3.092 -3.9756 -0.1248  1.0126
   87SLPC   H7S 8375   0.637   5.619   3.146 -0.5589  0.7281  0.1754
   87SLPC   C28 8376   0.845   5.653   3.092  0.1296  1.0154 -0.5398
   87SLPC   H8R 8377   0.830   5.761   3.067  0.1008  1.8266  2.5629
   87SLPC   H8S 8378   0.914   5.613   3.015 -1.2045  0.4498 -1.4752
   87SLPC   C29 8379   0.905   5.639   3.234  0.4426 -0.5253  0.3463
   87SLPC   H9R 8380   0.984   5.563   3.233  0.6161 -0.3616 -1.4721
   87SLPC  C210 8381   0.868   5.689   3.353  0.4726 -0.7061  0.2067
   87SLPC  H10R 8382   0.902   5.642   3.446  0.2748  1.2585  1.3258
   87SLPC  C211 8383   0.758   5.789   3.378 -0.1054  0.1175  0.1110
   87SLPC  H11R 8384   0.711   5.831   3.286  1.1697 -2.1708 -1.6789
   87SLPC  H11S 8385   0.818   5.870   3.424  0.2406 -1.0247  1.7564
   87SLPC  C212 8386   0.657   5.733   3.476 -0.3019  0.5604 -0.2034
   87SLPC  H12R 8387   0.595   5.648   3.446  1.0943 -0.8965  0.8745
   87SLPC  C213 8388   0.651   5.751   3.611  0.1998  0.1491  0.6378
   87SLPC  H13R 8389   0.582   5.698   3.678  2.1162 -1.6991  1.2441
   87SLPC  C214 8390   0.742   5.836   3.691 -0.3085  0.5049  0.1260
   87SLPC  H14R 8391   0.702   5.939   3.694  0.5702  0.8665 -0.0927
   87SLPC  H14S 8392   0.842   5.846   3.644 -1.0130 -0.7698 -1.7431
   87SLPC  C215 8393   0.758   5.771   3.838  0.3185  0.0920  0.7785
   87SLPC  H15R 8394   0.655   5.752   3.875  0.0059  0.5069  0.1373
   87SLPC  H15S 8395   0.796   5.851   3.905 -1.4401 -0.4421  2.4819
   87SLPC  C216 8396   0.828   5.636   3.843 -0.0822 -1.2807  0.5854
   87SLPC  H16R 8397   0.916   5.645   3.776 -1.4134 -0.1499 -1.0990
   87SLPC  H16S 8398   0.760   5.554   3.811 -0.9839  0.2881 -1.7106
   87SLPC  C217 8399   0.880   5.598   3.986 -0.5684  0.3399  0.7384
   87SLPC  H17R 8400   0.988   5.625   3.989 -0.2426 -0.9632  2.5380
   87SLPC  H17S 8401   0.881   5.487   3.987 -0.6911  0.3334  0.3108
   87SLPC  C218 8402   0.804   5.643   4.112 -1.0684 -0.0740  0.8820
   87SLPC  H18R 8403   0.786   5.752   4.113 -1.3859 -0.1265  0.9206
   87SLPC  H18S 8404   0.871   5.622   4.197  0.1597  0.2235  0.0144
   87SLPC  H18T 8405   0.712   5.583   4.132 -1.1057 -0.5963 -0.7228
   87SLPC   C33 8406   0.681   6.032   2.418  0.2658  0.2147 -0.0285
   87SLPC   H3X 8407   0.576   6.041   2.383  0.2074  0.1848  0.1385
   87SLPC   H3Y 8408   0.692   6.112   2.493 -0.3087  0.8745 -0.6353
   87SLPC   C34 8409   0.703   5.898   2.488  0.1047 -0.3018 -0.5563
   87SLPC   H4X 8410   0.732   5.817   2.418  1.2639  0.1835 -0.6532
   87SLPC   H4Y 8411   0.606   5.870   2.534  0.1845  0.2907 -0.0098
   87SLPC   C35 8412   0.806   5.904   2.605 -0.1021  0.2597 -0.0330
   87SLPC   H5X 8413   0.899   5.938   2.553 -1.4116  0.2117 -2.5432
   87SLPC   H5Y 8414   0.828   5.805   2.649  0.6320 -0.3564 -1.7239
   87SLPC   C36 8415   0.781   6.004   2.717  0.2048 -0.6702 -0.2198
   87SLPC   H6X 8416   0.680   5.991   2.760  1.0711 -0.1775  2.1325
   87SLPC   H6Y 8417   0.792   6.111   2.689  2.8410 -0.5981  0.7802
   87SLPC   C37 8418   0.871   5.971   2.839  0.0086  0.2277 -0.1455
   87SLPC   H7X 8419   0.975   5.995   2.809 -0.5545  0.5665 -1.9972
   87SLPC   H7Y 8420   0.865   5.862   2.859 -1.0575  0.8361  3.5014
   87SLPC   C38 8421   0.844   6.046   2.971  0.3854  0.2693  0.3116
   87SLPC   H8X 8422   0.747   6.004   3.007 -0.2793 -0.0639 -1.7086
   87SLPC   H8Y 8423   0.846   6.154   2.945  0.3824 -0.4431 -3.1228
   87SLPC   C39 8424   0.955   6.026   3.075  0.5083 -0.0552 -0.1071
   87SLPC   H9X 8425   1.053   6.048   3.026  0.0424  2.7188  0.0140
   87SLPC   H9Y 8426   0.957   5.924   3.118 -0.5528 -0.7932 -1.7357
   87SLPC  C310 8427   0.936   6.127   3.195 -1.0207 -0.2710  0.5011
   87SLPC  H10X 8428   0.842   6.100   3.247 -0.0421 -3.4264  0.8803
   87SLPC  H10Y 8429   0.942   6.233   3.164 -3.1301  0.6302  2.7890
   87SLPC  C311 8430   1.038   6.121   3.308 -0.6310 -0.3666 -0.7656
   87SLPC  H11X 8431   1.142   6.112   3.271 -0.5673 -0.2366 -0.6197
   87SLPC  H11Y 8432   1.029   6.030   3.371  1.7436 -0.3384 -0.2821
   87SLPC  C312 8433   1.027   6.240   3.398 -0.0538  0.6359  0.5024
   87SLPC  H12X 8434   0.920   6.265   3.416 -1.1881 -3.3469  0.0694
   87SLPC  H12Y 8435   1.078   6.321   3.341  0.0792  1.1286  1.3079
   87SLPC  C313 8436   1.091   6.232   3.540  0.2702 -0.1699  0.1434
   87SLPC  H13X 8437   1.093   6.338   3.573 -2.0586  0.3292 -1.1378
   87SLPC  H13Y 8438   1.191   6.183   3.540  0.5347  0.3631 -0.2902
   87SLPC  C314 8439   1.005   6.140   3.631 -0.9282  0.6596  0.5390
   87SLPC  H14X 8440   1.020   6.035   3.595 -0.7700  0.3618  1.4526
   87SLPC  H14Y 8441   0.897   6.159   3.615 -0.6670  0.7724 -1.3750
   87SLPC  C315 8442   1.046   6.140   3.779  0.1979  0.2707 -0.2242
   87SLPC  H15X 8443   0.975   6.080   3.839  1.2976 -0.8191  0.0311
   87SLPC  H15Y 8444   1.060   6.239   3.828 -1.1653  0.5599 -0.3910
   87SLPC  C316 8445   1.182   6.066   3.808  0.0513  0.2217  0.1960
   87SLPC  H16X 8446   1.245   6.099   3.722 -1.8928 -0.8298 -1.7540
   87SLPC  H16Y 8447   1.169   5.958   3.785  2.0693 -0.3893  1.6433
   87SLPC  C317 8448   1.230   6.080   3.947  0.0455  0.2795 -0.9537
   87SLPC  H17X 8449   1.219   6.188   3.968 -0.0163  0.3721 -1.4556
   87SLPC  H17Y 8450   1.340   6.065   3.954  0.2976  2.2955 -0.1785
   87SLPC  C318 8451   1.153   5.997   4.053  0.4679  0.2737 -0.4620
   87SLPC  H18X 8452   1.132   5.893   4.019 -2.7191  0.9885 -0.9925
   87SLPC  H18Y 8453   1.057   6.047   4.076 -1.7442 -2.2131 -3.4320
   87SLPC  H18Z 8454   1.208   5.991   4.150 -2.9984  1.3096  1.7592
   88SLPC     N 8455   1.177   0.848   2.049  1.0029 -0.3925  0.3957
   88SLPC   C13 8456   1.184   0.753   1.931  0.1675  0.5979  0.3599
   88SLPC  H13A 8457   1.213   0.804   1.841 -0.3030 -0.2824 -0.3080
   88SLPC  H13B 8458   1.262   0.679   1.942 -0.4670 -0.3305 -1.0033
   88SLPC  H13C 8459   1.086   0.709   1.920  0.4323 -0.3652  1.5028
   88SLPC   C14 8460   1.095   0.965   2.008  0.1038  0.2777  0.1936
   88SLPC  H14A 8461   1.087   1.045   2.080 -0.2326  0.0368  0.4200
   88SLPC  H14B 8462   1.131   1.004   1.914 -2.5229  0.3324 -0.8706
   88SLPC  H14C 8463   0.997   0.926   1.987  1.1019 -2.5741  0.4485
   88SLPC   C15 8464   1.316   0.886   2.078 -0.1221  0.4795  0.9257
   88SLPC  H15A 8465   1.379   0.801   2.097  1.1377  1.4555  1.2573
   88SLPC  H15B 8466   1.354   0.942   1.994  0.3721 -0.7067  0.3358
   88SLPC  H15C 8467   1.314   0.947   2.167 -4.1469  1.1971  0.5152
   88SLPC   C12 8468   1.112   0.780   2.172 -0.3625  0.5818 -0.1816
   88SLPC  H12A 8469   1.166   0.693   2.205 -1.2505 -0.2156 -0.7644
   88SLPC  H12B 8470   1.016   0.740   2.143  0.0239 -0.0028 -0.6825
   88SLPC   C11 8471   1.100   0.858   2.305 -1.0693  0.1649 -0.3271
   88SLPC  H11A 8472   1.193   0.918   2.314 -0.2362 -1.2873  1.3385
   88SLPC  H11B 8473   1.087   0.777   2.381 -0.8182 -0.0030 -0.4618
   88SLPC     P 8474   0.842   0.895   2.301  0.3643 -0.0919 -0.1765
   88SLPC   O13 8475   0.756   1.014   2.284  1.0141 -0.4656  0.1255
   88SLPC   O14 8476   0.835   0.786   2.204 -0.1690 -0.2115 -0.1396
   88SLPC   O12 8477   0.990   0.945   2.300 -0.0330 -0.0129 -0.2482
   88SLPC   O11 8478   0.822   0.830   2.442  0.0548  0.1619  0.0600
   88SLPC    C1 8479   0.835   0.919   2.559  0.8851 -0.3926  0.6467
   88SLPC    HA 8480   0.845   1.025   2.528  2.9890 -0.0416  2.3462
   88SLPC    HB 8481   0.737   0.910   2.611  0.2123  0.9237 -0.3221
   88SLPC    C2 8482   0.950   0.893   2.659  0.8043  0.2368 -0.1033
   88SLPC    HS 8483   1.035   0.875   2.589 -0.3757 -0.4255 -1.4069
   88SLPC   O21 8484   0.904   0.773   2.732  0.2309 -0.1556 -0.5014
   88SLPC   C21 8485   1.002   0.689   2.768 -0.4854  0.2118  0.4888
   88SLPC   O22 8486   1.122   0.704   2.740  0.4005  0.9996 -0.0339
   88SLPC   C22 8487   0.944   0.568   2.838  0.2059  0.3626  0.1126
   88SLPC   H2R 8488   0.922   0.605   2.940 -1.0861 -0.3671  0.1179
   88SLPC   H2S 8489   0.843   0.549   2.794 -0.2976  1.3623  0.7975
   88SLPC    C3 8490   0.984   1.017   2.748 -0.4291  0.1478  0.3326
   88SLPC    HX 8491   0.898   1.029   2.817  0.4831 -2.3504  2.0268
   88SLPC    HY 8492   0.987   1.113   2.692  1.2597 -1.0784 -1.8512
   88SLPC   O31 8493   1.103   0.991   2.841  0.4776  0.1519  0.0861
   88SLPC   C31 8494   1.218   1.028   2.802  0.0289  1.5551 -0.1584
   88SLPC   O32 8495   1.238   1.091   2.700  0.0252 -0.0482  0.5177
   88SLPC   C32 8496   1.323   0.985   2.899  0.4505  0.4578 -0.2561
   88SLPC   H2X 8497   1.425   1.015   2.867  0.9108 -1.2144 -0.4558
   88SLPC   H2Y 8498   1.314   0.874   2.895  1.5276  0.3765 -0.6613
   88SLPC   C23 8499   1.053   0.457   2.841  0.3981  0.0631 -0.6170
   88SLPC   H3R 8500   1.155   0.484   2.874  0.8172  0.0769 -1.8774
   88SLPC   H3S 8501   1.066   0.422   2.736  0.8973 -0.6870 -0.3091
   88SLPC   C24 8502   1.003   0.328   2.922 -0.1152  0.6858  0.1272
   88SLPC   H4R 8503   1.086   0.254   2.925  0.7472  1.5396 -1.4648
   88SLPC   H4S 8504   0.914   0.293   2.865 -0.3486  2.5833 -0.7657
   88SLPC   C25 8505   0.971   0.361   3.061  0.8910 -0.5358 -0.1557
   88SLPC   H5R 8506   0.883   0.427   3.068  1.9701  0.8249  1.0343
   88SLPC   H5S 8507   1.057   0.408   3.112  0.4587 -0.0973  0.1707
   88SLPC   C26 8508   0.939   0.235   3.144 -1.2791 -0.2245  0.2221
   88SLPC   H6R 8509   1.018   0.160   3.124 -0.2523  1.6128 -3.7814
   88SLPC   H6S 8510   0.846   0.191   3.102 -1.6578 -0.0598  0.8881
   88SLPC   C27 8511   0.922   0.267   3.292 -0.3686  0.4652 -0.2825
   88SLPC   H7R 8512   0.838   0.338   3.311  1.0409  2.4292 -1.0331
   88SLPC   H7S 8513   1.016   0.317   3.325 -0.9479  0.8549  0.8241
   88SLPC   C28 8514   0.908   0.142   3.376  0.2680 -0.4975 -0.5445
   88SLPC   H8R 8515   0.949   0.164   3.476  0.7312 -2.4554 -0.2590
   88SLPC   H8S 8516   0.960   0.052   3.337 -1.0308 -0.5635 -2.2687
   88SLPC   C29 8517   0.767   0.089   3.390 -0.0923  0.3435  0.0797
   88SLPC   H9R 8518   0.715   0.055   3.299 -1.1665  0.8329  0.4927
   88SLPC  C210 8519   0.704   0.080   3.508  0.1666 -0.3462 -0.2333
   88SLPC  H10R 8520   0.609   0.025   3.512  0.6677 -1.1556  0.6766
   88SLPC  C211 8521   0.751   0.128   3.646  0.2480 -0.2783 -0.8346
   88SLPC  H11R 8522   0.857   0.162   3.644  0.0871  0.2634 -0.4986
   88SLPC  H11S 8523   0.743   0.047   3.721  1.8961  0.6596  0.4449
   88SLPC  C212 8524   0.676   0.255   3.689  0.5213  0.5528  0.6592
   88SLPC  H12R 8525   0.719   0.353   3.661  0.7638  0.4087  0.5183
   88SLPC  C213 8526   0.575   0.269   3.775 -0.0489 -0.0148 -0.1200
   88SLPC  H13R 8527   0.534   0.370   3.789 -1.1855 -0.3612 -0.7871
   88SLPC  C214 8528   0.508   0.157   3.840  0.2286 -0.5235  0.1184
   88SLPC  H14R 8529   0.545   0.055   3.814  0.2363 -0.6310  0.5356
   88SLPC  H14S 8530   0.399   0.153   3.818  0.2041  1.6123 -0.3900
   88SLPC  C215 8531   0.528   0.169   3.993  0.1996  0.3905 -0.0509
   88SLPC  H15R 8532   0.634   0.191   4.014  0.2845 -0.1304  0.0770
   88SLPC  H15S 8533   0.491   0.076   4.042 -2.2796  1.3849  0.1188
   88SLPC  C216 8534   0.444   0.287   4.055 -0.1468 -0.1290 -0.3881
   88SLPC  H16R 8535   0.465   0.379   3.995 -0.7069 -0.9017 -1.8345
   88SLPC  H16S 8536   0.487   0.292   4.157  2.4161 -0.7456 -1.3664
   88SLPC  C217 8537   0.292   0.266   4.048  0.2273  0.0819  0.6005
   88SLPC  H17R 8538   0.271   0.162   4.014  0.0102  0.6452 -1.0848
   88SLPC  H17S 8539   0.251   0.333   3.970 -0.5130 -0.3662  0.5928
   88SLPC  C218 8540   0.214   0.304   4.177 -0.0940  0.5326  0.4034
   88SLPC  H18R 8541   0.248   0.242   4.262  0.5557 -2.8092 -2.0753
   88SLPC  H18S 8542   0.104   0.303   4.163  0.1391  3.4753 -3.4478
   88SLPC  H18T 8543   0.231   0.413   4.190  1.2177  0.2054  1.5563
   88SLPC   C33 8544   1.309   1.037   3.042  0.9324 -0.0178  0.4781
   88SLPC   H3X 8545   1.201   1.028   3.068 -0.1299 -0.4927 -3.3939
   88SLPC   H3Y 8546   1.330   1.146   3.037  0.6232  0.0478  0.5905
   88SLPC   C34 8547   1.377   0.971   3.152 -0.0446 -0.0982  0.1208
   88SLPC   H4X 8548   1.485   0.964   3.129 -0.3712  0.5130 -1.7572
   88SLPC   H4Y 8549   1.342   0.866   3.165 -0.2639 -0.0872 -0.3527
   88SLPC   C35 8550   1.358   1.051   3.287  0.4177  0.9905 -0.5206
   88SLPC   H5X 8551   1.249   1.043   3.306  0.5748  2.5295  1.1994
   88SLPC   H5Y 8552   1.388   1.157   3.285 -0.2709  1.2298  0.7919
   88SLPC   C36 8553   1.436   1.000   3.409 -0.2683  0.0011 -0.0564
   88SLPC   H6X 8554   1.542   1.029   3.399  0.2582 -0.8175  2.3505
   88SLPC   H6Y 8555   1.429   0.889   3.401 -2.2296 -0.0982  1.8354
   88SLPC   C37 8556   1.367   1.030   3.543  0.3350 -0.5951 -0.5833
   88SLPC   H7X 8557   1.266   0.986   3.558  0.6047 -0.4210  2.3160
   88SLPC   H7Y 8558   1.355   1.140   3.541  1.9417 -0.3982 -0.5345
   88SLPC   C38 8559   1.454   0.980   3.662  0.3458 -0.4102 -0.3695
   88SLPC   H8X 8560   1.408   1.031   3.749 -0.1149  0.9732 -1.3987
   88SLPC   H8Y 8561   1.563   1.003   3.657  0.5449 -0.8140  1.2689
   88SLPC   C39 8562   1.444   0.826   3.681 -0.1379  1.0124  0.8400
   88SLPC   H9X 8563   1.506   0.775   3.604  0.0590  2.1116  0.2490
   88SLPC   H9Y 8564   1.336   0.802   3.677  0.0341 -0.3839  2.7433
   88SLPC  C310 8565   1.484   0.785   3.824 -0.1994 -1.1730  0.2291
   88SLPC  H10X 8566   1.429   0.845   3.899 -1.3256 -1.5201 -0.3045
   88SLPC  H10Y 8567   1.589   0.819   3.842 -0.9788  2.4837 -1.3060
   88SLPC  C311 8568   1.478   0.630   3.853  0.3151  0.4739  0.0005
   88SLPC  H11X 8569   1.529   0.586   3.764  3.1151 -1.0678  2.1934
   88SLPC  H11Y 8570   1.376   0.587   3.859  0.9486 -1.3728 -1.5013
   88SLPC  C312 8571   1.570   0.582   3.956 -0.2820  0.4077 -0.3015
   88SLPC  H12X 8572   1.672   0.615   3.928  0.5037  0.2576  2.1234
   88SLPC  H12Y 8573   1.564   0.473   3.973 -2.2133  0.4681 -0.3746
   88SLPC  C313 8574   1.546   0.640   4.095  0.1389  0.5459  0.2489
   88SLPC  H13X 8575   1.438   0.633   4.121  0.2764  0.2267  0.7349
   88SLPC  H13Y 8576   1.581   0.744   4.077  3.1452 -0.4750 -0.3344
   88SLPC  C314 8577   1.644   0.592   4.200 -0.2689  0.2069  0.1412
   88SLPC  H14X 8578   1.743   0.588   4.151 -0.8299 -2.7156 -0.9288
   88SLPC  H14Y 8579   1.625   0.484   4.221 -0.7506  0.2722  0.0652
   88SLPC  C315 8580   1.644   0.682   4.323 -0.2301 -0.5312 -0.3671
   88SLPC  H15X 8581   1.543   0.651   4.357 -0.4806 -0.4799 -1.0455
   88SLPC  H15Y 8582   1.638   0.790   4.297  0.3550  0.4517  3.0834
   88SLPC  C316 8583   1.761   0.641   4.419  1.2336  0.9345  0.4883
   88SLPC  H16X 8584   1.749   0.531   4.424 -0.0108  1.0673  0.7936
   88SLPC  H16Y 8585   1.757   0.684   4.521 -0.6053 -1.0746  1.3243
   88SLPC  C317 8586   1.898   0.655   4.367  0.4387  0.2263  0.1998
   88SLPC  H17X 8587   1.914   0.622   4.262  1.3117  1.7654 -0.1860
   88SLPC  H17Y 8588   1.972   0.600   4.430 -1.5020 -0.6812  1.7989
   88SLPC  C318 8589   1.947   0.813   4.360 -0.2473  0.4127 -0.8523
   88SLPC  H18X 8590   1.914   0.876   4.445  0.0904  1.2338 -1.3172
   88SLPC  H18Y 8591   1.915   0.862   4.266 -2.6296  0.6743  0.0224
   88SLPC  H18Z 8592   2.057   0.810   4.350  0.0905  1.0166  1.9014
   89SAPE     N 8593   5.217   2.477   6.524  0.1392  0.1404 -0.7075
   89SAPE   HN1 8594   5.206   2.519   6.429 -0.6324  1.9629  0.1520
   89SAPE   HN2 8595   5.250   2.378   6.528  1.4304  0.2845 -4.1995
   89SAPE   HN3 8596   5.128   2.494   6.575 -0.0927  2.5790 -1.8015
   89SAPE   C12 8597   5.322   2.557   6.600 -0.1908 -0.2261  0.2319
   89SAPE  H12A 8598   5.350   2.494   6.687  0.3672 -1.0949 -0.5468
   89SAPE  H12B 8599   5.282   2.658   6.624  2.4245  0.8154  0.5243
   89SAPE   C11 8600   5.454   2.565   6.503 -0.6223  0.2172 -0.0926
   89SAPE  H11A 8601   5.499   2.464   6.493  0.4319  0.6177  0.4423
   89SAPE  H11B 8602   5.527   2.633   6.552 -1.5742  0.2749  1.3148
   89SAPE     P 8603   5.427   2.774   6.332 -0.1197  0.3696  0.2451
   89SAPE   O13 8604   5.372   2.783   6.196  0.7633 -0.0883 -0.1604
   89SAPE   O14 8605   5.365   2.848   6.440  0.2247  0.0528 -0.1294
   89SAPE   O12 8606   5.411   2.620   6.374  0.3472  0.0185 -0.7137
   89SAPE   O11 8607   5.580   2.794   6.345 -1.0540  0.2323  0.4500
   89SAPE    C1 8608   5.668   2.716   6.265  0.5612 -0.2572  0.2197
   89SAPE    HA 8609   5.656   2.608   6.289  2.4829 -0.3137  1.0905
   89SAPE    HB 8610   5.640   2.719   6.157 -1.6148 -2.5588  0.6315
   89SAPE    C2 8611   5.817   2.741   6.266  0.5679 -0.0088 -0.3110
   89SAPE    HS 8612   5.851   2.760   6.370  3.4973 -1.1365 -0.9673
   89SAPE   O21 8613   5.837   2.850   6.179 -0.6834 -0.0876 -0.1475
   89SAPE   C21 8614   5.944   2.928   6.222  0.0599  0.0594 -0.0325
   89SAPE   O22 8615   6.009   2.924   6.323  0.6514 -0.1730  0.1346
   89SAPE   C22 8616   5.956   3.036   6.117  0.6786  0.6536  0.2598
   89SAPE   H2R 8617   5.974   2.971   6.029 -0.2607 -0.1934  0.6771
   89SAPE   H2S 8618   5.863   3.093   6.098 -2.7305 -3.7963  1.7133
   89SAPE    C3 8619   5.909   2.622   6.223  0.0347 -0.1112 -0.4384
   89SAPE    HX 8620   5.876   2.540   6.290  0.5168 -1.9791 -2.3670
   89SAPE    HY 8621   6.014   2.647   6.249  0.0581 -0.4058 -0.2365
   89SAPE   O31 8622   5.879   2.577   6.083 -0.2311  0.0654 -0.3839
   89SAPE   C31 8623   5.977   2.621   6.000  0.1922  0.6510  0.4477
   89SAPE   O32 8624   6.077   2.673   6.038  0.4531 -0.4993  0.3711
   89SAPE   C32 8625   5.944   2.582   5.854  0.3025  0.6186 -0.0650
   89SAPE   H2X 8626   5.855   2.643   5.826 -0.2770 -0.7694 -1.3635
   89SAPE   H2Y 8627   5.917   2.475   5.848 -0.8494  0.9329 -1.0544
   89SAPE   C23 8628   6.078   3.123   6.133  1.1010 -0.4573 -0.3784
   89SAPE   H3R 8629   6.080   3.154   6.239  0.7541 -1.4210 -0.0853
   89SAPE   H3S 8630   6.054   3.212   6.070 -0.6784 -0.9840 -0.5179
   89SAPE   C24 8631   6.218   3.075   6.100  0.2274  0.1653  0.0077
   89SAPE   H4R 8632   6.250   2.998   6.174  0.6965  0.9069  0.5903
   89SAPE   H4S 8633   6.298   3.151   6.107  1.1814 -0.7015 -1.0083
   89SAPE   C25 8634   6.219   3.028   5.956 -0.4244  0.0353  1.0308
   89SAPE   H5R 8635   6.169   2.930   5.950 -0.1455 -0.1586  1.7689
   89SAPE   C26 8636   6.273   3.092   5.850 -0.3592 -0.9162 -0.3876
   89SAPE   H6R 8637   6.253   3.041   5.754  0.5884 -0.5370 -0.8053
   89SAPE   C27 8638   6.338   3.228   5.844  0.0868  0.1873 -0.6011
   89SAPE   H7R 8639   6.434   3.219   5.788 -0.6854  0.2322 -1.9595
   89SAPE   H7S 8640   6.363   3.274   5.942  1.8566  1.7946 -1.7290
   89SAPE   C28 8641   6.245   3.335   5.780 -0.0385 -0.7000  0.7920
   89SAPE   H8R 8642   6.161   3.371   5.842  0.4276 -0.5117  1.3268
   89SAPE   C29 8643   6.242   3.359   5.642  0.3068  0.0311 -0.1691
   89SAPE   H9R 8644   6.171   3.436   5.608 -1.2781 -0.9175  0.9167
   89SAPE  C210 8645   6.330   3.313   5.532 -0.4300 -0.2294 -0.1946
   89SAPE  H10R 8646   6.273   3.307   5.437 -1.6484  1.8805  0.3224
   89SAPE  H10S 8647   6.369   3.214   5.563 -0.7771 -0.2941  0.0390
   89SAPE  C211 8648   6.459   3.391   5.523  0.4521 -0.1079 -0.0062
   89SAPE  H11R 8649   6.485   3.450   5.612 -3.4577  1.6121  0.1936
   89SAPE  C212 8650   6.536   3.397   5.409  0.0139 -0.1997  0.0190
   89SAPE  H12R 8651   6.628   3.456   5.415  0.2726 -0.6829  1.0885
   89SAPE  C213 8652   6.510   3.333   5.272 -0.1932 -0.0107 -0.6777
   89SAPE  H13R 8653   6.432   3.401   5.231 -1.4845  0.9633  2.9861
   89SAPE  H13S 8654   6.464   3.233   5.286 -3.4326  1.3527 -0.5886
   89SAPE  C214 8655   6.632   3.316   5.183  0.5392 -0.1701 -0.4695
   89SAPE  H14R 8656   6.699   3.240   5.225 -0.2235 -0.1710  0.8202
   89SAPE  C215 8657   6.659   3.384   5.070  0.4555 -0.2725  0.2523
   89SAPE  H15R 8658   6.756   3.362   5.023  1.5227 -0.3878  2.3923
   89SAPE  C216 8659   6.581   3.486   4.991  0.8162 -0.5293  0.0675
   89SAPE  H16R 8660   6.636   3.582   4.993  0.5555 -0.3854  1.4466
   89SAPE  H16S 8661   6.482   3.511   5.035  0.8409  3.4516 -1.7219
   89SAPE  C217 8662   6.542   3.441   4.842 -0.1087 -0.7983  0.4043
   89SAPE  H17R 8663   6.467   3.505   4.791 -0.1683 -1.9559 -1.0227
   89SAPE  H17S 8664   6.499   3.339   4.854  2.2596 -1.7692  1.2389
   89SAPE  C218 8665   6.660   3.433   4.748  0.1615 -0.1769 -0.3440
   89SAPE  H18R 8666   6.729   3.348   4.765  0.8694  0.6647  1.1719
   89SAPE  H18S 8667   6.725   3.522   4.754  0.8827 -0.5553 -2.0323
   89SAPE  C219 8668   6.627   3.414   4.601  0.4650  0.2516  0.0378
   89SAPE  H19R 8669   6.564   3.498   4.567 -0.4838 -0.4703 -0.0337
   89SAPE  H19S 8670   6.568   3.321   4.587  1.0951  0.0574 -1.5953
   89SAPE  C220 8671   6.760   3.402   4.512 -0.6361  0.4047 -1.3750
   89SAPE  H20R 8672   6.717   3.378   4.412 -1.8426  0.1838 -0.8200
   89SAPE  H20S 8673   6.825   3.325   4.559  0.1732  2.3358  0.8370
   89SAPE  H20T 8674   6.808   3.502   4.514  1.6024 -0.6268  0.5060
   89SAPE   C33 8675   6.057   2.617   5.763 -0.5027 -0.3044 -0.0848
   89SAPE   H3X 8676   6.131   2.534   5.766  0.3318  0.4493  0.7968
   89SAPE   H3Y 8677   6.110   2.708   5.797 -2.7060  1.5168 -1.2017
   89SAPE   C34 8678   6.018   2.635   5.616  0.2478 -0.2620  0.0250
   89SAPE   H4X 8679   5.970   2.538   5.591 -1.4036  0.6501 -0.4867
   89SAPE   H4Y 8680   6.107   2.628   5.550 -1.6070  1.0700 -2.7981
   89SAPE   C35 8681   5.922   2.748   5.581  0.2865 -0.5563  0.6320
   89SAPE   H5X 8682   5.924   2.828   5.658 -0.1531 -1.2429  1.3555
   89SAPE   H5Y 8683   5.819   2.708   5.579  0.1152 -0.3205 -3.3765
   89SAPE   C36 8684   5.929   2.806   5.439  0.4841 -0.2156 -0.5890
   89SAPE   H6X 8685   6.027   2.857   5.434 -0.2472  1.4777  1.2259
   89SAPE   H6Y 8686   5.851   2.885   5.431  1.0825  0.6799  1.6633
   89SAPE   C37 8687   5.900   2.705   5.322  0.1958  0.5548 -0.1651
   89SAPE   H7X 8688   5.820   2.633   5.347  1.4332 -1.0855 -0.7200
   89SAPE   H7Y 8689   5.989   2.640   5.306 -0.0132 -0.0989  1.1614
   89SAPE   C38 8690   5.871   2.790   5.196 -0.7112 -0.1907 -0.1331
   89SAPE   H8X 8691   5.961   2.851   5.174  0.3223 -0.7054  2.3328
   89SAPE   H8Y 8692   5.780   2.850   5.215 -0.6851 -0.9050  2.7096
   89SAPE   C39 8693   5.843   2.693   5.080  0.1290 -1.3099  0.8931
   89SAPE   H9X 8694   5.746   2.638   5.082 -1.3297  1.0997  0.6281
   89SAPE   H9Y 8695   5.921   2.615   5.074  2.3140  0.7174  1.3148
   89SAPE  C310 8696   5.856   2.761   4.936 -0.0729  0.2088 -0.6415
   89SAPE  H10X 8697   5.948   2.823   4.928  1.0192 -1.4965 -1.9984
   89SAPE  H10Y 8698   5.770   2.831   4.924 -1.9692 -1.2451  2.9117
   89SAPE  C311 8699   5.853   2.653   4.825 -0.3505  0.1946 -0.1422
   89SAPE  H11X 8700   5.814   2.706   4.735 -1.7314  1.0309  0.9019
   89SAPE  H11Y 8701   5.776   2.575   4.842  0.5382 -0.8377 -0.6944
   89SAPE  C312 8702   5.991   2.591   4.802  0.0905  0.0773  0.2120
   89SAPE  H12X 8703   6.018   2.516   4.880  0.0326 -0.6832 -0.4889
   89SAPE  H12Y 8704   6.065   2.673   4.818  0.3368 -0.1903  0.4625
   89SAPE  C313 8705   6.008   2.513   4.667  0.1331 -0.1134 -0.6354
   89SAPE  H13X 8706   5.985   2.585   4.585 -0.1587  1.5278  0.8035
   89SAPE  H13Y 8707   5.936   2.429   4.679 -1.5644  1.5043  1.4976
   89SAPE  C314 8708   6.154   2.462   4.658 -0.0060  0.3558  0.2244
   89SAPE  H14X 8709   6.177   2.416   4.756 -1.2927 -0.7488  0.0420
   89SAPE  H14Y 8710   6.218   2.553   4.655 -0.4892  0.6882 -0.5022
   89SAPE  C315 8711   6.175   2.371   4.537 -0.7793  0.2819  0.2168
   89SAPE  H15X 8712   6.151   2.409   4.435  1.3242  0.0977 -0.4143
   89SAPE  H15Y 8713   6.113   2.280   4.547  3.1914 -2.6662  0.6248
   89SAPE  C316 8714   6.318   2.312   4.535  0.0963  0.1130 -0.4369
   89SAPE  H16X 8715   6.324   2.258   4.632  1.7999  1.4828  0.2908
   89SAPE  H16Y 8716   6.397   2.391   4.535 -0.2260  0.4515 -1.4501
   89SAPE  C317 8717   6.351   2.221   4.422  0.0013  0.3082 -0.1149
   89SAPE  H17X 8718   6.278   2.136   4.424  0.0628  0.2445 -0.4846
   89SAPE  H17Y 8719   6.455   2.182   4.424 -0.6114 -1.4299  0.0987
   89SAPE  C318 8720   6.328   2.287   4.287  0.8230 -0.0470  0.6458
   89SAPE  H18X 8721   6.223   2.311   4.260  0.3487 -1.4162  1.2097
   89SAPE  H18Y 8722   6.362   2.207   4.217  0.5299 -0.3739  0.8781
   89SAPE  H18Z 8723   6.387   2.377   4.259  2.4535 -1.7317 -1.7093
   90SAPE     N 8724   1.423   2.971   7.271  1.4459  0.2759 -0.2946
   90SAPE   HN1 8725   1.418   2.996   7.372  1.6135  3.5594 -0.9927
   90SAPE   HN2 8726   1.455   2.872   7.273 -0.3834 -0.3564 -0.3493
   90SAPE   HN3 8727   1.500   3.025   7.226  0.8207  2.5101  1.1367
   90SAPE   C12 8728   1.286   2.987   7.206  0.3427 -0.5115  0.1514
   90SAPE  H12A 8729   1.246   3.087   7.233 -0.2131 -0.6518 -0.1398
   90SAPE  H12B 8730   1.216   2.910   7.245  1.7833 -1.7844  0.3154
   90SAPE   C11 8731   1.294   2.968   7.054  0.9771  0.1839  1.1257
   90SAPE  H11A 8732   1.333   2.869   7.024 -0.9575  0.7107 -4.0528
   90SAPE  H11B 8733   1.366   3.038   7.006 -0.4899  1.9127  1.3096
   90SAPE     P 8734   1.091   2.860   6.956 -0.4206  0.1318 -0.1841
   90SAPE   O13 8735   1.082   2.771   7.077  0.1538  0.1336 -0.8796
   90SAPE   O14 8736   0.966   2.885   6.892  0.7122 -0.7822  0.5552
   90SAPE   O12 8737   1.165   2.991   6.999 -0.2263 -0.0610 -0.0412
   90SAPE   O11 8738   1.184   2.787   6.841  0.1247  0.0620 -0.2269
   90SAPE    C1 8739   1.235   2.854   6.730  0.5272 -0.1334  0.3417
   90SAPE    HA 8740   1.213   2.963   6.733  2.0807  0.1908  0.5964
   90SAPE    HB 8741   1.346   2.854   6.733  0.5519  0.8350 -0.1361
   90SAPE    C2 8742   1.188   2.806   6.592 -0.5210 -0.3356  0.1759
   90SAPE    HS 8743   1.083   2.842   6.585 -1.4984 -3.2959 -2.5609
   90SAPE   O21 8744   1.177   2.663   6.589 -0.1895  0.4055  0.2955
   90SAPE   C21 8745   1.080   2.612   6.505 -0.3064  0.1159 -0.0651
   90SAPE   O22 8746   0.977   2.669   6.467 -0.0594 -0.0190 -0.0312
   90SAPE   C22 8747   1.133   2.481   6.446 -0.4476 -0.0016  0.5650
   90SAPE   H2R 8748   1.209   2.505   6.369 -0.2113 -2.2243  0.0266
   90SAPE   H2S 8749   1.183   2.413   6.518  0.7856  1.1394  0.8180
   90SAPE    C3 8750   1.261   2.886   6.483 -0.0221  0.7121 -0.3538
   90SAPE    HX 8751   1.370   2.865   6.494 -0.4630 -0.2051  4.0047
   90SAPE    HY 8752   1.255   2.994   6.504 -0.7270  0.1862  2.5013
   90SAPE   O31 8753   1.203   2.877   6.347 -0.1540 -0.5160  0.1431
   90SAPE   C31 8754   1.251   2.780   6.272  0.4360 -0.0142  0.0932
   90SAPE   O32 8755   1.345   2.705   6.303  0.2840 -0.6308 -0.3919
   90SAPE   C32 8756   1.164   2.763   6.145  0.2106  0.1417  0.2192
   90SAPE   H2X 8757   1.188   2.847   6.076  1.6892 -2.1939 -2.2841
   90SAPE   H2Y 8758   1.056   2.770   6.167 -0.5625  0.4417 -3.1255
   90SAPE   C23 8759   1.023   2.405   6.366 -0.5900 -0.8518 -0.4416
   90SAPE   H3R 8760   0.973   2.480   6.301 -0.4054  0.6951  1.1364
   90SAPE   H3S 8761   0.945   2.362   6.432 -0.6369 -0.2987 -0.1310
   90SAPE   C24 8762   1.079   2.290   6.289 -0.3391  0.3548 -0.0230
   90SAPE   H4R 8763   1.132   2.229   6.365 -0.7088  0.4301  0.2941
   90SAPE   H4S 8764   1.165   2.334   6.234  0.0607 -0.8867 -0.4202
   90SAPE   C25 8765   0.994   2.199   6.210  0.1122 -0.9749 -0.1381
   90SAPE   H5R 8766   0.914   2.158   6.274 -2.8187  1.5694 -1.9047
   90SAPE   C26 8767   0.979   2.192   6.077 -0.8123 -0.0938 -0.3926
   90SAPE   H6R 8768   0.909   2.124   6.026 -0.3241  0.3691 -1.7197
   90SAPE   C27 8769   1.075   2.267   5.981 -0.1875  0.0757 -0.1102
   90SAPE   H7R 8770   1.179   2.273   6.021 -0.3087  2.7114 -0.0247
   90SAPE   H7S 8771   1.039   2.372   5.983 -1.4383 -0.3396  0.4932
   90SAPE   C28 8772   1.072   2.206   5.845 -0.0146  1.0164  0.0323
   90SAPE   H8R 8773   1.113   2.104   5.843  0.6273  1.2760 -1.8650
   90SAPE   C29 8774   1.045   2.260   5.725 -0.0034 -0.1853  0.0878
   90SAPE   H9R 8775   1.044   2.201   5.633  0.8249 -1.0115  0.5938
   90SAPE  C210 8776   1.014   2.411   5.706  0.2918 -0.3233 -0.2010
   90SAPE  H10R 8777   1.109   2.454   5.670 -0.5524 -1.3512 -4.0868
   90SAPE  H10S 8778   0.990   2.474   5.795 -1.0186  1.0744 -1.4852
   90SAPE  C211 8779   0.904   2.427   5.602 -0.1381 -0.0043  0.1125
   90SAPE  H11R 8780   0.802   2.400   5.633 -0.4614  1.5278  0.4864
   90SAPE  C212 8781   0.925   2.460   5.469 -0.2069  0.3535  0.0867
   90SAPE  H12R 8782   0.848   2.473   5.392  2.7093  1.5978 -2.8680
   90SAPE  C213 8783   1.056   2.471   5.403 -0.3766  0.0147  0.1577
   90SAPE  H13R 8784   1.139   2.449   5.473 -0.6218  0.1755  0.5024
   90SAPE  H13S 8785   1.083   2.574   5.369  1.9868 -0.6739 -0.2217
   90SAPE  C214 8786   1.071   2.375   5.287 -0.5559  0.2767  0.5860
   90SAPE  H14R 8787   1.141   2.291   5.299 -0.4897  0.0646 -1.0707
   90SAPE  C215 8788   1.021   2.389   5.164  0.3404  0.0353 -0.2404
   90SAPE  H15R 8789   1.050   2.316   5.086  2.0718 -0.2290  0.6048
   90SAPE  C216 8790   0.943   2.497   5.095 -0.2355 -0.4356  0.0108
   90SAPE  H16R 8791   1.022   2.560   5.049 -2.5660 -1.0821 -5.6461
   90SAPE  H16S 8792   0.893   2.570   5.162  1.2536  2.0484 -1.4339
   90SAPE  C217 8793   0.834   2.437   4.993 -0.0217 -0.1091  0.1878
   90SAPE  H17R 8794   0.762   2.369   5.043 -0.7803  0.5070 -0.0558
   90SAPE  H17S 8795   0.878   2.376   4.911  0.0336  0.7847 -0.4657
   90SAPE  C218 8796   0.751   2.552   4.931 -0.3270  0.7885 -0.1321
   90SAPE  H18R 8797   0.818   2.623   4.879  0.7716 -0.4747 -0.5117
   90SAPE  H18S 8798   0.703   2.607   5.015 -0.8151  2.9710 -1.7440
   90SAPE  C219 8799   0.637   2.499   4.839  0.4447 -0.2641  0.9408
   90SAPE  H19R 8800   0.568   2.585   4.821  1.1954 -0.0801 -1.4096
   90SAPE  H19S 8801   0.589   2.417   4.897  0.5100 -1.4520 -0.6036
   90SAPE  C220 8802   0.676   2.444   4.704 -0.4945  0.3128  0.3048
   90SAPE  H20R 8803   0.743   2.515   4.652 -0.5669 -0.4864 -0.9273
   90SAPE  H20S 8804   0.582   2.425   4.647  0.9120 -1.5150 -1.5424
   90SAPE  H20T 8805   0.723   2.346   4.724 -0.6557  0.3110  0.6924
   90SAPE   C33 8806   1.188   2.631   6.065  0.1874  0.4823 -0.1422
   90SAPE   H3X 8807   1.095   2.569   6.072 -0.1669  1.1878  3.1813
   90SAPE   H3Y 8808   1.253   2.566   6.127 -1.0876  1.3117  2.1597
   90SAPE   C34 8809   1.223   2.640   5.914  0.1776 -0.1407 -0.2291
   90SAPE   H4X 8810   1.129   2.664   5.861 -0.0276 -0.8045 -0.1795
   90SAPE   H4Y 8811   1.239   2.545   5.858  0.9207 -0.9217  1.2310
   90SAPE   C35 8812   1.338   2.731   5.886  0.2461 -0.0041  0.1667
   90SAPE   H5X 8813   1.431   2.673   5.906  0.5483  0.6248  0.6068
   90SAPE   H5Y 8814   1.320   2.824   5.943 -0.1364 -0.6914  1.1872
   90SAPE   C36 8815   1.356   2.784   5.750  0.1823 -0.1048  0.2410
   90SAPE   H6X 8816   1.431   2.866   5.745 -2.1199  2.0174 -2.4607
   90SAPE   H6Y 8817   1.263   2.826   5.706  0.7776  2.3006  1.1227
   90SAPE   C37 8818   1.392   2.672   5.654  0.2851 -0.0590 -0.0480
   90SAPE   H7X 8819   1.320   2.589   5.670 -1.5029  1.0893 -1.7100
   90SAPE   H7Y 8820   1.498   2.639   5.661  0.1862 -0.5745 -0.7802
   90SAPE   C38 8821   1.364   2.714   5.512 -0.1299 -0.0957  0.4433
   90SAPE   H8X 8822   1.421   2.806   5.486 -2.8127  1.4627 -0.4284
   90SAPE   H8Y 8823   1.257   2.734   5.489  0.3183  1.4236 -0.4846
   90SAPE   C39 8824   1.417   2.597   5.425  0.1811 -0.1350 -0.3614
   90SAPE   H9X 8825   1.349   2.512   5.447 -0.1383  0.3924  0.7500
   90SAPE   H9Y 8826   1.517   2.565   5.462 -0.0710  0.5200  0.9347
   90SAPE  C310 8827   1.429   2.635   5.281 -0.5740  0.1818  0.3618
   90SAPE  H10X 8828   1.492   2.726   5.285  0.6271 -0.6526  3.4676
   90SAPE  H10Y 8829   1.326   2.664   5.249 -0.6738 -0.9901 -0.4491
   90SAPE  C311 8830   1.501   2.526   5.196 -0.1041 -0.3040 -0.0308
   90SAPE  H11X 8831   1.441   2.438   5.166  1.5263 -1.8025  0.9239
   90SAPE  H11Y 8832   1.584   2.488   5.258  0.6017 -2.0148 -1.9096
   90SAPE  C312 8833   1.564   2.566   5.060 -0.4760 -0.1060 -0.4034
   90SAPE  H12X 8834   1.646   2.504   5.020 -0.2354 -1.0572  1.4471
   90SAPE  H12Y 8835   1.610   2.667   5.070 -1.3117  0.2354  0.2035
   90SAPE  C313 8836   1.463   2.585   4.958 -0.1413 -0.0648 -0.4736
   90SAPE  H13X 8837   1.532   2.632   4.885  0.2835  0.4100  0.2136
   90SAPE  H13Y 8838   1.379   2.656   4.974 -0.1572  0.2564 -1.8343
   90SAPE  C314 8839   1.405   2.451   4.913 -0.0660  0.4528 -1.0304
   90SAPE  H14X 8840   1.308   2.434   4.964 -0.1989 -3.9247 -2.3141
   90SAPE  H14Y 8841   1.468   2.363   4.939  0.3066  1.1210  0.4094
   90SAPE  C315 8842   1.410   2.433   4.760 -0.0213  0.1680 -0.0569
   90SAPE  H15X 8843   1.403   2.323   4.749 -1.8899  0.2312  0.0193
   90SAPE  H15Y 8844   1.507   2.476   4.727  0.2966 -0.4382  0.0777
   90SAPE  C316 8845   1.300   2.508   4.681  0.7240 -0.1817  0.0440
   90SAPE  H16X 8846   1.297   2.472   4.576 -2.8001  0.4147 -0.1579
   90SAPE  H16Y 8847   1.325   2.616   4.675  0.0595 -0.0558 -0.5456
   90SAPE  C317 8848   1.163   2.494   4.739  0.2911 -0.2460 -0.0312
   90SAPE  H17X 8849   1.152   2.548   4.835  1.6251 -1.0743  0.6157
   90SAPE  H17Y 8850   1.145   2.385   4.747  0.1675 -0.2260 -0.0409
   90SAPE  C318 8851   1.054   2.558   4.649  0.3783  0.4525 -0.5247
   90SAPE  H18X 8852   0.957   2.546   4.702  0.5137 -1.7727 -0.6990
   90SAPE  H18Y 8853   1.035   2.510   4.551  0.6779 -0.2818 -0.2289
   90SAPE  H18Z 8854   1.073   2.667   4.638 -0.1762  0.5433 -0.6155
   91SAPE     N 8855   4.949   3.093   6.513 -0.3216  0.6184 -0.0384
   91SAPE   HN1 8856   4.917   3.057   6.421 -0.1313 -1.7274  0.7309
   91SAPE   HN2 8857   5.031   3.155   6.494 -0.4989  0.7929 -0.2423
   91SAPE   HN3 8858   4.975   3.004   6.559 -1.4297  0.1226 -0.3421
   91SAPE   C12 8859   4.827   3.141   6.590 -0.4193  0.5565 -0.1866
   91SAPE  H12A 8860   4.794   3.235   6.540 -0.4157 -0.2847 -1.8453
   91SAPE  H12B 8861   4.856   3.150   6.697 -1.4849 -1.6332  0.3420
   91SAPE   C11 8862   4.718   3.029   6.585  0.3053  0.7033  0.6817
   91SAPE  H11A 8863   4.673   3.035   6.484  0.3922  1.7327  0.6940
   91SAPE  H11B 8864   4.639   3.069   6.652 -0.7750  0.4030 -0.3661
   91SAPE     P 8865   4.664   2.784   6.645  0.1068  0.0771 -0.5274
   91SAPE   O13 8866   4.730   2.669   6.712 -0.3253 -0.6893  0.5587
   91SAPE   O14 8867   4.531   2.833   6.699  0.4767  0.4273  0.1700
   91SAPE   O12 8868   4.769   2.908   6.631  0.7395  0.9846  0.1771
   91SAPE   O11 8869   4.641   2.756   6.494  0.9677 -0.1114  0.1462
   91SAPE    C1 8870   4.730   2.690   6.400  0.3307 -0.6921 -0.2456
   91SAPE    HA 8871   4.835   2.704   6.433 -0.6288  1.3474  2.3349
   91SAPE    HB 8872   4.707   2.582   6.394 -0.2325 -0.6385  0.7463
   91SAPE    C2 8873   4.704   2.750   6.256  0.1796  0.0017  0.1374
   91SAPE    HS 8874   4.725   2.858   6.270 -2.4298  0.4079  1.5205
   91SAPE   O21 8875   4.573   2.717   6.207  0.2824  0.4032  0.6875
   91SAPE   C21 8876   4.463   2.769   6.253 -0.0923 -0.7907 -0.5772
   91SAPE   O22 8877   4.462   2.878   6.316 -0.1197  0.2146  0.5127
   91SAPE   C22 8878   4.347   2.680   6.214  0.1863  0.0666 -0.2338
   91SAPE   H2R 8879   4.380   2.576   6.232  1.8485  0.3933 -1.1515
   91SAPE   H2S 8880   4.260   2.715   6.274 -0.5725 -0.5952 -0.9118
   91SAPE    C3 8881   4.804   2.692   6.149 -0.6137  0.8916  0.4225
   91SAPE    HX 8882   4.805   2.581   6.151  1.5890  0.8473 -0.0775
   91SAPE    HY 8883   4.906   2.725   6.180 -0.6693 -0.0815  1.7183
   91SAPE   O31 8884   4.772   2.722   6.012  0.5498 -0.1315  0.1578
   91SAPE   C31 8885   4.770   2.850   5.973 -0.3678  0.1942 -0.2155
   91SAPE   O32 8886   4.810   2.952   6.030  0.3387  0.5920 -0.1514
   91SAPE   C32 8887   4.707   2.853   5.832 -0.4879  0.1511  0.0703
   91SAPE   H2X 8888   4.646   2.945   5.821 -0.9874 -0.1367  0.3904
   91SAPE   H2Y 8889   4.628   2.777   5.815  0.1481 -0.1530 -1.7331
   91SAPE   C23 8890   4.317   2.703   6.064 -0.3710  0.0860 -0.5310
   91SAPE   H3R 8891   4.414   2.712   6.011  1.2447 -0.3732  2.1366
   91SAPE   H3S 8892   4.270   2.804   6.067 -0.5465 -0.0035 -0.0814
   91SAPE   C24 8893   4.225   2.590   6.010  0.3893 -0.1079 -0.0915
   91SAPE   H4R 8894   4.262   2.493   6.050  1.4173  0.1841 -0.3082
   91SAPE   H4S 8895   4.246   2.567   5.903 -1.1242  1.8075 -0.8460
   91SAPE   C25 8896   4.079   2.601   6.050 -0.0551  0.0359 -0.0589
   91SAPE   H5R 8897   4.057   2.623   6.155  0.2361 -2.7867  0.6557
   91SAPE   C26 8898   3.973   2.587   5.966 -0.5942 -0.1786 -0.0730
   91SAPE   H6R 8899   3.874   2.589   6.013 -0.4379 -1.0835  0.3047
   91SAPE   C27 8900   3.978   2.547   5.813 -0.0919  0.6206  0.3676
   91SAPE   H7R 8901   4.051   2.612   5.760 -0.2579  0.7106  0.2479
   91SAPE   H7S 8902   3.893   2.560   5.742  1.2564  0.9688 -1.2374
   91SAPE   C28 8903   4.033   2.408   5.794 -0.4073 -0.1508 -0.4857
   91SAPE   H8R 8904   4.052   2.358   5.889 -2.4426  1.0149  0.6083
   91SAPE   C29 8905   4.045   2.348   5.679 -0.0917 -0.9230  0.1279
   91SAPE   H9R 8906   4.100   2.253   5.674 -1.9534 -2.0719  0.5825
   91SAPE  C210 8907   4.021   2.403   5.545  0.3223 -0.2413  0.7003
   91SAPE  H10R 8908   3.942   2.481   5.553  0.3614  0.0020 -0.9299
   91SAPE  H10S 8909   3.973   2.332   5.475  2.2104 -2.5991  1.6860
   91SAPE  C211 8910   4.151   2.453   5.497  0.2448 -0.0588 -0.6245
   91SAPE  H11R 8911   4.205   2.509   5.575 -0.7795 -2.0611  1.6237
   91SAPE  C212 8912   4.217   2.424   5.382  0.0154 -0.5550  0.5144
   91SAPE  H12R 8913   4.305   2.486   5.358 -1.2805  0.9391 -0.5801
   91SAPE  C213 8914   4.165   2.345   5.258  0.4171  0.2722 -0.7207
   91SAPE  H13R 8915   4.121   2.416   5.183 -0.1206 -0.1776 -0.8391
   91SAPE  H13S 8916   4.078   2.286   5.294 -0.6817  1.5585 -1.1574
   91SAPE  C214 8917   4.263   2.252   5.198  0.0113  0.1380  0.4611
   91SAPE  H14R 8918   4.250   2.145   5.218 -0.9811  0.2015  0.2119
   91SAPE  C215 8919   4.357   2.297   5.117 -0.4096 -0.3777  0.4416
   91SAPE  H15R 8920   4.432   2.227   5.076  0.3771 -0.3032  1.6974
   91SAPE  C216 8921   4.383   2.438   5.070  0.4093 -0.7164  0.2674
   91SAPE  H16R 8922   4.493   2.454   5.072  0.1733  1.3346 -0.4330
   91SAPE  H16S 8923   4.330   2.512   5.132  0.5107 -0.6386  0.2615
   91SAPE  C217 8924   4.322   2.446   4.931 -1.0638  0.1533 -0.0579
   91SAPE  H17R 8925   4.346   2.549   4.897 -0.1370 -0.0330  0.0058
   91SAPE  H17S 8926   4.212   2.440   4.929 -0.9478 -3.1942 -1.0081
   91SAPE  C218 8927   4.392   2.378   4.813 -0.5746  0.7265 -0.2150
   91SAPE  H18R 8928   4.381   2.267   4.816 -0.8177  0.7428 -0.4243
   91SAPE  H18S 8929   4.502   2.387   4.819 -0.5954  1.4608 -0.8320
   91SAPE  C219 8930   4.339   2.425   4.687  0.3590 -0.5514 -0.3179
   91SAPE  H19R 8931   4.340   2.536   4.687 -0.1441 -0.5325 -1.4795
   91SAPE  H19S 8932   4.231   2.401   4.680 -0.1136  0.4987  2.2124
   91SAPE  C220 8933   4.400   2.381   4.552 -0.2034  0.1436  0.0917
   91SAPE  H20R 8934   4.429   2.274   4.546 -1.3040 -0.1356 -0.4543
   91SAPE  H20S 8935   4.503   2.423   4.546 -0.4046  0.7731  0.8911
   91SAPE  H20T 8936   4.336   2.396   4.462  0.3794  1.7597 -0.0896
   91SAPE   C33 8937   4.824   2.851   5.730 -0.2454 -0.1341  0.1765
   91SAPE   H3X 8938   4.887   2.762   5.751 -0.0010 -0.3365 -1.3319
   91SAPE   H3Y 8939   4.896   2.933   5.749 -0.7918 -0.0355  1.9926
   91SAPE   C34 8940   4.776   2.846   5.581 -0.1156 -0.5263 -0.0627
   91SAPE   H4X 8941   4.726   2.945   5.568  0.7001  0.2597  2.1764
   91SAPE   H4Y 8942   4.705   2.762   5.574 -0.8541  0.1570 -0.9750
   91SAPE   C35 8943   4.885   2.810   5.486 -0.4407 -0.5823  0.1145
   91SAPE   H5X 8944   4.917   2.704   5.496 -1.6795 -0.7810  3.3081
   91SAPE   H5Y 8945   4.970   2.878   5.508 -1.1078  0.3695 -0.1617
   91SAPE   C36 8946   4.837   2.845   5.344  0.3311 -0.2566  0.3402
   91SAPE   H6X 8947   4.829   2.954   5.327  1.6900 -0.1666  0.1319
   91SAPE   H6Y 8948   4.740   2.793   5.334  0.5099 -0.6371  0.5617
   91SAPE   C37 8949   4.929   2.785   5.224  0.3174  0.4590 -0.3322
   91SAPE   H7X 8950   4.935   2.674   5.234  2.0039  0.3261 -2.2814
   91SAPE   H7Y 8951   5.031   2.826   5.218 -0.2296  1.7743 -0.9285
   91SAPE   C38 8952   4.868   2.809   5.086  0.2443  0.2707  0.1081
   91SAPE   H8X 8953   4.820   2.909   5.087 -0.1389  0.1099 -0.9791
   91SAPE   H8Y 8954   4.784   2.737   5.075 -0.4822  1.3373 -2.0311
   91SAPE   C39 8955   4.969   2.784   4.971  0.8079  0.2603 -0.9398
   91SAPE   H9X 8956   4.984   2.675   4.960 -1.4448 -0.0353 -1.5843
   91SAPE   H9Y 8957   5.068   2.830   4.994  1.2774 -1.1573 -0.0189
   91SAPE  C310 8958   4.936   2.852   4.839  0.1305 -0.0252 -0.3696
   91SAPE  H10X 8959   4.915   2.958   4.864  1.5481  0.0678  0.5566
   91SAPE  H10Y 8960   4.846   2.810   4.787 -0.5684 -0.3455  1.0548
   91SAPE  C311 8961   5.053   2.855   4.741 -0.3997  0.9628 -0.4510
   91SAPE  H11X 8962   5.112   2.761   4.733  2.0228  2.2597  0.9286
   91SAPE  H11Y 8963   5.127   2.937   4.754  1.2075 -0.5517  0.5258
   91SAPE  C312 8964   5.008   2.860   4.589  0.5995  0.4856 -0.5078
   91SAPE  H12X 8965   4.963   2.760   4.572 -0.5215  1.1367 -1.5520
   91SAPE  H12Y 8966   5.094   2.864   4.518 -0.0848 -0.9274 -1.4799
   91SAPE  C313 8967   4.909   2.971   4.550 -0.2835  0.3007 -0.0845
   91SAPE  H13X 8968   4.946   3.070   4.582  0.0631  0.6196 -1.3981
   91SAPE  H13Y 8969   4.817   2.949   4.607  1.0773 -0.3895  1.9732
   91SAPE  C314 8970   4.887   2.975   4.396 -0.1089  0.1938  0.2289
   91SAPE  H14X 8971   4.874   2.874   4.351 -0.0001 -0.2636  1.2051
   91SAPE  H14Y 8972   4.978   3.007   4.341 -0.1527  1.7187  0.9930
   91SAPE  C315 8973   4.762   3.055   4.354  0.3188 -0.4170  0.3453
   91SAPE  H15X 8974   4.773   3.161   4.385 -1.2674 -0.1427  0.0277
   91SAPE  H15Y 8975   4.668   3.020   4.403  0.0847 -0.8450 -0.3909
   91SAPE  C316 8976   4.736   3.019   4.203 -0.5956 -0.9901 -0.2804
   91SAPE  H16X 8977   4.699   2.914   4.203 -1.3980 -0.7152  0.6198
   91SAPE  H16Y 8978   4.832   3.013   4.146 -0.8003 -1.6534 -0.5624
   91SAPE  C317 8979   4.625   3.099   4.130  0.0797  0.9882  0.3361
   91SAPE  H17X 8980   4.656   3.204   4.112  1.9171  0.3049 -0.7109
   91SAPE  H17Y 8981   4.536   3.109   4.197 -1.1697 -0.0587 -1.0817
   91SAPE  C318 8982   4.582   3.036   3.997  0.5397  0.0520  0.6650
   91SAPE  H18X 8983   4.502   3.098   3.951 -0.2820 -0.8194  0.8886
   91SAPE  H18Y 8984   4.548   2.932   4.015 -0.6341  0.5057  1.2071
   91SAPE  H18Z 8985   4.666   3.053   3.927 -0.2633  4.2464  0.4327
   92SAPE     N 8986   5.320   3.686   6.381 -0.6846  0.1601 -0.4854
   92SAPE   HN1 8987   5.415   3.728   6.392 -0.5449 -0.4799  0.8908
   92SAPE   HN2 8988   5.293   3.633   6.465  1.2903 -0.7518 -0.3795
   92SAPE   HN3 8989   5.329   3.610   6.310 -1.1523 -0.7968  0.4547
   92SAPE   C12 8990   5.215   3.800   6.348  0.6555  0.3557  0.5136
   92SAPE  H12A 8991   5.159   3.827   6.439 -0.7576 -0.7067 -0.0134
   92SAPE  H12B 8992   5.149   3.747   6.276  1.7242 -0.8048  0.3523
   92SAPE   C11 8993   5.274   3.927   6.277 -0.3611  0.0446  0.2051
   92SAPE  H11A 8994   5.184   3.978   6.237  1.6590  0.2374 -4.7470
   92SAPE  H11B 8995   5.337   3.919   6.186 -0.6770  0.9503 -0.0998
   92SAPE     P 8996   5.468   3.995   6.451 -0.2061  0.0730  0.1679
   92SAPE   O13 8997   5.437   4.043   6.586 -0.0725  0.5143 -0.3341
   92SAPE   O14 8998   5.512   3.852   6.444 -0.5475  0.2252  0.0452
   92SAPE   O12 8999   5.336   4.014   6.373  0.1614  0.3511  0.4922
   92SAPE   O11 9000   5.575   4.084   6.380  0.5226  0.2582  0.3011
   92SAPE    C1 9001   5.550   4.218   6.342 -0.0848 -0.0124  0.4858
   92SAPE    HA 9002   5.447   4.252   6.366 -0.9474 -0.6519 -2.0822
   92SAPE    HB 9003   5.614   4.294   6.391 -1.9951  1.8453  0.2293
   92SAPE    C2 9004   5.560   4.236   6.184  0.3292 -0.8981 -0.2064
   92SAPE    HS 9005   5.555   4.346   6.167  0.8607 -0.6233  1.3042
   92SAPE   O21 9006   5.454   4.166   6.117  0.4863  0.3259  0.1747
   92SAPE   C21 9007   5.334   4.224   6.122 -0.0429  0.5157 -0.1844
   92SAPE   O22 9008   5.303   4.321   6.189  0.0047 -0.0965 -0.1819
   92SAPE   C22 9009   5.243   4.169   6.011  0.0472 -0.0418  0.5597
   92SAPE   H2R 9010   5.314   4.164   5.926 -1.3574  2.9275 -0.9597
   92SAPE   H2S 9011   5.207   4.065   6.028 -3.4368  1.0268  0.5583
   92SAPE    C3 9012   5.701   4.194   6.132 -0.0638  0.2220  0.1759
   92SAPE    HX 9013   5.714   4.085   6.146 -2.1846 -0.1008 -0.1115
   92SAPE    HY 9014   5.778   4.255   6.184 -0.1556 -1.1050  1.9560
   92SAPE   O31 9015   5.714   4.232   5.991  0.2723 -0.5429 -0.6425
   92SAPE   C31 9016   5.724   4.131   5.904 -0.2465 -0.3796 -0.2234
   92SAPE   O32 9017   5.736   4.011   5.933 -0.1994  0.1941  0.2792
   92SAPE   C32 9018   5.732   4.178   5.768 -0.9756  0.3174  0.1888
   92SAPE   H2X 9019   5.741   4.288   5.779  1.5192  0.1237  0.7756
   92SAPE   H2Y 9020   5.640   4.151   5.712 -1.1671 -2.6068  1.7014
   92SAPE   C23 9021   5.123   4.258   5.976  0.7651 -0.4890  0.4763
   92SAPE   H3R 9022   5.118   4.355   6.030  0.2961 -0.5459  0.5454
   92SAPE   H3S 9023   5.027   4.213   6.010  1.0528 -0.5625  1.2049
   92SAPE   C24 9024   5.106   4.287   5.821  0.3484 -0.0564 -0.4881
   92SAPE   H4R 9025   5.093   4.185   5.777 -1.4686 -1.1861  2.3172
   92SAPE   H4S 9026   5.198   4.337   5.785 -0.7691  2.0599 -0.5028
   92SAPE   C25 9027   4.993   4.375   5.790  0.2442  0.2444 -0.5326
   92SAPE   H5R 9028   4.974   4.467   5.848 -2.4277 -1.2035  1.0875
   92SAPE   C26 9029   4.892   4.355   5.706  0.0190 -0.3037  0.2396
   92SAPE   H6R 9030   4.822   4.438   5.687  1.5279  0.4335 -2.6835
   92SAPE   C27 9031   4.888   4.236   5.609 -0.0286 -0.0184 -0.0264
   92SAPE   H7R 9032   4.938   4.149   5.658 -1.8505 -0.3141  1.4031
   92SAPE   H7S 9033   4.952   4.268   5.523 -0.4157  1.1860  0.1239
   92SAPE   C28 9034   4.756   4.184   5.567  0.1189 -0.4886 -0.0310
   92SAPE   H8R 9035   4.702   4.136   5.650 -1.0841  1.6564  0.5126
   92SAPE   C29 9036   4.681   4.219   5.465 -0.2215 -0.6303 -0.1235
   92SAPE   H9R 9037   4.584   4.173   5.444  0.1542 -1.0741 -0.9648
   92SAPE  C210 9038   4.729   4.306   5.353 -0.6691  0.2880  0.3200
   92SAPE  H10R 9039   4.831   4.343   5.379 -0.8772  1.4981 -0.5228
   92SAPE  H10S 9040   4.672   4.400   5.368  1.4381  1.4071  2.0739
   92SAPE  C211 9041   4.708   4.235   5.221 -1.2217  0.3894  0.4523
   92SAPE  H11R 9042   4.771   4.145   5.212  0.1564  1.4554 -1.6393
   92SAPE  C212 9043   4.641   4.271   5.111  0.1351 -0.0884  0.2430
   92SAPE  H12R 9044   4.654   4.202   5.026  1.2574 -0.4195  0.6618
   92SAPE  C213 9045   4.580   4.406   5.092 -0.0102 -0.5042  0.0348
   92SAPE  H13R 9046   4.607   4.479   5.172 -2.1714  0.0168  0.3644
   92SAPE  H13S 9047   4.469   4.402   5.106 -0.1303 -1.3019 -1.0346
   92SAPE  C214 9048   4.627   4.468   4.967 -0.2784 -0.0798  0.1722
   92SAPE  H14R 9049   4.734   4.497   4.965 -0.9681  2.7852  0.3683
   92SAPE  C215 9050   4.558   4.464   4.850 -0.7267  0.0912 -0.1306
   92SAPE  H15R 9051   4.596   4.512   4.759  1.1527  0.8746  1.0133
   92SAPE  C216 9052   4.422   4.403   4.841 -0.0550  0.0612  0.0927
   92SAPE  H16R 9053   4.416   4.311   4.904 -1.9760 -0.4335 -0.7255
   92SAPE  H16S 9054   4.400   4.361   4.740 -1.0053 -1.3694  0.8598
   92SAPE  C217 9055   4.301   4.488   4.870  0.4125 -1.5400 -0.4102
   92SAPE  H17R 9056   4.302   4.541   4.969 -2.0142 -1.7068 -0.2484
   92SAPE  H17S 9057   4.206   4.432   4.864  1.0585 -3.0304  1.9700
   92SAPE  C218 9058   4.281   4.606   4.765  0.5611 -0.3033 -0.2247
   92SAPE  H18R 9059   4.269   4.542   4.674  1.5103 -1.3573  0.3729
   92SAPE  H18S 9060   4.374   4.663   4.744  0.7836 -0.8257 -0.6839
   92SAPE  C219 9061   4.164   4.705   4.794  0.8086 -0.3120  0.3582
   92SAPE  H19R 9062   4.194   4.772   4.877 -1.2505  1.1847 -0.0219
   92SAPE  H19S 9063   4.067   4.657   4.820  0.9096  0.5947  2.6442
   92SAPE  C220 9064   4.142   4.794   4.665  0.1819 -0.0170 -0.3102
   92SAPE  H20R 9065   4.102   4.720   4.593  0.8088 -1.9330  1.2231
   92SAPE  H20S 9066   4.234   4.831   4.615  0.6380 -2.5266 -1.4792
   92SAPE  H20T 9067   4.059   4.868   4.673 -0.4475 -0.6223 -1.1244
   92SAPE   C33 9068   5.848   4.131   5.675  0.0763 -0.4740  0.0447
   92SAPE   H3X 9069   5.806   4.035   5.639 -2.3273  1.1594 -1.8140
   92SAPE   H3Y 9070   5.941   4.117   5.735 -0.5682 -0.2334  1.1263
   92SAPE   C34 9071   5.872   4.221   5.555  0.2687  0.2133 -0.2213
   92SAPE   H4X 9072   5.926   4.313   5.585 -0.8153  0.4107  1.2168
   92SAPE   H4Y 9073   5.776   4.246   5.506 -0.4223  1.1424  1.5171
   92SAPE   C35 9074   5.959   4.137   5.457  0.3650 -0.1367  0.4991
   92SAPE   H5X 9075   5.901   4.049   5.422 -0.1265  0.3540  0.0729
   92SAPE   H5Y 9076   6.053   4.102   5.505 -0.3194 -2.6184  0.1740
   92SAPE   C36 9077   5.987   4.226   5.335 -0.4384  0.3250 -0.3458
   92SAPE   H6X 9078   6.021   4.328   5.365 -3.4669  1.4101 -0.2322
   92SAPE   H6Y 9079   5.885   4.238   5.294 -0.6520  0.1191  0.1269
   92SAPE   C37 9080   6.092   4.154   5.250  0.5370 -0.2895  0.7019
   92SAPE   H7X 9081   6.055   4.063   5.198  0.8358 -0.2266  0.3804
   92SAPE   H7Y 9082   6.180   4.117   5.307 -0.9643 -2.2648  1.8725
   92SAPE   C38 9083   6.153   4.251   5.147 -0.3771  0.3921  0.5410
   92SAPE   H8X 9084   6.169   4.349   5.198 -1.8589  1.8045 -1.5430
   92SAPE   H8Y 9085   6.073   4.262   5.071 -0.3768 -0.4382  0.4148
   92SAPE   C39 9086   6.282   4.194   5.090 -0.4425  0.8737 -0.2753
   92SAPE   H9X 9087   6.267   4.106   5.025  1.1399  1.4348 -1.4577
   92SAPE   H9Y 9088   6.355   4.166   5.170 -1.1829  2.2783  0.9442
   92SAPE  C310 9089   6.365   4.301   5.012 -0.1191 -0.3417 -0.2471
   92SAPE  H10X 9090   6.408   4.370   5.087  1.4609 -0.1601 -1.2651
   92SAPE  H10Y 9091   6.285   4.347   4.950  0.2326 -0.5836 -0.8852
   92SAPE  C311 9092   6.464   4.252   4.914 -0.1699 -1.0103 -0.5481
   92SAPE  H11X 9093   6.415   4.183   4.842 -2.0300 -0.3919  0.0510
   92SAPE  H11Y 9094   6.542   4.208   4.980 -0.9846  0.7891  1.7857
   92SAPE  C312 9095   6.524   4.364   4.821 -0.0686 -0.1211 -0.0620
   92SAPE  H12X 9096   6.599   4.417   4.883 -1.7570  0.8160  1.2803
   92SAPE  H12Y 9097   6.451   4.444   4.795  0.4515  0.8172  1.2077
   92SAPE  C313 9098   6.568   4.312   4.696 -0.9245 -0.3586  0.6474
   92SAPE  H13X 9099   6.504   4.245   4.634 -1.5492  0.0534  0.8370
   92SAPE  H13Y 9100   6.656   4.251   4.726  1.1363  2.7466  1.3736
   92SAPE  C314 9101   6.609   4.424   4.604 -0.4576  0.2622  0.2798
   92SAPE  H14X 9102   6.700   4.467   4.651 -0.7698 -1.3489  2.4692
   92SAPE  H14Y 9103   6.529   4.501   4.598  0.0545  0.8102  0.3417
   92SAPE  C315 9104   6.655   4.367   4.464 -0.0669  0.2044  0.0088
   92SAPE  H15X 9105   6.654   4.455   4.396 -1.6234  0.3444  0.1835
   92SAPE  H15Y 9106   6.586   4.290   4.422  1.0856 -1.1868  0.5657
   92SAPE  C316 9107   6.787   4.291   4.472 -0.0405  0.2121  0.0606
   92SAPE  H16X 9108   6.799   4.233   4.566  0.7415  0.3652  0.0687
   92SAPE  H16Y 9109   6.858   4.377   4.466  0.2518  0.1466  1.9205
   92SAPE  C317 9110   6.812   4.199   4.351  0.1878  1.4141  0.1214
   92SAPE  H17X 9111   6.805   4.248   4.252 -0.5642 -0.1485 -0.6419
   92SAPE  H17Y 9112   6.735   4.119   4.358  2.2295 -0.4969  3.3474
   92SAPE  C318 9113   6.945   4.120   4.360  0.3214 -0.0523  0.3293
   92SAPE  H18X 9114   6.951   4.054   4.271  0.9673  0.4768 -0.0229
   92SAPE  H18Y 9115   6.959   4.054   4.448  2.7634 -0.2187 -0.1165
   92SAPE  H18Z 9116   7.037   4.181   4.360  0.3888 -0.1312 -1.2628
   93SAPE     N 9117   2.883   2.077   6.742 -0.1081 -0.1117  0.3530
   93SAPE   HN1 9118   2.920   1.992   6.789 -0.2856 -0.3742  0.0225
   93SAPE   HN2 9119   2.905   2.160   6.802 -0.8011  1.1989 -1.1348
   93SAPE   HN3 9120   2.780   2.077   6.736 -0.1023 -2.1497 -0.2476
   93SAPE   C12 9121   2.943   2.100   6.603 -0.0318  0.2046 -0.1385
   93SAPE  H12A 9122   2.875   2.169   6.549  0.3225  0.8980  0.2860
   93SAPE  H12B 9123   2.946   2.002   6.551 -2.3341  0.5558 -1.0488
   93SAPE   C11 9124   3.089   2.146   6.612  0.5869 -0.0316 -0.3519
   93SAPE  H11A 9125   3.121   2.138   6.506 -0.2057  1.3967 -0.7240
   93SAPE  H11B 9126   3.157   2.081   6.671 -0.4469 -0.0532  0.8386
   93SAPE     P 9127   3.218   2.366   6.662  0.2137 -0.7105  0.3757
   93SAPE   O13 9128   3.186   2.497   6.725 -0.0323 -0.0645 -0.0165
   93SAPE   O14 9129   3.327   2.296   6.731  0.6255 -0.1645  0.1188
   93SAPE   O12 9130   3.090   2.274   6.667  0.1451 -0.4661  0.6286
   93SAPE   O11 9131   3.240   2.382   6.501 -0.1961  0.5742 -0.3384
   93SAPE    C1 9132   3.140   2.451   6.436  0.0852  0.2836  0.7748
   93SAPE    HA 9133   3.049   2.390   6.423 -0.5829  1.5405 -0.7446
   93SAPE    HB 9134   3.109   2.540   6.494  1.8713 -0.3119  2.7818
   93SAPE    C2 9135   3.191   2.497   6.290  0.3807  1.1260 -0.5594
   93SAPE    HS 9136   3.111   2.557   6.242 -0.2405 -0.2614 -1.3315
   93SAPE   O21 9137   3.222   2.377   6.217 -0.0289 -0.3078 -0.8606
   93SAPE   C21 9138   3.141   2.320   6.132  0.1588 -0.1914 -0.2070
   93SAPE   O22 9139   3.036   2.369   6.089  0.0838  0.1591  0.3006
   93SAPE   C22 9140   3.198   2.183   6.096 -0.0109  0.0545 -1.1186
   93SAPE   H2R 9141   3.309   2.188   6.110 -0.2039  0.4806  0.4853
   93SAPE   H2S 9142   3.152   2.109   6.165  1.5476 -0.3401 -0.4473
   93SAPE    C3 9143   3.310   2.597   6.302 -0.4232  0.1322  0.1029
   93SAPE    HX 9144   3.390   2.554   6.367 -0.0332 -1.4933 -1.3782
   93SAPE    HY 9145   3.268   2.689   6.348  0.7509  0.8075 -0.1046
   93SAPE   O31 9146   3.376   2.620   6.177 -0.1535  0.1040 -0.0218
   93SAPE   C31 9147   3.331   2.715   6.093 -0.2871  0.3704  0.2012
   93SAPE   O32 9148   3.245   2.796   6.117 -0.2316 -0.0484 -0.1691
   93SAPE   C32 9149   3.408   2.708   5.969 -0.1006  0.1548 -0.5188
   93SAPE   H2X 9150   3.450   2.605   5.958 -0.3809 -0.2440  1.6623
   93SAPE   H2Y 9151   3.498   2.771   5.983  1.1405 -1.4012 -1.1987
   93SAPE   C23 9152   3.178   2.140   5.950  0.0677  0.0750 -0.2880
   93SAPE   H3R 9153   3.085   2.160   5.893  0.0463  2.2591  0.4293
   93SAPE   H3S 9154   3.201   2.032   5.964 -0.6997  0.0108  0.6315
   93SAPE   C24 9155   3.293   2.177   5.858  0.0481 -0.4224  0.4034
   93SAPE   H4R 9156   3.268   2.112   5.772 -3.1193 -1.8046  2.1760
   93SAPE   H4S 9157   3.378   2.123   5.905 -0.0645 -1.0072 -0.0494
   93SAPE   C25 9158   3.315   2.327   5.831  0.4952 -0.0671  0.8445
   93SAPE   H5R 9159   3.233   2.385   5.786  1.8712  2.1540  1.0295
   93SAPE   C26 9160   3.439   2.379   5.836 -0.6679  0.3266 -0.3886
   93SAPE   H6R 9161   3.448   2.475   5.783 -3.0298  1.5065  1.1954
   93SAPE   C27 9162   3.572   2.329   5.881  0.7791  0.1799  0.8025
   93SAPE   H7R 9163   3.649   2.402   5.848  1.5477 -1.0621 -0.2447
   93SAPE   H7S 9164   3.597   2.242   5.817  1.1266  0.4116  0.6185
   93SAPE   C28 9165   3.576   2.297   6.029 -0.4693  0.1401  0.0242
   93SAPE   H8R 9166   3.523   2.360   6.101  0.1700  0.6086  0.0953
   93SAPE   C29 9167   3.631   2.183   6.084  0.0002 -0.6558 -0.1374
   93SAPE   H9R 9168   3.645   2.178   6.193  0.5989  0.7138 -0.1201
   93SAPE  C210 9169   3.712   2.081   6.008 -0.7610  0.1045  0.3241
   93SAPE  H10R 9170   3.647   2.002   5.965  0.7815 -2.2564  2.1410
   93SAPE  H10S 9171   3.773   2.035   6.088 -0.4502  0.6180  0.3885
   93SAPE  C211 9172   3.813   2.131   5.910  0.3130  0.5226 -0.3149
   93SAPE  H11R 9173   3.853   2.233   5.918  0.5314  0.3924  0.3145
   93SAPE  C212 9174   3.856   2.066   5.802 -0.1549  0.5674  0.0590
   93SAPE  H12R 9175   3.923   2.116   5.730 -1.5334  1.6184 -0.5522
   93SAPE  C213 9176   3.807   1.934   5.754  0.0526  0.1667 -0.2914
   93SAPE  H13R 9177   3.698   1.918   5.766  0.4269 -1.7770  1.1594
   93SAPE  H13S 9178   3.852   1.855   5.819 -1.7253 -1.6591 -1.1620
   93SAPE  C214 9179   3.854   1.914   5.612 -0.1125 -0.1784 -0.0221
   93SAPE  H14R 9180   3.960   1.913   5.584 -0.3680 -0.4220 -1.0087
   93SAPE  C215 9181   3.774   1.881   5.508  0.5793  0.2567  0.2007
   93SAPE  H15R 9182   3.823   1.883   5.410  0.7975  1.4326  0.3137
   93SAPE  C216 9183   3.624   1.864   5.510 -0.6776  0.4343 -0.1473
   93SAPE  H16R 9184   3.586   1.832   5.610  0.3950  1.1005  0.4993
   93SAPE  H16S 9185   3.589   1.779   5.447 -1.0201  1.1168 -0.8894
   93SAPE  C217 9186   3.554   1.997   5.467 -0.6807 -0.0281 -0.0911
   93SAPE  H17R 9187   3.593   2.023   5.366 -0.4226  0.0612  0.0315
   93SAPE  H17S 9188   3.589   2.082   5.529 -1.3852 -1.4311  2.3700
   93SAPE  C218 9189   3.403   1.981   5.469 -0.0130  0.2128 -0.5864
   93SAPE  H18R 9190   3.369   1.954   5.571 -1.0475  1.7713 -0.4822
   93SAPE  H18S 9191   3.362   1.904   5.400  0.8345 -2.6715  1.9173
   93SAPE  C219 9192   3.315   2.098   5.429  0.0150  0.0119  0.0646
   93SAPE  H19R 9193   3.349   2.137   5.330 -2.3393 -0.1739 -0.8786
   93SAPE  H19S 9194   3.329   2.186   5.495  3.7021 -0.4132  0.0515
   93SAPE  C220 9195   3.164   2.067   5.411  0.0561 -0.0118 -1.0413
   93SAPE  H20R 9196   3.137   2.000   5.326  0.7977 -2.7157  0.7249
   93SAPE  H20S 9197   3.106   2.162   5.415 -0.4091 -0.3324  0.0454
   93SAPE  H20T 9198   3.139   2.003   5.498 -0.5505 -1.5798 -2.3180
   93SAPE   C33 9199   3.337   2.760   5.838 -0.5315  0.2795  0.4626
   93SAPE   H3X 9200   3.279   2.853   5.859 -1.4640  0.6449 -3.0598
   93SAPE   H3Y 9201   3.253   2.697   5.800  0.3981  1.6312 -4.5984
   93SAPE   C34 9202   3.442   2.793   5.734  0.2906  0.1693 -0.1066
   93SAPE   H4X 9203   3.500   2.699   5.718  1.8765  0.5512  2.6756
   93SAPE   H4Y 9204   3.515   2.866   5.775 -0.9363  1.0501  0.5471
   93SAPE   C35 9205   3.379   2.813   5.591 -0.1140  0.9202 -0.4398
   93SAPE   H5X 9206   3.295   2.742   5.575  1.6494 -1.7247  1.2393
   93SAPE   H5Y 9207   3.457   2.791   5.514 -0.6281  1.2202 -1.0614
   93SAPE   C36 9208   3.324   2.953   5.571  0.0480  0.2231  0.0108
   93SAPE   H6X 9209   3.407   3.027   5.566  1.5364 -1.3008  1.0529
   93SAPE   H6Y 9210   3.272   2.977   5.666  1.6568 -0.6242  1.1545
   93SAPE   C37 9211   3.239   2.964   5.449  0.2110 -0.0260 -0.0811
   93SAPE   H7X 9212   3.205   3.068   5.430 -0.5412 -0.7359 -3.1955
   93SAPE   H7Y 9213   3.146   2.907   5.466 -0.3365  0.2731 -1.9185
   93SAPE   C38 9214   3.306   2.920   5.320  0.3150 -0.3833 -0.2948
   93SAPE   H8X 9215   3.223   2.904   5.247  0.3614  2.7476 -1.1977
   93SAPE   H8Y 9216   3.361   2.823   5.325 -1.7269 -1.5356  1.6070
   93SAPE   C39 9217   3.396   3.030   5.263 -0.3747  0.0102 -0.5315
   93SAPE   H9X 9218   3.496   3.042   5.309 -0.0735 -0.7190 -0.9818
   93SAPE   H9Y 9219   3.343   3.124   5.290  0.7777 -0.0418  2.2938
   93SAPE  C310 9220   3.419   3.024   5.111 -0.1117  0.5581  0.4546
   93SAPE  H10X 9221   3.485   3.106   5.075  1.0512  0.2595  1.8318
   93SAPE  H10Y 9222   3.323   3.037   5.057 -0.2097  2.0914  0.9343
   93SAPE  C311 9223   3.491   2.895   5.061 -0.7494 -0.0612  0.1918
   93SAPE  H11X 9224   3.418   2.812   5.060 -1.0445  0.1638  1.2743
   93SAPE  H11Y 9225   3.576   2.859   5.122 -1.3545 -0.4282  0.8372
   93SAPE  C312 9226   3.554   2.917   4.915  0.5042 -0.1185  0.0211
   93SAPE  H12X 9227   3.603   2.821   4.885  1.1187 -0.5524  2.2277
   93SAPE  H12Y 9228   3.626   3.001   4.924  0.0295  0.2700  0.2151
   93SAPE  C313 9229   3.440   2.943   4.800 -0.5178  0.0783 -0.3376
   93SAPE  H13X 9230   3.373   3.024   4.838 -1.2828 -0.8897  0.4239
   93SAPE  H13Y 9231   3.377   2.853   4.788  0.5461 -0.5974 -0.9410
   93SAPE  C314 9232   3.503   2.981   4.667 -0.1384 -0.1128  0.0536
   93SAPE  H14X 9233   3.524   2.882   4.620  0.5410  0.3880 -0.7228
   93SAPE  H14Y 9234   3.594   3.041   4.688 -0.8314  1.6642 -1.6921
   93SAPE  C315 9235   3.423   3.069   4.573  0.0768  0.9950 -0.2359
   93SAPE  H15X 9236   3.327   3.013   4.565  1.3734 -1.5192  0.7346
   93SAPE  H15Y 9237   3.468   3.071   4.471  0.7901  0.3197  0.0534
   93SAPE  C316 9238   3.405   3.212   4.618  0.1292 -0.2752  0.4615
   93SAPE  H16X 9239   3.376   3.199   4.724 -2.4026  1.1664  0.0401
   93SAPE  H16Y 9240   3.321   3.260   4.562  1.6341  0.8685 -0.9046
   93SAPE  C317 9241   3.527   3.305   4.605 -0.0078 -0.2172 -0.6226
   93SAPE  H17X 9242   3.569   3.301   4.503  1.8735 -0.8498  0.1351
   93SAPE  H17Y 9243   3.600   3.265   4.679  0.4863 -0.9515 -1.4896
   93SAPE  C318 9244   3.501   3.453   4.636 -0.3946  0.8490 -0.0095
   93SAPE  H18X 9245   3.459   3.470   4.737 -0.9624  0.9639 -0.2638
   93SAPE  H18Y 9246   3.422   3.495   4.570 -1.8156 -0.6373  0.6781
   93SAPE  H18Z 9247   3.595   3.508   4.613  0.7104 -0.5500  0.9276
   94SAPE     N 9248   0.695   4.377   6.388 -0.3021  0.3163  0.0915
   94SAPE   HN1 9249   0.785   4.384   6.440 -0.6310  0.0666  0.7061
   94SAPE   HN2 9250   0.698   4.314   6.306  0.4523 -0.0322  0.3853
   94SAPE   HN3 9251   0.669   4.476   6.369 -0.1724 -0.1119 -2.8217
   94SAPE   C12 9252   0.586   4.317   6.480 -0.2499 -0.5437  0.0843
   94SAPE  H12A 9253   0.575   4.393   6.560 -0.0624 -1.5180  1.0482
   94SAPE  H12B 9254   0.632   4.226   6.523 -0.5721 -0.5131  0.4988
   94SAPE   C11 9255   0.463   4.275   6.406 -0.0168 -0.6416 -0.0719
   94SAPE  H11A 9256   0.414   4.354   6.346 -0.3533 -1.7968 -1.3721
   94SAPE  H11B 9257   0.393   4.247   6.487  0.1089 -1.9087 -0.3773
   94SAPE     P 9258   0.373   4.081   6.268 -0.1815  0.4278 -0.3070
   94SAPE   O13 9259   0.322   3.993   6.383 -0.2946  0.3117  0.4304
   94SAPE   O14 9260   0.275   4.168   6.201 -0.1577  0.0176  0.1781
   94SAPE   O12 9261   0.500   4.169   6.319  0.4129  0.1023  0.4194
   94SAPE   O11 9262   0.443   3.980   6.156  0.1627  0.0421  0.2173
   94SAPE    C1 9263   0.534   4.020   6.058  0.2062  0.7888  0.6007
   94SAPE    HA 9264   0.527   3.954   5.969  1.5152  2.4087 -0.7661
   94SAPE    HB 9265   0.528   4.127   6.027  1.2163  0.8417  0.5558
   94SAPE    C2 9266   0.676   3.985   6.115 -0.3334  0.2265 -0.0681
   94SAPE    HS 9267   0.684   4.008   6.224 -0.8438 -0.7812  0.1932
   94SAPE   O21 9268   0.775   4.049   6.032  0.4938 -0.6523  0.1959
   94SAPE   C21 9269   0.797   4.174   6.060  0.4308 -0.2097  0.1073
   94SAPE   O22 9270   0.763   4.237   6.161  0.3639 -0.4646 -0.4379
   94SAPE   C22 9271   0.899   4.228   5.962  0.0362  0.3551  0.1037
   94SAPE   H2R 9272   0.950   4.313   6.012 -2.5689  1.7986  0.5093
   94SAPE   H2S 9273   0.964   4.140   5.946  1.1998  1.2249 -0.0416
   94SAPE    C3 9274   0.707   3.833   6.102 -0.4717 -0.0955 -0.3663
   94SAPE    HX 9275   0.810   3.816   6.142 -0.4590 -0.3665 -0.5143
   94SAPE    HY 9276   0.707   3.812   5.993  0.1194  0.5341 -0.5006
   94SAPE   O31 9277   0.603   3.757   6.167 -0.5758 -0.3123  0.3365
   94SAPE   C31 9278   0.603   3.757   6.296 -0.0341  0.1925  0.0046
   94SAPE   O32 9279   0.685   3.822   6.361  0.2919  0.5379 -0.1289
   94SAPE   C32 9280   0.491   3.675   6.355  0.9887  0.4706 -0.5285
   94SAPE   H2X 9281   0.421   3.750   6.398 -0.0936 -1.1051  0.5429
   94SAPE   H2Y 9282   0.535   3.630   6.446  0.3547  1.6004  0.3654
   94SAPE   C23 9283   0.834   4.276   5.827  0.6793  0.1769 -0.1347
   94SAPE   H3R 9284   0.770   4.364   5.849  0.4671 -0.1556  0.6067
   94SAPE   H3S 9285   0.758   4.204   5.789  2.0906 -0.4276 -1.9579
   94SAPE   C24 9286   0.927   4.314   5.707  0.3796 -0.5272 -0.1499
   94SAPE   H4R 9287   1.016   4.365   5.749  0.8855 -2.5639  1.4158
   94SAPE   H4S 9288   0.879   4.399   5.653  0.9824 -0.8285 -1.1806
   94SAPE   C25 9289   0.957   4.195   5.617  0.2748 -0.0135 -0.1971
   94SAPE   H5R 9290   1.020   4.120   5.668  1.8273  0.7250 -0.9470
   94SAPE   C26 9291   0.942   4.180   5.484  0.4012 -0.0121 -0.5252
   94SAPE   H6R 9292   0.976   4.083   5.445 -1.8918  0.4692 -4.1684
   94SAPE   C27 9293   0.860   4.270   5.391  0.3835  0.3408 -0.3126
   94SAPE   H7R 9294   0.870   4.236   5.285 -2.0382 -3.2583  0.4326
   94SAPE   H7S 9295   0.906   4.370   5.407  0.8405  0.1792 -0.6013
   94SAPE   C28 9296   0.712   4.286   5.418  0.1884 -0.3555  0.2726
   94SAPE   H8R 9297   0.697   4.273   5.526  0.5327  0.6866  0.4606
   94SAPE   C29 9298   0.601   4.318   5.344 -0.3375  0.2459  0.4882
   94SAPE   H9R 9299   0.502   4.324   5.392 -1.3099  0.1685 -1.3898
   94SAPE  C210 9300   0.605   4.365   5.194 -0.7194  0.7272 -0.4191
   94SAPE  H10R 9301   0.549   4.290   5.134 -0.3292  0.7675 -0.8405
   94SAPE  H10S 9302   0.700   4.363   5.137 -1.9866  0.8581 -2.7069
   94SAPE  C211 9303   0.554   4.502   5.169  0.4532 -1.2079 -0.1582
   94SAPE  H11R 9304   0.631   4.570   5.129  0.0704 -1.2569 -1.0072
   94SAPE  C212 9305   0.432   4.555   5.187 -0.5214  0.1733 -0.5047
   94SAPE  H12R 9306   0.408   4.661   5.166 -0.4450  0.2189 -0.3602
   94SAPE  C213 9307   0.316   4.491   5.257 -0.0405  0.1081 -0.2559
   94SAPE  H13R 9308   0.329   4.383   5.281 -2.4319 -0.3121 -0.5912
   94SAPE  H13S 9309   0.227   4.484   5.191  0.1834 -1.6063 -0.4180
   94SAPE  C214 9310   0.269   4.560   5.386  0.5983 -0.0757 -0.6537
   94SAPE  H14R 9311   0.306   4.520   5.481  0.7103 -0.4972 -0.8720
   94SAPE  C215 9312   0.199   4.676   5.400 -0.1495 -0.2633  0.3510
   94SAPE  H15R 9313   0.173   4.709   5.501 -2.1306 -0.4436 -0.0631
   94SAPE  C216 9314   0.150   4.758   5.281 -0.0097  0.0664 -0.5587
   94SAPE  H16R 9315   0.039   4.750   5.280 -0.2009  2.0230 -1.3373
   94SAPE  H16S 9316   0.196   4.723   5.186 -0.7093 -0.3230 -0.7624
   94SAPE  C217 9317   0.198   4.902   5.304 -0.4298  0.4207 -0.8680
   94SAPE  H17R 9318   0.303   4.888   5.336 -0.3535 -0.4472 -1.4535
   94SAPE  H17S 9319   0.139   4.946   5.386 -1.9255  0.0228 -1.6853
   94SAPE  C218 9320   0.195   4.987   5.179 -0.3376 -0.1873 -0.1968
   94SAPE  H18R 9321   0.090   5.024   5.170  0.0303  0.4971 -2.1220
   94SAPE  H18S 9322   0.213   4.917   5.094  0.3735 -2.1302  1.4807
   94SAPE  C219 9323   0.303   5.098   5.179  0.3837 -0.6168  0.5838
   94SAPE  H19R 9324   0.402   5.056   5.208 -0.5548 -2.2808  1.5662
   94SAPE  H19S 9325   0.285   5.180   5.252 -1.3988  2.4971 -3.0018
   94SAPE  C220 9326   0.320   5.155   5.034  0.3029  0.4174  0.0755
   94SAPE  H20R 9327   0.325   5.071   4.962 -1.6496 -0.4603  0.8970
   94SAPE  H20S 9328   0.409   5.221   5.025  1.9382 -1.8937 -2.1082
   94SAPE  H20T 9329   0.233   5.212   4.996  1.2463 -0.3043 -3.6005
   94SAPE   C33 9330   0.408   3.585   6.260  0.1219  1.1424 -0.3893
   94SAPE   H3X 9331   0.362   3.505   6.322  1.7887  0.3203 -0.1541
   94SAPE   H3Y 9332   0.458   3.532   6.176 -2.8951  0.8477 -2.1307
   94SAPE   C34 9333   0.285   3.662   6.207  0.7973 -0.3824  0.8005
   94SAPE   H4X 9334   0.315   3.759   6.163 -0.4409  0.8191  2.4732
   94SAPE   H4Y 9335   0.222   3.691   6.294 -1.5876 -0.6669 -0.7376
   94SAPE   C35 9336   0.212   3.566   6.115  0.3329  0.4523  0.5926
   94SAPE   H5X 9337   0.110   3.608   6.104 -0.4800 -0.8473  2.6475
   94SAPE   H5Y 9338   0.199   3.463   6.156  3.8217 -0.3953 -0.0467
   94SAPE   C36 9339   0.273   3.540   5.980  0.0938 -0.2266  0.1492
   94SAPE   H6X 9340   0.194   3.520   5.905 -1.4519  0.4201  1.5406
   94SAPE   H6Y 9341   0.347   3.457   5.978 -0.0611 -0.4835  2.2431
   94SAPE   C37 9342   0.346   3.664   5.925  0.0472 -0.1564  1.0579
   94SAPE   H7X 9343   0.432   3.693   5.989  0.7395  1.7534 -0.6414
   94SAPE   H7Y 9344   0.273   3.748   5.918 -0.5435 -0.7064  0.3968
   94SAPE   C38 9345   0.404   3.637   5.786  0.3792  0.2823  0.7580
   94SAPE   H8X 9346   0.319   3.627   5.714  1.7320  0.4004 -0.9213
   94SAPE   H8Y 9347   0.467   3.546   5.773  1.7509  1.5486 -2.4489
   94SAPE   C39 9348   0.500   3.740   5.725  0.3431  0.2000  0.0915
   94SAPE   H9X 9349   0.592   3.748   5.787  1.6555  2.0314 -1.9579
   94SAPE   H9Y 9350   0.452   3.840   5.727 -2.7347 -1.1460  2.0623
   94SAPE  C310 9351   0.546   3.710   5.582  0.2561  0.0200 -0.2420
   94SAPE  H10X 9352   0.466   3.715   5.505 -0.7239  2.2776  0.8336
   94SAPE  H10Y 9353   0.577   3.604   5.565  2.2728  0.7713 -1.5846
   94SAPE  C311 9354   0.651   3.806   5.528  0.3777  0.3877 -0.1822
   94SAPE  H11X 9355   0.750   3.804   5.578 -0.2410  1.4868  1.1384
   94SAPE  H11Y 9356   0.609   3.908   5.541  1.6021  0.9143 -0.2145
   94SAPE  C312 9357   0.669   3.786   5.372  0.1127  0.0498  0.4777
   94SAPE  H12X 9358   0.581   3.743   5.319 -0.0258  0.8985  0.0036
   94SAPE  H12Y 9359   0.746   3.706   5.371  0.6643  0.5679 -1.2349
   94SAPE  C313 9360   0.720   3.906   5.299  0.0274  0.0567 -0.2248
   94SAPE  H13X 9361   0.798   3.956   5.361  0.1297  1.6137 -1.5219
   94SAPE  H13Y 9362   0.647   3.990   5.291  0.7929  0.5826 -2.1623
   94SAPE  C314 9363   0.767   3.894   5.155 -0.1312 -0.1242  0.1134
   94SAPE  H14X 9364   0.680   3.854   5.097  0.5482 -0.2784 -0.8196
   94SAPE  H14Y 9365   0.856   3.828   5.150 -0.9476 -1.2826  0.5075
   94SAPE  C315 9366   0.794   4.021   5.075 -0.5311 -0.9795 -0.0847
   94SAPE  H15X 9367   0.880   4.069   5.125  0.3590 -1.4675 -1.0922
   94SAPE  H15Y 9368   0.708   4.090   5.088  2.0724  2.3844  0.7116
   94SAPE  C316 9369   0.816   3.981   4.932  1.0233  0.4901 -0.0189
   94SAPE  H16X 9370   0.723   3.954   4.877  0.9548  0.7140 -0.0101
   94SAPE  H16Y 9371   0.885   3.893   4.934 -1.2323 -1.5108 -2.2137
   94SAPE  C317 9372   0.882   4.086   4.843  0.1541 -1.2886 -0.2175
   94SAPE  H17X 9373   0.916   4.048   4.745  0.7073 -3.1721  0.6600
   94SAPE  H17Y 9374   0.969   4.129   4.899 -0.4727 -0.1547 -0.0918
   94SAPE  C318 9375   0.778   4.193   4.800 -0.3618  0.4423 -0.1855
   94SAPE  H18X 9376   0.680   4.149   4.771 -0.6680 -0.9270  2.5585
   94SAPE  H18Y 9377   0.814   4.265   4.724  0.5518  1.8496  1.4898
   94SAPE  H18Z 9378   0.748   4.248   4.892  2.3663  1.5596  0.1130
   95SAPE     N 9379   5.759   3.819   6.336  0.7043 -0.4449 -0.0147
   95SAPE   HN1 9380   5.817   3.778   6.412  0.6568 -0.6842 -0.1051
   95SAPE   HN2 9381   5.796   3.915   6.326  0.8711 -0.0231  3.4140
   95SAPE   HN3 9382   5.659   3.828   6.363 -0.2272  0.5236 -3.3259
   95SAPE   C12 9383   5.773   3.750   6.207 -0.1354  0.7114  0.8955
   95SAPE  H12A 9384   5.808   3.649   6.235 -1.0620  0.3346  0.7629
   95SAPE  H12B 9385   5.852   3.798   6.147 -0.1057 -1.2442 -0.7342
   95SAPE   C11 9386   5.643   3.750   6.121  0.4201 -1.0757 -0.1176
   95SAPE  H11A 9387   5.666   3.712   6.019 -0.7985 -1.3238 -0.3091
   95SAPE  H11B 9388   5.596   3.848   6.100  0.4231 -0.9109  0.6255
   95SAPE     P 9389   5.504   3.523   6.143  0.1217  0.1730  0.3040
   95SAPE   O13 9390   5.622   3.435   6.165  0.6044 -0.2691  0.6165
   95SAPE   O14 9391   5.381   3.489   6.219 -0.4329  0.7665  0.1956
   95SAPE   O12 9392   5.547   3.667   6.186  0.8143 -0.0133 -0.4778
   95SAPE   O11 9393   5.481   3.538   5.991  0.5663 -0.1676 -0.1455
   95SAPE    C1 9394   5.392   3.446   5.926  0.2780 -0.2709 -0.6327
   95SAPE    HA 9395   5.298   3.433   5.984  2.8448  0.3667  4.2338
   95SAPE    HB 9396   5.374   3.468   5.819 -0.2444 -2.2952 -0.9995
   95SAPE    C2 9397   5.467   3.310   5.901  0.5893 -0.0778 -0.6974
   95SAPE    HS 9398   5.511   3.279   5.997  1.1583 -1.5350 -1.3985
   95SAPE   O21 9399   5.569   3.321   5.796  0.7673  0.2815 -0.1642
   95SAPE   C21 9400   5.672   3.237   5.804 -0.0098 -0.5505  0.9775
   95SAPE   O22 9401   5.706   3.182   5.908  0.1215  0.0778  0.2773
   95SAPE   C22 9402   5.751   3.222   5.668  0.0815  0.6370 -0.8407
   95SAPE   H2R 9403   5.708   3.129   5.625 -1.7854  1.6919 -1.3543
   95SAPE   H2S 9404   5.731   3.311   5.606  2.8034  1.2868 -0.9160
   95SAPE    C3 9405   5.366   3.195   5.870  0.0300 -0.0851 -0.3262
   95SAPE    HX 9406   5.311   3.177   5.965  1.2264 -1.0540  0.2057
   95SAPE    HY 9407   5.418   3.098   5.853  0.4549 -0.2288  1.5193
   95SAPE   O31 9408   5.266   3.223   5.772 -0.1675  0.1609 -0.2405
   95SAPE   C31 9409   5.312   3.226   5.643 -0.5060 -0.2036  0.6673
   95SAPE   O32 9410   5.422   3.190   5.606 -0.4462  0.6043 -0.4776
   95SAPE   C32 9411   5.209   3.289   5.549  0.4943  0.4736  0.0495
   95SAPE   H2X 9412   5.169   3.385   5.588  1.6206  0.1112  2.2864
   95SAPE   H2Y 9413   5.118   3.227   5.536  0.0844  1.1881 -0.5736
   95SAPE   C23 9414   5.905   3.215   5.679  0.4353  0.9603  0.5161
   95SAPE   H3R 9415   5.938   3.139   5.753  0.8002 -0.3259 -0.9172
   95SAPE   H3S 9416   5.945   3.313   5.713 -0.5791  0.9063  1.9714
   95SAPE   C24 9417   5.977   3.178   5.545 -0.1660  0.4225  0.0565
   95SAPE   H4R 9418   5.939   3.078   5.516  2.0830 -0.1798 -1.0306
   95SAPE   H4S 9419   6.085   3.165   5.564 -0.0147  0.0804 -0.9643
   95SAPE   C25 9420   5.954   3.277   5.440 -0.4380 -0.2292  0.0544
   95SAPE   H5R 9421   6.038   3.347   5.440  0.3099 -1.0422  2.4154
   95SAPE   C26 9422   5.872   3.268   5.337  0.5785 -0.5380  1.2133
   95SAPE   H6R 9423   5.872   3.362   5.278 -0.0730 -0.4454  1.3443
   95SAPE   C27 9424   5.757   3.165   5.307 -0.0378  0.0946  0.1999
   95SAPE   H7R 9425   5.748   3.100   5.397  0.2926 -1.4137 -0.8113
   95SAPE   H7S 9426   5.809   3.098   5.235 -0.9236  1.1013 -1.4315
   95SAPE   C28 9427   5.621   3.209   5.256 -0.2987  0.0058 -0.4938
   95SAPE   H8R 9428   5.558   3.236   5.342  0.1254 -1.8635  0.4522
   95SAPE   C29 9429   5.581   3.205   5.128  0.0437 -0.4543  0.0713
   95SAPE   H9R 9430   5.476   3.231   5.114  0.0748 -0.1528  0.3769
   95SAPE  C210 9431   5.655   3.155   5.010  0.0773  0.4673 -0.2392
   95SAPE  H10R 9432   5.621   3.052   4.985  0.8162  0.4553 -1.2645
   95SAPE  H10S 9433   5.760   3.139   5.041 -0.6213 -1.1970  1.4345
   95SAPE  C211 9434   5.638   3.243   4.886  0.1595  0.2325  0.3054
   95SAPE  H11R 9435   5.576   3.333   4.898  1.0515  0.8908  0.0855
   95SAPE  C212 9436   5.696   3.219   4.764 -0.5332  0.3039 -1.2418
   95SAPE  H12R 9437   5.678   3.280   4.674 -1.3490 -1.9906 -2.7205
   95SAPE  C213 9438   5.789   3.097   4.748  0.1088  0.9686  0.5006
   95SAPE  H13R 9439   5.832   3.060   4.844 -0.6971 -1.4719 -0.0172
   95SAPE  H13S 9440   5.879   3.137   4.697 -0.0848  0.1659 -0.5013
   95SAPE  C214 9441   5.721   2.983   4.674 -0.1870 -0.1565 -0.1047
   95SAPE  H14R 9442   5.652   2.925   4.737  0.4994 -1.8875 -0.8785
   95SAPE  C215 9443   5.751   2.933   4.551 -0.5417 -0.0475 -0.3792
   95SAPE  H15R 9444   5.691   2.854   4.503 -1.0176 -0.6058  1.1019
   95SAPE  C216 9445   5.857   2.980   4.461 -1.1118  0.3040  0.1969
   95SAPE  H16R 9446   5.883   3.086   4.481 -0.2235 -0.2276  2.1343
   95SAPE  H16S 9447   5.826   2.980   4.355  0.3489  0.6738 -0.2622
   95SAPE  C217 9448   5.990   2.898   4.465 -0.1301 -0.9115  0.3601
   95SAPE  H17R 9449   5.966   2.790   4.475 -0.3318 -0.8670  0.3728
   95SAPE  H17S 9450   6.036   2.939   4.558  0.0875  2.8550 -1.2269
   95SAPE  C218 9451   6.081   2.928   4.351 -0.2245  0.2091  0.2816
   95SAPE  H18R 9452   6.094   3.038   4.344  0.2848  0.0860 -1.1633
   95SAPE  H18S 9453   6.024   2.907   4.258 -0.9342  0.7399  0.5900
   95SAPE  C219 9454   6.223   2.867   4.351  0.1512 -0.6747 -0.7003
   95SAPE  H19R 9455   6.270   2.924   4.434 -1.3203  2.7036 -1.9977
   95SAPE  H19S 9456   6.280   2.883   4.257  1.4059  1.3410  0.3243
   95SAPE  C220 9457   6.231   2.715   4.381 -0.9036  0.7707  0.1052
   95SAPE  H20R 9458   6.187   2.650   4.302  1.7762 -2.4675  1.0188
   95SAPE  H20S 9459   6.168   2.679   4.466 -0.1973 -3.5143 -0.9433
   95SAPE  H20T 9460   6.338   2.690   4.396 -0.7849  1.3665  0.2793
   95SAPE   C33 9461   5.268   3.302   5.403 -0.5634 -0.0582 -1.4562
   95SAPE   H3X 9462   5.277   3.202   5.356 -2.3286 -0.4946 -0.9646
   95SAPE   H3Y 9463   5.368   3.349   5.410  0.6483 -2.5162 -1.2518
   95SAPE   C34 9464   5.167   3.397   5.322  0.1533  0.1939  0.5962
   95SAPE   H4X 9465   5.161   3.499   5.366 -1.5525 -0.0962  1.1123
   95SAPE   H4Y 9466   5.062   3.360   5.318  0.2284  0.0679 -1.2892
   95SAPE   C35 9467   5.210   3.424   5.168  0.4539  0.6657 -0.5895
   95SAPE   H5X 9468   5.319   3.445   5.171  0.3009  1.4400 -0.2411
   95SAPE   H5Y 9469   5.160   3.514   5.128 -0.9057  0.7205  1.1082
   95SAPE   C36 9470   5.172   3.306   5.078  0.0429 -0.0435  0.0818
   95SAPE   H6X 9471   5.064   3.282   5.082  0.1661 -1.0744 -1.5676
   95SAPE   H6Y 9472   5.241   3.224   5.108 -0.4940 -0.2503  0.7813
   95SAPE   C37 9473   5.209   3.348   4.933 -0.5387 -0.4405 -0.0646
   95SAPE   H7X 9474   5.307   3.401   4.934 -1.5159  1.4882 -0.3876
   95SAPE   H7Y 9475   5.140   3.431   4.904 -1.1097 -0.5620  0.9023
   95SAPE   C38 9476   5.223   3.231   4.845 -0.0957  0.7229 -1.1372
   95SAPE   H8X 9477   5.124   3.191   4.818 -0.1251 -0.8152  0.9774
   95SAPE   H8Y 9478   5.265   3.139   4.891 -0.1736  1.5317  0.6820
   95SAPE   C39 9479   5.289   3.262   4.717  0.5077 -1.2590 -0.3908
   95SAPE   H9X 9480   5.391   3.303   4.731  1.0631 -3.2062  1.8054
   95SAPE   H9Y 9481   5.230   3.347   4.675 -1.3197 -1.6534  1.2142
   95SAPE  C310 9482   5.309   3.142   4.623  0.5408 -0.7259 -0.5726
   95SAPE  H10X 9483   5.218   3.080   4.637 -0.4530  0.9096  0.4966
   95SAPE  H10Y 9484   5.403   3.091   4.654  0.3687 -0.7240 -0.0528
   95SAPE  C311 9485   5.312   3.186   4.479 -0.1489 -0.2019  0.0916
   95SAPE  H11X 9486   5.357   3.286   4.495 -1.3838  0.0371  2.6012
   95SAPE  H11Y 9487   5.213   3.196   4.430 -0.4958  0.0563  0.8303
   95SAPE  C312 9488   5.391   3.094   4.387  0.1251 -0.0626  0.6647
   95SAPE  H12X 9489   5.494   3.072   4.424  0.8826 -1.0596 -1.8553
   95SAPE  H12Y 9490   5.399   3.136   4.285 -0.0315 -2.2718 -0.3300
   95SAPE  C313 9491   5.313   2.958   4.370 -0.0688 -0.2891  0.1525
   95SAPE  H13X 9492   5.222   2.967   4.307  1.0315 -0.4541 -1.5274
   95SAPE  H13Y 9493   5.290   2.918   4.470  0.8842 -0.4118  0.3338
   95SAPE  C314 9494   5.393   2.838   4.299 -0.5635  0.2496  0.2951
   95SAPE  H14X 9495   5.324   2.751   4.294 -0.8805  0.5390 -0.5427
   95SAPE  H14Y 9496   5.472   2.812   4.372 -2.5190 -0.1189  2.4100
   95SAPE  C315 9497   5.445   2.868   4.162 -0.2429 -0.3148 -0.3669
   95SAPE  H15X 9498   5.501   2.962   4.146  0.2709 -0.7724 -1.3977
   95SAPE  H15Y 9499   5.361   2.877   4.089  1.2203 -0.5868 -2.1643
   95SAPE  C316 9500   5.538   2.755   4.123 -0.2133 -0.1918  0.4889
   95SAPE  H16X 9501   5.554   2.752   4.013  1.4930  0.5652  0.6790
   95SAPE  H16Y 9502   5.491   2.658   4.150 -0.7325  0.3949  1.8297
   95SAPE  C317 9503   5.680   2.763   4.171 -0.0732 -0.7184 -0.3160
   95SAPE  H17X 9504   5.663   2.777   4.280 -5.4110 -2.4598 -0.6359
   95SAPE  H17Y 9505   5.731   2.854   4.133  1.3351 -0.8144  1.2356
   95SAPE  C318 9506   5.770   2.642   4.163  0.3707  0.1529  0.1926
   95SAPE  H18X 9507   5.799   2.619   4.059 -2.3039 -0.9316 -0.4010
   95SAPE  H18Y 9508   5.714   2.557   4.208 -1.2432  0.8288 -0.4743
   95SAPE  H18Z 9509   5.862   2.653   4.225  0.6857  0.7053 -0.3646
   96SAPE     N 9510   0.301   5.824   6.654 -0.2548  0.0157 -1.1458
   96SAPE   HN1 9511   0.368   5.903   6.662 -0.9146  0.7996 -2.9945
   96SAPE   HN2 9512   0.210   5.856   6.692 -0.0111  0.8460 -1.2460
   96SAPE   HN3 9513   0.337   5.746   6.713 -0.5893  0.0439 -0.8999
   96SAPE   C12 9514   0.258   5.770   6.521  0.3579 -0.1220  0.2104
   96SAPE  H12A 9515   0.339   5.709   6.475  2.9186  1.4695  2.2619
   96SAPE  H12B 9516   0.248   5.860   6.456 -1.6787  0.2385  0.9649
   96SAPE   C11 9517   0.132   5.687   6.531 -0.3342  0.1157  0.5853
   96SAPE  H11A 9518   0.111   5.651   6.429 -0.6826  1.6920  0.0726
   96SAPE  H11B 9519   0.065   5.768   6.569 -0.3748 -0.6930  2.3620
   96SAPE     P 9520   0.184   5.445   6.581  0.3375  0.1090 -0.1551
   96SAPE   O13 9521   0.322   5.450   6.527  0.5381 -0.0637  0.3826
   96SAPE   O14 9522   0.164   5.360   6.703 -0.3312 -0.1808  0.4733
   96SAPE   O12 9523   0.142   5.589   6.630 -0.2916  0.3905  0.2409
   96SAPE   O11 9524   0.065   5.415   6.488 -0.1080  0.0346  0.3570
   96SAPE    C1 9525   0.071   5.311   6.396  0.0972  0.6183 -0.2387
   96SAPE    HA 9526   0.166   5.254   6.406  0.3954  0.5405 -2.8671
   96SAPE    HB 9527  -0.015   5.241   6.407  1.7225 -1.3617  0.4794
   96SAPE    C2 9528   0.072   5.366   6.258  0.1121 -0.4297 -1.0843
   96SAPE    HS 9529   0.090   5.280   6.190  0.6122 -0.8021 -0.4881
   96SAPE   O21 9530   0.175   5.464   6.249 -0.3714 -0.0153  0.0148
   96SAPE   C21 9531   0.281   5.427   6.178  0.1750 -0.5627 -0.1127
   96SAPE   O22 9532   0.285   5.328   6.107 -0.0142  0.1775  0.3141
   96SAPE   C22 9533   0.387   5.539   6.180  0.0217  0.1230 -0.1322
   96SAPE   H2R 9534   0.370   5.601   6.271 -0.0061 -0.0408 -0.0256
   96SAPE   H2S 9535   0.485   5.490   6.202 -0.1592 -1.1309 -1.9502
   96SAPE    C3 9536  -0.068   5.421   6.221  0.4611 -1.0950  0.3986
   96SAPE    HX 9537  -0.091   5.520   6.266  2.3840 -1.6216  2.6986
   96SAPE    HY 9538  -0.138   5.351   6.273 -1.1136 -0.4766 -0.7896
   96SAPE   O31 9539  -0.095   5.410   6.083  0.0942  0.2247 -1.0671
   96SAPE   C31 9540  -0.082   5.522   6.016 -0.1044 -0.2423 -0.3973
   96SAPE   O32 9541  -0.050   5.632   6.066 -0.3185  0.6309  0.4616
   96SAPE   C32 9542  -0.120   5.491   5.875  0.5787 -0.1804  0.5697
   96SAPE   H2X 9543  -0.209   5.424   5.870  0.7027 -0.2340 -1.8268
   96SAPE   H2Y 9544  -0.037   5.429   5.838  0.8639  0.4525  0.1301
   96SAPE   C23 9545   0.390   5.602   6.041  0.0427 -0.6250 -0.1787
   96SAPE   H3R 9546   0.289   5.643   6.020  0.4080 -0.1445 -1.0558
   96SAPE   H3S 9547   0.410   5.527   5.961  3.6251  0.2013 -0.2263
   96SAPE   C24 9548   0.502   5.704   6.025  0.0415 -0.4985 -0.3742
   96SAPE   H4R 9549   0.486   5.770   6.113 -0.9475 -1.8456  0.4990
   96SAPE   H4S 9550   0.489   5.761   5.930  1.4331 -1.2809 -1.0602
   96SAPE   C25 9551   0.640   5.643   6.034 -0.2759  0.2358  0.5591
   96SAPE   H5R 9552   0.669   5.621   6.138 -0.4108  2.3906  1.1059
   96SAPE   C26 9553   0.710   5.589   5.930  0.5118 -0.6998  0.1960
   96SAPE   H6R 9554   0.810   5.550   5.954 -0.4722 -1.8784  2.7994
   96SAPE   C27 9555   0.681   5.586   5.779 -0.2692  0.3358  0.0348
   96SAPE   H7R 9556   0.620   5.678   5.764 -0.4128  0.8289  3.1157
   96SAPE   H7S 9557   0.615   5.498   5.768 -1.7087  1.1134  1.8863
   96SAPE   C28 9558   0.808   5.584   5.686 -0.1706 -0.4733  0.4193
   96SAPE   H8R 9559   0.900   5.568   5.743  0.1119  2.6979  1.0414
   96SAPE   C29 9560   0.828   5.639   5.564 -0.1386  0.3926 -0.3470
   96SAPE   H9R 9561   0.927   5.635   5.517 -0.1704 -0.5755 -0.3518
   96SAPE  C210 9562   0.717   5.698   5.484  0.1864 -0.4495 -0.1150
   96SAPE  H10R 9563   0.621   5.648   5.510  0.2327 -2.4462 -3.1786
   96SAPE  H10S 9564   0.741   5.682   5.376  0.3321  1.7374 -0.4529
   96SAPE  C211 9565   0.705   5.847   5.504 -0.1185 -0.2820 -0.4916
   96SAPE  H11R 9566   0.736   5.887   5.602  0.2547  1.1360 -1.1537
   96SAPE  C212 9567   0.671   5.934   5.413  0.2230  0.4853  0.7215
   96SAPE  H12R 9568   0.667   6.043   5.425  0.6750  0.6471 -0.4412
   96SAPE  C213 9569   0.630   5.903   5.273  0.5831 -0.4090  0.3333
   96SAPE  H13R 9570   0.545   5.963   5.234 -0.6069 -0.8780  2.0913
   96SAPE  H13S 9571   0.584   5.802   5.276 -0.0233 -0.2410 -1.8361
   96SAPE  C214 9572   0.731   5.876   5.167 -0.2861  0.5111  0.2931
   96SAPE  H14R 9573   0.835   5.857   5.198  0.2859  2.0776 -0.5637
   96SAPE  C215 9574   0.712   5.874   5.035  0.0422 -0.5475 -0.3671
   96SAPE  H15R 9575   0.794   5.846   4.967  0.8385 -2.2026  1.1784
   96SAPE  C216 9576   0.581   5.902   4.960 -0.4656  0.7722 -0.4998
   96SAPE  H16R 9577   0.502   5.924   5.035  0.5983 -0.5000  1.0789
   96SAPE  H16S 9578   0.543   5.812   4.907 -1.7586  1.1958 -0.3137
   96SAPE  C217 9579   0.595   6.035   4.872 -0.3112 -0.2873 -0.4845
   96SAPE  H17R 9580   0.653   6.032   4.777 -0.5665  1.4061 -0.7322
   96SAPE  H17S 9581   0.654   6.104   4.936  0.3280 -1.0619 -0.2187
   96SAPE  C218 9582   0.459   6.106   4.851 -0.6640  0.2369  0.5125
   96SAPE  H18R 9583   0.413   6.131   4.949  0.3204 -1.0237  1.3422
   96SAPE  H18S 9584   0.387   6.039   4.800 -1.2987  0.6264  0.8905
   96SAPE  C219 9585   0.486   6.228   4.764  0.1964  0.7840  0.0858
   96SAPE  H19R 9586   0.536   6.198   4.669 -2.2727  2.1204 -1.7261
   96SAPE  H19S 9587   0.560   6.294   4.815  0.9936  1.6289 -2.0684
   96SAPE  C220 9588   0.356   6.299   4.733 -0.1918 -1.0386  0.4101
   96SAPE  H20R 9589   0.286   6.231   4.680 -0.5907 -2.3018  2.4640
   96SAPE  H20S 9590   0.371   6.395   4.679 -0.3491 -0.9526  0.5175
   96SAPE  H20T 9591   0.300   6.325   4.826 -0.0430 -2.2395  0.8461
   96SAPE   C33 9592  -0.152   5.617   5.788  0.0556  0.3346  0.0830
   96SAPE   H3X 9593  -0.057   5.672   5.772  0.9776 -2.0130 -3.6582
   96SAPE   H3Y 9594  -0.226   5.690   5.827  0.8201  2.0618 -1.5677
   96SAPE   C34 9595  -0.207   5.574   5.647 -0.0462  0.7035 -1.0764
   96SAPE   H4X 9596  -0.311   5.537   5.661  0.3587  0.3870  1.6882
   96SAPE   H4Y 9597  -0.135   5.510   5.590  0.2610  0.3923 -0.3478
   96SAPE   C35 9598  -0.222   5.700   5.562  0.1891 -0.1610 -0.1225
   96SAPE   H5X 9599  -0.125   5.754   5.556 -1.2425  2.4340 -2.7859
   96SAPE   H5Y 9600  -0.292   5.766   5.617 -0.2426 -0.7629  0.0631
   96SAPE   C36 9601  -0.258   5.680   5.415  0.2749  0.7548 -0.0866
   96SAPE   H6X 9602  -0.260   5.770   5.350  1.0008 -0.3322 -1.6626
   96SAPE   H6Y 9603  -0.359   5.635   5.401  0.5365  0.1196  0.0294
   96SAPE   C37 9604  -0.170   5.580   5.341 -0.5599 -0.2523  0.0580
   96SAPE   H7X 9605  -0.211   5.478   5.352 -3.0352  0.6203 -0.2945
   96SAPE   H7Y 9606  -0.070   5.579   5.389  0.4508  1.0949 -1.8846
   96SAPE   C38 9607  -0.157   5.612   5.194 -0.0039  0.0642  0.6189
   96SAPE   H8X 9608  -0.094   5.702   5.181 -0.1147 -0.1980 -2.5648
   96SAPE   H8Y 9609  -0.253   5.630   5.141  0.1463  1.0305  0.6586
   96SAPE   C39 9610  -0.068   5.509   5.126 -0.8560 -0.4752 -0.4101
   96SAPE   H9X 9611  -0.106   5.406   5.139 -0.6514 -0.7246 -1.6637
   96SAPE   H9Y 9612   0.036   5.517   5.162 -1.8346 -2.1857  3.2472
   96SAPE  C310 9613  -0.056   5.544   4.975 -0.1139  0.4720 -0.1306
   96SAPE  H10X 9614  -0.057   5.652   4.949  0.7455 -0.4169 -4.6416
   96SAPE  H10Y 9615  -0.146   5.499   4.926  0.9074 -1.6988 -0.1314
   96SAPE  C311 9616   0.066   5.497   4.894  0.2922 -1.4546 -0.4830
   96SAPE  H11X 9617   0.099   5.394   4.919 -1.4473 -1.7594  0.6698
   96SAPE  H11Y 9618   0.144   5.572   4.920 -1.0420  0.1065 -0.7759
   96SAPE  C312 9619   0.046   5.507   4.743 -0.6535 -0.0279 -0.9134
   96SAPE  H12X 9620   0.026   5.611   4.709  0.7973  0.1285 -1.3516
   96SAPE  H12Y 9621  -0.043   5.444   4.723 -1.2389  0.2394  0.6532
   96SAPE  C313 9622   0.170   5.463   4.652 -0.3313 -0.2351  0.4691
   96SAPE  H13X 9623   0.130   5.471   4.549  0.8313 -2.0394 -0.1718
   96SAPE  H13Y 9624   0.198   5.359   4.678  0.8387  0.4000  1.9384
   96SAPE  C314 9625   0.292   5.551   4.675  0.5812 -0.0438 -0.4999
   96SAPE  H14X 9626   0.302   5.573   4.784 -0.4627 -1.5223 -0.0772
   96SAPE  H14Y 9627   0.277   5.654   4.636 -0.6703 -0.3069 -0.7338
   96SAPE  C315 9628   0.421   5.483   4.638  0.1838  0.1783 -0.5712
   96SAPE  H15X 9629   0.412   5.458   4.530 -0.7964 -0.2378 -0.4054
   96SAPE  H15Y 9630   0.431   5.387   4.693  0.5590  0.3501 -0.3390
   96SAPE  C316 9631   0.549   5.567   4.660  0.2399  0.6254  0.0887
   96SAPE  H16X 9632   0.571   5.578   4.769 -2.2665  0.2624  0.7059
   96SAPE  H16Y 9633   0.534   5.662   4.605  0.0495 -0.0678 -1.0998
   96SAPE  C317 9634   0.670   5.502   4.601  0.2502 -0.0206  0.3140
   96SAPE  H17X 9635   0.753   5.575   4.589 -0.3853  1.1697  2.7625
   96SAPE  H17Y 9636   0.643   5.460   4.501 -0.5206 -1.4534  1.0942
   96SAPE  C318 9637   0.724   5.376   4.683 -0.5095 -0.0358 -0.0680
   96SAPE  H18X 9638   0.756   5.397   4.788 -1.9854 -2.4590  0.9399
   96SAPE  H18Y 9639   0.809   5.348   4.618 -1.4596 -0.8095 -1.0002
   96SAPE  H18Z 9640   0.649   5.296   4.697  2.0853 -2.8103 -1.0859
   97SAPE     N 9641   0.757   2.375   7.015 -0.3389 -0.0453  0.3168
   97SAPE   HN1 9642   0.654   2.364   7.025 -0.3897 -0.0501 -0.1870
   97SAPE   HN2 9643   0.800   2.291   7.059  0.3572 -0.7507 -1.6290
   97SAPE   HN3 9644   0.793   2.466   7.050 -2.4101  1.4483 -1.1780
   97SAPE   C12 9645   0.796   2.365   6.870 -1.0874  0.3367  0.3714
   97SAPE  H12A 9646   0.761   2.269   6.828  0.5215  0.0778 -0.4775
   97SAPE  H12B 9647   0.907   2.363   6.867 -1.1035  0.4505 -1.0565
   97SAPE   C11 9648   0.740   2.486   6.789  0.3267  0.0511  0.0215
   97SAPE  H11A 9649   0.756   2.465   6.681  1.3172 -0.8995  0.3298
   97SAPE  H11B 9650   0.796   2.578   6.813  0.0745  0.4560 -0.9307
   97SAPE     P 9651   0.517   2.617   6.768  0.3475  0.3241  0.2276
   97SAPE   O13 9652   0.394   2.618   6.846 -0.0533  0.2693  0.0196
   97SAPE   O14 9653   0.607   2.738   6.759 -0.0312  0.7890  0.1182
   97SAPE   O12 9654   0.600   2.491   6.807 -0.7446  0.4208 -0.2655
   97SAPE   O11 9655   0.474   2.596   6.618 -0.6075  0.3781 -0.4213
   97SAPE    C1 9656   0.364   2.667   6.569 -0.2484 -0.0672 -0.6086
   97SAPE    HA 9657   0.346   2.762   6.625  1.1626 -0.3234  0.3313
   97SAPE    HB 9658   0.379   2.701   6.465  0.1174 -0.5035 -0.6981
   97SAPE    C2 9659   0.231   2.588   6.556 -0.5928  0.4825 -0.8395
   97SAPE    HS 9660   0.203   2.559   6.659 -1.5934 -0.6298 -1.4006
   97SAPE   O21 9661   0.262   2.473   6.473  0.2105  0.4234 -0.7369
   97SAPE   C21 9662   0.198   2.366   6.512 -0.1329 -0.6832 -0.4868
   97SAPE   O22 9663   0.127   2.357   6.607  0.1062  0.1376 -0.1265
   97SAPE   C22 9664   0.241   2.246   6.427  0.2195 -0.1890  0.6200
   97SAPE   H2R 9665   0.343   2.220   6.463  1.1783  0.7375 -1.2298
   97SAPE   H2S 9666   0.164   2.172   6.456 -2.7162  2.6428  0.5740
   97SAPE    C3 9667   0.111   2.674   6.504  0.0036 -0.2605  0.7551
   97SAPE    HX 9668   0.092   2.766   6.564 -0.1415 -1.0069  1.8669
   97SAPE    HY 9669   0.013   2.626   6.522 -0.3511 -0.2191 -0.8684
   97SAPE   O31 9670   0.133   2.703   6.362  0.1261  0.2990 -0.1255
   97SAPE   C31 9671   0.084   2.609   6.278 -0.1386 -0.0639 -0.0433
   97SAPE   O32 9672   0.015   2.515   6.316  0.1482 -0.3667  0.1025
   97SAPE   C32 9673   0.110   2.652   6.140 -0.0037  0.1577  0.9933
   97SAPE   H2X 9674   0.186   2.732   6.135 -0.2060  0.2854 -0.8509
   97SAPE   H2Y 9675   0.016   2.684   6.091  0.6356 -2.3935 -2.2993
   97SAPE   C23 9676   0.237   2.263   6.273 -0.0104 -0.4551 -0.0905
   97SAPE   H3R 9677   0.325   2.323   6.244  0.4064 -1.4009 -0.8385
   97SAPE   H3S 9678   0.142   2.304   6.233  1.2357  1.6178 -1.0746
   97SAPE   C24 9679   0.263   2.130   6.198  0.6923 -0.2737 -0.3053
   97SAPE   H4R 9680   0.350   2.080   6.246  1.8827  0.6803 -1.3808
   97SAPE   H4S 9681   0.293   2.145   6.092  2.6173 -0.1689  0.2160
   97SAPE   C25 9682   0.148   2.033   6.210 -1.1971  0.2028 -0.1331
   97SAPE   H5R 9683   0.119   2.005   6.312 -1.3256 -0.6799 -0.4008
   97SAPE   C26 9684   0.094   1.958   6.112 -0.1936  0.7360 -0.5468
   97SAPE   H6R 9685   0.004   1.896   6.126 -0.4701  0.1956 -3.8341
   97SAPE   C27 9686   0.148   1.959   5.971  0.7930 -0.0621  0.3820
   97SAPE   H7R 9687   0.107   1.871   5.917 -1.8741  1.8573 -0.9283
   97SAPE   H7S 9688   0.259   1.951   5.974  0.6919 -1.6485  0.9057
   97SAPE   C28 9689   0.105   2.071   5.880 -0.1463  0.1998 -0.9119
   97SAPE   H8R 9690   0.041   2.153   5.917  1.2421  0.7474  0.3812
   97SAPE   C29 9691   0.164   2.091   5.759 -0.1936 -0.0702  0.7721
   97SAPE   H9R 9692   0.131   2.184   5.709  0.7515  0.2973  0.8184
   97SAPE  C210 9693   0.266   2.010   5.682  0.5080  0.5368  0.1677
   97SAPE  H10R 9694   0.291   1.924   5.748  1.0592  2.0936  2.0496
   97SAPE  H10S 9695   0.358   2.071   5.670  0.4955  0.2801 -1.4790
   97SAPE  C211 9696   0.222   1.937   5.553 -0.9883  0.3895 -0.0495
   97SAPE  H11R 9697   0.185   1.836   5.576  0.3883  0.4694  2.8706
   97SAPE  C212 9698   0.248   1.974   5.426 -0.1962 -0.0837 -0.1047
   97SAPE  H12R 9699   0.232   1.903   5.344  0.8086 -0.1091 -0.2875
   97SAPE  C213 9700   0.309   2.107   5.392  0.2052 -0.2021 -0.0811
   97SAPE  H13R 9701   0.362   2.091   5.296 -0.7731 -0.4077 -0.6033
   97SAPE  H13S 9702   0.380   2.143   5.470  1.0782  0.7691 -1.2993
   97SAPE  C214 9703   0.207   2.208   5.365 -0.8299  0.1643  0.2105
   97SAPE  H14R 9704   0.157   2.260   5.448 -2.3940  0.6565 -0.9847
   97SAPE  C215 9705   0.168   2.247   5.247  0.2134 -0.0618  0.3781
   97SAPE  H15R 9706   0.091   2.325   5.243  1.8702  1.5825 -2.0479
   97SAPE  C216 9707   0.223   2.213   5.105 -0.0203  0.5664 -0.5450
   97SAPE  H16R 9708   0.134   2.192   5.041 -0.1255  0.2674 -0.3068
   97SAPE  H16S 9709   0.281   2.119   5.120  0.1708  0.9158  1.0831
   97SAPE  C217 9710   0.308   2.319   5.039 -0.0233  0.5887 -1.0396
   97SAPE  H17R 9711   0.346   2.280   4.942 -0.8268 -1.0733 -0.7284
   97SAPE  H17S 9712   0.395   2.342   5.104 -1.4119  0.5194  0.9587
   97SAPE  C218 9713   0.220   2.447   5.014  0.6465 -0.1552 -0.2048
   97SAPE  H18R 9714   0.159   2.489   5.097  2.2542  1.3116  0.3007
   97SAPE  H18S 9715   0.152   2.429   4.929 -0.7013  1.6041  0.4310
   97SAPE  C219 9716   0.302   2.568   4.964 -0.4612  0.4687 -0.3503
   97SAPE  H19R 9717   0.354   2.543   4.869 -0.3250  0.9510 -0.4026
   97SAPE  H19S 9718   0.377   2.572   5.045  1.9248  0.9731 -2.4460
   97SAPE  C220 9719   0.233   2.706   4.957 -0.2284  0.0610  0.7972
   97SAPE  H20R 9720   0.131   2.712   4.912  0.3455  1.6920 -0.3681
   97SAPE  H20S 9721   0.302   2.775   4.903  1.1129 -2.3135 -0.6755
   97SAPE  H20T 9722   0.235   2.744   5.062 -2.7828  0.2026  0.8594
   97SAPE   C33 9723   0.148   2.534   6.043 -0.7967  0.2153  0.5869
   97SAPE   H3X 9724   0.086   2.443   6.061  0.1329 -0.5441  0.0222
   97SAPE   H3Y 9725   0.253   2.504   6.062 -0.6813  0.4909  0.3838
   97SAPE   C34 9726   0.136   2.563   5.893 -0.3102 -0.0327 -0.0211
   97SAPE   H4X 9727   0.187   2.483   5.836  0.7599 -0.1717  1.0802
   97SAPE   H4Y 9728   0.196   2.654   5.870 -0.4425  0.0220 -0.1468
   97SAPE   C35 9729  -0.011   2.576   5.846 -0.5967  0.3106 -0.8080
   97SAPE   H5X 9730  -0.060   2.664   5.892  0.8702 -0.3975  2.3731
   97SAPE   H5Y 9731  -0.075   2.492   5.880  1.0009 -0.4781  0.3544
   97SAPE   C36 9732  -0.025   2.566   5.693  0.8391  0.2851 -0.4058
   97SAPE   H6X 9733  -0.133   2.548   5.672  1.1874  1.0723 -3.4443
   97SAPE   H6Y 9734   0.026   2.475   5.655 -0.5365 -1.5806  1.9630
   97SAPE   C37 9735   0.018   2.684   5.612  0.2240 -0.0729 -0.2454
   97SAPE   H7X 9736   0.122   2.674   5.574  0.6581  0.2132  0.8189
   97SAPE   H7Y 9737   0.007   2.780   5.667  1.5573  1.7194 -2.9090
   97SAPE   C38 9738  -0.059   2.704   5.484  0.2111 -0.2207  0.1968
   97SAPE   H8X 9739  -0.035   2.804   5.443  0.4901  1.1575  3.4317
   97SAPE   H8Y 9740  -0.168   2.703   5.502  0.4866 -1.1281  2.0374
   97SAPE   C39 9741  -0.026   2.604   5.373 -0.0241  0.7245 -0.4865
   97SAPE   H9X 9742  -0.024   2.501   5.414  1.3361  1.1688  0.6407
   97SAPE   H9Y 9743   0.078   2.618   5.335  0.8737  0.1007  1.5942
   97SAPE  C310 9744  -0.108   2.610   5.249  0.4485 -0.4768  0.8970
   97SAPE  H10X 9745  -0.212   2.582   5.278 -0.5025  1.4291 -0.4489
   97SAPE  H10Y 9746  -0.070   2.536   5.175  3.1934  1.5120  0.1577
   97SAPE  C311 9747  -0.128   2.742   5.171 -0.3497  0.7003  0.3231
   97SAPE  H11X 9748  -0.139   2.727   5.062  0.9062  3.0570 -0.1823
   97SAPE  H11Y 9749  -0.040   2.806   5.192  0.0341 -0.1336  1.3533
   97SAPE  C312 9750  -0.256   2.819   5.213 -0.2134  0.0024 -0.0434
   97SAPE  H12X 9751  -0.258   2.843   5.322  0.0606 -3.6462  0.9132
   97SAPE  H12Y 9752  -0.349   2.761   5.195 -1.7481  1.6964  1.9667
   97SAPE  C313 9753  -0.269   2.956   5.132  0.4870 -0.4859 -0.1556
   97SAPE  H13X 9754  -0.172   3.006   5.152 -0.3580  1.2812 -0.3147
   97SAPE  H13Y 9755  -0.346   3.020   5.179  1.2336 -1.2628  2.2738
   97SAPE  C314 9756  -0.295   2.935   4.986 -0.4253 -0.0653  0.5076
   97SAPE  H14X 9757  -0.392   2.885   4.965  0.8288 -1.2752 -3.2424
   97SAPE  H14Y 9758  -0.206   2.879   4.948 -0.6324  1.0016 -1.6788
   97SAPE  C315 9759  -0.309   3.072   4.915 -0.1995  0.0436  0.0669
   97SAPE  H15X 9760  -0.218   3.129   4.940  1.5678 -1.6432 -2.1092
   97SAPE  H15Y 9761  -0.392   3.132   4.957 -2.5344 -0.6875 -3.0409
   97SAPE  C316 9762  -0.344   3.062   4.764 -0.8322 -0.1084 -0.0029
   97SAPE  H16X 9763  -0.330   3.167   4.731  0.0318 -0.2393 -0.0920
   97SAPE  H16Y 9764  -0.446   3.030   4.738 -0.0601 -1.3709 -1.6304
   97SAPE  C317 9765  -0.246   2.986   4.685  0.2244  0.0196 -0.4862
   97SAPE  H17X 9766  -0.275   2.879   4.696 -0.1841  0.2356  0.6366
   97SAPE  H17Y 9767  -0.143   2.997   4.723 -0.6408  0.7881  1.8347
   97SAPE  C318 9768  -0.248   3.019   4.537 -0.3150 -0.0760  0.3245
   97SAPE  H18X 9769  -0.182   2.957   4.472 -0.1481  0.6349 -0.1982
   97SAPE  H18Y 9770  -0.223   3.127   4.522 -1.5926  0.4755  1.9463
   97SAPE  H18Z 9771  -0.353   3.003   4.505 -0.1912  0.7727 -0.5585
   98SAPE     N 9772   0.909   5.876   6.871  0.1017 -0.0451 -0.9048
   98SAPE   HN1 9773   0.806   5.877   6.861 -0.2338  1.7167  1.7535
   98SAPE   HN2 9774   0.941   5.789   6.823  2.5985  0.0172  0.4670
   98SAPE   HN3 9775   0.937   5.868   6.971 -0.3855 -0.1799 -0.7758
   98SAPE   C12 9776   0.953   6.006   6.813  0.2763  0.9540 -0.3159
   98SAPE  H12A 9777   1.064   6.005   6.807  0.4380 -1.7260  1.3738
   98SAPE  H12B 9778   0.928   6.092   6.879  0.0026  1.2857 -0.8437
   98SAPE   C11 9779   0.884   6.012   6.672 -0.4180 -0.7640 -0.0636
   98SAPE  H11A 9780   0.936   5.941   6.605 -1.1414 -0.9604 -0.4353
   98SAPE  H11B 9781   0.918   6.110   6.632 -0.4016 -1.0822 -0.8466
   98SAPE     P 9782   0.655   5.990   6.552 -0.1124  0.1914 -0.0612
   98SAPE   O13 9783   0.697   5.877   6.463 -0.0772  0.0306 -0.4917
   98SAPE   O14 9784   0.515   5.995   6.589  0.0541 -0.0498 -0.1192
   98SAPE   O12 9785   0.743   5.995   6.679 -0.6342  0.3243  0.2630
   98SAPE   O11 9786   0.704   6.133   6.488 -0.1948  0.5078  0.1815
   98SAPE    C1 9787   0.606   6.242   6.496  0.1362 -0.4392 -0.4957
   98SAPE    HA 9788   0.555   6.244   6.596  0.4783  0.2001 -0.3280
   98SAPE    HB 9789   0.659   6.339   6.487  1.5225 -1.0745  0.5161
   98SAPE    C2 9790   0.499   6.230   6.383  0.5563  0.1637  0.0029
   98SAPE    HS 9791   0.446   6.137   6.412 -1.0468  0.8613 -0.6081
   98SAPE   O21 9792   0.564   6.225   6.248 -0.1034 -0.2852  0.2010
   98SAPE   C21 9793   0.489   6.229   6.138  0.2779  0.0470 -0.1191
   98SAPE   O22 9794   0.369   6.215   6.137 -0.3808 -0.0098 -0.0567
   98SAPE   C22 9795   0.576   6.244   6.009  0.1290  0.7220 -0.4471
   98SAPE   H2R 9796   0.601   6.350   5.988  0.5037  0.8099  0.3795
   98SAPE   H2S 9797   0.669   6.187   6.030 -0.9259  0.0992  3.2300
   98SAPE    C3 9798   0.396   6.343   6.404 -0.1794 -0.0536  0.3879
   98SAPE    HX 9799   0.363   6.354   6.509 -2.0064  1.4766 -0.2799
   98SAPE    HY 9800   0.306   6.318   6.343  0.1905  1.1618 -0.6979
   98SAPE   O31 9801   0.452   6.466   6.355  0.1674  0.0695 -0.2657
   98SAPE   C31 9802   0.359   6.570   6.355  1.0577  0.0746  0.5064
   98SAPE   O32 9803   0.247   6.558   6.409  0.5505 -0.2111  0.2099
   98SAPE   C32 9804   0.407   6.686   6.284  0.1736 -0.2080 -0.0900
   98SAPE   H2X 9805   0.486   6.734   6.345  0.1670  1.5224 -1.3550
   98SAPE   H2Y 9806   0.318   6.752   6.291 -0.8982 -1.8044  2.6999
   98SAPE   C23 9807   0.508   6.184   5.872 -0.1615 -0.2428 -0.8402
   98SAPE   H3R 9808   0.401   6.214   5.866  0.2260  1.3632 -0.1396
   98SAPE   H3S 9809   0.509   6.073   5.880 -1.7249 -0.1638  1.1678
   98SAPE   C24 9810   0.585   6.226   5.749  0.1143  0.0125 -0.0013
   98SAPE   H4R 9811   0.569   6.336   5.744 -3.6152 -0.2555  2.1383
   98SAPE   H4S 9812   0.528   6.172   5.671  0.3261  0.1437 -0.2476
   98SAPE   C25 9813   0.730   6.190   5.728 -0.0955 -0.2658  0.1053
   98SAPE   H5R 9814   0.788   6.156   5.815 -0.7004 -0.4952  0.4285
   98SAPE   C26 9815   0.808   6.231   5.623 -0.7800  0.0189  0.6274
   98SAPE   H6R 9816   0.912   6.197   5.616 -0.3662  0.9464  1.8356
   98SAPE   C27 9817   0.764   6.315   5.503  0.0471 -0.2589 -0.6843
   98SAPE   H7R 9818   0.814   6.411   5.529  0.6285 -1.0177  1.0674
   98SAPE   H7S 9819   0.658   6.351   5.502  0.7863  2.1550  0.3664
   98SAPE   C28 9820   0.822   6.264   5.373  0.4075 -0.5557 -0.1855
   98SAPE   H8R 9821   0.904   6.194   5.393 -0.9265 -2.3311 -0.6399
   98SAPE   C29 9822   0.766   6.278   5.256  0.1545  0.6485 -0.1760
   98SAPE   H9R 9823   0.818   6.232   5.171 -0.9727 -2.2828  0.6188
   98SAPE  C210 9824   0.639   6.360   5.228 -0.0663  0.6705  0.1130
   98SAPE  H10R 9825   0.652   6.421   5.136 -2.4619  0.3769 -0.4893
   98SAPE  H10S 9826   0.615   6.440   5.301 -0.5906 -0.2606  0.9777
   98SAPE  C211 9827   0.509   6.278   5.215  0.0355  0.3483  0.2391
   98SAPE  H11R 9828   0.511   6.182   5.270 -1.0514 -0.6289 -1.3585
   98SAPE  C212 9829   0.399   6.313   5.150 -0.7370  0.5188  0.4262
   98SAPE  H12R 9830   0.323   6.235   5.133 -0.0492 -0.2018  0.6125
   98SAPE  C213 9831   0.386   6.445   5.081 -0.3823  0.2706 -0.0465
   98SAPE  H13R 9832   0.350   6.460   4.977  0.0664  3.7565  0.1692
   98SAPE  H13S 9833   0.483   6.499   5.075 -0.6761  1.0315  1.5910
   98SAPE  C214 9834   0.299   6.528   5.167 -0.0332 -0.1657 -0.3635
   98SAPE  H14R 9835   0.356   6.550   5.259  0.9174  2.0537 -1.4156
   98SAPE  C215 9836   0.166   6.557   5.152 -0.7742 -0.0503 -0.2620
   98SAPE  H15R 9837   0.122   6.619   5.232 -1.2297 -2.2039  1.2615
   98SAPE  C216 9838   0.077   6.498   5.047  0.4346  0.7428 -0.4847
   98SAPE  H16R 9839  -0.023   6.464   5.082  0.2163  0.3042 -1.4810
   98SAPE  H16S 9840   0.121   6.406   5.002 -2.9472 -1.4412  0.3467
   98SAPE  C217 9841   0.041   6.601   4.933 -0.3846 -0.0255 -0.1251
   98SAPE  H17R 9842   0.135   6.650   4.901 -1.3009  2.4882  0.7767
   98SAPE  H17S 9843  -0.029   6.679   4.970 -2.3840 -1.5708 -0.4805
   98SAPE  C218 9844  -0.034   6.538   4.813 -0.7491  0.1305 -0.2969
   98SAPE  H18R 9845   0.018   6.450   4.770 -0.8657 -0.0646 -0.0416
   98SAPE  H18S 9846  -0.055   6.616   4.737 -0.3169  0.7892  0.2418
   98SAPE  C219 9847  -0.172   6.480   4.848 -0.3882  0.7553 -0.2712
   98SAPE  H19R 9848  -0.220   6.547   4.922  2.5146  1.0331  1.5125
   98SAPE  H19S 9849  -0.157   6.387   4.908 -3.3650  1.0573  1.1037
   98SAPE  C220 9850  -0.268   6.450   4.739  0.3698  0.0436  0.6643
   98SAPE  H20R 9851  -0.304   6.544   4.692  1.5976  0.3603  0.3221
   98SAPE  H20S 9852  -0.361   6.413   4.788 -0.6046 -0.4470 -1.4141
   98SAPE  H20T 9853  -0.238   6.372   4.665 -1.5606 -2.2435  2.1156
   98SAPE   C33 9854   0.449   6.643   6.139  0.6750 -0.2697 -0.1040
   98SAPE   H3X 9855   0.544   6.586   6.143  0.4705 -0.5285  2.2191
   98SAPE   H3Y 9856   0.474   6.742   6.097 -0.7049  0.3624  0.4987
   98SAPE   C34 9857   0.349   6.581   6.041 -0.1957  0.0975 -0.6055
   98SAPE   H4X 9858   0.261   6.646   6.059 -0.0886 -0.0815  0.6329
   98SAPE   H4Y 9859   0.333   6.476   6.074  1.2888  0.0876  0.1829
   98SAPE   C35 9860   0.391   6.580   5.895 -0.6818  0.0255  0.0527
   98SAPE   H5X 9861   0.485   6.522   5.878 -0.6830 -0.5234  1.6863
   98SAPE   H5Y 9862   0.417   6.681   5.857 -0.0146  0.7605  2.3081
   98SAPE   C36 9863   0.288   6.502   5.810  0.6341 -0.4963  0.2842
   98SAPE   H6X 9864   0.193   6.557   5.828 -0.2075 -1.6888 -0.3654
   98SAPE   H6Y 9865   0.282   6.394   5.834 -0.4243 -0.5417 -0.1105
   98SAPE   C37 9866   0.317   6.523   5.667 -0.0643  0.0112 -0.2560
   98SAPE   H7X 9867   0.426   6.538   5.653  0.0565 -0.6462 -0.0492
   98SAPE   H7Y 9868   0.270   6.613   5.621 -1.2117 -0.2449  0.3843
   98SAPE   C38 9869   0.275   6.409   5.572  0.3196 -0.4255  0.2248
   98SAPE   H8X 9870   0.336   6.319   5.594  1.0454 -0.2828 -1.0669
   98SAPE   H8Y 9871   0.294   6.433   5.465 -0.2173 -0.5392  0.1027
   98SAPE   C39 9872   0.129   6.378   5.581 -0.1284 -0.0417 -0.0702
   98SAPE   H9X 9873   0.071   6.465   5.617 -0.2057 -0.9882  2.2784
   98SAPE   H9Y 9874   0.125   6.301   5.661 -0.2710 -1.4371 -1.3686
   98SAPE  C310 9875   0.072   6.342   5.445 -0.0906 -0.2818  0.4002
   98SAPE  H10X 9876   0.152   6.283   5.395 -0.3463 -0.2991  0.0087
   98SAPE  H10Y 9877   0.046   6.435   5.390  1.3724  0.3566  0.7181
   98SAPE  C311 9878  -0.051   6.251   5.459 -0.0112  0.6974 -0.4815
   98SAPE  H11X 9879  -0.127   6.287   5.531  2.3872  3.0739  1.0546
   98SAPE  H11Y 9880  -0.021   6.149   5.493 -0.9108  0.6665  0.2466
   98SAPE  C312 9881  -0.125   6.246   5.324 -0.1664  0.9048 -0.4406
   98SAPE  H12X 9882  -0.061   6.223   5.236 -0.5807  3.0898 -1.3842
   98SAPE  H12Y 9883  -0.155   6.346   5.286 -1.5415 -0.3178 -2.8550
   98SAPE  C313 9884  -0.239   6.148   5.323 -0.3518  0.1219 -0.5193
   98SAPE  H13X 9885  -0.313   6.165   5.405  2.2841 -0.1763  2.0951
   98SAPE  H13Y 9886  -0.192   6.050   5.345 -1.7350 -0.9747 -2.1492
   98SAPE  C314 9887  -0.309   6.137   5.182 -0.2256 -0.0249 -0.1024
   98SAPE  H14X 9888  -0.250   6.194   5.107 -0.6564  1.3573  0.5568
   98SAPE  H14Y 9889  -0.406   6.189   5.199  0.1277  0.5871  0.0777
   98SAPE  C315 9890  -0.311   5.989   5.128 -0.0929 -0.1643  0.0943
   98SAPE  H15X 9891  -0.342   5.917   5.207 -1.4454 -0.4466 -0.6595
   98SAPE  H15Y 9892  -0.211   5.960   5.089 -0.2286  0.3416 -0.6567
   98SAPE  C316 9893  -0.400   5.990   5.012 -0.2322  0.1446  0.0572
   98SAPE  H16X 9894  -0.349   6.032   4.922  2.9952 -1.0410  1.1829
   98SAPE  H16Y 9895  -0.485   6.060   5.027  2.0044  2.9710  0.5254
   98SAPE  C317 9896  -0.465   5.853   4.975 -0.0761  0.0254 -0.0833
   98SAPE  H17X 9897  -0.393   5.772   4.999  0.6300 -0.4209 -3.3302
   98SAPE  H17Y 9898  -0.500   5.861   4.870  1.4373  1.1321 -0.5477
   98SAPE  C318 9899  -0.590   5.827   5.067 -0.0912  0.3225  0.6667
   98SAPE  H18X 9900  -0.577   5.785   5.169 -1.8320  2.8083  2.0276
   98SAPE  H18Y 9901  -0.649   5.749   5.015  1.9108 -1.6133  1.1165
   98SAPE  H18Z 9902  -0.649   5.921   5.069  2.2907  2.0901 -2.8033
   99SAPE     N 9903   0.654   5.047   6.617  0.0822  0.3381 -0.1383
   99SAPE   HN1 9904   0.632   4.982   6.695  3.6654 -0.0793  0.7033
   99SAPE   HN2 9905   0.735   5.103   6.650  0.6748 -0.2955 -0.4874
   99SAPE   HN3 9906   0.564   5.098   6.607 -1.3234 -2.3006 -2.4896
   99SAPE   C12 9907   0.703   4.975   6.495  0.3729 -0.1084  0.4087
   99SAPE  H12A 9908   0.756   4.882   6.525  0.1399  0.0532  1.3345
   99SAPE  H12B 9909   0.775   5.047   6.450 -0.0606 -0.6007 -1.1584
   99SAPE   C11 9910   0.590   4.938   6.395  0.2857 -0.0923 -0.4457
   99SAPE  H11A 9911   0.638   4.889   6.307 -2.7253 -2.5255 -0.8831
   99SAPE  H11B 9912   0.541   5.033   6.366  0.6905  0.6010  1.0174
   99SAPE     P 9913   0.489   4.693   6.425 -0.3715 -0.3452 -0.2691
   99SAPE   O13 9914   0.627   4.653   6.441 -0.2532  0.2751 -0.2763
   99SAPE   O14 9915   0.392   4.610   6.503  0.1080 -0.1711  0.5120
   99SAPE   O12 9916   0.489   4.855   6.452 -0.1215 -0.5960  0.0208
   99SAPE   O11 9917   0.464   4.675   6.275  0.5865 -0.1619 -0.0264
   99SAPE    C1 9918   0.334   4.651   6.213 -0.1488 -0.3287 -0.2577
   99SAPE    HA 9919   0.273   4.577   6.268  0.6817 -0.8693 -0.0489
   99SAPE    HB 9920   0.270   4.742   6.209  0.5994  0.3184  1.4934
   99SAPE    C2 9921   0.356   4.612   6.062  0.2047 -0.6105 -0.2742
   99SAPE    HS 9922   0.389   4.707   6.016  0.1955 -0.2336  0.4744
   99SAPE   O21 9923   0.216   4.577   6.030  0.1759  0.1475 -0.1328
   99SAPE   C21 9924   0.181   4.618   5.909  0.1653  0.3003 -0.3994
   99SAPE   O22 9925   0.261   4.679   5.837  0.1655 -0.1597  0.3174
   99SAPE   C22 9926   0.034   4.601   5.896 -0.1462 -0.7969  0.0077
   99SAPE   H2R 9927   0.011   4.495   5.924 -0.2906 -0.9323 -0.6125
   99SAPE   H2S 9928  -0.027   4.655   5.971 -1.3565 -0.4699 -1.1696
   99SAPE    C3 9929   0.458   4.499   6.040  0.4745  0.2141  0.6323
   99SAPE    HX 9930   0.438   4.414   6.108  1.5641 -0.4569  0.1422
   99SAPE    HY 9931   0.554   4.527   6.088  0.8759 -0.3046  0.1502
   99SAPE   O31 9932   0.467   4.464   5.903 -0.5014  0.3855 -0.2574
   99SAPE   C31 9933   0.551   4.547   5.831 -0.1877 -0.0774  0.1700
   99SAPE   O32 9934   0.612   4.638   5.883  0.1484 -0.4123  0.3114
   99SAPE   C32 9935   0.555   4.492   5.685 -0.2135 -0.7639 -0.6449
   99SAPE   H2X 9936   0.450   4.478   5.653 -0.8057  1.4421  0.1165
   99SAPE   H2Y 9937   0.613   4.399   5.703 -1.3022 -1.2695  0.3792
   99SAPE   C23 9938  -0.025   4.637   5.752 -0.0242  0.1274  0.2100
   99SAPE   H3R 9939   0.057   4.654   5.679  0.4090 -1.4240  0.2883
   99SAPE   H3S 9940  -0.082   4.732   5.751 -0.2455 -0.0111 -0.3875
   99SAPE   C24 9941  -0.125   4.527   5.695  0.7520  0.8800  0.0933
   99SAPE   H4R 9942  -0.173   4.572   5.605 -2.6978 -2.6699 -0.1045
   99SAPE   H4S 9943  -0.197   4.493   5.772  0.6493 -0.7652 -0.6892
   99SAPE   C25 9944  -0.049   4.408   5.641  0.1787  1.0858 -0.1236
   99SAPE   H5R 9945  -0.007   4.341   5.718  3.0068  0.8344 -1.7163
   99SAPE   C26 9946  -0.029   4.377   5.515 -0.1421  0.1061 -0.3657
   99SAPE   H6R 9947   0.018   4.281   5.488 -1.0646 -0.9639  1.6230
   99SAPE   C27 9948  -0.067   4.444   5.390 -0.0511 -0.4654  0.2538
   99SAPE   H7R 9949   0.013   4.443   5.313  1.9873  1.8104  2.1607
   99SAPE   H7S 9950  -0.070   4.554   5.407 -0.6472 -0.4760  0.2510
   99SAPE   C28 9951  -0.186   4.393   5.308 -0.4202 -0.3262 -0.5759
   99SAPE   H8R 9952  -0.242   4.303   5.338 -0.2959  0.1055  1.0747
   99SAPE   C29 9953  -0.261   4.476   5.237 -0.1584  0.3503 -0.3275
   99SAPE   H9R 9954  -0.347   4.425   5.191 -1.3573 -0.3455  2.5049
   99SAPE  C210 9955  -0.248   4.620   5.192 -0.2359  1.2689  0.0008
   99SAPE  H10R 9956  -0.143   4.646   5.219  0.2374  0.1369 -0.6450
   99SAPE  H10S 9957  -0.314   4.687   5.251 -1.0574 -1.1094  1.9767
   99SAPE  C211 9958  -0.276   4.631   5.038  0.5729  0.1559 -0.4163
   99SAPE  H11R 9959  -0.380   4.599   5.018  1.2324 -3.0317  0.6716
   99SAPE  C212 9960  -0.193   4.644   4.937  0.5028 -0.0156  0.4399
   99SAPE  H12R 9961  -0.238   4.628   4.838  0.6223 -1.2628  0.5639
   99SAPE  C213 9962  -0.042   4.657   4.935  0.1571 -0.5095  0.0529
   99SAPE  H13R 9963  -0.004   4.673   5.038  1.3889 -1.6682 -0.2038
   99SAPE  H13S 9964  -0.006   4.744   4.877 -0.9131 -0.0601  0.0281
   99SAPE  C214 9965   0.016   4.527   4.893 -0.0796 -0.8834 -0.6216
   99SAPE  H14R 9966   0.015   4.455   4.977 -1.4526 -0.0685  0.0950
   99SAPE  C215 9967   0.068   4.489   4.771  1.3757  0.5604  0.3905
   99SAPE  H15R 9968   0.123   4.396   4.750  1.6600  1.3089 -2.6146
   99SAPE  C216 9969   0.078   4.586   4.653 -0.6020  0.3912 -0.0451
   99SAPE  H16R 9970  -0.007   4.656   4.646 -0.9022  0.1176  0.8195
   99SAPE  H16S 9971   0.060   4.523   4.563 -0.8822 -0.5272  0.6384
   99SAPE  C217 9972   0.206   4.667   4.638 -0.8440  0.0844 -0.5765
   99SAPE  H17R 9973   0.210   4.747   4.714  0.6218 -0.0952 -0.4279
   99SAPE  H17S 9974   0.197   4.715   4.538  0.3996 -2.2513 -1.8960
   99SAPE  C218 9975   0.335   4.571   4.654  0.0973  0.3978 -0.7710
   99SAPE  H18R 9976   0.327   4.494   4.574 -0.7371 -0.6816  0.3125
   99SAPE  H18S 9977   0.325   4.519   4.752 -1.3098 -0.2274 -1.2174
   99SAPE  C219 9978   0.467   4.653   4.659  0.0169 -0.3877 -0.0914
   99SAPE  H19R 9979   0.449   4.760   4.682  0.9320 -0.3331  0.4397
   99SAPE  H19S 9980   0.506   4.652   4.555  0.8181 -1.5459  0.2022
   99SAPE  C220 9981   0.577   4.617   4.757  0.0792  0.5643  0.4151
   99SAPE  H20R 9982   0.609   4.511   4.753  1.5735  1.0176 -0.5588
   99SAPE  H20S 9983   0.550   4.626   4.864  0.6561 -3.1505  1.0022
   99SAPE  H20T 9984   0.672   4.668   4.730  0.3204 -0.9881 -1.9732
   99SAPE   C33 9985   0.615   4.595   5.590 -0.2196  0.2150  0.3400
   99SAPE   H3X 9986   0.613   4.541   5.494 -1.4587  1.5149 -0.4132
   99SAPE   H3Y 9987   0.720   4.615   5.623  0.0595 -1.5033  0.5582
   99SAPE   C34 9988   0.539   4.732   5.581  0.5233  0.6854  0.1585
   99SAPE   H4X 9989   0.518   4.764   5.685  3.0278  0.6929  0.7056
   99SAPE   H4Y 9990   0.448   4.711   5.519 -0.3715  0.7978  1.3980
   99SAPE   C35 9991   0.616   4.844   5.510  1.1195  0.4554 -0.8104
   99SAPE   H5X 9992   0.704   4.874   5.571  0.5664  1.1377 -0.3289
   99SAPE   H5Y 9993   0.552   4.934   5.498 -0.7477 -0.6711  0.1793
   99SAPE   C36 9994   0.649   4.805   5.368 -0.3158  0.1812 -0.1235
   99SAPE   H6X 9995   0.554   4.771   5.321 -0.9705  0.2676  1.0886
   99SAPE   H6Y 9996   0.715   4.716   5.359 -1.5871 -0.8037 -0.0819
   99SAPE   C37 9997   0.697   4.922   5.293  0.6496  0.0387  0.0298
   99SAPE   H7X 9998   0.784   4.962   5.349  0.7682 -0.5397  0.2706
   99SAPE   H7Y 9999   0.625   5.006   5.304  0.1566 -0.3694 -0.0757
   99SAPE   C3810000   0.709   4.883   5.150  0.3183 -0.3619  0.0438
   99SAPE   H8X10001   0.612   4.847   5.109  0.1281  1.3893 -1.1348
   99SAPE   H8Y10002   0.772   4.792   5.139 -2.1875 -2.1529 -0.5455
   99SAPE   C3910003   0.778   4.999   5.072 -0.2799 -0.1172 -0.2147
   99SAPE   H9X10004   0.888   4.997   5.092 -0.1681  3.6571  0.1919
   99SAPE   H9Y10005   0.745   5.090   5.124 -0.8813 -0.7042  0.4430
   99SAPE  C31010006   0.770   4.997   4.915 -1.3173 -0.5188 -0.9287
   99SAPE  H10X10007   0.829   4.914   4.870 -0.1587  1.3845 -3.1266
   99SAPE  H10Y10008   0.827   5.089   4.890 -0.2554 -0.7917  0.4058
   99SAPE  C31110009   0.624   4.996   4.859 -0.6031 -0.2193 -0.6283
   99SAPE  H11X10010   0.568   5.084   4.897 -1.3142 -0.1236 -1.8469
   99SAPE  H11Y10011   0.567   4.911   4.902  0.2035 -0.4814 -0.0385
   99SAPE  C31210012   0.617   5.001   4.704  0.4805 -0.1378 -0.1283
   99SAPE  H12X10013   0.657   4.910   4.654  1.6627  1.1545 -1.6689
   99SAPE  H12Y10014   0.685   5.082   4.669 -0.4345  2.0538  2.7508
   99SAPE  C31310015   0.478   5.029   4.644 -0.1751  0.7409 -0.1477
   99SAPE  H13X10016   0.453   5.134   4.668 -0.1186  1.1511 -1.7340
   99SAPE  H13Y10017   0.396   4.975   4.697  0.8869 -0.9364 -0.1461
   99SAPE  C31410018   0.461   4.985   4.496 -0.1284 -0.0913 -0.6278
   99SAPE  H14X10019   0.359   4.941   4.486 -1.1759  1.9949  0.2147
   99SAPE  H14Y10020   0.524   4.899   4.465  0.4992  0.5785 -1.2277
   99SAPE  C31510021   0.479   5.101   4.391  0.0811 -0.2194  0.0841
   99SAPE  H15X10022   0.439   5.199   4.425 -0.9578  0.0314 -1.7379
   99SAPE  H15Y10023   0.444   5.075   4.289  0.0916  0.5905 -0.1394
   99SAPE  C31610024   0.632   5.130   4.384 -0.4506 -0.1268 -0.1387
   99SAPE  H16X10025   0.681   5.030   4.386 -0.9392 -0.3968  2.9220
   99SAPE  H16Y10026   0.657   5.190   4.474  0.6303  2.2163 -1.8809
   99SAPE  C31710027   0.668   5.213   4.259 -0.4531  0.1859  0.0629
   99SAPE  H17X10028   0.598   5.299   4.246 -1.3890 -0.8210 -2.0273
   99SAPE  H17Y10029   0.645   5.150   4.171  0.8763  0.8381 -0.7856
   99SAPE  C31810030   0.815   5.266   4.259  0.2236 -0.9397  0.3538
   99SAPE  H18X10031   0.838   5.296   4.364  2.0184 -0.6175 -0.0980
   99SAPE  H18Y10032   0.829   5.350   4.188  0.8133 -0.2491  1.2651
   99SAPE  H18Z10033   0.884   5.182   4.238 -0.0423 -1.0567 -0.0650
  100SAPE     N10034   2.863   6.148   6.576 -0.4213  0.0570 -0.0947
  100SAPE   HN110035   2.848   6.246   6.607 -1.6252 -0.0090 -0.4250
  100SAPE   HN210036   2.931   6.099   6.638  0.0865 -0.8651 -1.3376
  100SAPE   HN310037   2.907   6.144   6.482 -2.5893  0.3034 -1.1696
  100SAPE   C1210038   2.735   6.065   6.577 -0.6432  0.2622  0.0899
  100SAPE  H12A10039   2.664   6.124   6.516 -0.5522  1.1273  0.8025
  100SAPE  H12B10040   2.697   6.059   6.681 -1.6084  0.0080 -0.2746
  100SAPE   C1110041   2.763   5.929   6.500 -0.6080  0.0426 -0.0120
  100SAPE  H11A10042   2.768   5.960   6.393 -2.6418 -0.4084 -0.2672
  100SAPE  H11B10043   2.674   5.866   6.519 -2.9502  2.9729 -0.5353
  100SAPE     P10044   2.914   5.714   6.530 -0.3030 -0.0933 -0.6789
  100SAPE   O1310045   3.054   5.691   6.577 -0.4308 -0.3180  0.3542
  100SAPE   O1410046   2.804   5.644   6.605 -0.4111  0.6318 -0.4102
  100SAPE   O1210047   2.888   5.874   6.537  0.6880  0.2901 -0.6013
  100SAPE   O1110048   2.899   5.679   6.378 -0.7934  0.4460 -0.2165
  100SAPE    C110049   2.963   5.756   6.274  0.0398  0.5175  0.2219
  100SAPE    HA10050   2.981   5.863   6.301 -1.2695  0.9925 -0.6589
  100SAPE    HB10051   3.054   5.701   6.244  0.7630  1.7757  0.0234
  100SAPE    C210052   2.868   5.746   6.153  0.6884  0.2934 -0.4001
  100SAPE    HS10053   2.780   5.800   6.193  0.1251 -2.0690  1.8175
  100SAPE   O2110054   2.837   5.601   6.121  0.5027  0.3590  0.6551
  100SAPE   C2110055   2.709   5.596   6.077 -0.8473  0.0824 -0.0766
  100SAPE   O2210056   2.622   5.679   6.101  0.0213 -0.1441  0.0442
  100SAPE   C2210057   2.703   5.471   5.987  0.0693  0.0199 -0.0754
  100SAPE   H2R10058   2.803   5.459   5.941  0.0021  1.2900 -0.6075
  100SAPE   H2S10059   2.694   5.384   6.056 -2.6129 -0.6951 -1.2094
  100SAPE    C310060   2.937   5.816   6.034  0.3761  0.0957 -0.1864
  100SAPE    HX10061   3.042   5.780   6.031  1.5644  3.1673  1.0816
  100SAPE    HY10062   2.944   5.924   6.056 -1.5962  0.3518 -0.5832
  100SAPE   O3110063   2.869   5.788   5.911 -0.5470 -0.8749 -0.1688
  100SAPE   C3110064   2.768   5.871   5.876 -0.7000  0.2500 -0.4195
  100SAPE   O3210065   2.721   5.955   5.945  0.0735  0.5160 -0.6514
  100SAPE   C3210066   2.720   5.835   5.738 -0.4451  0.0001 -0.1696
  100SAPE   H2X10067   2.679   5.731   5.738  0.4419 -0.3768  1.1272
  100SAPE   H2Y10068   2.815   5.842   5.681 -0.3407 -2.4438 -0.3901
  100SAPE   C2310069   2.590   5.477   5.884  0.0292  0.3038  0.3634
  100SAPE   H3R10070   2.578   5.581   5.847  0.1857  0.2638  0.1964
  100SAPE   H3S10071   2.496   5.448   5.935  0.6452 -1.2375  0.6885
  100SAPE   C2410072   2.615   5.392   5.754  0.7531 -0.3479 -0.1272
  100SAPE   H4R10073   2.659   5.295   5.785  3.7924 -0.3258 -3.6315
  100SAPE   H4S10074   2.695   5.442   5.696  0.0910  1.3645  0.3712
  100SAPE   C2510075   2.491   5.356   5.679  0.1565 -0.7943  0.4013
  100SAPE   H5R10076   2.398   5.337   5.735 -0.1336 -0.7281 -0.0494
  100SAPE   C2610077   2.484   5.354   5.546 -0.2164 -0.6256  0.1914
  100SAPE   H6R10078   2.394   5.323   5.490 -0.6004 -1.0108  1.0112
  100SAPE   C2710079   2.595   5.387   5.447 -0.0197  0.3900 -0.0354
  100SAPE   H7R10080   2.660   5.298   5.429  1.3862  0.8561  2.3458
  100SAPE   H7S10081   2.669   5.451   5.498  1.0747 -0.3721 -0.6199
  100SAPE   C2810082   2.539   5.449   5.313 -0.3001 -0.5474  0.1053
  100SAPE   H8R10083   2.476   5.539   5.320  1.8146  1.2953 -2.6071
  100SAPE   C2910084   2.553   5.397   5.187 -0.4975 -0.0773 -0.3435
  100SAPE   H9R10085   2.515   5.447   5.096  1.5706 -2.6963 -2.8167
  100SAPE  C21010086   2.633   5.278   5.133 -0.7259 -0.1201 -0.0876
  100SAPE  H10R10087   2.557   5.204   5.099 -0.1987 -1.0983  0.8129
  100SAPE  H10S10088   2.682   5.223   5.216  0.4891  0.5717 -0.3306
  100SAPE  C21110089   2.747   5.309   5.042 -0.2601  0.0984  1.0202
  100SAPE  H11R10090   2.835   5.355   5.091  0.7272 -0.1826 -0.4234
  100SAPE  C21210091   2.749   5.275   4.914  0.0766  0.0526 -1.1308
  100SAPE  H12R10092   2.838   5.310   4.858 -0.8490  1.5594 -1.7010
  100SAPE  C21310093   2.640   5.224   4.829  0.3372 -0.9973 -0.3232
  100SAPE  H13R10094   2.597   5.137   4.881 -0.0684  0.6925  2.3286
  100SAPE  H13S10095   2.677   5.175   4.736 -0.7216  0.6138 -1.6518
  100SAPE  C21410096   2.531   5.321   4.782  0.1838 -0.3596 -0.2225
  100SAPE  H14R10097   2.564   5.426   4.789 -2.2111  0.4481 -0.2144
  100SAPE  C21510098   2.405   5.289   4.746 -0.2765  0.2068  0.4809
  100SAPE  H15R10099   2.353   5.372   4.697 -1.3532 -1.0429 -0.5600
  100SAPE  C21610100   2.342   5.153   4.723 -0.4428 -0.2296 -0.6107
  100SAPE  H16R10101   2.249   5.152   4.783  0.6835 -0.7356  1.2204
  100SAPE  H16S10102   2.402   5.070   4.767  0.7122  0.8397 -0.1202
  100SAPE  C21710103   2.306   5.112   4.583  0.5751 -0.0010 -0.1362
  100SAPE  H17R10104   2.390   5.125   4.511  0.5493 -1.1353 -0.4007
  100SAPE  H17S10105   2.221   5.175   4.550 -0.0731 -0.4108  0.7076
  100SAPE  C21810106   2.269   4.963   4.594 -0.1948 -0.1022 -0.7260
  100SAPE  H18R10107   2.184   4.943   4.663  1.5840 -1.5783  1.1475
  100SAPE  H18S10108   2.354   4.917   4.649 -2.2537 -0.0083  2.7619
  100SAPE  C21910109   2.245   4.894   4.462 -0.1533  0.4908  0.3000
  100SAPE  H19R10110   2.225   4.787   4.487 -1.9262  0.7397  0.0272
  100SAPE  H19S10111   2.337   4.902   4.399 -1.6385  3.0952 -1.7352
  100SAPE  C22010112   2.129   4.951   4.384  0.0871 -0.3061 -0.0962
  100SAPE  H20R10113   2.119   5.061   4.382 -1.0527 -0.3985 -1.6012
  100SAPE  H20S10114   2.032   4.915   4.424  0.2279  0.4454  0.9625
  100SAPE  H20T10115   2.146   4.917   4.279  1.3337  0.0560 -0.0314
  100SAPE   C3310116   2.613   5.937   5.678  0.0631 -0.1693 -0.0666
  100SAPE   H3X10117   2.665   6.035   5.669 -4.1328  2.5429  2.0103
  100SAPE   H3Y10118   2.531   5.945   5.752  1.2918  1.1325  1.2110
  100SAPE   C3410119   2.562   5.892   5.536 -0.0706 -0.3206  0.1763
  100SAPE   H4X10120   2.521   5.985   5.493  0.7911 -0.3046 -0.6495
  100SAPE   H4Y10121   2.481   5.816   5.540  0.1451 -0.8483 -2.9608
  100SAPE   C3510122   2.675   5.839   5.445 -0.6097  0.0304 -0.1307
  100SAPE   H5X10123   2.717   5.740   5.475  1.5241  1.2222  1.1229
  100SAPE   H5Y10124   2.761   5.908   5.464 -0.6219 -0.5687  2.4801
  100SAPE   C3610125   2.638   5.840   5.295  0.0548  0.3811 -0.0452
  100SAPE   H6X10126   2.587   5.931   5.257  2.0074  0.3847 -2.9493
  100SAPE   H6Y10127   2.571   5.754   5.272 -0.7831  1.0853 -0.2900
  100SAPE   C3710128   2.757   5.834   5.200  0.2524  0.4489  0.0406
  100SAPE   H7X10129   2.820   5.753   5.243  1.0056  1.7186  1.4542
  100SAPE   H7Y10130   2.812   5.930   5.215  1.7892 -0.6953  2.1184
  100SAPE   C3810131   2.729   5.824   5.048 -0.0483  0.3501 -0.7640
  100SAPE   H8X10132   2.826   5.823   4.993 -1.1026 -3.4142 -2.9704
  100SAPE   H8Y10133   2.669   5.913   5.023  1.4907  1.5092 -0.4838
  100SAPE   C3910134   2.658   5.691   5.003 -0.1079 -0.4654 -0.7177
  100SAPE   H9X10135   2.600   5.665   5.094 -0.1094  2.0553  0.0903
  100SAPE   H9Y10136   2.735   5.614   4.982  1.2183  1.1588 -2.1088
  100SAPE  C31010137   2.565   5.714   4.883 -0.4404  0.0463  0.2491
  100SAPE  H10X10138   2.492   5.792   4.913 -0.5017 -1.4639  4.5898
  100SAPE  H10Y10139   2.505   5.623   4.864  0.1043 -0.7666  2.2121
  100SAPE  C31110140   2.633   5.745   4.749 -0.3923  0.2545  0.5172
  100SAPE  H11X10141   2.655   5.651   4.694 -0.6127 -0.5388  1.7510
  100SAPE  H11Y10142   2.735   5.782   4.773  1.0648 -4.0275  1.9218
  100SAPE  C31210143   2.577   5.859   4.671 -0.0764 -0.3038 -0.5939
  100SAPE  H12X10144   2.653   5.896   4.599  1.1265  1.8530  1.6201
  100SAPE  H12Y10145   2.551   5.946   4.735  0.6512  1.0674 -2.0712
  100SAPE  C31310146   2.449   5.809   4.606 -0.0994 -0.3554 -0.3128
  100SAPE  H13X10147   2.364   5.819   4.677  0.2222 -3.3246  0.6192
  100SAPE  H13Y10148   2.455   5.705   4.568  0.1042 -0.4221 -0.0996
  100SAPE  C31410149   2.420   5.886   4.476 -0.1922  0.2512 -0.1090
  100SAPE  H14X10150   2.410   5.995   4.497 -1.3105  0.1884 -0.2595
  100SAPE  H14Y10151   2.322   5.857   4.432 -0.3854  1.1289 -0.2822
  100SAPE  C31510152   2.523   5.862   4.359 -0.0942 -0.1790  0.4823
  100SAPE  H15X10153   2.551   5.757   4.339  0.5249  0.1816 -0.6121
  100SAPE  H15Y10154   2.616   5.921   4.374 -0.6622  0.4200  1.8677
  100SAPE  C31610155   2.446   5.916   4.233  0.1309 -0.0272  0.1603
  100SAPE  H16X10156   2.346   5.866   4.233 -1.3762  2.6524 -2.4217
  100SAPE  H16Y10157   2.493   5.885   4.138 -1.7534 -0.8444 -0.5636
  100SAPE  C31710158   2.406   6.065   4.219 -0.3352 -0.2575  0.5686
  100SAPE  H17X10159   2.330   6.091   4.296 -0.9622  1.9346 -0.7068
  100SAPE  H17Y10160   2.368   6.083   4.116  1.3743 -0.8009 -0.1937
  100SAPE  C31810161   2.532   6.156   4.236 -0.5069 -0.3625 -0.3440
  100SAPE  H18X10162   2.607   6.124   4.161 -1.1440 -3.0167  0.0405
  100SAPE  H18Y10163   2.571   6.157   4.339  0.1624  0.7143 -0.6034
  100SAPE  H18Z10164   2.507   6.260   4.207  2.1357  0.3887 -0.1367
  101SAPE     N10165   2.406   5.748   6.240  0.2516  0.8590  0.2153
  101SAPE   HN110166   2.485   5.688   6.208  0.1878  1.0049 -0.2263
  101SAPE   HN210167   2.435   5.840   6.199  1.4430  0.7635  0.7937
  101SAPE   HN310168   2.417   5.763   6.342  0.8395  1.1636  0.1152
  101SAPE   C1210169   2.283   5.700   6.180  0.7532  0.2092 -0.5745
  101SAPE  H12A10170   2.251   5.609   6.235  0.1312  1.2898  0.9331
  101SAPE  H12B10171   2.296   5.683   6.071 -1.6566  0.7444 -1.0190
  101SAPE   C1110172   2.172   5.807   6.196  0.7589  0.0748 -0.0965
  101SAPE  H11A10173   2.081   5.767   6.146 -0.5262  2.3593  0.2648
  101SAPE  H11B10174   2.190   5.901   6.140 -2.5566  0.8626 -0.0481
  101SAPE     P10175   2.124   5.976   6.389 -0.0272  0.1532 -0.5360
  101SAPE   O1310176   1.988   6.018   6.338 -0.0861  0.2583  0.1504
  101SAPE   O1410177   2.146   5.982   6.539  0.4263 -0.0347  0.1496
  101SAPE   O1210178   2.148   5.830   6.333 -0.1081  0.7802  0.1466
  101SAPE   O1110179   2.230   6.068   6.326  0.4528  0.2622 -0.7433
  101SAPE    C110180   2.213   6.207   6.321  0.0947 -0.3761 -0.5661
  101SAPE    HA10181   2.119   6.237   6.270  1.1963  2.2293 -1.2596
  101SAPE    HB10182   2.206   6.256   6.420  0.2353  2.7900 -1.9901
  101SAPE    C210183   2.331   6.278   6.253  0.2441 -0.4728  0.5304
  101SAPE    HS10184   2.288   6.379   6.237  1.8459 -0.1648 -2.7825
  101SAPE   O2110185   2.374   6.218   6.129 -0.1733  0.2465  0.8724
  101SAPE   C2110186   2.291   6.220   6.025  0.4644 -0.5989 -0.1577
  101SAPE   O2210187   2.189   6.286   6.022  0.4946  0.1946 -0.0142
  101SAPE   C2210188   2.358   6.138   5.909  0.5279  0.1579  1.0429
  101SAPE   H2R10189   2.426   6.208   5.855  0.5834  0.1341  1.0819
  101SAPE   H2S10190   2.403   6.051   5.960  0.3291 -1.1299 -0.8830
  101SAPE    C310191   2.454   6.288   6.345  0.2234 -0.6444 -0.0819
  101SAPE    HX10192   2.493   6.186   6.362  0.2518 -0.9638 -1.9253
  101SAPE    HY10193   2.406   6.314   6.442 -1.1321 -0.6803 -0.7208
  101SAPE   O3110194   2.542   6.392   6.305 -0.3149 -0.2964  0.3237
  101SAPE   C3110195   2.641   6.356   6.224  0.1858  0.2853 -0.1253
  101SAPE   O3210196   2.676   6.242   6.201 -0.0573  0.3546 -0.1494
  101SAPE   C3210197   2.701   6.475   6.156 -0.0126 -0.0771 -0.3134
  101SAPE   H2X10198   2.808   6.457   6.136 -0.7657 -2.7569 -2.5595
  101SAPE   H2Y10199   2.696   6.559   6.228 -0.8598 -0.6244  0.2895
  101SAPE   C2310200   2.259   6.079   5.795 -0.5063 -0.6267 -0.6323
  101SAPE   H3R10201   2.178   6.019   5.842  0.3603 -1.7431 -0.5204
  101SAPE   H3S10202   2.330   6.020   5.733 -0.7175 -1.2376 -0.2999
  101SAPE   C2410203   2.205   6.193   5.704  0.3297  0.1466 -0.3162
  101SAPE   H4R10204   2.289   6.243   5.651 -0.2137  0.7981 -0.5837
  101SAPE   H4S10205   2.168   6.276   5.768  0.6145  0.4894 -0.5913
  101SAPE   C2510206   2.102   6.132   5.608 -0.7543  0.0054 -0.1152
  101SAPE   H5R10207   2.014   6.082   5.651 -0.2660 -1.0716 -0.3286
  101SAPE   C2610208   2.138   6.113   5.480  0.5301 -0.7719 -0.3624
  101SAPE   H6R10209   2.058   6.085   5.410  0.7083 -2.3563  0.0171
  101SAPE   C2710210   2.267   6.158   5.420  0.0412  0.3253  0.1614
  101SAPE   H7R10211   2.349   6.149   5.494  0.1427  1.3359  0.1766
  101SAPE   H7S10212   2.258   6.260   5.376 -0.8830 -0.6554 -2.0940
  101SAPE   C2810213   2.308   6.060   5.310  0.0231  0.1785 -0.1377
  101SAPE   H8R10214   2.354   5.968   5.349  1.1868  1.4727  1.7382
  101SAPE   C2910215   2.293   6.083   5.183 -0.0524  0.3513  0.8160
  101SAPE   H9R10216   2.322   6.004   5.113 -0.2533  1.3804 -0.4859
  101SAPE  C21010217   2.239   6.203   5.105  0.0973 -1.1372  0.1918
  101SAPE  H10R10218   2.326   6.253   5.057  0.2748 -2.3973 -0.8497
  101SAPE  H10S10219   2.182   6.273   5.171 -1.0316 -0.5456 -1.3525
  101SAPE  C21110220   2.142   6.161   4.995 -0.5873 -0.7583 -0.7491
  101SAPE  H11R10221   2.039   6.144   5.030  0.5837 -3.5400  1.8393
  101SAPE  C21210222   2.164   6.166   4.863  0.0741 -0.3055  0.6118
  101SAPE  H12R10223   2.082   6.136   4.798  1.9711 -1.1328 -1.5263
  101SAPE  C21310224   2.291   6.193   4.787 -0.1506 -0.1692  0.1022
  101SAPE  H13R10225   2.282   6.151   4.684  0.6930  1.4403 -0.6728
  101SAPE  H13S10226   2.364   6.136   4.848 -3.1262 -0.1929  4.0246
  101SAPE  C21410227   2.325   6.339   4.784 -0.2360 -0.0309  0.4245
  101SAPE  H14R10228   2.347   6.373   4.886 -0.5526 -2.2193  1.2777
  101SAPE  C21510229   2.328   6.422   4.683 -0.4134  0.2720  0.2520
  101SAPE  H15R10230   2.346   6.529   4.699 -0.7735  0.3204  0.3320
  101SAPE  C21610231   2.315   6.379   4.541  0.3624  0.1633  0.6600
  101SAPE  H16R10232   2.230   6.307   4.534  0.0266  0.6876 -1.2477
  101SAPE  H16S10233   2.410   6.335   4.504  0.4611  1.6631 -1.0400
  101SAPE  C21710234   2.281   6.493   4.436 -0.4565  0.1115  0.1268
  101SAPE  H17R10235   2.286   6.434   4.341 -3.7084  0.3213 -0.2838
  101SAPE  H17S10236   2.363   6.568   4.435  0.2981 -0.6943 -0.4678
  101SAPE  C21810237   2.148   6.551   4.449 -0.0337  0.6917 -0.0514
  101SAPE  H18R10238   2.140   6.593   4.552  0.7395 -1.6180  1.0037
  101SAPE  H18S10239   2.065   6.478   4.440 -0.6519  1.4293 -0.4857
  101SAPE  C21910240   2.119   6.672   4.360  0.1908  0.6827 -0.2147
  101SAPE  H19R10241   2.083   6.636   4.261 -0.4332 -0.5496  0.4343
  101SAPE  H19S10242   2.218   6.718   4.343  0.8433 -0.5085  0.2259
  101SAPE  C22010243   2.015   6.774   4.404  0.3619 -0.2981 -0.5563
  101SAPE  H20R10244   2.062   6.839   4.481  1.3789 -2.1162  0.4149
  101SAPE  H20S10245   1.920   6.726   4.436  1.0427 -0.9614  0.5516
  101SAPE  H20T10246   1.982   6.834   4.317 -0.6432  1.3802  0.8859
  101SAPE   C3310247   2.614   6.498   6.028  0.0121 -0.2990  0.2185
  101SAPE   H3X10248   2.653   6.591   5.982 -1.9038  0.3338 -0.2500
  101SAPE   H3Y10249   2.506   6.519   6.044 -0.5995 -0.2632 -3.2053
  101SAPE   C3410250   2.634   6.396   5.913 -0.7021 -0.2244 -0.1125
  101SAPE   H4X10251   2.591   6.296   5.936 -2.9208  0.6704 -0.0867
  101SAPE   H4Y10252   2.742   6.372   5.912  0.0948  2.4669  2.9039
  101SAPE   C3510253   2.591   6.455   5.785  0.0690  0.2495  0.2382
  101SAPE   H5X10254   2.648   6.547   5.760 -0.4408  0.3507 -0.5814
  101SAPE   H5Y10255   2.483   6.481   5.794  0.0325  1.2354 -2.2551
  101SAPE   C3610256   2.625   6.350   5.680  0.3224 -0.3377 -0.0706
  101SAPE   H6X10257   2.557   6.264   5.695 -0.6631  0.1925 -1.3577
  101SAPE   H6Y10258   2.729   6.318   5.701 -0.5272 -1.4937  2.8727
  101SAPE   C3710259   2.599   6.398   5.535 -0.1674  0.2544  0.5351
  101SAPE   H7X10260   2.637   6.503   5.530  0.3909  0.0466  0.2988
  101SAPE   H7Y10261   2.490   6.401   5.516 -0.1170  2.5343  0.2874
  101SAPE   C3810262   2.675   6.313   5.433  0.3655  0.1077 -0.3614
  101SAPE   H8X10263   2.650   6.205   5.443  0.1048 -0.0822 -2.4738
  101SAPE   H8Y10264   2.784   6.328   5.452  0.0012  1.5365  0.7525
  101SAPE   C3910265   2.640   6.361   5.288  0.6960 -0.9043 -0.1942
  101SAPE   H9X10266   2.672   6.465   5.268 -1.4943 -0.4858 -1.9001
  101SAPE   H9Y10267   2.530   6.351   5.277  0.7081 -0.2863 -1.0123
  101SAPE  C31010268   2.711   6.271   5.185  0.0626 -0.0251 -0.4231
  101SAPE  H10X10269   2.691   6.163   5.200 -0.9679 -0.0727 -1.8910
  101SAPE  H10Y10270   2.821   6.277   5.200  0.5316  0.1181 -3.2453
  101SAPE  C31110271   2.670   6.311   5.041 -0.1087  0.4869 -0.1405
  101SAPE  H11X10272   2.710   6.414   5.022  2.9084 -0.5481  0.0119
  101SAPE  H11Y10273   2.561   6.322   5.056  0.2481  0.9759  2.6135
  101SAPE  C31210274   2.698   6.196   4.937  0.4494  0.3152  0.4655
  101SAPE  H12X10275   2.623   6.220   4.858  1.4510  1.0785 -0.2776
  101SAPE  H12Y10276   2.675   6.106   4.996 -0.8389  0.3011 -0.0142
  101SAPE  C31310277   2.841   6.182   4.878 -0.0112 -0.2876  0.2202
  101SAPE  H13X10278   2.894   6.111   4.944 -0.0832 -0.8312 -0.2987
  101SAPE  H13Y10279   2.882   6.285   4.874  1.4447 -0.7004  2.6636
  101SAPE  C31410280   2.832   6.142   4.734 -0.1772  0.7659  0.5938
  101SAPE  H14X10281   2.742   6.169   4.675  0.1165  0.6236  0.0655
  101SAPE  H14Y10282   2.829   6.031   4.735 -2.5123  0.7470 -1.1319
  101SAPE  C31510283   2.964   6.172   4.658  0.2989 -0.8225 -0.3925
  101SAPE  H15X10284   3.057   6.155   4.716 -0.4064 -2.5520  0.3073
  101SAPE  H15Y10285   2.972   6.279   4.630  3.7594 -1.4778 -2.5921
  101SAPE  C31610286   2.976   6.102   4.525  0.0099  0.2927 -0.0426
  101SAPE  H16X10287   2.968   5.994   4.547  1.2039  0.5619  1.9691
  101SAPE  H16Y10288   3.077   6.121   4.481  0.5928  0.9730  1.5015
  101SAPE  C31710289   2.860   6.140   4.435  0.1124 -0.0051 -0.2588
  101SAPE  H17X10290   2.859   6.250   4.420 -2.3208 -0.1670 -1.7971
  101SAPE  H17Y10291   2.763   6.119   4.484 -0.3101  1.1413 -0.5502
  101SAPE  C31810292   2.876   6.057   4.312  0.2178  0.0717 -0.0830
  101SAPE  H18X10293   2.981   6.046   4.277 -0.3007 -0.5090 -1.5597
  101SAPE  H18Y10294   2.819   6.115   4.237 -1.5764 -0.6007  0.7214
  101SAPE  H18Z10295   2.835   5.954   4.315  0.4332 -0.0507 -0.9681
  102SAPE     N10296   0.631   0.235   6.735 -0.6572 -0.0553  0.2712
  102SAPE   HN110297   0.638   0.288   6.645 -0.5276  0.0468  0.3396
  102SAPE   HN210298   0.687   0.148   6.731 -1.9596 -0.9140  0.4122
  102SAPE   HN310299   0.528   0.224   6.743 -1.2538  2.2041 -2.4146
  102SAPE   C1210300   0.700   0.313   6.848  0.8666 -1.0389 -0.5317
  102SAPE  H12A10301   0.701   0.249   6.939  1.2239 -0.9846 -0.4979
  102SAPE  H12B10302   0.626   0.395   6.861  1.6307 -0.2621 -1.0200
  102SAPE   C1110303   0.843   0.366   6.810 -0.2117 -0.3072  0.8064
  102SAPE  H11A10304   0.876   0.424   6.899  0.8390 -0.3960  0.4871
  102SAPE  H11B10305   0.835   0.420   6.713 -3.8911  0.9405  1.6325
  102SAPE     P10306   1.080   0.265   6.797  0.0738  0.4359 -0.2130
  102SAPE   O1310307   1.121   0.402   6.823  0.0812  0.0093  0.0585
  102SAPE   O1410308   1.145   0.162   6.880  0.2800 -0.1692 -0.1234
  102SAPE   O1210309   0.926   0.255   6.806  0.7529 -0.1915  0.1841
  102SAPE   O1110310   1.117   0.234   6.648  0.2922  0.2841  0.1866
  102SAPE    C110311   1.064   0.120   6.581 -0.0166 -0.3026 -0.1065
  102SAPE    HA10312   1.130   0.033   6.603  1.1528  0.7446  0.6727
  102SAPE    HB10313   0.962   0.102   6.621  0.2412  1.2657  1.3453
  102SAPE    C210314   1.067   0.145   6.427 -0.6776  0.3305  0.0319
  102SAPE    HS10315   1.023   0.069   6.360  1.2243  1.9206 -3.3053
  102SAPE   O2110316   1.204   0.171   6.398 -0.1670  0.1075 -0.4793
  102SAPE   C2110317   1.278   0.083   6.343 -0.3676 -0.6361  0.0694
  102SAPE   O2210318   1.253  -0.033   6.321  0.4051  0.0660 -0.2342
  102SAPE   C2210319   1.419   0.149   6.329 -0.2014  0.4593  0.6111
  102SAPE   H2R10320   1.414   0.260   6.337 -1.2382  0.4099  0.8082
  102SAPE   H2S10321   1.481   0.125   6.418  2.3885  1.1837 -0.8695
  102SAPE    C310322   1.001   0.286   6.391 -0.5302  0.6851 -0.3396
  102SAPE    HX10323   1.071   0.365   6.428  0.6166 -0.5412  0.1875
  102SAPE    HY10324   0.909   0.275   6.452 -0.3149  2.5570  0.4179
  102SAPE   O3110325   0.971   0.295   6.253 -0.2039 -0.2103  0.1394
  102SAPE   C3110326   0.884   0.389   6.236  0.1065  0.0466  0.1313
  102SAPE   O3210327   0.825   0.449   6.324  0.1669  0.9582 -0.6146
  102SAPE   C3210328   0.851   0.415   6.083  0.7205  0.7152 -0.3731
  102SAPE   H2X10329   0.877   0.521   6.063  1.5265  0.3801 -1.2134
  102SAPE   H2Y10330   0.741   0.398   6.082  1.0237 -1.9519  1.2754
  102SAPE   C2310331   1.498   0.111   6.195 -0.2435  0.2280 -0.4447
  102SAPE   H3R10332   1.513   0.001   6.190 -1.8263 -0.0496  0.2285
  102SAPE   H3S10333   1.597   0.159   6.207 -0.7104  0.8886  1.0358
  102SAPE   C2410334   1.430   0.149   6.069  0.1385  0.1219 -0.2250
  102SAPE   H4R10335   1.501   0.133   5.985  1.7611 -1.6740  1.3778
  102SAPE   H4S10336   1.420   0.259   6.079 -0.0101  0.3097 -2.0997
  102SAPE   C2510337   1.293   0.103   6.032 -0.6136 -0.5744 -0.0145
  102SAPE   H5R10338   1.212   0.111   6.105 -2.0592  0.6755 -1.6637
  102SAPE   C2610339   1.251   0.080   5.907  0.5749 -0.3988 -0.4952
  102SAPE   H6R10340   1.147   0.043   5.903  0.7663 -0.9018 -0.9874
  102SAPE   C2710341   1.323   0.086   5.778 -0.3334  0.5761 -0.0356
  102SAPE   H7R10342   1.408   0.156   5.789  1.5925 -1.7071  0.6471
  102SAPE   H7S10343   1.257   0.121   5.696 -1.7665 -1.2414  0.2702
  102SAPE   C2810344   1.372  -0.050   5.734 -0.3374 -0.1597  0.0830
  102SAPE   H8R10345   1.464  -0.091   5.779 -0.0368 -1.1164 -1.3369
  102SAPE   C2910346   1.310  -0.124   5.648 -0.2980  0.0029 -0.2226
  102SAPE   H9R10347   1.344  -0.226   5.625 -2.1047 -0.5241 -0.7288
  102SAPE  C21010348   1.178  -0.116   5.567  0.0739  0.2932  0.0371
  102SAPE  H10R10349   1.119  -0.032   5.610  0.5617  0.8354 -0.3408
  102SAPE  H10S10350   1.110  -0.204   5.576  0.3009 -0.3259 -3.1013
  102SAPE  C21110351   1.198  -0.071   5.425 -0.8438  1.2087 -0.6319
  102SAPE  H11R10352   1.272   0.008   5.408 -0.6427  1.2974  0.5852
  102SAPE  C21210353   1.132  -0.122   5.320  0.4220 -0.4975 -0.0394
  102SAPE  H12R10354   1.162  -0.083   5.221 -0.7234  3.1272  0.8848
  102SAPE  C21310355   1.036  -0.240   5.320  0.7539  0.5240 -0.1857
  102SAPE  H13R10356   0.949  -0.213   5.384 -0.9770  0.7614 -2.5429
  102SAPE  H13S10357   1.093  -0.321   5.371  0.4049  0.1818 -0.3410
  102SAPE  C21410358   1.000  -0.282   5.183  0.0723 -0.1388  0.4014
  102SAPE  H14R10359   1.030  -0.386   5.159 -0.5009 -0.2615  0.1816
  102SAPE  C21510360   0.916  -0.225   5.094  0.1398 -0.2571 -0.1043
  102SAPE  H15R10361   0.901  -0.274   4.996  0.3709  0.6915 -0.6330
  102SAPE  C21610362   0.839  -0.095   5.119 -0.0808  0.0360  0.6157
  102SAPE  H16R10363   0.850  -0.064   5.225 -0.4325 -2.4185  1.4346
  102SAPE  H16S10364   0.730  -0.109   5.110  0.1191 -0.6548 -0.9628
  102SAPE  C21710365   0.880   0.021   5.023  0.1097 -0.5846 -0.9218
  102SAPE  H17R10366   0.987   0.045   5.038  0.0221 -1.5834  1.8144
  102SAPE  H17S10367   0.823   0.112   5.052  0.0373 -0.9065 -0.0312
  102SAPE  C21810368   0.837  -0.005   4.871  0.0088  0.6176 -0.0556
  102SAPE  H18R10369   0.730  -0.035   4.871 -0.4982  2.1128 -2.3169
  102SAPE  H18S10370   0.894  -0.094   4.836 -3.0732 -2.2769  1.6821
  102SAPE  C21910371   0.868   0.111   4.773 -0.2710  0.4439  0.2045
  102SAPE  H19R10372   0.866   0.093   4.663 -0.9279  1.8490 -0.0277
  102SAPE  H19S10373   0.978   0.116   4.790 -0.0760  0.7197 -1.0139
  102SAPE  C22010374   0.789   0.241   4.799 -0.2400  0.5698 -0.0467
  102SAPE  H20R10375   0.686   0.210   4.768 -0.2828  1.4532 -0.8242
  102SAPE  H20S10376   0.827   0.331   4.746  0.5916  0.2912  0.0617
  102SAPE  H20T10377   0.785   0.276   4.904  1.2081  1.1412 -0.1720
  102SAPE   C3310378   0.923   0.321   5.981  0.3862 -0.3679 -0.3825
  102SAPE   H3X10379   0.882   0.218   5.987  2.6331 -1.2361  3.3844
  102SAPE   H3Y10380   1.027   0.309   6.018  1.2092  1.3064 -1.9664
  102SAPE   C3410381   0.907   0.384   5.833 -0.3634 -0.1823  0.2599
  102SAPE   H4X10382   0.938   0.490   5.840 -0.1230 -0.1483 -1.0556
  102SAPE   H4Y10383   0.799   0.373   5.811 -0.7677  0.9159  1.5607
  102SAPE   C3510384   0.984   0.293   5.735  0.0434 -0.9173  0.7382
  102SAPE   H5X10385   0.954   0.189   5.759  0.1989 -1.5702 -1.6118
  102SAPE   H5Y10386   1.095   0.296   5.741  0.0819 -2.0297  0.7369
  102SAPE   C3610387   0.943   0.313   5.587  0.9654 -0.5792 -0.6240
  102SAPE   H6X10388   0.952   0.422   5.568 -0.4573 -0.7053 -2.1804
  102SAPE   H6Y10389   0.835   0.289   5.573  0.5648  0.9325 -0.3245
  102SAPE   C3710390   1.021   0.235   5.481 -0.1008 -0.1038  0.6604
  102SAPE   H7X10391   1.008   0.126   5.501 -1.1286 -0.1242 -0.0339
  102SAPE   H7Y10392   1.130   0.255   5.469  0.1234 -1.6271 -0.1101
  102SAPE   C3810393   0.968   0.268   5.342 -0.5120  0.1200  0.1877
  102SAPE   H8X10394   0.858   0.253   5.334 -0.4620 -0.5857  0.7879
  102SAPE   H8Y10395   1.002   0.192   5.269 -2.5860  0.1864 -0.9297
  102SAPE   C3910396   1.015   0.401   5.276  0.4000  0.3933 -0.0306
  102SAPE   H9X10397   1.126   0.412   5.272  0.3326  0.8624 -0.8199
  102SAPE   H9Y10398   0.975   0.490   5.330 -0.6358 -0.1381  0.0951
  102SAPE  C31010399   0.969   0.411   5.134  0.0621  0.0402 -0.2722
  102SAPE  H10X10400   0.885   0.484   5.135  0.8159  0.9134  0.1992
  102SAPE  H10Y10401   0.934   0.313   5.094 -0.3356  0.1152 -0.1129
  102SAPE  C31110402   1.082   0.466   5.046 -0.0466  0.0203  0.1520
  102SAPE  H11X10403   1.153   0.382   5.033 -0.0735 -0.0718  0.5949
  102SAPE  H11Y10404   1.123   0.553   5.102 -0.6546  0.1190  0.4580
  102SAPE  C31210405   1.011   0.515   4.923  0.5588 -0.2841  0.2800
  102SAPE  H12X10406   0.929   0.582   4.956  0.6298 -1.0574  2.1241
  102SAPE  H12Y10407   0.968   0.425   4.873  0.9891 -0.3696  0.0607
  102SAPE  C31310408   1.096   0.592   4.825 -1.0534  0.1999 -0.2617
  102SAPE  H13X10409   1.202   0.558   4.835 -1.2493  0.1874  2.8913
  102SAPE  H13Y10410   1.107   0.699   4.853 -2.3074  0.5565 -1.0800
  102SAPE  C31410411   1.060   0.573   4.678 -0.3548  0.4091 -0.3013
  102SAPE  H14X10412   0.954   0.599   4.657  0.2516  1.8000 -1.9144
  102SAPE  H14Y10413   1.064   0.465   4.654  0.8016 -0.7863  4.3347
  102SAPE  C31510414   1.137   0.659   4.579  0.0695 -0.2920 -0.8415
  102SAPE  H15X10415   1.248   0.661   4.577  0.0587 -0.6241 -1.8861
  102SAPE  H15Y10416   1.103   0.765   4.591 -1.2645 -0.6322 -1.5125
  102SAPE  C31610417   1.113   0.617   4.439  0.3163 -0.5735  0.5492
  102SAPE  H16X10418   1.002   0.614   4.425 -0.0448 -0.7890  2.9873
  102SAPE  H16Y10419   1.157   0.516   4.424  1.1743  0.0839 -1.8606
  102SAPE  C31710420   1.190   0.696   4.330 -0.2183  0.9792  0.3540
  102SAPE  H17X10421   1.294   0.664   4.354 -0.6378 -0.8189 -0.1020
  102SAPE  H17Y10422   1.164   0.804   4.321  0.8068  1.3030  1.0884
  102SAPE  C31810423   1.167   0.638   4.195  0.6822  0.1925  0.1365
  102SAPE  H18X10424   1.246   0.683   4.131 -0.8852  1.3002 -1.1188
  102SAPE  H18Y10425   1.069   0.673   4.154  0.1071 -0.2869  1.0562
  102SAPE  H18Z10426   1.172   0.527   4.199  2.3722  0.1666 -1.5549
  103SAPE     N10427   3.284   2.805   2.343  0.3883  0.7634 -0.2755
  103SAPE   HN110428   3.369   2.855   2.310  0.2267  0.1482 -1.6778
  103SAPE   HN210429   3.224   2.878   2.387  1.9916  1.4116  0.9420
  103SAPE   HN310430   3.312   2.734   2.413 -1.0301 -1.0741 -1.4615
  103SAPE   C1210431   3.192   2.747   2.238  0.0063  0.1821 -0.7076
  103SAPE  H12A10432   3.248   2.699   2.155 -0.7885 -1.3843 -0.3729
  103SAPE  H12B10433   3.132   2.834   2.202 -0.9254 -0.5726 -1.0383
  103SAPE   C1110434   3.087   2.650   2.293 -0.4370  0.3426 -0.8617
  103SAPE  H11A10435   3.136   2.556   2.327 -0.9435  0.2371 -0.4130
  103SAPE  H11B10436   3.023   2.620   2.207  1.6040 -1.1721 -1.9481
  103SAPE     P10437   2.869   2.723   2.390 -0.0740  0.3680 -0.1614
  103SAPE   O1310438   2.833   2.845   2.313  0.0511 -0.3352  0.1026
  103SAPE   O1410439   2.813   2.592   2.346  0.4061 -0.0693 -0.0251
  103SAPE   O1210440   3.025   2.710   2.402 -0.2966 -0.0852  0.8356
  103SAPE   O1110441   2.833   2.741   2.540  0.0192 -0.0271 -0.5421
  103SAPE    C110442   2.883   2.844   2.618 -0.2826  0.2008 -0.1258
  103SAPE    HA10443   2.947   2.811   2.703 -0.7523  1.8966  0.9340
  103SAPE    HB10444   2.953   2.910   2.563  0.5399  1.7418  2.5775
  103SAPE    C210445   2.775   2.924   2.682 -0.3978  0.0508  0.2011
  103SAPE    HS10446   2.718   2.971   2.599 -1.3103  1.2952  1.4805
  103SAPE   O2110447   2.841   3.036   2.746 -0.3395  0.8313  0.0849
  103SAPE   C2110448   2.764   3.108   2.832  0.1797  0.1698  1.1417
  103SAPE   O2210449   2.642   3.108   2.830 -0.4178 -0.3082 -0.0864
  103SAPE   C2210450   2.846   3.189   2.923 -0.6339 -0.4730  0.8445
  103SAPE   H2R10451   2.899   3.123   2.995 -0.1578 -0.5183  0.4563
  103SAPE   H2S10452   2.930   3.224   2.860 -0.3113 -2.2566  0.2276
  103SAPE    C310453   2.685   2.843   2.778 -0.3894  1.0202  0.8252
  103SAPE    HX10454   2.681   2.748   2.721 -2.1179  2.0618 -0.9484
  103SAPE    HY10455   2.578   2.871   2.781 -0.5901  0.4760 -0.4472
  103SAPE   O3110456   2.744   2.823   2.900  0.0581 -0.5560 -1.2112
  103SAPE   C3110457   2.666   2.751   2.975 -0.2256  0.7440 -0.0758
  103SAPE   O3210458   2.572   2.682   2.939 -0.3087  0.0982  0.4178
  103SAPE   C3210459   2.719   2.764   3.119 -0.1762  0.7187 -0.3986
  103SAPE   H2X10460   2.700   2.870   3.148  0.7914  0.6721  0.4614
  103SAPE   H2Y10461   2.828   2.748   3.110 -0.3545  0.4801 -2.9741
  103SAPE   C2310462   2.775   3.289   3.011  0.4449 -0.5886  0.2900
  103SAPE   H3R10463   2.712   3.357   2.950  0.5446  0.1979  1.0473
  103SAPE   H3S10464   2.859   3.350   3.051  0.4151  0.9935 -1.8783
  103SAPE   C2410465   2.686   3.236   3.124  0.3407  0.0365 -0.2163
  103SAPE   H4R10466   2.604   3.188   3.067  0.4970  0.4163 -0.7725
  103SAPE   H4S10467   2.651   3.330   3.171  0.6352  0.5358 -0.9673
  103SAPE   C2510468   2.758   3.147   3.226  0.1789  0.1387 -0.7170
  103SAPE   H5R10469   2.808   3.060   3.180  0.2624  0.1226 -0.5971
  103SAPE   C2610470   2.783   3.176   3.353 -0.0084  0.0549 -0.8200
  103SAPE   H6R10471   2.832   3.100   3.415 -1.4801  0.2550  0.6632
  103SAPE   C2710472   2.746   3.303   3.433  0.1328  0.0921 -0.4740
  103SAPE   H7R10473   2.672   3.363   3.375  1.4212  1.9183 -0.2986
  103SAPE   H7S10474   2.841   3.360   3.442 -0.2196  0.6980 -0.5490
  103SAPE   C2810475   2.698   3.262   3.571  0.4264  0.3746  0.6629
  103SAPE   H8R10476   2.662   3.159   3.584 -1.3043  0.7439 -0.7118
  103SAPE   C2910477   2.679   3.345   3.673  0.0384 -0.0506  1.1006
  103SAPE   H9R10478   2.651   3.314   3.775  0.0183 -4.4444 -0.0691
  103SAPE  C21010479   2.741   3.483   3.674  0.0395 -0.4131 -0.0577
  103SAPE  H10R10480   2.668   3.549   3.624  1.6966  0.3578 -1.5501
  103SAPE  H10S10481   2.830   3.493   3.608  0.3388 -0.3475  0.3469
  103SAPE  C21110482   2.783   3.541   3.811  0.0729 -1.1288  0.7513
  103SAPE  H11R10483   2.748   3.489   3.902 -1.2695 -0.9948  0.3288
  103SAPE  C21210484   2.867   3.642   3.828  0.0150  0.3570 -0.0508
  103SAPE  H12R10485   2.874   3.679   3.932  0.9845  0.9294 -0.3051
  103SAPE  C21310486   2.916   3.718   3.710  0.5419 -0.4144  0.2207
  103SAPE  H13R10487   2.897   3.824   3.738  2.2231 -0.2334  0.7580
  103SAPE  H13S10488   2.855   3.710   3.617 -0.1086 -2.6283  0.7844
  103SAPE  C21410489   3.067   3.707   3.693  0.3397  0.0661 -0.2324
  103SAPE  H14R10490   3.117   3.645   3.768  1.7441  0.2886 -0.9468
  103SAPE  C21510491   3.137   3.744   3.584 -0.6923 -0.2926  0.9868
  103SAPE  H15R10492   3.245   3.725   3.580 -0.6010  0.4697 -1.2674
  103SAPE  C21610493   3.083   3.799   3.449  0.0875  0.6474  0.3158
  103SAPE  H16R10494   3.127   3.898   3.423  2.9690  0.1091  2.6837
  103SAPE  H16S10495   2.973   3.810   3.463 -0.2176 -0.9796 -0.5614
  103SAPE  C21710496   3.108   3.696   3.333  0.4012 -0.5793 -0.1259
  103SAPE  H17R10497   3.057   3.601   3.362  2.5778 -1.1669  2.0703
  103SAPE  H17S10498   3.217   3.680   3.323  0.3667  0.1070 -1.9108
  103SAPE  C21810499   3.048   3.757   3.203 -0.7038  0.5308 -0.4973
  103SAPE  H18R10500   3.087   3.686   3.127 -1.2879 -2.3926  1.7855
  103SAPE  H18S10501   3.100   3.853   3.180 -1.5138  1.1970  0.3536
  103SAPE  C21910502   2.891   3.753   3.185 -0.1977  0.0023  0.0891
  103SAPE  H19R10503   2.866   3.774   3.079 -0.9531 -0.1739  0.2271
  103SAPE  H19S10504   2.846   3.824   3.258 -1.1353 -0.7956  0.3142
  103SAPE  C22010505   2.830   3.619   3.218  0.6420  0.5498  0.1848
  103SAPE  H20R10506   2.887   3.534   3.175 -0.7287 -0.7419  0.8178
  103SAPE  H20S10507   2.724   3.625   3.185  0.5494  1.6220  0.6532
  103SAPE  H20T10508   2.844   3.599   3.326 -0.4395 -1.9187 -0.0635
  103SAPE   C3310509   2.657   2.665   3.215  0.2624 -0.0759 -0.1642
  103SAPE   H3X10510   2.700   2.688   3.315 -0.9364 -0.8219  0.5539
  103SAPE   H3Y10511   2.703   2.566   3.198  1.8054  0.1203  2.4235
  103SAPE   C3410512   2.506   2.675   3.240  0.0623  0.7258 -0.1028
  103SAPE   H4X10513   2.446   2.657   3.148  0.7681 -1.4422 -0.1905
  103SAPE   H4Y10514   2.488   2.781   3.269 -2.0594  0.4292 -0.1249
  103SAPE   C3510515   2.449   2.574   3.336 -0.1828 -1.0609  0.4014
  103SAPE   H5X10516   2.463   2.472   3.296  0.1029 -0.4986 -0.9945
  103SAPE   H5Y10517   2.341   2.587   3.361 -0.3128 -2.4932  0.6550
  103SAPE   C3610518   2.516   2.579   3.471  0.7169 -0.4990 -0.4209
  103SAPE   H6X10519   2.613   2.525   3.477  1.3875  0.3492 -2.8001
  103SAPE   H6Y10520   2.462   2.512   3.541  2.4522  0.2209  1.7391
  103SAPE   C3710521   2.526   2.722   3.528 -0.0001 -0.3617 -1.0624
  103SAPE   H7X10522   2.423   2.760   3.542 -0.9239 -3.2054  0.8521
  103SAPE   H7Y10523   2.582   2.797   3.469  3.2385 -0.1802  1.8948
  103SAPE   C3810524   2.592   2.723   3.665 -0.4694 -0.1664 -0.1616
  103SAPE   H8X10525   2.689   2.676   3.639  1.3657  1.7466  2.6922
  103SAPE   H8Y10526   2.562   2.652   3.745  0.9785 -1.1196 -0.4216
  103SAPE   C3910527   2.629   2.861   3.705 -0.2741 -0.3914 -0.2127
  103SAPE   H9X10528   2.541   2.925   3.727  0.9846  1.0926  0.6312
  103SAPE   H9Y10529   2.681   2.904   3.617 -0.0016  3.0487  1.4667
  103SAPE  C31010530   2.714   2.866   3.835 -0.5113  0.2633 -0.2900
  103SAPE  H10X10531   2.820   2.858   3.802 -0.2955  0.4617  0.3281
  103SAPE  H10Y10532   2.694   2.771   3.891 -1.7091 -0.4984 -1.9422
  103SAPE  C31110533   2.700   2.999   3.917 -0.1347  0.4353  0.5433
  103SAPE  H11X10534   2.703   3.084   3.845 -0.0514 -1.2138 -1.5120
  103SAPE  H11Y10535   2.793   3.002   3.977  0.2233 -1.4988  0.1369
  103SAPE  C31210536   2.587   3.008   4.020  0.1560  0.3895 -0.2754
  103SAPE  H12X10537   2.597   2.934   4.103 -1.0378  0.0521 -0.4230
  103SAPE  H12Y10538   2.492   2.980   3.970 -1.3741  2.0215  1.5461
  103SAPE  C31310539   2.579   3.145   4.081  0.3625 -0.5652  0.3354
  103SAPE  H13X10540   2.543   3.224   4.011 -1.6057 -0.4786  1.3759
  103SAPE  H13Y10541   2.674   3.184   4.124 -1.7333  0.5767  4.3838
  103SAPE  C31410542   2.466   3.149   4.190  0.3158  0.0948  0.8124
  103SAPE  H14X10543   2.387   3.080   4.153  0.2015  0.4027  0.4770
  103SAPE  H14Y10544   2.415   3.247   4.200  1.4110  0.5806  1.7899
  103SAPE  C31510545   2.525   3.126   4.328  0.1247  0.0452  0.0309
  103SAPE  H15X10546   2.589   3.216   4.339  0.7178 -0.3905  0.2595
  103SAPE  H15Y10547   2.589   3.035   4.318 -0.5896 -0.2639 -2.1052
  103SAPE  C31610548   2.425   3.143   4.445 -0.2342  0.6474 -0.1111
  103SAPE  H16X10549   2.333   3.091   4.413  1.9834 -2.8841 -1.3606
  103SAPE  H16Y10550   2.413   3.253   4.456  1.8290  1.0900 -1.5805
  103SAPE  C31710551   2.468   3.075   4.574 -0.1122 -0.7746 -0.7298
  103SAPE  H17X10552   2.575   3.099   4.589 -0.0082  0.9697 -3.5680
  103SAPE  H17Y10553   2.450   2.966   4.561 -0.7861 -0.7630  0.0460
  103SAPE  C31810554   2.377   3.127   4.682  0.6806 -0.4435 -0.2735
  103SAPE  H18X10555   2.416   3.099   4.782 -0.0770 -0.7114 -0.0469
  103SAPE  H18Y10556   2.271   3.099   4.669  0.2383  0.8027  0.5179
  103SAPE  H18Z10557   2.388   3.237   4.674  0.9305 -0.3179  1.4140
  104SAPE     N10558   2.411   2.434   2.564  1.0035  0.3116 -0.2683
  104SAPE   HN110559   2.339   2.507   2.547 -0.4514 -0.8982  0.4324
  104SAPE   HN210560   2.481   2.458   2.637  0.8119  0.1276 -0.0228
  104SAPE   HN310561   2.455   2.417   2.472  0.1772 -3.0763 -0.1529
  104SAPE   C1210562   2.343   2.309   2.613 -0.0093 -0.4850  0.2449
  104SAPE  H12A10563   2.242   2.309   2.567 -1.3721  1.3060  2.9440
  104SAPE  H12B10564   2.328   2.310   2.723  2.5381 -0.0603  0.6311
  104SAPE   C1110565   2.416   2.185   2.563  0.0948  0.3342  0.1478
  104SAPE  H11A10566   2.344   2.104   2.587 -3.5813  3.1280 -0.5654
  104SAPE  H11B10567   2.506   2.181   2.627 -0.0666  1.2735  0.4531
  104SAPE     P10568   2.520   2.081   2.343  0.0669  0.0751 -0.2375
  104SAPE   O1310569   2.445   1.951   2.354 -0.2946 -0.1366 -0.3903
  104SAPE   O1410570   2.546   2.135   2.205 -0.3808 -0.0088 -0.4105
  104SAPE   O1210571   2.447   2.194   2.424  0.4363 -0.5156  0.6042
  104SAPE   O1110572   2.661   2.072   2.416  0.4924 -0.0461 -0.3431
  104SAPE    C110573   2.731   2.194   2.424 -0.2568  0.3360  0.6482
  104SAPE    HA10574   2.788   2.211   2.331  0.6542  0.2845  1.1809
  104SAPE    HB10575   2.659   2.278   2.438 -2.5574 -1.4216  0.0905
  104SAPE    C210576   2.829   2.189   2.541  0.6372 -0.0129 -0.5227
  104SAPE    HS10577   2.866   2.085   2.537 -0.1525 -0.2595 -2.4738
  104SAPE   O2110578   2.743   2.219   2.657 -0.0481  0.4962 -0.1266
  104SAPE   C2110579   2.770   2.155   2.771  0.5442  0.6320  0.3846
  104SAPE   O2210580   2.856   2.070   2.783 -0.4836 -0.2011 -0.2679
  104SAPE   C2210581   2.674   2.180   2.882  0.5382  0.1363  0.3002
  104SAPE   H2R10582   2.610   2.266   2.852 -0.7417 -0.1812  1.9531
  104SAPE   H2S10583   2.590   2.108   2.898 -2.0735  1.5360 -4.7884
  104SAPE    C310584   2.935   2.296   2.528 -0.2198 -0.7007 -0.4441
  104SAPE    HX10585   2.891   2.398   2.528  0.1936 -0.5200 -0.3238
  104SAPE    HY10586   2.971   2.303   2.424  1.0971  1.4459  0.1053
  104SAPE   O3110587   3.040   2.285   2.630  0.0556  0.4210  0.6896
  104SAPE   C3110588   3.160   2.268   2.585  0.2151  0.7538  0.5612
  104SAPE   O3210589   3.191   2.261   2.465 -0.3484  0.3029 -0.0546
  104SAPE   C3210590   3.266   2.258   2.695 -0.7891  0.2314 -0.2255
  104SAPE   H2X10591   3.367   2.288   2.661 -1.2927  0.5945 -1.4646
  104SAPE   H2Y10592   3.276   2.152   2.727 -0.0650  0.5466  0.6392
  104SAPE   C2310593   2.750   2.213   3.012  0.3002  0.6578 -0.1814
  104SAPE   H3R10594   2.812   2.303   2.992  2.5716 -0.6709  0.5929
  104SAPE   H3S10595   2.815   2.127   3.035 -1.1976 -0.8040 -1.1968
  104SAPE   C2410596   2.657   2.252   3.133 -0.2220  0.3230 -0.1637
  104SAPE   H4R10597   2.592   2.339   3.108  2.2577  1.7793 -1.8715
  104SAPE   H4S10598   2.726   2.288   3.213  0.9903 -0.2067 -0.9489
  104SAPE   C2510599   2.574   2.135   3.188  0.2923 -0.9637 -0.1423
  104SAPE   H5R10600   2.553   2.058   3.112  0.6908 -1.3953  0.1801
  104SAPE   C2610601   2.537   2.127   3.316 -0.7835  0.4773 -0.3181
  104SAPE   H6R10602   2.476   2.040   3.346  2.8398 -2.4565 -0.7379
  104SAPE   C2710603   2.554   2.210   3.438  0.1296 -0.4396 -0.2669
  104SAPE   H7R10604   2.603   2.309   3.425 -0.3620  0.1979  2.2683
  104SAPE   H7S10605   2.624   2.151   3.499  1.8652 -0.9300 -2.5973
  104SAPE   C2810606   2.413   2.226   3.497  0.2754 -0.2159  0.2972
  104SAPE   H8R10607   2.334   2.247   3.424 -0.2708 -0.9471  0.6640
  104SAPE   C2910608   2.386   2.220   3.626  0.0569 -0.3301 -0.3961
  104SAPE   H9R10609   2.284   2.215   3.666  1.2042 -2.7042  2.7231
  104SAPE  C21010610   2.490   2.204   3.739  0.2547  1.0608 -0.1837
  104SAPE  H10R10611   2.571   2.136   3.705  2.2248  0.8620  4.2274
  104SAPE  H10S10612   2.439   2.148   3.820 -0.7846 -1.8818 -2.6630
  104SAPE  C21110613   2.565   2.327   3.786  0.3898 -0.4148  0.0792
  104SAPE  H11R10614   2.544   2.417   3.727  1.9900 -0.3138 -0.3736
  104SAPE  C21210615   2.658   2.325   3.884  0.5169 -0.0503  0.7103
  104SAPE  H12R10616   2.697   2.419   3.925 -0.5614  0.2064  1.1819
  104SAPE  C21310617   2.698   2.197   3.953  0.8605 -0.7544  0.1879
  104SAPE  H13R10618   2.644   2.108   3.913  0.9296 -0.6579 -0.1197
  104SAPE  H13S10619   2.669   2.207   4.060 -0.7610  0.0144 -0.2849
  104SAPE  C21410620   2.845   2.189   3.942  0.4529 -0.4492 -0.2462
  104SAPE  H14R10621   2.891   2.168   3.844 -0.5309  0.8123 -0.9976
  104SAPE  C21510622   2.942   2.181   4.040  0.6369 -0.1062 -0.0394
  104SAPE  H15R10623   3.047   2.184   4.009  0.5281 -0.1696 -0.4285
  104SAPE  C21610624   2.912   2.200   4.177 -0.6558 -0.6268  0.4375
  104SAPE  H16R10625   2.821   2.262   4.192 -0.1918  0.3506 -0.6389
  104SAPE  H16S10626   2.997   2.263   4.212 -0.1912 -1.2200  0.3840
  104SAPE  C21710627   2.915   2.077   4.266  0.8033 -0.6832  0.4913
  104SAPE  H17R10628   3.002   2.016   4.237  1.4800  0.6295 -0.3514
  104SAPE  H17S10629   2.823   2.024   4.234 -0.3046  1.2313  0.3087
  104SAPE  C21810630   2.932   2.102   4.414 -0.8390 -0.1222 -0.0733
  104SAPE  H18R10631   2.853   2.166   4.459 -0.1780  0.4827  0.2396
  104SAPE  H18S10632   3.025   2.161   4.424  0.2337 -1.8960  0.9696
  104SAPE  C21910633   2.955   1.970   4.491  0.6802 -0.3287  0.2853
  104SAPE  H19R10634   3.017   1.902   4.428  2.5209  1.2115  0.3290
  104SAPE  H19S10635   2.855   1.929   4.516 -0.2602  1.0103 -1.0952
  104SAPE  C22010636   3.045   1.997   4.616  0.4078  0.4387 -0.3584
  104SAPE  H20R10637   3.038   1.912   4.687 -0.6282 -0.4671 -1.4857
  104SAPE  H20S10638   3.030   2.097   4.662  2.6783  0.9259 -0.5630
  104SAPE  H20T10639   3.153   1.997   4.592  0.8643  0.4097  1.5388
  104SAPE   C3310640   3.223   2.340   2.826  0.4439  0.2778 -0.4168
  104SAPE   H3X10641   3.114   2.331   2.843  0.1762 -1.0358 -2.5187
  104SAPE   H3Y10642   3.246   2.447   2.807  0.3044  0.7236  1.6319
  104SAPE   C3410643   3.292   2.285   2.951 -0.4794  0.1958 -0.2124
  104SAPE   H4X10644   3.402   2.291   2.944 -0.1634 -3.2331  0.0500
  104SAPE   H4Y10645   3.252   2.182   2.966  0.4186 -0.1502 -0.1569
  104SAPE   C3510646   3.267   2.369   3.077  0.2839 -0.3427  0.4342
  104SAPE   H5X10647   3.161   2.396   3.099  0.3281  1.3254 -1.1920
  104SAPE   H5Y10648   3.312   2.468   3.055 -4.0033  1.6892 -0.2905
  104SAPE   C3610649   3.333   2.311   3.201  0.4434  0.7353 -0.6187
  104SAPE   H6X10650   3.342   2.382   3.286 -0.8603 -0.1499  0.3051
  104SAPE   H6Y10651   3.437   2.280   3.178  1.3370  0.4246  3.1848
  104SAPE   C3710652   3.250   2.193   3.262  0.1893 -0.5008  0.8878
  104SAPE   H7X10653   3.247   2.108   3.190 -1.4135 -0.5350  0.9723
  104SAPE   H7Y10654   3.147   2.233   3.269  0.3385 -0.2777  1.8917
  104SAPE   C3810655   3.291   2.144   3.400  0.1244  0.0137 -0.0995
  104SAPE   H8X10656   3.307   2.238   3.456 -2.1907 -0.1865  1.0304
  104SAPE   H8Y10657   3.389   2.092   3.392  1.0954  1.5681  1.0649
  104SAPE   C3910658   3.185   2.062   3.476  0.2883 -0.5330 -0.7534
  104SAPE   H9X10659   3.161   1.965   3.427  3.8972 -2.1557  0.3656
  104SAPE   H9Y10660   3.099   2.132   3.481  0.2566 -0.5886 -0.5124
  104SAPE  C31010661   3.223   2.021   3.617 -0.7523 -0.1029 -0.6562
  104SAPE  H10X10662   3.314   1.958   3.625 -1.1303 -0.4999  0.8342
  104SAPE  H10Y10663   3.140   1.962   3.662 -0.5149 -0.8064 -1.1376
  104SAPE  C31110664   3.264   2.147   3.704  0.5443 -0.3589  0.1914
  104SAPE  H11X10665   3.186   2.225   3.698  1.8862  0.9816 -0.5304
  104SAPE  H11Y10666   3.360   2.189   3.666  0.5035 -1.2223 -0.9042
  104SAPE  C31210667   3.273   2.109   3.850  1.0803  0.0939 -0.3889
  104SAPE  H12X10668   3.337   2.020   3.866  2.7621  1.3817  0.3416
  104SAPE  H12Y10669   3.178   2.071   3.893  0.7644  1.2203 -0.0479
  104SAPE  C31310670   3.311   2.221   3.950 -0.2039 -0.1659  0.9143
  104SAPE  H13X10671   3.224   2.290   3.957  0.4661  0.9174 -0.8220
  104SAPE  H13Y10672   3.403   2.281   3.932 -0.2347 -0.2516  0.4579
  104SAPE  C31410673   3.336   2.173   4.101  0.4197 -0.0072  0.7191
  104SAPE  H14X10674   3.417   2.102   4.126  1.1005  0.7643  0.7349
  104SAPE  H14Y10675   3.238   2.129   4.129 -0.9389  2.6851  0.5200
  104SAPE  C31510676   3.337   2.291   4.195  0.3457 -0.1735 -0.0473
  104SAPE  H15X10677   3.252   2.363   4.189 -0.7592 -1.1897  2.1589
  104SAPE  H15Y10678   3.425   2.353   4.170 -0.5094  1.0156 -0.2105
  104SAPE  C31610679   3.354   2.242   4.339  0.4463  0.2771 -0.2703
  104SAPE  H16X10680   3.449   2.186   4.350  1.4234  2.1694  1.7357
  104SAPE  H16Y10681   3.275   2.173   4.375 -0.0393  0.4672 -0.9456
  104SAPE  C31710682   3.371   2.353   4.447  0.4010  0.6254  0.2155
  104SAPE  H17X10683   3.282   2.419   4.445 -0.4096 -0.4556 -0.8022
  104SAPE  H17Y10684   3.454   2.423   4.423 -0.3639  0.6383 -2.8045
  104SAPE  C31810685   3.378   2.291   4.588 -0.0113  0.0404 -0.0742
  104SAPE  H18X10686   3.275   2.263   4.618  0.8416 -1.2684  1.8888
  104SAPE  H18Y10687   3.414   2.362   4.665 -0.4465  0.2218 -0.0373
  104SAPE  H18Z10688   3.447   2.203   4.587 -2.7176 -2.2457  1.1555
  105SAPE     N10689   0.386   0.231   1.926  0.2271 -0.0794  0.0008
  105SAPE   HN110690   0.302   0.223   1.864  0.3440  2.1009 -0.5309
  105SAPE   HN210691   0.359   0.288   2.009 -1.1563  0.7303 -0.9493
  105SAPE   HN310692   0.453   0.281   1.864 -0.2742  0.9687  0.2863
  105SAPE   C1210693   0.459   0.110   1.986 -0.3752 -0.0006 -0.8068
  105SAPE  H12A10694   0.547   0.155   2.036  0.6821 -2.0801 -0.6924
  105SAPE  H12B10695   0.478   0.051   1.895 -0.6564  1.9812 -2.2261
  105SAPE   C1110696   0.368   0.032   2.083  0.6125  0.2613  0.3157
  105SAPE  H11A10697   0.344   0.089   2.175  1.6817 -1.7045  1.8924
  105SAPE  H11B10698   0.427  -0.054   2.122  1.0574 -0.2106 -1.2986
  105SAPE     P10699   0.244  -0.134   1.921 -0.5715 -0.1467  0.2738
  105SAPE   O1310700   0.126  -0.124   1.829  0.2928  0.2081  0.1650
  105SAPE   O1410701   0.372  -0.152   1.855  0.3024 -0.0873 -0.1753
  105SAPE   O1210702   0.252  -0.003   2.006 -0.0531  0.2769  0.0354
  105SAPE   O1110703   0.220  -0.248   2.030  0.1476  0.2571 -0.3568
  105SAPE    C110704   0.092  -0.261   2.093  0.5290 -0.1216 -0.2826
  105SAPE    HA10705   0.008  -0.218   2.034 -2.3387 -2.2865  1.9487
  105SAPE    HB10706   0.079  -0.371   2.102  1.8521 -0.3064 -0.3424
  105SAPE    C210707   0.093  -0.195   2.239  0.6263  0.1877 -0.0541
  105SAPE    HS10708   0.111  -0.085   2.232 -3.0774  1.2800  3.5208
  105SAPE   O2110709   0.184  -0.261   2.330  0.2330  0.8661 -0.2372
  105SAPE   C2110710   0.230  -0.191   2.433  0.0319  0.2249 -0.6029
  105SAPE   O2210711   0.215  -0.070   2.449  0.1268 -0.2642 -0.0694
  105SAPE   C2210712   0.297  -0.288   2.537 -0.3027 -0.3617 -0.0519
  105SAPE   H2R10713   0.210  -0.333   2.590  0.5326 -2.2446 -0.2232
  105SAPE   H2S10714   0.343  -0.373   2.483 -0.0952 -1.2472  1.4661
  105SAPE    C310715  -0.045  -0.216   2.308 -0.1717 -0.2530 -0.1357
  105SAPE    HX10716  -0.053  -0.326   2.307 -0.3974 -0.2415  0.2080
  105SAPE    HY10717  -0.113  -0.175   2.230  0.6052 -1.6240 -1.5873
  105SAPE   O3110718  -0.059  -0.166   2.441 -0.0725  0.1905  0.1234
  105SAPE   C3110719  -0.087  -0.040   2.455 -0.0019 -0.3352  0.0593
  105SAPE   O3210720  -0.093   0.051   2.375  0.1910 -0.4364  0.2235
  105SAPE   C3210721  -0.099  -0.014   2.606  0.1633 -0.2387  0.8950
  105SAPE   H2X10722  -0.034  -0.083   2.664  2.7425  1.0518 -0.3206
  105SAPE   H2Y10723  -0.203  -0.036   2.640 -0.6587  1.2666 -0.4781
  105SAPE   C2310724   0.397  -0.222   2.640 -0.1975 -1.0431 -0.7161
  105SAPE   H3R10725   0.352  -0.125   2.670  0.8054 -1.7023  3.6375
  105SAPE   H3S10726   0.484  -0.183   2.583  0.1325 -0.7904 -0.0522
  105SAPE   C2410727   0.447  -0.305   2.755 -0.6243 -0.9195 -0.4040
  105SAPE   H4R10728   0.503  -0.392   2.715  1.5447 -0.2603  1.0099
  105SAPE   H4S10729   0.361  -0.336   2.818 -1.1847 -1.0892 -1.2335
  105SAPE   C2510730   0.544  -0.208   2.830 -0.2380  0.2404 -0.3186
  105SAPE   H5R10731   0.630  -0.178   2.769  0.4129 -1.1416 -0.1372
  105SAPE   C2610732   0.520  -0.156   2.949  0.1006  0.1442  0.2929
  105SAPE   H6R10733   0.595  -0.081   2.978  0.4157  0.9711 -2.3833
  105SAPE   C2710734   0.402  -0.186   3.038 -0.1998 -0.4622 -0.1071
  105SAPE   H7R10735   0.414  -0.294   3.065  0.2260 -0.4624 -0.2950
  105SAPE   H7S10736   0.303  -0.184   2.986 -0.5894 -2.4636  0.4554
  105SAPE   C2810737   0.390  -0.090   3.158  0.1293  0.1716 -0.0540
  105SAPE   H8R10738   0.351   0.011   3.143 -0.4501  0.1513  1.2211
  105SAPE   C2910739   0.412  -0.126   3.285 -0.4126 -0.1309  0.2859
  105SAPE   H9R10740   0.395  -0.046   3.358 -0.5131  1.8072 -1.7318
  105SAPE  C21010741   0.470  -0.249   3.340  0.2742 -0.1985 -0.3685
  105SAPE  H10R10742   0.559  -0.230   3.403 -0.5727  0.3645  0.6829
  105SAPE  H10S10743   0.497  -0.321   3.259  0.6825 -2.9291  2.0477
  105SAPE  C21110744   0.367  -0.321   3.424 -0.6238  0.4426  0.7978
  105SAPE  H11R10745   0.303  -0.392   3.369  2.1567 -1.3813 -0.3222
  105SAPE  C21210746   0.329  -0.298   3.554  0.4197 -0.5482  0.2813
  105SAPE  H12R10747   0.242  -0.358   3.584 -0.1930 -0.1392 -0.6316
  105SAPE  C21310748   0.404  -0.204   3.651  0.3416 -0.0926  0.4468
  105SAPE  H13R10749   0.323  -0.167   3.718  0.6183  1.7800 -0.2107
  105SAPE  H13S10750   0.444  -0.125   3.585 -1.1930 -2.8826 -4.3740
  105SAPE  C21410751   0.512  -0.274   3.719 -0.0549 -0.1616  0.2432
  105SAPE  H14R10752   0.584  -0.317   3.647 -3.0113 -2.0333 -1.8272
  105SAPE  C21510753   0.528  -0.271   3.855 -0.0292 -0.2209  0.1960
  105SAPE  H15R10754   0.608  -0.330   3.903 -1.2124 -1.2849  0.9029
  105SAPE  C21610755   0.421  -0.215   3.957  0.0482  0.0854 -0.3325
  105SAPE  H16R10756   0.322  -0.260   3.938  1.2906 -3.1882  0.3533
  105SAPE  H16S10757   0.421  -0.104   3.966 -0.7253  0.2424 -1.9173
  105SAPE  C21710758   0.459  -0.264   4.103  0.8413 -0.5749 -0.8081
  105SAPE  H17R10759   0.403  -0.195   4.170  1.8407 -0.1236 -0.4051
  105SAPE  H17S10760   0.568  -0.251   4.123  0.7779 -0.2955 -0.6220
  105SAPE  C21810761   0.399  -0.398   4.127 -0.2948 -0.3108  0.9010
  105SAPE  H18R10762   0.436  -0.454   4.039 -0.1727 -0.1898  0.8766
  105SAPE  H18S10763   0.289  -0.386   4.117 -0.1348  0.5768  0.1719
  105SAPE  C21910764   0.436  -0.473   4.254  0.3319  0.3044 -0.8330
  105SAPE  H19R10765   0.388  -0.429   4.344  1.6347 -0.3238  0.1985
  105SAPE  H19S10766   0.545  -0.454   4.261  0.5449 -0.4895 -1.7710
  105SAPE  C22010767   0.390  -0.624   4.261  0.1895 -0.6316 -0.2184
  105SAPE  H20R10768   0.443  -0.671   4.346  0.8094  1.7018  0.7845
  105SAPE  H20S10769   0.406  -0.670   4.161  1.4907 -0.6681 -0.0096
  105SAPE  H20T10770   0.283  -0.638   4.288  0.5007 -0.8207  0.9474
  105SAPE   C3310771  -0.059   0.123   2.659  0.3847  0.4377 -0.3948
  105SAPE   H3X10772  -0.131   0.198   2.619 -0.5735 -0.4707 -0.4047
  105SAPE   H3Y10773   0.042   0.149   2.621  0.2015  2.2660  0.2738
  105SAPE   C3410774  -0.069   0.138   2.810 -0.3252 -0.0150  0.3006
  105SAPE   H4X10775  -0.170   0.105   2.840 -0.8720 -0.7380 -2.1744
  105SAPE   H4Y10776  -0.058   0.247   2.832  1.2995  0.6463 -3.0551
  105SAPE   C3510777   0.034   0.065   2.896 -1.0789  0.7133  0.2240
  105SAPE   H5X10778   0.135   0.109   2.909 -0.6636 -0.9478  3.7351
  105SAPE   H5Y10779   0.060  -0.031   2.845 -1.3516  0.6944  0.1170
  105SAPE   C3610780  -0.023   0.032   3.029 -0.0574  0.1926 -0.1912
  105SAPE   H6X10781  -0.117   0.090   3.038 -1.2997 -1.6134 -0.9498
  105SAPE   H6Y10782   0.041   0.057   3.117  0.9739 -2.6035 -0.0714
  105SAPE   C3710783  -0.051  -0.114   3.033 -0.0861  0.0379 -0.1857
  105SAPE   H7X10784   0.038  -0.180   3.028  0.0418  0.1142  0.9271
  105SAPE   H7Y10785  -0.112  -0.132   2.942 -1.9527 -1.6300  1.3005
  105SAPE   C3810786  -0.133  -0.161   3.157  0.2605  0.6321 -0.0479
  105SAPE   H8X10787  -0.159  -0.269   3.153 -0.7435  0.8409  0.3926
  105SAPE   H8Y10788  -0.232  -0.113   3.138 -1.4562 -2.0905  1.4053
  105SAPE   C3910789  -0.066  -0.124   3.292 -0.0420 -0.1094 -0.4330
  105SAPE   H9X10790  -0.069  -0.014   3.308  0.4868 -0.3264  1.3719
  105SAPE   H9Y10791   0.043  -0.147   3.296 -0.4050 -1.8276  0.1965
  105SAPE  C31010792  -0.133  -0.196   3.414 -0.4370  0.0005  0.1332
  105SAPE  H10X10793  -0.113  -0.304   3.398  2.4951  0.5398 -0.2760
  105SAPE  H10Y10794  -0.244  -0.188   3.415 -0.5493 -1.0354  2.2159
  105SAPE  C31110795  -0.070  -0.154   3.545 -0.2487  0.0098 -1.0407
  105SAPE  H11X10796  -0.049  -0.045   3.547 -1.4379  0.2449 -0.6593
  105SAPE  H11Y10797   0.035  -0.191   3.546  0.7011  2.5157  0.4237
  105SAPE  C31210798  -0.149  -0.179   3.672  0.5299 -0.7280 -0.0192
  105SAPE  H12X10799  -0.166  -0.288   3.683 -1.6183 -0.3017  1.3168
  105SAPE  H12Y10800  -0.251  -0.137   3.660  1.0151  0.8751  1.0863
  105SAPE  C31310801  -0.092  -0.114   3.801  0.8493 -0.3760  0.1092
  105SAPE  H13X10802  -0.064  -0.007   3.793  1.8751 -0.5729  0.9103
  105SAPE  H13Y10803   0.004  -0.167   3.819  1.5421  0.0834 -1.9184
  105SAPE  C31410804  -0.200  -0.129   3.911 -0.1862 -0.0406 -0.3516
  105SAPE  H14X10805  -0.225  -0.237   3.924  2.2086 -0.6896 -0.7551
  105SAPE  H14Y10806  -0.298  -0.094   3.872 -0.3640 -1.2535 -1.0434
  105SAPE  C31510807  -0.164  -0.052   4.040  0.2196  0.5074 -0.9416
  105SAPE  H15X10808  -0.251  -0.044   4.108  1.9707 -1.2375  1.7087
  105SAPE  H15Y10809  -0.135   0.052   4.011 -1.0156  1.2319  0.3058
  105SAPE  C31610810  -0.054  -0.124   4.122 -0.3238 -0.0885  0.1978
  105SAPE  H16X10811   0.032  -0.143   4.053 -1.3873  0.3338 -1.2750
  105SAPE  H16Y10812  -0.092  -0.220   4.165 -2.1892  0.7855  0.5847
  105SAPE  C31710813  -0.024  -0.053   4.252 -0.5552  0.5081  0.3680
  105SAPE  H17X10814  -0.111  -0.046   4.322 -0.8519 -0.8735  0.1650
  105SAPE  H17Y10815   0.011   0.049   4.225 -3.4981  1.2031 -1.3162
  105SAPE  C31810816   0.088  -0.115   4.338  0.9028 -0.7095  0.0901
  105SAPE  H18X10817   0.103  -0.056   4.431  1.4434 -0.5064 -0.1244
  105SAPE  H18Y10818   0.186  -0.112   4.285 -0.7268  0.9703 -3.1638
  105SAPE  H18Z10819   0.061  -0.219   4.364  0.6967 -0.8118 -0.5133
  106SAPE     N10820   5.684   3.763   2.232 -0.3283 -0.3982  0.3294
  106SAPE   HN110821   5.690   3.662   2.254  2.1648 -0.3928 -0.0732
  106SAPE   HN210822   5.779   3.804   2.243 -1.2896  1.8046  1.0805
  106SAPE   HN310823   5.614   3.818   2.286 -0.8736  0.8996 -1.6046
  106SAPE   C1210824   5.649   3.781   2.087  0.1156  1.2002 -0.0155
  106SAPE  H12A10825   5.709   3.708   2.028  1.5342  1.9284  0.4858
  106SAPE  H12B10826   5.680   3.884   2.058  1.6416  0.8815  0.4034
  106SAPE   C1110827   5.496   3.770   2.074 -0.2864  0.7982  0.1826
  106SAPE  H11A10828   5.463   3.668   2.104 -0.5444  0.2885 -1.7032
  106SAPE  H11B10829   5.463   3.788   1.970 -0.7391  0.4903  0.2700
  106SAPE     P10830   5.425   4.014   2.151 -0.2077  0.4277 -0.3444
  106SAPE   O1310831   5.393   4.038   2.008 -0.2717  0.0305 -0.9353
  106SAPE   O1410832   5.324   4.067   2.246  0.0625  0.4632  0.4085
  106SAPE   O1210833   5.436   3.861   2.173 -0.2355 -0.5585 -0.2611
  106SAPE   O1110834   5.571   4.062   2.191 -0.1680  0.0768  0.0961
  106SAPE    C110835   5.603   4.161   2.291  0.0690  0.4374  0.3209
  106SAPE    HA10836   5.706   4.193   2.266 -0.7447  2.8240 -0.1637
  106SAPE    HB10837   5.533   4.247   2.287  0.6196  0.9398  1.1376
  106SAPE    C210838   5.608   4.102   2.435  0.2268  0.4617 -0.1122
  106SAPE    HS10839   5.674   4.014   2.426 -1.4803 -0.6592 -3.5900
  106SAPE   O2110840   5.476   4.064   2.475  0.8460 -0.9460 -0.5042
  106SAPE   C2110841   5.464   3.943   2.533  0.2076  0.3626  0.0797
  106SAPE   O2210842   5.550   3.857   2.551 -0.1543  0.1129 -0.1993
  106SAPE   C2210843   5.318   3.913   2.561  0.3202 -0.4210 -0.6748
  106SAPE   H2R10844   5.274   3.879   2.464 -0.6039  2.9367 -1.5895
  106SAPE   H2S10845   5.312   3.833   2.637  0.4478  0.0640 -0.1464
  106SAPE    C310846   5.647   4.212   2.534 -0.8007 -0.4638 -0.6485
  106SAPE    HX10847   5.566   4.282   2.561 -1.3072 -1.6888  1.1684
  106SAPE    HY10848   5.728   4.267   2.480  0.3378 -1.5775 -0.1258
  106SAPE   O3110849   5.691   4.148   2.655  0.7100 -0.1669 -0.6096
  106SAPE   C3110850   5.739   4.240   2.739  0.9202  0.4929 -0.1497
  106SAPE   O3210851   5.743   4.359   2.716 -0.1883 -0.0644 -0.1925
  106SAPE   C3210852   5.785   4.169   2.869  0.0313  0.0767  0.3491
  106SAPE   H2X10853   5.885   4.129   2.839  0.3718  0.5127  0.8690
  106SAPE   H2Y10854   5.724   4.077   2.880  1.3542 -0.9678 -0.7504
  106SAPE   C2310855   5.237   4.032   2.604  0.1786  0.3418 -0.3664
  106SAPE   H3R10856   5.127   4.027   2.586  0.4062 -1.5050 -1.5032
  106SAPE   H3S10857   5.260   4.112   2.530  0.2309 -0.3297 -1.0932
  106SAPE   C2410858   5.273   4.086   2.745  0.3858 -0.0587  0.6108
  106SAPE   H4R10859   5.214   4.179   2.763 -1.5188 -1.2906  1.0812
  106SAPE   H4S10860   5.381   4.110   2.748  0.5075 -0.5534  0.2454
  106SAPE   C2510861   5.252   3.980   2.857  0.5272  0.1878 -0.2830
  106SAPE   H5R10862   5.160   3.921   2.848  1.0668 -0.9227  1.1252
  106SAPE   C2610863   5.325   3.973   2.964 -0.8577 -0.9312 -0.7745
  106SAPE   H6R10864   5.299   3.894   3.035  2.9134 -3.7989 -2.2308
  106SAPE   C2710865   5.446   4.048   3.004  0.7690  0.1569 -0.5195
  106SAPE   H7R10866   5.427   4.157   2.994 -0.0799 -0.1057 -2.0581
  106SAPE   H7S10867   5.522   4.020   2.928 -0.8612 -1.5148 -1.5935
  106SAPE   C2810868   5.511   3.995   3.127 -0.0850 -0.3131 -0.4554
  106SAPE   H8R10869   5.532   3.887   3.129 -0.8580 -0.4800 -1.0052
  106SAPE   C2910870   5.544   4.064   3.246 -0.1339 -0.9342 -0.1617
  106SAPE   H9R10871   5.605   4.013   3.322  0.3041 -0.0657  0.0745
  106SAPE  C21010872   5.511   4.214   3.272  0.5270  0.7213 -0.1469
  106SAPE  H10R10873   5.462   4.253   3.181 -1.5948 -1.0114  0.1806
  106SAPE  H10S10874   5.605   4.273   3.284  1.5836 -1.1036  1.0461
  106SAPE  C21110875   5.409   4.220   3.386  1.4125  1.1937 -0.2999
  106SAPE  H11R10876   5.305   4.206   3.355  0.4746  4.5080  0.9078
  106SAPE  C21210877   5.433   4.245   3.520  0.2670 -0.1234 -0.0380
  106SAPE  H12R10878   5.340   4.241   3.579  1.2873 -0.3511  1.6317
  106SAPE  C21310879   5.565   4.278   3.588  0.1080  0.1080 -0.2510
  106SAPE  H13R10880   5.563   4.387   3.610  1.5971 -0.4990  3.8040
  106SAPE  H13S10881   5.651   4.256   3.520  0.7690 -0.5244  0.7681
  106SAPE  C21410882   5.582   4.200   3.719 -0.4875 -0.1927 -0.5288
  106SAPE  H14R10883   5.659   4.122   3.714 -0.5108 -0.5051  2.4630
  106SAPE  C21510884   5.540   4.235   3.841  0.1280 -0.1925 -0.3650
  106SAPE  H15R10885   5.577   4.191   3.935 -2.7888  1.6051  1.8057
  106SAPE  C21610886   5.459   4.355   3.881 -0.0517  0.3271 -0.1963
  106SAPE  H16R10887   5.369   4.321   3.937 -0.5310  0.5839 -0.7967
  106SAPE  H16S10888   5.425   4.407   3.789  1.8427  0.5969 -0.7853
  106SAPE  C21710889   5.531   4.461   3.966 -0.1172 -0.9318 -0.0506
  106SAPE  H17R10890   5.469   4.553   3.977  0.5769 -0.5721  1.1068
  106SAPE  H17S10891   5.617   4.499   3.907 -0.3676  0.0469  0.1992
  106SAPE  C21810892   5.591   4.409   4.098  0.0620 -0.5979 -0.1699
  106SAPE  H18R10893   5.640   4.503   4.132 -1.4790 -0.5097  1.9761
  106SAPE  H18S10894   5.662   4.325   4.081  1.7885  0.3386  1.9094
  106SAPE  C21910895   5.486   4.362   4.201  0.5818  0.3479 -0.3456
  106SAPE  H19R10896   5.528   4.347   4.303 -1.3207  3.5994  1.0873
  106SAPE  H19S10897   5.448   4.268   4.156 -0.0791  1.4616 -2.2209
  106SAPE  C22010898   5.367   4.457   4.233 -0.8467 -0.1223  1.0199
  106SAPE  H20R10899   5.299   4.397   4.297 -2.5265  0.2334 -0.3700
  106SAPE  H20S10900   5.321   4.480   4.135  1.5071 -0.8274 -0.3461
  106SAPE  H20T10901   5.399   4.550   4.284  2.6235  0.3652 -1.6009
  106SAPE   C3310902   5.797   4.248   3.001 -0.3676  0.9008 -0.1769
  106SAPE   H3X10903   5.691   4.263   3.032 -0.8742 -1.6199 -0.4757
  106SAPE   H3Y10904   5.840   4.349   2.982  0.2787  0.5172 -0.7520
  106SAPE   C3410905   5.879   4.176   3.114 -0.1310 -0.2486 -0.4918
  106SAPE   H4X10906   5.851   4.070   3.132 -2.3294  0.1338 -1.3851
  106SAPE   H4Y10907   5.849   4.226   3.209 -2.1916 -0.2911 -1.0761
  106SAPE   C3510908   6.031   4.195   3.104 -0.6241 -0.3384  0.7347
  106SAPE   H5X10909   6.064   4.300   3.117 -0.0286 -0.7108  2.6580
  106SAPE   H5Y10910   6.049   4.156   3.002 -0.4619  0.4345  0.4677
  106SAPE   C3610911   6.116   4.113   3.206 -0.1448 -0.2850 -0.4438
  106SAPE   H6X10912   6.221   4.115   3.169 -0.4290  1.9269 -1.3086
  106SAPE   H6Y10913   6.067   4.014   3.211 -2.9867  0.9876 -0.9358
  106SAPE   C3710914   6.110   4.176   3.349 -0.1479 -0.4622  0.2290
  106SAPE   H7X10915   6.005   4.182   3.385  0.0661 -2.3847  1.3012
  106SAPE   H7Y10916   6.138   4.284   3.342  0.7595 -0.7549 -0.7870
  106SAPE   C3810917   6.189   4.111   3.467 -0.7701  0.2793 -0.2698
  106SAPE   H8X10918   6.295   4.089   3.442 -0.9786 -1.4172  0.2044
  106SAPE   H8Y10919   6.140   4.013   3.486  0.4641 -0.3154 -0.0991
  106SAPE   C3910920   6.170   4.194   3.596  0.2436  0.5717  0.2897
  106SAPE   H9X10921   6.065   4.197   3.633  0.2219  2.3117  0.1776
  106SAPE   H9Y10922   6.199   4.299   3.575 -0.8059  0.4394 -2.0384
  106SAPE  C31010923   6.245   4.128   3.719  0.1044  0.4329 -0.0117
  106SAPE  H10X10924   6.349   4.104   3.690 -0.6299 -1.7564 -0.9828
  106SAPE  H10Y10925   6.201   4.030   3.745  1.7597  0.1517  2.0161
  106SAPE  C31110926   6.227   4.217   3.842 -0.3525  0.1338 -0.3563
  106SAPE  H11X10927   6.120   4.236   3.867 -0.8306 -0.5015 -1.7967
  106SAPE  H11Y10928   6.258   4.321   3.818  1.0548  0.0332  0.9034
  106SAPE  C31210929   6.301   4.170   3.966 -0.5290 -0.5083 -0.1114
  106SAPE  H12X10930   6.409   4.152   3.948  0.2549  1.0882  2.4468
  106SAPE  H12Y10931   6.269   4.067   3.989  2.1213 -0.9990  2.0132
  106SAPE  C31310932   6.279   4.255   4.089 -0.1675  0.3084  1.0655
  106SAPE  H13X10933   6.172   4.261   4.118 -0.3878  0.1258  0.3113
  106SAPE  H13Y10934   6.298   4.357   4.048  1.2126 -1.3880 -3.0862
  106SAPE  C31410935   6.358   4.223   4.207 -0.8256 -0.2828 -0.3733
  106SAPE  H14X10936   6.467   4.240   4.199 -1.1007  2.1874  0.2428
  106SAPE  H14Y10937   6.350   4.113   4.218 -0.3142 -0.1734  1.4315
  106SAPE  C31510938   6.297   4.281   4.338 -0.1344  0.0862 -0.5029
  106SAPE  H15X10939   6.371   4.238   4.409  0.8570  1.7680 -0.4747
  106SAPE  H15Y10940   6.201   4.228   4.354  0.5182 -0.9914 -0.0182
  106SAPE  C31610941   6.270   4.430   4.331 -0.7116 -0.0120  0.0488
  106SAPE  H16X10942   6.194   4.447   4.251  1.1293  1.3600 -1.5178
  106SAPE  H16Y10943   6.359   4.472   4.279  0.6643 -2.1263  0.6170
  106SAPE  C31710944   6.241   4.501   4.460  0.8486 -0.5899 -0.2295
  106SAPE  H17X10945   6.317   4.471   4.535  2.1059  2.9739  0.0904
  106SAPE  H17Y10946   6.142   4.473   4.501  1.6582 -0.6144  1.8572
  106SAPE  C31810947   6.249   4.652   4.448 -0.8434 -0.4726  0.3916
  106SAPE  H18X10948   6.355   4.685   4.443 -1.0300  1.2780  4.1678
  106SAPE  H18Y10949   6.217   4.699   4.543  0.6606  1.2047  0.1348
  106SAPE  H18Z10950   6.189   4.696   4.365  0.2318 -1.8060 -1.1561
  107SAPE     N10951   0.556   1.163   2.344  0.5226  0.3269 -0.8332
  107SAPE   HN110952   0.647   1.117   2.323  0.6434  0.5445 -0.7907
  107SAPE   HN210953   0.500   1.090   2.295  1.2386 -0.5146 -0.4228
  107SAPE   HN310954   0.551   1.253   2.291  1.5591  1.2381  0.5579
  107SAPE   C1210955   0.530   1.171   2.488  0.1252  0.0396 -0.5446
  107SAPE  H12A10956   0.558   1.071   2.528 -0.5834 -0.1747 -0.5622
  107SAPE  H12B10957   0.422   1.192   2.502  0.3031 -0.5220  2.2968
  107SAPE   C1110958   0.613   1.273   2.573  0.8792 -0.4220 -0.0327
  107SAPE  H11A10959   0.591   1.238   2.676  1.1619 -0.2086  0.1001
  107SAPE  H11B10960   0.577   1.378   2.563  1.3058 -0.4776 -3.0274
  107SAPE     P10961   0.825   1.353   2.453  0.2745  0.5889 -0.0680
  107SAPE   O1310962   0.965   1.320   2.435  0.1051 -0.4955  0.2032
  107SAPE   O1410963   0.753   1.370   2.324 -0.6486  0.2280 -0.0440
  107SAPE   O1210964   0.748   1.253   2.552 -0.1259 -0.2850  0.2934
  107SAPE   O1110965   0.805   1.477   2.537 -0.8341  0.3008 -0.5095
  107SAPE    C110966   0.898   1.543   2.619 -0.4205  0.3286  0.7813
  107SAPE    HA10967   0.991   1.545   2.558 -0.8522 -0.0682  0.0973
  107SAPE    HB10968   0.857   1.645   2.630 -0.7006  0.2085  0.8722
  107SAPE    C210969   0.907   1.482   2.758  0.2291  0.9598 -0.2111
  107SAPE    HS10970   0.970   1.392   2.744 -0.2967  0.5968 -0.2721
  107SAPE   O2110971   0.774   1.460   2.804 -0.0179  0.4880 -0.0678
  107SAPE   C2110972   0.766   1.350   2.873 -0.4432  0.5644  0.0514
  107SAPE   O2210973   0.856   1.270   2.898 -0.1917  0.2133  0.8911
  107SAPE   C2210974   0.628   1.316   2.920 -0.5954  0.5160 -0.6618
  107SAPE   H2R10975   0.556   1.386   2.873  0.5566  2.4360  0.3279
  107SAPE   H2S10976   0.599   1.212   2.893 -0.2649  0.1018  0.5165
  107SAPE    C310977   0.980   1.578   2.855  0.1800  0.3576  0.0906
  107SAPE    HX10978   0.964   1.688   2.850  1.4381  0.7746  3.1027
  107SAPE    HY10979   1.085   1.573   2.820  0.1865 -0.0468  0.1540
  107SAPE   O3110980   0.952   1.538   2.995  0.1704 -1.1520 -0.1342
  107SAPE   C3110981   1.037   1.455   3.041 -0.0064 -0.4470 -0.3167
  107SAPE   O3210982   1.144   1.416   2.997  0.0866  0.2208  0.4086
  107SAPE   C3210983   0.978   1.408   3.171 -0.4316 -0.2033 -0.7958
  107SAPE   H2X10984   0.868   1.422   3.170 -0.3388  0.5804 -2.0154
  107SAPE   H2Y10985   1.000   1.485   3.249 -2.1572  0.9386 -1.3930
  107SAPE   C2310986   0.617   1.307   3.072 -0.1891  0.2388  0.6471
  107SAPE   H3R10987   0.659   1.399   3.118 -0.6143  0.1875  1.1505
  107SAPE   H3S10988   0.671   1.215   3.104  1.5836  0.5987 -1.1369
  107SAPE   C2410989   0.474   1.286   3.126  0.3552  0.3169  0.1250
  107SAPE   H4R10990   0.478   1.246   3.230 -0.0152 -0.3220 -0.0979
  107SAPE   H4S10991   0.417   1.216   3.061 -1.0752  0.6223  1.0225
  107SAPE   C2510992   0.411   1.423   3.146 -0.0309  0.2664 -0.1061
  107SAPE   H5R10993   0.333   1.445   3.072 -0.6328 -0.0094  0.4426
  107SAPE   C2610994   0.437   1.517   3.239 -0.4177 -0.1007  0.0031
  107SAPE   H6R10995   0.362   1.597   3.233 -1.9137 -1.5082 -1.0229
  107SAPE   C2710996   0.545   1.522   3.344  0.0406  0.7994 -0.2289
  107SAPE   H7R10997   0.574   1.415   3.354 -2.3950  0.1725  0.9931
  107SAPE   H7S10998   0.509   1.537   3.448  2.4718  2.2876  0.5042
  107SAPE   C2810999   0.652   1.616   3.288 -0.3069  0.2542 -0.2151
  107SAPE   H8R11000   0.657   1.620   3.178 -1.2164  1.9543 -0.2280
  107SAPE   C2911001   0.751   1.669   3.355  0.3434 -0.3315  0.5748
  107SAPE   H9R11002   0.827   1.725   3.300 -1.8777  2.0172 -0.3033
  107SAPE  C21011003   0.768   1.681   3.505  0.3679 -0.1882  0.3187
  107SAPE  H10R11004   0.694   1.621   3.563  0.2110 -0.0741  0.2352
  107SAPE  H10S11005   0.750   1.789   3.520  0.9225  0.2517 -1.7748
  107SAPE  C21111006   0.890   1.632   3.569 -0.6810  0.0661 -0.3784
  107SAPE  H11R11007   0.943   1.548   3.521  0.4562 -0.6163  1.9364
  107SAPE  C21211008   0.937   1.662   3.689  0.1053 -0.0171 -1.0009
  107SAPE  H12R11009   1.023   1.608   3.731  0.7495  0.2457 -1.9500
  107SAPE  C21311010   0.870   1.758   3.776 -0.3572 -0.2322 -0.3584
  107SAPE  H13R11011   0.773   1.793   3.735 -0.6350 -1.8195 -1.1249
  107SAPE  H13S11012   0.936   1.848   3.771 -1.6477  0.7124 -0.8729
  107SAPE  C21411013   0.854   1.726   3.928 -0.0086  0.3815 -0.0166
  107SAPE  H14R11014   0.748   1.706   3.949  0.2717 -1.4090 -0.1288
  107SAPE  C21511015   0.946   1.714   4.026 -0.4833 -0.4996 -0.7363
  107SAPE  H15R11016   0.908   1.684   4.125  0.0691 -0.3814 -0.4798
  107SAPE  C21611017   1.089   1.747   4.032 -0.5373  0.3159 -0.3741
  107SAPE  H16R11018   1.102   1.854   4.061  0.3678 -0.3344  1.7605
  107SAPE  H16S11019   1.138   1.731   3.934 -2.2307  1.2714 -1.4458
  107SAPE  C21711020   1.154   1.669   4.144  0.2512  0.5268 -0.6936
  107SAPE  H17R11021   1.125   1.704   4.245 -0.6681 -4.0050  0.8421
  107SAPE  H17S11022   1.263   1.664   4.127 -0.1286 -1.2265 -3.2440
  107SAPE  C21811023   1.108   1.520   4.150 -0.2352 -0.3342  0.2360
  107SAPE  H18R11024   1.105   1.480   4.046  2.1042 -0.5063  0.1854
  107SAPE  H18S11025   1.005   1.513   4.192 -0.8569 -1.0457 -1.2997
  107SAPE  C21911026   1.192   1.428   4.236 -0.1866 -0.2077  0.0356
  107SAPE  H19R11027   1.127   1.340   4.251  0.7385 -1.1039 -1.0423
  107SAPE  H19S11028   1.224   1.480   4.329  0.6366 -2.1604  0.9071
  107SAPE  C22011029   1.316   1.367   4.173 -0.0982 -0.4284  0.0646
  107SAPE  H20R11030   1.282   1.314   4.081  0.9685 -1.8215  0.4313
  107SAPE  H20S11031   1.366   1.295   4.242 -0.8373 -0.2372  0.8062
  107SAPE  H20T11032   1.387   1.450   4.153  1.8167 -2.3157 -1.4476
  107SAPE   C3311033   1.026   1.277   3.220 -0.0611 -0.2517  0.2266
  107SAPE   H3X11034   1.136   1.271   3.205  0.3616 -0.5767  3.0154
  107SAPE   H3Y11035   0.982   1.200   3.154  0.7303 -0.9912  0.5375
  107SAPE   C3411036   0.996   1.242   3.370 -0.2684 -0.2751  0.0107
  107SAPE   H4X11037   1.067   1.289   3.441  1.2971 -1.4000 -0.7601
  107SAPE   H4Y11038   1.022   1.135   3.386 -1.0427 -0.2571  1.5875
  107SAPE   C3511039   0.857   1.260   3.428 -0.3487  0.3581  0.7186
  107SAPE   H5X11040   0.786   1.205   3.362  0.4951 -0.7125  0.6872
  107SAPE   H5Y11041   0.828   1.367   3.420  0.9444  0.9766  3.2875
  107SAPE   C3611042   0.835   1.217   3.569 -0.2875 -0.2223 -0.5177
  107SAPE   H6X11043   0.866   1.298   3.638 -4.3612  1.8996 -0.8770
  107SAPE   H6Y11044   0.889   1.122   3.588 -0.5613 -0.2183  0.3274
  107SAPE   C3711045   0.693   1.199   3.605  0.1258  0.1464  0.1459
  107SAPE   H7X11046   0.656   1.115   3.542 -0.2548 -0.7561  1.5267
  107SAPE   H7Y11047   0.639   1.295   3.596  1.0983  0.7525  0.6268
  107SAPE   C3811048   0.677   1.155   3.748  0.4119  0.2477  0.1280
  107SAPE   H8X11049   0.728   1.232   3.808  3.3098 -0.3708 -1.3755
  107SAPE   H8Y11050   0.735   1.061   3.759  1.0855  0.5985 -0.3179
  107SAPE   C3911051   0.534   1.144   3.801  0.0036 -0.7293 -0.3700
  107SAPE   H9X11052   0.472   1.094   3.723  1.4082 -1.0992 -1.2870
  107SAPE   H9Y11053   0.508   1.252   3.803  0.2602 -0.5102 -3.6985
  107SAPE  C31011054   0.512   1.083   3.936 -0.0642  0.5126 -0.0088
  107SAPE  H10X11055   0.562   0.984   3.949  0.0075  0.5125 -0.2694
  107SAPE  H10Y11056   0.405   1.060   3.949  0.6458 -1.3734  3.8685
  107SAPE  C31111057   0.566   1.168   4.049 -0.1146 -0.5716  0.2514
  107SAPE  H11X11058   0.522   1.271   4.043  0.6021 -0.2670  0.1905
  107SAPE  H11Y11059   0.676   1.175   4.048 -0.1420 -0.1167  0.3067
  107SAPE  C31211060   0.523   1.102   4.183  0.2492 -0.3961  0.0161
  107SAPE  H12X11061   0.589   1.014   4.199  1.1710  0.0172 -1.3564
  107SAPE  H12Y11062   0.420   1.063   4.166 -0.4446  0.8088  1.2261
  107SAPE  C31311063   0.533   1.190   4.311 -0.0644  0.0679  0.0533
  107SAPE  H13X11064   0.477   1.286   4.307 -0.8630 -0.4455 -2.2418
  107SAPE  H13Y11065   0.638   1.227   4.312 -0.2526  0.6320 -0.4628
  107SAPE  C31411066   0.502   1.102   4.430 -0.4356  0.1830 -0.3222
  107SAPE  H14X11067   0.527   1.158   4.523  1.4506 -1.8184  0.4747
  107SAPE  H14Y11068   0.578   1.022   4.421  0.8358  1.2418  0.6403
  107SAPE  C31511069   0.363   1.047   4.440  0.2004  0.3054  0.1960
  107SAPE  H15X11070   0.353   0.991   4.535 -3.2929 -1.0879 -0.8276
  107SAPE  H15Y11071   0.329   0.972   4.365  0.9694 -1.2898  1.4050
  107SAPE  C31611072   0.259   1.163   4.448 -0.4073  0.4977  0.4350
  107SAPE  H16X11073   0.264   1.209   4.347  1.1668  0.8058  0.6293
  107SAPE  H16Y11074   0.274   1.243   4.523  1.0950 -0.7143  1.4860
  107SAPE  C31711075   0.123   1.107   4.494  0.5120 -0.2595  0.3921
  107SAPE  H17X11076   0.087   1.035   4.417  0.8035  1.9773 -1.9647
  107SAPE  H17Y11077   0.043   1.184   4.489 -0.1171 -0.9897 -2.7755
  107SAPE  C31811078   0.108   1.037   4.635  0.4777  0.4482 -0.5007
  107SAPE  H18X11079   0.061   0.937   4.622 -0.2127  0.8859 -1.5927
  107SAPE  H18Y11080   0.046   1.108   4.693  2.8431  0.4320  2.2201
  107SAPE  H18Z11081   0.211   1.032   4.677  0.2612  0.2278  0.0025
  108SAPE     N11082   0.438   2.189   2.356  0.1804 -0.2534 -0.6183
  108SAPE   HN111083   0.432   2.286   2.318  1.4655  0.3879  0.7146
  108SAPE   HN211084   0.525   2.145   2.321  2.0687  1.8126  1.1626
  108SAPE   HN311085   0.358   2.131   2.324 -2.7075  3.0865 -0.0685
  108SAPE   C1211086   0.431   2.197   2.508 -0.3175 -0.1599  0.2085
  108SAPE  H12A11087   0.339   2.258   2.517 -1.1839 -1.3540 -0.2446
  108SAPE  H12B11088   0.517   2.261   2.537  0.7721 -1.5233  0.0857
  108SAPE   C1111089   0.426   2.056   2.565  0.2304  0.0043 -0.5029
  108SAPE  H11A11090   0.432   2.051   2.676 -0.6603 -1.7288 -0.5014
  108SAPE  H11B11091   0.515   2.002   2.526  0.3725 -0.6931  0.7356
  108SAPE     P11092   0.272   1.840   2.567  0.2176 -0.1163  0.3002
  108SAPE   O1311093   0.165   1.841   2.666  0.4803 -0.8280  0.2182
  108SAPE   O1411094   0.241   1.756   2.446 -0.7344  0.3693  0.3502
  108SAPE   O1211095   0.304   1.995   2.529  1.0208  0.8568 -0.2513
  108SAPE   O1111096   0.398   1.776   2.634  0.1019  0.5316  0.2375
  108SAPE    C111097   0.389   1.661   2.717  0.2313 -0.1716 -0.4139
  108SAPE    HA11098   0.291   1.614   2.700 -0.2184  0.6577 -0.1929
  108SAPE    HB11099   0.466   1.590   2.680 -0.4106 -0.0401 -2.0792
  108SAPE    C211100   0.416   1.680   2.871  0.0269 -0.1799 -0.6228
  108SAPE    HS11101   0.424   1.581   2.920 -1.3174 -0.1962 -0.3905
  108SAPE   O2111102   0.303   1.751   2.932 -0.6352  0.3562 -0.2180
  108SAPE   C2111103   0.185   1.693   2.935 -0.3680  0.6230 -0.2418
  108SAPE   O2211104   0.165   1.574   2.910 -0.0222 -0.0066 -0.3231
  108SAPE   C2211105   0.086   1.788   3.000 -0.2251  0.0996  0.4483
  108SAPE   H2R11106   0.149   1.865   3.048  3.0679 -0.7435 -2.1479
  108SAPE   H2S11107   0.035   1.850   2.922  0.9499  1.8451  1.0199
  108SAPE    C311108   0.555   1.759   2.896 -0.9734 -0.1772  0.0281
  108SAPE    HX11109   0.575   1.827   2.810 -2.2436  1.1788  0.7382
  108SAPE    HY11110   0.638   1.686   2.906  0.0932  0.8359 -1.1253
  108SAPE   O3111111   0.557   1.837   3.019  0.3113  0.5139 -0.3288
  108SAPE   C3111112   0.506   1.956   3.005 -0.2668  0.1812 -0.7854
  108SAPE   O3211113   0.465   2.005   2.897  0.3158  0.0335 -0.6232
  108SAPE   C3211114   0.483   2.008   3.151  0.1395  0.1822  0.8895
  108SAPE   H2X11115   0.551   1.946   3.213  0.3980 -1.3218 -0.8276
  108SAPE   H2Y11116   0.375   1.982   3.152  1.0446 -4.5154  1.3888
  108SAPE   C2311117  -0.014   1.726   3.095 -0.2192  0.3112 -0.3498
  108SAPE   H3R11118  -0.087   1.662   3.041  0.3405 -0.8635  0.2402
  108SAPE   H3S11119  -0.077   1.805   3.141  1.3788  0.6216  1.4461
  108SAPE   C2411120   0.046   1.667   3.224  0.4359 -0.7341  0.0720
  108SAPE   H4R11121   0.096   1.569   3.215  2.8283  0.4113 -0.0373
  108SAPE   H4S11122  -0.043   1.644   3.287  1.0103 -0.1704  1.1110
  108SAPE   C2511123   0.146   1.746   3.312 -0.2267  0.3140  1.3162
  108SAPE   H5R11124   0.207   1.819   3.256  0.5394 -1.9950 -1.0319
  108SAPE   C2611125   0.157   1.722   3.441  0.2719 -0.6035  0.2114
  108SAPE   H6R11126   0.243   1.766   3.494 -0.2267 -0.3327  0.8134
  108SAPE   C2711127   0.086   1.624   3.523 -0.0160 -0.0280  0.0365
  108SAPE   H7R11128  -0.018   1.605   3.491 -0.8938  0.9663  2.1418
  108SAPE   H7S11129   0.075   1.662   3.627  1.8505  0.3613  0.1417
  108SAPE   C2811130   0.163   1.497   3.533 -1.1719 -0.0998  0.7871
  108SAPE   H8R11131   0.123   1.411   3.478  0.1023 -0.7983  0.9176
  108SAPE   C2911132   0.260   1.465   3.621  0.1666  0.0192 -0.4969
  108SAPE   H9R11133   0.304   1.364   3.624  0.1261  0.0057 -0.3205
  108SAPE  C21011134   0.325   1.556   3.732  0.0965 -0.3984  0.1049
  108SAPE  H10R11135   0.259   1.547   3.822 -2.3718 -1.7103 -1.7076
  108SAPE  H10S11136   0.307   1.658   3.692  1.0885  0.1583  1.0330
  108SAPE  C21111137   0.469   1.518   3.769  0.2444 -0.6302 -0.7362
  108SAPE  H11R11138   0.530   1.503   3.679 -0.2271 -1.2969 -0.9511
  108SAPE  C21211139   0.530   1.510   3.890  0.0747 -0.2475  0.1289
  108SAPE  H12R11140   0.636   1.482   3.901 -0.7542 -3.0488  2.0467
  108SAPE  C21311141   0.468   1.548   4.019  0.6627  0.5485  0.0840
  108SAPE  H13R11142   0.387   1.473   4.027 -1.5560  2.5360 -1.9563
  108SAPE  H13S11143   0.407   1.640   4.006  0.2394 -0.0073 -2.2235
  108SAPE  C21411144   0.558   1.559   4.141 -0.5224 -0.2017  0.2266
  108SAPE  H14R11145   0.616   1.466   4.151  2.3588  1.5880  1.4009
  108SAPE  C21511146   0.572   1.658   4.239 -0.0667  0.0386  0.6214
  108SAPE  H15R11147   0.633   1.627   4.325  0.9100  2.7678  1.0318
  108SAPE  C21611148   0.506   1.790   4.243  0.1482  0.6371  0.2874
  108SAPE  H16R11149   0.470   1.828   4.145 -1.2892  0.5377  0.7517
  108SAPE  H16S11150   0.579   1.862   4.286  0.7569 -0.5151  1.2216
  108SAPE  C21711151   0.383   1.787   4.337  0.2080 -0.3517 -0.3091
  108SAPE  H17R11152   0.358   1.893   4.356  2.7285  0.4258 -0.9847
  108SAPE  H17S11153   0.399   1.743   4.438 -2.2022  0.8895  0.6950
  108SAPE  C21811154   0.259   1.733   4.265  0.8081 -0.5880 -1.2947
  108SAPE  H18R11155   0.272   1.729   4.154 -0.0569  1.6531 -1.5219
  108SAPE  H18S11156   0.170   1.792   4.296  1.1506 -0.7698  0.1070
  108SAPE  C21911157   0.242   1.588   4.318 -0.1522  0.0464 -0.0759
  108SAPE  H19R11158   0.222   1.598   4.427 -0.8864 -1.7866 -0.0095
  108SAPE  H19S11159   0.338   1.531   4.314 -0.1093 -0.0372  1.4668
  108SAPE  C22011160   0.148   1.499   4.236 -0.7075  0.5286 -0.2456
  108SAPE  H20R11161   0.045   1.541   4.238 -1.2413 -0.7184  1.5293
  108SAPE  H20S11162   0.140   1.396   4.278 -3.2150  0.5327 -0.5708
  108SAPE  H20T11163   0.186   1.467   4.137  0.0272 -2.6113  0.9321
  108SAPE   C3311164   0.514   2.158   3.176  0.3578 -0.5978  0.0852
  108SAPE   H3X11165   0.452   2.216   3.105 -0.7235 -0.9144  0.7445
  108SAPE   H3Y11166   0.621   2.188   3.176 -0.3657  2.2813 -0.8819
  108SAPE   C3411167   0.460   2.192   3.317  0.1312  0.3498 -0.1216
  108SAPE   H4X11168   0.357   2.150   3.323  0.3282 -0.4279 -1.7461
  108SAPE   H4Y11169   0.459   2.302   3.332  2.9792  0.2235  1.7529
  108SAPE   C3511170   0.538   2.125   3.432  0.5614  0.2974 -0.2416
  108SAPE   H5X11171   0.547   2.017   3.406 -0.1865  0.2718 -0.4141
  108SAPE   H5Y11172   0.638   2.173   3.437  0.3087  1.2539 -2.9806
  108SAPE   C3611173   0.465   2.135   3.568  0.0968 -0.0306  0.9596
  108SAPE   H6X11174   0.364   2.087   3.568 -0.1150  0.4156  0.8036
  108SAPE   H6Y11175   0.448   2.242   3.590  0.0868 -0.1632  1.6371
  108SAPE   C3711176   0.539   2.076   3.687 -0.1956  0.6526  0.3753
  108SAPE   H7X11177   0.643   2.114   3.681  0.2517 -0.7204 -2.2166
  108SAPE   H7Y11178   0.562   1.969   3.665 -0.2988  0.9849 -1.5917
  108SAPE   C3811179   0.478   2.093   3.824  0.6830  0.0145 -0.4290
  108SAPE   H8X11180   0.378   2.044   3.818  0.0272  1.3259 -0.6747
  108SAPE   H8Y11181   0.470   2.199   3.859  0.3222 -0.3161  0.5261
  108SAPE   C3911182   0.567   2.027   3.933  0.2322 -0.0319 -0.5595
  108SAPE   H9X11183   0.593   1.921   3.914  1.3700 -0.2078  1.6948
  108SAPE   H9Y11184   0.496   2.025   4.019 -0.7433 -0.3347 -1.3507
  108SAPE  C31011185   0.691   2.107   3.965 -0.0311 -0.5399 -0.0406
  108SAPE  H10X11186   0.654   2.207   3.996  1.0799 -0.1252  0.0031
  108SAPE  H10Y11187   0.752   2.130   3.875 -1.9196  0.7304 -1.0635
  108SAPE  C31111188   0.759   2.046   4.091 -0.3760 -0.2519  0.3682
  108SAPE  H11X11189   0.823   1.960   4.059  1.3317 -0.0089  2.8395
  108SAPE  H11Y11190   0.676   2.014   4.157  1.6867  1.5959  4.2135
  108SAPE  C31211191   0.843   2.155   4.166 -0.3485  0.0910 -1.0518
  108SAPE  H12X11192   0.769   2.229   4.202  0.2059  0.3051 -0.3299
  108SAPE  H12Y11193   0.907   2.202   4.089 -0.0965 -0.9772 -1.5097
  108SAPE  C31311194   0.924   2.096   4.284 -0.1772  0.1926  0.3834
  108SAPE  H13X11195   0.996   2.032   4.230 -0.5639  1.3767 -1.6191
  108SAPE  H13Y11196   0.863   2.026   4.345 -0.5862 -0.5749 -0.8805
  108SAPE  C31411197   1.001   2.211   4.359 -0.1384 -0.1576  1.3115
  108SAPE  H14X11198   0.919   2.269   4.406  0.0147  0.2567  1.0766
  108SAPE  H14Y11199   1.056   2.272   4.284 -2.1379 -0.3070 -0.3496
  108SAPE  C31511200   1.084   2.166   4.479 -0.5836  0.7468 -0.0342
  108SAPE  H15X11201   1.124   2.253   4.537  3.6025 -0.2648 -1.0763
  108SAPE  H15Y11202   1.179   2.121   4.445 -0.1659  0.9729  0.7849
  108SAPE  C31611203   1.014   2.089   4.587 -0.5519 -0.0106  0.2364
  108SAPE  H16X11204   0.945   2.015   4.542 -0.3818  0.3240 -0.5997
  108SAPE  H16Y11205   0.956   2.157   4.653 -0.7045 -0.3762  0.4808
  108SAPE  C31711206   1.103   2.005   4.686  0.0821 -0.2198 -0.5399
  108SAPE  H17X11207   1.150   1.941   4.608 -2.0748 -0.5718 -1.6332
  108SAPE  H17Y11208   1.044   1.945   4.758  0.0122 -0.6727 -0.9681
  108SAPE  C31811209   1.211   2.081   4.762 -0.4347 -0.6718  0.2192
  108SAPE  H18X11210   1.275   2.149   4.701 -0.4795  0.6649  1.6112
  108SAPE  H18Y11211   1.284   2.014   4.811 -0.2768 -0.7884 -0.1668
  108SAPE  H18Z11212   1.161   2.140   4.842 -3.0819 -0.8481 -1.1870
  109SAPE     N11213   5.072   0.813   1.776  0.4233  0.0672 -0.6346
  109SAPE   HN111214   5.008   0.870   1.716  0.5333  0.0561 -0.7635
  109SAPE   HN211215   5.165   0.809   1.730  0.8788  2.3228 -0.0076
  109SAPE   HN311216   5.034   0.716   1.778  0.9915 -0.1467  1.0057
  109SAPE   C1211217   5.080   0.877   1.910  0.3909 -0.6840 -0.0690
  109SAPE  H12A11218   4.976   0.898   1.941 -0.1310 -1.6491 -1.1082
  109SAPE  H12B11219   5.131   0.975   1.897 -0.0196 -0.3614  0.7090
  109SAPE   C1111220   5.171   0.791   1.997  0.3319 -0.4024  0.1027
  109SAPE  H11A11221   5.169   0.831   2.101 -0.4150 -1.8288  0.6593
  109SAPE  H11B11222   5.272   0.792   1.951  0.1690 -0.3151 -0.2608
  109SAPE     P11223   5.206   0.550   2.084  0.1871  0.0959 -0.0268
  109SAPE   O1311224   5.156   0.409   2.066 -0.4147 -0.2427 -0.2579
  109SAPE   O1411225   5.350   0.561   2.048  0.3694  0.1906 -0.2703
  109SAPE   O1211226   5.121   0.656   2.005 -0.1258  0.6225  0.4959
  109SAPE   O1111227   5.193   0.588   2.231 -0.7417 -0.0998 -0.6982
  109SAPE    C111228   5.055   0.613   2.277 -0.0869 -0.1173 -0.0929
  109SAPE    HA11229   5.027   0.714   2.240  2.7956 -0.1338 -2.7329
  109SAPE    HB11230   4.988   0.539   2.229  1.3364  0.6590 -3.6114
  109SAPE    C211231   5.043   0.618   2.430  0.1078 -0.4784  0.1637
  109SAPE    HS11232   4.941   0.636   2.470  0.5001  1.0007  0.5569
  109SAPE   O2111233   5.138   0.713   2.481 -0.2766  0.1491  0.0493
  109SAPE   C2111234   5.114   0.760   2.599  0.0728 -0.3987 -0.7632
  109SAPE   O2211235   5.009   0.747   2.660 -0.0080 -0.5714  0.1724
  109SAPE   C2211236   5.236   0.838   2.652  1.1018  0.3446 -0.2498
  109SAPE   H2R11237   5.303   0.857   2.565  1.0667 -0.3202 -0.4352
  109SAPE   H2S11238   5.194   0.938   2.674 -0.1645  0.4612 -2.7402
  109SAPE    C311239   5.081   0.476   2.486 -0.0766  0.4076 -0.6046
  109SAPE    HX11240   5.184   0.449   2.456 -0.5745 -1.4602 -0.7621
  109SAPE    HY11241   5.023   0.399   2.431  0.5314 -1.1678  0.8579
  109SAPE   O3111242   5.063   0.460   2.624 -0.2498 -0.5115  0.3722
  109SAPE   C3111243   4.938   0.447   2.662 -0.2427  0.1025  0.4642
  109SAPE   O3211244   4.841   0.455   2.589  0.0210 -0.5102 -0.0677
  109SAPE   C3211245   4.927   0.446   2.811 -0.2140  1.0086  0.5312
  109SAPE   H2X11246   4.898   0.341   2.830  0.0590  1.0357  1.1146
  109SAPE   H2Y11247   4.847   0.520   2.831  0.1264  1.0785  1.6947
  109SAPE   C2311248   5.320   0.778   2.765 -0.1801 -0.0416 -0.5558
  109SAPE   H3R11249   5.331   0.670   2.739 -5.1080 -0.6245 -1.2895
  109SAPE   H3S11250   5.270   0.777   2.864  0.5390 -0.9223 -0.1934
  109SAPE   C2411251   5.466   0.831   2.782 -0.1955  0.5093  0.3953
  109SAPE   H4R11252   5.524   0.798   2.693  1.8195 -0.9450  2.1391
  109SAPE   H4S11253   5.509   0.776   2.869  0.7751 -0.1006 -0.4527
  109SAPE   C2511254   5.477   0.981   2.787  0.0685 -0.1549 -0.1502
  109SAPE   H5R11255   5.463   1.025   2.688  1.5409  2.1446  0.5961
  109SAPE   C2611256   5.510   1.064   2.889 -0.1123 -0.0182 -1.0814
  109SAPE   H6R11257   5.505   1.173   2.874 -1.7170  0.4790  2.1568
  109SAPE   C2711258   5.529   1.020   3.034 -0.1197 -0.2068  0.7280
  109SAPE   H7R11259   5.628   0.971   3.052 -1.3514 -2.2355  2.5092
  109SAPE   H7S11260   5.457   0.937   3.051  0.5483 -1.2877 -1.4310
  109SAPE   C2811261   5.505   1.134   3.134  0.2428 -0.1818  0.0443
  109SAPE   H8R11262   5.549   1.232   3.112 -0.1924  0.1073  0.4487
  109SAPE   C2911263   5.411   1.123   3.232 -0.2999  0.4300  0.2929
  109SAPE   H9R11264   5.390   1.219   3.281  0.7248  0.9331 -0.2095
  109SAPE  C21011265   5.331   1.005   3.278  0.2227 -0.2896 -0.0509
  109SAPE  H10R11266   5.285   0.953   3.191 -0.2199  0.6824 -0.4140
  109SAPE  H10S11267   5.244   1.036   3.339  1.6864 -2.9239  3.7272
  109SAPE  C21111268   5.417   0.904   3.351  0.7839  0.1201 -1.0407
  109SAPE  H11R11269   5.451   0.823   3.285  0.4827 -0.4483 -0.5020
  109SAPE  C21211270   5.453   0.906   3.480 -0.0242 -0.0215  0.3127
  109SAPE  H12R11271   5.510   0.818   3.514  1.2726  0.8277  0.4415
  109SAPE  C21311272   5.418   1.012   3.582 -0.2964 -0.6255  0.3475
  109SAPE  H13R11273   5.307   1.004   3.592 -0.0139 -4.1460  2.3604
  109SAPE  H13S11274   5.446   1.105   3.529  0.9269 -1.7417 -1.0424
  109SAPE  C21411275   5.491   0.992   3.710 -0.2845  0.0648  0.1421
  109SAPE  H14R11276   5.594   1.031   3.718 -0.3173  0.1798  0.0138
  109SAPE  C21511277   5.453   0.905   3.805  0.1091  0.2374 -0.4714
  109SAPE  H15R11278   5.519   0.882   3.890  0.4183  1.0116 -0.4941
  109SAPE  C21611279   5.316   0.834   3.805  0.5589  0.7102  0.0994
  109SAPE  H16R11280   5.323   0.729   3.771 -2.0377  0.2857  0.7387
  109SAPE  H16S11281   5.233   0.890   3.757  0.7419 -0.1411 -1.2625
  109SAPE  C21711282   5.264   0.834   3.949 -0.2232  0.0684 -0.2589
  109SAPE  H17R11283   5.170   0.775   3.937  0.2782 -0.4886 -1.6441
  109SAPE  H17S11284   5.243   0.937   3.984  1.1896  0.1001  0.5901
  109SAPE  C21811285   5.347   0.764   4.065  0.7589  0.2566 -0.5923
  109SAPE  H18R11286   5.450   0.807   4.063  0.7634  0.3569  0.6042
  109SAPE  H18S11287   5.338   0.654   4.058 -1.1354  0.5020 -3.6953
  109SAPE  C21911288   5.302   0.798   4.208 -0.2210 -0.1163  1.2128
  109SAPE  H19R11289   5.207   0.746   4.233 -0.4338  0.7801  2.3627
  109SAPE  H19S11290   5.272   0.905   4.210  1.1419  0.3778 -1.1336
  109SAPE  C22011291   5.399   0.745   4.319 -0.3153 -0.2281  0.0417
  109SAPE  H20R11292   5.400   0.634   4.318 -1.8944 -0.2720  0.7574
  109SAPE  H20S11293   5.369   0.787   4.418 -2.1242  0.7916 -0.8851
  109SAPE  H20T11294   5.502   0.784   4.305  0.4766 -1.3031  2.2445
  109SAPE   C3311295   5.052   0.504   2.886  0.1809  0.3234  0.5827
  109SAPE   H3X11296   5.060   0.612   2.862 -0.3887 -0.2238 -2.5005
  109SAPE   H3Y11297   5.155   0.472   2.857  0.6420  1.8090  0.5085
  109SAPE   C3411298   5.031   0.485   3.034 -0.3299 -0.4992 -0.4645
  109SAPE   H4X11299   5.013   0.382   3.072  1.3805 -0.4400  0.6139
  109SAPE   H4Y11300   4.956   0.561   3.067 -0.7782 -1.1962  0.1519
  109SAPE   C3511301   5.166   0.497   3.105  0.1285 -0.6516  0.4101
  109SAPE   H5X11302   5.185   0.607   3.113 -0.6982 -0.5049  0.3709
  109SAPE   H5Y11303   5.250   0.442   3.057 -2.5592 -3.2124 -1.6410
  109SAPE   C3611304   5.155   0.456   3.255  0.0294 -0.7222 -0.6009
  109SAPE   H6X11305   5.127   0.349   3.265 -1.8442 -0.2389 -0.2839
  109SAPE   H6Y11306   5.074   0.512   3.306 -0.8057 -1.5551 -1.0015
  109SAPE   C3711307   5.274   0.504   3.345 -0.3722  0.4158 -0.6490
  109SAPE   H7X11308   5.284   0.613   3.327 -3.2819  0.5224 -2.2372
  109SAPE   H7Y11309   5.370   0.455   3.316 -0.2164 -1.1613  2.2065
  109SAPE   C3811310   5.236   0.470   3.495 -0.1646  0.1664  0.2186
  109SAPE   H8X11311   5.329   0.488   3.553 -0.1295  0.4590  0.0724
  109SAPE   H8Y11312   5.219   0.361   3.485 -0.6953  0.1608  1.0668
  109SAPE   C3911313   5.122   0.562   3.552  0.1996  0.8650  0.7726
  109SAPE   H9X11314   5.025   0.527   3.512  0.5012  0.3092  0.5036
  109SAPE   H9Y11315   5.147   0.667   3.526  3.1961 -0.0914 -0.8213
  109SAPE  C31011316   5.125   0.555   3.707 -0.1779  0.2177  0.2725
  109SAPE  H10X11317   5.105   0.655   3.751 -0.6526  0.2492 -0.0032
  109SAPE  H10Y11318   5.217   0.509   3.749 -0.5765  0.4454  1.4341
  109SAPE  C31111319   5.015   0.465   3.762  0.1920 -0.1996  0.7284
  109SAPE  H11X11320   5.012   0.382   3.689 -0.4272  1.1420 -0.8071
  109SAPE  H11Y11321   4.916   0.511   3.743  0.9764  0.6176 -1.8278
  109SAPE  C31211322   5.024   0.420   3.910  0.2341  0.9295 -0.9413
  109SAPE  H12X11323   5.121   0.369   3.932 -0.8527 -0.4232  1.1262
  109SAPE  H12Y11324   4.954   0.337   3.935  0.4804  1.0825  0.3625
  109SAPE  C31311325   5.006   0.537   4.011 -0.2151 -0.5215  0.4255
  109SAPE  H13X11326   4.935   0.607   3.962  1.5271 -0.6326 -2.4964
  109SAPE  H13Y11327   5.099   0.598   4.019  0.1841 -0.3848 -3.2588
  109SAPE  C31411328   4.968   0.494   4.150 -0.0828 -0.2845 -0.4665
  109SAPE  H14X11329   5.055   0.437   4.189 -0.4494  0.1516  1.0573
  109SAPE  H14Y11330   4.870   0.441   4.151 -0.1144 -0.2425 -1.2479
  109SAPE  C31511331   4.928   0.609   4.248  0.0655  0.2936  0.3908
  109SAPE  H15X11332   4.837   0.655   4.204 -0.6973 -1.5561 -0.0942
  109SAPE  H15Y11333   5.015   0.677   4.254  1.2932 -1.0101 -1.3792
  109SAPE  C31611334   4.890   0.548   4.386 -0.0061 -0.0340  0.1541
  109SAPE  H16X11335   4.804   0.479   4.381  0.7647 -0.9467 -1.4719
  109SAPE  H16Y11336   4.861   0.630   4.455  0.6330  0.7685 -0.5053
  109SAPE  C31711337   4.986   0.464   4.475 -0.1238 -0.4362  1.2149
  109SAPE  H17X11338   5.081   0.522   4.478 -1.0521  1.4749 -1.9653
  109SAPE  H17Y11339   5.009   0.371   4.418  2.9282  0.8119  0.1976
  109SAPE  C31811340   4.939   0.425   4.614  0.4566 -0.5600 -0.1199
  109SAPE  H18X11341   5.009   0.387   4.691  2.4291  2.1309 -0.4258
  109SAPE  H18Y11342   4.855   0.353   4.618 -1.0795  1.1172 -0.8248
  109SAPE  H18Z11343   4.900   0.516   4.663 -0.2010 -1.0021  0.1841
  110SAPE     N11344   4.690   5.350   2.177  0.1632 -0.1542  0.1291
  110SAPE   HN111345   4.705   5.445   2.138  1.2728 -0.2962  0.1880
  110SAPE   HN211346   4.766   5.297   2.130  0.9986  0.2878  0.9551
  110SAPE   HN311347   4.599   5.314   2.140  0.4875  0.3491 -1.1931
  110SAPE   C1211348   4.698   5.351   2.324  0.1445  0.7480 -0.7340
  110SAPE  H12A11349   4.593   5.366   2.354  1.1573  1.5103  2.9058
  110SAPE  H12B11350   4.763   5.431   2.365  0.1150  0.3013  0.1955
  110SAPE   C1111351   4.743   5.214   2.377  0.4688 -0.1226 -0.3204
  110SAPE  H11A11352   4.732   5.225   2.487  2.4587  0.5738 -0.1490
  110SAPE  H11B11353   4.848   5.206   2.341 -0.2130  0.0770 -2.4519
  110SAPE     P11354   4.690   4.958   2.333 -0.0407 -0.0628  0.0461
  110SAPE   O1311355   4.644   4.894   2.206  0.0449  0.0880  0.1418
  110SAPE   O1411356   4.834   4.938   2.368 -0.2322 -0.3816  0.4188
  110SAPE   O1211357   4.664   5.110   2.319  0.0179  0.2324  0.2656
  110SAPE   O1111358   4.609   4.915   2.456  0.4679 -0.3508  0.5905
  110SAPE    C111359   4.602   4.981   2.585 -0.2862 -0.2645 -0.4977
  110SAPE    HA11360   4.703   5.012   2.621 -0.7456 -0.5951  1.1634
  110SAPE    HB11361   4.539   5.072   2.585 -0.0194  0.1007  3.4567
  110SAPE    C211362   4.540   4.875   2.685 -0.4238 -0.4540  0.0244
  110SAPE    HS11363   4.456   4.820   2.635 -0.0384  1.0863 -2.5167
  110SAPE   O2111364   4.502   4.928   2.814  0.2083 -0.0467  0.0931
  110SAPE   C2111365   4.399   4.999   2.801 -0.1819  0.0125  0.2595
  110SAPE   O2211366   4.333   5.006   2.697  0.4824  0.2235 -0.3775
  110SAPE   C2211367   4.369   5.085   2.925  0.4642  0.0279  0.0857
  110SAPE   H2R11368   4.393   5.019   3.011  2.0551 -1.1057 -1.1494
  110SAPE   H2S11369   4.439   5.171   2.925  1.6809 -0.9277 -0.2202
  110SAPE    C311370   4.644   4.766   2.700  0.4004 -0.3867  0.0864
  110SAPE    HX11371   4.654   4.727   2.596 -2.0255  1.1221 -0.8226
  110SAPE    HY11372   4.742   4.803   2.734 -0.5792  0.8879  1.6357
  110SAPE   O3111373   4.607   4.662   2.789 -0.4113 -0.0760 -0.5318
  110SAPE   C3111374   4.679   4.639   2.895 -0.1315 -0.3448 -0.6816
  110SAPE   O3211375   4.781   4.690   2.928  0.6574 -0.3932  0.1334
  110SAPE   C3211376   4.598   4.538   2.974 -0.0416 -0.5182  0.2751
  110SAPE   H2X11377   4.603   4.442   2.918 -2.9929 -0.4020 -0.3241
  110SAPE   H2Y11378   4.489   4.554   2.962 -0.1658 -1.6175 -0.2631
  110SAPE   C2311379   4.218   5.121   2.945 -0.0683 -0.5012 -0.0335
  110SAPE   H3R11380   4.152   5.036   2.917 -1.4977 -0.0938  1.8936
  110SAPE   H3S11381   4.191   5.202   2.873  0.8619  1.1862  1.4379
  110SAPE   C2411382   4.177   5.165   3.087  0.2420  0.1967 -0.2202
  110SAPE   H4R11383   4.225   5.085   3.147 -1.5166 -4.6117 -4.4699
  110SAPE   H4S11384   4.069   5.155   3.108  0.0707  1.1871 -0.5846
  110SAPE   C2511385   4.226   5.301   3.120 -0.2837 -0.7275  0.2845
  110SAPE   H5R11386   4.229   5.377   3.041 -1.5900 -0.4862  0.4523
  110SAPE   C2611387   4.287   5.339   3.235  0.0329  0.1785 -0.2541
  110SAPE   H6R11388   4.313   5.444   3.252  1.0817  0.3268 -2.5014
  110SAPE   C2711389   4.328   5.255   3.351  0.1145  0.1318 -0.3188
  110SAPE   H7R11390   4.328   5.148   3.321  1.3607 -0.1628  0.6364
  110SAPE   H7S11391   4.246   5.258   3.426  2.3233  2.8172  2.2154
  110SAPE   C2811392   4.447   5.296   3.426 -0.2289 -0.6673  0.3965
  110SAPE   H8R11393   4.517   5.362   3.372 -2.3361  2.2537  0.9456
  110SAPE   C2911394   4.470   5.275   3.554  0.8480 -0.2493 -0.1007
  110SAPE   H9R11395   4.561   5.322   3.594  0.8863 -1.0762  0.8167
  110SAPE  C21011396   4.365   5.207   3.642 -0.1230  0.0255 -0.3239
  110SAPE  H10R11397   4.300   5.136   3.588 -0.0799  0.8925 -1.5445
  110SAPE  H10S11398   4.306   5.289   3.687  1.7984  0.5175  1.4595
  110SAPE  C21111399   4.429   5.121   3.749  0.0854 -0.3797 -0.0649
  110SAPE  H11R11400   4.442   5.015   3.725 -1.1122 -0.7033  0.6271
  110SAPE  C21211401   4.458   5.166   3.874 -0.3242  0.0127  0.2458
  110SAPE  H12R11402   4.519   5.104   3.942  1.5186  1.2142 -0.2182
  110SAPE  C21311403   4.427   5.305   3.933 -0.6256  0.5060  0.3303
  110SAPE  H13R11404   4.416   5.383   3.855  1.5821 -1.3406 -2.0192
  110SAPE  H13S11405   4.512   5.332   3.999 -0.4635 -2.6820  1.6045
  110SAPE  C21411406   4.307   5.293   4.017 -0.1077  0.1678 -0.3422
  110SAPE  H14R11407   4.220   5.259   3.959 -0.4571  1.1021 -0.3751
  110SAPE  C21511408   4.301   5.317   4.150  0.4872 -0.8004 -0.1733
  110SAPE  H15R11409   4.208   5.295   4.202 -0.0988 -0.0003 -0.8440
  110SAPE  C21611410   4.412   5.368   4.243  0.6202 -0.2495  0.6329
  110SAPE  H16R11411   4.375   5.457   4.298  0.0574  0.3394 -0.6640
  110SAPE  H16S11412   4.498   5.410   4.187 -0.9150  2.5428  0.2023
  110SAPE  C21711413   4.451   5.275   4.350  0.1694  0.6423 -0.2480
  110SAPE  H17R11414   4.538   5.323   4.400  1.4130 -0.5282 -1.2369
  110SAPE  H17S11415   4.487   5.175   4.317 -0.7585 -0.3330  1.4885
  110SAPE  C21811416   4.335   5.275   4.455 -0.2316  0.5414 -0.1800
  110SAPE  H18R11417   4.244   5.229   4.409 -0.6261 -1.9010  2.7425
  110SAPE  H18S11418   4.323   5.377   4.499 -2.8418  0.7785 -1.2217
  110SAPE  C21911419   4.378   5.187   4.574  0.1487 -0.2984 -0.0952
  110SAPE  H19R11420   4.468   5.218   4.631  1.5449 -1.6686 -1.4692
  110SAPE  H19S11421   4.400   5.087   4.531  2.1655  0.1923 -0.3191
  110SAPE  C22011422   4.267   5.168   4.678  0.0502  0.8653  1.3855
  110SAPE  H20R11423   4.282   5.079   4.744 -0.8432 -1.2638 -1.0977
  110SAPE  H20S11424   4.173   5.147   4.622  0.9670  1.9789 -0.6946
  110SAPE  H20T11425   4.248   5.265   4.728 -0.7066  1.9723 -0.8859
  110SAPE   C3311426   4.643   4.520   3.117 -0.0044 -0.3414  0.2439
  110SAPE   H3X11427   4.629   4.614   3.174  2.6848 -0.2716  0.9193
  110SAPE   H3Y11428   4.752   4.502   3.130  0.2869  0.2819 -1.1772
  110SAPE   C3411429   4.561   4.401   3.180  0.4368 -0.0487 -0.8399
  110SAPE   H4X11430   4.617   4.305   3.188  1.0501  0.4790  3.3186
  110SAPE   H4Y11431   4.474   4.376   3.116  0.0542 -1.4192  0.1686
  110SAPE   C3511432   4.496   4.437   3.309  0.6040 -0.2610 -0.5502
  110SAPE   H5X11433   4.410   4.506   3.299  1.2651  1.1369  2.3479
  110SAPE   H5Y11434   4.568   4.496   3.369 -0.2391  0.2158  0.0201
  110SAPE   C3611435   4.444   4.315   3.383 -0.4717 -0.1495  0.6840
  110SAPE   H6X11436   4.536   4.256   3.402  0.1095 -0.0700 -1.6107
  110SAPE   H6Y11437   4.375   4.250   3.325  0.7683 -2.1541  1.3468
  110SAPE   C3711438   4.378   4.349   3.522  0.3401  0.5293 -0.0478
  110SAPE   H7X11439   4.436   4.434   3.563 -0.5829  0.6413  1.0646
  110SAPE   H7Y11440   4.379   4.266   3.596  0.4795  0.0907 -0.5328
  110SAPE   C3811441   4.228   4.400   3.503  0.0743  0.2706  0.8169
  110SAPE   H8X11442   4.176   4.310   3.464 -0.0950 -0.1362  1.9412
  110SAPE   H8Y11443   4.222   4.471   3.417  0.8355 -0.8227 -0.1765
  110SAPE   C3911444   4.175   4.465   3.631  0.5453  0.3652  0.3549
  110SAPE   H9X11445   4.083   4.514   3.593 -1.9515 -4.4100 -0.5564
  110SAPE   H9Y11446   4.252   4.533   3.674  1.9001 -1.2704  0.6286
  110SAPE  C31011447   4.132   4.352   3.724 -0.6230 -0.2736 -0.2776
  110SAPE  H10X11448   4.222   4.290   3.744 -0.6167 -0.3532 -0.5495
  110SAPE  H10Y11449   4.064   4.290   3.662  2.4051 -1.8560 -2.2479
  110SAPE  C31111450   4.059   4.405   3.844  0.1867  0.3271 -0.3550
  110SAPE  H11X11451   4.007   4.501   3.822 -2.2584  0.3906  4.4163
  110SAPE  H11Y11452   4.139   4.438   3.914  0.9961  0.6764 -1.4189
  110SAPE  C31211453   3.948   4.315   3.898  0.3771  0.5560 -0.3427
  110SAPE  H12X11454   3.886   4.268   3.819 -1.1097  1.5717  0.1816
  110SAPE  H12Y11455   3.874   4.374   3.956 -0.7210 -0.4419 -0.7040
  110SAPE  C31311456   4.003   4.201   3.992 -0.0471  0.7567  0.8983
  110SAPE  H13X11457   4.072   4.250   4.065  0.8925  2.3674 -0.9756
  110SAPE  H13Y11458   4.065   4.142   3.921  2.6212  3.4021  0.8276
  110SAPE  C31411459   3.893   4.109   4.047 -0.0768  0.1311 -0.9121
  110SAPE  H14X11460   3.825   4.075   3.966 -0.5995 -0.8088 -0.0918
  110SAPE  H14Y11461   3.838   4.164   4.126  1.7982  0.3242  0.3062
  110SAPE  C31511462   3.955   3.982   4.114  0.1275 -0.1654 -0.0977
  110SAPE  H15X11463   4.043   4.020   4.171 -0.2083  0.1981  0.1841
  110SAPE  H15Y11464   3.979   3.918   4.027  0.3186 -0.9836  0.5390
  110SAPE  C31611465   3.863   3.907   4.203  0.6165 -0.0565 -0.0119
  110SAPE  H16X11466   3.780   3.875   4.136  2.7591  0.2789 -3.0201
  110SAPE  H16Y11467   3.829   3.970   4.288  0.3030  1.5189 -1.2633
  110SAPE  C31711468   3.934   3.789   4.266 -0.6175  0.0029 -0.4433
  110SAPE  H17X11469   4.008   3.827   4.339  0.9670 -2.6519 -0.5171
  110SAPE  H17Y11470   4.002   3.727   4.203 -0.7452  0.0974 -0.6752
  110SAPE  C31811471   3.851   3.687   4.349 -0.4327 -0.0770  0.0021
  110SAPE  H18X11472   3.782   3.732   4.423 -0.6021 -0.3211 -0.0068
  110SAPE  H18Y11473   3.924   3.626   4.406  0.8955  0.5582 -0.9622
  110SAPE  H18Z11474   3.792   3.621   4.282 -0.7664  1.6746 -1.5533
  111SAPE     N11475   4.655   0.018   2.319 -0.8936 -0.5571 -0.7656
  111SAPE   HN111476   4.669   0.108   2.370 -0.8708 -0.0537 -1.6301
  111SAPE   HN211477   4.569  -0.023   2.361  0.1823 -1.5916  0.5270
  111SAPE   HN311478   4.732  -0.050   2.333  0.0041  0.5239 -0.3693
  111SAPE   C1211479   4.639   0.044   2.169  0.5112 -0.4583  0.2925
  111SAPE  H12A11480   4.728   0.105   2.143 -0.4287  0.8078 -0.0771
  111SAPE  H12B11481   4.548   0.106   2.155  0.9097  0.2905  0.9544
  111SAPE   C1111482   4.628  -0.102   2.098 -0.1512 -0.5448  0.6753
  111SAPE  H11A11483   4.732  -0.143   2.104  0.0029 -0.6211 -1.7675
  111SAPE  H11B11484   4.581  -0.086   1.999 -2.4930  0.4067  1.8624
  111SAPE     P11485   4.383  -0.173   2.184 -0.3644 -0.0040  0.0442
  111SAPE   O1311486   4.327  -0.099   2.066  0.4946 -0.3636  0.0266
  111SAPE   O1411487   4.326  -0.308   2.215  0.1648 -0.2057  0.0171
  111SAPE   O1211488   4.539  -0.191   2.172 -0.3037 -0.0081  0.2245
  111SAPE   O1111489   4.384  -0.081   2.309 -0.1406  0.4875  0.0285
  111SAPE    C111490   4.263  -0.017   2.349  0.1468  0.2567  0.2635
  111SAPE    HA11491   4.252   0.074   2.287 -4.0583 -0.8925 -0.9745
  111SAPE    HB11492   4.173  -0.082   2.347 -1.4389  2.3858 -0.8818
  111SAPE    C211493   4.260   0.042   2.496 -0.0208  0.9188  0.9066
  111SAPE    HS11494   4.336   0.120   2.520 -2.0186  2.9399  1.0716
  111SAPE   O2111495   4.274  -0.058   2.597 -0.0918  0.6044  0.4468
  111SAPE   C2111496   4.399  -0.111   2.620  0.5125 -1.0245  0.1904
  111SAPE   O2211497   4.502  -0.066   2.573  0.6053 -0.1990  0.1819
  111SAPE   C2211498   4.379  -0.248   2.698 -0.5231 -0.0527  0.1459
  111SAPE   H2R11499   4.299  -0.238   2.775 -2.1454 -2.6334 -1.0423
  111SAPE   H2S11500   4.348  -0.316   2.615 -1.7314 -1.3156  1.5720
  111SAPE    C311501   4.128   0.122   2.514  0.4116 -0.5015 -0.0204
  111SAPE    HX11502   4.045   0.052   2.493 -1.3437  1.3056  0.5779
  111SAPE    HY11503   4.117   0.197   2.433  0.4918 -0.8725 -0.3784
  111SAPE   O3111504   4.105   0.187   2.638 -0.4412 -0.0881 -0.2210
  111SAPE   C3111505   4.045   0.111   2.726  0.6838  0.5707  0.0271
  111SAPE   O3211506   4.019  -0.011   2.715  0.3984 -0.8939 -0.1473
  111SAPE   C3211507   3.990   0.191   2.843 -0.0662 -0.4354  0.0477
  111SAPE   H2X11508   3.888   0.205   2.801  0.7434  1.7524 -1.3904
  111SAPE   H2Y11509   4.052   0.283   2.855 -0.8944  0.1440  0.0402
  111SAPE   C2311510   4.510  -0.300   2.766 -0.2227 -0.1097 -0.7321
  111SAPE   H3R11511   4.595  -0.288   2.696  0.3612  2.0679  0.2589
  111SAPE   H3S11512   4.507  -0.409   2.783 -0.6251  0.1043  0.6884
  111SAPE   C2411513   4.550  -0.215   2.888  0.2028  0.7878 -0.2749
  111SAPE   H4R11514   4.562  -0.110   2.853  1.9708  0.9833  0.8361
  111SAPE   H4S11515   4.644  -0.251   2.935  0.4191 -0.2351 -1.4260
  111SAPE   C2511516   4.448  -0.216   3.001  0.3126 -0.1995  0.1051
  111SAPE   H5R11517   4.348  -0.178   2.978  1.0286  1.5255 -0.3385
  111SAPE   C2611518   4.452  -0.271   3.121  0.1872  0.1980  0.5774
  111SAPE   H6R11519   4.362  -0.270   3.184  0.8381 -2.3579  1.6923
  111SAPE   C2711520   4.566  -0.343   3.196  0.3929 -0.4892 -0.2199
  111SAPE   H7R11521   4.608  -0.418   3.125 -1.4907  0.7856 -2.8718
  111SAPE   H7S11522   4.514  -0.400   3.276  2.2052  1.6745  2.7062
  111SAPE   C2811523   4.673  -0.258   3.250  0.1697 -0.0475  0.2245
  111SAPE   H8R11524   4.676  -0.153   3.217  2.5403 -0.4472 -1.0771
  111SAPE   C2911525   4.759  -0.294   3.345  0.4236 -0.1293 -0.0986
  111SAPE   H9R11526   4.838  -0.220   3.362 -1.4825  1.8685  0.5993
  111SAPE  C21011527   4.772  -0.432   3.407 -0.4025 -0.2527  0.3551
  111SAPE  H10R11528   4.881  -0.437   3.429 -0.3610 -0.3562  0.1255
  111SAPE  H10S11529   4.748  -0.510   3.332 -0.5903  0.4961 -0.3794
  111SAPE  C21111530   4.687  -0.454   3.528 -0.0734  0.1239  0.1197
  111SAPE  H11R11531   4.593  -0.506   3.504  1.6168 -3.6427  0.8386
  111SAPE  C21211532   4.710  -0.405   3.654  0.7822 -0.2772  0.5862
  111SAPE  H12R11533   4.635  -0.425   3.732  1.9120  1.6062  2.2307
  111SAPE  C21311534   4.835  -0.339   3.701 -0.0910  0.2317  0.3448
  111SAPE  H13R11535   4.810  -0.232   3.714  0.3218  0.4492 -0.5676
  111SAPE  H13S11536   4.912  -0.332   3.621  0.6999  0.1318  1.0923
  111SAPE  C21411537   4.910  -0.388   3.819 -0.4431  0.4406  0.3324
  111SAPE  H14R11538   5.005  -0.440   3.800 -0.3789  0.0904  1.4963
  111SAPE  C21511539   4.880  -0.357   3.948  0.5705  0.1657  0.2529
  111SAPE  H15R11540   4.947  -0.380   4.032  1.4763 -0.8994 -0.7364
  111SAPE  C21611541   4.762  -0.279   4.004 -0.5602 -0.0126  0.1039
  111SAPE  H16R11542   4.720  -0.337   4.089  3.3783 -0.3653  2.0308
  111SAPE  H16S11543   4.689  -0.267   3.921 -0.7501 -1.1426  0.0940
  111SAPE  C21711544   4.807  -0.139   4.058 -0.1773 -0.1571  0.2730
  111SAPE  H17R11545   4.719  -0.073   4.065  0.9307  1.2680  1.4862
  111SAPE  H17S11546   4.874  -0.082   3.990 -0.1154 -0.8942 -0.2946
  111SAPE  C21811547   4.875  -0.161   4.192 -1.1553 -0.2461 -0.3418
  111SAPE  H18R11548   4.966  -0.224   4.176 -0.8072  0.3876 -0.9279
  111SAPE  H18S11549   4.805  -0.199   4.270 -0.1296  1.4651  1.5055
  111SAPE  C21911550   4.913  -0.022   4.255  0.1275 -1.2541  0.4787
  111SAPE  H19R11551   4.967   0.033   4.175 -0.8250  0.5018  0.9742
  111SAPE  H19S11552   4.974  -0.032   4.348  1.1291 -2.7885 -0.3058
  111SAPE  C22011553   4.782   0.052   4.301  0.3835 -0.2280 -0.0141
  111SAPE  H20R11554   4.704  -0.007   4.353  0.1771 -0.0043 -0.0620
  111SAPE  H20S11555   4.719   0.094   4.219  0.7517  0.5260  0.0708
  111SAPE  H20T11556   4.807   0.141   4.364  0.9058  0.7417 -1.5154
  111SAPE   C3311557   3.999   0.108   2.974  0.4023 -0.8076 -0.6498
  111SAPE   H3X11558   4.097   0.056   2.981  0.8359  0.1573  0.8920
  111SAPE   H3Y11559   3.915   0.036   2.972  0.9493 -1.4580 -1.2839
  111SAPE   C3411560   4.000   0.189   3.105  0.5036 -0.2298 -0.1447
  111SAPE   H4X11561   3.903   0.243   3.117  0.4119 -0.1906 -1.0165
  111SAPE   H4Y11562   4.089   0.254   3.118 -0.4796  1.1324 -0.0144
  111SAPE   C3511563   3.994   0.105   3.229  0.1012 -1.0597 -0.3115
  111SAPE   H5X11564   4.098   0.079   3.255  0.9568 -0.2379 -2.6675
  111SAPE   H5Y11565   3.930   0.019   3.199 -0.7656 -0.4798 -0.1706
  111SAPE   C3611566   3.902   0.162   3.343  0.2958  0.3553  0.9631
  111SAPE   H6X11567   3.806   0.202   3.303  0.1252 -0.3473  0.6562
  111SAPE   H6Y11568   3.951   0.247   3.395  0.1039  0.2098  1.3916
  111SAPE   C3711569   3.876   0.066   3.446  0.3191  0.4600 -0.9836
  111SAPE   H7X11570   3.969   0.077   3.505 -0.8693 -0.3308  1.1677
  111SAPE   H7Y11571   3.860  -0.042   3.427 -1.2114  0.6074 -0.6687
  111SAPE   C3811572   3.762   0.118   3.544 -0.1766  0.0004  1.0347
  111SAPE   H8X11573   3.662   0.098   3.498 -0.1063  0.3462  0.7243
  111SAPE   H8Y11574   3.775   0.228   3.557  0.0181  0.0412  0.5283
  111SAPE   C3911575   3.770   0.044   3.682  0.7215  0.6224 -1.1146
  111SAPE   H9X11576   3.867   0.062   3.734 -0.1859  1.1190  0.4720
  111SAPE   H9Y11577   3.761  -0.066   3.670  1.0596  0.4211  0.2703
  111SAPE  C31011578   3.651   0.086   3.767 -0.1457 -0.3503  0.2165
  111SAPE  H10X11579   3.552   0.047   3.734 -0.3510  0.0208  0.3847
  111SAPE  H10Y11580   3.650   0.197   3.771  1.2989 -0.2947 -0.3798
  111SAPE  C31111581   3.665   0.029   3.908  0.0769 -0.5439 -0.1948
  111SAPE  H11X11582   3.766   0.062   3.942 -0.5629  2.5380 -0.9837
  111SAPE  H11Y11583   3.669  -0.081   3.897  0.0206 -0.5294 -0.3504
  111SAPE  C31211584   3.554   0.085   3.996  0.2290 -0.1697  0.2516
  111SAPE  H12X11585   3.462   0.041   3.951 -1.0069  2.4882 -0.0214
  111SAPE  H12Y11586   3.541   0.195   3.987  1.0612 -0.1385 -0.6068
  111SAPE  C31311587   3.572   0.040   4.142  0.5252  0.3985  0.8037
  111SAPE  H13X11588   3.670   0.079   4.175  0.1752  0.7725  1.4138
  111SAPE  H13Y11589   3.572  -0.070   4.125 -0.2771  0.1397  2.3456
  111SAPE  C31411590   3.458   0.074   4.236 -0.6389  0.0388 -0.1952
  111SAPE  H14X11591   3.466   0.179   4.273 -2.9071  0.3249 -0.3962
  111SAPE  H14Y11592   3.467   0.009   4.326 -2.0773  0.7141  0.4630
  111SAPE  C31511593   3.319   0.060   4.171 -0.4166  0.3604 -0.2519
  111SAPE  H15X11594   3.319  -0.034   4.113  1.1899 -1.1229  1.9999
  111SAPE  H15Y11595   3.305   0.143   4.098  2.0365  0.8687 -0.2198
  111SAPE  C31611596   3.201   0.054   4.259  0.0631  0.1229 -0.4103
  111SAPE  H16X11597   3.102   0.066   4.209 -0.8848 -2.5914  0.6186
  111SAPE  H16Y11598   3.210   0.148   4.318  0.5501 -0.2633  0.1381
  111SAPE  C31711599   3.203  -0.077   4.349  0.7073 -0.2608  0.3810
  111SAPE  H17X11600   3.307  -0.088   4.386  2.0564  2.3869 -2.1927
  111SAPE  H17Y11601   3.188  -0.169   4.288  2.1351 -0.1057 -0.2244
  111SAPE  C31811602   3.106  -0.070   4.463 -0.0897  0.4271 -0.4156
  111SAPE  H18X11603   3.106  -0.162   4.525  2.0144  1.5646  1.4454
  111SAPE  H18Y11604   3.004  -0.068   4.419 -1.9087 -0.0678  3.4233
  111SAPE  H18Z11605   3.130   0.008   4.539  1.1014 -1.4624  1.2216
  112SAPE     N11606   1.867   5.973   1.667 -0.1759  0.5108  0.3056
  112SAPE   HN111607   1.891   6.063   1.621  2.2327  0.4406  1.2482
  112SAPE   HN211608   1.947   5.933   1.721  1.0681  0.8137 -1.2345
  112SAPE   HN311609   1.849   5.902   1.594  2.3336 -0.8411  0.8761
  112SAPE   C1211610   1.744   6.000   1.751 -0.7498  0.6543  0.3621
  112SAPE  H12A11611   1.667   6.033   1.678 -2.3902  0.1361  1.8086
  112SAPE  H12B11612   1.768   6.068   1.835  1.5113  1.6215 -0.9626
  112SAPE   C1111613   1.689   5.861   1.804 -0.4750 -0.3017  0.8616
  112SAPE  H11A11614   1.657   5.798   1.718 -1.9572  2.7647 -1.0507
  112SAPE  H11B11615   1.597   5.888   1.861 -0.5244  2.7411 -0.4261
  112SAPE     P11616   1.757   5.669   1.953 -0.5665  0.0682  0.4810
  112SAPE   O1311617   1.694   5.576   1.854 -0.0766 -0.1325 -0.4197
  112SAPE   O1411618   1.892   5.637   2.001  0.1034  0.0660 -0.4439
  112SAPE   O1211619   1.785   5.808   1.890 -0.2877  0.0517  0.1375
  112SAPE   O1111620   1.656   5.696   2.071 -0.3278 -0.0229 -0.2070
  112SAPE    C111621   1.700   5.713   2.213  0.4618 -0.4286  0.2743
  112SAPE    HA11622   1.776   5.793   2.227 -0.1662  0.2894 -0.3102
  112SAPE    HB11623   1.615   5.752   2.273 -0.3666 -0.8994 -0.5657
  112SAPE    C211624   1.751   5.585   2.284 -0.1619  0.5313 -0.3244
  112SAPE    HS11625   1.840   5.542   2.234  1.3805 -1.0729  3.4274
  112SAPE   O2111626   1.647   5.488   2.264  0.2088 -0.6736 -0.0560
  112SAPE   C2111627   1.684   5.363   2.288  1.1991  0.6895  0.1186
  112SAPE   O2211628   1.796   5.315   2.286  0.2625 -0.7357  0.0452
  112SAPE   C2211629   1.560   5.278   2.316 -0.3792 -0.1668  0.8412
  112SAPE   H2R11630   1.506   5.329   2.398 -0.6694  2.1918 -0.7190
  112SAPE   H2S11631   1.487   5.291   2.233  1.2824 -0.7521 -0.7931
  112SAPE    C311632   1.794   5.598   2.431 -0.4332 -0.5378 -0.1612
  112SAPE    HX11633   1.881   5.667   2.429 -2.5903  2.4630 -2.8205
  112SAPE    HY11634   1.821   5.500   2.476  1.1855 -0.1590 -0.2476
  112SAPE   O3111635   1.687   5.656   2.503 -0.1550 -0.3355  0.0400
  112SAPE   C3111636   1.695   5.781   2.538  0.1036 -0.1809 -0.5701
  112SAPE   O3211637   1.789   5.856   2.535 -0.2140  0.5889 -0.1705
  112SAPE   C3211638   1.566   5.800   2.617 -0.4562  0.3070 -0.6757
  112SAPE   H2X11639   1.549   5.708   2.677 -1.9138 -0.0251 -1.5437
  112SAPE   H2Y11640   1.479   5.804   2.547 -1.9168 -0.3219  1.0203
  112SAPE   C2311641   1.590   5.129   2.335 -0.5032  1.0474 -0.3292
  112SAPE   H3R11642   1.660   5.089   2.258  1.3003  2.4244  0.5377
  112SAPE   H3S11643   1.493   5.075   2.328  0.0173  0.2798 -3.3928
  112SAPE   C2411644   1.669   5.107   2.464 -0.2946  0.0963 -0.1842
  112SAPE   H4R11645   1.752   5.181   2.458  0.4813 -0.7897 -0.7322
  112SAPE   H4S11646   1.727   5.013   2.455  0.5896  0.7055 -1.1361
  112SAPE   C2511647   1.574   5.123   2.584  0.1928  0.2968 -0.3379
  112SAPE   H5R11648   1.515   5.034   2.610 -0.7219  1.9084  3.9977
  112SAPE   C2611649   1.549   5.226   2.668 -0.5339  0.3339 -0.0334
  112SAPE   H6R11650   1.489   5.208   2.758  0.0415  1.5656  0.6152
  112SAPE   C2711651   1.628   5.359   2.653 -0.0142 -0.3176 -0.3960
  112SAPE   H7R11652   1.568   5.451   2.666 -0.4834 -0.9555  2.7537
  112SAPE   H7S11653   1.659   5.371   2.547  0.4214 -0.5028 -0.2883
  112SAPE   C2811654   1.749   5.357   2.744 -0.0571  0.5984 -0.3292
  112SAPE   H8R11655   1.841   5.318   2.699 -2.3336 -5.0190 -0.9033
  112SAPE   C2911656   1.747   5.426   2.863 -0.0177  0.8624  0.2330
  112SAPE   H9R11657   1.839   5.422   2.923  0.0796 -0.1348  0.0336
  112SAPE  C21011658   1.615   5.465   2.923 -0.0972 -0.3968  0.6228
  112SAPE  H10R11659   1.540   5.387   2.900  2.1996 -3.4453  2.5715
  112SAPE  H10S11660   1.587   5.561   2.874 -0.0882 -1.2670 -1.1719
  112SAPE  C21111661   1.621   5.495   3.073  0.6116  0.1543  0.1141
  112SAPE  H11R11662   1.625   5.603   3.097 -0.3034  0.1888  0.1700
  112SAPE  C21211663   1.615   5.415   3.182  0.0581  0.4783  0.1685
  112SAPE  H12R11664   1.614   5.453   3.285 -0.0536  0.2155  0.2641
  112SAPE  C21311665   1.589   5.267   3.183  1.1922  0.1190  0.7658
  112SAPE  H13R11666   1.667   5.213   3.241  1.5807 -0.9987 -0.7344
  112SAPE  H13S11667   1.596   5.236   3.076 -0.9719 -1.0818  0.9106
  112SAPE  C21411668   1.448   5.245   3.225  0.2418 -0.4099 -0.6379
  112SAPE  H14R11669   1.371   5.280   3.154 -1.3040  3.2505  2.4758
  112SAPE  C21511670   1.414   5.239   3.353 -0.0294 -0.1985 -0.4861
  112SAPE  H15R11671   1.306   5.227   3.372  0.0210 -1.6018 -0.9783
  112SAPE  C21611672   1.497   5.211   3.471 -0.3971  0.0891  0.1361
  112SAPE  H16R11673   1.561   5.124   3.448  0.1948  0.7100 -0.6217
  112SAPE  H16S11674   1.421   5.172   3.543 -0.4534  2.0307  1.2154
  112SAPE  C21711675   1.583   5.322   3.530  0.6091 -0.5644  0.0589
  112SAPE  H17R11676   1.650   5.380   3.464  0.8564  0.3268  1.0737
  112SAPE  H17S11677   1.642   5.274   3.611  0.0022 -0.8917  0.3166
  112SAPE  C21811678   1.483   5.413   3.600  0.2793  0.9652 -0.3403
  112SAPE  H18R11679   1.414   5.349   3.659 -0.5661  0.1879 -2.1047
  112SAPE  H18S11680   1.423   5.473   3.528  0.6047  0.4528 -1.0533
  112SAPE  C21911681   1.549   5.515   3.691 -0.4616 -0.2355 -0.3849
  112SAPE  H19R11682   1.481   5.589   3.737 -1.5629 -1.4911  0.0658
  112SAPE  H19S11683   1.622   5.575   3.632 -0.6652  0.0438 -0.3532
  112SAPE  C22011684   1.606   5.445   3.820 -0.1342 -0.0298  0.2170
  112SAPE  H20R11685   1.702   5.394   3.800 -0.2175  0.4784 -1.6451
  112SAPE  H20S11686   1.529   5.372   3.854 -1.0996 -0.2798 -2.3210
  112SAPE  H20T11687   1.617   5.523   3.899 -2.0536  0.2442  0.2596
  112SAPE   C3311688   1.572   5.919   2.720  0.5689 -0.0248  0.6321
  112SAPE   H3X11689   1.471   5.944   2.760 -0.6478 -3.5303  0.1152
  112SAPE   H3Y11690   1.607   6.010   2.667 -0.6008 -1.6829 -3.3011
  112SAPE   C3411691   1.654   5.878   2.845  0.4470 -0.4308 -0.0852
  112SAPE   H4X11692   1.758   5.856   2.816 -0.2617 -1.2150 -2.2142
  112SAPE   H4Y11693   1.603   5.803   2.909 -4.4609  2.9692  0.5554
  112SAPE   C3511694   1.661   5.995   2.951  0.3106 -0.4563 -0.0097
  112SAPE   H5X11695   1.561   6.033   2.981  0.3653 -1.2711  1.2976
  112SAPE   H5Y11696   1.724   6.079   2.914  0.3605  0.1761  1.4301
  112SAPE   C3611697   1.729   5.937   3.078  0.4644 -0.1856  0.2763
  112SAPE   H6X11698   1.838   5.928   3.059  0.3806 -3.7250  0.7231
  112SAPE   H6Y11699   1.690   5.839   3.113  0.9192 -0.3475  0.3397
  112SAPE   C3711700   1.704   6.045   3.185 -0.4163  0.1517  0.8486
  112SAPE   H7X11701   1.598   6.050   3.218 -0.5614  1.4772  0.2556
  112SAPE   H7Y11702   1.720   6.142   3.133 -1.2509  0.8274  1.8070
  112SAPE   C3811703   1.796   6.015   3.300  0.4366  0.9957  0.2873
  112SAPE   H8X11704   1.896   5.991   3.259  0.5111  2.2389 -0.3191
  112SAPE   H8Y11705   1.755   5.923   3.347  0.3047  0.6163 -0.5503
  112SAPE   C3911706   1.800   6.143   3.385  0.0532  0.1439 -0.3822
  112SAPE   H9X11707   1.706   6.203   3.379  0.7767  1.7962  2.6075
  112SAPE   H9Y11708   1.884   6.201   3.343  1.8928 -1.5722  0.7636
  112SAPE  C31011709   1.838   6.121   3.533  0.4903 -0.1848 -0.2765
  112SAPE  H10X11710   1.849   6.220   3.582 -2.7913 -0.2694  0.8379
  112SAPE  H10Y11711   1.934   6.064   3.530  0.1758 -0.6868 -1.1434
  112SAPE  C31111712   1.738   6.025   3.606  0.8093  0.1793 -0.6376
  112SAPE  H11X11713   1.780   5.925   3.581  1.0723 -0.0544  0.6997
  112SAPE  H11Y11714   1.631   6.034   3.577  0.2692 -0.8911  0.9327
  112SAPE  C31211715   1.756   6.033   3.760 -0.1796 -0.8763  0.8686
  112SAPE  H12X11716   1.732   6.135   3.798 -0.0425 -0.4122 -0.2455
  112SAPE  H12Y11717   1.861   6.003   3.783  0.5288 -3.8251 -4.6051
  112SAPE  C31311718   1.671   5.937   3.837 -1.1652  0.6514 -0.1328
  112SAPE  H13X11719   1.644   5.848   3.777  0.2322  0.9374 -1.2399
  112SAPE  H13Y11720   1.573   5.981   3.868 -2.0231 -1.6238  0.5440
  112SAPE  C31411721   1.741   5.880   3.966 -0.5705 -0.6414  0.8882
  112SAPE  H14X11722   1.776   5.966   4.025 -0.8782  1.0465 -1.2471
  112SAPE  H14Y11723   1.824   5.814   3.933  0.9041  1.6121 -0.1121
  112SAPE  C31511724   1.657   5.790   4.048 -0.4656 -0.5593 -1.2456
  112SAPE  H15X11725   1.728   5.750   4.124 -2.4086 -0.0676  0.9330
  112SAPE  H15Y11726   1.633   5.707   3.977 -1.4465 -1.5473  0.1979
  112SAPE  C31611727   1.520   5.836   4.104  0.3676 -0.3167 -0.4844
  112SAPE  H16X11728   1.465   5.746   4.141  0.3843 -0.6472 -1.2304
  112SAPE  H16Y11729   1.459   5.876   4.020  1.7025 -1.2508 -1.9440
  112SAPE  C31711730   1.517   5.937   4.217  0.1424 -0.3493 -0.4790
  112SAPE  H17X11731   1.413   5.943   4.255  0.7821 -1.5841  1.6515
  112SAPE  H17Y11732   1.541   6.031   4.163  1.3855 -0.1818  0.3361
  112SAPE  C31811733   1.601   5.927   4.346  0.2218  0.2980 -0.1449
  112SAPE  H18X11734   1.707   5.902   4.322 -0.0994 -1.5913  0.2565
  112SAPE  H18Y11735   1.553   5.855   4.415  1.7262  0.6126  1.3015
  112SAPE  H18Z11736   1.588   6.023   4.401 -0.4772  0.9171 -1.3390
  113SAPE     N11737   6.555   4.038   1.758 -0.4388 -0.2894 -0.1187
  113SAPE   HN111738   6.475   4.083   1.807 -0.5030 -0.4666 -0.0589
  113SAPE   HN211739   6.615   4.120   1.735 -1.1973  1.0124  2.2061
  113SAPE   HN311740   6.524   3.997   1.668 -0.5611  3.1876 -1.8026
  113SAPE   C1211741   6.629   3.942   1.842 -0.0390 -0.2852 -0.3378
  113SAPE  H12A11742   6.725   3.918   1.791 -0.2038 -0.5600 -0.5199
  113SAPE  H12B11743   6.569   3.851   1.860 -0.9904  0.3906 -0.0002
  113SAPE   C1111744   6.664   3.999   1.983  0.1315  1.2071  0.3108
  113SAPE  H11A11745   6.711   3.918   2.042  0.4702 -0.7330 -2.4183
  113SAPE  H11B11746   6.570   4.019   2.039  0.6799  2.2061  0.8914
  113SAPE     P11747   6.902   4.121   1.989 -0.2594 -0.4994 -0.5241
  113SAPE   O1311748   6.961   4.016   1.901  0.2584  1.2042  0.5139
  113SAPE   O1411749   6.959   4.258   1.981  0.1535 -0.5984 -0.2911
  113SAPE   O1211750   6.745   4.120   1.982 -0.0850 -0.7110 -0.0878
  113SAPE   O1111751   6.932   4.076   2.134  0.0455  0.0387 -0.3110
  113SAPE    C111752   6.972   4.158   2.247  0.0941 -0.3145  0.6855
  113SAPE    HA11753   6.910   4.250   2.237 -0.4277 -0.6950  0.3536
  113SAPE    HB11754   6.935   4.116   2.343  1.8946  0.1023  1.6012
  113SAPE    C211755   7.122   4.200   2.256 -0.3419 -0.8012  0.5231
  113SAPE    HS11756   7.151   4.237   2.156 -0.6058  0.6253  0.9483
  113SAPE   O2111757   7.198   4.090   2.304 -0.4705 -0.1315  0.6191
  113SAPE   C2111758   7.326   4.100   2.286  0.6177 -0.0017  0.3931
  113SAPE   O2211759   7.377   4.183   2.212  0.3022  0.0550  0.2818
  113SAPE   C2211760   7.407   3.994   2.357  0.9564  0.2416  0.1870
  113SAPE   H2R11761   7.510   3.981   2.317  1.6396 -1.4913  2.3430
  113SAPE   H2S11762   7.425   4.030   2.460 -0.5791 -1.5427  1.1379
  113SAPE    C311763   7.145   4.316   2.367  0.1823 -0.3471  0.3247
  113SAPE    HX11764   7.100   4.408   2.324  3.3675  1.5753  0.7406
  113SAPE    HY11765   7.253   4.340   2.382  0.2216  0.1347 -0.6635
  113SAPE   O3111766   7.077   4.280   2.491  0.7816  0.7677  0.2398
  113SAPE   C3111767   7.157   4.217   2.570 -0.0766  0.2585 -0.0979
  113SAPE   O3211768   7.277   4.192   2.560 -0.7716 -0.6899  0.6386
  113SAPE   C3211769   7.074   4.180   2.704 -0.5130 -0.4902  0.1884
  113SAPE   H2X11770   7.023   4.086   2.676 -0.6632 -0.4520  0.3320
  113SAPE   H2Y11771   7.001   4.263   2.718 -1.0284 -0.8498 -0.3018
  113SAPE   C2311772   7.344   3.850   2.364 -0.2133 -0.1025 -0.4954
  113SAPE   H3R11773   7.368   3.795   2.271  1.4328  0.6625 -0.5482
  113SAPE   H3S11774   7.234   3.861   2.379 -0.0218 -0.5861  1.5109
  113SAPE   C2411775   7.399   3.780   2.492  0.7030 -0.3640  0.1684
  113SAPE   H4R11776   7.380   3.858   2.569 -0.4499  1.5180 -1.8778
  113SAPE   H4S11777   7.509   3.765   2.487  0.5509 -1.0763 -2.4437
  113SAPE   C2511778   7.318   3.663   2.525  0.3496 -0.3052  0.2708
  113SAPE   H5R11779   7.326   3.583   2.450  1.0688 -0.8158  0.8813
  113SAPE   C2611780   7.234   3.650   2.626 -0.1564  0.2286  0.3255
  113SAPE   H6R11781   7.171   3.560   2.632 -1.6283  0.9488 -2.6319
  113SAPE   C2711782   7.218   3.752   2.737  0.0122  0.1672 -1.1163
  113SAPE   H7R11783   7.192   3.852   2.695  0.6621  0.0595 -1.8088
  113SAPE   H7S11784   7.317   3.765   2.786  0.0981  0.0627 -1.2611
  113SAPE   C2811785   7.099   3.719   2.823 -0.0716  0.2181 -0.1795
  113SAPE   H8R11786   7.013   3.683   2.765 -0.1901 -2.9341  1.7118
  113SAPE   C2911787   7.093   3.712   2.955 -0.3504  0.1902  0.2616
  113SAPE   H9R11788   6.996   3.680   2.996 -1.1196  0.0028 -1.6033
  113SAPE  C21011789   7.184   3.765   3.058 -0.7049 -0.2594  0.2446
  113SAPE  H10R11790   7.137   3.818   3.143 -0.3034  2.2003 -0.9864
  113SAPE  H10S11791   7.253   3.839   3.013  1.6836 -3.1609 -1.2665
  113SAPE  C21111792   7.272   3.649   3.102  0.6518  0.6559  0.4628
  113SAPE  H11R11793   7.320   3.594   3.019 -0.3248 -1.2061  1.0811
  113SAPE  C21211794   7.300   3.603   3.229  0.2446  0.1233  0.1237
  113SAPE  H12R11795   7.360   3.511   3.240 -0.4288 -0.4571 -0.9082
  113SAPE  C21311796   7.244   3.654   3.358  0.4867 -0.3495  0.0269
  113SAPE  H13R11797   7.144   3.606   3.368  0.3717 -0.6583 -2.2153
  113SAPE  H13S11798   7.233   3.764   3.352  0.1152 -0.0708  3.4664
  113SAPE  C21411799   7.346   3.631   3.467  0.6614 -0.2311  0.0274
  113SAPE  H14R11800   7.453   3.625   3.442  0.2460 -0.3516 -1.8384
  113SAPE  C21511801   7.318   3.648   3.593  0.3424 -0.6409 -0.0369
  113SAPE  H15R11802   7.394   3.624   3.669 -1.3680  1.1531  2.3950
  113SAPE  C21611803   7.189   3.704   3.648 -0.0494 -0.3453  0.1158
  113SAPE  H16R11804   7.101   3.706   3.581 -0.2905 -2.1469  0.3323
  113SAPE  H16S11805   7.196   3.807   3.689 -0.3832 -0.8587  1.5143
  113SAPE  C21711806   7.138   3.612   3.766 -0.1256 -0.3620  0.6849
  113SAPE  H17R11807   7.125   3.506   3.736 -1.9349 -0.5157  1.8163
  113SAPE  H17S11808   7.034   3.648   3.782 -0.4567 -1.6888  1.6911
  113SAPE  C21811809   7.229   3.612   3.887  0.4005 -0.2470  0.4653
  113SAPE  H18R11810   7.307   3.690   3.894 -1.1411  1.4610 -0.7126
  113SAPE  H18S11811   7.281   3.514   3.880  0.7270 -0.2859  2.7577
  113SAPE  C21911812   7.149   3.624   4.013  0.5252  0.2864 -0.7377
  113SAPE  H19R11813   7.107   3.524   4.038 -1.4547  1.1556 -0.3769
  113SAPE  H19S11814   7.064   3.695   4.002  0.6047  0.9104  1.9658
  113SAPE  C22011815   7.234   3.675   4.131 -0.6222 -0.0059 -0.3149
  113SAPE  H20R11816   7.227   3.784   4.155 -0.3893 -0.3132  1.2806
  113SAPE  H20S11817   7.345   3.671   4.121 -0.6449 -0.7568 -0.3153
  113SAPE  H20T11818   7.215   3.623   4.227  3.6483 -1.0164  0.2116
  113SAPE   C3311819   7.168   4.146   2.824  0.1664 -0.3008  1.5727
  113SAPE   H3X11820   7.238   4.231   2.835  0.3134 -0.5411  2.5275
  113SAPE   H3Y11821   7.219   4.049   2.801 -0.9265 -0.2729 -1.4434
  113SAPE   C3411822   7.091   4.151   2.949 -0.6272  0.0634 -0.0171
  113SAPE   H4X11823   7.016   4.069   2.956 -1.2902  0.8231  3.2867
  113SAPE   H4Y11824   7.042   4.250   2.959  1.2549  1.2989 -2.0871
  113SAPE   C3511825   7.184   4.135   3.068  0.7679 -0.3686 -0.4797
  113SAPE   H5X11826   7.252   4.222   3.072 -0.8817  0.9272  1.7291
  113SAPE   H5Y11827   7.257   4.051   3.063  1.9195  0.5270  0.7308
  113SAPE   C3611828   7.100   4.126   3.189  0.3677 -0.1187  0.0004
  113SAPE   H6X11829   7.023   4.047   3.178  0.7969 -1.0468  2.8749
  113SAPE   H6Y11830   7.049   4.224   3.202  1.7520  0.5086  0.9831
  113SAPE   C3711831   7.177   4.101   3.314 -0.2020  0.3703 -0.6682
  113SAPE   H7X11832   7.253   4.182   3.305 -0.0554  0.2311 -0.6882
  113SAPE   H7Y11833   7.233   4.005   3.306 -1.1676 -0.0992 -2.0333
  113SAPE   C3811834   7.107   4.112   3.452 -0.7340 -0.0760  0.4807
  113SAPE   H8X11835   7.059   4.212   3.458  1.1734  0.8795  0.6123
  113SAPE   H8Y11836   7.030   4.032   3.451  0.6719 -1.4978  0.4995
  113SAPE   C3911837   7.202   4.102   3.569 -0.2076  0.2157  0.0089
  113SAPE   H9X11838   7.295   4.158   3.546 -0.0077 -0.6676 -1.4418
  113SAPE   H9Y11839   7.247   4.002   3.590  1.0553  0.7040 -0.2375
  113SAPE  C31011840   7.140   4.151   3.694 -0.7138  0.0613  0.5137
  113SAPE  H10X11841   7.048   4.090   3.710  0.6493 -1.6869  2.1889
  113SAPE  H10Y11842   7.109   4.257   3.686 -0.4095  0.2717  1.8163
  113SAPE  C31111843   7.220   4.129   3.823  0.4585  0.4160  0.8143
  113SAPE  H11X11844   7.322   4.169   3.802  1.2407 -1.9982 -0.4255
  113SAPE  H11Y11845   7.222   4.018   3.831  0.3032  0.3426 -0.1240
  113SAPE  C31211846   7.143   4.195   3.942  0.5100  0.0503 -0.1094
  113SAPE  H12X11847   7.034   4.173   3.943 -0.3468  3.0299  4.8046
  113SAPE  H12Y11848   7.155   4.305   3.932 -0.9794  0.2468 -0.0349
  113SAPE  C31311849   7.206   4.155   4.079 -0.6680  0.3897 -0.2481
  113SAPE  H13X11850   7.207   4.047   4.106  2.9325  0.1249 -0.9634
  113SAPE  H13Y11851   7.136   4.203   4.151 -1.6697  1.1513 -1.6696
  113SAPE  C31411852   7.342   4.228   4.106 -0.3847  0.0829 -0.3741
  113SAPE  H14X11853   7.335   4.328   4.059 -2.0090 -0.1195 -0.6166
  113SAPE  H14Y11854   7.423   4.173   4.053 -0.9433 -1.3187  0.1640
  113SAPE  C31511855   7.380   4.233   4.262 -0.4025 -0.3587  0.4415
  113SAPE  H15X11856   7.460   4.156   4.267  0.1140 -0.0294 -1.6619
  113SAPE  H15Y11857   7.297   4.215   4.333 -2.0880  1.1664 -1.0209
  113SAPE  C31611858   7.434   4.375   4.309 -0.2741  0.0003  0.1574
  113SAPE  H16X11859   7.477   4.351   4.409 -0.6886 -0.0869  0.3139
  113SAPE  H16Y11860   7.353   4.448   4.324 -0.8220  0.1182 -2.8950
  113SAPE  C31711861   7.537   4.434   4.216 -0.1458  0.4486 -0.8257
  113SAPE  H17X11862   7.489   4.459   4.119  2.1529  0.0734 -2.1234
  113SAPE  H17Y11863   7.621   4.367   4.188  0.4646  0.4823  0.7747
  113SAPE  C31811864   7.612   4.558   4.271  0.6292 -0.7069 -0.0191
  113SAPE  H18X11865   7.538   4.638   4.291  1.8274  0.9859 -1.8756
  113SAPE  H18Y11866   7.678   4.599   4.191  2.0392 -1.2819  0.8158
  113SAPE  H18Z11867   7.677   4.538   4.359  3.6534  0.9527 -1.6982
  114SAPE     N11868   3.133   4.296   1.725 -0.4674 -0.3288  0.1044
  114SAPE   HN111869   3.189   4.360   1.665 -0.1207 -1.6161 -0.9736
  114SAPE   HN211870   3.074   4.231   1.670 -0.9139 -0.0644  0.2620
  114SAPE   HN311871   3.069   4.369   1.763 -0.8979 -0.0195 -1.1839
  114SAPE   C1211872   3.217   4.233   1.832  0.1677 -0.0312  0.2480
  114SAPE  H12A11873   3.282   4.156   1.786 -0.9526  0.0870 -1.6499
  114SAPE  H12B11874   3.148   4.180   1.900  1.0817 -1.2346  0.2513
  114SAPE   C1111875   3.289   4.339   1.906 -0.5222 -0.0491 -0.2732
  114SAPE  H11A11876   3.354   4.399   1.840  0.9143 -1.1673  0.0803
  114SAPE  H11B11877   3.357   4.298   1.984 -2.6742  1.5881  2.6982
  114SAPE     P11878   3.140   4.407   2.126  0.1439  0.0269  0.2507
  114SAPE   O1311879   3.127   4.538   2.190  0.0382 -0.0852 -0.3117
  114SAPE   O1411880   3.017   4.327   2.115  0.1989 -0.3021  0.0241
  114SAPE   O1211881   3.197   4.426   1.972 -0.0409  0.5073 -1.1558
  114SAPE   O1111882   3.257   4.325   2.197  0.6337  0.4533  0.0844
  114SAPE    C111883   3.219   4.203   2.264 -0.1307 -0.8529  0.2470
  114SAPE    HA11884   3.130   4.148   2.227 -0.1043 -0.7548  0.0398
  114SAPE    HB11885   3.291   4.124   2.231 -0.0387 -0.5162 -0.3640
  114SAPE    C211886   3.240   4.216   2.416  0.3319 -0.3683  0.1083
  114SAPE    HS11887   3.226   4.119   2.467  2.6881  0.6515  2.9709
  114SAPE   O2111888   3.152   4.319   2.470  0.5789 -0.1429 -0.1574
  114SAPE   C2111889   3.021   4.289   2.456  0.1960  0.0820 -0.1755
  114SAPE   O2211890   2.981   4.181   2.425  0.6124  0.1511  0.0844
  114SAPE   C2211891   2.946   4.397   2.519  0.2764 -0.3161 -0.9235
  114SAPE   H2R11892   2.989   4.422   2.618 -0.9595  0.7265 -0.6155
  114SAPE   H2S11893   2.954   4.493   2.463  0.7001  0.6569  0.7478
  114SAPE    C311894   3.384   4.263   2.449 -0.2953 -0.2014 -0.3954
  114SAPE    HX11895   3.400   4.360   2.399 -3.1005  1.3289  1.3846
  114SAPE    HY11896   3.462   4.200   2.400 -1.7448 -1.0547 -1.6851
  114SAPE   O3111897   3.401   4.267   2.592  0.1336  0.3858 -0.4310
  114SAPE   C3111898   3.507   4.335   2.631 -0.4278  0.3989 -0.5062
  114SAPE   O3211899   3.577   4.401   2.562  0.6128 -0.5441  0.3561
  114SAPE   C3211900   3.520   4.319   2.784 -1.1139 -0.1591  0.1134
  114SAPE   H2X11901   3.614   4.263   2.802 -0.1123  0.7467 -1.9693
  114SAPE   H2Y11902   3.437   4.256   2.822 -0.9050 -0.6497 -0.2340
  114SAPE   C2311903   2.792   4.355   2.543  1.1147  0.0736 -0.7632
  114SAPE   H3R11904   2.743   4.325   2.447  0.2418 -1.5164  0.1393
  114SAPE   H3S11905   2.749   4.446   2.591 -0.4769 -0.9489 -0.1740
  114SAPE   C2411906   2.767   4.246   2.653 -0.2046 -0.1149  0.6499
  114SAPE   H4R11907   2.835   4.260   2.740  0.9640 -2.3395  0.1861
  114SAPE   H4S11908   2.786   4.145   2.610  1.9928  0.3574  0.4064
  114SAPE   C2511909   2.629   4.254   2.704  0.1919  0.2104  0.1639
  114SAPE   H5R11910   2.554   4.222   2.631 -0.5928  1.0727  0.5652
  114SAPE   C2611911   2.593   4.302   2.824  0.4371 -1.0485 -0.5839
  114SAPE   H6R11912   2.487   4.324   2.843  1.4091  2.2119  1.9382
  114SAPE   C2711913   2.686   4.362   2.927  0.2780 -0.4871 -0.1255
  114SAPE   H7R11914   2.786   4.315   2.930  0.1117 -1.0012 -1.9139
  114SAPE   H7S11915   2.637   4.328   3.021  2.0895 -1.0472  0.6729
  114SAPE   C2811916   2.698   4.511   2.918 -0.7912 -0.9950  0.4105
  114SAPE   H8R11917   2.723   4.541   2.815 -1.8678 -0.3344  0.3356
  114SAPE   C2911918   2.683   4.606   3.011  0.2726 -0.6320 -0.4605
  114SAPE   H9R11919   2.678   4.707   2.968 -1.2307  0.8179  2.7482
  114SAPE  C21011920   2.647   4.591   3.159  0.2490 -0.2912 -0.1266
  114SAPE  H10R11921   2.601   4.493   3.181  0.5383  0.1607  2.9119
  114SAPE  H10S11922   2.565   4.666   3.173 -0.1980 -1.1655  2.4370
  114SAPE  C21111923   2.752   4.624   3.271  0.0348 -0.1844  1.0192
  114SAPE  H11R11924   2.842   4.678   3.237  0.1696 -1.4632 -0.8108
  114SAPE  C21211925   2.742   4.612   3.402  0.4834 -0.0389 -0.5271
  114SAPE  H12R11926   2.826   4.643   3.466  1.5129 -1.2356 -1.2464
  114SAPE  C21311927   2.627   4.548   3.478 -0.2307 -1.1970 -0.2157
  114SAPE  H13R11928   2.654   4.453   3.527  2.5749 -0.0765  0.5920
  114SAPE  H13S11929   2.541   4.520   3.413 -1.5468 -2.0197  1.7961
  114SAPE  C21411930   2.596   4.650   3.585 -0.4142 -0.1297  0.8932
  114SAPE  H14R11931   2.571   4.747   3.539 -0.2743  0.2828  1.6579
  114SAPE  C21511932   2.589   4.634   3.718  1.1814  0.0816  0.6765
  114SAPE  H15R11933   2.556   4.725   3.771  0.9180 -0.4828  1.4904
  114SAPE  C21611934   2.611   4.518   3.812  0.4353  0.0340 -0.4243
  114SAPE  H16R11935   2.671   4.441   3.758  2.2067 -0.3989  1.9803
  114SAPE  H16S11936   2.509   4.484   3.841  0.4942  0.3893  0.2040
  114SAPE  C21711937   2.707   4.560   3.928 -0.1761 -0.1084 -0.0712
  114SAPE  H17R11938   2.667   4.646   3.985  0.8582 -0.4214  1.2007
  114SAPE  H17S11939   2.800   4.598   3.880 -1.4227  5.1080  1.0501
  114SAPE  C21811940   2.745   4.441   4.019 -0.0793  0.6320  0.0653
  114SAPE  H18R11941   2.834   4.462   4.082 -1.0202  2.4224  0.8587
  114SAPE  H18S11942   2.778   4.359   3.952  0.9777 -0.2902  1.6650
  114SAPE  C21911943   2.634   4.383   4.106 -0.0070 -0.1626 -0.2652
  114SAPE  H19R11944   2.679   4.296   4.159  2.0621 -0.3432 -2.1461
  114SAPE  H19S11945   2.550   4.356   4.039 -1.0510  2.7182 -0.2490
  114SAPE  C22011946   2.581   4.478   4.218  0.2573 -0.2889  0.2668
  114SAPE  H20R11947   2.661   4.517   4.285 -0.0522  2.0933 -0.6743
  114SAPE  H20S11948   2.511   4.416   4.279 -0.5009  0.1950 -0.0986
  114SAPE  H20T11949   2.520   4.561   4.177  1.6038 -0.0021 -1.2315
  114SAPE   C3311950   3.526   4.459   2.854 -0.4925  0.2325  0.0987
  114SAPE   H3X11951   3.436   4.509   2.813 -2.1586 -2.3509  0.3684
  114SAPE   H3Y11952   3.622   4.508   2.827 -1.4814  1.4969 -1.2450
  114SAPE   C3411953   3.499   4.446   3.012  0.5614  0.0857 -0.2252
  114SAPE   H4X11954   3.392   4.418   3.013 -0.0895  2.2611 -1.8424
  114SAPE   H4Y11955   3.512   4.546   3.059 -0.3291  0.3531 -0.5325
  114SAPE   C3511956   3.584   4.342   3.083  0.5161  0.0279 -0.2290
  114SAPE   H5X11957   3.688   4.341   3.044  0.5883  1.4621 -0.1248
  114SAPE   H5Y11958   3.543   4.242   3.056 -1.3080  0.9891 -1.1892
  114SAPE   C3611959   3.595   4.349   3.236  0.2561  0.1489 -0.3319
  114SAPE   H6X11960   3.661   4.262   3.257 -1.1480 -1.6508 -2.7485
  114SAPE   H6Y11961   3.500   4.319   3.285  0.4207 -2.0937 -1.2669
  114SAPE   C3711962   3.664   4.482   3.288  0.4586 -0.2649 -0.3037
  114SAPE   H7X11963   3.585   4.559   3.299 -0.0188 -0.9834  1.6336
  114SAPE   H7Y11964   3.738   4.515   3.212  0.3078 -1.1978 -0.8786
  114SAPE   C3811965   3.727   4.462   3.429  0.2055 -0.1555  0.4955
  114SAPE   H8X11966   3.806   4.536   3.450  2.3980 -1.7731 -1.4599
  114SAPE   H8Y11967   3.774   4.363   3.445  3.3256  1.2580  0.7613
  114SAPE   C3911968   3.633   4.491   3.542  0.6858  0.0554  0.2439
  114SAPE   H9X11969   3.541   4.430   3.538 -0.1587  1.2714  0.3635
  114SAPE   H9Y11970   3.597   4.596   3.541 -1.6769 -0.6395  2.1161
  114SAPE  C31011971   3.707   4.473   3.677  0.1552 -0.4959  0.6001
  114SAPE  H10X11972   3.781   4.555   3.691 -0.4880  0.2174 -0.0674
  114SAPE  H10Y11973   3.767   4.380   3.672  2.1294  0.7900 -2.0165
  114SAPE  C31111974   3.614   4.474   3.791  0.2034  0.3843  0.1297
  114SAPE  H11X11975   3.681   4.456   3.877  0.3657  1.5836  0.2770
  114SAPE  H11Y11976   3.542   4.390   3.798 -0.4531  0.9769  0.6267
  114SAPE  C31211977   3.550   4.612   3.807  0.2035  0.5364  1.0644
  114SAPE  H12X11978   3.459   4.614   3.743 -0.2750  2.6640  1.7279
  114SAPE  H12Y11979   3.624   4.681   3.762  0.1172 -0.0372 -0.0017
  114SAPE  C31311980   3.522   4.652   3.954 -0.1364 -0.5419  0.6732
  114SAPE  H13X11981   3.515   4.763   3.961  2.3014 -0.1554 -1.4417
  114SAPE  H13Y11982   3.611   4.614   4.010  0.9472  0.2365 -0.4664
  114SAPE  C31411983   3.384   4.588   4.001 -0.4837 -0.2010 -1.5093
  114SAPE  H14X11984   3.385   4.477   3.994  0.6122 -0.4318  1.3403
  114SAPE  H14Y11985   3.303   4.627   3.936 -0.3871  0.5861 -1.1680
  114SAPE  C31511986   3.341   4.633   4.146 -0.3656 -0.0871 -0.1486
  114SAPE  H15X11987   3.352   4.743   4.150  0.5850 -0.2123  1.1534
  114SAPE  H15Y11988   3.410   4.594   4.224 -0.9351  0.0501  0.4370
  114SAPE  C31611989   3.194   4.586   4.172  0.6822  0.3518  0.2887
  114SAPE  H16X11990   3.186   4.475   4.172 -0.5113  0.4168  1.2004
  114SAPE  H16Y11991   3.130   4.623   4.090 -1.2983 -0.4678  1.3802
  114SAPE  C31711992   3.131   4.628   4.305  0.1029  0.2565  0.1404
  114SAPE  H17X11993   3.170   4.732   4.303 -1.2248  0.7645 -2.1899
  114SAPE  H17Y11994   3.184   4.568   4.382 -0.6792  2.0447  2.1880
  114SAPE  C31811995   2.979   4.624   4.308 -0.2259  0.0913 -0.2332
  114SAPE  H18X11996   2.939   4.670   4.400 -2.1356 -1.3549 -0.2722
  114SAPE  H18Y11997   2.953   4.516   4.309  1.1993 -0.3218 -1.7895
  114SAPE  H18Z11998   2.953   4.675   4.212  2.3566  0.9297 -0.5566
  115SAPE     N11999   1.421   0.189   2.362 -0.4072  0.6168  0.0680
  115SAPE   HN112000   1.401   0.149   2.268 -0.2287 -0.2110  0.3702
  115SAPE   HN212001   1.338   0.174   2.422 -1.4315 -0.9406 -1.6027
  115SAPE   HN312002   1.419   0.290   2.337 -1.8213  0.7619  0.7074
  115SAPE   C1212003   1.554   0.150   2.430  0.3281  0.4093  0.2435
  115SAPE  H12A12004   1.632   0.139   2.352 -0.6676 -0.9579 -0.6060
  115SAPE  H12B12005   1.533   0.061   2.493  2.0589 -0.8571 -0.8843
  115SAPE   C1112006   1.599   0.261   2.517 -0.6357 -0.4621 -0.2116
  115SAPE  H11A12007   1.686   0.230   2.580  0.2176 -0.1934 -1.2298
  115SAPE  H11B12008   1.511   0.270   2.585 -1.5590 -1.5327 -1.2306
  115SAPE     P12009   1.537   0.510   2.433 -0.4147  0.1714  0.0038
  115SAPE   O1312010   1.609   0.639   2.418 -0.4696 -0.2486  0.6706
  115SAPE   O1412011   1.438   0.455   2.333  0.4653 -0.3283  0.1749
  115SAPE   O1212012   1.644   0.387   2.457  0.1428 -0.1935 -0.0129
  115SAPE   O1112013   1.466   0.509   2.577 -0.4428 -0.9379  0.6494
  115SAPE    C112014   1.533   0.588   2.676  0.4768  0.3533  0.4471
  115SAPE    HA12015   1.640   0.559   2.673 -0.4859 -4.0823  0.9520
  115SAPE    HB12016   1.505   0.693   2.657 -0.9847 -0.1242 -0.2376
  115SAPE    C212017   1.484   0.542   2.817 -0.4349  0.6033 -0.5321
  115SAPE    HS12018   1.391   0.595   2.846 -0.1976  0.6054  0.2693
  115SAPE   O2112019   1.588   0.547   2.923  0.1250  0.3009  0.1975
  115SAPE   C2112020   1.604   0.670   2.979  0.3759 -0.3179 -0.5416
  115SAPE   O2212021   1.547   0.769   2.940  0.2104  0.3987 -0.4647
  115SAPE   C2212022   1.694   0.662   3.102 -0.1026 -0.4368 -0.1939
  115SAPE   H2R12023   1.790   0.628   3.058 -0.5735 -0.1727 -1.4742
  115SAPE   H2S12024   1.712   0.760   3.150  0.6970 -0.3456 -0.6662
  115SAPE    C312025   1.445   0.392   2.817  0.5338  0.2039  0.0489
  115SAPE    HX12026   1.535   0.337   2.783  0.9167  0.2625  0.9550
  115SAPE    HY12027   1.359   0.383   2.746  0.9023 -1.7463 -0.2158
  115SAPE   O3112028   1.403   0.343   2.951  0.6418  0.5676 -0.7277
  115SAPE   C3112029   1.381   0.213   2.957 -0.4870 -0.7083  0.0368
  115SAPE   O3212030   1.385   0.137   2.862 -0.2147  0.6990  0.3622
  115SAPE   C3212031   1.344   0.176   3.100 -0.0494 -0.2469  0.0569
  115SAPE   H2X12032   1.234   0.193   3.107  0.2884  1.3870  2.3800
  115SAPE   H2Y12033   1.407   0.219   3.180 -0.2074  1.0384 -0.4928
  115SAPE   C2312034   1.651   0.552   3.204  0.2355  0.1728  0.2981
  115SAPE   H3R12035   1.733   0.530   3.276  1.5729 -2.0280 -1.7439
  115SAPE   H3S12036   1.632   0.456   3.150 -0.8403 -0.1593  1.2151
  115SAPE   C2412037   1.527   0.598   3.280  0.5880  0.4313 -0.1430
  115SAPE   H4R12038   1.529   0.703   3.318 -1.2325  0.0737  1.1161
  115SAPE   H4S12039   1.531   0.544   3.377 -1.5513 -1.2386 -0.8868
  115SAPE   C2512040   1.398   0.558   3.211 -0.1023 -0.3340 -0.1149
  115SAPE   H5R12041   1.397   0.561   3.101 -2.7492  0.9747 -0.1274
  115SAPE   C2612042   1.283   0.514   3.264  0.5023 -0.1116 -0.2667
  115SAPE   H6R12043   1.202   0.501   3.191  1.6185  0.3468 -1.6420
  115SAPE   C2712044   1.243   0.499   3.408  0.3268  0.4178  0.1808
  115SAPE   H7R12045   1.133   0.510   3.415  0.2733  1.4359 -1.5800
  115SAPE   H7S12046   1.288   0.580   3.468  2.1850  0.1898 -0.8287
  115SAPE   C2812047   1.287   0.364   3.468 -0.4004  0.2865 -1.0395
  115SAPE   H8R12048   1.360   0.303   3.415  1.2858 -0.4960  1.9685
  115SAPE   C2912049   1.242   0.307   3.588  0.3033  0.0693  0.1272
  115SAPE   H9R12050   1.293   0.213   3.615 -1.6652 -0.9313  0.5105
  115SAPE  C21012051   1.133   0.359   3.676  0.7063  0.1856  0.2912
  115SAPE  H10R12052   1.042   0.295   3.670  0.6988  0.2533 -0.3344
  115SAPE  H10S12053   1.102   0.461   3.648 -2.2147 -0.1960  1.7082
  115SAPE  C21112054   1.187   0.374   3.816 -0.4071  0.9919 -0.4083
  115SAPE  H11R12055   1.292   0.405   3.825  0.1259 -0.5067 -1.1156
  115SAPE  C21212056   1.120   0.354   3.934  0.0758  0.6011  0.6456
  115SAPE  H12R12057   1.183   0.347   4.024  0.4450  0.0413  0.3518
  115SAPE  C21312058   0.975   0.306   3.946  0.1059  0.4869 -0.8229
  115SAPE  H13R12059   0.909   0.324   3.858 -1.3190 -2.9434 -0.6203
  115SAPE  H13S12060   0.930   0.365   4.028 -0.8070  0.1551 -1.0695
  115SAPE  C21412061   0.957   0.149   3.963  0.0205 -0.4591 -0.3806
  115SAPE  H14R12062   1.010   0.088   3.888 -0.2137 -3.2053  1.5518
  115SAPE  C21512063   0.904   0.078   4.075  0.1301  0.2023  0.4465
  115SAPE  H15R12064   0.910  -0.031   4.067 -0.4068  0.1075  1.2660
  115SAPE  C21612065   0.836   0.132   4.201 -0.1857 -0.2208  0.2736
  115SAPE  H16R12066   0.741   0.078   4.220  0.6013 -2.0953 -0.8747
  115SAPE  H16S12067   0.819   0.240   4.180 -1.2317 -0.6237 -1.0280
  115SAPE  C21712068   0.912   0.114   4.330  0.2184 -0.1986 -0.1587
  115SAPE  H17R12069   0.856   0.174   4.404 -0.2565 -0.0829 -0.6083
  115SAPE  H17S12070   1.012   0.164   4.327 -0.3268  1.1923  2.1772
  115SAPE  C21812071   0.931  -0.026   4.380  0.5716 -0.1604 -0.8702
  115SAPE  H18R12072   1.002  -0.029   4.465  1.0112  0.2681 -1.2167
  115SAPE  H18S12073   0.973  -0.092   4.301  2.3731  0.1467 -0.2266
  115SAPE  C21912074   0.801  -0.108   4.413 -0.0471 -0.6251  0.1810
  115SAPE  H19R12075   0.750  -0.130   4.317  0.7997 -1.1193 -0.1580
  115SAPE  H19S12076   0.731  -0.050   4.478 -1.3303 -1.4599 -0.3985
  115SAPE  C22012077   0.832  -0.240   4.488 -0.3007 -0.4493  0.0538
  115SAPE  H20R12078   0.857  -0.225   4.595 -0.4872 -1.0478  0.1838
  115SAPE  H20S12079   0.922  -0.292   4.446 -0.0221 -0.2439  0.3934
  115SAPE  H20T12080   0.740  -0.302   4.485  0.1685 -1.1951  0.6971
  115SAPE   C3312081   1.356   0.015   3.125  0.5059  0.8105  0.4561
  115SAPE   H3X12082   1.456  -0.021   3.093  0.1925  1.3502 -1.2291
  115SAPE   H3Y12083   1.287  -0.024   3.048  0.4923  0.0153  0.8552
  115SAPE   C3412084   1.294  -0.032   3.260  0.1444 -0.3556 -0.3563
  115SAPE   H4X12085   1.272  -0.141   3.251  1.3571 -0.9638  2.6554
  115SAPE   H4Y12086   1.189   0.001   3.262  0.4538  0.9565 -2.5271
  115SAPE   C3512087   1.361  -0.001   3.394 -0.2891  0.6713  0.1405
  115SAPE   H5X12088   1.355   0.110   3.394 -0.1997  0.6762  0.3496
  115SAPE   H5Y12089   1.469  -0.009   3.369 -0.4842  2.4804 -1.5509
  115SAPE   C3612090   1.309  -0.075   3.518 -0.5152 -0.5309  0.0337
  115SAPE   H6X12091   1.304  -0.186   3.505  0.2608 -0.5407 -0.2110
  115SAPE   H6Y12092   1.200  -0.057   3.518 -0.5815 -0.8604 -0.9395
  115SAPE   C3712093   1.383  -0.039   3.646  0.1260  0.1533 -0.4327
  115SAPE   H7X12094   1.387   0.069   3.673  0.6337  0.3645 -1.2974
  115SAPE   H7Y12095   1.492  -0.061   3.638  0.3981  1.6929 -1.5068
  115SAPE   C3812096   1.317  -0.116   3.759 -0.1940 -0.2199  0.1550
  115SAPE   H8X12097   1.343  -0.224   3.749  0.1765 -0.1357  0.2183
  115SAPE   H8Y12098   1.207  -0.104   3.750 -0.2291  0.3383  1.1380
  115SAPE   C3912099   1.365  -0.074   3.905 -0.2315  0.1884 -0.1044
  115SAPE   H9X12100   1.367   0.037   3.906 -0.0966  0.1888  1.0977
  115SAPE   H9Y12101   1.466  -0.118   3.924 -0.0415  0.2915 -0.8485
  115SAPE  C31012102   1.271  -0.099   4.026 -0.2681  0.7615  0.2942
  115SAPE  H10X12103   1.289  -0.203   4.061  0.2074  0.4352 -0.8942
  115SAPE  H10Y12104   1.167  -0.102   3.987 -0.9365  1.3704  1.9140
  115SAPE  C31112105   1.288  -0.015   4.152 -0.4970  0.4802 -0.2024
  115SAPE  H11X12106   1.226  -0.067   4.229 -0.9663 -0.6144 -1.2734
  115SAPE  H11Y12107   1.242   0.086   4.150 -1.2047  0.3259  3.0958
  115SAPE  C31212108   1.429  -0.010   4.201  0.5585  0.2580 -0.5224
  115SAPE  H12X12109   1.494   0.029   4.120  0.1907  1.1084 -0.4080
  115SAPE  H12Y12110   1.458  -0.114   4.231 -2.5127 -0.5799 -0.0875
  115SAPE  C31312111   1.434   0.096   4.315 -0.0716  0.8577 -0.1946
  115SAPE  H13X12112   1.359   0.082   4.396  1.9648  0.4355  1.7274
  115SAPE  H13Y12113   1.416   0.198   4.275 -1.1544  1.3447  1.4244
  115SAPE  C31412114   1.568   0.098   4.379 -0.5425 -0.2854  0.0090
  115SAPE  H14X12115   1.594   0.004   4.433 -1.3892  0.2843  1.4645
  115SAPE  H14Y12116   1.582   0.176   4.458  0.3769  1.0252 -1.3969
  115SAPE  C31512117   1.682   0.125   4.271  1.0867 -0.1119  0.6326
  115SAPE  H15X12118   1.652   0.215   4.212 -0.7060 -2.6410 -2.7189
  115SAPE  H15Y12119   1.681   0.044   4.194  1.2048 -0.8543  1.3941
  115SAPE  C31612120   1.821   0.125   4.323  0.1397 -0.7325 -0.3608
  115SAPE  H16X12121   1.889   0.126   4.235  2.9521 -0.2630  1.7013
  115SAPE  H16Y12122   1.850   0.030   4.372  2.7487  0.3527  0.3302
  115SAPE  C31712123   1.861   0.243   4.412 -0.5273 -0.0443 -0.6357
  115SAPE  H17X12124   1.788   0.252   4.496  1.0980  0.8181  0.7520
  115SAPE  H17Y12125   1.867   0.338   4.355  0.0921  0.6623  0.5644
  115SAPE  C31812126   1.997   0.213   4.465  0.3515  0.0094  0.2154
  115SAPE  H18X12127   2.009   0.110   4.506 -0.7442 -0.4800 -0.6305
  115SAPE  H18Y12128   2.019   0.280   4.550 -2.1478 -0.4383  1.2944
  115SAPE  H18Z12129   2.076   0.233   4.389  1.7611 -0.9926  1.3608
  116SAPE     N12130   0.596   1.583   2.234 -0.5900  0.0347  0.1658
  116SAPE   HN112131   0.533   1.505   2.206 -1.1232 -0.1256  1.7258
  116SAPE   HN212132   0.587   1.655   2.159  1.0425 -0.4685 -0.5624
  116SAPE   HN312133   0.693   1.544   2.231 -0.1070  1.2105 -1.0868
  116SAPE   C1212134   0.575   1.644   2.368 -0.2376  0.4347  0.3181
  116SAPE  H12A12135   0.585   1.557   2.436 -1.1735 -0.7246 -0.9787
  116SAPE  H12B12136   0.469   1.679   2.374 -0.5344 -0.6106  2.0486
  116SAPE   C1112137   0.677   1.756   2.398  0.4120  1.1559  0.0480
  116SAPE  H11A12138   0.774   1.704   2.408  1.4466  3.2769  2.0484
  116SAPE  H11B12139   0.664   1.810   2.494  2.1950  2.8951 -0.6215
  116SAPE     P12140   0.755   1.974   2.307  0.4768 -0.1722 -0.0713
  116SAPE   O1312141   0.884   1.972   2.233  0.1136  0.6406 -0.5402
  116SAPE   O1412142   0.656   2.083   2.273  0.3195  0.0504  0.1718
  116SAPE   O1212143   0.677   1.842   2.285  0.0566  0.1311  0.4573
  116SAPE   O1112144   0.780   1.985   2.463 -0.0688 -0.3113  0.6938
  116SAPE    C112145   0.873   2.069   2.523 -0.3045 -0.2001 -0.3656
  116SAPE    HA12146   0.965   2.076   2.461 -0.4406 -1.3285 -0.7204
  116SAPE    HB12147   0.827   2.169   2.537 -0.1218 -0.0784 -0.6185
  116SAPE    C212148   0.923   2.025   2.659 -0.2434 -0.4190 -0.2187
  116SAPE    HS12149   0.977   2.107   2.711 -2.4142  1.2668 -0.4971
  116SAPE   O2112150   1.000   1.901   2.660  0.3543  0.1403 -0.5065
  116SAPE   C2112151   1.120   1.912   2.599  0.7071 -0.2095 -0.1852
  116SAPE   O2212152   1.175   2.011   2.559  0.3986 -0.8452  0.0804
  116SAPE   C2212153   1.184   1.772   2.572  0.1054 -0.0074  0.4656
  116SAPE   H2R12154   1.164   1.701   2.655 -0.0331 -1.1594 -0.5200
  116SAPE   H2S12155   1.139   1.737   2.476 -3.0936  1.3631  1.3153
  116SAPE    C312156   0.800   2.007   2.760  0.0835 -0.1052  0.5860
  116SAPE    HX12157   0.758   1.913   2.719  1.5515 -0.8710  0.7444
  116SAPE    HY12158   0.726   2.089   2.754 -0.7253 -0.8060  0.7032
  116SAPE   O3112159   0.844   1.978   2.897  0.5185 -0.3564  0.1905
  116SAPE   C3112160   0.864   2.089   2.975  0.8275 -0.3843  0.6657
  116SAPE   O3212161   0.826   2.201   2.941 -0.5689  0.6533 -0.0390
  116SAPE   C3212162   0.912   2.045   3.113  0.0898 -0.6263  0.4480
  116SAPE   H2X12163   0.980   1.961   3.088  0.7112  0.2465 -0.9044
  116SAPE   H2Y12164   0.819   2.008   3.162 -1.0160  0.7221 -0.5455
  116SAPE   C2312165   1.335   1.784   2.567  0.4822 -0.1567 -0.3444
  116SAPE   H3R12166   1.382   1.847   2.489  3.4067  0.4735  1.7255
  116SAPE   H3S12167   1.378   1.682   2.552 -1.1508 -1.6582  3.7257
  116SAPE   C2412168   1.405   1.817   2.707 -0.1346 -0.4129  0.0717
  116SAPE   H4R12169   1.384   1.922   2.736 -1.0808 -0.5764  0.0180
  116SAPE   H4S12170   1.513   1.821   2.683 -0.1485 -0.2114  0.0408
  116SAPE   C2512171   1.380   1.713   2.811  0.1650 -0.4661 -0.1528
  116SAPE   H5R12172   1.447   1.629   2.789 -1.2625 -0.9255 -3.2569
  116SAPE   C2612173   1.316   1.719   2.930 -1.1630 -0.0241 -0.3165
  116SAPE   H6R12174   1.302   1.622   2.981 -2.6311 -0.0747 -0.7749
  116SAPE   C2712175   1.243   1.837   2.982  0.2230 -0.2856 -0.8292
  116SAPE   H7R12176   1.140   1.806   3.012  0.3631  1.7125  2.2067
  116SAPE   H7S12177   1.235   1.915   2.904 -2.4475 -0.4039 -0.7574
  116SAPE   C2812178   1.306   1.897   3.105 -0.6656 -0.4331 -0.6008
  116SAPE   H8R12179   1.370   1.986   3.094 -2.5156  1.1107  0.6089
  116SAPE   C2912180   1.293   1.858   3.233  0.0481  0.9069 -0.3676
  116SAPE   H9R12181   1.354   1.892   3.317 -0.3151 -0.9124  0.6828
  116SAPE  C21012182   1.212   1.736   3.268  0.0565  0.2158 -0.4075
  116SAPE  H10R12183   1.132   1.722   3.193  0.1211 -0.2828 -0.3890
  116SAPE  H10S12184   1.146   1.746   3.357 -0.1749 -1.7050 -0.3266
  116SAPE  C21112185   1.288   1.597   3.274  0.0468 -0.8412  0.5678
  116SAPE  H11R12186   1.314   1.557   3.175 -1.2524  1.0443 -0.6208
  116SAPE  C21212187   1.320   1.530   3.385 -0.7650 -0.2654  0.1608
  116SAPE  H12R12188   1.374   1.435   3.379  1.7838  1.0437  0.7442
  116SAPE  C21312189   1.300   1.571   3.522 -0.0742 -0.1636 -0.2939
  116SAPE  H13R12190   1.195   1.550   3.553 -1.1761  1.5630 -2.5884
  116SAPE  H13S12191   1.313   1.681   3.521  1.4514 -0.3202  0.0441
  116SAPE  C21412192   1.400   1.507   3.617 -0.0876 -0.5082 -0.0845
  116SAPE  H14R12193   1.507   1.520   3.593 -0.1227  1.3795  0.5891
  116SAPE  C21512194   1.369   1.441   3.727  0.2636  0.2938 -0.6227
  116SAPE  H15R12195   1.447   1.385   3.781  0.9450  1.3554 -0.4718
  116SAPE  C21612196   1.237   1.414   3.788 -0.2218  0.3658 -0.8728
  116SAPE  H16R12197   1.155   1.472   3.740 -0.3551 -0.7248 -2.0340
  116SAPE  H16S12198   1.238   1.459   3.889  2.0006  1.7747 -1.4529
  116SAPE  C21712199   1.197   1.259   3.782 -0.4099  0.5834 -0.5097
  116SAPE  H17R12200   1.286   1.200   3.813 -1.6205 -0.5613  0.9697
  116SAPE  H17S12201   1.192   1.231   3.675  0.1585 -0.1831 -0.3466
  116SAPE  C21812202   1.062   1.222   3.855  0.4461  0.5026 -0.1351
  116SAPE  H18R12203   0.977   1.287   3.824 -0.5048 -0.2673  0.7803
  116SAPE  H18S12204   1.073   1.257   3.960  0.8680 -2.3466  0.8559
  116SAPE  C21912205   1.018   1.076   3.852  0.5024  0.6209 -0.3015
  116SAPE  H19R12206   1.001   1.039   3.749 -1.4498  0.7699 -0.0820
  116SAPE  H19S12207   0.913   1.070   3.890  0.3820 -2.6607 -0.8453
  116SAPE  C22012208   1.107   0.978   3.939 -0.0063  0.3729 -0.6906
  116SAPE  H20R12209   1.214   0.964   3.912 -0.5282 -3.0831 -1.4477
  116SAPE  H20S12210   1.067   0.875   3.927 -1.0337  0.7610 -0.7476
  116SAPE  H20T12211   1.107   1.009   4.045  0.2568  1.8479 -1.0950
  116SAPE   C3312212   0.971   2.154   3.198  0.8494 -0.4769  0.1485
  116SAPE   H3X12213   0.897   2.236   3.211 -0.2605 -0.9687 -2.4089
  116SAPE   H3Y12214   1.064   2.190   3.148  0.7493 -0.4260 -0.0038
  116SAPE   C3412215   1.018   2.113   3.335 -0.4573  0.5747 -0.2131
  116SAPE   H4X12216   1.084   2.193   3.373 -0.3568  0.2056  0.4114
  116SAPE   H4Y12217   1.092   2.031   3.319  0.1074  0.6439  1.7960
  116SAPE   C3512218   0.915   2.075   3.443 -0.2822 -0.4207  0.0995
  116SAPE   H5X12219   0.847   2.000   3.397 -3.7789  2.7179 -0.3828
  116SAPE   H5Y12220   0.843   2.157   3.464 -0.7970 -1.0960  1.0660
  116SAPE   C3612221   0.975   2.036   3.583 -0.0043  0.5838 -0.6409
  116SAPE   H6X12222   1.039   1.951   3.552 -0.6554 -0.3190  0.4310
  116SAPE   H6Y12223   0.892   1.997   3.645  0.9414 -3.5922 -1.7299
  116SAPE   C3712224   1.077   2.130   3.656  0.8710 -0.7856  0.6491
  116SAPE   H7X12225   1.023   2.223   3.679 -3.0880 -2.3435 -1.4539
  116SAPE   H7Y12226   1.159   2.156   3.586  0.5255  0.6070  0.7367
  116SAPE   C3812227   1.137   2.063   3.782 -0.0357 -0.4960 -0.0774
  116SAPE   H8X12228   1.199   1.976   3.750  0.7114 -0.4746  1.2264
  116SAPE   H8Y12229   1.049   2.020   3.835 -0.6401  1.2381  0.3843
  116SAPE   C3912230   1.223   2.159   3.872 -0.1244  0.6493  0.5153
  116SAPE   H9X12231   1.166   2.254   3.883 -0.2941  0.8748 -1.8056
  116SAPE   H9Y12232   1.313   2.178   3.810  0.0985 -2.0365 -0.1216
  116SAPE  C31012233   1.263   2.095   4.002  0.5012 -0.4921  0.8826
  116SAPE  H10X12234   1.270   1.987   3.976 -0.5775 -0.7789  1.7241
  116SAPE  H10Y12235   1.184   2.112   4.078 -0.2660  0.0577 -0.0246
  116SAPE  C31112236   1.394   2.149   4.064  0.5189  0.2759  0.8854
  116SAPE  H11X12237   1.390   2.259   4.051 -0.5777  0.2857  1.1361
  116SAPE  H11Y12238   1.493   2.125   4.021  0.1355  2.0017 -1.1583
  116SAPE  C31212239   1.402   2.132   4.219  0.0333 -0.1306 -0.5653
  116SAPE  H12X12240   1.305   2.142   4.273  1.0004 -1.1142  1.4240
  116SAPE  H12Y12241   1.463   2.216   4.258 -0.3803  0.6228 -1.4888
  116SAPE  C31312242   1.457   1.989   4.254  0.0168 -0.0876  0.4019
  116SAPE  H13X12243   1.563   1.985   4.223 -0.7275 -0.3267 -2.3818
  116SAPE  H13Y12244   1.409   1.911   4.190 -0.1836  0.7712 -0.5108
  116SAPE  C31412245   1.446   1.964   4.402 -1.1246 -0.0366 -0.4699
  116SAPE  H14X12246   1.336   1.964   4.415 -0.9672 -1.4030  1.1471
  116SAPE  H14Y12247   1.493   2.052   4.451  0.8879 -1.3716  0.1161
  116SAPE  C31512248   1.521   1.839   4.458 -0.0166 -0.4787  0.2185
  116SAPE  H15X12249   1.526   1.850   4.569 -1.3729  1.2151  0.1443
  116SAPE  H15Y12250   1.626   1.845   4.422 -0.0203 -2.7522 -0.3528
  116SAPE  C31612251   1.459   1.704   4.428 -0.0513  0.2685 -0.5292
  116SAPE  H16X12252   1.443   1.703   4.318 -3.5837  0.0002 -0.1276
  116SAPE  H16Y12253   1.358   1.696   4.474  0.0715 -0.5858 -0.3902
  116SAPE  C31712254   1.552   1.589   4.471  0.2376  0.0118  0.8425
  116SAPE  H17X12255   1.652   1.633   4.493  0.1750 -0.3853  2.0262
  116SAPE  H17Y12256   1.558   1.507   4.396  1.3903 -1.3391  2.3305
  116SAPE  C31812257   1.508   1.520   4.603 -0.0745  0.7260  0.0684
  116SAPE  H18X12258   1.401   1.490   4.593  1.1318 -3.5403 -2.1578
  116SAPE  H18Y12259   1.545   1.585   4.685  2.5746  1.1814 -1.3763
  116SAPE  H18Z12260   1.569   1.428   4.610  0.9951  1.4860  1.1865
  117SOPE     N12261   0.079   2.765   7.081  0.0910 -0.0267  0.3403
  117SOPE   HN112262   0.147   2.799   7.009  0.8822  0.4778  1.2979
  117SOPE   HN212263  -0.005   2.828   7.078 -0.2911 -0.5532 -0.8040
  117SOPE   HN312264   0.119   2.779   7.176 -1.8247 -4.0562  1.9681
  117SOPE   C1212265   0.050   2.623   7.051  0.3488 -0.4994 -0.2330
  117SOPE  H12A12266  -0.006   2.585   7.140 -2.1019  2.3889 -0.3721
  117SOPE  H12B12267   0.143   2.563   7.049  0.6641 -0.0044 -0.5192
  117SOPE   C1112268  -0.039   2.598   6.927 -0.4566 -0.5059 -0.3136
  117SOPE  H11A12269   0.018   2.568   6.836 -2.7918 -0.2654 -1.9455
  117SOPE  H11B12270  -0.089   2.693   6.900  0.6224  0.7006  1.7324
  117SOPE     P12271  -0.283   2.540   7.003  0.3315 -0.0442  0.0771
  117SOPE   O1312272  -0.274   2.610   7.136 -1.0438 -0.3237  0.1418
  117SOPE   O1412273  -0.361   2.412   7.005  0.0965 -0.2331  0.6597
  117SOPE   O1212274  -0.146   2.505   6.953  0.0230 -0.8205  0.1936
  117SOPE   O1112275  -0.328   2.632   6.879 -0.2340 -0.3896 -0.5560
  117SOPE    C112276  -0.453   2.704   6.883  0.1127  0.1481 -0.2938
  117SOPE    HA12277  -0.480   2.726   6.989 -0.0703  1.6473 -0.6254
  117SOPE    HB12278  -0.532   2.634   6.850  0.6916 -0.5646 -0.1782
  117SOPE    C212279  -0.447   2.838   6.811 -0.9012 -0.5712  0.1782
  117SOPE    HS12280  -0.540   2.898   6.818  0.3227  1.8677 -2.3081
  117SOPE   O2112281  -0.422   2.805   6.672 -0.4077  0.6276  0.1723
  117SOPE   C2112282  -0.520   2.799   6.587 -0.0246  0.2310 -0.0502
  117SOPE   O2212283  -0.636   2.811   6.620  0.3321 -0.2616 -0.2503
  117SOPE   C2212284  -0.472   2.766   6.444  0.0375  0.2230 -0.3391
  117SOPE   H2R12285  -0.468   2.655   6.448 -1.4198  0.1865  1.2931
  117SOPE   H2S12286  -0.370   2.807   6.425  1.6852 -1.7980  3.0542
  117SOPE    C312287  -0.331   2.921   6.876  0.0857 -0.3913  0.2594
  117SOPE    HX12288  -0.240   2.857   6.880 -0.6853 -1.4778  1.2530
  117SOPE    HY12289  -0.355   2.941   6.983  3.7231  0.8345  1.0019
  117SOPE   O3112290  -0.311   3.045   6.809  0.0540 -0.1020 -0.7642
  117SOPE   C3112291  -0.190   3.070   6.760  0.5138 -0.8176  0.2136
  117SOPE   O3212292  -0.088   3.003   6.769  0.2688  0.3984 -0.0741
  117SOPE   C3212293  -0.192   3.198   6.681 -0.1893 -0.9715  0.4632
  117SOPE   H2X12294  -0.133   3.273   6.736  0.5973  2.8383 -4.7690
  117SOPE   H2Y12295  -0.297   3.230   6.667 -0.1960 -1.5805 -1.1803
  117SOPE   C2312296  -0.561   2.813   6.327  0.6906 -0.6018 -1.0539
  117SOPE   H3R12297  -0.568   2.924   6.332  2.1932 -0.5207  0.1648
  117SOPE   H3S12298  -0.664   2.772   6.333 -0.1610  1.5890  1.4182
  117SOPE   C2412299  -0.509   2.773   6.187 -0.1801  0.3649 -0.0237
  117SOPE   H4R12300  -0.575   2.818   6.110 -0.8813  1.1621  1.0163
  117SOPE   H4S12301  -0.405   2.813   6.182  0.3127 -0.6767  1.1387
  117SOPE   C2512302  -0.515   2.613   6.170  0.0912  0.2057 -0.8416
  117SOPE   H5R12303  -0.463   2.582   6.263 -2.0050 -1.0260  0.0059
  117SOPE   H5S12304  -0.623   2.591   6.188  0.3308 -0.1743  0.1795
  117SOPE   C2612305  -0.469   2.551   6.037  0.2336  0.3615 -0.5482
  117SOPE   H6R12306  -0.359   2.541   6.025  0.2754 -0.0762  0.1306
  117SOPE   H6S12307  -0.508   2.447   6.047 -0.3905  0.6263 -0.1391
  117SOPE   C2712308  -0.522   2.605   5.905  0.2112 -0.0984  0.6466
  117SOPE   H7R12309  -0.633   2.602   5.907  0.1621 -0.8172 -1.2496
  117SOPE   H7S12310  -0.489   2.711   5.895  0.9520 -0.2406  1.4732
  117SOPE   C2812311  -0.445   2.539   5.780  0.6171  0.6348  0.2866
  117SOPE   H8R12312  -0.352   2.597   5.761  1.6787 -1.4352 -1.2285
  117SOPE   H8S12313  -0.416   2.440   5.819 -2.6468  0.4978  2.7825
  117SOPE   C2912314  -0.537   2.540   5.662 -0.5357 -0.5970 -0.2704
  117SOPE   H9112315  -0.583   2.442   5.644 -0.4112 -0.5440 -0.9060
  117SOPE  C21012316  -0.540   2.633   5.564  0.7248 -0.3474 -0.2660
  117SOPE  H10112317  -0.610   2.619   5.481  0.5518 -1.1880  0.0050
  117SOPE  C21112318  -0.469   2.766   5.561  0.1409  0.8573  0.0864
  117SOPE  H11R12319  -0.418   2.776   5.463 -0.4385  1.0370 -0.2054
  117SOPE  H11S12320  -0.385   2.768   5.633  0.0279  0.2327  0.2411
  117SOPE  C21212321  -0.561   2.887   5.578 -0.6541  0.1537 -0.1428
  117SOPE  H12R12322  -0.493   2.974   5.589  0.2126 -0.5625  0.2903
  117SOPE  H12S12323  -0.623   2.872   5.669 -1.6732  0.3421 -0.8010
  117SOPE  C21312324  -0.662   2.913   5.470 -0.3812  0.3688  0.2109
  117SOPE  H13R12325  -0.749   2.976   5.499 -0.7293  0.2506 -0.5526
  117SOPE  H13S12326  -0.709   2.817   5.439 -0.0367  1.3974 -4.1322
  117SOPE  C21412327  -0.609   2.961   5.333 -0.5053 -1.1519  0.0982
  117SOPE  H14R12328  -0.542   2.882   5.294  0.2792 -1.3288  1.7405
  117SOPE  H14S12329  -0.555   3.056   5.349 -0.2450 -1.3701  0.5415
  117SOPE  C21512330  -0.724   2.978   5.226 -0.0817 -0.0355  0.3376
  117SOPE  H15R12331  -0.792   3.057   5.264 -1.4948 -0.3818 -1.3572
  117SOPE  H15S12332  -0.788   2.888   5.228 -0.9133  0.2291 -3.9579
  117SOPE  C21612333  -0.671   3.003   5.088 -0.2769 -0.0045  0.8569
  117SOPE  H16R12334  -0.631   2.902   5.067 -0.4152  0.2829 -0.9431
  117SOPE  H16S12335  -0.577   3.063   5.091  0.8281 -1.1779 -3.4736
  117SOPE  C21712336  -0.769   3.074   4.995 -0.3430 -0.3939  0.4950
  117SOPE  H17R12337  -0.749   3.182   5.012  2.9713 -0.8587  0.1108
  117SOPE  H17S12338  -0.872   3.041   5.022 -1.2545  1.3479 -0.6468
  117SOPE  C21812339  -0.742   3.036   4.847  0.1764  0.5214  0.2587
  117SOPE  H18R12340  -0.649   3.084   4.810  1.6920 -1.3480  1.4485
  117SOPE  H18S12341  -0.823   3.082   4.788 -1.0181  0.6966  1.9571
  117SOPE  H18T12342  -0.749   2.930   4.814  0.1275 -0.6034  3.4939
  117SOPE   C3312343  -0.118   3.179   6.546  0.0832 -0.2641 -1.0870
  117SOPE   H3X12344  -0.014   3.142   6.559  0.0348  0.4694  2.9254
  117SOPE   H3Y12345  -0.107   3.277   6.495  0.2802 -0.1544 -0.8394
  117SOPE   C3412346  -0.189   3.084   6.453 -0.4602  0.0693  0.2059
  117SOPE   H4X12347  -0.295   3.111   6.438 -0.3780 -0.1788 -0.8826
  117SOPE   H4Y12348  -0.179   2.980   6.492 -2.0876 -0.2115 -0.0667
  117SOPE   C3512349  -0.125   3.070   6.310 -0.1730 -0.0983  0.8563
  117SOPE   H5X12350  -0.024   3.024   6.310 -0.4945 -0.8358 -0.3302
  117SOPE   H5Y12351  -0.126   3.172   6.265  1.5213 -0.4415 -0.0454
  117SOPE   C3612352  -0.222   2.988   6.221  0.2322 -0.0272 -0.5153
  117SOPE   H6X12353  -0.323   3.030   6.239 -0.2068 -0.4516 -1.8346
  117SOPE   H6Y12354  -0.224   2.885   6.262 -1.4013  0.1009 -0.1914
  117SOPE   C3712355  -0.173   2.999   6.079  0.4546  0.2636  1.0009
  117SOPE   H7X12356  -0.068   2.971   6.058  0.9784  1.9859  1.1015
  117SOPE   H7Y12357  -0.170   3.109   6.060  1.3299  0.0642 -0.0920
  117SOPE   C3812358  -0.266   2.940   5.974  0.7270 -0.5770 -0.6424
  117SOPE   H8X12359  -0.364   2.990   5.963  0.9022 -0.7158 -3.7974
  117SOPE   H8Y12360  -0.290   2.836   6.005 -2.0693  0.4063  0.8616
  117SOPE   C3912361  -0.203   2.929   5.834  0.3431 -0.3529 -0.2064
  117SOPE   H9X12362  -0.264   2.851   5.782  0.4016 -1.0431  0.7304
  117SOPE   H9Y12363  -0.102   2.887   5.853 -0.2740 -0.0920  5.1968
  117SOPE  C31012364  -0.193   3.059   5.749  0.0405 -0.2261  0.3431
  117SOPE  H10X12365  -0.130   3.135   5.800 -0.6772  0.9130 -0.4243
  117SOPE  H10Y12366  -0.297   3.090   5.727 -0.4509 -2.3872 -0.6380
  117SOPE  C31112367  -0.123   3.028   5.614  0.1019 -0.1823  0.3599
  117SOPE  H11X12368  -0.173   2.946   5.558  3.2160 -2.4046  0.5532
  117SOPE  H11Y12369  -0.026   2.982   5.642 -0.0062 -1.4333 -1.1920
  117SOPE  C31212370  -0.080   3.154   5.535 -0.5139 -0.4986  0.7433
  117SOPE  H12X12371  -0.043   3.230   5.608 -1.6492  1.5630 -0.7307
  117SOPE  H12Y12372  -0.155   3.209   5.474  1.8650  2.3318  0.1116
  117SOPE  C31312373   0.035   3.130   5.433 -0.0653 -0.1337  0.9989
  117SOPE  H13X12374  -0.005   3.048   5.370 -1.7101  0.3004  1.4234
  117SOPE  H13Y12375   0.118   3.082   5.489 -1.1100 -2.5630  0.5931
  117SOPE  C31412376   0.073   3.244   5.341  0.3165  0.8923  0.0845
  117SOPE  H14X12377   0.127   3.319   5.402 -0.4571  0.5971  1.1661
  117SOPE  H14Y12378  -0.018   3.300   5.309 -1.3948 -2.2465 -0.9921
  117SOPE  C31512379   0.156   3.205   5.218  0.3485  0.1538 -0.0805
  117SOPE  H15X12380   0.258   3.178   5.253  0.3592 -1.0687 -1.0026
  117SOPE  H15Y12381   0.168   3.298   5.158  2.1029 -1.8374 -3.0335
  117SOPE  C31612382   0.093   3.098   5.128  0.1025 -0.1711  0.3795
  117SOPE  H16X12383  -0.003   3.139   5.092 -0.1053 -1.6176 -0.8005
  117SOPE  H16Y12384   0.075   3.006   5.189 -0.1738  0.3953  1.1708
  117SOPE  C31712385   0.187   3.068   5.006 -0.7082  0.1547 -0.0675
  117SOPE  H17X12386   0.251   2.986   5.045 -1.0624 -0.3371 -0.5099
  117SOPE  H17Y12387   0.262   3.149   4.996  0.8771 -0.9716  1.7730
  117SOPE  C31812388   0.117   3.041   4.873 -0.2547 -0.9846 -1.2341
  117SOPE  H18X12389   0.014   3.003   4.890  0.1104 -1.7797 -0.7309
  117SOPE  H18Y12390   0.176   2.972   4.808 -1.1395 -1.4466 -1.5632
  117SOPE  H18Z12391   0.114   3.138   4.820  2.0315 -1.1805 -1.8483
  118SOPE     N12392   6.469   4.228   6.888 -0.4502 -0.5696 -0.0009
  118SOPE   HN112393   6.419   4.233   6.979 -1.5074 -1.1028 -0.5394
  118SOPE   HN212394   6.566   4.199   6.913  0.4884  1.1299 -1.3603
  118SOPE   HN312395   6.484   4.320   6.840  1.7707 -0.5357  0.6338
  118SOPE   C1212396   6.422   4.134   6.779  0.7603  0.6376  0.2153
  118SOPE  H12A12397   6.313   4.133   6.799  0.4556 -1.2311 -1.2521
  118SOPE  H12B12398   6.466   4.037   6.811 -0.0050  0.7888  1.8616
  118SOPE   C1112399   6.463   4.163   6.635  0.0850 -0.1937  0.5878
  118SOPE  H11A12400   6.402   4.251   6.606 -1.7778 -1.0910  1.5875
  118SOPE  H11B12401   6.442   4.070   6.579  0.1554  0.2121 -0.1273
  118SOPE     P12402   6.712   4.075   6.596 -0.0542 -0.3340 -0.0847
  118SOPE   O1312403   6.677   3.959   6.683  0.2499  0.1308 -0.2020
  118SOPE   O1412404   6.839   4.137   6.609 -0.5515 -0.7755  0.3650
  118SOPE   O1212405   6.600   4.191   6.628 -0.2322 -0.4263  0.1002
  118SOPE   O1112406   6.668   4.046   6.447 -0.5606 -0.2299 -0.3772
  118SOPE    C112407   6.660   4.156   6.356  0.2693  0.3375  0.0285
  118SOPE    HA12408   6.712   4.249   6.386 -1.0889  0.5749  1.7799
  118SOPE    HB12409   6.553   4.187   6.356  0.0930 -0.2348 -0.3649
  118SOPE    C212410   6.693   4.110   6.206 -0.6432 -0.0897 -1.1069
  118SOPE    HS12411   6.692   4.206   6.149  0.3773 -0.9387 -2.6060
  118SOPE   O2112412   6.601   4.011   6.165  0.4729 -0.2935 -0.1399
  118SOPE   C2112413   6.475   4.053   6.139 -0.7391 -0.1920  0.1426
  118SOPE   O2212414   6.432   4.161   6.163  0.2478  0.8011 -1.0261
  118SOPE   C2212415   6.399   3.945   6.069  0.2619  0.0123 -0.1055
  118SOPE   H2R12416   6.292   3.953   6.094  0.1337 -2.6586  0.4849
  118SOPE   H2S12417   6.424   3.840   6.094 -0.5468 -0.6996 -2.0600
  118SOPE    C312418   6.836   4.059   6.207 -0.3349 -0.2072  1.1074
  118SOPE    HX12419   6.833   3.970   6.274 -1.3589  1.3892  3.3091
  118SOPE    HY12420   6.902   4.139   6.246  1.6529 -0.6100 -1.2018
  118SOPE   O3112421   6.877   4.019   6.071  0.3127 -0.3832  0.6420
  118SOPE   C3112422   6.910   4.124   5.989 -0.1959 -0.2350 -0.6143
  118SOPE   O3212423   6.893   4.242   6.015  0.0259 -0.0709  0.3324
  118SOPE   C3212424   6.983   4.080   5.864 -0.1646 -0.3842  0.4887
  118SOPE   H2X12425   6.930   4.111   5.772 -1.1282 -1.5391  0.6209
  118SOPE   H2Y12426   6.983   3.969   5.861  1.6963 -0.3961 -0.2715
  118SOPE   C2312427   6.408   3.947   5.914  0.0912 -0.3232 -0.1928
  118SOPE   H3R12428   6.510   3.924   5.877 -0.0416 -3.2305  1.0289
  118SOPE   H3S12429   6.394   4.054   5.887 -0.8861 -0.4246 -0.1439
  118SOPE   C2412430   6.310   3.855   5.838  0.4151 -0.1519 -0.5328
  118SOPE   H4R12431   6.352   3.754   5.856  0.5678 -0.0168 -0.1097
  118SOPE   H4S12432   6.207   3.865   5.879  1.0880 -0.1767  1.2561
  118SOPE   C2512433   6.304   3.885   5.688  0.2135 -0.4567 -0.4023
  118SOPE   H5R12434   6.319   3.993   5.671  0.7470 -0.6137 -1.0100
  118SOPE   H5S12435   6.398   3.844   5.644 -0.8633 -2.0532 -1.3563
  118SOPE   C2612436   6.183   3.824   5.613 -0.2852  0.4900  0.2185
  118SOPE   H6R12437   6.187   3.714   5.625  1.4827  0.3279 -1.3131
  118SOPE   H6S12438   6.093   3.864   5.665  0.1017  0.7482  0.7018
  118SOPE   C2712439   6.176   3.865   5.466 -0.2157  0.1066 -0.1094
  118SOPE   H7R12440   6.074   3.847   5.427 -0.3531  0.0022  0.3018
  118SOPE   H7S12441   6.192   3.975   5.456  2.5543  0.0273  2.1195
  118SOPE   C2812442   6.271   3.789   5.368 -0.6315 -1.0562  0.6120
  118SOPE   H8R12443   6.372   3.834   5.384 -1.0581 -0.7016  2.6876
  118SOPE   H8S12444   6.283   3.682   5.392 -1.5670 -1.5953 -1.1671
  118SOPE   C2912445   6.233   3.804   5.221 -0.3232 -0.1182 -0.5471
  118SOPE   H9112446   6.230   3.911   5.193  0.1096  0.2323  0.7031
  118SOPE  C21012447   6.193   3.716   5.136  0.3263 -0.3022  0.0069
  118SOPE  H10112448   6.202   3.751   5.032  2.4070 -0.2288  0.1545
  118SOPE  C21112449   6.192   3.562   5.159  0.6057 -0.2141  0.5187
  118SOPE  H11R12450   6.161   3.550   5.265  0.0526  1.0313  0.5094
  118SOPE  H11S12451   6.287   3.506   5.142 -0.8117 -2.3277 -1.0532
  118SOPE  C21212452   6.082   3.488   5.077  0.3246  0.1836 -0.8810
  118SOPE  H12R12453   5.987   3.539   5.106  1.5442  1.0324  2.0140
  118SOPE  H12S12454   6.063   3.386   5.117 -2.4448  2.2276  3.8183
  118SOPE  C21312455   6.093   3.504   4.931  0.2284 -0.2440 -0.6610
  118SOPE  H13R12456   6.196   3.490   4.892  0.8209  1.6574  0.1213
  118SOPE  H13S12457   6.055   3.602   4.895  0.7707 -0.3231 -1.4737
  118SOPE  C21412458   6.014   3.400   4.859 -0.2291  0.4741 -0.1307
  118SOPE  H14R12459   5.918   3.386   4.914 -0.9011  1.1016 -1.1126
  118SOPE  H14S12460   6.065   3.302   4.870  0.4635  0.6998 -1.1673
  118SOPE  C21512461   5.992   3.433   4.710  0.2482  0.3922 -0.0206
  118SOPE  H15R12462   5.966   3.337   4.660  0.3425 -0.2190  1.0713
  118SOPE  H15S12463   6.089   3.466   4.668  0.2262  0.6295  0.1111
  118SOPE  C21612464   5.899   3.551   4.683  0.3178 -0.3327  0.5932
  118SOPE  H16R12465   5.942   3.639   4.735 -0.1165 -0.3085  0.9178
  118SOPE  H16S12466   5.796   3.522   4.715 -0.4858 -3.0835 -3.6010
  118SOPE  C21712467   5.884   3.583   4.538  0.1511  0.6719  0.3197
  118SOPE  H17R12468   5.984   3.614   4.500 -0.1687  1.8171  0.3573
  118SOPE  H17S12469   5.816   3.671   4.530 -0.6189  0.2590  1.8952
  118SOPE  C21812470   5.823   3.470   4.451  0.2260  0.2353 -0.2768
  118SOPE  H18R12471   5.722   3.447   4.491  0.1799 -1.0457 -1.0714
  118SOPE  H18S12472   5.883   3.377   4.456  2.4647  1.6134  0.2634
  118SOPE  H18T12473   5.818   3.496   4.342  0.4739 -0.9804 -0.5865
  118SOPE   C3312474   7.129   4.130   5.877 -0.2734 -0.0946 -0.4740
  118SOPE   H3X12475   7.174   4.101   5.974  0.0063  0.4599 -0.4354
  118SOPE   H3Y12476   7.139   4.240   5.869 -0.9822 -0.0732 -1.2111
  118SOPE   C3412477   7.212   4.074   5.766  0.1760 -0.5199  0.5804
  118SOPE   H4X12478   7.206   3.964   5.752  2.0424 -0.9054  2.3267
  118SOPE   H4Y12479   7.319   4.098   5.786  0.3318 -1.4389  0.8985
  118SOPE   C3512480   7.180   4.120   5.617 -0.3992  0.5389  0.0520
  118SOPE   H5X12481   7.175   4.230   5.603  3.5314  1.0774  1.4034
  118SOPE   H5Y12482   7.082   4.071   5.599 -0.0513  0.4841 -1.9663
  118SOPE   C3612483   7.275   4.057   5.517  0.6895 -0.1251  0.5017
  118SOPE   H6X12484   7.274   3.948   5.537 -1.1623 -0.5604 -1.5770
  118SOPE   H6Y12485   7.376   4.101   5.533  1.2598 -1.6046  1.1706
  118SOPE   C3712486   7.222   4.074   5.375  0.9927  0.4942 -0.3439
  118SOPE   H7X12487   7.187   4.178   5.360  0.1754  0.4303  0.9727
  118SOPE   H7Y12488   7.128   4.016   5.373  0.2198  1.7303 -1.4049
  118SOPE   C3812489   7.311   4.037   5.255 -0.1387 -0.3185 -0.2294
  118SOPE   H8X12490   7.339   3.930   5.259  2.3000  0.2838  0.8948
  118SOPE   H8Y12491   7.409   4.088   5.273  1.1321 -1.9867 -1.9570
  118SOPE   C3912492   7.237   4.068   5.123 -0.6512  0.5645 -0.6818
  118SOPE   H9X12493   7.165   4.152   5.134 -0.5099  0.6859 -0.6861
  118SOPE   H9Y12494   7.180   3.973   5.109  1.6381 -1.2051  1.1198
  118SOPE  C31012495   7.328   4.081   5.002  0.3476 -0.0444  0.0750
  118SOPE  H10X12496   7.426   4.033   5.023 -1.1684 -2.4787  2.3661
  118SOPE  H10Y12497   7.354   4.186   4.976 -1.9464  0.7939  0.8504
  118SOPE  C31112498   7.268   4.008   4.870 -0.1826 -0.0174 -0.1720
  118SOPE  H11X12499   7.168   4.053   4.847  0.5524  0.6112 -2.4730
  118SOPE  H11Y12500   7.255   3.902   4.901  1.3178 -0.0928  0.2603
  118SOPE  C31212501   7.351   4.019   4.747 -0.1634 -0.0086 -0.0543
  118SOPE  H12X12502   7.453   3.985   4.776  0.5468  1.3270 -0.8707
  118SOPE  H12Y12503   7.365   4.125   4.716  1.1262 -0.0784  0.2427
  118SOPE  C31312504   7.309   3.935   4.627  0.5149 -0.1623  0.1662
  118SOPE  H13X12505   7.216   3.980   4.587  1.5911  1.8363 -0.1792
  118SOPE  H13Y12506   7.278   3.832   4.658  0.0844 -0.6361 -1.7264
  118SOPE  C31412507   7.420   3.932   4.522 -0.3409  0.0152 -0.5951
  118SOPE  H14X12508   7.524   3.921   4.559 -0.7244 -1.2430  0.1636
  118SOPE  H14Y12509   7.422   4.035   4.480  1.4164  0.8850  1.3897
  118SOPE  C31512510   7.396   3.838   4.401  0.4049 -0.2219 -0.2361
  118SOPE  H15X12511   7.366   3.904   4.317  0.4019  0.9742  0.6728
  118SOPE  H15Y12512   7.306   3.780   4.428 -1.3935  3.1678  1.7181
  118SOPE  C31612513   7.515   3.753   4.367 -0.4605 -0.0741  0.2993
  118SOPE  H16X12514   7.482   3.666   4.306  0.9767  0.6336 -1.5566
  118SOPE  H16Y12515   7.546   3.714   4.466 -1.2795  0.5892  0.8353
  118SOPE  C31712516   7.621   3.830   4.299 -0.6856  0.3154 -0.1633
  118SOPE  H17X12517   7.671   3.910   4.358  2.3214 -0.9608 -0.7873
  118SOPE  H17Y12518   7.570   3.886   4.217  0.2314  0.4297 -0.6724
  118SOPE  C31812519   7.735   3.738   4.244  0.0316 -0.0162 -0.4859
  118SOPE  H18X12520   7.782   3.793   4.159  1.4022  1.0838  0.9269
  118SOPE  H18Y12521   7.694   3.647   4.196  0.0579 -1.3990  1.9784
  118SOPE  H18Z12522   7.802   3.705   4.326 -0.4318  1.7729  0.6660
  119SOPE     N12523   3.513   0.669   7.074  0.1821  0.2895 -0.0922
  119SOPE   HN112524   3.477   0.585   7.023 -1.5279  0.6319  0.5009
  119SOPE   HN212525   3.617   0.662   7.071  0.1778  0.3758 -0.5676
  119SOPE   HN312526   3.489   0.661   7.174 -1.5020 -1.4407 -0.5671
  119SOPE   C1212527   3.481   0.787   6.987 -0.4290  0.2753 -0.2769
  119SOPE  H12A12528   3.516   0.771   6.883 -1.1558  0.4364 -0.5487
  119SOPE  H12B12529   3.523   0.882   7.026 -1.2214  1.7110 -2.7288
  119SOPE   C1112530   3.330   0.787   6.969  0.4378  0.4395  0.5875
  119SOPE  H11A12531   3.310   0.874   6.903 -0.7082 -0.7221 -0.6569
  119SOPE  H11B12532   3.275   0.798   7.065  1.8617 -1.4402  1.6862
  119SOPE     P12533   3.133   0.663   6.859  0.4298  0.3782  0.2837
  119SOPE   O1312534   3.052   0.604   6.966 -0.1256  0.7720 -0.1706
  119SOPE   O1412535   3.130   0.589   6.728 -0.7724  0.1277  0.0741
  119SOPE   O1212536   3.288   0.669   6.910 -0.5450  0.6111  0.0259
  119SOPE   O1112537   3.099   0.813   6.839  0.0439  0.2933  0.3497
  119SOPE    C112538   2.965   0.856   6.810  0.5190 -0.4843  0.7203
  119SOPE    HA12539   2.916   0.892   6.903  0.6729 -2.0046  1.4218
  119SOPE    HB12540   2.907   0.771   6.769  2.4427 -2.6079  2.1728
  119SOPE    C212541   2.965   0.971   6.698  0.9546 -0.2274  1.1215
  119SOPE    HS12542   2.860   1.007   6.705  0.9103 -0.5444  2.2507
  119SOPE   O2112543   2.995   0.919   6.564  0.1930  0.2304  0.2931
  119SOPE   C2112544   2.894   0.877   6.491  0.7658 -0.1243 -0.2635
  119SOPE   O2212545   2.774   0.883   6.519 -0.0160 -0.4562 -0.2828
  119SOPE   C2212546   2.950   0.816   6.359  0.0788 -0.1287  0.2468
  119SOPE   H2R12547   2.961   0.708   6.382 -0.8161 -1.1472 -3.3844
  119SOPE   H2S12548   3.041   0.873   6.327 -0.1483  0.8971  1.3502
  119SOPE    C312549   3.048   1.096   6.730 -0.8096  1.0280 -0.1201
  119SOPE    HX12550   3.152   1.058   6.725 -0.6155  1.5022  0.2715
  119SOPE    HY12551   3.050   1.125   6.837  1.6216  0.6237 -0.0054
  119SOPE   O3112552   3.028   1.201   6.635 -0.4080  0.4824  0.2419
  119SOPE   C3112553   2.909   1.261   6.636  0.0471  0.0513 -0.3937
  119SOPE   O3212554   2.816   1.248   6.718  0.6595 -0.1690  0.1811
  119SOPE   C3212555   2.896   1.356   6.513 -0.1723  0.3872 -1.3212
  119SOPE   H2X12556   2.997   1.402   6.505  1.4721 -2.4541  1.0415
  119SOPE   H2Y12557   2.831   1.442   6.537  1.7269  1.4884  0.1605
  119SOPE   C2312558   2.841   0.848   6.249  0.1545 -0.2951  0.3346
  119SOPE   H3R12559   2.835   0.959   6.245  1.4287 -0.2287 -1.7597
  119SOPE   H3S12560   2.742   0.803   6.271  0.4136 -0.7573  0.5568
  119SOPE   C2412561   2.879   0.806   6.105 -0.7675  0.5219  0.0289
  119SOPE   H4R12562   2.983   0.844   6.092  0.6284 -2.6512  0.7413
  119SOPE   H4S12563   2.890   0.696   6.119 -1.9047  0.4830  0.6715
  119SOPE   C2512564   2.786   0.844   5.991  0.4844 -1.0705 -0.4522
  119SOPE   H5R12565   2.689   0.790   6.003 -0.1821  0.2212  0.2240
  119SOPE   H5S12566   2.767   0.952   6.009  0.9061 -0.9877 -0.4973
  119SOPE   C2612567   2.843   0.805   5.854  0.2787 -0.4926 -0.6477
  119SOPE   H6R12568   2.937   0.862   5.836  0.8950 -1.0413  0.6687
  119SOPE   H6S12569   2.875   0.699   5.862 -0.0601 -0.5353  0.1712
  119SOPE   C2712570   2.756   0.804   5.734  0.7100 -0.0374 -0.1021
  119SOPE   H7R12571   2.665   0.744   5.759  0.5942 -0.4138 -1.3559
  119SOPE   H7S12572   2.730   0.911   5.718  2.4542  0.5278  0.6788
  119SOPE   C2812573   2.813   0.744   5.601 -0.3360  0.2468 -0.3018
  119SOPE   H8R12574   2.876   0.660   5.634 -0.7716  0.5377  1.3586
  119SOPE   H8S12575   2.734   0.685   5.549  0.6236 -0.9467 -0.4224
  119SOPE   C2912576   2.896   0.837   5.518  0.1827 -0.3233  0.3908
  119SOPE   H9112577   2.931   0.930   5.566  2.5037 -0.4358 -0.9334
  119SOPE  C21012578   2.928   0.810   5.390 -0.6294 -0.3423  0.1585
  119SOPE  H10112579   2.992   0.876   5.330  0.1310 -1.2552 -0.0553
  119SOPE  C21112580   2.872   0.689   5.325  0.0097  0.7182 -0.3479
  119SOPE  H11R12581   2.763   0.688   5.345  0.2728  0.3037  1.2367
  119SOPE  H11S12582   2.924   0.597   5.359  0.8044 -0.5290 -4.3842
  119SOPE  C21212583   2.879   0.668   5.170  0.4369 -0.0831 -0.2059
  119SOPE  H12R12584   2.815   0.584   5.134 -0.8305  0.9796 -0.5407
  119SOPE  H12S12585   2.982   0.631   5.154 -0.3058 -2.0999 -0.6742
  119SOPE  C21312586   2.846   0.790   5.087  0.1236 -0.7102  0.6833
  119SOPE  H13R12587   2.903   0.881   5.118 -1.7778  0.8617 -0.1631
  119SOPE  H13S12588   2.737   0.806   5.073  0.4301  1.4509  0.3288
  119SOPE  C21412589   2.911   0.774   4.945  0.0906 -0.1274 -0.0060
  119SOPE  H14R12590   3.020   0.754   4.951  1.0457  3.9254 -0.8497
  119SOPE  H14S12591   2.904   0.873   4.894 -1.8604  0.0819  0.5943
  119SOPE  C21512592   2.844   0.674   4.857  0.0291  0.2551 -0.3385
  119SOPE  H15R12593   2.734   0.663   4.875  0.6156 -1.3746  3.0999
  119SOPE  H15S12594   2.889   0.578   4.891 -1.8115  0.2430  2.3868
  119SOPE  C21612595   2.879   0.706   4.716  0.3152  0.1980  0.8970
  119SOPE  H16R12596   2.840   0.617   4.662 -0.2234  0.0850  1.4547
  119SOPE  H16S12597   2.989   0.694   4.716  0.0990 -2.4700  0.1408
  119SOPE  C21712598   2.850   0.840   4.637 -0.3707  0.1265 -0.0291
  119SOPE  H17R12599   2.879   0.841   4.530 -0.3093  2.0127 -0.0364
  119SOPE  H17S12600   2.905   0.921   4.691 -3.3601  1.3966  1.3455
  119SOPE  C21812601   2.708   0.880   4.632  0.4943  0.0884 -0.4054
  119SOPE  H18R12602   2.672   0.925   4.727 -0.3156  0.8332 -1.0476
  119SOPE  H18S12603   2.649   0.788   4.615 -0.7000  0.1255  2.8308
  119SOPE  H18T12604   2.693   0.949   4.546 -0.0817 -0.3722 -0.6832
  119SOPE   C3312605   2.858   1.280   6.375 -0.0224 -0.2782 -0.7227
  119SOPE   H3X12606   2.868   1.170   6.379 -0.1036 -0.2460  0.6375
  119SOPE   H3Y12607   2.903   1.310   6.277  0.5135 -1.0255 -0.7073
  119SOPE   C3412608   2.706   1.299   6.364 -0.5587 -0.2254 -0.1222
  119SOPE   H4X12609   2.671   1.402   6.339 -0.5385 -0.3215 -0.5466
  119SOPE   H4Y12610   2.654   1.270   6.458  0.8731  0.2152  0.8466
  119SOPE   C3512611   2.639   1.220   6.247  0.3889 -0.0121  0.0142
  119SOPE   H5X12612   2.533   1.251   6.264  0.1453 -1.0558  0.4537
  119SOPE   H5Y12613   2.661   1.114   6.270 -0.4793 -0.3164 -0.4786
  119SOPE   C3612614   2.688   1.272   6.110  0.0588  0.2487  0.1678
  119SOPE   H6X12615   2.788   1.232   6.084 -0.1528 -0.7846  0.8893
  119SOPE   H6Y12616   2.698   1.383   6.111  1.7027  0.1273  0.2673
  119SOPE   C3712617   2.600   1.238   5.991  0.2171  0.5163  0.1220
  119SOPE   H7X12618   2.507   1.297   5.997 -0.8318 -0.6664 -2.8563
  119SOPE   H7Y12619   2.587   1.128   5.979 -1.2553  0.6434  0.4227
  119SOPE   C3812620   2.678   1.281   5.872 -1.0623  0.1550  0.6071
  119SOPE   H8X12621   2.773   1.224   5.862 -0.6428  1.1181 -1.4303
  119SOPE   H8Y12622   2.698   1.389   5.887  0.7173 -0.1128  0.4392
  119SOPE   C3912623   2.588   1.268   5.746  0.1097 -0.9669  0.0428
  119SOPE   H9X12624   2.509   1.344   5.755  0.3074 -0.8957  1.2783
  119SOPE   H9Y12625   2.530   1.174   5.739  0.7588 -1.3494 -0.3616
  119SOPE  C31012626   2.688   1.275   5.616  0.2953  0.5987 -0.1019
  119SOPE  H10X12627   2.770   1.201   5.615 -1.3348 -1.2842 -0.0061
  119SOPE  H10Y12628   2.750   1.367   5.625  0.6440  0.2207  1.9853
  119SOPE  C31112629   2.606   1.264   5.480  0.9108 -0.6711  0.3970
  119SOPE  H11X12630   2.541   1.353   5.459 -0.5626 -1.6196  0.7704
  119SOPE  H11Y12631   2.537   1.178   5.486  0.5203 -0.4287 -0.4274
  119SOPE  C31212632   2.697   1.218   5.360 -0.0112 -0.4922 -0.1084
  119SOPE  H12X12633   2.732   1.116   5.386  1.5297  0.0002 -0.1430
  119SOPE  H12Y12634   2.784   1.287   5.358 -1.2142  1.0769 -0.2319
  119SOPE  C31312635   2.630   1.218   5.222  0.5320 -0.4511  0.5225
  119SOPE  H13X12636   2.594   1.318   5.193 -0.7601  0.0933  3.6058
  119SOPE  H13Y12637   2.537   1.157   5.225  0.3325 -0.3846 -2.1544
  119SOPE  C31412638   2.717   1.156   5.114 -1.0373  0.1481 -0.6255
  119SOPE  H14X12639   2.733   1.048   5.134  0.3765  0.3111 -0.7863
  119SOPE  H14Y12640   2.812   1.209   5.137 -0.8392 -1.6968  3.5329
  119SOPE  C31512641   2.648   1.176   4.976 -0.2614  0.0713  0.5450
  119SOPE  H15X12642   2.727   1.139   4.907  0.0347  0.3043  0.7577
  119SOPE  H15Y12643   2.631   1.283   4.951 -1.2662 -0.4014 -0.9541
  119SOPE  C31612644   2.512   1.097   4.967  0.3730  0.0322  0.4228
  119SOPE  H16X12645   2.438   1.154   5.027 -0.8035  0.3460 -1.2369
  119SOPE  H16Y12646   2.525   0.993   5.003 -0.3606 -0.2581 -0.1140
  119SOPE  C31712647   2.467   1.109   4.825 -0.3895  0.3120 -0.2571
  119SOPE  H17X12648   2.550   1.081   4.756 -0.1504 -0.3925  0.2912
  119SOPE  H17Y12649   2.430   1.210   4.801 -3.4008 -0.7127 -0.3394
  119SOPE  C31812650   2.352   1.026   4.783 -0.5867 -0.0925  0.6470
  119SOPE  H18X12651   2.383   0.923   4.754 -2.0074 -0.6953  1.1609
  119SOPE  H18Y12652   2.306   1.074   4.694  0.4769 -0.3506 -0.0597
  119SOPE  H18Z12653   2.272   1.008   4.858 -0.4254 -1.4446  0.5334
  120SOPE     N12654   2.735   4.467   6.566 -0.0491  0.3583  0.6013
  120SOPE   HN112655   2.691   4.406   6.637  1.5445 -1.0032  0.4763
  120SOPE   HN212656   2.837   4.446   6.566 -0.1226 -0.0175 -0.1853
  120SOPE   HN312657   2.720   4.568   6.585  0.6969  0.5884  0.0217
  120SOPE   C1212658   2.672   4.424   6.440  0.2881  0.1846  0.1689
  120SOPE  H12A12659   2.665   4.314   6.448 -0.3213  0.3199  2.1137
  120SOPE  H12B12660   2.741   4.449   6.357  1.0507 -0.3352  0.6425
  120SOPE   C1112661   2.533   4.494   6.433  0.1714 -0.4218  0.8797
  120SOPE  H11A12662   2.495   4.468   6.332 -0.5659 -1.5615  1.4291
  120SOPE  H11B12663   2.542   4.604   6.425 -0.8203 -0.3280  0.8879
  120SOPE     P12664   2.379   4.559   6.628  0.0498 -0.2454  0.3585
  120SOPE   O1312665   2.477   4.626   6.714 -0.2700  0.0387 -0.4146
  120SOPE   O1412666   2.260   4.503   6.700  0.3247 -0.2746 -0.0716
  120SOPE   O1212667   2.457   4.444   6.542  0.4966 -0.6037 -0.4718
  120SOPE   O1112668   2.327   4.667   6.523 -0.9329 -0.0336 -0.5823
  120SOPE    C112669   2.195   4.710   6.516 -0.2596 -0.3420 -0.3989
  120SOPE    HA12670   2.203   4.799   6.449  1.2979 -1.5954 -1.9503
  120SOPE    HB12671   2.150   4.748   6.611 -0.5617  2.0421 -1.4192
  120SOPE    C212672   2.097   4.607   6.447 -0.2558 -0.4228 -0.0042
  120SOPE    HS12673   2.093   4.523   6.520  2.1819  1.9617  3.2034
  120SOPE   O2112674   2.162   4.570   6.326 -0.7665 -0.0519 -0.4572
  120SOPE   C2112675   2.127   4.455   6.280 -0.2440 -0.4678  0.1391
  120SOPE   O2212676   2.064   4.368   6.341  0.4394  0.2345 -0.1571
  120SOPE   C2212677   2.201   4.442   6.149 -0.7350  0.0329 -0.6988
  120SOPE   H2R12678   2.307   4.415   6.169 -1.1875  0.6338  3.4365
  120SOPE   H2S12679   2.203   4.542   6.102 -0.1956  1.1429  1.5344
  120SOPE    C312680   1.950   4.662   6.430 -0.2433 -0.4054 -0.3969
  120SOPE    HX12681   1.914   4.690   6.532 -1.3880  0.2206 -0.9579
  120SOPE    HY12682   1.888   4.583   6.382 -1.4946 -0.0013  0.5063
  120SOPE   O3112683   1.966   4.778   6.341 -0.1878  0.7187  0.0291
  120SOPE   C3112684   1.908   4.781   6.224 -0.5124 -0.0328  1.3183
  120SOPE   O3212685   1.825   4.699   6.177 -0.5592  0.6597 -0.2884
  120SOPE   C3212686   1.966   4.901   6.146 -0.3103  0.3795  0.1528
  120SOPE   H2X12687   2.013   4.851   6.059 -0.1508 -0.7204  0.8447
  120SOPE   H2Y12688   2.051   4.949   6.200 -1.2962  1.9865  0.3244
  120SOPE   C2312689   2.119   4.352   6.053 -0.7540  0.2798 -0.2880
  120SOPE   H3R12690   2.112   4.250   6.097  1.5914 -0.4949 -1.5297
  120SOPE   H3S12691   2.176   4.332   5.960  0.1600 -1.7475  0.6412
  120SOPE   C2412692   1.989   4.410   6.008  0.2772  0.0740  0.4677
  120SOPE   H4R12693   1.934   4.336   5.947 -0.4398  0.0828  1.0862
  120SOPE   H4S12694   1.927   4.431   6.098  0.3668 -0.7397  0.7249
  120SOPE   C2512695   2.016   4.534   5.930  0.1568  0.5635  0.6040
  120SOPE   H5R12696   2.055   4.614   5.996  3.1289 -0.1471 -0.1414
  120SOPE   H5S12697   2.099   4.514   5.859 -1.3042 -3.1800 -0.2931
  120SOPE   C2612698   1.896   4.573   5.844 -0.0576 -0.8415 -0.1315
  120SOPE   H6R12699   1.877   4.487   5.776  1.0597 -3.1969  2.3325
  120SOPE   H6S12700   1.811   4.581   5.914  1.1362 -1.5364  1.4783
  120SOPE   C2712701   1.906   4.706   5.779 -0.5910  0.4920 -0.3825
  120SOPE   H7R12702   1.803   4.748   5.790 -0.9159 -0.5922  0.8907
  120SOPE   H7S12703   1.982   4.761   5.838  0.4254 -1.2666  0.0115
  120SOPE   C2812704   1.946   4.696   5.629 -0.1776 -0.6709  0.2487
  120SOPE   H8R12705   2.045   4.648   5.624  0.0673 -0.0649 -1.1107
  120SOPE   H8S12706   1.876   4.629   5.574 -3.5110  2.0881  0.7087
  120SOPE   C2912707   1.953   4.830   5.561  0.0908 -0.1877  0.0310
  120SOPE   H9112708   1.959   4.912   5.634  1.4993  0.4874 -0.8148
  120SOPE  C21012709   1.945   4.844   5.428 -0.0073  0.0344  0.0441
  120SOPE  H10112710   1.963   4.942   5.381  1.0829 -0.5984 -0.9133
  120SOPE  C21112711   1.928   4.741   5.321  0.2871  0.1472 -0.0794
  120SOPE  H11R12712   1.843   4.768   5.255 -0.2150  0.2820  0.6127
  120SOPE  H11S12713   1.915   4.635   5.353  2.8939 -0.3682 -0.4856
  120SOPE  C21212714   2.047   4.721   5.226 -0.5974 -0.1552  0.1444
  120SOPE  H12R12715   2.137   4.674   5.272 -0.6258  1.1606  1.6578
  120SOPE  H12S12716   2.077   4.822   5.191  0.8410 -0.8632 -0.7676
  120SOPE  C21312717   2.012   4.641   5.098 -0.2900 -0.0692 -0.1397
  120SOPE  H13R12718   1.913   4.672   5.058 -0.4860 -0.5182 -0.0010
  120SOPE  H13S12719   2.018   4.531   5.108  1.4244 -0.2869 -2.6827
  120SOPE  C21412720   2.106   4.680   4.979 -0.0564 -0.2246 -0.1027
  120SOPE  H14R12721   2.210   4.668   5.017  0.6981  1.4224 -1.5480
  120SOPE  H14S12722   2.086   4.789   4.972  0.6040 -0.1239 -0.5477
  120SOPE  C21512723   2.077   4.615   4.849 -0.1560  0.3214 -0.0616
  120SOPE  H15R12724   1.991   4.662   4.797  0.5161  1.3442 -0.2743
  120SOPE  H15S12725   2.056   4.507   4.866  2.1226  0.0891  1.6542
  120SOPE  C21612726   2.204   4.600   4.754  0.3866  0.1474 -0.1107
  120SOPE  H16R12727   2.291   4.577   4.820  0.0276  1.2137  0.7666
  120SOPE  H16S12728   2.222   4.697   4.703 -1.2864  0.6564  0.2036
  120SOPE  C21712729   2.197   4.483   4.661  0.2112 -0.1692  0.2281
  120SOPE  H17R12730   2.192   4.394   4.728 -1.9854  0.4391  0.9659
  120SOPE  H17S12731   2.297   4.490   4.613 -0.6818  0.9510 -1.5917
  120SOPE  C21812732   2.076   4.475   4.569 -0.1676 -0.0793  0.4577
  120SOPE  H18R12733   1.979   4.477   4.623 -0.4671 -1.2642  0.0011
  120SOPE  H18S12734   2.086   4.388   4.500 -0.9811  1.1360 -1.2744
  120SOPE  H18T12735   2.065   4.565   4.504 -1.4432 -1.1124 -0.8176
  120SOPE   C3312736   1.861   4.999   6.104 -0.1996 -0.0245  0.6055
  120SOPE   H3X12737   1.817   5.055   6.189  1.2436 -1.6976  2.5249
  120SOPE   H3Y12738   1.771   4.939   6.078  1.0505 -1.9666  0.5264
  120SOPE   C3412739   1.911   5.104   5.999  1.1600  0.7600 -0.2213
  120SOPE   H4X12740   1.917   5.053   5.900 -0.9488  0.3218 -0.1662
  120SOPE   H4Y12741   2.008   5.130   6.046  0.8053 -0.4927  1.3221
  120SOPE   C3512742   1.819   5.227   5.981 -0.2802 -0.2299  0.5088
  120SOPE   H5X12743   1.867   5.285   5.899  0.6920  0.2207  1.3739
  120SOPE   H5Y12744   1.839   5.297   6.065 -0.2482 -1.7156  1.7734
  120SOPE   C3612745   1.675   5.204   5.952  0.6815 -0.2207 -0.1316
  120SOPE   H6X12746   1.611   5.293   5.968 -1.4944 -1.9915  1.6748
  120SOPE   H6Y12747   1.634   5.147   6.038 -0.5883  0.2047 -0.4276
  120SOPE   C3712748   1.636   5.132   5.819  0.0762 -0.5688 -0.6347
  120SOPE   H7X12749   1.526   5.130   5.805 -0.4704  1.8383  2.2325
  120SOPE   H7Y12750   1.672   5.027   5.833  0.7585 -0.0464  2.0720
  120SOPE   C3812751   1.706   5.189   5.701  0.4960  0.3254  0.4701
  120SOPE   H8X12752   1.816   5.177   5.713  0.3984 -0.4360  0.6687
  120SOPE   H8Y12753   1.689   5.298   5.689 -0.4764  0.5530  3.2563
  120SOPE   C3912754   1.674   5.107   5.567 -0.7404 -0.8626 -0.1338
  120SOPE   H9X12755   1.563   5.110   5.561 -0.8494 -0.0860  1.5209
  120SOPE   H9Y12756   1.703   5.003   5.594 -1.5811 -1.5971 -1.9175
  120SOPE  C31012757   1.725   5.157   5.433  0.2146  0.1122  0.8327
  120SOPE  H10X12758   1.836   5.156   5.433  0.2649  0.0120 -1.3856
  120SOPE  H10Y12759   1.679   5.255   5.410 -1.1713 -0.5417  0.6981
  120SOPE  C31112760   1.669   5.073   5.318  0.4311 -0.0980 -0.3412
  120SOPE  H11X12761   1.558   5.066   5.314  0.4847 -1.3420 -0.2217
  120SOPE  H11Y12762   1.706   4.968   5.325 -3.8376 -2.1103 -3.2231
  120SOPE  C31212763   1.712   5.113   5.179 -0.4037 -0.1243 -0.3447
  120SOPE  H12X12764   1.817   5.146   5.194  0.0446 -1.7018  0.1692
  120SOPE  H12Y12765   1.650   5.200   5.147 -1.1927 -0.7183 -0.4438
  120SOPE  C31312766   1.719   5.005   5.065 -0.4438  0.0398  0.1380
  120SOPE  H13X12767   1.617   4.960   5.062 -1.3818  2.0355  0.0379
  120SOPE  H13Y12768   1.803   4.934   5.079 -0.1504  0.3086 -0.2567
  120SOPE  C31412769   1.729   5.058   4.925  0.1814 -0.8552  0.4195
  120SOPE  H14X12770   1.659   5.135   4.888  2.8079  0.6158 -1.8774
  120SOPE  H14Y12771   1.711   4.978   4.849 -1.9428  0.5752 -0.6911
  120SOPE  C31512772   1.866   5.115   4.890  0.2295 -0.3662  0.0114
  120SOPE  H15X12773   1.936   5.028   4.887  0.7431  0.0679 -2.5373
  120SOPE  H15Y12774   1.906   5.186   4.965 -0.5756  0.8629 -0.7023
  120SOPE  C31612775   1.864   5.183   4.755  0.4777  0.1457  0.4095
  120SOPE  H16X12776   1.949   5.250   4.729 -0.8286  1.2243 -1.3043
  120SOPE  H16Y12777   1.769   5.241   4.753 -0.2312 -0.9958  0.0240
  120SOPE  C31712778   1.859   5.077   4.644  0.0010 -0.3567 -0.6834
  120SOPE  H17X12779   1.781   4.998   4.650  0.5068 -0.8699 -0.7513
  120SOPE  H17Y12780   1.955   5.022   4.656 -0.1818 -0.1448  2.3561
  120SOPE  C31812781   1.858   5.144   4.510 -0.0195  0.2022 -0.0566
  120SOPE  H18X12782   1.874   5.067   4.431  0.1050 -0.7292  0.8421
  120SOPE  H18Y12783   1.943   5.215   4.504 -0.7816  1.2150  0.6649
  120SOPE  H18Z12784   1.758   5.184   4.485 -0.2128 -0.2165  0.0418
  121SOPE     N12785   0.208   0.695   6.859  0.2876  0.1860  0.3600
  121SOPE   HN112786   0.184   0.635   6.940  1.2051 -0.2904  0.2928
  121SOPE   HN212787   0.214   0.795   6.889 -0.4563  1.4403 -3.1415
  121SOPE   HN312788   0.124   0.685   6.798 -0.5669  0.7167  1.4205
  121SOPE   C1212789   0.334   0.651   6.784  0.0910 -0.4826  0.9489
  121SOPE  H12A12790   0.406   0.611   6.858  0.0621 -0.1286  1.1710
  121SOPE  H12B12791   0.377   0.744   6.741 -0.4238 -0.7338 -0.1613
  121SOPE   C1112792   0.292   0.557   6.662 -0.5529  0.3763 -0.2748
  121SOPE  H11A12793   0.381   0.530   6.602  0.8273  1.3517  1.2202
  121SOPE  H11B12794   0.230   0.626   6.601  0.5017 -0.0076 -1.8309
  121SOPE     P12795   0.251   0.298   6.654 -0.1860  0.1703 -0.3522
  121SOPE   O1312796   0.128   0.214   6.670 -0.2686  0.0140 -0.6150
  121SOPE   O1412797   0.372   0.259   6.725  0.2179  0.5718  0.2434
  121SOPE   O1212798   0.219   0.446   6.708  0.0738 -0.4608  0.3988
  121SOPE   O1112799   0.279   0.320   6.502  0.7689 -0.2152 -0.0026
  121SOPE    C112800   0.187   0.368   6.401  0.2583  0.0127  0.1280
  121SOPE    HA12801   0.249   0.423   6.327 -0.0166 -1.1963 -1.0442
  121SOPE    HB12802   0.117   0.442   6.446 -1.1554 -1.9697  1.3303
  121SOPE    C212803   0.118   0.260   6.318 -0.0101  0.4312  0.3333
  121SOPE    HS12804   0.092   0.175   6.385  0.3587 -0.4697 -0.6438
  121SOPE   O2112805   0.203   0.218   6.209  0.5925  0.3048  0.0125
  121SOPE   C2112806   0.170   0.102   6.139  0.5412 -0.1099 -0.4867
  121SOPE   O2212807   0.080   0.028   6.162  0.0678  1.0516  1.0143
  121SOPE   C2212808   0.277   0.098   6.021 -0.1778  0.0074 -0.3450
  121SOPE   H2R12809   0.369   0.068   6.075  0.0273  1.4229  0.1203
  121SOPE   H2S12810   0.300   0.195   5.972 -1.4301  0.9714  0.8650
  121SOPE    C312811  -0.000   0.328   6.237 -0.4917 -0.2804 -0.8410
  121SOPE    HX12812  -0.082   0.361   6.304  1.0335 -0.1146  1.0187
  121SOPE    HY12813  -0.048   0.245   6.180  0.0880 -0.8754 -0.4813
  121SOPE   O3112814   0.041   0.445   6.159 -0.3497 -0.1274 -0.0865
  121SOPE   C3112815   0.043   0.420   6.021 -0.1237 -0.3809  0.1456
  121SOPE   O3212816   0.025   0.309   5.978  0.1365 -0.3717  0.4193
  121SOPE   C3212817   0.095   0.547   5.935 -0.2141  0.6691 -0.2908
  121SOPE   H2X12818   0.195   0.514   5.898 -0.4854  0.4283 -0.8208
  121SOPE   H2Y12819   0.101   0.634   6.004 -0.5569  1.5688 -1.3640
  121SOPE   C2312820   0.256  -0.011   5.910  0.5438  0.2948 -0.1985
  121SOPE   H3R12821   0.225  -0.107   5.957 -0.4269  1.0590  0.7581
  121SOPE   H3S12822   0.351  -0.025   5.854  0.3137  0.3111 -0.5904
  121SOPE   C2412823   0.142   0.011   5.811  0.3421 -0.0913 -0.6318
  121SOPE   H4R12824   0.126  -0.086   5.760 -0.4070 -0.0250 -0.5324
  121SOPE   H4S12825   0.043   0.038   5.853  0.3937  0.2232 -0.7140
  121SOPE   C2512826   0.169   0.114   5.696 -0.0945  0.2287 -0.0067
  121SOPE   H5R12827   0.176   0.216   5.738  0.0716 -0.1293  0.8559
  121SOPE   H5S12828   0.268   0.084   5.656  1.7405  4.0216  1.2644
  121SOPE   C2612829   0.067   0.112   5.582  0.4365  0.5600 -0.1384
  121SOPE   H6R12830   0.114   0.161   5.494  1.3107  0.8345  0.4712
  121SOPE   H6S12831   0.041   0.011   5.545  0.9805  0.2981  0.1821
  121SOPE   C2712832  -0.063   0.189   5.598  0.5398  0.1016 -0.5793
  121SOPE   H7R12833  -0.101   0.159   5.699  1.2635  1.4140  0.1101
  121SOPE   H7S12834  -0.046   0.298   5.594  0.0521  0.2216  0.3452
  121SOPE   C2812835  -0.176   0.155   5.488  0.0582 -0.1101 -0.2225
  121SOPE   H8R12836  -0.222   0.062   5.528 -1.0366  0.7361  0.5410
  121SOPE   H8S12837  -0.255   0.228   5.512  0.2762 -1.0441  4.2164
  121SOPE   C2912838  -0.136   0.162   5.340  0.2383  0.5381  0.8384
  121SOPE   H9112839  -0.032   0.133   5.317  0.6236  1.6672  1.0801
  121SOPE  C21012840  -0.219   0.213   5.241  0.7462 -0.8880  0.0707
  121SOPE  H10112841  -0.189   0.195   5.137 -1.3411 -3.8001 -0.1480
  121SOPE  C21112842  -0.354   0.280   5.265 -0.9488  0.0486  0.1965
  121SOPE  H11R12843  -0.337   0.389   5.278 -0.7421  0.0284  0.0996
  121SOPE  H11S12844  -0.410   0.247   5.355 -2.6652  0.5331 -0.6525
  121SOPE  C21212845  -0.455   0.252   5.152 -0.2344 -0.4668  0.3393
  121SOPE  H12R12846  -0.553   0.273   5.201  0.4772  1.3647  1.0578
  121SOPE  H12S12847  -0.452   0.144   5.123  0.9117 -0.3187 -0.1322
  121SOPE  C21312848  -0.411   0.338   5.039  0.0059  0.9683  0.1395
  121SOPE  H13R12849  -0.324   0.303   4.981 -0.3063 -0.3284  0.4304
  121SOPE  H13S12850  -0.390   0.439   5.080 -2.5101  0.9941  1.5615
  121SOPE  C21412851  -0.527   0.361   4.935 -0.0676 -0.0551 -0.1289
  121SOPE  H14R12852  -0.616   0.391   4.995 -0.1908 -1.4090  0.3979
  121SOPE  H14S12853  -0.546   0.262   4.889 -0.3813 -0.3731  0.6716
  121SOPE  C21512854  -0.503   0.471   4.833 -0.0530 -0.5490  0.2852
  121SOPE  H15R12855  -0.482   0.569   4.880  0.5143 -1.0331  1.0751
  121SOPE  H15S12856  -0.595   0.479   4.771 -1.2272  0.4808  2.0574
  121SOPE  C21612857  -0.382   0.449   4.739  0.8862 -0.8710 -0.1601
  121SOPE  H16R12858  -0.382   0.348   4.694 -1.1039  0.0781 -2.5398
  121SOPE  H16S12859  -0.294   0.460   4.805  2.0094  1.9368 -1.9411
  121SOPE  C21712860  -0.389   0.551   4.624 -0.8526  0.3249 -0.0106
  121SOPE  H17R12861  -0.349   0.639   4.678  0.4276 -1.8693  2.9418
  121SOPE  H17S12862  -0.496   0.566   4.595 -1.3744 -1.3369  0.9164
  121SOPE  C21812863  -0.308   0.520   4.499  0.0594  0.6174  0.8473
  121SOPE  H18R12864  -0.332   0.421   4.455 -2.6642  1.2535  0.7349
  121SOPE  H18S12865  -0.197   0.516   4.512  0.0849 -0.7628  0.4077
  121SOPE  H18T12866  -0.320   0.598   4.421 -1.6630 -0.2476  0.1922
  121SOPE   C3312867  -0.004   0.569   5.816  0.3663  0.2904  0.1642
  121SOPE   H3X12868  -0.048   0.671   5.824  1.6961  0.8583  0.3973
  121SOPE   H3Y12869  -0.090   0.498   5.826  0.1297  0.5816  0.2128
  121SOPE   C3412870   0.069   0.550   5.682  0.6169  0.0821  0.3034
  121SOPE   H4X12871   0.091   0.443   5.663 -0.4448  0.1757 -1.7565
  121SOPE   H4Y12872   0.169   0.597   5.684  0.9669 -0.6303 -0.1625
  121SOPE   C3512873  -0.023   0.609   5.568  0.0902  0.5366 -0.3836
  121SOPE   H5X12874  -0.007   0.719   5.571 -1.0384  0.7022  1.7826
  121SOPE   H5Y12875  -0.127   0.589   5.601  0.6831  1.3711  2.2879
  121SOPE   C3612876   0.033   0.560   5.432 -0.5448 -0.1786  0.7337
  121SOPE   H6X12877   0.052   0.451   5.449  1.4383  0.5199  3.9271
  121SOPE   H6Y12878   0.126   0.609   5.397 -0.5435 -1.2692 -0.9140
  121SOPE   C3712879  -0.062   0.588   5.326  0.3862 -0.1729 -0.4111
  121SOPE   H7X12880  -0.107   0.686   5.352  0.6527 -0.3986  0.9641
  121SOPE   H7Y12881  -0.139   0.508   5.325 -1.3134  1.3284  1.5793
  121SOPE   C3812882  -0.000   0.611   5.187  0.1533  0.1589  0.7333
  121SOPE   H8X12883   0.059   0.520   5.163 -3.1387 -1.8097 -0.5662
  121SOPE   H8Y12884   0.068   0.698   5.184  0.2063  0.0988 -0.6061
  121SOPE   C3912885  -0.112   0.633   5.079 -0.4133 -0.0412 -0.4791
  121SOPE   H9X12886  -0.184   0.708   5.118 -0.2203 -0.1247  0.0355
  121SOPE   H9Y12887  -0.162   0.533   5.076  0.7018 -0.6902  1.2290
  121SOPE  C31012888  -0.050   0.681   4.950  0.6865  0.2435  0.2853
  121SOPE  H10X12889   0.013   0.773   4.955  1.0266  0.0781 -0.7245
  121SOPE  H10Y12890  -0.142   0.698   4.890  0.9651  1.1733  0.0968
  121SOPE  C31112891   0.031   0.568   4.877 -0.5425  0.6958  0.2321
  121SOPE  H11X12892  -0.022   0.471   4.890  1.4936 -0.8785 -2.1133
  121SOPE  H11Y12893   0.134   0.556   4.918  0.4310 -0.2323 -2.2991
  121SOPE  C31212894   0.043   0.585   4.722 -1.2411  0.3902 -0.6576
  121SOPE  H12X12895   0.099   0.676   4.695  1.4999 -0.9975  0.0211
  121SOPE  H12Y12896  -0.052   0.623   4.678  0.5247  3.5080 -2.1169
  121SOPE  C31312897   0.099   0.471   4.637 -0.2604  0.1857 -0.0110
  121SOPE  H13X12898   0.111   0.503   4.531  0.6378 -2.3044 -0.7206
  121SOPE  H13Y12899   0.033   0.384   4.653 -1.3227  1.2804  1.9493
  121SOPE  C31412900   0.238   0.413   4.671  0.0083  0.5189  0.5859
  121SOPE  H14X12901   0.236   0.370   4.773  0.6320 -0.3143  0.2594
  121SOPE  H14Y12902   0.300   0.505   4.668  0.2044  0.3592 -0.6489
  121SOPE  C31512903   0.294   0.313   4.576 -0.7013  0.2900  0.7993
  121SOPE  H15X12904   0.306   0.360   4.476 -0.7300  0.1285  0.7208
  121SOPE  H15Y12905   0.225   0.228   4.564 -1.1774  0.5737  1.4566
  121SOPE  C31612906   0.430   0.270   4.625 -0.0461 -0.0453  0.2051
  121SOPE  H16X12907   0.424   0.219   4.724  2.5086 -0.7667  0.0589
  121SOPE  H16Y12908   0.494   0.361   4.628  0.9264 -0.7409  1.8228
  121SOPE  C31712909   0.507   0.181   4.529  0.2513 -0.1024 -1.2634
  121SOPE  H17X12910   0.612   0.171   4.565 -0.0028 -0.3263 -0.5741
  121SOPE  H17Y12911   0.504   0.233   4.431 -0.3442 -0.5069 -1.4617
  121SOPE  C31812912   0.442   0.045   4.510  0.3104 -0.2578  0.6610
  121SOPE  H18X12913   0.344   0.053   4.457  1.4597  0.9122 -1.4485
  121SOPE  H18Y12914   0.418  -0.002   4.607  2.4311 -1.2171  0.7693
  121SOPE  H18Z12915   0.505  -0.025   4.452  0.7232  0.6370 -0.0102
  122SOPE     N12916   1.369   6.487   6.232 -0.0808 -0.0811 -0.0485
  122SOPE   HN112917   1.437   6.438   6.170 -0.0155  3.1236 -2.8094
  122SOPE   HN212918   1.328   6.565   6.176 -0.8290 -0.2897  0.2052
  122SOPE   HN312919   1.428   6.528   6.307 -0.8062  0.1260  0.4118
  122SOPE   C1212920   1.277   6.391   6.301 -0.2276 -0.0949 -0.1291
  122SOPE  H12A12921   1.300   6.287   6.269 -2.2798 -0.8972  0.8459
  122SOPE  H12B12922   1.174   6.401   6.260  0.0143 -2.0825 -1.3543
  122SOPE   C1112923   1.318   6.390   6.451  0.0820 -0.4142  0.2791
  122SOPE  H11A12924   1.259   6.312   6.503  1.6511 -1.0289  1.1744
  122SOPE  H11B12925   1.294   6.487   6.499  1.8602  0.1323  0.1205
  122SOPE     P12926   1.503   6.217   6.509  0.2062  0.3140  0.2173
  122SOPE   O1312927   1.433   6.183   6.637 -0.1276 -0.5405 -0.0559
  122SOPE   O1412928   1.655   6.213   6.515  0.6127  0.0030  0.1452
  122SOPE   O1212929   1.454   6.363   6.465  0.2932 -0.0131  0.8409
  122SOPE   O1112930   1.448   6.120   6.403  0.0460  0.5023 -0.2218
  122SOPE    C112931   1.506   5.994   6.387 -0.7168  0.3820 -0.3108
  122SOPE    HA12932   1.484   5.927   6.473 -0.4183  0.6826  0.0079
  122SOPE    HB12933   1.616   6.005   6.372  0.2424 -3.0143  2.7575
  122SOPE    C212934   1.454   5.917   6.261 -0.4377 -0.8140 -0.1610
  122SOPE    HS12935   1.345   5.898   6.270 -0.2870 -2.5733 -1.5735
  122SOPE   O2112936   1.519   5.789   6.259 -0.7243  0.1925  0.7567
  122SOPE   C2112937   1.454   5.696   6.182  0.2765 -1.1569 -0.3568
  122SOPE   O2212938   1.342   5.705   6.140  0.2407  0.3076 -0.7195
  122SOPE   C2212939   1.542   5.575   6.152 -0.0426  0.3464 -0.7390
  122SOPE   H2R12940   1.479   5.492   6.114  0.6122  0.0341 -1.1763
  122SOPE   H2S12941   1.599   5.547   6.243  0.6945 -0.9942 -1.5612
  122SOPE    C312942   1.491   5.999   6.131  0.1931  0.2536  0.3914
  122SOPE    HX12943   1.602   6.007   6.135  0.2239 -0.3203  0.8784
  122SOPE    HY12944   1.453   6.103   6.137  1.9851  1.1819 -2.2492
  122SOPE   O3112945   1.464   5.936   6.006  0.0151  0.1497 -0.3868
  122SOPE   C3112946   1.340   5.964   5.967 -1.4327 -0.2937  1.0295
  122SOPE   O3212947   1.256   6.017   6.037  0.1354 -0.0975  0.6547
  122SOPE   C3212948   1.333   5.946   5.809 -0.0637 -0.3232  0.1579
  122SOPE   H2X12949   1.408   5.868   5.784 -0.3312 -0.9415  1.2389
  122SOPE   H2Y12950   1.369   6.038   5.759 -2.4996 -0.2039 -1.6139
  122SOPE   C2312951   1.643   5.610   6.038 -0.5013  0.2999  0.5537
  122SOPE   H3R12952   1.717   5.527   6.036 -0.0114  0.6954 -1.8915
  122SOPE   H3S12953   1.700   5.699   6.073 -0.7529  1.1056 -1.0018
  122SOPE   C2412954   1.564   5.621   5.897 -0.5468  0.6720  0.1883
  122SOPE   H4R12955   1.498   5.533   5.880 -0.6216  0.7460  0.0865
  122SOPE   H4S12956   1.504   5.714   5.895 -0.5566  0.6815 -1.9464
  122SOPE   C2512957   1.657   5.628   5.774  0.1616  0.4868 -0.7203
  122SOPE   H5R12958   1.700   5.729   5.765 -1.3191  1.2010 -0.0729
  122SOPE   H5S12959   1.745   5.562   5.788  0.5550  0.8108 -1.6320
  122SOPE   C2612960   1.593   5.587   5.637  0.1070  0.5294  0.7118
  122SOPE   H6R12961   1.536   5.492   5.640 -3.4042  2.4142 -0.6280
  122SOPE   H6S12962   1.520   5.668   5.615 -0.8292 -1.2132 -3.5685
  122SOPE   C2712963   1.699   5.569   5.521  0.1261 -0.1304 -0.2388
  122SOPE   H7R12964   1.738   5.672   5.501 -0.4957 -0.0832 -1.2723
  122SOPE   H7S12965   1.783   5.503   5.549 -0.9042 -1.5936 -0.5127
  122SOPE   C2812966   1.631   5.532   5.385  0.3105 -0.5822 -0.6509
  122SOPE   H8R12967   1.719   5.499   5.326 -0.9184 -0.0548 -2.8809
  122SOPE   H8S12968   1.575   5.442   5.418  1.7276 -0.5673  2.1758
  122SOPE   C2912969   1.550   5.632   5.298  0.3770  0.7002 -0.2508
  122SOPE   H9112970   1.503   5.715   5.352 -0.5521  0.2611 -0.3766
  122SOPE  C21012971   1.502   5.608   5.175 -0.3108  0.0161 -0.6701
  122SOPE  H10112972   1.442   5.682   5.119 -0.1485  0.9873  0.4096
  122SOPE  C21112973   1.515   5.484   5.096  1.0235 -0.3122  0.5948
  122SOPE  H11R12974   1.409   5.451   5.084  1.2713 -1.0194  0.2652
  122SOPE  H11S12975   1.569   5.411   5.160  1.5351  1.7164  2.6040
  122SOPE  C21212976   1.588   5.495   4.963  0.0800 -0.0311  0.9052
  122SOPE  H12R12977   1.605   5.389   4.934  0.6982  0.6860 -1.6106
  122SOPE  H12S12978   1.690   5.535   4.977  1.3000 -3.0553  1.3134
  122SOPE  C21312979   1.502   5.558   4.847  0.2185  0.1936 -0.0711
  122SOPE  H13R12980   1.472   5.662   4.873  0.9379  0.4575 -0.2873
  122SOPE  H13S12981   1.406   5.502   4.853  1.9483 -2.8972  0.6614
  122SOPE  C21412982   1.567   5.563   4.710  0.3427  0.1535 -0.3488
  122SOPE  H14R12983   1.674   5.578   4.735  0.4251 -1.1297  0.1613
  122SOPE  H14S12984   1.529   5.654   4.659  0.7817  0.2163 -0.5724
  122SOPE  C21512985   1.534   5.442   4.627 -0.2590  0.2977  0.4909
  122SOPE  H15R12986   1.425   5.433   4.608 -0.1330 -0.4967  0.0756
  122SOPE  H15S12987   1.571   5.350   4.679 -2.4787 -0.1298  1.4241
  122SOPE  C21612988   1.584   5.464   4.480  0.1448 -0.1715  0.3993
  122SOPE  H16R12989   1.695   5.467   4.484  0.1535  1.2142 -0.1225
  122SOPE  H16S12990   1.559   5.571   4.462  0.1094 -0.2501 -0.0160
  122SOPE  C21712991   1.539   5.375   4.369  0.3954 -0.1389  0.3995
  122SOPE  H17R12992   1.431   5.355   4.383  0.6154 -0.0054  2.5045
  122SOPE  H17S12993   1.590   5.278   4.385 -1.3974 -1.4837 -1.5027
  122SOPE  C21812994   1.558   5.424   4.228 -0.2881 -0.6421  0.7484
  122SOPE  H18R12995   1.667   5.433   4.206 -0.4422  0.2241  0.2825
  122SOPE  H18S12996   1.507   5.522   4.211  2.0682  0.5312 -0.0129
  122SOPE  H18T12997   1.521   5.353   4.150  0.9690  0.7156 -1.1881
  122SOPE   C3312998   1.191   5.894   5.755 -0.7081  0.4715  0.6675
  122SOPE   H3X12999   1.114   5.968   5.785 -1.6212 -0.2092  0.0428
  122SOPE   H3Y13000   1.158   5.798   5.800 -1.5338  0.8855  0.9499
  122SOPE   C3413001   1.168   5.897   5.601 -0.2821  0.0108 -0.4276
  122SOPE   H4X13002   1.165   6.005   5.577 -0.6543 -0.5469 -3.3256
  122SOPE   H4Y13003   1.068   5.851   5.589 -0.5474  0.3011  0.6039
  122SOPE   C3513004   1.259   5.804   5.512  0.2422 -0.6218  0.0405
  122SOPE   H5X13005   1.260   5.697   5.542 -0.3142 -0.3665  1.0205
  122SOPE   H5Y13006   1.363   5.840   5.525 -0.2125  0.9405 -0.4017
  122SOPE   C3613007   1.224   5.814   5.358  0.4715  0.7855 -0.4891
  122SOPE   H6X13008   1.125   5.769   5.335  2.0366 -2.2334 -1.8614
  122SOPE   H6Y13009   1.300   5.752   5.306 -1.4990 -1.4575 -0.8459
  122SOPE   C3713010   1.207   5.955   5.296  0.0443 -0.7813 -0.4272
  122SOPE   H7X13011   1.277   6.029   5.342  0.8973 -0.2756 -2.4350
  122SOPE   H7Y13012   1.104   5.990   5.318 -0.2094 -2.3652  1.1275
  122SOPE   C3813013   1.234   5.954   5.145  0.4319  0.1327 -0.0783
  122SOPE   H8X13014   1.190   5.870   5.088  0.8192  0.2203 -0.5144
  122SOPE   H8Y13015   1.344   5.939   5.138  0.5586 -0.1965  1.8651
  122SOPE   C3913016   1.196   6.084   5.074 -0.5536 -0.3807  0.0556
  122SOPE   H9X13017   1.237   6.079   4.970 -1.1523  0.3893 -0.2373
  122SOPE   H9Y13018   1.245   6.175   5.116 -0.1558 -0.4186 -0.3108
  122SOPE  C31013019   1.044   6.086   5.064  0.1264 -0.1054  0.2520
  122SOPE  H10X13020   0.996   6.148   5.143 -2.9963 -2.6439  0.5533
  122SOPE  H10Y13021   1.007   5.981   5.072  1.9369 -0.7249  1.1913
  122SOPE  C31113022   0.992   6.151   4.934 -0.1004  0.8473 -0.0549
  122SOPE  H11X13023   0.881   6.143   4.936 -0.1180  0.8878 -0.8370
  122SOPE  H11Y13024   1.014   6.100   4.838 -2.0289 -0.3980  0.1107
  122SOPE  C31213025   1.034   6.304   4.930  0.4396  0.0238 -0.3925
  122SOPE  H12X13026   1.143   6.310   4.909  0.6192  0.3558  0.5566
  122SOPE  H12Y13027   1.007   6.341   5.032 -2.3434 -0.7097 -0.7750
  122SOPE  C31313028   0.953   6.386   4.830 -0.9227 -0.3625 -0.2169
  122SOPE  H13X13029   0.957   6.346   4.727 -0.7456  1.5798 -1.0056
  122SOPE  H13Y13030   1.016   6.477   4.826 -3.6908  1.6575 -1.0744
  122SOPE  C31413031   0.812   6.429   4.873  0.0479  0.0642  0.6307
  122SOPE  H14X13032   0.827   6.483   4.969 -0.3432  0.9894  0.1760
  122SOPE  H14Y13033   0.758   6.333   4.892 -1.1618  0.4205 -0.8039
  122SOPE  C31513034   0.743   6.532   4.778  0.2521  0.0968 -0.0105
  122SOPE  H15X13035   0.723   6.481   4.681  1.5755 -0.5153  0.0145
  122SOPE  H15Y13036   0.818   6.613   4.763  0.7253 -0.1187  1.0893
  122SOPE  C31613037   0.616   6.577   4.840 -0.7658  0.3061  0.5943
  122SOPE  H16X13038   0.649   6.619   4.938 -0.7267 -0.2043  0.8016
  122SOPE  H16Y13039   0.542   6.494   4.838 -1.5489  0.9390 -3.2081
  122SOPE  C31713040   0.556   6.690   4.761 -0.0493  0.1496 -0.7973
  122SOPE  H17X13041   0.523   6.645   4.665 -0.5219  0.7820 -0.9422
  122SOPE  H17Y13042   0.621   6.775   4.731  0.9189 -0.0610  0.6432
  122SOPE  C31813043   0.430   6.736   4.841 -0.2492 -0.1405  0.4231
  122SOPE  H18X13044   0.382   6.816   4.781 -0.0918 -0.7905 -0.5878
  122SOPE  H18Y13045   0.467   6.783   4.935  0.1497  0.6492 -0.1291
  122SOPE  H18Z13046   0.352   6.661   4.867 -0.2858 -0.4436 -0.5265
  123SOPE     N13047   4.597   6.361   2.391 -0.1732  0.0566  0.7407
  123SOPE   HN113048   4.604   6.339   2.492  2.0452 -0.2037  0.5732
  123SOPE   HN213049   4.513   6.307   2.361 -0.4065  0.6862  0.2387
  123SOPE   HN313050   4.673   6.320   2.333 -0.3977  0.4184  0.1849
  123SOPE   C1213051   4.552   6.505   2.363 -0.2882  0.3250 -0.7435
  123SOPE  H12A13052   4.454   6.518   2.412  1.1170  0.3836  2.2720
  123SOPE  H12B13053   4.550   6.515   2.252  2.0828  2.5212 -0.6816
  123SOPE   C1113054   4.665   6.596   2.407 -0.7228 -0.5196 -0.2157
  123SOPE  H11A13055   4.684   6.578   2.515 -4.3914  0.1685  0.6810
  123SOPE  H11B13056   4.626   6.698   2.386  0.4514  0.2545  1.1610
  123SOPE     P13057   4.912   6.673   2.334 -0.0755  0.3293  0.0356
  123SOPE   O1313058   4.880   6.813   2.353  0.0825 -0.4284 -0.3006
  123SOPE   O1413059   4.995   6.652   2.212 -0.1687 -0.3059  0.3319
  123SOPE   O1213060   4.779   6.583   2.325 -0.2086 -0.2024  0.0933
  123SOPE   O1113061   4.992   6.619   2.458 -0.0843  0.4254  0.2949
  123SOPE    C113062   4.966   6.483   2.501 -0.7406 -0.0022 -0.2451
  123SOPE    HA13063   4.953   6.415   2.414 -0.4168 -1.0034  0.4780
  123SOPE    HB13064   4.867   6.478   2.551 -0.7035 -0.4954 -0.2105
  123SOPE    C213065   5.083   6.421   2.582  0.0080  0.1560 -0.0647
  123SOPE    HS13066   5.057   6.314   2.602 -2.4498  0.7540  0.3396
  123SOPE   O2113067   5.087   6.509   2.701 -0.3788 -0.0408  0.1348
  123SOPE   C2113068   5.006   6.464   2.796  0.2536 -0.3579 -0.0844
  123SOPE   O2213069   4.943   6.363   2.791  0.1416  0.3319  0.2017
  123SOPE   C2213070   5.004   6.555   2.918 -0.2048 -0.1275 -0.1860
  123SOPE   H2R13071   4.927   6.630   2.889 -1.3688 -1.2962 -0.1953
  123SOPE   H2S13072   5.107   6.596   2.929 -0.7408  0.5251  3.8710
  123SOPE    C313073   5.221   6.424   2.512 -0.2325  0.0039  0.0054
  123SOPE    HX13074   5.262   6.525   2.489  1.4685 -0.3342  1.3616
  123SOPE    HY13075   5.205   6.359   2.423  0.8298  1.8453 -1.6133
  123SOPE   O3113076   5.315   6.350   2.591  0.2376 -0.4208 -0.2556
  123SOPE   C3113077   5.408   6.423   2.658 -0.3762 -0.7696  0.1530
  123SOPE   O3213078   5.428   6.543   2.644  0.6198 -0.0065 -0.3777
  123SOPE   C3213079   5.490   6.330   2.734 -0.9392  0.7399  0.4079
  123SOPE   H2X13080   5.574   6.385   2.781 -2.6479  2.2337  1.8971
  123SOPE   H2Y13081   5.522   6.256   2.657 -0.4018  0.5540  0.8017
  123SOPE   C2313082   4.962   6.488   3.056 -0.5548  0.3555 -0.7227
  123SOPE   H3R13083   4.859   6.448   3.051 -0.2409 -0.8092  1.1021
  123SOPE   H3S13084   4.970   6.573   3.127 -0.5676 -0.6179  0.4797
  123SOPE   C2413085   5.058   6.379   3.101 -0.6666 -0.2163  0.8140
  123SOPE   H4R13086   5.048   6.294   3.030 -2.9334 -1.2471  2.2462
  123SOPE   H4S13087   5.160   6.423   3.103 -0.1266 -1.4298  0.5507
  123SOPE   C2513088   5.011   6.319   3.232 -0.2203  0.9355  0.3842
  123SOPE   H5R13089   4.994   6.395   3.311 -3.7098 -0.4603  1.1677
  123SOPE   H5S13090   4.910   6.273   3.224 -0.8085  2.3114 -0.5517
  123SOPE   C2613091   5.114   6.218   3.284 -0.1094 -0.3399  0.1871
  123SOPE   H6R13092   5.112   6.124   3.224  0.8201 -1.0368  1.2105
  123SOPE   H6S13093   5.212   6.270   3.289 -1.3010  1.9636  1.6979
  123SOPE   C2713094   5.073   6.174   3.428  0.4640 -0.2169  0.2579
  123SOPE   H7R13095   5.069   6.268   3.487  3.2205  0.7424 -0.9269
  123SOPE   H7S13096   4.974   6.124   3.430  1.4975 -2.3920 -0.1461
  123SOPE   C2813097   5.177   6.075   3.495 -0.0320  0.0150 -0.2635
  123SOPE   H8R13098   5.117   6.016   3.567  0.4659 -0.3566 -0.1438
  123SOPE   H8S13099   5.210   6.001   3.419 -0.2035 -0.3860  0.0495
  123SOPE   C2913100   5.298   6.137   3.560  0.3679  0.0638  0.1400
  123SOPE   H9113101   5.365   6.180   3.484 -1.5647 -1.4129 -2.5864
  123SOPE  C21013102   5.334   6.135   3.692  0.6808  0.4466  0.1083
  123SOPE  H10113103   5.430   6.174   3.728  1.3549 -1.6927  0.7264
  123SOPE  C21113104   5.235   6.073   3.793  0.0092  0.2564  0.3312
  123SOPE  H11R13105   5.261   5.966   3.809  1.2378 -0.2213 -3.8019
  123SOPE  H11S13106   5.130   6.077   3.756 -0.2623 -0.0936  1.0376
  123SOPE  C21213107   5.238   6.144   3.931  0.9026  0.1137  0.2081
  123SOPE  H12R13108   5.338   6.135   3.979  0.1563 -0.8123  1.6749
  123SOPE  H12S13109   5.168   6.090   3.999 -1.2839  1.8194 -0.5715
  123SOPE  C21313110   5.170   6.283   3.912  0.0394 -0.1453  0.6811
  123SOPE  H13R13111   5.080   6.294   3.975 -0.6771  2.3153 -0.6357
  123SOPE  H13S13112   5.154   6.305   3.804  1.3749 -1.2515  0.2172
  123SOPE  C21413113   5.256   6.396   3.975  0.5596 -0.5198  0.1238
  123SOPE  H14R13114   5.222   6.498   3.946  1.5047 -0.6708 -1.6307
  123SOPE  H14S13115   5.357   6.378   3.933  0.4279  0.2745 -0.5594
  123SOPE  C21513116   5.262   6.385   4.129  0.6801  0.7109  0.2051
  123SOPE  H15R13117   5.361   6.427   4.157  1.1772 -0.2943  0.0133
  123SOPE  H15S13118   5.258   6.279   4.162 -0.6541  0.7873  0.3199
  123SOPE  C21613119   5.172   6.487   4.197  0.1877 -0.2868 -0.6161
  123SOPE  H16R13120   5.064   6.479   4.176 -0.4448  2.4785  1.1319
  123SOPE  H16S13121   5.194   6.592   4.169 -0.3153  0.4501  1.5207
  123SOPE  C21713122   5.191   6.461   4.354 -0.0088 -0.4804  0.3634
  123SOPE  H17R13123   5.299   6.468   4.381 -0.3288  1.4149  1.2982
  123SOPE  H17S13124   5.151   6.358   4.365 -0.1743 -0.4479  0.0763
  123SOPE  C21813125   5.111   6.547   4.444  0.5965  0.0424 -0.0973
  123SOPE  H18R13126   5.158   6.643   4.473 -0.5173  0.0485  1.8647
  123SOPE  H18S13127   5.090   6.494   4.539 -1.0299 -0.4225 -0.6780
  123SOPE  H18T13128   5.009   6.560   4.402  0.2736 -0.9264  0.3560
  123SOPE   C3313129   5.405   6.266   2.850 -0.1048  0.5053 -0.3262
  123SOPE   H3X13130   5.315   6.214   2.811  1.1689 -1.3718 -0.8762
  123SOPE   H3Y13131   5.379   6.344   2.925 -0.5663 -1.6636  1.8843
  123SOPE   C3413132   5.488   6.159   2.927 -0.3804 -0.5230  0.1219
  123SOPE   H4X13133   5.582   6.204   2.966 -1.3867  0.9622  0.9121
  123SOPE   H4Y13134   5.517   6.084   2.851 -1.3236  0.8033 -1.6218
  123SOPE   C3513135   5.401   6.092   3.039 -0.1002  0.9738 -0.5215
  123SOPE   H5X13136   5.307   6.060   2.988 -0.4511  2.4338 -0.8473
  123SOPE   H5Y13137   5.377   6.173   3.112  1.9549 -0.7836  2.2956
  123SOPE   C3613138   5.466   5.970   3.099  0.3732  0.5127 -0.2739
  123SOPE   H6X13139   5.465   5.905   3.009 -1.4342  1.1414 -0.7654
  123SOPE   H6Y13140   5.386   5.947   3.174  0.1460 -1.0489 -0.9476
  123SOPE   C3713141   5.601   5.978   3.169 -0.4265 -0.8199  0.6183
  123SOPE   H7X13142   5.686   6.005   3.103 -0.7608 -1.4097 -0.0715
  123SOPE   H7Y13143   5.621   5.871   3.194  0.9334 -1.2342 -1.8526
  123SOPE   C3813144   5.595   6.062   3.305 -0.1742  1.0337  0.5818
  123SOPE   H8X13145   5.515   6.007   3.359  0.4731 -2.5214 -1.7570
  123SOPE   H8Y13146   5.582   6.172   3.296  0.6231  1.0088 -1.3282
  123SOPE   C3913147   5.725   6.039   3.397  0.2174  0.5106  0.0477
  123SOPE   H9X13148   5.817   6.082   3.354  1.7344 -2.0102  0.5652
  123SOPE   H9Y13149   5.745   5.929   3.397 -1.1956  0.2209  0.1440
  123SOPE  C31013150   5.707   6.084   3.542 -0.0245 -0.3285  0.0060
  123SOPE  H10X13151   5.632   6.020   3.592 -0.3225 -1.5866 -1.9277
  123SOPE  H10Y13152   5.686   6.193   3.556  1.0234 -0.0998 -0.1052
  123SOPE  C31113153   5.842   6.069   3.613  0.3953  0.3230  0.6008
  123SOPE  H11X13154   5.927   6.133   3.580 -0.4609  1.4656  0.5784
  123SOPE  H11Y13155   5.879   5.970   3.577 -0.0087  0.8085 -1.2428
  123SOPE  C31213156   5.846   6.066   3.761  0.4352 -0.0621 -0.7510
  123SOPE  H12X13157   5.808   6.162   3.802 -2.9642 -1.4919 -0.2084
  123SOPE  H12Y13158   5.948   6.067   3.806 -1.0570 -0.6084  3.0051
  123SOPE  C31313159   5.763   5.956   3.830 -0.2946  0.1345 -0.1200
  123SOPE  H13X13160   5.797   5.852   3.814  1.7620  0.8290 -0.5735
  123SOPE  H13Y13161   5.658   5.963   3.794  0.4400 -0.9350 -2.6623
  123SOPE  C31413162   5.750   5.967   3.985 -0.5433 -0.3100 -0.8830
  123SOPE  H14X13163   5.852   5.988   4.023  0.2423 -3.1565 -1.1416
  123SOPE  H14Y13164   5.724   5.868   4.030  2.9900 -1.9672 -2.0515
  123SOPE  C31513165   5.647   6.075   4.024  0.2647  0.1020  0.1180
  123SOPE  H15X13166   5.550   6.068   3.971  0.0180 -0.0281  0.5733
  123SOPE  H15Y13167   5.683   6.176   3.994  0.4447  0.1737  0.5610
  123SOPE  C31613168   5.632   6.088   4.180  0.9073  0.9379 -0.1697
  123SOPE  H16X13169   5.732   6.111   4.221 -0.2623  1.8287  2.3989
  123SOPE  H16Y13170   5.581   6.005   4.234 -0.2408  2.2263  0.8212
  123SOPE  C31713171   5.549   6.215   4.224 -0.3102  0.0233  0.1945
  123SOPE  H17X13172   5.441   6.204   4.201 -0.3762  0.0861  0.4792
  123SOPE  H17Y13173   5.598   6.299   4.170  3.8026 -2.3629 -0.1888
  123SOPE  C31813174   5.562   6.248   4.367  0.0622  0.4601  0.0317
  123SOPE  H18X13175   5.536   6.353   4.392 -1.5762  0.2942 -0.8303
  123SOPE  H18Y13176   5.659   6.224   4.415 -0.2355  0.4316  0.6317
  123SOPE  H18Z13177   5.489   6.188   4.426  0.5639 -1.4032 -1.1585
  124SOPE     N13178   0.997   3.348   2.101 -0.2379  0.2341 -0.1636
  124SOPE   HN113179   0.918   3.388   2.047  0.3055 -0.5034 -1.5461
  124SOPE   HN213180   1.063   3.426   2.121 -1.1651  1.2721 -1.0424
  124SOPE   HN313181   1.045   3.294   2.026  0.2413 -0.3564  0.5486
  124SOPE   C1213182   0.967   3.271   2.226 -0.1446  1.1226  0.4871
  124SOPE  H12A13183   1.065   3.232   2.262 -0.9203 -0.3298  1.1113
  124SOPE  H12B13184   0.899   3.190   2.192 -0.0861  2.2855 -2.6994
  124SOPE   C1113185   0.907   3.361   2.335 -0.6926 -0.3472  0.5431
  124SOPE  H11A13186   0.973   3.450   2.345 -1.6826  0.3264  1.2672
  124SOPE  H11B13187   0.905   3.305   2.431 -0.7802  0.0188  0.7557
  124SOPE     P13188   0.657   3.308   2.335 -0.4063  0.5567  0.2429
  124SOPE   O1313189   0.681   3.167   2.297  0.6037  0.5141  0.8218
  124SOPE   O1413190   0.537   3.369   2.284 -0.7923 -0.3962 -0.1539
  124SOPE   O1213191   0.783   3.402   2.290  0.2889 -0.2946 -0.3620
  124SOPE   O1113192   0.660   3.312   2.487 -0.4220 -0.5672 -0.6423
  124SOPE    C113193   0.596   3.412   2.559 -0.2202  0.0660  0.5287
  124SOPE    HA13194   0.486   3.399   2.561 -0.3735  1.2368  0.2880
  124SOPE    HB13195   0.616   3.512   2.515 -0.0480 -1.0698 -2.1118
  124SOPE    C213196   0.637   3.407   2.711 -0.2569 -0.2504 -0.3742
  124SOPE    HS13197   0.745   3.431   2.706 -0.7383  1.8214 -1.4734
  124SOPE   O2113198   0.617   3.267   2.759 -0.1667 -0.4568  0.1293
  124SOPE   C2113199   0.735   3.206   2.797  0.1219 -0.0786  0.1621
  124SOPE   O2213200   0.845   3.247   2.779 -0.1899  0.1358  0.1302
  124SOPE   C2213201   0.704   3.073   2.882  0.4621 -0.1691  0.5822
  124SOPE   H2R13202   0.671   2.998   2.807 -4.0288  0.8327  1.2561
  124SOPE   H2S13203   0.616   3.097   2.946  0.2664  2.9873 -0.6957
  124SOPE    C313204   0.549   3.509   2.791  0.1024 -0.0174  0.6135
  124SOPE    HX13205   0.445   3.469   2.791 -0.1651  0.6513  0.0509
  124SOPE    HY13206   0.550   3.602   2.729 -1.5047 -1.8339 -2.3998
  124SOPE   O3113207   0.601   3.528   2.926  0.0578 -0.3016 -0.1865
  124SOPE   C3113208   0.727   3.583   2.934  0.1671 -0.3023 -0.2269
  124SOPE   O3213209   0.804   3.612   2.845  0.4138 -0.7594 -0.2319
  124SOPE   C3213210   0.744   3.615   3.082  0.4250 -0.3011 -0.4062
  124SOPE   H2X13211   0.645   3.650   3.118  1.0851 -2.0662  3.7229
  124SOPE   H2Y13212   0.815   3.699   3.097  0.0812  0.3601 -2.2760
  124SOPE   C2313213   0.816   3.026   2.977 -0.2974 -0.8784  0.1960
  124SOPE   H3R13214   0.912   3.029   2.920  0.3987  0.5069  1.3845
  124SOPE   H3S13215   0.786   2.923   3.005 -1.9038 -0.4174  0.2521
  124SOPE   C2413216   0.835   3.119   3.100  0.5506  0.3595 -0.2856
  124SOPE   H4R13217   0.872   3.220   3.070  1.0823  0.2596  0.0247
  124SOPE   H4S13218   0.733   3.129   3.144  0.2325 -0.9135 -0.6963
  124SOPE   C2513219   0.937   3.047   3.198  0.4812  0.9550  0.8555
  124SOPE   H5R13220   0.895   2.944   3.210  0.2214  1.0438  0.7157
  124SOPE   H5S13221   1.036   3.018   3.156 -1.2681 -3.6474 -0.7370
  124SOPE   C2613222   0.951   3.117   3.329  0.0888 -0.8095  0.1111
  124SOPE   H6R13223   1.013   3.206   3.309 -0.1277 -0.7218 -0.1672
  124SOPE   H6S13224   0.852   3.157   3.359  0.2996  0.8547 -1.2686
  124SOPE   C2713225   1.014   3.034   3.443  0.2777 -0.0045  0.2110
  124SOPE   H7R13226   1.094   2.971   3.398  0.1074  0.1097 -0.2515
  124SOPE   H7S13227   1.059   3.099   3.522  0.9938 -0.0007 -0.1921
  124SOPE   C2813228   0.908   2.956   3.517  0.8170  0.6838  0.1919
  124SOPE   H8R13229   0.828   3.026   3.547  1.0269  0.8406  0.3897
  124SOPE   H8S13230   0.861   2.875   3.456 -0.9918  0.8421  1.3098
  124SOPE   C2913231   0.965   2.878   3.629  0.3472 -0.0335 -0.0786
  124SOPE   H9113232   1.042   2.810   3.590  0.6568  0.8742 -1.0891
  124SOPE  C21013233   0.931   2.883   3.760  0.5933 -0.1138 -0.7070
  124SOPE  H10113234   0.992   2.823   3.829  0.9665  2.0263  0.9576
  124SOPE  C21113235   0.816   2.966   3.813  0.3044  0.0981  0.2400
  124SOPE  H11R13236   0.722   2.929   3.767 -0.0180  0.6194  0.4608
  124SOPE  H11S13237   0.819   3.077   3.798  0.6406  0.3305  1.8689
  124SOPE  C21213238   0.783   2.955   3.964  0.2628 -0.1837 -0.4055
  124SOPE  H12R13239   0.760   2.848   3.985  0.4475  0.1520  1.7539
  124SOPE  H12S13240   0.693   3.016   3.989 -1.5576 -3.2197  1.1108
  124SOPE  C21313241   0.895   3.007   4.057 -0.2090  0.6115 -0.4942
  124SOPE  H13R13242   0.909   3.117   4.056  0.1112  0.6186  1.4090
  124SOPE  H13S13243   0.984   2.952   4.019 -2.3388 -1.8476 -2.3430
  124SOPE  C21413244   0.873   2.964   4.203 -0.1395  0.2722  0.5373
  124SOPE  H14R13245   0.839   2.859   4.197  0.6239 -0.0472  1.6104
  124SOPE  H14S13246   0.791   3.020   4.254 -0.4381  1.1275 -0.8405
  124SOPE  C21513247   1.005   2.970   4.288  0.0428 -0.3253 -0.7013
  124SOPE  H15R13248   1.067   3.055   4.251  0.1425  1.5136  3.1753
  124SOPE  H15S13249   1.065   2.878   4.272  1.1705  0.4930 -1.3382
  124SOPE  C21613250   0.969   2.982   4.441 -0.1492 -0.7472 -0.4031
  124SOPE  H16R13251   0.907   3.073   4.446  1.2751  0.2031  2.1936
  124SOPE  H16S13252   1.063   2.984   4.501 -0.1808 -1.5181 -0.3100
  124SOPE  C21713253   0.880   2.869   4.496  0.3235 -0.2896  0.3419
  124SOPE  H17R13254   0.932   2.771   4.505 -1.7963 -1.4072  1.1514
  124SOPE  H17S13255   0.800   2.843   4.424  0.1984  1.5719 -0.2526
  124SOPE  C21813256   0.806   2.913   4.626  0.3000 -0.3018 -0.1598
  124SOPE  H18R13257   0.745   3.004   4.610  0.0911 -0.2776  0.7356
  124SOPE  H18S13258   0.893   2.935   4.693  1.2750  2.7062 -2.2020
  124SOPE  H18T13259   0.746   2.825   4.658 -2.2454  0.6927 -1.9040
  124SOPE   C3313260   0.775   3.493   3.168  0.0910 -0.3430 -0.3710
  124SOPE   H3X13261   0.884   3.471   3.166  0.4192  0.6491  2.2773
  124SOPE   H3Y13262   0.715   3.408   3.129 -0.1987 -0.3702  0.1271
  124SOPE   C3413263   0.726   3.524   3.315  0.2222  0.1949 -0.9214
  124SOPE   H4X13264   0.617   3.506   3.321 -0.0089  1.8970  1.5454
  124SOPE   H4Y13265   0.748   3.627   3.349  1.1239 -0.3819  0.3092
  124SOPE   C3513266   0.792   3.438   3.428 -0.0553 -0.3319  0.2963
  124SOPE   H5X13267   0.901   3.427   3.408  0.5686  1.3347  2.4291
  124SOPE   H5Y13268   0.744   3.338   3.417 -2.2085  0.9129 -2.9878
  124SOPE   C3613269   0.769   3.494   3.574 -0.0936  0.0287 -0.5737
  124SOPE   H6X13270   0.663   3.482   3.604 -1.1503  1.6846 -3.2649
  124SOPE   H6Y13271   0.783   3.604   3.577 -2.8692  0.4274  1.5622
  124SOPE   C3713272   0.864   3.426   3.680 -0.1663 -1.0930 -0.4212
  124SOPE   H7X13273   0.961   3.425   3.626  0.2969 -2.0753  0.3920
  124SOPE   H7Y13274   0.850   3.319   3.704  0.9617 -0.6055  2.9594
  124SOPE   C3813275   0.873   3.510   3.806  0.5394  0.0646 -0.2351
  124SOPE   H8X13276   0.905   3.614   3.781  1.2259  0.1297  0.8565
  124SOPE   H8Y13277   0.944   3.463   3.877 -0.6664 -1.5824 -0.0694
  124SOPE   C3913278   0.743   3.530   3.881  0.3067  0.6252  0.5327
  124SOPE   H9X13279   0.653   3.550   3.820 -0.0555 -0.8540  0.5403
  124SOPE   H9Y13280   0.755   3.624   3.938  0.9074  1.4326 -0.8729
  124SOPE  C31013281   0.727   3.408   3.977  0.0517 -0.2727 -0.1270
  124SOPE  H10X13282   0.795   3.437   4.060  0.7603  0.3053 -0.8901
  124SOPE  H10Y13283   0.753   3.313   3.926  1.7114  0.2678 -0.3595
  124SOPE  C31113284   0.583   3.403   4.029  0.4478 -0.4491 -0.8821
  124SOPE  H11X13285   0.505   3.409   3.950 -1.0232 -3.9329  0.1069
  124SOPE  H11Y13286   0.574   3.486   4.102  1.1969 -1.7512  0.7606
  124SOPE  C31213287   0.546   3.287   4.128 -0.1689  0.0854 -0.5691
  124SOPE  H12X13288   0.548   3.195   4.067 -0.4756 -0.0162 -0.4296
  124SOPE  H12Y13289   0.441   3.305   4.161  0.0398  2.6658 -1.0818
  124SOPE  C31313290   0.639   3.274   4.255  0.2330 -0.0360  0.0349
  124SOPE  H13X13291   0.736   3.322   4.232 -1.1596  3.8326  1.4216
  124SOPE  H13Y13292   0.647   3.164   4.268  1.0206 -0.1080 -0.9447
  124SOPE  C31413293   0.575   3.324   4.392  0.0852  0.3744  0.6895
  124SOPE  H14X13294   0.478   3.270   4.395  1.1360 -1.6394  0.6100
  124SOPE  H14Y13295   0.553   3.432   4.392  0.4827  0.4610  1.1639
  124SOPE  C31513296   0.659   3.288   4.514 -0.0217 -0.6767  0.4103
  124SOPE  H15X13297   0.663   3.177   4.515 -0.6212 -0.8572 -2.9971
  124SOPE  H15Y13298   0.609   3.324   4.606 -1.4456  0.3909 -0.7401
  124SOPE  C31613299   0.803   3.343   4.514 -0.1601  0.1361  0.4837
  124SOPE  H16X13300   0.793   3.452   4.497  0.9048  0.4373  1.6659
  124SOPE  H16Y13301   0.857   3.292   4.432 -1.0937 -1.1704  0.6457
  124SOPE  C31713302   0.881   3.307   4.642  0.2030  0.1461  0.4426
  124SOPE  H17X13303   0.869   3.198   4.662  0.9138 -0.0235  0.0120
  124SOPE  H17Y13304   0.835   3.347   4.735 -1.7607 -0.2571 -0.3169
  124SOPE  C31813305   1.031   3.336   4.650  0.5141 -0.3701 -0.8210
  124SOPE  H18X13306   1.077   3.290   4.740 -1.8488 -0.7948  0.2327
  124SOPE  H18Y13307   1.064   3.442   4.643 -1.8506  0.4794 -0.0560
  124SOPE  H18Z13308   1.083   3.287   4.565 -0.9547 -0.4557 -1.6975
  125SOPE     N13309   2.671   3.057   2.325  0.6825 -0.3578 -0.0487
  125SOPE   HN113310   2.618   3.017   2.245 -2.2066  1.7093  0.6605
  125SOPE   HN213311   2.746   2.985   2.330  0.3841 -0.5927  1.2616
  125SOPE   HN313312   2.614   3.057   2.412 -1.8196  0.4327 -1.5807
  125SOPE   C1213313   2.729   3.190   2.298 -0.6108  0.2080 -0.2964
  125SOPE  H12A13314   2.648   3.266   2.299 -1.5773 -0.7747  1.0647
  125SOPE  H12B13315   2.794   3.178   2.209  0.9110 -1.2032  0.9413
  125SOPE   C1113316   2.839   3.238   2.404  0.1778  1.0243 -0.0206
  125SOPE  H11A13317   2.787   3.264   2.498 -2.1182 -1.7234 -0.3901
  125SOPE  H11B13318   2.892   3.329   2.370  1.4985  1.2854  2.5010
  125SOPE     P13319   3.077   3.127   2.366  0.7337  0.3338  0.3671
  125SOPE   O1313320   3.057   3.130   2.217 -0.4675  0.3520  0.3126
  125SOPE   O1413321   3.144   3.015   2.426 -0.7088  0.9182 -0.5180
  125SOPE   O1213322   2.929   3.125   2.427  0.0645 -0.6634  0.3716
  125SOPE   O1113323   3.132   3.265   2.420  0.1227 -0.0327  0.0435
  125SOPE    C113324   3.156   3.274   2.564  0.1869  0.3532  0.6331
  125SOPE    HA13325   3.226   3.195   2.599  2.1364  1.2065 -1.0972
  125SOPE    HB13326   3.054   3.264   2.607 -0.1106 -0.1159 -0.1551
  125SOPE    C213327   3.214   3.409   2.615 -0.5328 -0.2463  0.1461
  125SOPE    HS13328   3.225   3.396   2.725 -0.5145 -0.7504  0.0897
  125SOPE   O2113329   3.134   3.521   2.579  0.4086 -0.4154  0.2287
  125SOPE   C2113330   3.023   3.521   2.653  0.0277  0.4850 -0.6196
  125SOPE   O2213331   3.012   3.463   2.761  0.0139 -0.9588 -0.1376
  125SOPE   C2213332   2.916   3.606   2.580  0.1617  0.1684  0.3939
  125SOPE   H2R13333   2.866   3.544   2.503 -0.7451  1.3587  0.0027
  125SOPE   H2S13334   2.967   3.694   2.535  1.9475  0.1162  2.1569
  125SOPE    C313335   3.356   3.423   2.555 -0.1992  0.3220 -0.1358
  125SOPE    HX13336   3.353   3.411   2.445 -0.1432 -1.0141 -0.0069
  125SOPE    HY13337   3.422   3.342   2.593  0.2654  1.0142  0.5785
  125SOPE   O3113338   3.410   3.551   2.582  0.4218 -0.1012 -0.0812
  125SOPE   C3113339   3.487   3.585   2.687 -0.0216  0.6072 -0.2739
  125SOPE   O3213340   3.522   3.511   2.778  0.3729 -0.2265  0.0362
  125SOPE   C3213341   3.512   3.739   2.684 -0.2935  0.1646  0.1597
  125SOPE   H2X13342   3.507   3.776   2.580 -0.1847  0.3931  0.2352
  125SOPE   H2Y13343   3.611   3.756   2.731 -0.0486 -0.0593 -0.2692
  125SOPE   C2313344   2.816   3.658   2.687 -0.1970  0.3812 -0.3646
  125SOPE   H3R13345   2.766   3.575   2.740 -0.0072  2.0028  2.5864
  125SOPE   H3S13346   2.740   3.709   2.623 -0.7992 -1.9914 -1.6400
  125SOPE   C2413347   2.877   3.762   2.790  0.2598 -0.5174 -1.0035
  125SOPE   H4R13348   2.792   3.785   2.858  0.7392 -2.4518  0.3556
  125SOPE   H4S13349   2.958   3.720   2.854  0.2412  0.9870  0.0500
  125SOPE   C2513350   2.940   3.883   2.736  1.0579  0.1183 -0.1993
  125SOPE   H5R13351   3.009   3.860   2.652  1.2747  0.6782 -0.1816
  125SOPE   H5S13352   2.858   3.953   2.709  0.5490  0.4469  1.9552
  125SOPE   C2613353   3.015   3.971   2.837  1.1088  0.3552  0.6352
  125SOPE   H6R13354   2.949   4.022   2.911  2.1720  3.0806 -0.1834
  125SOPE   H6S13355   3.084   3.906   2.894 -1.2117 -3.6885 -0.7639
  125SOPE   C2713356   3.103   4.078   2.769 -0.2432 -0.9277  0.5735
  125SOPE   H7R13357   3.204   4.034   2.749 -0.3326 -1.0182  0.3092
  125SOPE   H7S13358   3.062   4.110   2.671  0.7197 -0.0511  0.4435
  125SOPE   C2813359   3.137   4.198   2.862  0.2277  0.1998  0.2721
  125SOPE   H8R13360   3.192   4.272   2.800 -0.6934  1.3203  0.7571
  125SOPE   H8S13361   3.038   4.240   2.890  1.0356  1.0086  2.0561
  125SOPE   C2913362   3.219   4.159   2.983 -0.3340  0.0955 -0.0076
  125SOPE   H9113363   3.311   4.107   2.953  0.5167  1.4335  0.1989
  125SOPE  C21013364   3.189   4.169   3.115  0.1613  0.5203  0.2742
  125SOPE  H10113365   3.255   4.128   3.193  3.3457 -0.6059 -2.7923
  125SOPE  C21113366   3.067   4.241   3.165  0.1947  0.2805 -0.0972
  125SOPE  H11R13367   3.006   4.296   3.090  0.7930  1.7421  0.4438
  125SOPE  H11S13368   3.096   4.320   3.238 -0.3577 -0.9058  1.4537
  125SOPE  C21213369   2.978   4.144   3.245  0.2014  0.0279  0.4136
  125SOPE  H12R13370   3.025   4.108   3.339 -0.5994 -0.9729  0.4385
  125SOPE  H12S13371   2.958   4.060   3.176  1.6589  0.8445 -1.0815
  125SOPE  C21313372   2.839   4.209   3.289  0.0651 -0.9714  0.1035
  125SOPE  H13R13373   2.791   4.250   3.198  0.0222 -1.9525 -0.3283
  125SOPE  H13S13374   2.857   4.289   3.364 -2.6889  1.7863 -1.9231
  125SOPE  C21413375   2.750   4.110   3.361  0.1795 -0.5864 -0.4130
  125SOPE  H14R13376   2.757   4.005   3.325 -1.1571 -1.1676  0.9037
  125SOPE  H14S13377   2.645   4.147   3.353  0.2315 -0.3139  0.1321
  125SOPE  C21513378   2.779   4.105   3.507 -0.5683  0.0321  0.0649
  125SOPE  H15R13379   2.759   4.208   3.543 -4.0839 -0.1950 -0.8319
  125SOPE  H15S13380   2.883   4.069   3.525 -0.5859  0.0251  0.1525
  125SOPE  C21613381   2.695   4.020   3.607  0.3267 -0.7685 -0.3195
  125SOPE  H16R13382   2.705   3.911   3.587  0.5876 -0.5797 -1.2714
  125SOPE  H16S13383   2.592   4.060   3.603  0.6193  0.4561  2.5537
  125SOPE  C21713384   2.727   4.052   3.756 -0.3451 -0.2929 -0.8689
  125SOPE  H17R13385   2.724   4.163   3.765  1.0708 -0.2861 -0.2775
  125SOPE  H17S13386   2.834   4.026   3.771 -0.0311  0.9662 -0.7686
  125SOPE  C21813387   2.632   3.980   3.856 -0.0941 -0.1134 -0.5725
  125SOPE  H18R13388   2.652   4.016   3.960 -0.1133 -1.1498 -0.2009
  125SOPE  H18S13389   2.642   3.870   3.864 -3.0441 -0.3667  1.5687
  125SOPE  H18T13390   2.527   4.007   3.832 -0.5255 -2.6288 -1.8287
  125SOPE   C3313391   3.396   3.799   2.763  0.2082 -1.3161  0.3421
  125SOPE   H3X13392   3.300   3.768   2.716  0.2461 -1.0896  0.1181
  125SOPE   H3Y13393   3.403   3.909   2.749 -0.6900 -1.4666 -1.4891
  125SOPE   C3413394   3.384   3.782   2.908 -0.6692  0.0942 -0.4802
  125SOPE   H4X13395   3.370   3.675   2.933  0.6009 -0.1062 -0.5432
  125SOPE   H4Y13396   3.295   3.829   2.955  1.0352  1.8660  1.2034
  125SOPE   C3513397   3.493   3.847   2.993 -0.4671 -0.1525 -0.1323
  125SOPE   H5X13398   3.502   3.954   2.965  2.2995 -0.2320  0.2574
  125SOPE   H5Y13399   3.597   3.810   2.983  0.1473  0.9214  1.8868
  125SOPE   C3613400   3.445   3.851   3.138  0.1700 -0.1884  0.4646
  125SOPE   H6X13401   3.396   3.754   3.160 -1.6773  0.8414  1.1060
  125SOPE   H6Y13402   3.364   3.924   3.158 -0.7152 -0.5193 -1.6196
  125SOPE   C3713403   3.555   3.890   3.242  0.5960  0.7338  0.5948
  125SOPE   H7X13404   3.593   3.993   3.220 -0.8729  1.2537  0.4034
  125SOPE   H7Y13405   3.629   3.809   3.223  1.0098  1.2731 -0.1786
  125SOPE   C3813406   3.514   3.878   3.388  0.2363  0.4255  0.5066
  125SOPE   H8X13407   3.596   3.852   3.459  1.0375 -1.7990 -1.1019
  125SOPE   H8Y13408   3.439   3.797   3.394  0.7429 -0.1691 -0.7086
  125SOPE   C3913409   3.449   4.011   3.426  0.5758 -0.1666  0.4967
  125SOPE   H9X13410   3.356   4.019   3.366  0.2159  2.2223  1.2762
  125SOPE   H9Y13411   3.521   4.092   3.403  1.6186 -1.0918  0.3966
  125SOPE  C31013412   3.425   4.028   3.578 -0.0404 -0.5025 -0.7984
  125SOPE  H10X13413   3.348   3.953   3.608  0.0299 -0.3558 -0.2310
  125SOPE  H10Y13414   3.371   4.123   3.597 -0.8135 -1.6241  3.7958
  125SOPE  C31113415   3.548   4.028   3.668  0.2332  0.2723  0.4032
  125SOPE  H11X13416   3.598   4.122   3.636  1.0595 -0.6006 -0.9845
  125SOPE  H11Y13417   3.604   3.933   3.661  1.5056  1.0929 -1.3769
  125SOPE  C31213418   3.513   4.034   3.819  0.2224  0.0266 -0.5331
  125SOPE  H12X13419   3.452   4.121   3.849  1.1183  0.4252  0.1673
  125SOPE  H12Y13420   3.610   4.032   3.872  0.4323 -1.1425 -0.9161
  125SOPE  C31313421   3.443   3.904   3.858  0.0839  0.2589  0.0469
  125SOPE  H13X13422   3.496   3.820   3.808  1.5581  1.8784 -1.2583
  125SOPE  H13Y13423   3.337   3.911   3.828 -0.5705  0.2847  2.2360
  125SOPE  C31413424   3.459   3.875   4.010 -0.0626  0.0105 -0.1273
  125SOPE  H14X13425   3.423   3.961   4.069  1.3680 -0.9755  2.2994
  125SOPE  H14Y13426   3.558   3.846   4.049 -0.1282  0.7777  0.6278
  125SOPE  C31513427   3.363   3.760   4.044  0.4650  0.2432 -0.4722
  125SOPE  H15X13428   3.411   3.665   4.015 -0.0842 -0.6684  1.4509
  125SOPE  H15Y13429   3.272   3.781   3.983  0.7775  1.2115 -0.6350
  125SOPE  C31613430   3.331   3.752   4.195 -0.1124  0.5000  0.3468
  125SOPE  H16X13431   3.298   3.855   4.221  0.3345  1.0006 -1.0178
  125SOPE  H16Y13432   3.420   3.721   4.254  1.2769  0.7820 -1.5128
  125SOPE  C31713433   3.214   3.664   4.236  0.3431 -0.2529  0.5911
  125SOPE  H17X13434   3.259   3.563   4.229 -0.2971 -0.5603  0.8776
  125SOPE  H17Y13435   3.125   3.683   4.173  0.9466 -1.1170 -0.5489
  125SOPE  C31813436   3.170   3.680   4.381 -0.3972  0.3139  0.6669
  125SOPE  H18X13437   3.254   3.651   4.448  2.3128  1.3530 -2.0710
  125SOPE  H18Y13438   3.078   3.623   4.408  0.6712 -1.3961  0.8910
  125SOPE  H18Z13439   3.147   3.788   4.389 -0.2931  0.5653 -1.8445
  126SOPE     N13440   5.022   1.588   2.176  0.3837  0.0707 -0.6875
  126SOPE   HN113441   5.119   1.564   2.204  1.0199  1.8439 -1.2140
  126SOPE   HN213442   4.955   1.510   2.190  0.1169  0.4018 -0.1066
  126SOPE   HN313443   5.028   1.613   2.075 -3.7939  0.5807 -0.9831
  126SOPE   C1213444   4.988   1.710   2.253 -0.3294 -0.0320 -0.4454
  126SOPE  H12A13445   4.887   1.744   2.221 -0.9239 -0.5616  0.8166
  126SOPE  H12B13446   5.049   1.793   2.211 -0.7392 -0.1923 -1.3767
  126SOPE   C1113447   5.018   1.683   2.405 -0.0748  0.6566  0.3987
  126SOPE  H11A13448   5.006   1.786   2.445  3.8858  1.7003 -0.7343
  126SOPE  H11B13449   5.125   1.659   2.422  0.0011  0.9818  0.3717
  126SOPE     P13450   4.800   1.615   2.540  0.0623  0.0301 -0.5504
  126SOPE   O1313451   4.708   1.505   2.512  0.1447  0.4328  0.0320
  126SOPE   O1413452   4.753   1.751   2.502 -0.1243  0.0295 -0.3015
  126SOPE   O1213453   4.937   1.582   2.469 -0.3819 -0.9008  0.6565
  126SOPE   O1113454   4.828   1.623   2.695 -0.5053 -0.7362 -0.4876
  126SOPE    C113455   4.901   1.525   2.758 -0.2212  0.2940  0.6192
  126SOPE    HA13456   4.886   1.428   2.706  0.6034  2.2411 -3.7060
  126SOPE    HB13457   4.844   1.501   2.850 -1.6743 -0.5974 -0.4803
  126SOPE    C213458   5.059   1.550   2.759  0.4293 -0.3507 -1.3214
  126SOPE    HS13459   5.100   1.537   2.656 -2.6352  0.8203 -2.8085
  126SOPE   O2113460   5.119   1.462   2.856  0.9161 -0.3329  0.0308
  126SOPE   C2113461   5.127   1.339   2.815 -0.5315 -0.0837 -0.0900
  126SOPE   O2213462   5.098   1.302   2.702 -0.2527 -0.2331 -0.4294
  126SOPE   C2213463   5.192   1.254   2.929  0.5889 -0.4717 -0.4101
  126SOPE   H2R13464   5.215   1.323   3.012  1.5532 -0.0141 -1.0334
  126SOPE   H2S13465   5.284   1.211   2.884  0.4672  0.5454 -1.6819
  126SOPE    C313466   5.083   1.702   2.794 -0.3385 -0.9916  0.4422
  126SOPE    HX13467   5.020   1.727   2.882 -0.5098  0.0068  0.0362
  126SOPE    HY13468   5.053   1.765   2.708  0.8560 -1.5626 -0.4249
  126SOPE   O3113469   5.225   1.720   2.838 -0.0084 -0.2379 -0.8946
  126SOPE   C3113470   5.312   1.726   2.735 -0.9650 -0.3727 -0.1305
  126SOPE   O3213471   5.286   1.726   2.619  0.0749 -0.1455  0.2068
  126SOPE   C3213472   5.456   1.745   2.801  0.1193 -0.1203 -0.1389
  126SOPE   H2X13473   5.452   1.819   2.884 -1.4177  0.3081 -0.5650
  126SOPE   H2Y13474   5.509   1.801   2.721 -1.3959  0.3269 -0.8621
  126SOPE   C2313475   5.090   1.156   2.985  0.0675  0.4361 -0.3372
  126SOPE   H3R13476   5.136   1.099   3.069 -0.3219 -1.7677 -1.5385
  126SOPE   H3S13477   5.054   1.075   2.918  2.5182 -0.0085 -1.2024
  126SOPE   C2413478   4.970   1.223   3.052  0.6544 -0.3925  0.1023
  126SOPE   H4R13479   5.016   1.275   3.138  1.2543 -2.4205  1.0538
  126SOPE   H4S13480   4.914   1.295   2.988  0.0677  0.0838  1.1459
  126SOPE   C2513481   4.863   1.124   3.100  0.3057  0.2931 -0.0316
  126SOPE   H5R13482   4.904   1.033   3.148 -0.1793  0.4236  0.6454
  126SOPE   H5S13483   4.792   1.166   3.175  1.1990 -0.6001  1.3674
  126SOPE   C2613484   4.783   1.084   2.968 -0.4635  0.0168 -1.3459
  126SOPE   H6R13485   4.729   1.176   2.936  1.3220  1.8487  0.5872
  126SOPE   H6S13486   4.860   1.053   2.895  1.3584 -0.2502  0.5899
  126SOPE   C2713487   4.686   0.964   2.975 -0.3321  0.1242  0.3228
  126SOPE   H7R13488   4.618   0.978   3.062 -1.5539  0.6042 -0.6692
  126SOPE   H7S13489   4.628   0.958   2.881 -0.1225 -1.8116  0.2811
  126SOPE   C2813490   4.769   0.833   2.995  0.1200 -0.1157 -0.4999
  126SOPE   H8R13491   4.841   0.833   2.910 -1.7922  2.2287 -2.2861
  126SOPE   H8S13492   4.813   0.818   3.096 -1.6962  0.5044  0.4263
  126SOPE   C2913493   4.673   0.723   2.967 -0.2086 -0.7976  0.1481
  126SOPE   H9113494   4.661   0.699   2.860 -0.0407  2.3624 -0.6769
  126SOPE  C21013495   4.603   0.653   3.056  0.0452 -0.1712  0.5059
  126SOPE  H10113496   4.536   0.573   3.021 -2.1922  0.1666  3.6046
  126SOPE  C21113497   4.599   0.676   3.213 -0.4556  0.1738  0.4817
  126SOPE  H11R13498   4.507   0.734   3.238 -1.3754 -1.6924  1.6915
  126SOPE  H11S13499   4.678   0.748   3.242  1.5740 -1.0919 -1.5896
  126SOPE  C21213500   4.616   0.560   3.314  0.1180  0.1664 -0.6190
  126SOPE  H12R13501   4.713   0.511   3.292  0.1235 -0.4140  0.5951
  126SOPE  H12S13502   4.527   0.494   3.313 -0.9186  1.4935  0.3421
  126SOPE  C21313503   4.632   0.615   3.459  0.4559  0.2625 -0.0921
  126SOPE  H13R13504   4.531   0.654   3.485  0.0950 -0.7164  0.0094
  126SOPE  H13S13505   4.714   0.690   3.465 -0.9992  1.9310 -0.1829
  126SOPE  C21413506   4.658   0.498   3.564 -0.5904 -0.7459  0.0274
  126SOPE  H14R13507   4.662   0.548   3.663  0.8220 -2.4112  0.8672
  126SOPE  H14S13508   4.756   0.458   3.530 -0.9620 -1.3424 -0.3615
  126SOPE  C21513509   4.545   0.394   3.576  0.2422 -0.1007 -0.2258
  126SOPE  H15R13510   4.521   0.340   3.482 -0.1765 -0.1164 -0.1147
  126SOPE  H15S13511   4.451   0.449   3.596 -1.1064 -2.3569 -0.0147
  126SOPE  C21613512   4.567   0.286   3.682 -0.2488  0.0638  0.0672
  126SOPE  H16R13513   4.657   0.230   3.648 -0.0579  0.9680 -0.9724
  126SOPE  H16S13514   4.476   0.224   3.676  0.4147 -0.9697  0.4336
  126SOPE  C21713515   4.599   0.331   3.830 -0.1761  0.5308  0.4829
  126SOPE  H17R13516   4.505   0.364   3.878 -0.8921 -0.7501 -0.0165
  126SOPE  H17S13517   4.667   0.419   3.825  1.7062 -0.4933  4.1053
  126SOPE  C21813518   4.681   0.232   3.917  0.6990  0.4554 -0.4590
  126SOPE  H18R13519   4.617   0.145   3.940  1.6017 -0.0894  0.0495
  126SOPE  H18S13520   4.716   0.284   4.010  1.1980  0.5572 -0.6969
  126SOPE  H18T13521   4.767   0.190   3.861 -0.6156 -1.7497 -0.9234
  126SOPE   C3313522   5.542   1.620   2.828  0.9656  0.1119 -0.1709
  126SOPE   H3X13523   5.650   1.640   2.809  1.4919 -1.3741  1.0408
  126SOPE   H3Y13524   5.499   1.541   2.763 -1.2801  0.8399  0.3435
  126SOPE   C3413525   5.546   1.574   2.978 -0.3011 -0.6747  0.2480
  126SOPE   H4X13526   5.622   1.638   3.028 -0.0585  2.3761 -3.5607
  126SOPE   H4Y13527   5.582   1.469   2.984 -0.9989 -0.8507  1.9779
  126SOPE   C3513528   5.409   1.577   3.048 -0.5562 -0.1808  1.0790
  126SOPE   H5X13529   5.348   1.500   2.996  3.3042 -1.8960 -1.3431
  126SOPE   H5Y13530   5.358   1.675   3.040 -2.0870 -1.0849 -1.0111
  126SOPE   C3613531   5.409   1.541   3.203 -0.6024 -0.1214  0.0626
  126SOPE   H6X13532   5.455   1.618   3.269  0.4534 -2.0071  1.6373
  126SOPE   H6Y13533   5.463   1.445   3.211 -2.0256 -0.8857  1.0382
  126SOPE   C3713534   5.276   1.513   3.261  0.0734  0.4508  0.0077
  126SOPE   H7X13535   5.228   1.435   3.197  0.8405  0.8058 -1.0227
  126SOPE   H7Y13536   5.215   1.606   3.264 -2.1495 -0.9606  2.5663
  126SOPE   C3813537   5.275   1.473   3.407  0.0102 -0.0486  0.7096
  126SOPE   H8X13538   5.317   1.555   3.468 -0.9179 -0.7406  2.3333
  126SOPE   H8Y13539   5.337   1.381   3.420  0.9735  0.4049 -0.4389
  126SOPE   C3913540   5.134   1.451   3.461  0.7093 -0.2397 -0.2542
  126SOPE   H9X13541   5.068   1.391   3.395 -0.4239  0.1725  0.4793
  126SOPE   H9Y13542   5.087   1.551   3.475 -0.7160 -1.1474  1.9819
  126SOPE  C31013543   5.132   1.373   3.591  0.3946  0.5066 -0.6572
  126SOPE  H10X13544   5.072   1.433   3.663  0.0059 -1.4902  0.8092
  126SOPE  H10Y13545   5.230   1.362   3.641  0.1268 -0.3849 -0.2962
  126SOPE  C31113546   5.077   1.228   3.561 -0.1176 -0.4192 -0.1544
  126SOPE  H11X13547   5.140   1.171   3.489 -1.1375  0.4144 -1.7808
  126SOPE  H11Y13548   4.980   1.249   3.511 -0.5749  1.7507  1.5020
  126SOPE  C31213549   5.034   1.159   3.694  0.0150  0.5601 -0.4169
  126SOPE  H12X13550   4.966   1.226   3.750  0.7585  0.9916 -0.0149
  126SOPE  H12Y13551   5.130   1.164   3.749 -0.7745 -0.0935  1.0685
  126SOPE  C31313552   4.969   1.022   3.666 -0.4284 -0.7564  0.4390
  126SOPE  H13X13553   5.046   0.965   3.609  0.3021  0.4351  0.1873
  126SOPE  H13Y13554   4.887   1.045   3.594 -0.3738 -1.4205  0.1615
  126SOPE  C31413555   4.921   0.936   3.791 -0.1593 -0.2120  0.3659
  126SOPE  H14X13556   4.988   0.922   3.879  0.1864  0.6247  0.2428
  126SOPE  H14Y13557   4.902   0.835   3.749 -0.1054  0.0256 -0.2368
  126SOPE  C31513558   4.784   0.989   3.828 -0.4455 -0.0287 -0.2639
  126SOPE  H15X13559   4.720   0.991   3.737 -1.0879 -3.1603 -0.0094
  126SOPE  H15Y13560   4.795   1.095   3.859 -1.2195 -0.0840  0.2416
  126SOPE  C31613561   4.713   0.904   3.939  0.0874  0.0805 -0.6830
  126SOPE  H16X13562   4.625   0.956   3.983  0.8448 -0.8171  2.1260
  126SOPE  H16Y13563   4.782   0.883   4.023 -0.4079 -2.4745 -0.8486
  126SOPE  C31713564   4.659   0.770   3.898 -0.7398 -0.3189  0.3831
  126SOPE  H17X13565   4.743   0.703   3.868 -1.0324 -0.8703  0.7792
  126SOPE  H17Y13566   4.587   0.783   3.815 -1.0941 -1.1792  0.5391
  126SOPE  C31813567   4.577   0.697   4.005  0.0703  0.1755  0.1429
  126SOPE  H18X13568   4.531   0.610   3.953 -0.8624  0.8204 -0.1296
  126SOPE  H18Y13569   4.499   0.766   4.044 -0.1046  0.1380 -0.1334
  126SOPE  H18Z13570   4.646   0.667   4.087 -1.1372  0.6171  1.3532
  127SOPE     N13571   4.566   1.341   2.668  0.1097  0.4120  0.3142
  127SOPE   HN113572   4.558   1.381   2.764 -1.2725 -0.3611  0.5530
  127SOPE   HN213573   4.643   1.378   2.610 -0.0169 -1.6387 -1.2365
  127SOPE   HN313574   4.477   1.369   2.621  0.2950  0.5710  0.0547
  127SOPE   C1213575   4.534   1.191   2.682 -0.6352  0.3751  0.0344
  127SOPE  H12A13576   4.627   1.150   2.728 -0.8394 -3.2516 -2.4637
  127SOPE  H12B13577   4.527   1.149   2.580  2.1533 -1.5231  0.5051
  127SOPE   C1113578   4.422   1.158   2.785  0.0673 -0.4535  0.1010
  127SOPE  H11A13579   4.456   1.184   2.887 -1.8303  3.7602 -0.1484
  127SOPE  H11B13580   4.401   1.049   2.784 -1.5540 -0.2041  1.5881
  127SOPE     P13581   4.157   1.153   2.737 -0.1174 -0.1805  0.3523
  127SOPE   O1313582   4.160   1.054   2.629 -0.3518 -0.4944  0.0233
  127SOPE   O1413583   4.057   1.258   2.736 -0.0552 -0.6660 -0.3025
  127SOPE   O1213584   4.295   1.225   2.753 -0.3246 -0.2825  0.0430
  127SOPE   O1113585   4.130   1.068   2.861 -0.0997  0.4834 -0.0436
  127SOPE    C113586   4.152   1.108   2.994  0.7696  0.0835 -0.4721
  127SOPE    HA13587   4.238   1.176   3.015 -0.0263  0.7736  0.6163
  127SOPE    HB13588   4.162   1.022   3.063 -0.5290  0.7744  0.6006
  127SOPE    C213589   4.024   1.192   3.039 -0.3142  0.5239 -0.2348
  127SOPE    HS13590   4.032   1.289   2.986 -2.1145  0.8047 -0.0738
  127SOPE   O2113591   4.038   1.214   3.183 -0.0141  0.6691  0.0038
  127SOPE   C2113592   3.962   1.318   3.226 -0.1985 -0.4880 -0.7185
  127SOPE   O2213593   3.932   1.414   3.160 -0.1105  0.8970  0.2336
  127SOPE   C2213594   3.937   1.300   3.375 -0.3749  0.5338 -0.1814
  127SOPE   H2R13595   4.036   1.284   3.423 -1.2330 -2.1432  0.8905
  127SOPE   H2S13596   3.871   1.212   3.393  0.9793 -0.1519  1.6539
  127SOPE    C313597   3.889   1.124   2.995  0.6112  0.7081 -0.0154
  127SOPE    HX13598   3.894   1.022   3.040 -2.0366  0.3674 -0.3264
  127SOPE    HY13599   3.901   1.118   2.885  2.4752 -1.1605  0.2084
  127SOPE   O3113600   3.777   1.196   3.046  0.4175  0.4073 -0.3874
  127SOPE   C3113601   3.669   1.153   2.991  0.3810  0.4077  0.2397
  127SOPE   O3213602   3.669   1.058   2.911 -0.3801  0.1854 -0.3966
  127SOPE   C3213603   3.538   1.222   3.030 -1.0166  0.5451  0.2009
  127SOPE   H2X13604   3.483   1.253   2.939 -0.2193  1.9040  0.1601
  127SOPE   H2Y13605   3.563   1.325   3.065  2.2580  1.4541 -4.0500
  127SOPE   C2313606   3.861   1.415   3.452 -0.0675  0.1859  0.6324
  127SOPE   H3R13607   3.761   1.426   3.406 -0.2997  0.3615  1.1705
  127SOPE   H3S13608   3.926   1.503   3.429  2.3590 -1.1039  2.1913
  127SOPE   C2413609   3.845   1.393   3.603 -0.1108  0.1737 -0.5160
  127SOPE   H4R13610   3.776   1.468   3.648 -0.2106  0.2069 -0.7260
  127SOPE   H4S13611   3.799   1.293   3.616  1.8451 -0.6331  0.6313
  127SOPE   C2513612   3.974   1.384   3.682  0.0292  0.2133  0.3670
  127SOPE   H5R13613   4.052   1.319   3.637  3.2150  3.6322  0.3786
  127SOPE   H5S13614   4.015   1.488   3.684  0.0421  0.2175  2.0203
  127SOPE   C2613615   3.957   1.345   3.828 -0.6227 -0.1405  0.2299
  127SOPE   H6R13616   3.897   1.428   3.871 -1.3653 -0.1088 -0.8375
  127SOPE   H6S13617   3.908   1.246   3.840  1.0323 -0.8820  1.1394
  127SOPE   C2713618   4.093   1.346   3.904 -1.0534 -0.3970 -0.4455
  127SOPE   H7R13619   4.161   1.278   3.851  0.0515 -0.0265  0.4533
  127SOPE   H7S13620   4.132   1.449   3.892 -0.5233 -0.5428 -0.0207
  127SOPE   C2813621   4.088   1.319   4.057  0.3460 -0.3624 -0.1085
  127SOPE   H8R13622   4.195   1.326   4.087  1.0947 -0.8166 -2.5144
  127SOPE   H8S13623   4.032   1.409   4.091  1.1016 -0.1346  0.5796
  127SOPE   C2913624   4.022   1.193   4.094 -0.4728 -0.2738  0.6756
  127SOPE   H9113625   4.015   1.134   4.001  0.5473  1.6371 -0.6785
  127SOPE  C21013626   4.017   1.146   4.217  0.2334 -0.8279  0.4136
  127SOPE  H10113627   3.977   1.048   4.249 -0.5162 -0.0917  1.8614
  127SOPE  C21113628   4.042   1.228   4.345 -0.3514  0.0500 -0.3305
  127SOPE  H11R13629   3.966   1.216   4.425 -1.2238 -0.2024 -1.1802
  127SOPE  H11S13630   4.043   1.336   4.318  0.4708 -0.3623 -2.0919
  127SOPE  C21213631   4.175   1.184   4.402 -0.0424 -0.2437  0.2782
  127SOPE  H12R13632   4.258   1.212   4.333  0.3859  0.0889  0.9136
  127SOPE  H12S13633   4.175   1.073   4.407 -0.8934 -0.3845 -1.8786
  127SOPE  C21313634   4.207   1.260   4.529 -0.6581  0.5459 -0.1769
  127SOPE  H13R13635   4.114   1.301   4.573 -0.1858  1.3601  0.1003
  127SOPE  H13S13636   4.271   1.351   4.515  0.7304 -0.1497  1.3607
  127SOPE  C21413637   4.290   1.181   4.634  0.3858 -0.8572 -0.5548
  127SOPE  H14R13638   4.311   1.249   4.719 -0.5710 -2.7011  1.2464
  127SOPE  H14S13639   4.390   1.157   4.592  1.0357  0.1905  0.3291
  127SOPE  C21513640   4.208   1.071   4.684  0.2236  0.0649  0.0605
  127SOPE  H15R13641   4.217   0.979   4.622 -0.6763 -0.2143  0.3354
  127SOPE  H15S13642   4.100   1.096   4.693  0.3806  0.7788  0.0160
  127SOPE  C21613643   4.260   1.017   4.819  0.3944  0.3941  0.0446
  127SOPE  H16R13644   4.244   1.087   4.904 -2.5737  0.9163 -0.8251
  127SOPE  H16S13645   4.368   0.994   4.804  0.5851  0.2009  1.5631
  127SOPE  C21713646   4.188   0.889   4.872 -0.6990 -1.1888  0.2531
  127SOPE  H17R13647   4.241   0.843   4.958  2.1654 -0.0712 -0.7727
  127SOPE  H17S13648   4.189   0.807   4.798  2.0218  0.9200 -2.3370
  127SOPE  C21813649   4.048   0.929   4.921  0.4793  0.4068 -0.4859
  127SOPE  H18R13650   3.984   0.953   4.834  1.5863  2.1159 -0.8816
  127SOPE  H18S13651   4.047   1.010   4.996  0.2522  0.6920 -0.7944
  127SOPE  H18T13652   4.012   0.838   4.974  2.4159 -0.0004  0.2331
  127SOPE   C3313653   3.449   1.137   3.114  0.4370 -0.6759  0.7874
  127SOPE   H3X13654   3.439   1.040   3.061 -2.4956  0.6114 -1.2231
  127SOPE   H3Y13655   3.349   1.184   3.120  0.7039  0.0777 -0.4175
  127SOPE   C3413656   3.495   1.107   3.253 -0.7793 -0.4119 -0.1285
  127SOPE   H4X13657   3.600   1.071   3.260 -0.6864  0.1545  2.1805
  127SOPE   H4Y13658   3.422   1.037   3.299 -1.4291  0.6654  0.5343
  127SOPE   C3513659   3.496   1.228   3.346  0.0638 -0.2170  0.9060
  127SOPE   H5X13660   3.396   1.277   3.344  0.6609  1.0920 -1.4504
  127SOPE   H5Y13661   3.569   1.304   3.310  0.2579 -0.7468  0.1585
  127SOPE   C3613662   3.529   1.172   3.486  0.0123  0.4071 -0.5734
  127SOPE   H6X13663   3.635   1.140   3.483  0.8526  2.4170  2.7608
  127SOPE   H6Y13664   3.476   1.077   3.508 -0.0816 -0.3662 -3.6846
  127SOPE   C3713665   3.510   1.277   3.602  0.2717 -0.1228 -1.4213
  127SOPE   H7X13666   3.410   1.325   3.602  0.5041  0.3851 -0.2097
  127SOPE   H7Y13667   3.583   1.360   3.584 -1.2084  2.0762  1.6976
  127SOPE   C3813668   3.546   1.223   3.741 -0.9206  1.0753  0.3744
  127SOPE   H8X13669   3.649   1.181   3.732 -0.9949  1.2089 -1.6843
  127SOPE   H8Y13670   3.475   1.141   3.761  0.8102 -0.4868  0.3995
  127SOPE   C3913671   3.544   1.337   3.845  0.1817 -0.4946  0.2507
  127SOPE   H9X13672   3.449   1.394   3.850 -0.3433 -1.0414 -2.3309
  127SOPE   H9Y13673   3.615   1.414   3.809 -0.3653  0.3578  0.9613
  127SOPE  C31013674   3.577   1.279   3.982  0.3046  0.4041 -0.1503
  127SOPE  H10X13675   3.681   1.242   3.989  0.5618  1.1604  0.0804
  127SOPE  H10Y13676   3.504   1.196   3.999  0.2765  0.2132 -1.1614
  127SOPE  C31113677   3.556   1.379   4.092  0.0976  0.5018  0.0724
  127SOPE  H11X13678   3.452   1.416   4.103  0.3118  0.8294  1.0522
  127SOPE  H11Y13679   3.618   1.467   4.064  0.8343 -0.1273 -0.3063
  127SOPE  C31213680   3.612   1.334   4.224 -0.3724 -0.0811 -0.2691
  127SOPE  H12X13681   3.719   1.310   4.207  0.0434  1.4563  0.0392
  127SOPE  H12Y13682   3.556   1.245   4.261  0.4373 -0.4841 -0.0022
  127SOPE  C31313683   3.601   1.443   4.334 -1.0679 -0.0338  0.7929
  127SOPE  H13X13684   3.628   1.545   4.302  0.4233 -0.1409  1.6412
  127SOPE  H13Y13685   3.670   1.425   4.419  0.6886  1.2171 -0.3069
  127SOPE  C31413686   3.458   1.459   4.394 -0.1801 -0.0279 -0.2650
  127SOPE  H14X13687   3.403   1.364   4.383  0.2778 -0.2702 -0.5167
  127SOPE  H14Y13688   3.398   1.528   4.331 -0.3254 -1.4601 -1.7804
  127SOPE  C31513689   3.470   1.519   4.532  0.4168  0.6288 -0.1173
  127SOPE  H15X13690   3.521   1.618   4.536 -1.3642  1.5754  0.1232
  127SOPE  H15Y13691   3.536   1.454   4.593 -0.3982 -1.8142 -1.6857
  127SOPE  C31613692   3.340   1.508   4.613 -0.1498 -0.0019  0.2552
  127SOPE  H16X13693   3.302   1.404   4.628  0.9021  0.0386  4.0813
  127SOPE  H16Y13694   3.267   1.561   4.548  0.0785 -0.1965 -0.1637
  127SOPE  C31713695   3.357   1.569   4.752  1.2808 -0.3737 -0.8540
  127SOPE  H17X13696   3.450   1.627   4.769  0.9338 -0.2013  0.5760
  127SOPE  H17Y13697   3.353   1.484   4.823 -1.6478 -0.1487 -0.6117
  127SOPE  C31813698   3.230   1.656   4.785  0.1627  0.4610  0.0155
  127SOPE  H18X13699   3.239   1.701   4.887 -0.3536 -0.5820  0.5381
  127SOPE  H18Y13700   3.141   1.590   4.775 -0.6163  1.5004 -0.1750
  127SOPE  H18Z13701   3.216   1.746   4.722  0.3332  0.3187 -0.2251
  128SOPE     N13702   0.678   6.670   2.079 -0.4398 -0.4530  0.7601
  128SOPE   HN113703   0.691   6.761   2.127  0.0464  0.4607 -1.0358
  128SOPE   HN213704   0.596   6.620   2.119 -0.0922 -0.4781  1.4629
  128SOPE   HN313705   0.770   6.621   2.085 -0.1996 -0.6635 -2.7568
  128SOPE   C1213706   0.677   6.704   1.931 -0.2855  0.3943 -0.1169
  128SOPE  H12A13707   0.575   6.727   1.894 -1.1426 -2.5311  0.2036
  128SOPE  H12B13708   0.717   6.612   1.883 -1.6460  1.3422 -3.3849
  128SOPE   C1113709   0.791   6.805   1.901 -0.0413  0.0307 -0.0354
  128SOPE  H11A13710   0.796   6.804   1.790  2.0332  0.4600  0.0213
  128SOPE  H11B13711   0.890   6.769   1.936 -1.3541 -1.9738  1.8400
  128SOPE     P13712   0.825   7.002   2.085 -0.0807  0.0459  0.1323
  128SOPE   O1313713   0.770   7.137   2.120 -0.3034 -0.6752  0.2155
  128SOPE   O1413714   0.971   6.991   2.090  0.3379  0.3192 -0.3279
  128SOPE   O1213715   0.757   6.933   1.949 -0.7062  0.4245 -0.2296
  128SOPE   O1113716   0.770   6.893   2.185  0.3525 -0.5121  0.0401
  128SOPE    C113717   0.725   6.938   2.315 -0.3001  0.1951  1.1404
  128SOPE    HA13718   0.614   6.939   2.324 -0.3094  0.8515  1.0365
  128SOPE    HB13719   0.769   7.035   2.348  0.0801  0.0530  1.0555
  128SOPE    C213720   0.786   6.842   2.431  0.2255 -0.2584  0.2761
  128SOPE    HS13721   0.895   6.839   2.408 -0.0871  0.3219 -1.4007
  128SOPE   O2113722   0.724   6.713   2.430 -0.3151  0.1021  0.6706
  128SOPE   C2113723   0.811   6.615   2.452  0.0739 -0.9718 -0.9016
  128SOPE   O2213724   0.932   6.625   2.449 -0.0541 -0.2459  0.1841
  128SOPE   C2213725   0.739   6.492   2.503  0.0553 -0.4549  0.1338
  128SOPE   H2R13726   0.757   6.423   2.418  2.4639  2.2933 -1.7959
  128SOPE   H2S13727   0.635   6.519   2.530  0.4220  1.1599 -0.0075
  128SOPE    C313728   0.777   6.920   2.569  0.0224 -0.3927 -0.1344
  128SOPE    HX13729   0.670   6.942   2.587 -0.5150 -2.4013 -0.5599
  128SOPE    HY13730   0.834   7.013   2.548 -1.4462  0.3423 -1.0386
  128SOPE   O3113731   0.833   6.828   2.672 -0.4550 -0.8265 -0.0391
  128SOPE   C3113732   0.957   6.843   2.688 -0.1109  0.5408  0.6939
  128SOPE   O3213733   1.039   6.906   2.620 -0.1401  0.2710 -0.1264
  128SOPE   C3213734   0.994   6.767   2.812 -0.5318 -0.1645  0.7896
  128SOPE   H2X13735   1.104   6.756   2.816 -0.4088 -1.1448 -2.5066
  128SOPE   H2Y13736   0.963   6.664   2.783 -0.4679 -0.3782  1.4540
  128SOPE   C2313737   0.808   6.429   2.629 -0.0356 -0.6504 -0.7742
  128SOPE   H3R13738   0.733   6.357   2.669 -0.3394 -0.2962 -0.6971
  128SOPE   H3S13739   0.825   6.505   2.708  0.2090  0.8693 -2.2304
  128SOPE   C2413740   0.941   6.362   2.617 -0.8573 -0.1399 -0.0780
  128SOPE   H4R13741   0.927   6.259   2.577  1.3525 -0.2207 -0.7744
  128SOPE   H4S13742   1.014   6.418   2.555  0.1729 -1.3852 -0.0352
  128SOPE   C2513743   1.022   6.330   2.750  0.2719 -0.3307  0.2617
  128SOPE   H5R13744   1.044   6.421   2.810 -0.9379 -0.7875  1.4461
  128SOPE   H5S13745   0.971   6.260   2.819 -1.0671  0.2001 -0.1644
  128SOPE   C2613746   1.157   6.260   2.726  0.0634  0.3202  0.6951
  128SOPE   H6R13747   1.171   6.191   2.811 -1.3788 -1.1043 -0.1725
  128SOPE   H6S13748   1.163   6.192   2.638  1.0904 -0.5413  1.4030
  128SOPE   C2713749   1.278   6.358   2.720  0.0234  0.1726 -0.7390
  128SOPE   H7R13750   1.355   6.317   2.651  1.7350 -1.6767  2.0567
  128SOPE   H7S13751   1.226   6.452   2.692 -0.0968  1.6431  3.6164
  128SOPE   C2813752   1.333   6.396   2.855  0.2658  0.6984 -0.1736
  128SOPE   H8R13753   1.401   6.483   2.839 -0.4840  1.6200  1.3654
  128SOPE   H8S13754   1.247   6.433   2.915 -1.8274 -1.2453 -1.8015
  128SOPE   C2913755   1.406   6.285   2.924 -0.1609  0.6472  1.1411
  128SOPE   H9113756   1.461   6.210   2.866  0.6596 -0.0135  2.7213
  128SOPE  C21013757   1.419   6.269   3.057  0.5081  0.1268 -0.8626
  128SOPE  H10113758   1.474   6.178   3.084 -0.4355 -0.6137 -1.4019
  128SOPE  C21113759   1.368   6.362   3.171  0.5825 -0.4025  0.8786
  128SOPE  H11R13760   1.258   6.347   3.180  0.0018  1.9065 -1.4382
  128SOPE  H11S13761   1.388   6.469   3.150  1.0315 -0.2302  2.1135
  128SOPE  C21213762   1.443   6.332   3.304 -0.1020 -0.4146 -0.8603
  128SOPE  H12R13763   1.551   6.355   3.298 -0.0518  0.3660  1.8822
  128SOPE  H12S13764   1.430   6.224   3.325 -0.7262 -0.0449  0.8216
  128SOPE  C21313765   1.375   6.409   3.416 -0.1319 -0.3362 -0.1372
  128SOPE  H13R13766   1.264   6.413   3.406  0.0861  1.0943 -2.8319
  128SOPE  H13S13767   1.411   6.512   3.396  3.8281 -1.7163 -1.0311
  128SOPE  C21413768   1.418   6.361   3.554 -0.5421 -0.1593 -0.3877
  128SOPE  H14R13769   1.528   6.351   3.557 -0.5381  0.0563  0.3227
  128SOPE  H14S13770   1.355   6.270   3.562 -1.1190  0.0738 -1.8689
  128SOPE  C21513771   1.375   6.456   3.668 -0.8451  0.4362  0.1818
  128SOPE  H15R13772   1.269   6.489   3.674 -0.5217  1.9706 -1.5875
  128SOPE  H15S13773   1.426   6.553   3.648 -3.8519  2.1352  0.1613
  128SOPE  C21613774   1.426   6.388   3.799  0.3224 -0.3482 -0.1088
  128SOPE  H16R13775   1.537   6.396   3.799  0.2523  2.7474 -2.7692
  128SOPE  H16S13776   1.394   6.282   3.793  1.7305 -0.7733 -0.5677
  128SOPE  C21713777   1.361   6.448   3.925 -0.0331 -0.6165  0.0618
  128SOPE  H17R13778   1.253   6.423   3.931 -0.2707  0.5910  1.5721
  128SOPE  H17S13779   1.380   6.556   3.908 -1.0924 -0.1830  1.3643
  128SOPE  C21813780   1.409   6.412   4.067 -0.6848  0.2732 -0.6151
  128SOPE  H18R13781   1.352   6.477   4.137 -1.6510  0.9048 -1.9402
  128SOPE  H18S13782   1.519   6.417   4.084 -0.8579  0.1948  0.6760
  128SOPE  H18T13783   1.385   6.304   4.078 -3.1583  0.9074  0.9989
  128SOPE   C3313784   0.925   6.814   2.942  0.2123  0.1533 -0.2298
  128SOPE   H3X13785   0.820   6.841   2.917 -1.0739 -5.1173 -1.7843
  128SOPE   H3Y13786   0.979   6.903   2.980 -2.2423  2.1043 -1.0204
  128SOPE   C3413787   0.909   6.697   3.042 -0.0090  0.3920 -0.0937
  128SOPE   H4X13788   1.005   6.642   3.038 -0.2848 -0.0359 -1.2495
  128SOPE   H4Y13789   0.844   6.617   2.999 -0.1454 -0.2601  1.3002
  128SOPE   C3513790   0.867   6.728   3.183  0.2582  0.2728 -0.1659
  128SOPE   H5X13791   0.774   6.789   3.183  0.9140  1.4126 -2.6607
  128SOPE   H5Y13792   0.956   6.786   3.214 -0.4198  1.3222 -0.1489
  128SOPE   C3613793   0.854   6.605   3.271 -0.1133  0.3938  0.0161
  128SOPE   H6X13794   0.936   6.532   3.252 -0.4096  0.0071  0.2069
  128SOPE   H6Y13795   0.755   6.564   3.239  0.0899  1.6072 -2.3596
  128SOPE   C3713796   0.863   6.631   3.423  0.2061 -0.2868  0.2632
  128SOPE   H7X13797   0.807   6.551   3.475 -0.9878 -0.7422 -1.6115
  128SOPE   H7Y13798   0.814   6.729   3.443  0.2703 -0.0620 -0.6252
  128SOPE   C3813799   1.004   6.643   3.480 -0.1687 -0.2835  0.5231
  128SOPE   H8X13800   1.061   6.717   3.420 -0.2584 -0.6269  0.0077
  128SOPE   H8Y13801   1.053   6.545   3.459  1.5338  0.9433 -1.6160
  128SOPE   C3913802   1.021   6.692   3.625 -0.4001  0.5795  0.2035
  128SOPE   H9X13803   1.000   6.800   3.640  0.5852  0.5505  2.1019
  128SOPE   H9Y13804   1.131   6.682   3.637 -0.3172 -1.6553 -1.7091
  128SOPE  C31013805   0.958   6.598   3.733  0.3007  0.3785  0.0447
  128SOPE  H10X13806   0.982   6.491   3.711  1.0688  0.9249 -1.9657
  128SOPE  H10Y13807   0.848   6.599   3.722  0.2010  0.8032  1.0453
  128SOPE  C31113808   1.007   6.643   3.873  0.0319  0.0355  0.0463
  128SOPE  H11X13809   0.966   6.744   3.896 -0.0703 -0.8370  4.5335
  128SOPE  H11Y13810   1.116   6.652   3.890 -0.0237  0.9670 -0.0433
  128SOPE  C31213811   0.956   6.553   3.982  0.3921  0.0161  0.7201
  128SOPE  H12X13812   0.984   6.451   3.948  3.0801  0.9685 -0.2071
  128SOPE  H12Y13813   0.845   6.560   3.985  0.1209 -0.8006 -2.7712
  128SOPE  C31313814   1.021   6.590   4.117 -0.3354  0.4199  1.1404
  128SOPE  H13X13815   0.989   6.695   4.136 -1.5370  0.3821 -0.4729
  128SOPE  H13Y13816   1.129   6.605   4.095 -0.9107  0.8633 -1.8417
  128SOPE  C31413817   0.999   6.491   4.231  0.1039 -0.2133  0.1325
  128SOPE  H14X13818   1.047   6.526   4.324  0.2693 -2.6356  1.0352
  128SOPE  H14Y13819   1.047   6.393   4.209 -0.3879 -0.3575 -0.3297
  128SOPE  C31513820   0.850   6.458   4.252  0.0173 -0.1712  0.1971
  128SOPE  H15X13821   0.813   6.389   4.173  0.7362  0.3555 -0.6170
  128SOPE  H15Y13822   0.796   6.555   4.255  0.6844  0.3010 -1.6755
  128SOPE  C31613823   0.825   6.391   4.387  0.5372 -0.0895  0.2485
  128SOPE  H16X13824   0.714   6.400   4.390  0.6877  2.1221  0.6297
  128SOPE  H16Y13825   0.867   6.443   4.475  0.2655 -3.0522  2.2603
  128SOPE  C31713826   0.861   6.244   4.394 -0.3601 -0.3236  0.1027
  128SOPE  H17X13827   0.965   6.234   4.433 -1.3679  1.5890  3.7246
  128SOPE  H17Y13828   0.846   6.208   4.290 -1.0968  3.3754 -1.1893
  128SOPE  C31813829   0.776   6.153   4.481  0.6441  0.6339  0.2527
  128SOPE  H18X13830   0.798   6.173   4.588  1.0120 -1.0417  0.5249
  128SOPE  H18Y13831   0.795   6.046   4.457 -1.7451 -0.2054  1.7289
  128SOPE  H18Z13832   0.669   6.173   4.462  0.7316 -0.5358 -1.7749
  129OSM      N13833   4.762   2.116   7.346 -1.0357  0.3673  0.6648
  129OSM    C1513834   4.784   2.247   7.274 -0.7597  0.0026 -0.4422
  129OSM   H15A13835   4.852   2.303   7.337 -1.7238  2.7538 -1.7060
  129OSM   H15B13836   4.688   2.295   7.264 -1.3438 -0.6695  1.5254
  129OSM   H15C13837   4.843   2.234   7.184 -1.6091  2.6784 -1.4932
  129OSM    C1413838   4.904   2.062   7.373 -0.4553 -0.4259 -0.1612
  129OSM   H14A13839   4.901   1.960   7.407 -2.1302  0.2126  1.8817
  129OSM   H14B13840   4.967   2.129   7.430  0.3943 -1.6790  0.4046
  129OSM   H14C13841   4.953   2.058   7.277  1.3723 -0.5539  0.7522
  129OSM    C1313842   4.706   2.147   7.477 -0.0260 -0.2250  0.1747
  129OSM   H13A13843   4.703   2.053   7.531 -1.6195  0.6254  1.6808
  129OSM   H13B13844   4.603   2.179   7.476  0.5008  1.7656 -3.0897
  129OSM   H13C13845   4.764   2.215   7.537  0.4816  1.7908 -2.4194
  129OSM    C1213846   4.688   2.018   7.261  0.1214  0.2379  0.1107
  129OSM   H12A13847   4.589   2.044   7.229 -0.0225  0.9059  1.0856
  129OSM   H12B13848   4.663   1.928   7.316 -3.5860  0.4865 -0.9328
  129OSM    C1113849   4.758   1.971   7.130  0.3059 -0.1319  0.0764
  129OSM   H11A13850   4.691   1.900   7.078 -0.8295  1.6893 -1.0561
  129OSM   H11B13851   4.846   1.910   7.161 -0.9152 -2.0807 -0.1385
  129OSM      P13852   4.925   2.095   6.967 -0.0953  0.1145  0.3762
  129OSM    O1313853   4.906   2.201   6.868 -0.5004  0.2010  0.5302
  129OSM    O1413854   5.044   2.104   7.054  0.3267 -0.7482 -0.4710
  129OSM    O1113855   4.939   1.959   6.886 -0.1249 -0.1556 -0.1004
  129OSM    O1213856   4.790   2.079   7.040  0.6084 -0.0623 -0.2030
  129OSM    C1S13857   4.848   1.920   6.783 -0.4305 -0.2547  0.3314
  129OSM    H1S13858   4.756   1.981   6.779 -0.6177 -0.5646 -0.1180
  129OSM    H1T13859   4.824   1.813   6.800  0.1370 -0.8330 -2.1659
  129OSM     NF13860   4.800   1.879   6.554 -0.2648  0.4618 -0.5339
  129OSM    HNF13861   4.824   1.789   6.518 -0.8658 -0.0276  0.2559
  129OSM    C2S13862   4.898   1.932   6.637 -0.3984  0.0518 -0.4142
  129OSM    H2S13863   4.902   2.040   6.613  1.9705 -0.1018 -0.8854
  129OSM    C3S13864   5.036   1.858   6.619 -0.3224 -0.6244 -0.3861
  129OSM    H3S13865   5.031   1.751   6.651  0.4798  0.0551  2.2400
  129OSM     O313866   5.144   1.893   6.709  0.3265  0.0479  0.2556
  129OSM    HO313867   5.106   1.948   6.778  0.5122 -1.7735  1.8750
  129OSM    C4S13868   5.078   1.876   6.473 -0.0328 -0.3034  0.4498
  129OSM    H4S13869   5.048   1.789   6.412  0.2574  0.5804 -1.0231
  129OSM    C5S13870   5.152   1.975   6.412 -0.0070 -0.2790 -0.0119
  129OSM    H5S13871   5.192   2.054   6.477 -1.4787  0.0099  0.5790
  129OSM    C6S13872   5.207   1.992   6.270 -0.1678  0.8758 -0.2553
  129OSM    H6S13873   5.289   1.918   6.258 -3.0837 -2.5800 -0.4375
  129OSM    H6T13874   5.260   2.089   6.260  2.7124 -0.4460  0.9073
  129OSM    C7S13875   5.139   1.958   6.137  0.7934  0.2988 -0.5208
  129OSM    H7S13876   5.056   2.028   6.115  0.7024  0.7197  1.0319
  129OSM    H7T13877   5.098   1.855   6.150  1.2064 -0.0793 -1.9788
  129OSM    C8S13878   5.256   1.960   6.025 -0.0585 -0.2064 -0.7546
  129OSM    H8S13879   5.319   1.872   6.051 -0.0438  0.2617  0.8389
  129OSM    H8T13880   5.306   2.058   6.036  1.0972 -1.0091  1.6383
  129OSM    C9S13881   5.210   1.950   5.881  0.0477  0.0248  0.3120
  129OSM    H9S13882   5.155   2.042   5.852  0.4177  0.8076  1.9463
  129OSM    H9T13883   5.134   1.871   5.864  0.6519 -0.9980  2.1167
  129OSM   C10S13884   5.328   1.914   5.790 -0.1505  0.0440  0.1944
  129OSM   H10S13885   5.361   1.809   5.805  1.3293 -0.1354 -3.2908
  129OSM   H10T13886   5.416   1.977   5.816 -0.6848  0.0581  2.0538
  129OSM   C11S13887   5.288   1.930   5.648 -0.5738 -0.4307  0.0307
  129OSM   H11S13888   5.191   1.882   5.623 -1.8612 -0.0510  3.6917
  129OSM   H11T13889   5.372   1.880   5.596  0.6529  1.6407 -0.0718
  129OSM   C12S13890   5.289   2.075   5.609 -0.1536 -0.0811 -0.0841
  129OSM   H12S13891   5.383   2.123   5.644 -0.5946  2.3343 -1.9328
  129OSM   H12T13892   5.198   2.126   5.648 -0.8537  0.3741 -2.1903
  129OSM   C13S13893   5.303   2.091   5.454 -0.7904  0.3924 -0.2910
  129OSM   H13S13894   5.406   2.061   5.427 -1.1601 -0.1088 -1.2031
  129OSM   H13T13895   5.298   2.196   5.420 -0.4201  0.4942 -0.0369
  129OSM   C14S13896   5.218   2.000   5.365  0.8413  0.0580  0.5261
  129OSM   H14S13897   5.113   2.000   5.401  0.5494 -3.6296  0.1164
  129OSM   H14T13898   5.260   1.897   5.366  0.7837  0.0370  0.6874
  129OSM   C15S13899   5.231   2.030   5.210  0.1246 -0.0528  0.0460
  129OSM   H15S13900   5.332   1.997   5.178 -0.1625 -0.1534 -0.7897
  129OSM   H15T13901   5.239   2.140   5.195  0.8774 -0.2993 -1.5338
  129OSM   C16S13902   5.117   1.970   5.126  0.5571 -0.5501 -0.4321
  129OSM   H16S13903   5.023   2.013   5.168  2.1030  1.5037  1.0769
  129OSM   H16T13904   5.112   1.859   5.114 -2.5960 -0.4724 -0.8688
  129OSM   C17S13905   5.130   2.017   4.986 -0.7252 -0.4627 -0.2845
  129OSM   H17S13906   5.230   1.995   4.943 -1.5368 -2.0989 -1.4605
  129OSM   H17T13907   5.129   2.128   4.983  1.1100 -0.4327 -0.5535
  129OSM   C18S13908   5.028   1.952   4.892  0.3516  0.3200  0.5161
  129OSM   H18S13909   5.043   1.995   4.790 -0.0450  1.3902  0.8957
  129OSM   H18T13910   4.927   1.989   4.920  0.0510 -1.9879  2.7548
  129OSM   H18U13911   5.020   1.842   4.892 -0.7552  0.3925  0.1216
  129OSM    C1F13912   4.678   1.920   6.536  0.2923 -0.8469  0.1276
  129OSM     OF13913   4.646   2.038   6.548  0.0856 -0.1827 -0.3091
  129OSM    C2F13914   4.582   1.816   6.485  0.0360  0.6241  0.6046
  129OSM    H2F13915   4.518   1.796   6.573  2.0139 -2.0609  1.5714
  129OSM    H2G13916   4.632   1.718   6.468 -1.4143 -0.1055  0.4103
  129OSM    C3F13917   4.527   1.855   6.348  0.1389  0.4586 -0.3870
  129OSM    H3F13918   4.611   1.848   6.277  1.4616  2.8299  0.7945
  129OSM    H3G13919   4.482   1.957   6.346  1.3211  1.0182  0.5287
  129OSM    C4F13920   4.410   1.764   6.295 -0.0000 -0.1949 -0.1226
  129OSM    H4F13921   4.387   1.794   6.191 -0.5188 -0.1078  0.0160
  129OSM    H4G13922   4.323   1.781   6.362 -0.0216 -1.8078  0.3114
  129OSM    C5F13923   4.441   1.615   6.295 -0.4927  0.2367  0.0983
  129OSM    H5F13924   4.356   1.548   6.271 -1.3856  1.4435 -0.2260
  129OSM    H5G13925   4.471   1.579   6.396 -0.9671 -0.7268 -0.0936
  129OSM    C6F13926   4.568   1.582   6.202 -0.0448  0.6748 -0.0090
  129OSM    H6F13927   4.592   1.474   6.215 -1.2948  0.1302 -1.8505
  129OSM    H6G13928   4.661   1.632   6.237  1.1566 -0.7031 -1.1035
  129OSM    C7F13929   4.558   1.629   6.056 -0.0418  0.4612  0.4416
  129OSM    H7F13930   4.558   1.740   6.050 -1.3797  0.8821  4.7221
  129OSM    H7G13931   4.462   1.591   6.014  0.6666 -0.3491 -0.4892
  129OSM    C8F13932   4.672   1.580   5.960  1.5387  0.6620 -0.0946
  129OSM    H8F13933   4.636   1.596   5.856 -1.1357 -0.3684  0.6034
  129OSM    H8G13934   4.677   1.469   5.971 -0.0921  0.0291 -4.0352
  129OSM    C9F13935   4.811   1.641   5.991 -0.5464 -0.0450 -0.0397
  129OSM    H9F13936   4.860   1.623   6.087  1.6373 -0.7750 -1.2225
  129OSM   C10F13937   4.873   1.732   5.909 -0.2989 -0.6168 -0.5502
  129OSM   H10F13938   4.966   1.777   5.946 -1.1993 -0.4079  1.5897
  129OSM   C11F13939   4.815   1.796   5.789 -0.4021  0.4222  0.1440
  129OSM   H11F13940   4.830   1.906   5.787 -0.2429  0.3970 -0.7714
  129OSM   H11G13941   4.704   1.787   5.791 -0.4798  1.4512  0.8357
  129OSM   C12F13942   4.860   1.735   5.654  0.0633 -0.2278 -0.8647
  129OSM   H12F13943   4.858   1.624   5.658 -0.4140 -0.1892  0.1691
  129OSM   H12G13944   4.966   1.754   5.629  0.0837  0.1571 -0.4843
  129OSM   C13F13945   4.772   1.769   5.534  0.3737 -0.7642  0.0169
  129OSM   H13F13946   4.726   1.867   5.559  0.5598 -0.8198  0.5937
  129OSM   H13G13947   4.691   1.694   5.525 -0.7738  0.4366 -0.0297
  129OSM   C14F13948   4.836   1.784   5.396 -0.2174 -0.9869  0.2399
  129OSM   H14F13949   4.900   1.698   5.366  1.5294 -0.3675  2.0065
  129OSM   H14G13950   4.912   1.865   5.397  1.0275 -2.0893  2.7208
  129OSM   C15F13951   4.731   1.801   5.279 -0.1744  0.0300 -0.3002
  129OSM   H15F13952   4.684   1.900   5.296  1.9732  1.0805 -0.1669
  129OSM   H15G13953   4.656   1.719   5.291 -0.9107  0.6271 -0.7142
  129OSM   C16F13954   4.793   1.792   5.133 -0.9225  0.3861 -0.4765
  129OSM   H16F13955   4.859   1.704   5.126 -0.5924  0.7393 -2.5160
  129OSM   H16G13956   4.857   1.881   5.114 -1.4301  1.6120  2.8924
  129OSM   C17F13957   4.682   1.777   5.032 -0.4643 -0.0655  0.2270
  129OSM   H17F13958   4.606   1.703   5.064 -0.4681  0.3770  1.2716
  129OSM   H17G13959   4.744   1.731   4.951  0.7837 -0.3434  1.2984
  129OSM   C18F13960   4.611   1.899   4.984  0.1643 -0.8506 -0.2251
  129OSM   H18F13961   4.537   1.868   4.907  0.9561 -0.5091 -1.1502
  129OSM   H18G13962   4.675   1.980   4.942 -1.0580 -0.0180 -0.5131
  129OSM   H18H13963   4.573   1.935   5.082  0.9156 -1.9374  0.4958
  130OSM      N13964   6.656   5.054   6.933 -0.4887 -0.1595 -0.0403
  130OSM    C1513965   6.652   5.104   7.073  0.1879  0.1006  0.7881
  130OSM   H15A13966   6.561   5.067   7.117 -0.6248 -1.2756 -1.8579
  130OSM   H15B13967   6.651   5.212   7.081 -1.5614  0.2310 -0.4339
  130OSM   H15C13968   6.741   5.082   7.129 -0.0670  0.1685  1.2202
  130OSM    C1413969   6.559   5.151   6.861  0.1704 -0.2014 -0.0472
  130OSM   H14A13970   6.547   5.123   6.757 -0.1612  0.4736 -0.1986
  130OSM   H14B13971   6.594   5.253   6.863 -2.1594  0.6520  0.1407
  130OSM   H14C13972   6.454   5.148   6.886  0.4378 -0.2964  1.0860
  130OSM    C1313973   6.789   5.096   6.878 -0.4739  0.4001  0.2019
  130OSM   H13A13974   6.785   5.204   6.881  2.6928  0.5890  0.9366
  130OSM   H13B13975   6.803   5.065   6.776  1.5239 -0.9106  0.8043
  130OSM   H13C13976   6.874   5.054   6.931 -0.4075 -0.3336 -0.4671
  130OSM    C1213977   6.634   4.907   6.914  0.0764  0.9034  0.4484
  130OSM   H12A13978   6.691   4.846   6.982  0.7449  0.4743 -0.4726
  130OSM   H12B13979   6.651   4.880   6.811 -0.1591  1.5033  0.2443
  130OSM    C1113980   6.491   4.861   6.938  0.2251  0.1880 -0.1596
  130OSM   H11A13981   6.420   4.909   6.868  1.1663 -0.9044 -1.9276
  130OSM   H11B13982   6.448   4.878   7.040  0.2051 -1.9851  0.2449
  130OSM      P13983   6.439   4.637   6.794  0.0481  0.0902 -0.0411
  130OSM    O1313984   6.495   4.500   6.800  0.2697 -0.0897 -0.2036
  130OSM    O1413985   6.296   4.651   6.778  0.6484 -0.1793 -0.1108
  130OSM    O1113986   6.494   4.713   6.672  0.0541  0.1665  0.1159
  130OSM    O1213987   6.489   4.719   6.923  0.0282  0.0769 -0.1278
  130OSM    C1S13988   6.538   4.633   6.561  0.1679  0.0443 -0.6195
  130OSM    H1S13989   6.456   4.563   6.535 -0.2207  1.0665 -2.3173
  130OSM    H1T13990   6.622   4.561   6.576 -0.1116 -0.1461  0.0534
  130OSM     NF13991   6.573   4.643   6.312 -0.6904  0.2598  0.3314
  130OSM    HNF13992   6.666   4.623   6.282 -0.4960  3.1222 -1.3824
  130OSM    C2S13993   6.558   4.723   6.438 -0.3794  0.1852  1.2429
  130OSM    H2S13994   6.468   4.783   6.411 -0.7709 -1.1568 -0.6752
  130OSM    C3S13995   6.667   4.831   6.472 -0.2822  0.4858  0.3768
  130OSM    H3S13996   6.748   4.765   6.509 -0.1634  0.3474 -0.1314
  130OSM     O313997   6.641   4.926   6.578  0.4193 -0.3492  0.1824
  130OSM    HO313998   6.557   4.904   6.619  1.0582 -2.6682  0.3739
  130OSM    C4S13999   6.715   4.903   6.351  0.6379 -0.0036 -0.7947
  130OSM    H4S14000   6.641   4.921   6.272  0.1329  1.8303  0.0602
  130OSM    C5S14001   6.843   4.931   6.320 -0.4608 -0.5130  0.2359
  130OSM    H5S14002   6.920   4.897   6.390  1.4758  1.5880 -0.7536
  130OSM    C6S14003   6.892   4.996   6.192  0.1709 -0.5983  0.2988
  130OSM    H6S14004   6.869   5.104   6.179 -1.6137 -1.2978 -5.0506
  130OSM    H6T14005   6.844   4.951   6.102  0.5193  1.2252 -0.8628
  130OSM    C7S14006   7.048   4.988   6.165  0.3349  0.4691  0.2863
  130OSM    H7S14007   7.088   4.887   6.188 -2.3665 -1.0848 -1.3107
  130OSM    H7T14008   7.095   5.057   6.238  0.8230 -0.0986  0.5195
  130OSM    C8S14009   7.081   5.028   6.018 -0.0158  0.5858 -0.3636
  130OSM    H8S14010   7.028   5.123   5.994 -0.9482  0.6022  1.5785
  130OSM    H8T14011   7.028   4.958   5.950  0.4033  2.5882 -2.9227
  130OSM    C9S14012   7.227   5.024   5.971  0.0878 -0.2279 -0.3178
  130OSM    H9S14013   7.271   4.922   5.970 -0.3063 -0.4151  0.6636
  130OSM    H9T14014   7.285   5.088   6.041  0.2844 -1.2720  0.4932
  130OSM   C10S14015   7.245   5.076   5.829 -0.6023  0.3276 -0.4451
  130OSM   H10S14016   7.161   5.037   5.766  0.6547 -0.5845 -1.6343
  130OSM   H10T14017   7.334   5.036   5.776  0.0551  2.4436 -1.0386
  130OSM   C11S14018   7.252   5.228   5.823  0.5055 -0.3955  0.0659
  130OSM   H11S14019   7.349   5.255   5.869 -0.1021  0.0434  1.1124
  130OSM   H11T14020   7.162   5.264   5.876  1.4425  0.7170  0.9391
  130OSM   C12S14021   7.263   5.286   5.683  0.0517  0.3969  0.9537
  130OSM   H12S14022   7.180   5.235   5.629 -1.6012  2.7288  1.1248
  130OSM   H12T14023   7.356   5.259   5.629  2.2727  2.6907  3.3176
  130OSM   C13S14024   7.253   5.438   5.687  0.2124 -0.6856 -0.1492
  130OSM   H13S14025   7.334   5.479   5.751 -1.2717  1.6884  0.3500
  130OSM   H13T14026   7.171   5.482   5.748  0.3033 -1.0365  0.2311
  130OSM   C14S14027   7.247   5.495   5.548 -0.1677 -0.1815 -0.2222
  130OSM   H14S14028   7.259   5.604   5.568 -0.1586 -0.1626 -0.3311
  130OSM   H14T14029   7.142   5.483   5.514 -0.0723 -0.4745 -0.4180
  130OSM   C15S14030   7.339   5.442   5.434 -0.6483  0.4514  0.2625
  130OSM   H15S14031   7.328   5.333   5.419  0.1459  0.1707  1.5377
  130OSM   H15T14032   7.444   5.462   5.464 -0.9073  1.6928  0.3980
  130OSM   C16S14033   7.307   5.518   5.306  0.5174  0.0267 -1.2183
  130OSM   H16S14034   7.297   5.626   5.332  0.4316 -0.1987 -0.2731
  130OSM   H16T14035   7.201   5.499   5.278 -0.2697 -1.6707  2.3057
  130OSM   C17S14036   7.404   5.502   5.193 -0.4386 -0.3945 -0.2374
  130OSM   H17S14037   7.420   5.393   5.178 -1.1640 -0.3409 -1.5455
  130OSM   H17T14038   7.503   5.549   5.209 -0.8641  0.2021  0.6588
  130OSM   C18S14039   7.354   5.557   5.056 -0.1505  1.0293  0.1390
  130OSM   H18S14040   7.306   5.655   5.080 -0.2143  1.2686 -0.9078
  130OSM   H18T14041   7.270   5.499   5.012  1.0688 -0.9443  0.3134
  130OSM   H18U14042   7.439   5.555   4.984  0.3961  0.9142  0.7810
  130OSM    C1F14043   6.470   4.591   6.254  0.1536  0.8780  0.5751
  130OSM     OF14044   6.357   4.610   6.302  0.0423 -0.0855 -0.2459
  130OSM    C2F14045   6.493   4.517   6.121 -0.4638  0.1823  1.0030
  130OSM    H2F14046   6.453   4.413   6.121  1.1332 -0.4580  1.1995
  130OSM    H2G14047   6.602   4.505   6.106 -0.7458 -2.5944  0.5961
  130OSM    C3F14048   6.429   4.592   5.996 -0.0868  0.6302 -1.0052
  130OSM    H3F14049   6.318   4.590   6.007  0.0287  1.2495  0.5198
  130OSM    H3G14050   6.459   4.532   5.908 -2.3622  0.4558 -1.7178
  130OSM    C4F14051   6.455   4.745   5.991 -0.1498 -0.8415  0.0072
  130OSM    H4F14052   6.560   4.767   6.019 -0.0179 -1.2116 -0.1882
  130OSM    H4G14053   6.394   4.796   6.069 -0.1539  0.9079 -1.0670
  130OSM    C5F14054   6.427   4.814   5.855 -0.9226 -0.4993 -0.1221
  130OSM    H5F14055   6.430   4.925   5.869 -1.5028 -0.6216  1.1806
  130OSM    H5G14056   6.320   4.792   5.836 -0.8204 -0.4158 -0.8085
  130OSM    C6F14057   6.515   4.784   5.735  0.4099  0.4765 -0.2275
  130OSM    H6F14058   6.506   4.677   5.709  1.1392  0.4524 -0.3848
  130OSM    H6G14059   6.619   4.805   5.767  0.8019 -0.9128 -0.5540
  130OSM    C7F14060   6.482   4.871   5.614  0.1507 -0.9090 -0.0033
  130OSM    H7F14061   6.576   4.863   5.555 -0.1235  0.0625 -0.5894
  130OSM    H7G14062   6.470   4.978   5.641 -0.5287 -0.7156 -0.9978
  130OSM    C8F14063   6.352   4.823   5.551  0.0266  0.3000 -0.5488
  130OSM    H8F14064   6.299   4.912   5.510 -0.1941  0.2383 -0.3998
  130OSM    H8G14065   6.284   4.791   5.633  0.4490  0.6302 -0.0610
  130OSM    C9F14066   6.368   4.713   5.452  0.2918  0.1042  0.5807
  130OSM    H9F14067   6.461   4.656   5.442 -1.2318 -2.3951 -0.1867
  130OSM   C10F14068   6.283   4.680   5.352 -0.4669 -0.9779 -0.4368
  130OSM   H10F14069   6.318   4.602   5.282  1.2956  2.2243 -3.4631
  130OSM   C11F14070   6.153   4.753   5.309 -0.1945 -0.0850 -0.7056
  130OSM   H11F14071   6.133   4.838   5.378 -0.1075 -1.4086  1.0179
  130OSM   H11G14072   6.060   4.691   5.309 -1.9253  2.3730 -0.2406
  130OSM   C12F14073   6.159   4.804   5.164  0.4854 -0.0539 -0.0400
  130OSM   H12F14074   6.228   4.890   5.155 -0.0847  0.3162 -1.0676
  130OSM   H12G14075   6.058   4.848   5.147  0.4666  0.4385  1.2704
  130OSM   C13F14076   6.183   4.693   5.061 -0.3891  0.0575 -0.7527
  130OSM   H13F14077   6.149   4.599   5.108 -0.6638  0.2031 -0.6554
  130OSM   H13G14078   6.291   4.688   5.039  0.0466 -0.2221  1.2749
  130OSM   C14F14079   6.098   4.710   4.929 -0.3816  0.4279 -0.6529
  130OSM   H14F14080   5.995   4.703   4.968 -1.5006  1.3326 -3.2392
  130OSM   H14G14081   6.122   4.631   4.854  2.8899  2.1151 -1.5975
  130OSM   C15F14082   6.115   4.849   4.865  0.0767 -0.4132 -0.1336
  130OSM   H15F14083   6.105   4.934   4.935  0.9585 -0.3015 -0.1251
  130OSM   H15G14084   6.028   4.858   4.796  0.2747  1.5117 -0.1864
  130OSM   C16F14085   6.254   4.871   4.801  0.0787 -0.2957  0.4920
  130OSM   H16F14086   6.273   4.780   4.741  3.3753  0.0704  0.7677
  130OSM   H16G14087   6.339   4.869   4.873  2.8452 -0.3514 -2.5514
  130OSM   C17F14088   6.265   4.991   4.701  0.5907 -0.1177 -0.3659
  130OSM   H17F14089   6.201   5.070   4.744  0.2164 -0.5540 -0.1110
  130OSM   H17G14090   6.214   4.952   4.610 -1.9853  2.0233  0.0292
  130OSM   C18F14091   6.408   5.042   4.674 -0.2311 -0.5995 -0.7064
  130OSM   H18F14092   6.409   5.127   4.603  1.4158 -0.9256 -1.1140
  130OSM   H18G14093   6.473   4.960   4.637  1.6973  0.2892  0.5703
  130OSM   H18H14094   6.460   5.082   4.763 -0.3517 -2.2748  0.1735
  131OSM      N14095   6.142   6.760   6.887  0.5241  0.5287  0.8957
  131OSM    C1514096   6.151   6.615   6.869  0.5458  0.3223 -0.1580
  131OSM   H15A14097   6.223   6.569   6.935  1.9711  1.9550 -0.4896
  131OSM   H15B14098   6.190   6.591   6.770  1.5651 -0.1222  0.3310
  131OSM   H15C14099   6.057   6.564   6.877  1.0605 -0.5575  0.5049
  131OSM    C1414100   6.019   6.822   6.830  0.6275  0.1792 -0.3934
  131OSM   H14A14101   5.996   6.795   6.728  3.0037 -0.8817 -0.7038
  131OSM   H14B14102   6.022   6.930   6.837  2.7920  0.1308 -0.0904
  131OSM   H14C14103   5.936   6.797   6.895 -0.3617  2.3428 -0.7517
  131OSM    C1314104   6.125   6.780   7.036  0.3515 -0.1305 -0.7206
  131OSM   H13A14105   6.036   6.735   7.078 -0.3838  1.5388 -0.4194
  131OSM   H13B14106   6.122   6.880   7.076  2.4383 -0.3897  0.2072
  131OSM   H13C14107   6.208   6.728   7.082  1.3986  0.8722 -1.4247
  131OSM    C1214108   6.268   6.826   6.851  0.0187 -0.7269 -0.3070
  131OSM   H12A14109   6.348   6.777   6.905  0.1211  0.6277  0.8632
  131OSM   H12B14110   6.247   6.925   6.889 -2.3909 -1.0597 -0.6124
  131OSM    C1114111   6.312   6.812   6.702  0.0990  0.4534 -0.9209
  131OSM   H11A14112   6.340   6.704   6.695  0.0469  0.3930 -0.2876
  131OSM   H11B14113   6.404   6.874   6.696 -0.2100  1.2016  1.2028
  131OSM      P14114   6.232   6.969   6.510  0.0427  0.0519 -0.0677
  131OSM    O1314115   6.174   6.940   6.380 -0.0988 -0.3765 -0.3530
  131OSM    O1414116   6.182   7.087   6.584 -0.0253  0.6722  0.3101
  131OSM    O1114117   6.385   6.980   6.490  0.0529 -0.7315  0.3243
  131OSM    O1214118   6.217   6.833   6.601 -0.3601 -0.3054 -0.4759
  131OSM    C1S14119   6.456   6.884   6.415 -0.4961  0.4981  0.0035
  131OSM    H1S14120   6.417   6.781   6.430 -2.0594  1.1330  0.4768
  131OSM    H1T14121   6.560   6.892   6.453 -0.3654  1.2119 -0.5079
  131OSM     NF14122   6.514   6.783   6.207 -0.0139 -0.2210  0.1848
  131OSM    HNF14123   6.600   6.794   6.158 -0.3546 -2.3708 -1.0487
  131OSM    C2S14124   6.454   6.907   6.263 -0.2996  0.8449  0.1794
  131OSM    H2S14125   6.352   6.916   6.220  0.2677 -2.3154 -2.2254
  131OSM    C3S14126   6.528   7.040   6.230  0.1901 -0.1183  0.4600
  131OSM    H3S14127   6.629   7.026   6.275  0.7325 -3.2794 -1.3917
  131OSM     O314128   6.477   7.166   6.272  0.5980  0.0218  0.4325
  131OSM    HO314129   6.433   7.144   6.354 -1.0293 -0.6629 -0.5659
  131OSM    C4S14130   6.524   7.053   6.083  0.1967  0.4241  0.4157
  131OSM    H4S14131   6.421   7.052   6.044 -0.1115  0.6999  1.2102
  131OSM    C5S14132   6.618   7.080   5.987 -0.4539  0.8059  0.5401
  131OSM    H5S14133   6.725   7.083   6.011 -0.3426  0.8391  0.0514
  131OSM    C6S14134   6.589   7.083   5.834  0.3132  0.0308  0.5223
  131OSM    H6S14135   6.664   7.034   5.769 -0.0310  2.0991 -1.5706
  131OSM    H6T14136   6.595   7.183   5.785  0.0615 -1.9998 -4.1697
  131OSM    C7S14137   6.444   7.037   5.786  0.1343 -0.3284  0.2943
  131OSM    H7S14138   6.379   7.118   5.826  1.4706  0.5183  0.8319
  131OSM    H7T14139   6.412   6.936   5.818  0.1413 -1.0377 -1.7922
  131OSM    C8S14140   6.435   7.032   5.632  0.4938  0.1781 -0.2830
  131OSM    H8S14141   6.510   6.958   5.597  1.6267  0.6887  0.9796
  131OSM    H8T14142   6.483   7.126   5.597  0.4562 -0.3391 -1.8258
  131OSM    C9S14143   6.300   7.017   5.578  0.9537 -0.0921  0.3750
  131OSM    H9S14144   6.222   7.057   5.646 -0.1534 -3.3072  1.1740
  131OSM    H9T14145   6.274   6.909   5.567 -0.4080  0.1431  1.0589
  131OSM   C10S14146   6.286   7.079   5.430 -0.6989 -0.2561 -0.3506
  131OSM   H10S14147   6.359   7.034   5.359 -1.1772 -0.1718 -0.8979
  131OSM   H10T14148   6.322   7.185   5.430 -0.1045 -0.4547 -0.5181
  131OSM   C11S14149   6.150   7.076   5.362 -0.4124  0.1766  0.0883
  131OSM   H11S14150   6.070   7.121   5.425 -2.3374 -3.6729  0.6868
  131OSM   H11T14151   6.140   6.966   5.348  1.4382 -0.2668  1.7092
  131OSM   C12S14152   6.142   7.147   5.227 -0.1767 -0.2165  0.3125
  131OSM   H12S14153   6.202   7.097   5.148  1.1418  1.6246  0.0697
  131OSM   H12T14154   6.172   7.253   5.243 -2.5173  0.4674  0.5414
  131OSM   C13S14155   6.001   7.133   5.173 -0.4576 -0.1551 -0.1995
  131OSM   H13S14156   5.933   7.177   5.249 -0.8510 -0.8342 -0.1541
  131OSM   H13T14157   5.972   7.027   5.161  1.5487 -1.1014  2.4903
  131OSM   C14S14158   5.981   7.194   5.029 -0.0436 -0.2363  0.0925
  131OSM   H14S14159   5.878   7.179   4.991 -0.7771  1.0772  1.4587
  131OSM   H14T14160   6.048   7.129   4.968  0.5862 -0.4724  1.0024
  131OSM   C15S14161   6.009   7.342   5.006 -0.1214  0.1793 -0.0691
  131OSM   H15S14162   6.109   7.370   5.045 -0.5041  2.3386 -0.4944
  131OSM   H15T14163   5.945   7.404   5.073 -1.0417 -0.4037 -0.3923
  131OSM   C16S14164   6.008   7.389   4.854  0.2980 -0.3257  0.8341
  131OSM   H16S14165   5.906   7.364   4.820 -0.4067 -0.8487  3.1611
  131OSM   H16T14166   6.084   7.321   4.810  1.8228  0.2264  2.4853
  131OSM   C17S14167   6.045   7.537   4.833  0.1847  0.9146 -0.1992
  131OSM   H17S14168   6.142   7.554   4.885  0.5188  0.6763 -0.7362
  131OSM   H17T14169   5.972   7.607   4.880 -0.1200  0.4031  0.1049
  131OSM   C18S14170   6.045   7.552   4.687  0.4583 -0.7363  0.4687
  131OSM   H18S14171   6.063   7.657   4.656 -0.9589 -0.6627 -0.1431
  131OSM   H18T14172   5.949   7.520   4.642  0.1068 -0.3652  0.9495
  131OSM   H18U14173   6.132   7.502   4.640  0.8147  1.0134 -0.8529
  131OSM    C1F14174   6.457   6.659   6.198 -0.0204 -0.7237 -0.7018
  131OSM     OF14175   6.339   6.644   6.227  0.3662  0.5520 -0.1739
  131OSM    C2F14176   6.542   6.546   6.143 -0.2133 -0.1331 -0.4133
  131OSM    H2F14177   6.567   6.479   6.229 -0.8618 -0.5341 -0.5275
  131OSM    H2G14178   6.641   6.580   6.107  0.1226  0.5808  1.1122
  131OSM    C3F14179   6.477   6.471   6.026 -0.6139 -0.9435 -0.3165
  131OSM    H3F14180   6.393   6.406   6.058  0.4574 -1.7691  0.9351
  131OSM    H3G14181   6.545   6.394   5.983 -0.5968 -0.2712 -1.5374
  131OSM    C4F14182   6.431   6.558   5.907  0.0122 -0.1666 -0.5470
  131OSM    H4F14183   6.361   6.628   5.956 -2.2192 -1.6683 -1.4403
  131OSM    H4G14184   6.382   6.499   5.827 -1.1375  1.0946 -0.8087
  131OSM    C5F14185   6.543   6.640   5.837  1.2990  0.7438 -0.0021
  131OSM    H5F14186   6.593   6.711   5.906  2.0260  2.1101 -1.8334
  131OSM    H5G14187   6.506   6.696   5.748 -0.1818 -0.1317  0.0412
  131OSM    C6F14188   6.648   6.544   5.777 -0.4197 -0.0472 -0.4823
  131OSM    H6F14189   6.601   6.467   5.712  0.1802 -1.4305  0.6627
  131OSM    H6G14190   6.704   6.494   5.859  0.7923  2.3212  0.2233
  131OSM    C7F14191   6.754   6.609   5.692  1.1921 -0.3701  0.0575
  131OSM    H7F14192   6.844   6.545   5.702  0.4336 -1.3927  0.5421
  131OSM    H7G14193   6.769   6.711   5.732 -0.9189 -0.5000  1.3385
  131OSM    C8F14194   6.711   6.612   5.542 -0.6025  0.4228 -0.9073
  131OSM    H8F14195   6.616   6.669   5.546 -1.8376 -1.5764  1.1536
  131OSM    H8G14196   6.683   6.510   5.508  0.0226  0.0352 -0.2798
  131OSM    C9F14197   6.809   6.677   5.444 -0.4825  0.5932  0.6388
  131OSM    H9F14198   6.915   6.672   5.473 -0.5545  0.0090  0.8096
  131OSM   C10F14199   6.775   6.745   5.328  0.1289  0.0372  0.2900
  131OSM   H10F14200   6.854   6.779   5.259  2.3373 -3.1432  0.9801
  131OSM   C11F14201   6.637   6.749   5.265  0.0266 -0.4253 -0.4430
  131OSM   H11F14202   6.579   6.837   5.300  0.3919 -0.3698  0.0357
  131OSM   H11G14203   6.578   6.666   5.310 -0.8502  0.4210  0.0142
  131OSM   C12F14204   6.627   6.727   5.113 -0.0231 -0.0482 -0.1024
  131OSM   H12F14205   6.650   6.619   5.104  0.2427 -0.0458  0.5111
  131OSM   H12G14206   6.703   6.787   5.058  0.0203  0.1487  0.1724
  131OSM   C13F14207   6.489   6.762   5.057  0.4045  0.1521  0.4628
  131OSM   H13F14208   6.476   6.872   5.069  0.4925  0.3890 -1.3630
  131OSM   H13G14209   6.414   6.723   5.129 -0.2158  3.7816  2.0005
  131OSM   C14F14210   6.444   6.693   4.926 -0.2642  0.0643 -0.4569
  131OSM   H14F14211   6.469   6.586   4.936  1.0685  0.4623  0.7460
  131OSM   H14G14212   6.508   6.734   4.844 -0.9788 -0.0394 -1.0778
  131OSM   C15F14213   6.295   6.723   4.892  0.0478 -0.0447 -0.1577
  131OSM   H15F14214   6.241   6.719   4.989  0.8434 -1.5704  0.2523
  131OSM   H15G14215   6.255   6.652   4.816 -1.1686  1.2982 -0.8124
  131OSM   C16F14216   6.292   6.861   4.832  0.3822  0.3315 -0.3092
  131OSM   H16F14217   6.374   6.869   4.757  1.5905  3.0913  1.1608
  131OSM   H16G14218   6.318   6.929   4.916  0.0033 -1.9251  1.7439
  131OSM   C17F14219   6.157   6.894   4.775 -0.3102  0.0493 -0.1209
  131OSM   H17F14220   6.088   6.908   4.861  1.9337  2.3099  1.4440
  131OSM   H17G14221   6.117   6.807   4.719  1.0185 -1.6894  1.5104
  131OSM   C18F14222   6.166   7.009   4.669 -0.7624 -0.2926 -0.6061
  131OSM   H18F14223   6.063   7.048   4.659 -1.3828 -2.1279 -1.9903
  131OSM   H18G14224   6.193   6.970   4.569  0.9944  1.7220 -0.9998
  131OSM   H18H14225   6.241   7.083   4.704 -0.0674 -0.6848 -1.2210
  132OSM      N14226   1.151   5.245   7.072 -0.5538 -0.0556 -0.3060
  132OSM    C1514227   1.202   5.261   7.210  0.5047  0.3695  0.4323
  132OSM   H15A14228   1.207   5.160   7.245  1.8128  0.1140 -0.3957
  132OSM   H15B14229   1.127   5.308   7.272 -1.4114 -2.7360  0.6205
  132OSM   H15C14230   1.288   5.326   7.221 -0.1471  1.0845  1.5001
  132OSM    C1414231   1.036   5.147   7.078  0.0442 -0.1567  0.7331
  132OSM   H14A14232   0.991   5.145   6.980  2.7795  4.0977 -0.8692
  132OSM   H14B14233   0.953   5.180   7.139 -1.0935  0.3900 -1.0460
  132OSM   H14C14234   1.067   5.047   7.104 -0.9234 -0.2590  1.5614
  132OSM    C1314235   1.093   5.372   7.014  0.1991 -0.0748  0.4490
  132OSM   H13A14236   1.047   5.354   6.918 -0.7772 -0.3455  0.9484
  132OSM   H13B14237   1.170   5.444   6.991 -0.5873  0.6302 -0.0580
  132OSM   H13C14238   1.010   5.406   7.074 -0.7348 -0.4539 -0.5985
  132OSM    C1214239   1.256   5.192   6.973  0.2699  0.0516 -0.5846
  132OSM   H12A14240   1.253   5.086   6.991  0.5866  0.1908  0.3679
  132OSM   H12B14241   1.354   5.234   6.990 -0.1758  0.3796  1.5016
  132OSM    C1114242   1.231   5.210   6.818 -0.7682 -0.6143 -0.2493
  132OSM   H11A14243   1.310   5.157   6.761 -1.8536 -3.8299  1.0231
  132OSM   H11B14244   1.249   5.317   6.794 -4.3631 -0.3301 -2.3949
  132OSM      P14245   1.028   5.244   6.661 -0.3623  0.3493 -0.0316
  132OSM    O1314246   0.890   5.194   6.661  0.2554  0.1576  0.7375
  132OSM    O1414247   1.053   5.386   6.669  0.0437 -0.1962 -0.2746
  132OSM    O1114248   1.106   5.181   6.535 -0.3279 -0.2081 -0.3036
  132OSM    O1214249   1.107   5.171   6.774  0.2427  0.4052  0.2574
  132OSM    C1S14250   1.053   5.189   6.398 -0.0496 -1.0919  0.7323
  132OSM    H1S14251   1.021   5.293   6.376  3.1659  0.1169  1.2609
  132OSM    H1T14252   0.971   5.115   6.383 -0.4172 -0.6679  0.6290
  132OSM     NF14253   1.117   5.168   6.153  1.0359 -0.0810  0.5133
  132OSM    HNF14254   1.069   5.088   6.119  1.1207  0.1713 -0.2239
  132OSM    C2S14255   1.163   5.151   6.290 -0.0375 -0.2369 -0.7482
  132OSM    H2S14256   1.248   5.220   6.310 -1.6897  2.3451 -2.0878
  132OSM    C3S14257   1.222   5.012   6.323 -0.4933  0.0466 -1.0319
  132OSM    H3S14258   1.141   4.938   6.335  0.1796 -0.4630  0.6708
  132OSM     O314259   1.290   5.017   6.451 -0.0937  0.5275  0.6748
  132OSM    HO314260   1.247   5.089   6.497  2.1879  1.1383  2.0411
  132OSM    C4S14261   1.322   4.968   6.216 -0.2502 -0.0227 -0.3847
  132OSM    H4S14262   1.415   5.026   6.213 -0.1792 -0.1773 -2.4314
  132OSM    C5S14263   1.307   4.871   6.125 -0.3672  0.5440 -0.9374
  132OSM    H5S14264   1.216   4.811   6.140  0.1082 -0.2481 -1.1334
  132OSM    C6S14265   1.400   4.849   6.013 -0.1754 -0.2604  0.0407
  132OSM    H6S14266   1.498   4.890   6.044  0.9561 -3.4041  1.0129
  132OSM    H6T14267   1.349   4.900   5.928 -1.7238  0.9567  1.6179
  132OSM    C7S14268   1.400   4.697   5.987  0.2624  0.1766 -0.5748
  132OSM    H7S14269   1.297   4.663   5.964 -0.7740  2.5045  0.2840
  132OSM    H7T14270   1.437   4.649   6.080 -0.3828  1.3856  0.3443
  132OSM    C8S14271   1.491   4.660   5.868  0.3407 -0.9836 -0.6693
  132OSM    H8S14272   1.488   4.550   5.854  1.0355 -1.1744  0.5675
  132OSM    H8T14273   1.596   4.689   5.889  0.3260 -0.4322 -1.3145
  132OSM    C9S14274   1.456   4.726   5.741 -0.0047 -0.5029  0.3642
  132OSM    H9S14275   1.479   4.835   5.748  1.6652 -0.8950  1.8245
  132OSM    H9T14276   1.351   4.713   5.707  0.3807 -0.3658 -0.9473
  132OSM   C10S14277   1.544   4.662   5.634 -0.1711 -0.1919 -0.1606
  132OSM   H10S14278   1.522   4.553   5.632 -2.8659  0.2081  1.9109
  132OSM   H10T14279   1.652   4.680   5.656 -0.6116  0.1754  1.8936
  132OSM   C11S14280   1.508   4.721   5.498 -0.4009 -0.0611  0.2177
  132OSM   H11S14281   1.531   4.829   5.497  1.4044 -0.4116 -0.4054
  132OSM   H11T14282   1.401   4.705   5.472 -0.1348 -4.4070  1.0369
  132OSM   C12S14283   1.590   4.655   5.387 -0.0335 -0.1083  0.2131
  132OSM   H12S14284   1.578   4.545   5.398  1.0255 -0.0467  2.6774
  132OSM   H12T14285   1.700   4.664   5.403  0.3705 -0.7798 -1.9117
  132OSM   C13S14286   1.549   4.692   5.250 -0.1661  0.1658  0.0687
  132OSM   H13S14287   1.582   4.796   5.227  0.4784 -0.3085 -1.2696
  132OSM   H13T14288   1.438   4.692   5.242 -0.1659  0.2907  0.0672
  132OSM   C14S14289   1.605   4.581   5.150 -0.0509  0.3443  0.1955
  132OSM   H14S14290   1.580   4.481   5.193 -0.6137  0.8735  1.1258
  132OSM   H14T14291   1.714   4.599   5.137  0.0364 -0.1130  0.2554
  132OSM   C15S14292   1.535   4.587   5.007  0.2933 -0.3426  0.6927
  132OSM   H15S14293   1.424   4.588   5.012  0.1480 -2.0708 -1.2321
  132OSM   H15T14294   1.555   4.495   4.949 -0.6492 -0.2133  0.1394
  132OSM   C16S14295   1.588   4.705   4.925 -0.7989 -0.3239 -0.3550
  132OSM   H16S14296   1.699   4.699   4.926 -0.7661 -1.0312 -2.5988
  132OSM   H16T14297   1.553   4.802   4.967  1.1304  0.6805 -0.9053
  132OSM   C17S14298   1.559   4.687   4.770 -0.2777  0.1113  0.1894
  132OSM   H17S14299   1.602   4.588   4.743  1.9136  1.1056 -0.2597
  132OSM   H17T14300   1.619   4.751   4.701  0.6271 -3.7640 -3.0006
  132OSM   C18S14301   1.410   4.701   4.734  0.5831 -0.8442  0.8299
  132OSM   H18S14302   1.396   4.805   4.698  0.4401 -0.1605  2.7479
  132OSM   H18T14303   1.343   4.694   4.823  0.0773  1.9918  0.7786
  132OSM   H18U14304   1.386   4.628   4.653 -1.0942  1.3489 -0.7779
  132OSM    C1F14305   1.094   5.281   6.088 -0.1047 -0.0755  0.7694
  132OSM     OF14306   1.110   5.393   6.139  0.5227  0.4332  0.1843
  132OSM    C2F14307   1.042   5.259   5.945  0.2557  0.4777 -0.3148
  132OSM    H2F14308   0.995   5.353   5.908  1.9850  1.9352  0.9852
  132OSM    H2G14309   0.960   5.185   5.950  0.1840  0.6612  3.1526
  132OSM    C3F14310   1.145   5.207   5.839  0.3812  0.1547 -0.1766
  132OSM    H3F14311   1.083   5.170   5.754  1.9849  0.3809 -1.4984
  132OSM    H3G14312   1.196   5.119   5.884  1.5432  1.0148  0.2394
  132OSM    C4F14313   1.255   5.301   5.773  0.2701 -0.6744  0.0599
  132OSM    H4F14314   1.332   5.242   5.719 -3.6680 -4.2217 -2.2118
  132OSM    H4G14315   1.302   5.349   5.862 -0.0515 -1.1796  0.5034
  132OSM    C5F14316   1.192   5.412   5.689  0.1101 -0.1102  0.0060
  132OSM    H5F14317   1.249   5.506   5.703 -1.1474  0.7339 -0.3887
  132OSM    H5G14318   1.088   5.433   5.722 -1.4738 -3.7178 -2.0732
  132OSM    C6F14319   1.184   5.363   5.537 -0.0286 -0.1031 -0.3447
  132OSM    H6F14320   1.112   5.425   5.480  0.0303  0.8434  0.5706
  132OSM    H6G14321   1.136   5.263   5.528  0.9594 -0.5991 -0.1813
  132OSM    C7F14322   1.315   5.356   5.462 -0.0424 -0.8613  0.2795
  132OSM    H7F14323   1.384   5.311   5.536 -1.3792 -0.6612  1.7038
  132OSM    H7G14324   1.340   5.463   5.445  2.9173 -1.8052 -2.2742
  132OSM    C8F14325   1.313   5.279   5.331 -0.1607 -0.1124 -0.0350
  132OSM    H8F14326   1.402   5.313   5.273 -1.6955  1.4612 -1.5622
  132OSM    H8G14327   1.220   5.303   5.276 -0.0209  1.0992  0.2448
  132OSM    C9F14328   1.311   5.127   5.360 -0.9699  0.6780  0.0216
  132OSM    H9F14329   1.375   5.103   5.446 -2.1531  1.7492  1.2513
  132OSM   C10F14330   1.248   5.015   5.314  0.0744  0.5346 -0.5369
  132OSM   H10F14331   1.271   4.920   5.364 -0.2438  1.9210  2.4847
  132OSM   C11F14332   1.137   5.007   5.216 -0.0087  0.0044 -0.3147
  132OSM   H11F14333   1.079   5.102   5.213 -0.0985 -0.0690 -1.2775
  132OSM   H11G14334   1.070   4.924   5.246 -0.8011  0.3293 -1.1172
  132OSM   C12F14335   1.189   4.971   5.079 -0.1747 -0.1803  0.5099
  132OSM   H12F14336   1.108   4.923   5.020  0.3960 -2.3512  1.3868
  132OSM   H12G14337   1.274   4.899   5.077  1.0261  1.1640 -1.6899
  132OSM   C13F14338   1.249   5.099   5.020 -0.1575  0.4906 -0.3058
  132OSM   H13F14339   1.330   5.142   5.082  1.5569 -0.0378 -2.0480
  132OSM   H13G14340   1.170   5.176   5.010 -0.3371  0.6621  1.9400
  132OSM   C14F14341   1.308   5.078   4.877  0.2505 -0.0576  0.5663
  132OSM   H14F14342   1.236   5.025   4.811  0.4743  2.8777 -2.3362
  132OSM   H14G14343   1.391   5.005   4.889  0.8238  0.6424  0.9047
  132OSM   C15F14344   1.329   5.211   4.800  0.4216  0.2875 -1.0337
  132OSM   H15F14345   1.374   5.178   4.704  4.1253 -0.1119  0.6708
  132OSM   H15G14346   1.413   5.270   4.843  0.3031 -0.7178  0.6923
  132OSM   C16F14347   1.204   5.294   4.779  0.0015 -0.6868  0.3698
  132OSM   H16F14348   1.231   5.392   4.734  0.1219 -0.5340  0.7659
  132OSM   H16G14349   1.145   5.318   4.870  0.9679 -1.8785  1.3462
  132OSM   C17F14350   1.100   5.223   4.692  0.4518 -0.6162  0.1213
  132OSM   H17F14351   1.012   5.290   4.687  1.2925  0.4614 -3.7948
  132OSM   H17G14352   1.068   5.124   4.732 -0.5806 -1.0497 -1.6386
  132OSM   C18F14353   1.137   5.193   4.550  0.2534  0.4963  0.0348
  132OSM   H18F14354   1.162   5.293   4.509 -2.8185  1.4344  0.2392
  132OSM   H18G14355   1.051   5.158   4.490 -1.0709 -0.0073  2.1456
  132OSM   H18H14356   1.221   5.121   4.544  0.2539  0.5984 -2.3799
  133OSM      N14357   5.453   4.487   6.712 -0.0504 -0.0673  0.0667
  133OSM    C1514358   5.312   4.448   6.758 -0.5666 -0.1056  0.3642
  133OSM   H15A14359   5.258   4.532   6.799  1.1818  1.6688 -0.8501
  133OSM   H15B14360   5.298   4.361   6.822 -1.6587 -1.0399 -1.0810
  133OSM   H15C14361   5.263   4.410   6.670  0.1724 -0.9099  0.2792
  133OSM    C1414362   5.528   4.546   6.826 -0.5084 -0.3225  0.7105
  133OSM   H14A14363   5.614   4.585   6.774  0.0539 -0.5812  1.4419
  133OSM   H14B14364   5.543   4.470   6.901 -3.9672 -1.9862 -0.0503
  133OSM   H14C14365   5.473   4.628   6.870  0.7144  0.1853  1.3483
  133OSM    C1314366   5.532   4.372   6.677  0.4080  0.2920 -0.4545
  133OSM   H13A14367   5.635   4.398   6.657  0.8217 -1.3334 -0.6102
  133OSM   H13B14368   5.487   4.324   6.591  1.4796 -3.1128  0.7194
  133OSM   H13C14369   5.530   4.293   6.751  0.1916 -0.8951 -1.6891
  133OSM    C1214370   5.448   4.591   6.600  0.0656 -0.3948  0.1688
  133OSM   H12A14371   5.407   4.683   6.639  1.5231  0.8758 -1.1911
  133OSM   H12B14372   5.385   4.558   6.519  0.0349  0.1730 -0.0414
  133OSM    C1114373   5.584   4.638   6.521 -0.0549  0.0852 -0.8211
  133OSM   H11A14374   5.537   4.714   6.455 -0.9935  0.1314 -0.1235
  133OSM   H11B14375   5.626   4.553   6.462  0.5846 -1.4263  1.6660
  133OSM      P14376   5.703   4.847   6.611  0.2265 -0.1873  0.0689
  133OSM    O1314377   5.586   4.922   6.653  0.1866 -0.2238 -0.2014
  133OSM    O1414378   5.828   4.868   6.687 -0.0241  0.1003  0.3790
  133OSM    O1114379   5.736   4.879   6.459  0.6223  0.4004 -0.4118
  133OSM    O1214380   5.677   4.693   6.613 -0.0509  0.6771  0.1235
  133OSM    C1S14381   5.845   4.816   6.394 -0.7422 -0.3423  0.2945
  133OSM    H1S14382   5.846   4.705   6.396  1.9073 -0.4001  0.1312
  133OSM    H1T14383   5.936   4.862   6.441 -0.8392  0.4125 -0.2332
  133OSM     NF14384   5.954   4.762   6.177 -0.2934  0.2756 -0.0570
  133OSM    HNF14385   6.048   4.766   6.209 -0.2731 -0.1428 -0.0602
  133OSM    C2S14386   5.856   4.843   6.244 -0.0092  0.2304 -0.8325
  133OSM    H2S14387   5.752   4.822   6.210 -1.3123  0.7909  2.4004
  133OSM    C3S14388   5.865   4.997   6.207 -0.1723 -0.1191 -0.9511
  133OSM    H3S14389   5.951   5.044   6.259 -1.2317  0.3357  0.4571
  133OSM     O314390   5.755   5.068   6.256 -0.2931  0.1100  0.0874
  133OSM    HO314391   5.716   5.003   6.315  0.7217 -0.8708 -0.2908
  133OSM    C4S14392   5.882   5.024   6.066 -0.1879 -0.0592  0.4094
  133OSM    H4S14393   5.800   5.023   5.993  0.6677  2.4236 -0.6977
  133OSM    C5S14394   6.003   5.027   6.004  0.3254 -0.2061 -0.5281
  133OSM    H5S14395   6.088   5.011   6.072  0.6012  1.2516 -0.4934
  133OSM    C6S14396   6.031   5.012   5.856  0.5333 -0.2630  0.8880
  133OSM    H6S14397   6.078   4.916   5.827  1.2389  0.5337 -0.6860
  133OSM    H6T14398   6.107   5.088   5.826 -0.2019 -0.3097 -1.2080
  133OSM    C7S14399   5.916   5.034   5.755  0.0300 -0.5935  0.2557
  133OSM    H7S14400   5.861   5.126   5.785  2.6358  0.7185  1.3232
  133OSM    H7T14401   5.839   4.954   5.754  1.1878 -1.7736 -1.5434
  133OSM    C8S14402   5.982   5.049   5.617  0.6117  0.4538  0.0926
  133OSM    H8S14403   6.020   4.952   5.577  0.1714  0.5919 -0.6964
  133OSM    H8T14404   6.056   5.131   5.623 -0.3854  1.4713 -0.9264
  133OSM    C9S14405   5.874   5.096   5.513  0.2767  0.5767 -0.6393
  133OSM    H9S14406   5.819   5.189   5.541  1.8464  2.4085 -3.1852
  133OSM    H9T14407   5.797   5.016   5.505 -1.7597  2.1694  1.6421
  133OSM   C10S14408   5.944   5.111   5.380  0.6857 -0.1271  0.1435
  133OSM   H10S14409   6.000   5.016   5.365  0.7620 -0.0299 -0.2129
  133OSM   H10T14410   6.020   5.191   5.377  0.5744 -0.0299 -2.3368
  133OSM   C11S14411   5.853   5.114   5.255  0.9397  0.2978  0.2510
  133OSM   H11S14412   5.770   5.186   5.274  0.9860  0.7042 -1.0142
  133OSM   H11T14413   5.811   5.014   5.230  0.0858  0.8597 -0.6294
  133OSM   C12S14414   5.928   5.133   5.125  0.3610 -0.4812  0.4483
  133OSM   H12S14415   5.989   5.043   5.103  0.0820 -0.5355 -0.1011
  133OSM   H12T14416   5.986   5.228   5.125 -2.2177  1.2634  2.4213
  133OSM   C13S14417   5.844   5.153   5.000  0.7433 -0.8053  0.1217
  133OSM   H13S14418   5.773   5.238   5.005  1.6466 -0.0203 -0.1500
  133OSM   H13T14419   5.784   5.063   4.975  0.3128 -0.3182 -0.5932
  133OSM   C14S14420   5.936   5.193   4.880 -0.2762 -0.5312 -0.0942
  133OSM   H14S14421   6.038   5.149   4.890 -0.1080 -0.0005  0.6577
  133OSM   H14T14422   5.953   5.302   4.892  1.9222 -0.9553  1.2221
  133OSM   C15S14423   5.874   5.177   4.740 -0.1926  1.0305 -0.2506
  133OSM   H15S14424   5.786   5.245   4.732 -0.3897  0.8757  0.5799
  133OSM   H15T14425   5.832   5.074   4.735  2.0118  0.1422 -2.2092
  133OSM   C16S14426   5.963   5.185   4.615  0.3163  0.2278  0.1992
  133OSM   H16S14427   5.891   5.190   4.531 -2.3103  2.7322  2.4112
  133OSM   H16T14428   6.027   5.094   4.606  1.7133  1.2163 -0.1860
  133OSM   C17S14429   6.066   5.301   4.616 -0.2854  0.2827 -0.5949
  133OSM   H17S14430   6.128   5.287   4.708  0.4313  1.2607 -0.9135
  133OSM   H17T14431   6.001   5.390   4.628 -0.3906  0.1612 -0.2607
  133OSM   C18S14432   6.141   5.308   4.484  0.3852 -0.2612 -0.1012
  133OSM   H18S14433   6.062   5.314   4.406  0.6335  2.2970 -0.2644
  133OSM   H18T14434   6.201   5.216   4.470  1.3118 -0.1602  2.6898
  133OSM   H18U14435   6.209   5.396   4.470 -0.9937  1.0063  0.9042
  133OSM    C1F14436   5.929   4.636   6.145  0.2730  0.9990 -0.1804
  133OSM     OF14437   5.818   4.591   6.161  0.5957  0.1531 -0.3407
  133OSM    C2F14438   6.047   4.561   6.084  0.0282 -0.8534  0.9002
  133OSM    H2F14439   6.133   4.561   6.155  0.7497 -0.5880  0.0457
  133OSM    H2G14440   6.075   4.619   5.994  0.7503 -0.2899  1.4715
  133OSM    C3F14441   6.009   4.414   6.044 -0.2602  0.4670 -0.0821
  133OSM    H3F14442   5.924   4.418   5.973  0.9362 -1.3639 -1.7164
  133OSM    H3G14443   5.969   4.365   6.135  0.0786  1.5108  0.6455
  133OSM    C4F14444   6.126   4.340   5.974  0.0100  0.3922 -0.5005
  133OSM    H4F14445   6.116   4.230   5.969  1.9122  0.0678  1.4735
  133OSM    H4G14446   6.218   4.353   6.035 -0.8422 -0.9859  1.1512
  133OSM    C5F14447   6.156   4.386   5.829  0.6491  0.8808 -0.0914
  133OSM    H5F14448   6.180   4.494   5.837 -0.1276  0.9017  4.2532
  133OSM    H5G14449   6.063   4.368   5.771  0.5850 -1.6741  0.6478
  133OSM    C6F14450   6.268   4.303   5.752  0.0685 -0.8925 -1.2149
  133OSM    H6F14451   6.245   4.196   5.771 -0.7236 -0.3457  1.2782
  133OSM    H6G14452   6.373   4.323   5.782  0.2376 -1.3563 -1.4852
  133OSM    C7F14453   6.265   4.335   5.601 -0.2792  0.0126  0.3161
  133OSM    H7F14454   6.296   4.440   5.581  4.4455 -1.2169  0.0801
  133OSM    H7G14455   6.163   4.317   5.560  0.2990 -0.3496 -1.0301
  133OSM    C8F14456   6.355   4.244   5.518 -0.8843 -0.7538 -0.4596
  133OSM    H8F14457   6.329   4.250   5.410  0.3993 -0.4944 -0.7761
  133OSM    H8G14458   6.334   4.140   5.549 -0.3769 -0.7551 -0.1001
  133OSM    C9F14459   6.499   4.281   5.549 -0.3319  0.3695  0.3306
  133OSM    H9F14460   6.541   4.382   5.539  1.4117 -0.4772 -1.5534
  133OSM   C10F14461   6.595   4.186   5.577 -0.4229 -0.2922  0.2363
  133OSM   H10F14462   6.693   4.223   5.609  0.0844 -0.8908 -0.5762
  133OSM   C11F14463   6.596   4.036   5.581  0.0454 -0.0038 -0.2151
  133OSM   H11F14464   6.530   3.996   5.501 -0.4421 -0.4081  0.3795
  133OSM   H11G14465   6.552   4.000   5.677  2.5254  1.4817  1.5945
  133OSM   C12F14466   6.727   3.963   5.581 -0.3735  0.2762 -0.4668
  133OSM   H12F14467   6.706   3.854   5.589 -0.8881  0.4902  1.4211
  133OSM   H12G14468   6.778   3.991   5.675 -2.9361  1.1641  0.7744
  133OSM   C13F14469   6.808   3.992   5.455  0.1287  0.8323  0.1754
  133OSM   H13F14470   6.909   3.946   5.449  0.1095  0.8685 -0.4799
  133OSM   H13G14471   6.823   4.102   5.449  1.7030  0.6247 -0.1814
  133OSM   C14F14472   6.747   3.952   5.318  0.2805  0.4589 -0.0208
  133OSM   H14F14473   6.646   3.998   5.322 -0.3519 -0.9578  1.4983
  133OSM   H14G14474   6.737   3.841   5.306 -3.0243  0.7715 -1.4381
  133OSM   C15F14475   6.822   4.021   5.206  0.3366 -0.3449  0.4964
  133OSM   H15F14476   6.929   3.994   5.212  0.4762 -0.2246 -1.0884
  133OSM   H15G14477   6.803   4.130   5.213  0.6927 -0.1348 -1.3516
  133OSM   C16F14478   6.768   3.979   5.063  0.5990 -0.2221 -0.1943
  133OSM   H16F14479   6.658   3.995   5.061  0.3612 -0.9222  2.5583
  133OSM   H16G14480   6.776   3.868   5.051 -0.2203 -0.1830 -1.2141
  133OSM   C17F14481   6.852   4.040   4.953 -0.5634 -0.2477 -0.1850
  133OSM   H17F14482   6.960   4.020   4.975 -0.5696  0.5687  0.6326
  133OSM   H17G14483   6.836   4.149   4.947 -1.4607 -0.0658  3.4521
  133OSM   C18F14484   6.814   3.977   4.824  0.3601 -0.1366  0.2389
  133OSM   H18F14485   6.858   4.033   4.739 -0.6675  1.2986  0.6143
  133OSM   H18G14486   6.703   3.973   4.820  0.1901  1.7662  1.7163
  133OSM   H18H14487   6.842   3.869   4.822 -4.1927 -1.5246 -0.3389
  134OSM      N14488   3.989   1.009   7.462 -0.0409 -1.2610 -0.1310
  134OSM    C1514489   4.067   1.090   7.362  0.5233  0.4201  0.0832
  134OSM   H15A14490   4.028   1.190   7.349  0.1464  0.3359  0.5303
  134OSM   H15B14491   4.053   1.050   7.263 -1.1326  1.9619 -0.3593
  134OSM   H15C14492   4.167   1.110   7.397  0.7945 -0.8385  0.0793
  134OSM    C1414493   4.065   0.874   7.491 -0.3418 -0.0760  0.6834
  134OSM   H14A14494   4.167   0.900   7.515 -0.8633  3.1664 -0.1635
  134OSM   H14B14495   4.060   0.820   7.398  1.3181  0.4753  0.2375
  134OSM   H14C14496   4.015   0.822   7.572 -1.3613  0.1198  0.1919
  134OSM    C1314497   3.991   1.085   7.594  0.4217  0.4712  0.9567
  134OSM   H13A14498   3.944   1.029   7.673  0.0510 -0.8779 -0.1806
  134OSM   H13B14499   3.952   1.185   7.584 -3.1672 -0.9818 -1.8807
  134OSM   H13C14500   4.096   1.091   7.621  1.2624  0.8055 -1.9774
  134OSM    C1214501   3.842   0.973   7.419 -0.3189 -0.0984 -0.0502
  134OSM   H12A14502   3.781   1.059   7.440  0.4504 -0.1541  2.8248
  134OSM   H12B14503   3.813   0.901   7.495 -1.9709 -1.7336 -2.0947
  134OSM    C1114504   3.828   0.902   7.283 -0.1346  0.2622 -0.4295
  134OSM   H11A14505   3.885   0.968   7.215 -0.3399  1.7849  0.8280
  134OSM   H11B14506   3.720   0.899   7.255 -0.4284  0.2605  0.6638
  134OSM      P14507   3.902   0.691   7.146 -0.0807 -0.2086 -0.1428
  134OSM    O1314508   4.022   0.610   7.152  0.1612  0.8746 -0.1794
  134OSM    O1414509   3.777   0.628   7.108  0.3733  0.0607  0.3391
  134OSM    O1114510   3.924   0.798   7.025  0.3975  0.1076 -0.0020
  134OSM    O1214511   3.883   0.772   7.278  0.1165 -0.0741  0.6622
  134OSM    C1S14512   3.905   0.751   6.894 -0.4955  0.1393 -0.1873
  134OSM    H1S14513   3.825   0.675   6.885  0.1668 -0.5706 -0.1932
  134OSM    H1T14514   3.993   0.688   6.871 -1.9905 -1.9473 -0.4570
  134OSM     NF14515   3.881   0.802   6.664  0.2984  0.5483  0.1812
  134OSM    HNF14516   3.954   0.816   6.598  0.0020  1.5086  0.0429
  134OSM    C2S14517   3.886   0.862   6.792  0.1275 -0.4821 -0.1976
  134OSM    H2S14518   3.785   0.909   6.795  1.4002  2.4128  0.0165
  134OSM    C3S14519   3.992   0.975   6.809 -0.9908 -0.4479  0.1602
  134OSM    H3S14520   4.086   0.926   6.776 -2.2759 -2.7283 -0.3851
  134OSM     O314521   4.008   1.035   6.945  0.2339 -0.0351 -0.1054
  134OSM    HO314522   3.952   0.979   6.998 -0.4004  0.2853 -0.4261
  134OSM    C4S14523   3.963   1.081   6.713 -0.3392  0.4957  0.0519
  134OSM    H4S14524   4.058   1.112   6.666  0.5154 -2.4220 -0.3083
  134OSM    C5S14525   3.851   1.155   6.713  0.4217 -0.4345  0.1580
  134OSM    H5S14526   3.761   1.129   6.770 -0.8137  0.5973 -1.2336
  134OSM    C6S14527   3.830   1.279   6.624  1.2991  0.5583  0.2893
  134OSM    H6S14528   3.925   1.323   6.587 -0.0267  1.8019 -1.8001
  134OSM    H6T14529   3.790   1.368   6.677 -1.4695  0.1774 -0.9869
  134OSM    C7S14530   3.732   1.259   6.507 -0.1967  0.3038  0.2306
  134OSM    H7S14531   3.700   1.354   6.459 -1.5761  1.2028  2.7592
  134OSM    H7T14532   3.642   1.216   6.556  1.2443 -0.7139  2.1427
  134OSM    C8S14533   3.775   1.154   6.398 -0.4029 -0.3499  0.6665
  134OSM    H8S14534   3.689   1.150   6.329  0.6159  0.5991 -0.7264
  134OSM    H8T14535   3.787   1.051   6.437 -1.7530 -0.6550  0.3056
  134OSM    C9S14536   3.898   1.178   6.310  0.0470  0.1788  0.3986
  134OSM    H9S14537   3.991   1.193   6.369  0.5055  1.5121 -0.6255
  134OSM    H9T14538   3.871   1.272   6.258  1.2750  0.4596  0.2315
  134OSM   C10S14539   3.918   1.070   6.198 -0.6826  0.0586 -0.1543
  134OSM   H10S14540   3.825   1.011   6.180  0.2140 -1.3126 -0.3967
  134OSM   H10T14541   3.997   0.999   6.230  1.6038  1.4583 -2.3394
  134OSM   C11S14542   3.960   1.138   6.067 -0.5716  0.3786 -0.1054
  134OSM   H11S14543   4.069   1.154   6.077 -0.4110  0.0095 -1.1129
  134OSM   H11T14544   3.889   1.219   6.037 -0.1261  0.8807  0.1837
  134OSM   C12S14545   3.955   1.032   5.953 -0.1229  0.3725 -0.6711
  134OSM   H12S14546   3.852   0.992   5.949  0.6884 -2.3314  1.9003
  134OSM   H12T14547   4.013   0.942   5.984  0.5358  1.6730  2.2661
  134OSM   C13S14548   3.995   1.083   5.812  0.9197 -0.3577 -0.0846
  134OSM   H13S14549   4.091   1.137   5.828  0.1837  0.2120  3.1685
  134OSM   H13T14550   3.918   1.153   5.774 -0.2443 -0.9573  1.0923
  134OSM   C14S14551   3.992   0.964   5.711  0.1291  0.0170  0.1186
  134OSM   H14S14552   3.888   0.924   5.713  0.3672 -0.5838  0.7262
  134OSM   H14T14553   4.055   0.882   5.753 -1.5605 -2.5839 -2.0648
  134OSM   C15S14554   4.049   1.018   5.581  0.4253 -0.5232 -0.7296
  134OSM   H15S14555   4.154   1.055   5.586  0.9781 -2.1756  1.1829
  134OSM   H15T14556   3.981   1.103   5.558 -1.4060 -1.9512 -0.7635
  134OSM   C16S14557   4.037   0.919   5.464  0.2191  0.3612  0.2195
  134OSM   H16S14558   3.936   0.875   5.481  0.2806  0.5798  1.2466
  134OSM   H16T14559   4.099   0.831   5.489 -1.3404 -0.3027  2.0846
  134OSM   C17S14560   4.040   0.982   5.334  0.4487 -0.6465  0.4368
  134OSM   H17S14561   3.956   1.054   5.325 -0.0471 -1.1342  1.0799
  134OSM   H17T14562   4.021   0.916   5.247  0.3880  0.7429 -0.6395
  134OSM   C18S14563   4.177   1.046   5.295  0.4640  0.0637 -0.0097
  134OSM   H18S14564   4.190   1.136   5.359  0.0940  0.0231  0.1300
  134OSM   H18T14565   4.182   1.080   5.190  0.8295  0.4492  0.1266
  134OSM   H18U14566   4.259   0.976   5.321 -2.1335 -2.1321  3.0133
  134OSM    C1F14567   3.779   0.727   6.618  0.9399  0.2946 -0.4553
  134OSM     OF14568   3.680   0.697   6.682 -0.0973 -0.2652 -0.1346
  134OSM    C2F14569   3.779   0.691   6.473  0.5352 -0.7884 -0.1370
  134OSM    H2F14570   3.822   0.589   6.457  2.6842  0.3210 -2.0373
  134OSM    H2G14571   3.863   0.753   6.436  0.6900  1.0364  3.0308
  134OSM    C3F14572   3.645   0.721   6.404 -0.3450 -0.5215 -0.0662
  134OSM    H3F14573   3.606   0.824   6.419  0.8409  0.1968 -1.6391
  134OSM    H3G14574   3.578   0.651   6.458  2.7208 -2.8351  0.9981
  134OSM    C4F14575   3.662   0.694   6.253 -0.9947  0.3382  0.1105
  134OSM    H4F14576   3.694   0.590   6.236 -1.6109 -0.3159  2.5501
  134OSM    H4G14577   3.751   0.756   6.226 -0.0269 -0.5857  1.0903
  134OSM    C5F14578   3.548   0.749   6.166  0.0373 -0.0234  0.1139
  134OSM    H5F14579   3.553   0.860   6.165 -0.7255  0.0507  1.7121
  134OSM    H5G14580   3.442   0.728   6.192 -0.1901  1.2925  0.3205
  134OSM    C6F14581   3.569   0.696   6.018  0.5965 -0.1792 -0.4158
  134OSM    H6F14582   3.563   0.585   6.017 -1.0483 -0.1538  1.2868
  134OSM    H6G14583   3.668   0.740   5.992  0.1728  1.5108  0.6794
  134OSM    C7F14584   3.455   0.741   5.934  0.1831 -0.3121 -0.1840
  134OSM    H7F14585   3.449   0.852   5.925 -0.2952 -0.4244 -1.4940
  134OSM    H7G14586   3.356   0.713   5.975 -0.9787  0.5740 -2.2070
  134OSM    C8F14587   3.460   0.678   5.790  0.6202  0.1689  0.4730
  134OSM    H8F14588   3.449   0.568   5.803  1.7800  0.0515  0.5745
  134OSM    H8G14589   3.561   0.705   5.750  0.0291  0.0942 -1.1402
  134OSM    C9F14590   3.351   0.741   5.702 -0.7060 -0.1025 -0.1987
  134OSM    H9F14591   3.315   0.840   5.735 -1.3425 -1.0233  2.1147
  134OSM   C10F14592   3.287   0.701   5.592 -0.0713 -0.1077  0.3713
  134OSM   H10F14593   3.225   0.770   5.532 -0.3893  0.5351  1.4243
  134OSM   C11F14594   3.306   0.567   5.525  0.0890  0.2326 -0.0461
  134OSM   H11F14595   3.239   0.491   5.569 -1.3257  1.5234  0.1236
  134OSM   H11G14596   3.408   0.525   5.540 -0.5166 -0.5186  2.3988
  134OSM   C12F14597   3.282   0.568   5.370 -0.5432 -0.8680 -0.5599
  134OSM   H12F14598   3.339   0.646   5.315 -3.6754  1.4939 -0.7185
  134OSM   H12G14599   3.174   0.592   5.358 -0.0666  2.0542  0.3951
  134OSM   C13F14600   3.310   0.426   5.315 -0.6480  0.0917 -0.1149
  134OSM   H13F14601   3.250   0.364   5.385 -1.4772  1.8289  0.8007
  134OSM   H13G14602   3.418   0.407   5.333 -0.4185  2.5182  1.6485
  134OSM   C14F14603   3.257   0.386   5.179 -1.0621 -0.6047 -0.5451
  134OSM   H14F14604   3.283   0.471   5.112 -2.9640  0.3942 -0.0774
  134OSM   H14G14605   3.147   0.395   5.191 -0.9064 -0.1260  0.7404
  134OSM   C15F14606   3.314   0.254   5.134  0.1215 -0.1709 -0.1092
  134OSM   H15F14607   3.286   0.176   5.207 -0.0275 -0.3613 -0.3666
  134OSM   H15G14608   3.424   0.260   5.141  0.2273 -1.7777 -0.0212
  134OSM   C16F14609   3.271   0.195   4.995  0.0015 -0.1899  0.0588
  134OSM   H16F14610   3.170   0.149   4.997 -0.5645  1.0153  0.9748
  134OSM   H16G14611   3.340   0.109   4.981 -0.1541 -0.3721  0.3947
  134OSM   C17F14612   3.289   0.296   4.883  0.3323  0.1749  0.1532
  134OSM   H17F14613   3.393   0.334   4.891  1.2378 -2.1480  0.0555
  134OSM   H17G14614   3.220   0.383   4.890 -0.2255 -0.1810 -0.8332
  134OSM   C18F14615   3.252   0.226   4.746 -0.7263  0.8464 -0.0338
  134OSM   H18F14616   3.253   0.301   4.664  1.2176 -1.0118 -1.8028
  134OSM   H18G14617   3.152   0.178   4.752 -1.3008  2.1279  1.2719
  134OSM   H18H14618   3.332   0.153   4.727 -1.1358  0.4065 -0.0886
  135OSM      N14619   3.873   0.289   6.814  0.5025  0.4224  0.5052
  135OSM    C1514620   3.898   0.248   6.954 -0.3010 -0.1508 -0.7994
  135OSM   H15A14621   4.000   0.273   6.980 -0.7555  0.7799  0.1475
  135OSM   H15B14622   3.882   0.142   6.970 -0.4845  0.1317  1.1759
  135OSM   H15C14623   3.829   0.303   7.016  0.2895  1.7790 -1.7769
  135OSM    C1414624   3.731   0.242   6.774  0.0298 -0.1653  0.6184
  135OSM   H14A14625   3.719   0.138   6.802  0.0683  0.0394  1.4261
  135OSM   H14B14626   3.700   0.258   6.672 -0.0815 -1.2466  0.4696
  135OSM   H14C14627   3.664   0.283   6.848 -1.8224 -1.2681 -0.3695
  135OSM    C1314628   3.882   0.435   6.806  0.3334  0.0412  0.2303
  135OSM   H13A14629   3.868   0.460   6.702 -1.4157  1.1093  0.6745
  135OSM   H13B14630   3.976   0.473   6.843  0.1061  0.3726  0.4760
  135OSM   H13C14631   3.812   0.493   6.865  0.5023  2.0937 -1.4679
  135OSM    C1214632   3.983   0.219   6.732  0.0884  0.4513 -0.0769
  135OSM   H12A14633   3.961   0.239   6.628  0.9873  1.9283 -0.0138
  135OSM   H12B14634   3.980   0.111   6.732  1.1688  0.3971 -1.1930
  135OSM    C1114635   4.136   0.258   6.749 -0.5221 -0.2055 -0.7126
  135OSM   H11A14636   4.192   0.191   6.681 -0.0629  1.2087 -1.7787
  135OSM   H11B14637   4.155   0.238   6.857  0.2682 -0.5221 -0.9037
  135OSM      P14638   4.294   0.474   6.738  0.1341 -0.0661  0.2335
  135OSM    O1314639   4.285   0.610   6.682 -0.3619  0.3820 -0.5124
  135OSM    O1414640   4.330   0.454   6.884 -0.5439 -0.0908 -0.1814
  135OSM    O1114641   4.395   0.389   6.646 -0.5902  0.0462 -0.3419
  135OSM    O1214642   4.158   0.399   6.716  0.2530  0.4515 -0.1493
  135OSM    C1S14643   4.368   0.387   6.501 -0.2818  0.2211  0.0709
  135OSM    H1S14644   4.261   0.367   6.478  0.0290 -1.2377 -0.2462
  135OSM    H1T14645   4.423   0.302   6.455  1.1406  0.9678  0.3444
  135OSM     NF14646   4.368   0.511   6.291 -0.2547 -0.4938 -0.0554
  135OSM    HNF14647   4.417   0.478   6.211  1.2962  0.5965  0.3922
  135OSM    C2S14648   4.441   0.500   6.416  0.0229 -0.3454 -0.4650
  135OSM    H2S14649   4.432   0.597   6.470  4.7392  0.2359 -0.2701
  135OSM    C3S14650   4.590   0.474   6.414 -0.1025  0.4810 -0.8083
  135OSM    H3S14651   4.623   0.376   6.371 -0.5353  0.9842 -2.3402
  135OSM     O314652   4.638   0.467   6.548  0.0899  0.2054 -0.1737
  135OSM    HO314653   4.560   0.446   6.600  0.4526  1.0578  0.7441
  135OSM    C4S14654   4.657   0.584   6.339 -0.2450 -0.4560  0.4758
  135OSM    H4S14655   4.629   0.673   6.397  0.2126 -2.7032  4.5225
  135OSM    C5S14656   4.734   0.586   6.230  0.6375 -0.4094 -0.4780
  135OSM    H5S14657   4.755   0.484   6.194 -1.1901 -1.0160  0.0521
  135OSM    C6S14658   4.800   0.699   6.151 -0.1388 -0.3239 -0.9350
  135OSM    H6S14659   4.785   0.787   6.218  1.8165 -2.8328  3.1937
  135OSM    H6T14660   4.762   0.712   6.048  1.7830  2.3130 -1.4174
  135OSM    C7S14661   4.956   0.698   6.120  0.7652 -0.4862  0.6441
  135OSM    H7S14662   4.958   0.601   6.066 -1.2037 -0.6661  0.8081
  135OSM    H7T14663   5.033   0.670   6.194  2.1957 -2.7159 -1.5336
  135OSM    C8S14664   5.012   0.807   6.023  0.4675 -1.3469  0.3094
  135OSM    H8S14665   5.087   0.871   6.074  1.4183 -2.2687  0.0965
  135OSM    H8T14666   4.919   0.864   5.998 -0.4896 -3.4326 -1.1646
  135OSM    C9S14667   5.066   0.747   5.893  0.7613  0.1893 -0.4621
  135OSM    H9S14668   4.995   0.678   5.844  1.2556 -0.2947 -0.4952
  135OSM    H9T14669   5.153   0.690   5.931  0.3460 -1.2247 -1.5639
  135OSM   C10S14670   5.094   0.853   5.793 -0.2799 -0.8322 -0.0483
  135OSM   H10S14671   5.153   0.935   5.839 -2.2395  0.9130 -0.5298
  135OSM   H10T14672   5.000   0.902   5.759  0.7043  1.2145  0.0419
  135OSM   C11S14673   5.157   0.788   5.668 -0.4853  0.1213  0.7893
  135OSM   H11S14674   5.091   0.702   5.645 -0.9848  1.1240 -1.8488
  135OSM   H11T14675   5.261   0.757   5.691 -0.5611  0.7543  2.0590
  135OSM   C12S14676   5.155   0.881   5.548  0.2807  0.2724 -0.4829
  135OSM   H12S14677   5.200   0.980   5.570  0.3280  0.3327 -0.8394
  135OSM   H12T14678   5.050   0.898   5.513  0.5696  3.1063 -0.2630
  135OSM   C13S14679   5.238   0.838   5.428 -1.0267  0.4174 -0.3556
  135OSM   H13S14680   5.220   0.733   5.398  0.1656 -0.0381  0.4675
  135OSM   H13T14681   5.344   0.826   5.459 -0.7591  1.0059 -1.0083
  135OSM   C14S14682   5.211   0.930   5.312  0.2827  0.0525 -0.0120
  135OSM   H14S14683   5.248   1.033   5.332  0.1236  1.0091 -3.8377
  135OSM   H14T14684   5.102   0.942   5.293  0.5924  0.7948 -1.4507
  135OSM   C15S14685   5.282   0.883   5.178 -0.4894  0.5003 -1.1048
  135OSM   H15S14686   5.270   0.774   5.162 -2.0056  0.7948 -2.1953
  135OSM   H15T14687   5.386   0.902   5.212 -1.3781  2.9846  0.5874
  135OSM   C16S14688   5.246   0.957   5.052 -0.1273 -0.5904 -0.0744
  135OSM   H16S14689   5.330   0.967   4.980 -0.1208  2.6963  0.2286
  135OSM   H16T14690   5.232   1.065   5.073  1.0676 -0.0348 -1.8843
  135OSM   C17S14691   5.123   0.905   4.975  0.4000  0.7883  0.0836
  135OSM   H17S14692   5.032   0.926   5.036 -0.2768  2.3630 -1.3928
  135OSM   H17T14693   5.145   0.798   4.957  0.4179  0.5589  1.3596
  135OSM   C18S14694   5.098   0.973   4.838 -0.6762 -0.8235 -0.1784
  135OSM   H18S14695   5.118   1.082   4.838 -0.7923 -0.8006  0.0336
  135OSM   H18T14696   4.998   0.945   4.796 -0.5297 -2.2909  0.3913
  135OSM   H18U14697   5.172   0.937   4.763 -0.7768 -0.3476 -0.5089
  135OSM    C1F14698   4.246   0.552   6.267 -0.7111  0.1218 -0.1048
  135OSM     OF14699   4.178   0.599   6.356 -1.0194  0.0208  0.3666
  135OSM    C2F14700   4.186   0.527   6.136  0.5449 -0.2574 -0.7062
  135OSM    H2F14701   4.194   0.421   6.103  0.9940  0.3852 -2.8537
  135OSM    H2G14702   4.249   0.581   6.062  0.2885  1.4437  0.2614
  135OSM    C3F14703   4.034   0.575   6.132 -0.6245 -0.3710  0.2099
  135OSM    H3F14704   4.049   0.679   6.169 -1.3272 -0.1141 -0.2135
  135OSM    H3G14705   3.980   0.517   6.210  0.0085 -1.8037 -0.3784
  135OSM    C4F14706   3.969   0.601   5.999  0.5366 -0.4076  0.6846
  135OSM    H4F14707   3.894   0.681   6.012  0.2524 -0.4416 -0.6182
  135OSM    H4G14708   4.047   0.640   5.929 -1.4406  0.2049 -1.2923
  135OSM    C5F14709   3.894   0.483   5.937  0.1429  0.7050  0.2255
  135OSM    H5F14710   3.809   0.447   6.000 -0.4056 -1.0143 -1.3967
  135OSM    H5G14711   3.956   0.391   5.932 -1.0992 -0.3256  2.2506
  135OSM    C6F14712   3.840   0.507   5.794  1.0217  0.0771  0.0377
  135OSM    H6F14713   3.785   0.603   5.805 -0.1708 -0.1059 -3.2553
  135OSM    H6G14714   3.767   0.425   5.778 -0.6212  1.3382  0.8383
  135OSM    C7F14715   3.946   0.517   5.683  0.0662  0.4391 -0.2729
  135OSM    H7F14716   3.995   0.417   5.688 -0.7145  0.0830  0.4907
  135OSM    H7G14717   4.033   0.580   5.712 -0.3344  0.6513  0.4902
  135OSM    C8F14718   3.896   0.564   5.554 -0.2066 -0.2553  0.7008
  135OSM    H8F14719   3.991   0.576   5.498 -0.4211 -2.1748 -0.1405
  135OSM    H8G14720   3.847   0.662   5.574  1.6668  0.4566  2.1013
  135OSM    C9F14721   3.802   0.456   5.493 -0.3504 -0.2289  0.2304
  135OSM    H9F14722   3.713   0.434   5.554 -1.2037 -3.1078 -1.8686
  135OSM   C10F14723   3.809   0.394   5.370 -0.0535 -0.1710 -0.4353
  135OSM   H10F14724   3.726   0.328   5.339  0.7524 -1.0412 -0.8012
  135OSM   C11F14725   3.926   0.404   5.267 -0.2118  0.1495 -0.1596
  135OSM   H11F14726   3.970   0.306   5.236  0.0615 -0.0436  0.8256
  135OSM   H11G14727   4.009   0.468   5.305  0.5908 -1.3707  0.7730
  135OSM   C12F14728   3.879   0.460   5.139 -0.2416 -0.3537 -0.5725
  135OSM   H12F14729   3.803   0.388   5.101 -1.6146  0.0096  1.3728
  135OSM   H12G14730   3.958   0.456   5.061  0.8678 -2.1513  0.5653
  135OSM   C13F14731   3.832   0.607   5.153 -0.1657  0.1397 -0.5521
  135OSM   H13F14732   3.925   0.667   5.160  0.8293 -1.2640 -1.2573
  135OSM   H13G14733   3.779   0.627   5.249  1.1934 -1.2245  0.5342
  135OSM   C14F14734   3.749   0.667   5.042  0.2623  0.1162 -0.4364
  135OSM   H14F14735   3.802   0.655   4.945  1.8316 -1.8401  0.5951
  135OSM   H14G14736   3.733   0.773   5.072 -2.6102 -0.4522  0.4045
  135OSM   C15F14737   3.609   0.605   5.017 -0.3330 -0.5188  0.0772
  135OSM   H15F14738   3.559   0.598   5.116 -0.4418 -1.9265 -0.0560
  135OSM   H15G14739   3.626   0.501   4.981 -0.6745 -0.5052 -0.1281
  135OSM   C16F14740   3.522   0.696   4.925 -0.4501  0.2808  0.4445
  135OSM   H16F14741   3.553   0.690   4.819 -1.5297  1.1574  0.0685
  135OSM   H16G14742   3.546   0.798   4.963  0.7939  0.6157 -1.1430
  135OSM   C17F14743   3.377   0.660   4.930 -0.0974  0.3600  0.1010
  135OSM   H17F14744   3.346   0.672   5.036  1.3375  1.2988  0.4582
  135OSM   H17G14745   3.371   0.550   4.915 -1.5291  0.2820  1.0953
  135OSM   C18F14746   3.289   0.733   4.833 -0.1011 -0.3695 -0.5406
  135OSM   H18F14747   3.352   0.754   4.744  1.7747  1.2650  1.1012
  135OSM   H18G14748   3.239   0.824   4.873  0.3659  0.6445 -2.1677
  135OSM   H18H14749   3.209   0.662   4.800  1.2998 -2.1505 -0.2502
  136OSM      N14750   1.521   2.254   7.065  0.1872  0.1106 -0.2671
  136OSM    C1514751   1.621   2.181   6.986  0.9113  0.3781  0.0899
  136OSM   H15A14752   1.633   2.089   7.041  0.1296  0.6561  0.7466
  136OSM   H15B14753   1.721   2.223   6.991  1.7933 -1.6839  1.0412
  136OSM   H15C14754   1.582   2.165   6.887 -0.4356 -1.7539  0.8847
  136OSM    C1414755   1.381   2.198   7.037  0.1478 -0.5412  1.1075
  136OSM   H14A14756   1.380   2.090   7.039  0.4239 -0.5805  0.0721
  136OSM   H14B14757   1.345   2.215   6.936 -0.0215  0.5508  1.3389
  136OSM   H14C14758   1.303   2.240   7.098 -0.8240 -1.0554  0.2656
  136OSM    C1314759   1.548   2.242   7.211 -0.0328 -0.6701  0.2056
  136OSM   H13A14760   1.555   2.137   7.234 -1.6495 -1.0458 -0.8993
  136OSM   H13B14761   1.476   2.293   7.274 -0.1002  0.4351 -0.7252
  136OSM   H13C14762   1.642   2.287   7.241  0.2560  0.5811 -2.2668
  136OSM    C1214763   1.519   2.401   7.012  0.6576  0.2328 -0.4000
  136OSM   H12A14764   1.432   2.447   7.057  1.0626  1.4709 -0.8511
  136OSM   H12B14765   1.502   2.397   6.905  1.6053 -2.5523 -0.5308
  136OSM    C1114766   1.635   2.495   7.038  0.0626 -1.1101  0.1869
  136OSM   H11A14767   1.663   2.481   7.145 -1.9521  2.9737  1.4460
  136OSM   H11B14768   1.590   2.596   7.027  2.1200 -0.2200 -0.4896
  136OSM      P14769   1.776   2.571   6.838  0.2213 -0.2859 -0.1873
  136OSM    O1314770   1.808   2.702   6.900 -1.0100 -0.1486 -0.0800
  136OSM    O1414771   1.880   2.514   6.748 -0.1186  0.0002  0.1657
  136OSM    O1114772   1.632   2.575   6.771  0.3026  0.3182  0.8456
  136OSM    O1214773   1.753   2.472   6.954 -0.5691 -0.0260  0.2056
  136OSM    C1S14774   1.592   2.653   6.658 -0.5574  0.3529 -0.5428
  136OSM    H1S14775   1.652   2.746   6.649 -0.2410  0.0995 -1.1297
  136OSM    H1T14776   1.484   2.679   6.661 -0.7400 -0.4807  0.5571
  136OSM     NF14777   1.627   2.658   6.413  0.2885  0.2937 -0.3582
  136OSM    HNF14778   1.539   2.669   6.368 -0.6994  0.0037  1.4291
  136OSM    C2S14779   1.612   2.573   6.532 -0.9131 -0.2012 -0.3391
  136OSM    H2S14780   1.705   2.513   6.542  0.2309  1.5975  0.4573
  136OSM    C3S14781   1.497   2.461   6.519 -0.1926  0.2300 -0.3992
  136OSM    H3S14782   1.404   2.520   6.508 -0.9596 -1.0048 -0.7464
  136OSM     O314783   1.486   2.374   6.630 -0.3821 -0.1701  0.5485
  136OSM    HO314784   1.557   2.403   6.686  0.9080 -0.5964 -0.7826
  136OSM    C4S14785   1.524   2.389   6.396 -0.7681  0.4774  0.2429
  136OSM    H4S14786   1.612   2.324   6.410 -0.9697  0.7415  3.5853
  136OSM    C5S14787   1.460   2.390   6.281  0.4327  0.1209  0.6523
  136OSM    H5S14788   1.366   2.444   6.262 -1.4235 -2.3846  2.1412
  136OSM    C6S14789   1.501   2.313   6.163 -0.5275  0.7279  0.5549
  136OSM    H6S14790   1.427   2.232   6.146  0.2614 -0.2790  1.7027
  136OSM    H6T14791   1.599   2.262   6.174 -1.0711 -0.4313  0.1062
  136OSM    C7S14792   1.516   2.400   6.033  0.1022 -0.2635  0.3188
  136OSM    H7S14793   1.623   2.427   6.019  0.4978 -1.5202  0.7610
  136OSM    H7T14794   1.461   2.494   6.054  0.9267  0.3601 -0.2708
  136OSM    C8S14795   1.459   2.347   5.893  0.9894  0.3109 -0.3974
  136OSM    H8S14796   1.481   2.420   5.812 -0.0155 -0.1306 -1.0888
  136OSM    H8T14797   1.349   2.335   5.901  0.8388  2.6010  2.5536
  136OSM    C9S14798   1.514   2.207   5.844 -0.0141 -0.0658  0.3518
  136OSM    H9S14799   1.445   2.172   5.764  1.2381 -0.3406 -0.6473
  136OSM    H9T14800   1.522   2.139   5.931 -1.0121 -0.8788 -0.1650
  136OSM   C10S14801   1.655   2.230   5.779 -0.2952  0.1872  0.1435
  136OSM   H10S14802   1.720   2.247   5.868 -0.1236 -0.0607  0.0652
  136OSM   H10T14803   1.645   2.316   5.710 -1.8772 -0.2083 -0.1588
  136OSM   C11S14804   1.707   2.110   5.701  0.0632  0.2395  0.0124
  136OSM   H11S14805   1.684   2.017   5.757 -3.2015  2.5479  2.9864
  136OSM   H11T14806   1.818   2.111   5.698  0.1695 -1.6358  1.3344
  136OSM   C12S14807   1.660   2.102   5.555  0.4898  0.4542 -0.0429
  136OSM   H12S14808   1.701   2.193   5.508  1.3575  0.4065  0.5863
  136OSM   H12T14809   1.550   2.095   5.567  0.4572 -0.8529 -0.9070
  136OSM   C13S14810   1.710   1.976   5.478 -0.0681 -0.2396  0.3852
  136OSM   H13S14811   1.674   1.882   5.526 -0.0269 -0.6215 -0.3133
  136OSM   H13T14812   1.820   1.964   5.479  0.1096  1.2383  1.0941
  136OSM   C14S14813   1.664   1.986   5.335  0.6988  0.0329  0.3705
  136OSM   H14S14814   1.558   2.019   5.336 -0.0355 -1.8324 -2.5842
  136OSM   H14T14815   1.660   1.888   5.282  0.3123  0.3383 -0.1806
  136OSM   C15S14816   1.734   2.085   5.239 -0.4763  0.4976 -0.4689
  136OSM   H15S14817   1.845   2.081   5.238 -0.3761  0.5586  2.2138
  136OSM   H15T14818   1.726   2.183   5.290  0.4122 -1.7080  4.5611
  136OSM   C16S14819   1.677   2.084   5.098  0.4224 -0.0253  0.2678
  136OSM   H16S14820   1.571   2.117   5.109  0.8175  0.9852  1.2182
  136OSM   H16T14821   1.665   1.981   5.058 -0.0740  0.1893 -0.1558
  136OSM   C17S14822   1.759   2.184   5.013  0.1777 -0.1095  0.0761
  136OSM   H17S14823   1.868   2.166   5.019  0.0759 -0.7555  0.0573
  136OSM   H17T14824   1.737   2.283   5.059 -1.6919 -1.4964  2.3775
  136OSM   C18S14825   1.713   2.177   4.866 -0.0155 -0.8716 -0.1852
  136OSM   H18S14826   1.608   2.213   4.860  0.3347  0.0531 -1.0868
  136OSM   H18T14827   1.714   2.072   4.829 -1.7009 -0.8510 -0.3974
  136OSM   H18U14828   1.773   2.243   4.800 -0.5088 -1.4139 -1.2204
  136OSM    C1F14829   1.730   2.736   6.399  0.3368  0.3395 -0.4356
  136OSM     OF14830   1.828   2.730   6.473  0.2068 -0.0991 -0.5530
  136OSM    C2F14831   1.718   2.833   6.291  0.1127 -0.3823  0.2467
  136OSM    H2F14832   1.736   2.936   6.329  2.1319  0.4067 -2.5425
  136OSM    H2G14833   1.615   2.815   6.253  0.1573 -2.2630  0.9035
  136OSM    C3F14834   1.827   2.795   6.191  0.4236  0.1122  0.2582
  136OSM    H3F14835   1.913   2.735   6.227 -1.0422 -3.6479 -1.8881
  136OSM    H3G14836   1.881   2.887   6.160  0.6663 -0.5208 -1.3463
  136OSM    C4F14837   1.760   2.737   6.057  0.5888  0.4942  0.1392
  136OSM    H4F14838   1.669   2.796   6.034 -0.1776  0.1139  1.9622
  136OSM    H4G14839   1.737   2.632   6.087 -1.9923  0.8862 -0.1874
  136OSM    C5F14840   1.852   2.719   5.938 -0.2596  0.3021 -0.9277
  136OSM    H5F14841   1.912   2.628   5.963 -0.7172  0.9373  3.2102
  136OSM    H5G14842   1.933   2.793   5.924 -0.7563  1.0198 -0.0753
  136OSM    C6F14843   1.783   2.695   5.806 -0.5132  0.7454  0.1771
  136OSM    H6F14844   1.730   2.786   5.772  0.2056  1.2589  0.4002
  136OSM    H6G14845   1.702   2.622   5.823  1.2320 -1.2882  0.1875
  136OSM    C7F14846   1.875   2.632   5.700 -0.0556  0.0196  0.3419
  136OSM    H7F14847   1.910   2.537   5.744  2.8255  1.1696  0.8057
  136OSM    H7G14848   1.963   2.697   5.680  0.1140 -0.2015  0.3654
  136OSM    C8F14849   1.797   2.603   5.568 -0.3271  1.0089  1.0821
  136OSM    H8F14850   1.701   2.551   5.590 -0.4445  0.3653 -0.8104
  136OSM    H8G14851   1.862   2.534   5.511 -0.8559  1.5611 -0.2284
  136OSM    C9F14852   1.774   2.731   5.490  0.3385 -0.1152  0.1089
  136OSM    H9F14853   1.716   2.806   5.546 -0.1130 -2.1421  2.5893
  136OSM   C10F14854   1.802   2.739   5.360  0.7583  0.0061 -0.8706
  136OSM   H10F14855   1.792   2.836   5.309  0.2035  1.0991  1.1913
  136OSM   C11F14856   1.863   2.634   5.265 -0.0569  0.8548  0.2113
  136OSM   H11F14857   1.778   2.566   5.244  0.5295  0.8929 -2.6092
  136OSM   H11G14858   1.947   2.569   5.297  0.0838  2.0255  2.4712
  136OSM   C12F14859   1.901   2.697   5.135  0.2562 -0.3905 -0.5633
  136OSM   H12F14860   1.980   2.771   5.158 -0.4917  0.2709 -0.1029
  136OSM   H12G14861   1.820   2.760   5.092  0.2963 -0.3747 -0.6173
  136OSM   C13F14862   1.941   2.603   5.027 -0.4868 -0.1655 -0.4883
  136OSM   H13F14863   1.865   2.529   4.997  0.0393 -0.0001 -2.3574
  136OSM   H13G14864   2.034   2.543   5.040  1.2433  1.9158 -2.3718
  136OSM   C14F14865   1.970   2.679   4.893 -0.0077  0.1586  0.5521
  136OSM   H14F14866   1.888   2.754   4.890  1.2288  1.5940  1.1934
  136OSM   H14G14867   1.957   2.607   4.810  0.0993  0.8340 -0.0572
  136OSM   C15F14868   2.106   2.748   4.883  0.5107 -0.2609  0.5886
  136OSM   H15F14869   2.110   2.818   4.969 -1.5992 -0.3167  0.7925
  136OSM   H15G14870   2.106   2.806   4.788 -1.1002 -0.0695  0.6711
  136OSM   C16F14871   2.236   2.669   4.883  0.1416 -0.2427  0.3450
  136OSM   H16F14872   2.254   2.630   4.985  1.3827 -2.2891 -0.5961
  136OSM   H16G14873   2.314   2.742   4.850 -2.0149  1.1876 -1.9088
  136OSM   C17F14874   2.245   2.542   4.795  0.0083 -0.1215 -0.6741
  136OSM   H17F14875   2.230   2.568   4.688 -1.6386 -3.5675 -1.4129
  136OSM   H17G14876   2.172   2.465   4.827  0.0329 -0.0444 -0.4301
  136OSM   C18F14877   2.383   2.469   4.817 -0.7131  0.5702 -0.4066
  136OSM   H18F14878   2.393   2.387   4.744  2.5541 -0.8271  1.4032
  136OSM   H18G14879   2.395   2.431   4.921  2.8319 -0.7938 -1.1954
  136OSM   H18H14880   2.464   2.544   4.805  0.0361 -0.2984 -0.8095
  137OSM      N14881   2.463   0.722   6.944 -1.0169  0.3999 -0.1402
  137OSM    C1514882   2.504   0.824   7.049 -0.0703  0.5526 -0.6734
  137OSM   H15A14883   2.463   0.802   7.147  0.4738  0.6231 -0.4287
  137OSM   H15B14884   2.460   0.919   7.021 -0.7440  0.3213 -0.4204
  137OSM   H15C14885   2.610   0.831   7.064 -0.2385  2.2456  0.0340
  137OSM    C1414886   2.572   0.719   6.845  0.2384  0.0262  0.0881
  137OSM   H14A14887   2.591   0.822   6.815  2.4405 -0.4104 -0.1991
  137OSM   H14B14888   2.552   0.650   6.765  0.0824 -1.2446  1.2026
  137OSM   H14C14889   2.663   0.684   6.892  1.1238  2.7597  0.6067
  137OSM    C1314890   2.455   0.584   7.001 -0.2731 -0.0641  0.0769
  137OSM   H13A14891   2.468   0.502   6.931 -1.6413 -0.2604  0.0289
  137OSM   H13B14892   2.362   0.568   7.052 -0.0752  1.7868  1.0982
  137OSM   H13C14893   2.541   0.572   7.065  0.1589  2.0182 -0.0421
  137OSM    C1214894   2.332   0.750   6.878 -0.3529  0.4601 -0.2105
  137OSM   H12A14895   2.309   0.668   6.811 -1.4586  0.5471  0.0371
  137OSM   H12B14896   2.355   0.834   6.813 -0.2182  1.1851  0.7567
  137OSM    C1114897   2.213   0.776   6.964 -0.2398  0.5276  0.0354
  137OSM   H11A14898   2.199   0.694   7.038  1.7902 -1.1473 -1.3095
  137OSM   H11B14899   2.120   0.771   6.902  0.1572  0.0202 -0.5316
  137OSM      P14900   2.108   1.005   7.049  0.1962  0.6418  0.1316
  137OSM    O1314901   2.022   0.936   7.147 -0.4802  0.8730 -0.2063
  137OSM    O1414902   2.161   1.145   7.069 -0.1949 -0.4436 -0.5224
  137OSM    O1114903   2.040   1.003   6.900 -1.0368 -0.3558  0.4200
  137OSM    O1214904   2.226   0.900   7.032  0.2727 -0.5621 -0.2018
  137OSM    C1S14905   2.119   1.067   6.796  0.2037 -0.8869 -0.0011
  137OSM    H1S14906   2.228   1.050   6.808  0.3596  0.1844  0.1945
  137OSM    H1T14907   2.103   1.177   6.800  1.3197 -0.7257  0.7607
  137OSM     NF14908   2.161   1.059   6.548  0.3295  0.0856 -0.2467
  137OSM    HNF14909   2.143   1.137   6.488  1.0468  1.7805  1.6243
  137OSM    C2S14910   2.072   1.012   6.660 -0.5275 -0.4334  0.3299
  137OSM    H2S14911   2.073   0.901   6.663 -3.6953 -0.5342  0.9675
  137OSM    C3S14912   1.920   1.044   6.641 -0.3456  1.2908 -0.0688
  137OSM    H3S14913   1.906   1.154   6.632  0.6815  1.5035  0.6912
  137OSM     O314914   1.842   0.995   6.749  0.4084  0.5782 -0.5648
  137OSM    HO314915   1.905   0.984   6.822 -0.0119  1.4365 -0.0610
  137OSM    C4S14916   1.879   0.972   6.529 -0.5239 -0.3983  0.2904
  137OSM    H4S14917   1.891   0.863   6.521  2.3232 -0.0210 -2.8295
  137OSM    C5S14918   1.813   1.033   6.434 -0.1008  0.3164  1.3766
  137OSM    H5S14919   1.786   1.140   6.427  0.6100  0.4052 -0.8511
  137OSM    C6S14920   1.751   0.957   6.310 -0.8544  0.1444  0.0000
  137OSM    H6S14921   1.646   0.990   6.295 -0.9009 -1.0336 -3.1189
  137OSM    H6T14922   1.743   0.849   6.330  0.5480 -0.5135 -2.4746
  137OSM    C7S14923   1.828   0.983   6.179  0.0361 -0.0584 -0.1409
  137OSM    H7S14924   1.932   0.949   6.193  0.4878  0.6407 -1.5957
  137OSM    H7T14925   1.841   1.091   6.154  1.6035  0.5251  2.7647
  137OSM    C8S14926   1.771   0.908   6.055 -0.2580 -0.5311 -0.8605
  137OSM    H8S14927   1.667   0.942   6.037  0.1414  1.6502  0.5382
  137OSM    H8T14928   1.766   0.799   6.078  0.3432 -0.1837  1.1883
  137OSM    C9S14929   1.856   0.920   5.928 -1.2507 -0.0867 -0.0305
  137OSM    H9S14930   1.960   0.881   5.919 -0.6373  0.9496  1.9773
  137OSM    H9T14931   1.871   1.029   5.913 -2.3881  0.1731  0.6325
  137OSM   C10S14932   1.783   0.865   5.806 -0.3647 -0.4223 -0.1549
  137OSM   H10S14933   1.678   0.902   5.806 -1.3300 -2.9381  0.9912
  137OSM   H10T14934   1.770   0.755   5.810 -3.2369 -0.1249  1.2233
  137OSM   C11S14935   1.864   0.906   5.677  0.0408 -0.2887 -0.2608
  137OSM   H11S14936   1.967   0.864   5.676 -0.3389 -1.3600  1.6483
  137OSM   H11T14937   1.885   1.015   5.679  0.6059 -0.3672 -1.3651
  137OSM   C12S14938   1.792   0.875   5.550 -0.5476  0.0792 -0.2476
  137OSM   H12S14939   1.709   0.947   5.532  0.1613  1.2757  1.0569
  137OSM   H12T14940   1.760   0.770   5.532  2.7827 -1.4903  1.9919
  137OSM   C13S14941   1.869   0.916   5.418 -0.6241 -1.3209 -0.2517
  137OSM   H13S14942   1.960   0.854   5.433 -1.3396 -2.4296 -0.3996
  137OSM   H13T14943   1.893   1.024   5.428  0.8590 -1.6471  0.0152
  137OSM   C14S14944   1.787   0.879   5.301 -0.0515 -0.3125 -0.0852
  137OSM   H14S14945   1.705   0.953   5.291 -0.9777 -1.2899  0.1799
  137OSM   H14T14946   1.745   0.778   5.319  1.3582 -0.8397  0.4016
  137OSM   C15S14947   1.864   0.876   5.166 -0.1062  0.3241 -0.2347
  137OSM   H15S14948   1.797   0.813   5.104  1.4015 -1.6777  0.0915
  137OSM   H15T14949   1.956   0.815   5.179 -0.4089 -0.0244  0.2562
  137OSM   C16S14950   1.905   1.007   5.083 -0.1154 -0.8511 -0.7265
  137OSM   H16S14951   1.823   1.081   5.089 -1.4836 -2.2567 -1.4319
  137OSM   H16T14952   1.910   0.968   4.979  1.6524 -0.3568 -0.8738
  137OSM   C17S14953   2.028   1.084   5.129 -0.3413  0.7783  0.1748
  137OSM   H17S14954   2.109   1.012   5.105 -0.4474  1.3622 -2.2351
  137OSM   H17T14955   2.039   1.111   5.236  1.9219 -2.6761  0.9472
  137OSM   C18S14956   2.062   1.208   5.050  0.1027  0.3472  0.9883
  137OSM   H18S14957   2.161   1.247   5.082  1.7191 -1.1703 -1.7483
  137OSM   H18T14958   1.980   1.281   5.063 -1.0463 -0.8785  0.7911
  137OSM   H18U14959   2.075   1.174   4.945  0.3671  0.7514  0.8889
  137OSM    C1F14960   2.287   1.012   6.533 -0.1319  0.4716 -0.0937
  137OSM     OF14961   2.342   0.955   6.628 -0.5032  0.2046  0.4317
  137OSM    C2F14962   2.349   1.035   6.401  0.1499  0.4810 -0.8119
  137OSM    H2F14963   2.459   1.018   6.412 -0.1760  0.0707  2.7215
  137OSM    H2G14964   2.327   1.141   6.376  0.8841  0.5205 -1.3532
  137OSM    C3F14965   2.296   0.944   6.286 -0.2795 -0.1748 -0.3297
  137OSM    H3F14966   2.187   0.959   6.271 -0.9527 -2.7353  1.3450
  137OSM    H3G14967   2.311   0.840   6.321  2.2712  0.0613 -0.4974
  137OSM    C4F14968   2.377   0.935   6.153 -0.0410 -0.5829  0.9220
  137OSM    H4F14969   2.475   0.892   6.181  0.6281 -0.5978 -1.2882
  137OSM    H4G14970   2.401   1.037   6.117 -2.1899 -0.4321 -0.2602
  137OSM    C5F14971   2.308   0.863   6.038  0.3358  0.7393  0.2980
  137OSM    H5F14972   2.208   0.907   6.019  0.2617  1.2021  1.6857
  137OSM    H5G14973   2.294   0.761   6.081 -1.3590  0.0575 -1.6488
  137OSM    C6F14974   2.385   0.861   5.902 -0.4372  0.0312  0.4401
  137OSM    H6F14975   2.474   0.794   5.909 -0.0413  0.4996 -0.0397
  137OSM    H6G14976   2.428   0.962   5.881  1.3768 -0.5489  1.1442
  137OSM    C7F14977   2.298   0.826   5.780  0.6199 -0.5406  0.4451
  137OSM    H7F14978   2.228   0.909   5.757 -0.4180 -1.5832 -0.2787
  137OSM    H7G14979   2.245   0.728   5.789 -0.9677  0.2356 -0.0630
  137OSM    C8F14980   2.388   0.821   5.649 -0.6543  0.0887 -0.3710
  137OSM    H8F14981   2.461   0.737   5.652  0.3030  0.9074 -0.2642
  137OSM    H8G14982   2.447   0.913   5.632  2.1180 -1.5953 -0.3970
  137OSM    C9F14983   2.286   0.801   5.534  0.8618  0.0877  0.0051
  137OSM    H9F14984   2.192   0.746   5.555  0.7736  0.7877  1.5974
  137OSM   C10F14985   2.284   0.859   5.405  0.2214  0.5971 -0.3070
  137OSM   H10F14986   2.198   0.830   5.343  0.6346 -1.6739  0.0922
  137OSM   C11F14987   2.396   0.931   5.335  0.0176  0.9224 -0.5308
  137OSM   H11F14988   2.452   0.991   5.409  0.9490 -1.0593  0.4617
  137OSM   H11G14989   2.349   0.999   5.261  1.9557  1.9645 -0.8614
  137OSM   C12F14990   2.477   0.838   5.246  0.1678 -0.3653 -0.7207
  137OSM   H12F14991   2.507   0.753   5.311  2.5097  1.0979  0.2029
  137OSM   H12G14992   2.571   0.888   5.215  1.0027 -1.3804  0.1291
  137OSM   C13F14993   2.397   0.794   5.123  0.7027  0.3775  0.7617
  137OSM   H13F14994   2.350   0.885   5.081  2.5486  1.1713  0.3013
  137OSM   H13G14995   2.323   0.723   5.165  1.9757 -2.7393 -1.8453
  137OSM   C14F14996   2.468   0.711   5.012  0.0857 -0.2666 -0.7026
  137OSM   H14F14997   2.549   0.645   5.051 -0.2904 -0.2707  0.0931
  137OSM   H14G14998   2.518   0.778   4.939  1.0439 -0.6146 -0.3860
  137OSM   C15F14999   2.371   0.630   4.914  0.1421 -1.2286 -0.3629
  137OSM   H15F15000   2.303   0.709   4.876 -0.2717 -1.9164 -1.0834
  137OSM   H15G15001   2.318   0.553   4.975  0.4957 -1.3065 -0.1510
  137OSM   C16F15002   2.451   0.570   4.791  0.0165 -0.5382 -0.9551
  137OSM   H16F15003   2.470   0.465   4.822 -0.4613 -0.9426 -1.9931
  137OSM   H16G15004   2.549   0.623   4.795  1.3998 -2.8551 -2.0086
  137OSM   C17F15005   2.377   0.577   4.656 -0.4473  0.5628 -0.0198
  137OSM   H17F15006   2.445   0.527   4.584 -0.0901  0.4313  0.4057
  137OSM   H17G15007   2.370   0.684   4.630  1.2744  1.3421  2.3643
  137OSM   C18F15008   2.242   0.514   4.638  0.0261  0.2367  0.2446
  137OSM   H18F15009   2.215   0.518   4.530 -0.4908 -0.4005  0.3414
  137OSM   H18G15010   2.167   0.574   4.693 -0.8230 -1.1260  0.6447
  137OSM   H18H15011   2.253   0.407   4.668  1.4097  0.6697  1.3860
  138OSM      N15012   5.242   6.480   6.759  0.4675  0.2276 -0.7156
  138OSM    C1515013   5.228   6.632   6.735 -0.1363  0.1185 -0.1618
  138OSM   H15A15014   5.257   6.683   6.825 -2.6723 -0.6567  1.1686
  138OSM   H15B15015   5.131   6.668   6.706 -0.4279 -1.9043 -1.9329
  138OSM   H15C15016   5.290   6.662   6.651 -1.3900 -1.9530 -1.9338
  138OSM    C1415017   5.174   6.456   6.894  0.2149 -0.2544  0.0300
  138OSM   H14A15018   5.221   6.503   6.979  0.1386  0.5324 -0.3492
  138OSM   H14B15019   5.168   6.352   6.922 -1.0120 -0.0025  0.8313
  138OSM   H14C15020   5.072   6.493   6.893  1.1567  2.6883 -2.3584
  138OSM    C1315021   5.161   6.415   6.651  0.1905 -0.1879  0.2597
  138OSM   H13A15022   5.066   6.463   6.636  0.6296 -0.0654 -2.8015
  138OSM   H13B15023   5.160   6.312   6.682  1.4185 -0.1389  0.5290
  138OSM   H13C15024   5.203   6.427   6.552  0.0896 -1.1046  0.0994
  138OSM    C1215025   5.383   6.436   6.760 -0.4246  0.5152  0.4938
  138OSM   H12A15026   5.389   6.330   6.781  0.0150  0.1433 -1.3913
  138OSM   H12B15027   5.440   6.484   6.838  2.0122  0.1906 -0.9978
  138OSM    C1115028   5.464   6.478   6.635 -0.5256 -0.2714 -0.6200
  138OSM   H11A15029   5.418   6.457   6.536  0.1437 -1.4955 -0.6910
  138OSM   H11B15030   5.555   6.415   6.643 -0.4595  0.0462  2.7746
  138OSM      P15031   5.591   6.666   6.766  0.3080 -0.3722  0.1777
  138OSM    O1315032   5.536   6.788   6.827 -0.4236 -0.7434  0.9146
  138OSM    O1415033   5.612   6.556   6.857 -0.4736 -0.6182  0.0557
  138OSM    O1115034   5.719   6.714   6.692 -0.1695  0.2204 -0.0366
  138OSM    O1215035   5.499   6.615   6.645 -0.1242 -0.5890  0.1411
  138OSM    C1S15036   5.797   6.646   6.593 -0.3735  0.1933 -0.3717
  138OSM    H1S15037   5.840   6.550   6.630 -0.8229 -1.1255 -3.0352
  138OSM    H1T15038   5.881   6.712   6.562 -1.2239  1.2685 -0.4516
  138OSM     NF15039   5.844   6.559   6.378 -0.1222 -0.5269  0.2711
  138OSM    HNF15040   5.900   6.620   6.322  2.4329 -2.2597  0.7437
  138OSM    C2S15041   5.738   6.627   6.453 -0.0694 -0.1041  1.3685
  138OSM    H2S15042   5.654   6.555   6.462 -0.2103 -0.0169  0.7831
  138OSM    C3S15043   5.680   6.758   6.391 -0.4316  0.0380  0.5513
  138OSM    H3S15044   5.762   6.833   6.381 -2.1556  1.8301 -0.8731
  138OSM     O315045   5.584   6.829   6.465  0.2886  0.3991 -0.0272
  138OSM    HO315046   5.598   6.799   6.555  0.5330  1.7614  0.4039
  138OSM    C4S15047   5.633   6.721   6.252  0.0653  0.4370  0.3170
  138OSM    H4S15048   5.530   6.681   6.257  0.2635  0.0590  1.7174
  138OSM    C5S15049   5.705   6.729   6.140  0.4254  0.1780  0.3426
  138OSM    H5S15050   5.802   6.780   6.143  1.2865 -1.3488 -0.5833
  138OSM    C6S15051   5.645   6.703   6.003  0.0710  0.3416 -0.9285
  138OSM    H6S15052   5.732   6.665   5.944 -0.7560 -0.5226 -1.6141
  138OSM    H6T15053   5.622   6.800   5.954 -0.8557 -0.2249 -1.6353
  138OSM    C7S15054   5.532   6.599   5.993 -0.5694 -0.3113 -0.1662
  138OSM    H7S15055   5.440   6.636   6.044 -0.4296  1.5064 -1.1651
  138OSM    H7T15056   5.568   6.501   6.030  0.5672 -0.4058 -1.4351
  138OSM    C8S15057   5.508   6.565   5.835 -0.2031 -0.3416 -0.1569
  138OSM    H8S15058   5.608   6.554   5.788  2.0462  1.8255  3.6775
  138OSM    H8T15059   5.462   6.652   5.781  0.1370 -0.0938 -0.0495
  138OSM    C9S15060   5.422   6.443   5.810 -0.2495 -0.0406 -0.1397
  138OSM    H9S15061   5.317   6.457   5.844 -0.0849  1.4729 -0.1737
  138OSM    H9T15062   5.470   6.356   5.860 -2.1870 -0.6150  0.7996
  138OSM   C10S15063   5.406   6.401   5.657  0.1133  1.0284 -0.2705
  138OSM   H10S15064   5.362   6.486   5.601 -0.8207 -0.0725 -1.2765
  138OSM   H10T15065   5.328   6.321   5.655  0.8729  0.2439  0.4301
  138OSM   C11S15066   5.526   6.354   5.576  0.2003 -0.5088 -0.1723
  138OSM   H11S15067   5.579   6.277   5.635 -1.7806 -0.6495  1.5383
  138OSM   H11T15068   5.612   6.425   5.582 -0.0396 -0.2217 -0.0964
  138OSM   C12S15069   5.492   6.312   5.435  0.3023 -0.2110 -0.4506
  138OSM   H12S15070   5.397   6.254   5.444  0.9728 -1.1098  1.3518
  138OSM   H12T15071   5.561   6.234   5.396 -0.0385 -1.3475  1.1209
  138OSM   C13S15072   5.494   6.424   5.328 -0.3182  0.3168 -0.5647
  138OSM   H13S15073   5.596   6.468   5.325 -0.0211 -0.4131 -1.4637
  138OSM   H13T15074   5.430   6.513   5.347 -0.4838  0.5275 -2.0240
  138OSM   C14S15075   5.445   6.388   5.189 -0.0471 -0.3917 -0.4578
  138OSM   H14S15076   5.343   6.349   5.207 -0.0457  0.5220  1.9067
  138OSM   H14T15077   5.505   6.301   5.156  2.4973 -0.6052  3.9784
  138OSM   C15S15078   5.465   6.499   5.092 -0.5145  0.3052  0.3211
  138OSM   H15S15079   5.573   6.513   5.072 -0.4560 -1.4457 -0.7052
  138OSM   H15T15080   5.427   6.595   5.135 -2.6986 -0.5554  0.4338
  138OSM   C16S15081   5.417   6.469   4.949 -0.1353 -0.1095  0.6279
  138OSM   H16S15082   5.306   6.465   4.939 -0.3897  2.5727  1.5021
  138OSM   H16T15083   5.439   6.362   4.929  0.5173 -0.2475  2.0035
  138OSM   C17S15084   5.472   6.580   4.852  0.1388  0.6781  0.1753
  138OSM   H17S15085   5.578   6.602   4.874  0.1329  1.9257 -0.9067
  138OSM   H17T15086   5.417   6.674   4.875  0.2382  0.4812  1.2253
  138OSM   C18S15087   5.463   6.534   4.703 -0.2539 -0.3918 -0.5897
  138OSM   H18S15088   5.513   6.437   4.684 -0.9193 -0.9440  0.4474
  138OSM   H18T15089   5.506   6.618   4.643  2.8304  0.9751  3.1440
  138OSM   H18U15090   5.353   6.526   4.685 -0.6096 -0.1147  1.2758
  138OSM    C1F15091   5.862   6.427   6.379  0.3387  0.2250 -0.7980
  138OSM     OF15092   5.787   6.352   6.449  0.1183  0.4619  0.1397
  138OSM    C2F15093   5.971   6.370   6.288  0.0118 -0.2707 -0.0805
  138OSM    H2F15094   5.965   6.259   6.295 -0.1401 -0.2759 -0.2750
  138OSM    H2G15095   6.062   6.420   6.327 -0.8285  0.8819  0.4530
  138OSM    C3F15096   5.949   6.410   6.141  0.7208 -0.8401  0.0456
  138OSM    H3F15097   5.975   6.517   6.127  1.0013 -0.9279 -0.1032
  138OSM    H3G15098   5.844   6.393   6.108  0.4175 -1.2253  1.1298
  138OSM    C4F15099   6.046   6.344   6.046  0.1642 -0.5848 -0.1825
  138OSM    H4F15100   5.990   6.262   5.996  1.2278 -0.4834 -1.6024
  138OSM    H4G15101   6.138   6.301   6.092  1.2503  0.6796 -1.1056
  138OSM    C5F15102   6.104   6.440   5.940 -0.4880 -0.4940 -0.5098
  138OSM    H5F15103   6.187   6.387   5.888 -0.9284  0.8846 -2.7508
  138OSM    H5G15104   6.156   6.521   5.995  0.2550 -1.0351 -0.3978
  138OSM    C6F15105   6.008   6.501   5.837 -0.3150  0.2456  0.3199
  138OSM    H6F15106   5.924   6.539   5.899  0.4892  1.0947  0.9296
  138OSM    H6G15107   5.971   6.412   5.781  2.1115 -0.5341 -0.1786
  138OSM    C7F15108   6.063   6.606   5.742 -0.8077 -0.4197 -0.3957
  138OSM    H7F15109   6.155   6.553   5.710  0.1916 -0.2170  1.9132
  138OSM    H7G15110   6.094   6.686   5.812  0.2583 -0.6976 -0.5294
  138OSM    C8F15111   5.953   6.662   5.650 -0.2925  0.6916 -0.4836
  138OSM    H8F15112   5.888   6.719   5.720  0.7124  0.0841  1.0005
  138OSM    H8G15113   5.894   6.580   5.604 -2.4745  0.8677  1.7705
  138OSM    C9F15114   6.031   6.751   5.558  0.6046 -0.3992 -0.0133
  138OSM    H9F15115   6.075   6.834   5.616 -0.7905 -0.7452  1.5874
  138OSM   C10F15116   6.050   6.727   5.430  0.2402 -0.0644 -0.3619
  138OSM   H10F15117   6.131   6.793   5.395 -0.9838  1.3323 -0.6342
  138OSM   C11F15118   6.011   6.606   5.350  0.3955 -0.3502 -0.8228
  138OSM   H11F15119   6.015   6.630   5.242 -0.1668 -1.7140 -1.1688
  138OSM   H11G15120   5.911   6.571   5.381  0.9972 -0.3294  1.2856
  138OSM   C12F15121   6.102   6.484   5.373 -0.1022 -0.0636 -0.0269
  138OSM   H12F15122   6.057   6.396   5.322 -0.4037  0.6860 -1.1082
  138OSM   H12G15123   6.101   6.456   5.480 -0.2889 -0.8213 -0.2267
  138OSM   C13F15124   6.250   6.504   5.331  0.3449  0.4193  0.0175
  138OSM   H13F15125   6.295   6.588   5.387  4.2718 -1.8028  0.5378
  138OSM   H13G15126   6.260   6.533   5.224  3.8429 -0.8215 -0.1392
  138OSM   C14F15127   6.335   6.376   5.368  0.3896  0.3795  0.4980
  138OSM   H14F15128   6.435   6.387   5.319  0.2014  0.8443  0.2117
  138OSM   H14G15129   6.294   6.281   5.326  0.5598  1.1930 -1.6355
  138OSM   C15F15130   6.351   6.380   5.520  0.0517  0.4133 -0.2055
  138OSM   H15F15131   6.252   6.369   5.570  0.1146  2.4663  0.4524
  138OSM   H15G15132   6.402   6.470   5.560  1.0214 -0.5937  0.9210
  138OSM   C16F15133   6.443   6.267   5.567  0.0414 -0.0304  0.3109
  138OSM   H16F15134   6.545   6.304   5.540 -0.3447  0.9152  0.0905
  138OSM   H16G15135   6.438   6.179   5.500  1.2523 -0.0691  0.2542
  138OSM   C17F15136   6.424   6.226   5.706  0.0467  0.3708  0.4994
  138OSM   H17F15137   6.318   6.212   5.735 -0.0884 -0.4625 -0.3630
  138OSM   H17G15138   6.461   6.309   5.771 -1.9474  1.2583  0.5677
  138OSM   C18F15139   6.485   6.082   5.727 -0.5322  0.2034 -0.3867
  138OSM   H18F15140   6.593   6.096   5.703 -0.8962  2.9189 -0.6988
  138OSM   H18G15141   6.446   6.003   5.659 -0.3171  0.3304 -0.6633
  138OSM   H18H15142   6.489   6.055   5.835  0.2098 -0.4426 -0.5602
  139OSM      N15143   1.117   4.786   6.810 -0.2356 -0.7363 -0.1591
  139OSM    C1515144   1.253   4.805   6.882  0.3675  0.2048 -0.1580
  139OSM   H15A15145   1.253   4.769   6.984 -1.6661 -0.1767 -0.2536
  139OSM   H15B15146   1.285   4.907   6.870 -0.8671  0.4779 -1.3999
  139OSM   H15C15147   1.320   4.730   6.843  0.0471 -1.4361  2.2312
  139OSM    C1415148   1.074   4.651   6.825 -0.6038  0.2240  0.2803
  139OSM   H14A15149   0.977   4.632   6.782 -0.1165 -1.4051 -0.2062
  139OSM   H14B15150   1.080   4.619   6.928 -1.1210  1.3768  0.6802
  139OSM   H14C15151   1.145   4.580   6.784 -1.6406 -1.1121  0.7367
  139OSM    C1315152   1.017   4.871   6.882  0.1218 -0.2173 -0.0667
  139OSM   H13A15153   1.041   4.975   6.865 -0.8605  0.1824  0.8987
  139OSM   H13B15154   1.022   4.860   6.990 -2.2239  1.9449  0.3344
  139OSM   H13C15155   0.923   4.867   6.830  0.1102 -1.1416  0.0056
  139OSM    C1215156   1.123   4.834   6.670 -0.0147 -0.0473 -0.3598
  139OSM   H12A15157   1.215   4.805   6.622  0.5949 -1.4511  1.5305
  139OSM   H12B15158   1.143   4.940   6.670  2.9574 -0.4706 -2.2563
  139OSM    C1115159   1.000   4.812   6.586  0.0145 -0.0293  0.5326
  139OSM   H11A15160   1.013   4.867   6.491  1.4713 -2.8739 -1.0326
  139OSM   H11B15161   0.917   4.849   6.651  2.9769  4.9062  1.9943
  139OSM      P15162   1.056   4.598   6.442  0.4616 -0.2960 -0.5188
  139OSM    O1315163   1.197   4.613   6.479 -0.1326 -0.1468 -0.7474
  139OSM    O1415164   1.007   4.457   6.437  0.0851  0.0636  0.2168
  139OSM    O1115165   1.032   4.655   6.301 -0.0299 -0.0007 -0.1024
  139OSM    O1215166   0.965   4.682   6.546 -0.1537 -0.4769  0.4397
  139OSM    C1S15167   0.913   4.708   6.248 -0.7482 -0.4650  0.1851
  139OSM    H1S15168   0.882   4.806   6.290 -1.7393  0.2228 -1.9780
  139OSM    H1T15169   0.830   4.638   6.268 -0.6010 -0.2207  1.7713
  139OSM     NF15170   0.798   4.811   6.044  0.3263 -0.1230  0.5281
  139OSM    HNF15171   0.726   4.757   6.002  3.2698 -2.2818 -2.1875
  139OSM    C2S15172   0.914   4.740   6.094 -1.2470 -0.0213 -0.1859
  139OSM    H2S15173   0.999   4.811   6.087 -1.6529  0.6348  1.2861
  139OSM    C3S15174   0.953   4.617   6.005 -0.1592 -0.4024 -1.2616
  139OSM    H3S15175   0.875   4.539   5.993  0.6222 -1.1221 -1.6871
  139OSM     O315176   1.077   4.556   6.047  0.0567  0.0281 -0.1642
  139OSM    HO315177   1.084   4.580   6.140 -3.5718 -0.0034  0.2453
  139OSM    C4S15178   0.961   4.658   5.856  0.3213  0.0031 -0.3031
  139OSM    H4S15179   0.861   4.661   5.809 -0.0443 -2.1497  0.2545
  139OSM    C5S15180   1.069   4.700   5.788  0.6006 -0.8820  1.1883
  139OSM    H5S15181   1.165   4.716   5.839 -1.0561  1.2686  3.8537
  139OSM    C6S15182   1.074   4.722   5.635 -0.6422  0.4097 -0.1910
  139OSM    H6S15183   1.129   4.814   5.605 -0.8596  0.7673  0.5012
  139OSM    H6T15184   0.974   4.739   5.590 -1.9411 -1.0578  1.9297
  139OSM    C7S15185   1.134   4.596   5.553  0.4163 -0.2059 -1.0748
  139OSM    H7S15186   1.074   4.507   5.583  0.2280  0.4224  0.5553
  139OSM    H7T15187   1.240   4.575   5.576  0.5593 -0.1712 -1.6950
  139OSM    C8S15188   1.105   4.610   5.402 -0.2552  0.1374  0.3871
  139OSM    H8S15189   1.147   4.701   5.354  0.3420 -0.3521 -0.0337
  139OSM    H8T15190   0.994   4.618   5.394 -0.5583 -2.7299  0.7737
  139OSM    C9S15191   1.165   4.488   5.336 -1.2045  0.1494  0.0632
  139OSM    H9S15192   1.118   4.402   5.388 -1.5020  1.2679  1.7142
  139OSM    H9T15193   1.271   4.480   5.369 -1.2190  1.5260  0.4663
  139OSM   C10S15194   1.175   4.494   5.182 -0.5296 -0.0221  1.0219
  139OSM   H10S15195   1.252   4.424   5.144 -0.7442  0.9744 -1.4130
  139OSM   H10T15196   1.213   4.593   5.148  0.6567 -1.7078 -3.2342
  139OSM   C11S15197   1.047   4.454   5.112  0.2242  0.0857  0.2880
  139OSM   H11S15198   0.961   4.519   5.137  0.3386 -0.1179  1.2896
  139OSM   H11T15199   1.021   4.360   5.166  2.0145  0.4550  1.9256
  139OSM   C12S15200   1.060   4.434   4.957 -0.0162 -0.3956  0.1233
  139OSM   H12S15201   0.983   4.366   4.914 -0.4447 -1.0386  1.8190
  139OSM   H12T15202   1.153   4.380   4.930 -0.1802 -1.2543  1.1976
  139OSM   C13S15203   1.058   4.566   4.887 -0.1491  0.2131  0.4327
  139OSM   H13S15204   1.137   4.636   4.922 -0.9498  1.3432  0.0620
  139OSM   H13T15205   0.970   4.631   4.907 -1.2417 -1.7103  2.1902
  139OSM   C14S15206   1.077   4.557   4.731 -0.0533  0.0893 -0.2829
  139OSM   H14S15207   1.032   4.468   4.683  1.3817  0.2936 -2.1199
  139OSM   H14T15208   1.185   4.537   4.718 -0.2892 -2.0365  0.5104
  139OSM   C15S15209   1.048   4.690   4.663 -0.4998  0.6336  0.0711
  139OSM   H15S15210   1.119   4.767   4.700 -1.8058  2.2991 -0.7147
  139OSM   H15T15211   0.947   4.729   4.689 -0.7217  0.7927 -0.9738
  139OSM   C16S15212   1.068   4.671   4.510  0.3957 -0.9888  0.6437
  139OSM   H16S15213   0.987   4.615   4.459  0.4925  0.6031 -1.3839
  139OSM   H16T15214   1.166   4.621   4.498  0.7687  0.1559 -1.6668
  139OSM   C17S15215   1.065   4.812   4.444 -0.0040  0.1656 -0.5189
  139OSM   H17S15216   1.105   4.889   4.514 -2.3167  0.2407  0.7996
  139OSM   H17T15217   0.959   4.838   4.426  0.0988  0.3940 -0.8247
  139OSM   C18S15218   1.130   4.822   4.303 -0.9278 -0.3711  0.1543
  139OSM   H18S15219   1.232   4.780   4.296 -1.2155 -1.1276  0.4526
  139OSM   H18T15220   1.129   4.932   4.282  2.1879  0.1910  2.3189
  139OSM   H18U15221   1.076   4.758   4.230 -0.3374 -1.1622  0.3960
  139OSM    C1F15222   0.783   4.938   6.060  0.7461 -0.7481 -0.5447
  139OSM     OF15223   0.866   5.004   6.123 -0.2526 -0.7287 -0.5731
  139OSM    C2F15224   0.651   5.002   6.027  0.6343  0.5098 -0.1320
  139OSM    H2F15225   0.607   5.045   6.120 -0.4026 -1.8697  0.5718
  139OSM    H2G15226   0.585   4.924   5.983  2.5565 -1.7723  0.7793
  139OSM    C3F15227   0.659   5.117   5.928  0.5501  0.0995 -0.3812
  139OSM    H3F15228   0.734   5.188   5.971 -1.5766  0.9411  2.2152
  139OSM    H3G15229   0.563   5.172   5.936 -1.1895 -2.6265 -1.4141
  139OSM    C4F15230   0.710   5.091   5.790  0.0391 -0.3901  0.4771
  139OSM    H4F15231   0.644   5.016   5.742  0.3616 -1.0278  1.0115
  139OSM    H4G15232   0.812   5.048   5.790  0.4998  0.6725  0.4994
  139OSM    C5F15233   0.707   5.218   5.703 -0.4529  0.0956  0.5037
  139OSM    H5F15234   0.757   5.306   5.747  0.8777  0.9100 -2.3948
  139OSM    H5G15235   0.600   5.242   5.683  0.2424  1.1476 -2.3680
  139OSM    C6F15236   0.773   5.193   5.564 -0.5064 -0.5181 -0.6439
  139OSM    H6F15237   0.749   5.090   5.530 -2.6210  0.3114 -1.8678
  139OSM    H6G15238   0.884   5.195   5.572 -0.5713 -0.9422  0.5931
  139OSM    C7F15239   0.735   5.289   5.458  0.8569  0.0302  0.3910
  139OSM    H7F15240   0.719   5.385   5.512  1.4295  0.6897 -0.5851
  139OSM    H7G15241   0.635   5.261   5.419  1.0258  1.4602 -1.1456
  139OSM    C8F15242   0.837   5.280   5.344  0.1174 -0.3209  0.0928
  139OSM    H8F15243   0.848   5.178   5.300 -2.6823 -0.2906 -0.8739
  139OSM    H8G15244   0.935   5.311   5.387 -0.0834  1.4322 -0.6335
  139OSM    C9F15245   0.783   5.361   5.228 -0.2989  0.2838  0.8771
  139OSM    H9F15246   0.688   5.329   5.183  1.0725  1.6828 -3.6042
  139OSM   C10F15247   0.838   5.472   5.174 -0.6643 -0.0287  0.1473
  139OSM   H10F15248   0.790   5.515   5.085 -0.9412 -0.5192  0.0532
  139OSM   C11F15249   0.960   5.545   5.225  0.7243 -0.5961 -0.5785
  139OSM   H11F15250   1.012   5.483   5.302  0.4536  1.6650  1.5574
  139OSM   H11G15251   0.940   5.645   5.269  0.0796 -1.7561  1.9601
  139OSM   C12F15252   1.068   5.565   5.122 -0.3212 -0.3332 -0.1939
  139OSM   H12F15253   1.098   5.466   5.082  0.3731 -1.4547  2.9000
  139OSM   H12G15254   1.158   5.608   5.171 -0.1488  0.8841 -1.4726
  139OSM   C13F15255   1.032   5.647   4.994  0.5788  0.2823  0.1015
  139OSM   H13F15256   1.002   5.747   5.033  1.1668  0.2019  0.7919
  139OSM   H13G15257   0.941   5.596   4.956 -0.1190  1.0054  0.7593
  139OSM   C14F15258   1.136   5.642   4.881  0.5583 -0.4752 -0.0572
  139OSM   H14F15259   1.188   5.544   4.876 -0.2030 -0.9424  0.8483
  139OSM   H14G15260   1.222   5.710   4.899 -0.2312  1.2030 -2.1543
  139OSM   C15F15261   1.069   5.675   4.748 -0.8113 -0.6400  0.7759
  139OSM   H15F15262   1.003   5.764   4.753  1.3001  1.0339  0.1306
  139OSM   H15G15263   1.016   5.585   4.710 -1.3471  0.7257 -1.9812
  139OSM   C16F15264   1.180   5.694   4.641  0.7147  0.2470  0.0001
  139OSM   H16F15265   1.273   5.638   4.665  0.5896 -0.1674 -0.4769
  139OSM   H16G15266   1.220   5.798   4.642  1.2719  0.0443 -0.7878
  139OSM   C17F15267   1.144   5.645   4.497  0.0943  1.0579 -0.3029
  139OSM   H17F15268   1.133   5.534   4.502 -2.5474  1.1856 -1.4474
  139OSM   H17G15269   1.230   5.664   4.431  1.3350 -2.6346 -0.0007
  139OSM   C18F15270   1.023   5.718   4.428 -0.1527 -0.2578  0.0455
  139OSM   H18F15271   1.011   5.670   4.329 -0.0821 -0.5380  0.1729
  139OSM   H18G15272   1.046   5.826   4.440 -1.9129 -0.0785  2.4966
  139OSM   H18H15273   0.928   5.692   4.479  0.3239 -1.7492  0.2191
  140OSM      N15274   1.274   1.427   7.092  0.4708  0.0266 -0.3442
  140OSM    C1515275   1.256   1.273   7.116 -0.3103 -0.4985  1.0127
  140OSM   H15A15276   1.341   1.237   7.171  0.2601 -1.9780 -0.7095
  140OSM   H15B15277   1.256   1.225   7.019  0.6505 -1.2072  1.3372
  140OSM   H15C15278   1.162   1.254   7.166 -2.3515  0.7928 -2.0205
  140OSM    C1415279   1.259   1.499   7.226 -0.6228  0.6017 -0.1784
  140OSM   H14A15280   1.165   1.467   7.268  0.1546  0.2997  1.3957
  140OSM   H14B15281   1.274   1.605   7.214 -0.2448  0.7729  1.5102
  140OSM   H14C15282   1.348   1.473   7.280  0.0986  1.2709 -1.0169
  140OSM    C1315283   1.402   1.452   7.029 -0.2430 -0.0797 -0.3314
  140OSM   H13A15284   1.398   1.407   6.931 -0.7363  1.6938 -1.1610
  140OSM   H13B15285   1.485   1.416   7.089 -0.5478  0.5807  0.5154
  140OSM   H13C15286   1.401   1.555   6.996  1.1800 -0.1349 -0.5942
  140OSM    C1215287   1.161   1.473   7.009 -0.5725  0.2073  0.4016
  140OSM   H12A15288   1.070   1.429   7.050 -0.8138 -0.4833 -0.8294
  140OSM   H12B15289   1.166   1.434   6.909  1.7222  1.0476  0.1316
  140OSM    C1115290   1.148   1.628   6.983  0.2176  0.3169 -0.4142
  140OSM   H11A15291   1.122   1.679   7.079  0.5180  3.1480 -1.7182
  140OSM   H11B15292   1.059   1.653   6.921  0.9276  1.7076 -0.9345
  140OSM      P15293   1.285   1.704   6.780  0.0988 -0.0886 -0.0313
  140OSM    O1315294   1.171   1.784   6.719 -0.2353 -0.0600 -0.4187
  140OSM    O1415295   1.425   1.750   6.762 -0.5292  0.4208 -0.1954
  140OSM    O1115296   1.275   1.550   6.738  0.4343 -0.2304 -0.7247
  140OSM    O1215297   1.259   1.696   6.936 -0.1540 -0.3731 -0.0662
  140OSM    C1S15298   1.163   1.488   6.660  0.0706 -1.0501 -0.9214
  140OSM    H1S15299   1.082   1.563   6.646  0.6100 -0.4769 -1.0220
  140OSM    H1T15300   1.116   1.407   6.719 -0.5569  0.8607  1.3389
  140OSM     NF15301   1.099   1.423   6.431  0.5498  0.2464  0.4723
  140OSM    HNF15302   1.074   1.330   6.405 -0.7318  0.2794  1.4701
  140OSM    C2S15303   1.210   1.440   6.522 -0.0285  0.4731  0.1724
  140OSM    H2S15304   1.286   1.512   6.484  1.6765  0.0749  2.5444
  140OSM    C3S15305   1.294   1.315   6.528 -0.1840  0.4212 -0.4290
  140OSM    H3S15306   1.231   1.230   6.562  2.3154 -2.1260 -1.8358
  140OSM     O315307   1.399   1.328   6.634 -0.1171 -0.5279  0.2100
  140OSM    HO315308   1.386   1.418   6.664 -1.5136 -0.2475 -1.1351
  140OSM    C4S15309   1.348   1.278   6.391 -0.4216  0.3489  0.7536
  140OSM    H4S15310   1.297   1.200   6.331 -0.1236  0.4971  0.3001
  140OSM    C5S15311   1.460   1.331   6.333 -0.5567  0.0816 -0.0216
  140OSM    H5S15312   1.509   1.410   6.391 -2.4609  0.6256  0.9363
  140OSM    C6S15313   1.514   1.287   6.197 -0.1014 -0.0120  0.4079
  140OSM    H6S15314   1.591   1.211   6.222 -1.3678 -1.8347 -0.9328
  140OSM    H6T15315   1.553   1.374   6.141  0.7863 -1.0912 -0.7007
  140OSM    C7S15316   1.424   1.216   6.087 -0.3507  0.2334 -1.0403
  140OSM    H7S15317   1.325   1.267   6.087 -0.1648  0.5979 -0.6561
  140OSM    H7T15318   1.407   1.117   6.135 -0.0732  0.4570 -0.4762
  140OSM    C8S15319   1.474   1.209   5.943 -0.0660  0.9852 -0.4723
  140OSM    H8S15320   1.569   1.153   5.944  0.2509  1.5099 -0.8665
  140OSM    H8T15321   1.497   1.316   5.921 -0.1825  1.3412  0.9618
  140OSM    C9S15322   1.370   1.157   5.837 -0.6663  0.4957  0.3777
  140OSM    H9S15323   1.271   1.206   5.849 -0.1839  0.9403  3.4706
  140OSM    H9T15324   1.360   1.051   5.869  0.0350 -0.1458 -1.4219
  140OSM   C10S15325   1.421   1.151   5.690 -0.4751  0.6288  0.1581
  140OSM   H10S15326   1.513   1.089   5.691 -0.6609  0.2436 -1.9692
  140OSM   H10T15327   1.442   1.254   5.656 -1.0752 -0.1593 -2.8727
  140OSM   C11S15328   1.321   1.091   5.597  0.1890 -0.2877 -0.3578
  140OSM   H11S15329   1.226   1.149   5.593  0.5176  0.1902 -2.1022
  140OSM   H11T15330   1.293   0.987   5.623 -2.1571 -0.2209 -2.2577
  140OSM   C12S15331   1.353   1.098   5.448  0.0977 -0.1498  0.1743
  140OSM   H12S15332   1.270   1.042   5.399 -1.6863  3.3888 -1.3182
  140OSM   H12T15333   1.453   1.056   5.423  1.4476  2.9075 -0.0356
  140OSM   C13S15334   1.336   1.239   5.390 -0.3587 -0.3543 -0.4355
  140OSM   H13S15335   1.403   1.311   5.441 -0.9643 -1.3995  1.9868
  140OSM   H13T15336   1.229   1.261   5.410 -0.3048 -0.9100  0.5154
  140OSM   C14S15337   1.332   1.226   5.234  0.5043 -0.1294 -0.3189
  140OSM   H14S15338   1.239   1.185   5.188 -0.3405  2.1653 -0.7797
  140OSM   H14T15339   1.424   1.171   5.204 -0.8966 -2.9397  0.2030
  140OSM   C15S15340   1.362   1.362   5.164 -0.3335 -0.0577 -0.1710
  140OSM   H15S15341   1.428   1.425   5.227  0.3211  0.4788 -1.3655
  140OSM   H15T15342   1.270   1.421   5.144 -0.5587 -0.6152 -0.8367
  140OSM   C16S15343   1.426   1.335   5.024 -0.4729 -0.1221  0.1984
  140OSM   H16S15344   1.397   1.414   4.952 -2.5543 -1.0381 -0.0541
  140OSM   H16T15345   1.379   1.245   4.978 -1.2753  0.9061 -1.0903
  140OSM   C17S15346   1.581   1.323   5.025  0.1963  0.0832  0.5019
  140OSM   H17S15347   1.613   1.243   5.095  0.3664 -0.3109 -0.0203
  140OSM   H17T15348   1.623   1.420   5.057  0.1877  0.3849 -0.3793
  140OSM   C18S15349   1.644   1.284   4.893  0.2115 -0.0512  0.0427
  140OSM   H18S15350   1.673   1.378   4.841 -1.3052  0.8114  0.6755
  140OSM   H18T15351   1.576   1.228   4.826  2.0306 -1.6495 -0.5544
  140OSM   H18U15352   1.742   1.231   4.895  1.0064  1.3511  0.1287
  140OSM    C1F15353   1.031   1.526   6.378  0.2120  0.0844 -0.4194
  140OSM     OF15354   1.066   1.641   6.401 -0.2294  0.5385 -0.2821
  140OSM    C2F15355   0.913   1.497   6.284 -0.9779 -0.7003 -0.6723
  140OSM    H2F15356   0.852   1.589   6.296  0.2390 -0.1579  2.4886
  140OSM    H2G15357   0.870   1.404   6.325  2.5112 -2.3951 -0.4593
  140OSM    C3F15358   0.950   1.459   6.140  0.1797  0.3598 -1.0585
  140OSM    H3F15359   1.013   1.367   6.134  2.4451  1.7962 -0.2964
  140OSM    H3G15360   1.023   1.533   6.102  1.1601  0.8052  1.5430
  140OSM    C4F15361   0.830   1.445   6.051  0.2763 -0.4681 -0.0688
  140OSM    H4F15362   0.742   1.493   6.099 -0.6531 -1.0004 -1.1919
  140OSM    H4G15363   0.809   1.337   6.041  3.2813 -1.0619 -1.0017
  140OSM    C5F15364   0.858   1.495   5.911 -0.4783  0.5453 -0.1230
  140OSM    H5F15365   0.908   1.594   5.913  0.8908 -0.0749 -1.1749
  140OSM    H5G15366   0.766   1.507   5.851 -0.7797 -1.2534 -0.0689
  140OSM    C6F15367   0.931   1.399   5.829  0.2441 -0.7635  0.2055
  140OSM    H6F15368   0.887   1.297   5.834  1.9378 -1.5276  0.3779
  140OSM    H6G15369   1.038   1.389   5.859  0.7154  1.0440 -0.7253
  140OSM    C7F15370   0.917   1.448   5.686  0.2720  0.3626 -0.5789
  140OSM    H7F15371   0.936   1.556   5.699  0.1050  0.5153 -1.5265
  140OSM    H7G15372   0.814   1.439   5.645  0.3129 -0.0131 -0.6097
  140OSM    C8F15373   1.017   1.394   5.587 -0.8914  0.1351 -0.3050
  140OSM    H8F15374   1.108   1.364   5.642  0.1676  1.6010 -1.2135
  140OSM    H8G15375   1.052   1.474   5.518  0.5400 -0.8610 -0.7717
  140OSM    C9F15376   0.965   1.281   5.506 -1.5850 -0.2359 -0.5743
  140OSM    H9F15377   0.933   1.191   5.560  0.7626 -0.8378 -0.1005
  140OSM   C10F15378   0.965   1.263   5.369 -0.1262 -0.6122  0.0020
  140OSM   H10F15379   0.897   1.184   5.333 -1.7112  1.2639 -1.2668
  140OSM   C11F15380   0.988   1.367   5.265  1.0002  0.3433  0.6079
  140OSM   H11F15381   1.030   1.316   5.176 -0.0010 -0.5433  0.6262
  140OSM   H11G15382   1.051   1.446   5.312 -1.1315  0.6347  3.2372
  140OSM   C12F15383   0.866   1.439   5.215 -0.1413  0.7539 -0.0301
  140OSM   H12F15384   0.801   1.480   5.296 -0.5609  0.2810 -0.1204
  140OSM   H12G15385   0.813   1.362   5.155 -1.4883  1.3646  0.3153
  140OSM   C13F15386   0.896   1.553   5.115 -0.3927 -0.5863  0.4940
  140OSM   H13F15387   0.948   1.635   5.170 -0.5218 -1.0010  1.2592
  140OSM   H13G15388   0.802   1.601   5.084 -0.0026 -0.2299 -0.1414
  140OSM   C14F15389   0.973   1.510   4.991  0.4126  0.1967  0.3927
  140OSM   H14F15390   0.932   1.418   4.943  0.6625 -0.3320  1.1779
  140OSM   H14G15391   1.074   1.474   5.021  0.2697 -1.3592 -0.8471
  140OSM   C15F15392   0.977   1.622   4.884  0.1711 -0.4588 -0.4286
  140OSM   H15F15393   1.002   1.717   4.935 -2.2303 -1.0821  2.1511
  140OSM   H15G15394   0.878   1.639   4.839  1.0189 -1.6820 -2.9202
  140OSM   C16F15395   1.091   1.618   4.783  1.0498  0.0459  0.3037
  140OSM   H16F15396   1.189   1.614   4.836  0.5112  2.2108  1.5950
  140OSM   H16G15397   1.090   1.718   4.734  2.1899  0.1791  0.5218
  140OSM   C17F15398   1.077   1.527   4.658 -0.2707  0.3524 -0.4577
  140OSM   H17F15399   1.003   1.446   4.678 -1.0859  1.3481  0.6336
  140OSM   H17G15400   1.174   1.474   4.644  0.5512  1.3296  1.2490
  140OSM   C18F15401   1.020   1.590   4.525 -0.2674 -0.0709  0.1133
  140OSM   H18F15402   1.005   1.520   4.440 -0.4381 -1.4113  1.2140
  140OSM   H18G15403   1.082   1.677   4.493  0.3290 -0.8721 -0.9658
  140OSM   H18H15404   0.921   1.624   4.562 -1.0450 -0.9095 -1.1160
  141OSM      N15405   2.601   6.892   6.924  0.2314  0.2966  0.5317
  141OSM    C1515406   2.676   7.016   6.951  0.4925 -0.3897 -0.2481
  141OSM   H15A15407   2.736   7.026   6.862  1.8287 -0.6084  0.6055
  141OSM   H15B15408   2.748   7.002   7.030 -0.6985 -2.5682  0.5517
  141OSM   H15C15409   2.619   7.107   6.945 -0.4801 -1.0501 -1.6715
  141OSM    C1415410   2.695   6.773   6.909 -0.7984  0.2674 -0.5718
  141OSM   H14A15411   2.769   6.802   6.836  2.3598 -0.9381  1.9105
  141OSM   H14B15412   2.639   6.684   6.881 -4.4578  2.6764 -1.5806
  141OSM   H14C15413   2.748   6.762   7.003  2.6248  1.4794 -2.1793
  141OSM    C1315414   2.497   6.862   7.029 -0.1774  0.4812 -0.1832
  141OSM   H13A15415   2.432   6.940   7.066  0.1541  0.4629  0.4426
  141OSM   H13B15416   2.547   6.824   7.117 -3.6498 -1.3786  1.1956
  141OSM   H13C15417   2.438   6.777   6.996  0.1341  0.0899  0.2747
  141OSM    C1215418   2.523   6.916   6.796 -0.0600 -1.0559 -0.3094
  141OSM   H12A15419   2.454   6.997   6.817  0.8680 -0.2712 -0.2006
  141OSM   H12B15420   2.459   6.831   6.780 -3.1207  0.7917  1.2311
  141OSM    C1115421   2.597   6.959   6.666  0.7297 -0.0257  0.2274
  141OSM   H11A15422   2.627   7.063   6.692  0.3214 -0.0359  0.7500
  141OSM   H11B15423   2.518   6.947   6.590 -0.9324  2.4439  1.4059
  141OSM      P15424   2.838   6.908   6.562  0.1976 -0.2502  0.2793
  141OSM    O1315425   2.919   6.972   6.668  0.0704  0.0611  0.7500
  141OSM    O1415426   2.904   6.794   6.503  0.4866  0.5111 -0.3205
  141OSM    O1115427   2.810   7.009   6.453  0.1414  0.2424  0.4522
  141OSM    O1215428   2.704   6.879   6.626 -0.0525  0.1165  0.5253
  141OSM    C1S15429   2.685   7.015   6.386  0.0290  0.0894  0.4263
  141OSM    H1S15430   2.639   7.106   6.429  1.6496  1.9883 -1.5820
  141OSM    H1T15431   2.611   6.933   6.392 -1.8303  1.5429 -1.0680
  141OSM     NF15432   2.586   7.122   6.188 -0.2748 -0.3820  0.0234
  141OSM    HNF15433   2.508   7.076   6.145  0.4361 -1.0407 -0.5776
  141OSM    C2S15434   2.698   7.043   6.233  0.4033 -0.2982  0.5356
  141OSM    H2S15435   2.788   7.104   6.211 -0.6947  1.6236  1.2130
  141OSM    C3S15436   2.716   6.907   6.153  0.1790 -0.9128 -0.5993
  141OSM    H3S15437   2.625   6.844   6.156 -0.0745 -0.5892 -1.2784
  141OSM     O315438   2.819   6.824   6.209  0.2981 -0.3374 -0.0070
  141OSM    HO315439   2.826   6.864   6.296 -0.7250 -1.7029  0.7510
  141OSM    C4S15440   2.743   6.939   6.011  0.4455 -0.1804 -0.3609
  141OSM    H4S15441   2.827   7.006   5.987  0.5100 -0.8864 -2.2905
  141OSM    C5S15442   2.659   6.906   5.907 -0.1708 -0.0434 -0.1350
  141OSM    H5S15443   2.559   6.873   5.936 -0.1800  0.6139  0.6143
  141OSM    C6S15444   2.662   6.943   5.761 -0.2206 -0.0077  0.9684
  141OSM    H6S15445   2.766   6.946   5.722 -0.6472 -1.6387 -0.4017
  141OSM    H6T15446   2.619   7.044   5.748 -0.0922 -0.2783 -2.6777
  141OSM    C7S15447   2.576   6.858   5.661 -0.4690 -0.7204  0.5167
  141OSM    H7S15448   2.468   6.856   5.687 -0.5223  1.1447  0.5591
  141OSM    H7T15449   2.621   6.756   5.663 -2.0898 -1.6405 -2.6261
  141OSM    C8S15450   2.592   6.900   5.515  0.3882  0.2299 -0.0955
  141OSM    H8S15451   2.698   6.884   5.485  1.3061  2.0350  1.8987
  141OSM    H8T15452   2.569   7.008   5.503  3.0450  0.8932  0.1174
  141OSM    C9S15453   2.506   6.810   5.420 -0.0946 -1.0887 -0.0078
  141OSM    H9S15454   2.401   6.846   5.427  0.2484 -0.1997  0.8322
  141OSM    H9T15455   2.484   6.706   5.450 -2.7127 -0.3624  0.8731
  141OSM   C10S15456   2.555   6.815   5.274 -0.4711  0.5332  0.1085
  141OSM   H10S15457   2.665   6.804   5.266 -0.6712 -0.4967 -2.0206
  141OSM   H10T15458   2.538   6.919   5.237  0.4318  0.2068 -1.3173
  141OSM   C11S15459   2.491   6.703   5.189  0.6851  0.1125 -0.4547
  141OSM   H11S15460   2.388   6.736   5.163 -0.0896  0.8162  2.9251
  141OSM   H11T15461   2.484   6.609   5.248 -0.0155  0.5348  0.1674
  141OSM   C12S15462   2.565   6.671   5.054 -0.2011 -0.9141  0.2743
  141OSM   H12S15463   2.525   6.582   5.001 -1.7689  0.3850 -0.7997
  141OSM   H12T15464   2.666   6.647   5.093  0.9514 -0.3352 -2.1618
  141OSM   C13S15465   2.580   6.785   4.953  0.9705  0.0362 -0.4432
  141OSM   H13S15466   2.627   6.877   4.996 -1.8592  0.8319  1.2265
  141OSM   H13T15467   2.484   6.804   4.901 -0.0595  1.8021  1.9175
  141OSM   C14S15468   2.682   6.758   4.841 -0.3322 -0.8490 -0.0885
  141OSM   H14S15469   2.782   6.749   4.889 -0.4391  0.9783  0.5353
  141OSM   H14T15470   2.695   6.848   4.777  0.4674 -1.6585 -1.1207
  141OSM   C15S15471   2.660   6.632   4.754 -0.4633  0.0562 -0.0031
  141OSM   H15S15472   2.564   6.664   4.709 -0.4697 -0.4161 -0.3279
  141OSM   H15T15473   2.630   6.554   4.828  0.9707  0.0636  0.6188
  141OSM   C16S15474   2.771   6.612   4.655 -0.0329 -0.3315  0.1900
  141OSM   H16S15475   2.863   6.598   4.716  0.3212  0.4591 -0.1448
  141OSM   H16T15476   2.793   6.703   4.595  0.2764 -0.1883  0.5099
  141OSM   C17S15477   2.740   6.492   4.570 -0.6001  0.6264 -0.1080
  141OSM   H17S15478   2.669   6.432   4.631 -0.1446  2.1882  2.0894
  141OSM   H17T15479   2.831   6.440   4.533 -0.7993  1.6464 -2.2127
  141OSM   C18S15480   2.662   6.530   4.443  0.5307 -0.0546 -0.1758
  141OSM   H18S15481   2.629   6.440   4.387 -1.9352  0.4399  0.3852
  141OSM   H18T15482   2.737   6.578   4.377  0.9695  0.5086  0.7017
  141OSM   H18U15483   2.572   6.589   4.471  0.2633 -0.9078  0.8213
  141OSM    C1F15484   2.571   7.251   6.221  0.1820 -0.1021 -0.2242
  141OSM     OF15485   2.649   7.304   6.298  0.2563 -0.2707  0.4966
  141OSM    C2F15486   2.440   7.313   6.176  0.1286  0.3681 -0.4394
  141OSM    H2F15487   2.373   7.321   6.264  1.0719  2.0005  0.1724
  141OSM    H2G15488   2.388   7.256   6.097 -1.8517  0.5637  0.6668
  141OSM    C3F15489   2.471   7.445   6.095 -0.2888 -0.4229  0.2689
  141OSM    H3F15490   2.529   7.517   6.156 -0.1791  0.0978 -0.4324
  141OSM    H3G15491   2.369   7.486   6.080 -1.2546 -2.1695  1.7004
  141OSM    C4F15492   2.545   7.423   5.961  1.0229 -0.3614  1.0891
  141OSM    H4F15493   2.631   7.355   5.976 -0.2226 -1.8474  1.8195
  141OSM    H4G15494   2.583   7.523   5.933 -0.5393  0.0017  0.1125
  141OSM    C5F15495   2.443   7.379   5.847 -0.2965 -0.2916  0.7993
  141OSM    H5F15496   2.357   7.450   5.848  0.1384  0.2985 -0.8313
  141OSM    H5G15497   2.400   7.278   5.860  0.3926 -0.7011 -0.0710
  141OSM    C6F15498   2.516   7.381   5.710 -0.9518  0.1442 -0.8161
  141OSM    H6F15499   2.571   7.286   5.703  0.4003  0.9712 -1.8044
  141OSM    H6G15500   2.588   7.465   5.696  1.7298 -1.9433 -0.3098
  141OSM    C7F15501   2.420   7.386   5.596 -0.0981  0.1160 -0.0373
  141OSM    H7F15502   2.351   7.473   5.597 -0.0150  0.2305 -1.4229
  141OSM    H7G15503   2.350   7.301   5.601 -1.7042  1.4707  2.3727
  141OSM    C8F15504   2.483   7.409   5.453  0.9792 -0.1275  0.1026
  141OSM    H8F15505   2.532   7.312   5.431  1.2052  0.5149 -2.5779
  141OSM    H8G15506   2.562   7.487   5.450  1.3993 -0.5088  0.8420
  141OSM    C9F15507   2.384   7.431   5.341  0.5000 -0.6795  0.2432
  141OSM    H9F15508   2.353   7.537   5.343  1.3080 -0.3828 -1.4288
  141OSM   C10F15509   2.340   7.354   5.242  0.2379 -0.8003  0.3030
  141OSM   H10F15510   2.261   7.412   5.193  0.1431 -0.6291  0.6522
  141OSM   C11F15511   2.376   7.211   5.192  0.4069 -0.1087 -0.3336
  141OSM   H11F15512   2.335   7.131   5.257 -3.2820  0.1947 -2.0299
  141OSM   H11G15513   2.486   7.202   5.177  0.3784  1.9076 -2.2050
  141OSM   C12F15514   2.305   7.190   5.065  0.3684  0.1501  0.3198
  141OSM   H12F15515   2.347   7.262   4.990  0.7339  0.4112  0.7692
  141OSM   H12G15516   2.197   7.207   5.086  0.3910 -0.9403  1.4334
  141OSM   C13F15517   2.313   7.048   5.015 -0.3753  0.1780  0.2544
  141OSM   H13F15518   2.279   6.984   5.099 -0.3728 -1.1186 -0.6894
  141OSM   H13G15519   2.415   7.030   4.975 -0.4799  1.1631 -0.4826
  141OSM   C14F15520   2.219   7.043   4.895 -0.4029  0.1506 -0.4196
  141OSM   H14F15521   2.262   6.978   4.816 -0.0265  0.9182 -0.8658
  141OSM   H14G15522   2.209   7.142   4.844 -1.9041  0.1088 -0.2428
  141OSM   C15F15523   2.067   6.995   4.921 -0.2760  0.3548 -0.2440
  141OSM   H15F15524   2.008   7.066   4.983  1.2885 -0.0930  1.8903
  141OSM   H15G15525   2.079   6.898   4.973  2.0421  0.0380 -1.2670
  141OSM   C16F15526   1.986   6.983   4.791  0.2979  0.8086  0.9153
  141OSM   H16F15527   2.023   6.898   4.730  0.0751 -0.1148  2.0517
  141OSM   H16G15528   1.997   7.074   4.727  2.4912  0.2465  0.4012
  141OSM   C17F15529   1.839   6.962   4.831 -0.1128  0.4039  0.5946
  141OSM   H17F15530   1.799   7.052   4.883  1.4574  1.5739 -0.1307
  141OSM   H17G15531   1.845   6.877   4.902  1.3018 -0.0500 -0.0246
  141OSM   C18F15532   1.750   6.907   4.724 -0.4048  0.0005 -0.1121
  141OSM   H18F15533   1.738   6.980   4.641  1.6424 -0.3220 -0.7582
  141OSM   H18G15534   1.644   6.897   4.756 -0.5376  2.3569  0.3302
  141OSM   H18H15535   1.778   6.805   4.690 -1.8668 -0.1484 -0.9776
  142OSM      N15536   2.983   5.256   6.371 -0.6212  0.5846  0.1897
  142OSM    C1515537   3.044   5.291   6.498 -0.5787  0.5506 -0.3915
  142OSM   H15A15538   3.007   5.220   6.571  1.5420 -0.0773  0.1443
  142OSM   H15B15539   3.006   5.385   6.535 -2.2742 -0.7607  1.4525
  142OSM   H15C15540   3.152   5.289   6.501 -0.4711  3.1872  1.6715
  142OSM    C1415541   3.013   5.363   6.272 -0.5855  0.3861  0.1841
  142OSM   H14A15542   2.990   5.465   6.300  0.9459  1.2016 -1.2749
  142OSM   H14B15543   2.966   5.351   6.175 -0.4786  0.0270  0.1741
  142OSM   H14C15544   3.116   5.366   6.240 -1.2243  0.8225 -2.0275
  142OSM    C1315545   3.038   5.130   6.326  0.0872  0.3137  0.7262
  142OSM   H13A15546   3.031   5.058   6.406  0.6691  0.2824  0.7572
  142OSM   H13B15547   3.145   5.139   6.311  0.2094 -1.6642  0.1299
  142OSM   H13C15548   2.985   5.091   6.241 -0.1187 -1.5052  1.6451
  142OSM    C1215549   2.830   5.244   6.387 -0.4378  0.2450  0.1774
  142OSM   H12A15550   2.805   5.152   6.438 -2.4385  0.3149 -0.5621
  142OSM   H12B15551   2.787   5.216   6.292  0.5933  1.0194 -0.5425
  142OSM    C1115552   2.748   5.365   6.434 -0.3041 -0.3861 -0.5846
  142OSM   H11A15553   2.771   5.440   6.356  1.9118 -0.8489 -0.4258
  142OSM   H11B15554   2.784   5.398   6.534 -0.5352  0.7942 -0.8818
  142OSM      P15555   2.524   5.311   6.302 -0.2334 -0.2240  0.1227
  142OSM    O1315556   2.394   5.246   6.335 -0.2256  0.5523 -0.0411
  142OSM    O1415557   2.518   5.448   6.250  0.2933  0.1714 -0.1613
  142OSM    O1115558   2.610   5.227   6.200  0.3401 -0.2074 -0.2484
  142OSM    O1215559   2.610   5.328   6.432 -0.1150 -0.2338 -1.1886
  142OSM    C1S15560   2.556   5.097   6.161 -0.3256 -0.0225 -0.5384
  142OSM    H1S15561   2.448   5.082   6.177 -0.0857 -0.7551  0.4632
  142OSM    H1T15562   2.610   5.009   6.203 -0.9906 -1.2293 -2.0870
  142OSM     NF15563   2.490   4.980   5.961 -0.3907  0.6438  0.1933
  142OSM    HNF15564   2.517   4.884   5.968  0.9397  1.0475  0.8525
  142OSM    C2S15565   2.582   5.077   6.010 -1.1619 -0.3487  0.1912
  142OSM    H2S15566   2.555   5.173   5.962 -2.5718 -0.2217  1.1606
  142OSM    C3S15567   2.729   5.045   5.979  0.0814  0.0613  0.1933
  142OSM    H3S15568   2.767   4.961   6.041  1.5969  1.3258  1.0401
  142OSM     O315569   2.819   5.147   6.023 -0.7072  0.6996  0.3777
  142OSM    HO315570   2.774   5.198   6.090 -0.4243  1.4587  0.0152
  142OSM    C4S15571   2.755   5.021   5.833  0.3397 -0.2427  0.1003
  142OSM    H4S15572   2.762   5.113   5.774 -0.6411  0.5401  1.1693
  142OSM    C5S15573   2.770   4.897   5.771 -0.0604 -0.4218 -0.6481
  142OSM    H5S15574   2.774   4.809   5.836 -1.0745  0.1082  0.1583
  142OSM    C6S15575   2.795   4.874   5.626 -0.0941  0.3778  0.2485
  142OSM    H6S15576   2.714   4.804   5.597  0.3852 -0.2687  0.4250
  142OSM    H6T15577   2.897   4.834   5.605  0.7401  2.5757 -0.1499
  142OSM    C7S15578   2.784   4.996   5.535 -0.2938  0.0288  0.2956
  142OSM    H7S15579   2.855   5.070   5.576  0.1645 -0.1641 -0.1347
  142OSM    H7T15580   2.681   5.036   5.524 -0.1332 -0.0579 -1.9418
  142OSM    C8S15581   2.833   4.971   5.389  0.3550  0.1981  0.4624
  142OSM    H8S15582   2.800   5.050   5.318 -0.4597  1.8005  2.5190
  142OSM    H8T15583   2.772   4.886   5.350 -1.1538  1.8590 -0.9974
  142OSM    C9S15584   2.981   4.952   5.356 -0.0043  0.0740  0.9577
  142OSM    H9S15585   3.017   4.862   5.410 -1.2721 -1.4323 -0.5880
  142OSM    H9T15586   3.024   5.042   5.405 -3.1669  1.8481  0.7701
  142OSM   C10S15587   3.001   4.946   5.205  0.3965  0.0872  0.7701
  142OSM   H10S15588   2.953   5.036   5.161 -0.3965  0.1856  1.7961
  142OSM   H10T15589   2.942   4.856   5.177  0.3859  0.0435  0.9278
  142OSM   C11S15590   3.145   4.929   5.157 -0.1554  0.6773 -0.3879
  142OSM   H11S15591   3.192   4.844   5.211 -0.6709 -0.4424 -1.6605
  142OSM   H11T15592   3.203   5.023   5.175  1.3066 -0.3126  0.3128
  142OSM   C12S15593   3.129   4.884   5.014 -0.4597  0.2224 -0.0901
  142OSM   H12S15594   3.066   4.962   4.966 -0.3656 -0.1655 -0.8529
  142OSM   H12T15595   3.064   4.794   5.013  0.1574 -0.2327 -0.1330
  142OSM   C13S15596   3.270   4.860   4.950 -0.2266 -0.1398 -0.4782
  142OSM   H13S15597   3.301   4.761   4.990 -1.4033 -1.0986 -1.8475
  142OSM   H13T15598   3.347   4.934   4.979  0.3318 -0.6260 -0.7065
  142OSM   C14S15599   3.262   4.855   4.794 -0.1767 -0.4535  0.6947
  142OSM   H14S15600   3.203   4.942   4.757 -0.8665 -0.9578  0.5956
  142OSM   H14T15601   3.213   4.760   4.766  2.2244 -1.7536  0.6375
  142OSM   C15S15602   3.395   4.863   4.724 -0.3427  0.0769 -0.2537
  142OSM   H15S15603   3.464   4.788   4.769  0.4153  1.1455  0.4189
  142OSM   H15T15604   3.441   4.961   4.749 -1.3392  0.3134  0.7014
  142OSM   C16S15605   3.377   4.837   4.576 -1.2332  0.1759 -0.0143
  142OSM   H16S15606   3.321   4.742   4.562 -0.6928 -0.0987 -0.3389
  142OSM   H16T15607   3.474   4.823   4.524 -0.6986 -0.7622  1.2121
  142OSM   C17S15608   3.302   4.953   4.495 -0.1494 -0.3052 -0.3595
  142OSM   H17S15609   3.350   5.043   4.538  0.3206 -1.0993  0.8498
  142OSM   H17T15610   3.194   4.968   4.515  0.4863  0.6093  2.9813
  142OSM   C18S15611   3.336   4.953   4.348 -0.1069  0.0001 -0.1150
  142OSM   H18S15612   3.259   4.889   4.299 -1.2512  0.3291  1.2017
  142OSM   H18T15613   3.433   4.901   4.328  0.6676  0.5162  2.0392
  142OSM   H18U15614   3.332   5.056   4.306 -0.4260 -0.4744 -1.3062
  142OSM    C1F15615   2.356   5.003   5.946 -0.1576 -0.4944 -0.0499
  142OSM     OF15616   2.306   5.111   5.974  0.2459  0.3596  0.2989
  142OSM    C2F15617   2.274   4.897   5.885 -0.0849  0.5829  0.1454
  142OSM    H2F15618   2.184   4.876   5.947  0.6024 -1.9577  0.4294
  142OSM    H2G15619   2.338   4.806   5.876 -0.5157  0.3741 -0.9058
  142OSM    C3F15620   2.225   4.939   5.745 -0.2667 -0.2741 -0.4352
  142OSM    H3F15621   2.163   5.031   5.741 -1.8407 -1.3249 -0.9400
  142OSM    H3G15622   2.163   4.860   5.698 -0.6799  0.5784 -1.3499
  142OSM    C4F15623   2.343   4.959   5.644 -0.3745  0.3704 -1.0434
  142OSM    H4F15624   2.410   4.871   5.653 -0.5673  0.1255 -1.8988
  142OSM    H4G15625   2.400   5.052   5.664  0.4447  0.7613 -4.5879
  142OSM    C5F15626   2.287   4.975   5.503  0.3275  0.1339 -0.6934
  142OSM    H5F15627   2.232   5.071   5.504  2.4117  1.3751 -0.4720
  142OSM    H5G15628   2.229   4.883   5.479  1.1912  0.0808 -2.7131
  142OSM    C6F15629   2.393   4.984   5.389 -0.6279 -1.0041  0.1368
  142OSM    H6F15630   2.480   4.915   5.397  1.8887  1.7590 -1.2387
  142OSM    H6G15631   2.434   5.087   5.388 -1.6087 -0.5927  0.8339
  142OSM    C7F15632   2.321   4.958   5.257 -0.1885 -0.2523 -0.9127
  142OSM    H7F15633   2.223   5.009   5.254 -0.3612 -0.6029 -1.4672
  142OSM    H7G15634   2.292   4.850   5.257 -0.7173 -0.1740  1.5230
  142OSM    C8F15635   2.399   4.987   5.119  0.0296  0.5462  0.2518
  142OSM    H8F15636   2.394   5.098   5.107  1.0092  0.3413 -2.8486
  142OSM    H8G15637   2.338   4.952   5.032  0.0446 -0.1609  0.5206
  142OSM    C9F15638   2.541   4.946   5.121 -0.3070  0.3089  0.4050
  142OSM    H9F15639   2.604   5.015   5.178 -1.1695 -0.9560  3.0577
  142OSM   C10F15640   2.602   4.854   5.042  0.1126 -0.7616 -0.6328
  142OSM   H10F15641   2.711   4.849   5.049  0.1653  1.1495  0.5828
  142OSM   C11F15642   2.553   4.757   4.945  0.4174  0.3739 -0.2896
  142OSM   H11F15643   2.451   4.785   4.910  0.3512  1.0552  0.4256
  142OSM   H11G15644   2.545   4.650   4.974  0.4170  0.2695 -0.6652
  142OSM   C12F15645   2.645   4.751   4.819 -1.0329  0.0589  0.4468
  142OSM   H12F15646   2.650   4.853   4.776  1.6127  0.7815  2.2302
  142OSM   H12G15647   2.602   4.678   4.747  0.4535 -0.3835 -0.0308
  142OSM   C13F15648   2.791   4.699   4.834  0.0278 -0.2503  0.1063
  142OSM   H13F15649   2.814   4.674   4.940  1.5654  1.2263  0.1622
  142OSM   H13G15650   2.855   4.785   4.804 -0.7695  0.0909 -0.6467
  142OSM   C14F15651   2.815   4.579   4.746 -0.2453 -0.6344 -0.7578
  142OSM   H14F15652   2.770   4.606   4.648  0.9650 -2.0588 -1.7580
  142OSM   H14G15653   2.766   4.488   4.785 -1.2774  0.5854  0.9292
  142OSM   C15F15654   2.962   4.555   4.710  0.5267  0.3745 -0.4854
  142OSM   H15F15655   3.023   4.516   4.794  0.8723  1.1976 -0.3485
  142OSM   H15G15656   3.031   4.633   4.671  0.0946  0.2951 -1.4656
  142OSM   C16F15657   2.975   4.427   4.611  0.3123  0.0597 -0.0142
  142OSM   H16F15658   3.074   4.439   4.561  1.0214  1.9643  1.6708
  142OSM   H16G15659   2.901   4.432   4.529  0.6605 -0.4330 -0.3605
  142OSM   C17F15660   2.950   4.294   4.677 -0.2550 -0.0179  0.4043
  142OSM   H17F15661   2.849   4.281   4.722 -0.2584  0.6067  0.5878
  142OSM   H17G15662   3.027   4.288   4.757  0.3243  0.8193 -0.0807
  142OSM   C18F15663   2.976   4.179   4.584  0.9521  0.1481 -0.4975
  142OSM   H18F15664   2.903   4.187   4.501  0.2401 -5.2814 -0.7479
  142OSM   H18G15665   2.953   4.083   4.636  2.7401  0.4261  0.9394
  142OSM   H18H15666   3.078   4.172   4.542  2.2249 -0.9035  2.4663
  143OSM      N15667   2.869   2.804   7.045  0.3544 -0.1821 -0.1947
  143OSM    C1515668   2.791   2.696   6.984  0.1756 -0.1896 -0.2019
  143OSM   H15A15669   2.688   2.724   6.963  0.2282  0.8423  0.7853
  143OSM   H15B15670   2.787   2.609   7.047 -1.0537 -1.1070 -1.4849
  143OSM   H15C15671   2.840   2.678   6.890 -0.3641  1.3062 -0.8040
  143OSM    C1415672   2.803   2.839   7.173 -0.8035  0.1933  0.2554
  143OSM   H14A15673   2.874   2.885   7.240  0.6956 -2.4545  0.6184
  143OSM   H14B15674   2.769   2.750   7.223 -4.6684  1.3029 -0.0984
  143OSM   H14C15675   2.721   2.907   7.156 -1.3064 -0.2188  1.0005
  143OSM    C1315676   3.013   2.761   7.059  0.3364  0.1432  0.9296
  143OSM   H13A15677   3.026   2.654   7.072  0.4732 -0.0541 -0.6365
  143OSM   H13B15678   3.064   2.819   7.134 -1.1264  0.6004  1.6170
  143OSM   H13C15679   3.067   2.774   6.967 -0.1057 -2.3409  0.2385
  143OSM    C1215680   2.859   2.929   6.966 -1.1147 -0.6302 -0.2290
  143OSM   H12A15681   2.924   3.003   7.011 -0.5198 -0.3292 -1.5355
  143OSM   H12B15682   2.763   2.977   6.978  0.5082  2.6688  0.8943
  143OSM    C1115683   2.875   2.913   6.813 -0.4846 -0.5096  0.7350
  143OSM   H11A15684   2.861   3.015   6.770  2.3065 -0.3446  0.0264
  143OSM   H11B15685   2.796   2.849   6.766  0.5160 -0.4989 -1.0660
  143OSM      P15686   3.111   2.976   6.744 -0.3345  0.0662  0.1427
  143OSM    O1315687   3.101   3.103   6.828  0.1621  0.3173 -0.3755
  143OSM    O1415688   3.243   2.913   6.746 -0.3744  0.1068  0.4305
  143OSM    O1115689   3.066   3.007   6.596  0.2897 -0.0461  0.1995
  143OSM    O1215690   3.009   2.864   6.785  0.1016 -0.2164  0.4784
  143OSM    C1S15691   3.089   2.913   6.487 -0.0686  0.4349 -1.2820
  143OSM    H1S15692   3.024   2.824   6.496 -0.7792  1.0152 -0.5332
  143OSM    H1T15693   3.195   2.880   6.481 -0.1225 -0.4079  1.3079
  143OSM     NF15694   3.020   2.879   6.259  0.6781  0.1408 -0.7681
  143OSM    HNF15695   3.097   2.844   6.206  0.8159  2.4406 -2.2263
  143OSM    C2S15696   3.050   2.985   6.357 -0.4443 -0.4430  0.3434
  143OSM    H2S15697   2.958   3.046   6.373 -0.9899 -0.8601 -1.1115
  143OSM    C3S15698   3.165   3.083   6.313 -0.3302 -0.5721  0.0791
  143OSM    H3S15699   3.266   3.042   6.294 -1.7091 -2.8880 -3.2064
  143OSM     O315700   3.183   3.187   6.413 -0.3780 -0.2981 -0.1478
  143OSM    HO315701   3.149   3.143   6.491  0.4016 -1.0745 -0.2285
  143OSM    C4S15702   3.123   3.154   6.178  0.6791 -0.0319 -0.1648
  143OSM    H4S15703   3.074   3.250   6.200  1.2033  0.1914  0.0456
  143OSM    C5S15704   3.156   3.118   6.051 -0.4202 -0.2011  0.3114
  143OSM    H5S15705   3.243   3.051   6.048  0.0965  0.4559  0.4486
  143OSM    C6S15706   3.106   3.191   5.924  0.1400  0.5018  0.3388
  143OSM    H6S15707   3.067   3.111   5.858  0.7614 -0.0415  0.6178
  143OSM    H6T15708   3.194   3.209   5.859  0.7727 -0.1038  1.0104
  143OSM    C7S15709   3.012   3.318   5.929 -0.0467 -0.2738 -0.2774
  143OSM    H7S15710   3.081   3.401   5.954 -0.2822  0.5047 -2.0390
  143OSM    H7T15711   2.926   3.302   5.997 -1.2144 -0.0399 -1.6321
  143OSM    C8S15712   2.946   3.357   5.798 -0.0608 -0.1597  1.0096
  143OSM    H8S15713   2.860   3.425   5.816 -0.3151 -0.5537  1.2935
  143OSM    H8T15714   2.889   3.263   5.780  1.7548 -1.4690  1.8012
  143OSM    C9S15715   3.047   3.403   5.687  1.5218 -0.1060  0.7554
  143OSM    H9S15716   2.980   3.407   5.599  1.2495 -1.0654  0.9083
  143OSM    H9T15717   3.133   3.338   5.658  0.6770  0.2650 -3.0568
  143OSM   C10S15718   3.101   3.546   5.701 -0.5718 -0.1928 -0.7278
  143OSM   H10S15719   3.174   3.546   5.785 -1.4143 -2.7153  0.1077
  143OSM   H10T15720   3.013   3.609   5.726 -1.8753 -2.1659 -0.0858
  143OSM   C11S15721   3.174   3.609   5.580 -0.0618  1.0792 -0.3755
  143OSM   H11S15722   3.249   3.680   5.620  1.4747 -0.2441 -0.8028
  143OSM   H11T15723   3.117   3.656   5.497  1.2303  2.5933 -0.4472
  143OSM   C12S15724   3.272   3.504   5.501 -0.4165 -0.5703  0.0266
  143OSM   H12S15725   3.197   3.430   5.466  0.3328 -0.3674 -2.1649
  143OSM   H12T15726   3.345   3.457   5.570  2.4375  2.2292 -0.8596
  143OSM   C13S15727   3.359   3.574   5.394 -0.0667  0.2963 -0.0752
  143OSM   H13S15728   3.461   3.607   5.422  0.1677  0.5829 -1.2289
  143OSM   H13T15729   3.295   3.658   5.358 -1.5869 -0.6284  0.3557
  143OSM   C14S15730   3.381   3.473   5.271 -0.2296 -0.5739 -0.6953
  143OSM   H14S15731   3.424   3.375   5.303  1.6327  0.4548  0.1765
  143OSM   H14T15732   3.460   3.529   5.216  0.6483 -1.2999 -0.2164
  143OSM   C15S15733   3.266   3.460   5.169  0.7878  0.0463  1.3629
  143OSM   H15S15734   3.231   3.559   5.133  2.3294  0.3985  0.7585
  143OSM   H15T15735   3.181   3.403   5.212 -1.5085  2.0494 -0.3000
  143OSM   C16S15736   3.308   3.378   5.045  0.2468  0.5436  0.2710
  143OSM   H16S15737   3.313   3.271   5.075 -1.3926  0.4587  0.3408
  143OSM   H16T15738   3.413   3.402   5.020  0.8832 -0.6253  1.6725
  143OSM   C17S15739   3.222   3.394   4.923 -0.0476  0.4849 -0.5345
  143OSM   H17S15740   3.271   3.339   4.840  2.3510  0.5691  0.7186
  143OSM   H17T15741   3.216   3.503   4.900 -0.1962  0.6023  0.0396
  143OSM   C18S15742   3.071   3.353   4.943 -0.7770  0.3600  0.0162
  143OSM   H18S15743   3.072   3.259   5.003  1.4053  0.7656  0.6900
  143OSM   H18T15744   3.019   3.337   4.846 -0.1390  0.9044 -0.4294
  143OSM   H18U15745   3.030   3.431   5.009 -0.0040 -0.0516  1.0138
  143OSM    C1F15746   2.898   2.830   6.240 -0.1337 -0.1688 -0.0955
  143OSM     OF15747   2.799   2.852   6.312  0.4790  0.3790 -0.2430
  143OSM    C2F15748   2.888   2.724   6.130 -0.2960  0.3513  0.3573
  143OSM    H2F15749   2.970   2.649   6.128 -1.2612 -0.7872 -2.4680
  143OSM    H2G15750   2.877   2.780   6.035  1.5524  1.1146  0.5593
  143OSM    C3F15751   2.750   2.654   6.131 -0.6075  0.1565  0.0120
  143OSM    H3F15752   2.659   2.715   6.117 -0.4553  1.1958  2.8053
  143OSM    H3G15753   2.728   2.597   6.224 -1.0912 -0.0859 -0.2489
  143OSM    C4F15754   2.746   2.541   6.025  0.0027  0.2869  0.0310
  143OSM    H4F15755   2.645   2.496   6.033 -0.2522 -0.0309 -3.5426
  143OSM    H4G15756   2.825   2.467   6.051 -0.7613 -0.0842  1.3594
  143OSM    C5F15757   2.750   2.581   5.878  0.6617 -0.4815  0.3514
  143OSM    H5F15758   2.839   2.646   5.859  0.4178  0.2596  1.6126
  143OSM    H5G15759   2.665   2.652   5.865 -0.3390 -1.7897 -0.5963
  143OSM    C6F15760   2.727   2.480   5.766 -0.3729 -0.6409  0.0049
  143OSM    H6F15761   2.628   2.437   5.793 -0.4566  0.1082  0.9636
  143OSM    H6G15762   2.797   2.394   5.759  1.8905  1.2147 -2.5594
  143OSM    C7F15763   2.709   2.553   5.635 -0.4729 -0.5336 -0.2491
  143OSM    H7F15764   2.628   2.628   5.623  1.5680  1.9016  0.2716
  143OSM    H7G15765   2.685   2.475   5.560 -0.1873  0.6027 -1.5750
  143OSM    C8F15766   2.833   2.616   5.572  0.1237 -0.0818 -0.1719
  143OSM    H8F15767   2.857   2.718   5.611  1.2128 -0.0253 -0.9511
  143OSM    H8G15768   2.803   2.635   5.466  0.1129 -0.9550 -0.3297
  143OSM    C9F15769   2.962   2.536   5.585 -0.5949  0.1347 -0.2509
  143OSM    H9F15770   3.024   2.546   5.676  0.9002 -1.6101 -1.0208
  143OSM   C10F15771   3.019   2.468   5.486 -0.4091  0.0762  0.3321
  143OSM   H10F15772   3.104   2.408   5.522 -0.4129  0.3151  0.7429
  143OSM   C11F15773   2.976   2.451   5.344 -0.9286 -0.3859 -0.1020
  143OSM   H11F15774   2.866   2.458   5.353 -0.7822  0.1624  1.6808
  143OSM   H11G15775   3.018   2.353   5.313  0.9442  0.6698 -1.0840
  143OSM   C12F15776   3.036   2.556   5.244 -0.0785  0.2868 -0.8477
  143OSM   H12F15777   2.996   2.656   5.273  1.1116  0.0905  1.8444
  143OSM   H12G15778   2.999   2.533   5.142 -2.5041  2.6689 -0.6170
  143OSM   C13F15779   3.190   2.567   5.241 -0.2798 -0.3571 -0.0710
  143OSM   H13F15780   3.220   2.616   5.336  3.0470  0.1673 -1.2388
  143OSM   H13G15781   3.225   2.638   5.162 -0.6808  0.2420  0.2818
  143OSM   C14F15782   3.269   2.441   5.202 -0.2268 -0.0479  0.0661
  143OSM   H14F15783   3.268   2.375   5.291  1.7447 -0.3667 -0.0888
  143OSM   H14G15784   3.376   2.466   5.183 -0.7640  2.2984 -0.1507
  143OSM   C15F15785   3.216   2.363   5.080 -0.1345 -0.4174 -1.0246
  143OSM   H15F15786   3.218   2.434   4.995 -3.4581  1.6205  0.4190
  143OSM   H15G15787   3.115   2.323   5.105  0.2936 -0.3250  0.9949
  143OSM   C16F15788   3.298   2.242   5.047 -0.6514  0.1210  0.1567
  143OSM   H16F15789   3.324   2.179   5.135 -0.0198 -1.0686 -0.8428
  143OSM   H16G15790   3.397   2.280   5.013 -1.4120  2.6415  0.5761
  143OSM   C17F15791   3.228   2.144   4.949  0.6264  0.3397  0.3264
  143OSM   H17F15792   3.306   2.073   4.914  0.1731 -0.3815  0.7404
  143OSM   H17G15793   3.186   2.202   4.864 -0.8273 -2.0934 -0.7108
  143OSM   C18F15794   3.126   2.055   5.009  0.1371 -0.2748 -0.2489
  143OSM   H18F15795   3.077   1.986   4.936 -1.7921 -1.4626  2.0142
  143OSM   H18G15796   3.044   2.117   5.052  0.1569  0.3437 -1.0795
  143OSM   H18H15797   3.161   1.987   5.089 -1.2120  1.6219  2.0890
  144OSM      N15798   2.497   5.014   6.703  0.3668  0.5831  0.3135
  144OSM    C1515799   2.431   4.975   6.830 -0.8486 -0.1856  0.0736
  144OSM   H15A15800   2.454   5.052   6.902  1.1146 -1.1375  0.5348
  144OSM   H15B15801   2.475   4.882   6.862  1.9881  1.0226 -0.0036
  144OSM   H15C15802   2.326   4.965   6.806 -0.7969  2.1876 -1.4451
  144OSM    C1415803   2.429   5.129   6.637  0.6255  0.4143 -0.1961
  144OSM   H14A15804   2.328   5.103   6.607  0.1083 -0.1062  1.8810
  144OSM   H14B15805   2.488   5.172   6.557 -0.2583  0.7213 -0.6931
  144OSM   H14C15806   2.415   5.212   6.704 -0.0384 -0.8475  1.2773
  144OSM    C1315807   2.636   5.067   6.737 -0.5500 -0.0057  0.1337
  144OSM   H13A15808   2.623   5.152   6.802 -2.5255 -0.4860  0.4316
  144OSM   H13B15809   2.683   5.091   6.643 -1.1368  2.3583  0.3927
  144OSM   H13C15810   2.693   4.992   6.791 -1.0991  0.6958  1.7372
  144OSM    C1215811   2.503   4.897   6.607 -0.1957  0.0681  0.6353
  144OSM   H12A15812   2.412   4.839   6.604  0.9744 -1.8226  0.0129
  144OSM   H12B15813   2.567   4.817   6.641  4.0140  2.4508 -0.9101
  144OSM    C1115814   2.563   4.930   6.462 -0.0193  0.6300 -0.5229
  144OSM   H11A15815   2.526   5.022   6.411  0.0990  0.7242 -0.4373
  144OSM   H11B15816   2.553   4.849   6.386  0.1741  2.2251 -2.3119
  144OSM      P15817   2.808   4.851   6.517 -0.1852 -0.1427  0.1248
  144OSM    O1315818   2.909   4.922   6.596  0.4087  0.5242 -0.3338
  144OSM    O1415819   2.743   4.732   6.570  1.1329  0.3014 -0.5093
  144OSM    O1115820   2.869   4.830   6.374  0.4000  0.9605  0.3649
  144OSM    O1215821   2.699   4.957   6.479  0.8195 -0.6179  0.3295
  144OSM    C1S15822   2.818   4.720   6.304 -0.3754  0.0418 -0.3910
  144OSM    H1S15823   2.708   4.724   6.292 -0.3499  0.6288 -0.4476
  144OSM    H1T15824   2.839   4.620   6.349  0.5521 -0.3054 -1.5201
  144OSM     NF15825   2.807   4.633   6.068 -0.5044  0.0912 -0.5090
  144OSM    HNF15826   2.868   4.562   6.033  0.3821  0.5984 -0.0130
  144OSM    C2S15827   2.875   4.722   6.161 -0.9043 -0.1621  0.2742
  144OSM    H2S15828   2.852   4.827   6.134  1.1626  0.5167  0.8900
  144OSM    C3S15829   3.028   4.712   6.144 -0.4114  0.2475 -1.0029
  144OSM    H3S15830   3.050   4.605   6.163  1.9552  0.6005 -1.4516
  144OSM     O315831   3.114   4.774   6.240  0.4490 -0.0913  0.1918
  144OSM    HO315832   3.055   4.794   6.314  0.5678  1.0189  0.0039
  144OSM    C4S15833   3.081   4.744   6.009  0.4677  0.3736 -0.4045
  144OSM    H4S15834   3.126   4.664   5.949  1.8285  0.9102 -0.1483
  144OSM    C5S15835   3.082   4.870   5.960 -0.4479  0.2128 -0.2497
  144OSM    H5S15836   3.041   4.951   6.020  2.1738  0.8149  0.8954
  144OSM    C6S15837   3.148   4.916   5.832  0.0446  0.4011  0.0791
  144OSM    H6S15838   3.217   5.003   5.844 -0.6979  0.8589  1.2530
  144OSM    H6T15839   3.072   4.945   5.756  0.4262  3.3761  0.7010
  144OSM    C7S15840   3.240   4.805   5.765 -0.5214  0.4439  0.8439
  144OSM    H7S15841   3.184   4.717   5.728  2.3838 -0.1313 -2.7011
  144OSM    H7T15842   3.318   4.771   5.837  0.6449 -0.7792 -0.9053
  144OSM    C8S15843   3.322   4.863   5.647 -0.2920 -0.7751  0.7430
  144OSM    H8S15844   3.388   4.938   5.696  0.0131  0.4545 -1.4024
  144OSM    H8T15845   3.264   4.929   5.579 -0.5868  0.2482  1.9474
  144OSM    C9S15846   3.409   4.767   5.579  0.2970 -0.2898  0.2747
  144OSM    H9S15847   3.360   4.668   5.591 -0.2339 -0.6990 -3.7279
  144OSM    H9T15848   3.509   4.781   5.625  0.7179  1.5044 -1.0809
  144OSM   C10S15849   3.418   4.792   5.434 -0.5578 -0.5880 -0.8947
  144OSM   H10S15850   3.466   4.884   5.392  0.8516 -0.7790  0.1962
  144OSM   H10T15851   3.313   4.793   5.400 -1.2596 -1.8126  1.1177
  144OSM   C11S15852   3.495   4.678   5.366  0.5885  0.1684 -0.1062
  144OSM   H11S15853   3.458   4.580   5.402  2.8020 -1.2516 -1.4679
  144OSM   H11T15854   3.601   4.683   5.398  0.2686  0.3349  0.9783
  144OSM   C12S15855   3.488   4.683   5.213 -0.1773 -0.1221 -0.5151
  144OSM   H12S15856   3.529   4.778   5.173  1.5430 -0.6014  0.0111
  144OSM   H12T15857   3.387   4.680   5.168 -1.7955  1.9460  2.5880
  144OSM   C13S15858   3.577   4.583   5.135 -0.3481 -0.5113  0.5297
  144OSM   H13S15859   3.536   4.482   5.156 -0.1912 -0.4762  1.0239
  144OSM   H13T15860   3.677   4.586   5.184 -0.2433 -0.2780  0.3066
  144OSM   C14S15861   3.594   4.614   4.984 -0.1751  0.2005  0.1340
  144OSM   H14S15862   3.636   4.717   4.971  1.4307 -0.5116 -0.6598
  144OSM   H14T15863   3.499   4.609   4.926  1.1909  1.0776 -2.3396
  144OSM   C15S15864   3.699   4.517   4.923  0.5564 -0.1266  0.3413
  144OSM   H15S15865   3.672   4.409   4.924  1.4128 -0.3757 -0.9159
  144OSM   H15T15866   3.790   4.533   4.984  0.6498 -1.1267  0.4894
  144OSM   C16S15867   3.731   4.556   4.780  0.3244  0.7222  0.2577
  144OSM   H16S15868   3.838   4.576   4.757 -0.3902  1.4929 -2.9221
  144OSM   H16T15869   3.685   4.657   4.765  1.1595  1.0017 -0.4807
  144OSM   C17S15870   3.688   4.463   4.666  0.1269  0.2400  0.0522
  144OSM   H17S15871   3.587   4.418   4.677  0.1321  0.0533 -0.5826
  144OSM   H17T15872   3.751   4.372   4.677 -0.6369 -0.1028  2.0432
  144OSM   C18S15873   3.713   4.532   4.528 -0.3124 -0.0458 -1.0871
  144OSM   H18S15874   3.812   4.582   4.535  0.6185 -1.9075 -0.2154
  144OSM   H18T15875   3.639   4.611   4.501 -0.4443  0.0979 -0.3246
  144OSM   H18U15876   3.712   4.460   4.443  0.3090  0.4601 -1.5299
  144OSM    C1F15877   2.673   4.624   6.043 -0.0752  0.2210  1.1231
  144OSM     OF15878   2.591   4.710   6.080 -0.1134 -0.0962 -0.0921
  144OSM    C2F15879   2.632   4.511   5.957 -0.3283 -0.2508  0.0563
  144OSM    H2F15880   2.593   4.426   6.018 -1.2270  0.5459  0.6275
  144OSM    H2G15881   2.719   4.478   5.896  0.0023  1.8577 -0.6902
  144OSM    C3F15882   2.535   4.548   5.834 -0.3085 -0.3782  0.6505
  144OSM    H3F15883   2.580   4.621   5.763  0.5701 -1.2913  0.2387
  144OSM    H3G15884   2.439   4.589   5.870 -1.5656 -2.3087 -0.3527
  144OSM    C4F15885   2.500   4.421   5.747  0.5559 -1.0330  0.9433
  144OSM    H4F15886   2.466   4.343   5.818  2.0895 -1.6639  1.0340
  144OSM    H4G15887   2.594   4.376   5.708  0.8282  1.1807 -1.1938
  144OSM    C5F15888   2.392   4.446   5.649 -0.2757  0.0462 -0.7427
  144OSM    H5F15889   2.306   4.466   5.715  0.8908 -1.5274  1.3861
  144OSM    H5G15890   2.379   4.347   5.599  0.5843  0.3356 -1.5815
  144OSM    C6F15891   2.425   4.556   5.542 -0.1416 -0.2710  0.3238
  144OSM    H6F15892   2.417   4.656   5.590 -0.6505  0.4179 -1.1506
  144OSM    H6G15893   2.341   4.560   5.471  0.1719 -0.1534 -0.0451
  144OSM    C7F15894   2.557   4.523   5.473  0.7230 -0.3336  0.3640
  144OSM    H7F15895   2.557   4.414   5.449  0.1552 -0.0013 -1.2647
  144OSM    H7G15896   2.637   4.546   5.546  0.9155  0.2165 -0.0205
  144OSM    C8F15897   2.578   4.604   5.340 -0.9900  0.2474  0.9480
  144OSM    H8F15898   2.575   4.711   5.370 -1.4108  0.4184  0.3088
  144OSM    H8G15899   2.484   4.592   5.282 -1.2099  0.4186  1.2624
  144OSM    C9F15900   2.706   4.565   5.274 -0.1152  0.0961  0.6969
  144OSM    H9F15901   2.799   4.606   5.315  1.3846 -2.4152  0.0379
  144OSM   C10F15902   2.726   4.481   5.171 -0.1936 -0.5111 -0.1980
  144OSM   H10F15903   2.828   4.455   5.139  0.3355 -2.0305  2.4936
  144OSM   C11F15904   2.625   4.401   5.099  0.2981  0.7548 -0.1141
  144OSM   H11F15905   2.565   4.460   5.027 -0.5036 -2.2274 -2.1251
  144OSM   H11G15906   2.555   4.352   5.169  1.0674  0.3226  0.3712
  144OSM   C12F15907   2.683   4.282   5.024 -0.3839  0.0668 -0.1448
  144OSM   H12F15908   2.730   4.215   5.099  1.5521 -0.7360 -1.9700
  144OSM   H12G15909   2.761   4.311   4.951  0.1291 -1.2495 -0.1354
  144OSM   C13F15910   2.581   4.199   4.947  0.1645 -0.1169 -0.2087
  144OSM   H13F15911   2.534   4.264   4.870  1.3870  0.7917 -0.2228
  144OSM   H13G15912   2.503   4.168   5.019  0.6274 -0.3625  0.1950
  144OSM   C14F15913   2.653   4.084   4.875 -0.1244 -0.1741 -0.0339
  144OSM   H14F15914   2.709   4.030   4.954  0.1256  0.6163  0.3363
  144OSM   H14G15915   2.723   4.139   4.808  0.2219  1.0605  1.2772
  144OSM   C15F15916   2.550   3.998   4.790 -0.9247 -0.0737  0.0688
  144OSM   H15F15917   2.481   3.931   4.845 -3.4230  0.3700 -2.2982
  144OSM   H15G15918   2.602   3.937   4.713  0.1028 -1.2520  1.6211
  144OSM   C16F15919   2.446   4.074   4.705 -0.3845 -0.6069  0.4720
  144OSM   H16F15920   2.371   4.133   4.763 -0.7630 -0.2394 -0.3763
  144OSM   H16G15921   2.381   4.001   4.652 -0.0926  0.1554 -0.9795
  144OSM   C17F15922   2.498   4.159   4.582 -0.4925  0.4914 -0.4209
  144OSM   H17F15923   2.567   4.226   4.638  1.1089 -2.8014  1.9415
  144OSM   H17G15924   2.412   4.214   4.537  0.0493  3.4400  1.8329
  144OSM   C18F15925   2.572   4.085   4.470 -0.2702 -0.2493  0.1259
  144OSM   H18F15926   2.609   4.153   4.391  0.0046 -1.9120 -1.2221
  144OSM   H18G15927   2.512   4.004   4.423 -0.6843 -1.1498  2.0634
  144OSM   H18H15928   2.667   4.044   4.511 -0.3983 -0.0570  0.6269
  145OSM      N15929   3.663   6.212   6.502 -0.1113  0.9971 -0.2202
  145OSM    C1515930   3.573   6.144   6.604  0.0039 -0.1633  0.3852
  145OSM   H15A15931   3.641   6.105   6.678  1.0294 -1.2493 -1.0750
  145OSM   H15B15932   3.513   6.065   6.561 -0.6662  0.8327 -0.5671
  145OSM   H15C15933   3.511   6.218   6.652 -1.5141 -0.6923 -0.6903
  145OSM    C1415934   3.580   6.287   6.408  0.0329 -0.4202  0.7039
  145OSM   H14A15935   3.637   6.321   6.322 -0.3352  1.4072  1.1522
  145OSM   H14B15936   3.543   6.373   6.462 -0.3435  0.5677 -1.0439
  145OSM   H14C15937   3.493   6.236   6.369 -0.9883  0.8656  1.2412
  145OSM    C1315938   3.748   6.303   6.582 -0.8221 -0.2207 -0.4670
  145OSM   H13A15939   3.690   6.371   6.643 -1.2910  1.5752 -2.7622
  145OSM   H13B15940   3.818   6.360   6.521  2.2394 -3.0145  0.1694
  145OSM   H13C15941   3.812   6.256   6.655  1.0244  0.1913 -1.7337
  145OSM    C1215942   3.753   6.107   6.438 -1.1885  0.0518 -0.3849
  145OSM   H12A15943   3.813   6.061   6.514 -3.0722 -0.0565  1.1099
  145OSM   H12B15944   3.831   6.162   6.387 -1.6742  1.0908 -0.0389
  145OSM    C1115945   3.696   6.001   6.348  0.3328  0.2322 -0.5030
  145OSM   H11A15946   3.774   5.929   6.313 -1.1604 -2.9006  2.0206
  145OSM   H11B15947   3.654   6.049   6.257 -2.7201 -0.1198  0.5954
  145OSM      P15948   3.615   5.800   6.506  0.1110 -0.1836 -0.1556
  145OSM    O1315949   3.723   5.825   6.603  0.3191 -0.0544 -0.0642
  145OSM    O1415950   3.483   5.762   6.568 -0.3571 -0.1849  0.2753
  145OSM    O1115951   3.660   5.689   6.412  0.7764 -0.6056  0.0784
  145OSM    O1215952   3.588   5.926   6.409  0.2089 -0.6852  0.3495
  145OSM    C1S15953   3.587   5.663   6.288  0.1496  0.0932 -0.7025
  145OSM    H1S15954   3.504   5.733   6.265 -1.4972 -1.2128  0.9985
  145OSM    H1T15955   3.538   5.564   6.301  0.0982  0.4314  2.1423
  145OSM     NF15956   3.618   5.639   6.042  0.0130  0.1480 -0.0076
  145OSM    HNF15957   3.597   5.549   6.005 -0.5728 -0.7012  2.2087
  145OSM    C2S15958   3.694   5.649   6.172  0.3900 -0.6407  0.2406
  145OSM    H2S15959   3.759   5.739   6.169  0.6791 -0.8601 -0.1300
  145OSM    C3S15960   3.786   5.523   6.189  0.1273 -0.0274  0.7315
  145OSM    H3S15961   3.725   5.432   6.169 -1.4462  0.3071  3.4064
  145OSM     O315962   3.851   5.509   6.316  0.2147 -0.7046 -0.2265
  145OSM    HO315963   3.810   5.583   6.362  3.4007  1.0745  0.0935
  145OSM    C4S15964   3.897   5.531   6.080  0.1482 -0.0758 -0.0156
  145OSM    H4S15965   3.859   5.503   5.980  0.6052  0.5348 -0.3709
  145OSM    C5S15966   4.026   5.581   6.091 -0.1896  0.5208 -0.2701
  145OSM    H5S15967   4.059   5.625   6.187 -0.6695 -0.2760  0.2764
  145OSM    C6S15968   4.135   5.580   5.985  0.0533 -0.0811 -0.0602
  145OSM    H6S15969   4.234   5.564   6.033 -0.2431 -0.8241  0.3099
  145OSM    H6T15970   4.135   5.681   5.938 -3.8489 -0.8664 -2.1819
  145OSM    C7S15971   4.107   5.469   5.877  0.2446 -0.3137 -0.5855
  145OSM    H7S15972   4.005   5.486   5.836  0.0065  2.1237  0.8248
  145OSM    H7T15973   4.121   5.370   5.924 -0.5146 -0.2427 -0.1998
  145OSM    C8S15974   4.190   5.481   5.755 -0.8482  0.4619 -0.1750
  145OSM    H8S15975   4.190   5.378   5.712  0.2676  0.2732  0.2352
  145OSM    H8T15976   4.297   5.498   5.779 -0.3036  0.9727 -2.6991
  145OSM    C9S15977   4.137   5.576   5.643 -0.1357  1.1208  0.3861
  145OSM    H9S15978   4.160   5.682   5.666  0.6226  1.2192 -0.7305
  145OSM    H9T15979   4.026   5.578   5.635 -0.2736 -1.2048  1.1270
  145OSM   C10S15980   4.186   5.538   5.505  0.1906 -0.1748  0.5542
  145OSM   H10S15981   4.146   5.440   5.471 -0.0547  0.5686 -1.4384
  145OSM   H10T15982   4.296   5.532   5.517  0.4388 -0.8671 -1.6184
  145OSM   C11S15983   4.168   5.645   5.394 -0.2292 -0.1346  0.3470
  145OSM   H11S15984   4.223   5.622   5.300 -0.9395  2.6076 -0.8095
  145OSM   H11T15985   4.204   5.744   5.429 -0.9057  0.2402  0.0028
  145OSM   C12S15986   4.014   5.660   5.356 -0.5417  0.1339  0.5512
  145OSM   H12S15987   3.937   5.711   5.418 -4.5452 -2.1745 -2.0507
  145OSM   H12T15988   3.980   5.555   5.343  2.0814 -0.5609 -1.3281
  145OSM   C13S15989   3.992   5.725   5.219  0.3989 -0.1491  0.0746
  145OSM   H13S15990   4.009   5.835   5.217 -1.1621  0.1948  2.0717
  145OSM   H13T15991   3.881   5.720   5.208  0.1638 -0.5427  2.2192
  145OSM   C14S15992   4.050   5.654   5.094 -0.5337 -0.5333 -0.1243
  145OSM   H14S15993   4.161   5.666   5.097 -0.6766  0.9061  0.4368
  145OSM   H14T15994   4.029   5.713   5.003  2.4420  1.2177  0.1775
  145OSM   C15S15995   3.997   5.514   5.061  0.1695 -0.6450 -0.3077
  145OSM   H15S15996   3.891   5.513   5.027  0.0074 -0.6585  0.1794
  145OSM   H15T15997   4.005   5.458   5.156  1.3602 -1.7962 -1.0659
  145OSM   C16S15998   4.089   5.454   4.960  0.1933  0.1657 -0.1217
  145OSM   H16S15999   4.058   5.348   4.947  0.2648  0.2876 -1.3870
  145OSM   H16T16000   4.188   5.451   5.009 -0.7554 -1.2604  1.8674
  145OSM   C17S16001   4.099   5.523   4.826  0.6169 -0.5044 -0.4750
  145OSM   H17S16002   4.177   5.467   4.771  0.4329 -0.5161 -0.7290
  145OSM   H17T16003   4.133   5.629   4.830 -1.8332  0.3644 -0.5934
  145OSM   C18S16004   3.967   5.509   4.744 -0.3260 -0.0859  0.1316
  145OSM   H18S16005   3.971   5.563   4.648 -0.5139  0.0553  0.2032
  145OSM   H18T16006   3.895   5.567   4.805  0.1346  2.4261 -1.5918
  145OSM   H18U16007   3.935   5.406   4.716 -0.2021 -0.7193  2.1693
  145OSM    C1F16008   3.555   5.743   5.993  0.4824 -0.3462  0.7979
  145OSM     OF16009   3.564   5.847   6.054 -0.4273  0.4048  0.1857
  145OSM    C2F16010   3.484   5.718   5.865 -0.1051  0.0080 -0.0500
  145OSM    H2F16011   3.402   5.655   5.904 -0.8121  1.3253  0.6438
  145OSM    H2G16012   3.550   5.664   5.793 -0.1138 -1.2723  0.8731
  145OSM    C3F16013   3.424   5.846   5.808  0.2154  0.6847 -0.4293
  145OSM    H3F16014   3.502   5.923   5.793 -0.9412  2.1862  0.9934
  145OSM    H3G16015   3.347   5.887   5.876  0.6438  1.4311 -0.3875
  145OSM    C4F16016   3.357   5.833   5.664  0.1388 -0.4681 -0.8810
  145OSM    H4F16017   3.320   5.930   5.623  1.9910  1.3120  1.3538
  145OSM    H4G16018   3.267   5.774   5.691 -0.6011  0.9668 -0.0812
  145OSM    C5F16019   3.432   5.748   5.559 -0.6026 -0.1339 -0.4970
  145OSM    H5F16020   3.361   5.731   5.476 -0.4262 -0.3745 -0.5994
  145OSM    H5G16021   3.469   5.650   5.596  1.5506  0.8050  0.0489
  145OSM    C6F16022   3.567   5.805   5.509  0.9932  0.6504  0.2260
  145OSM    H6F16023   3.641   5.804   5.592  0.7312  0.7634  0.4624
  145OSM    H6G16024   3.544   5.909   5.477  1.0447  0.0286 -2.0276
  145OSM    C7F16025   3.641   5.747   5.387 -0.1984  0.8057  0.2410
  145OSM    H7F16026   3.680   5.645   5.409 -0.0473  0.1516 -2.7016
  145OSM    H7G16027   3.734   5.806   5.374 -0.0112  0.7384  1.1668
  145OSM    C8F16028   3.557   5.726   5.253  0.1501 -0.3399 -0.2784
  145OSM    H8F16029   3.455   5.684   5.265 -0.3951 -0.0152 -3.0343
  145OSM    H8G16030   3.614   5.647   5.201  0.6579 -0.6899  0.7962
  145OSM    C9F16031   3.545   5.864   5.175 -0.0468 -0.0039 -0.0324
  145OSM    H9F16032   3.475   5.937   5.219 -0.6562 -0.1409 -0.7667
  145OSM   C10F16033   3.601   5.887   5.055 -0.4289 -0.3102 -0.0358
  145OSM   H10F16034   3.579   5.987   5.014  0.0097 -0.6660 -1.1797
  145OSM   C11F16035   3.694   5.806   4.975 -0.4994 -0.0100  0.7633
  145OSM   H11F16036   3.761   5.744   5.039  0.3743 -0.7328 -0.8041
  145OSM   H11G16037   3.762   5.870   4.916  1.6281 -4.3466 -1.9858
  145OSM   C12F16038   3.610   5.703   4.892 -0.2785  0.0342 -0.5393
  145OSM   H12F16039   3.533   5.648   4.950 -2.9415  2.1443 -1.8360
  145OSM   H12G16040   3.679   5.631   4.844 -0.8561 -0.2582 -0.9509
  145OSM   C13F16041   3.529   5.768   4.775  0.1561  0.2125 -0.1106
  145OSM   H13F16042   3.596   5.798   4.692  0.9393  0.0976  0.4752
  145OSM   H13G16043   3.475   5.861   4.804 -1.6623 -0.3800 -1.3960
  145OSM   C14F16044   3.417   5.681   4.708 -0.6296  0.3771 -0.1832
  145OSM   H14F16045   3.341   5.675   4.789 -1.6874 -1.0512 -1.2386
  145OSM   H14G16046   3.443   5.574   4.694 -0.8503  0.5613 -2.2140
  145OSM   C15F16047   3.344   5.752   4.589 -0.3746 -0.4113  0.8912
  145OSM   H15F16048   3.419   5.761   4.508 -2.7655 -1.0781 -1.5348
  145OSM   H15G16049   3.318   5.853   4.625 -2.6339 -0.8926  0.7469
  145OSM   C16F16050   3.221   5.685   4.532 -0.5350 -0.4301 -0.0517
  145OSM   H16F16051   3.242   5.585   4.488  1.6087 -0.7425  1.5152
  145OSM   H16G16052   3.194   5.751   4.447 -2.8339 -0.8648  0.2949
  145OSM   C17F16053   3.104   5.687   4.627 -0.2157 -0.0873  0.2808
  145OSM   H17F16054   3.115   5.780   4.686 -1.1531 -0.9631  1.8863
  145OSM   H17G16055   3.103   5.597   4.692 -0.2282 -0.0548  0.3255
  145OSM   C18F16056   2.970   5.696   4.552 -0.4995 -0.5878 -0.4553
  145OSM   H18F16057   2.981   5.617   4.474  0.1604 -2.1076  1.1011
  145OSM   H18G16058   2.952   5.796   4.507 -1.7408 -0.1493  0.9245
  145OSM   H18H16059   2.891   5.663   4.623  1.7398 -1.9778  1.5627
  146OSM      N16060   1.755   6.532   6.751  0.7717 -0.5813 -0.0910
  146OSM    C1516061   1.665   6.581   6.866  0.4982 -0.1770  0.4097
  146OSM   H15A16062   1.561   6.554   6.854 -0.3568  1.8898  2.2926
  146OSM   H15B16063   1.651   6.688   6.872 -0.2576 -0.2811  0.6898
  146OSM   H15C16064   1.691   6.546   6.965 -0.3161  0.3156  0.8041
  146OSM    C1416065   1.896   6.575   6.797  0.3249  0.4683  0.1007
  146OSM   H14A16066   1.940   6.524   6.882 -0.4179  1.5372  1.1496
  146OSM   H14B16067   1.879   6.677   6.828 -1.7464 -0.4713  2.3741
  146OSM   H14C16068   1.961   6.584   6.711  0.0254 -3.2046 -0.6932
  146OSM    C1316069   1.740   6.386   6.745  0.0036 -0.7413 -0.2603
  146OSM   H13A16070   1.643   6.344   6.723 -0.4141  1.0091 -2.0231
  146OSM   H13B16071   1.774   6.342   6.837  1.9304  0.1213 -0.4998
  146OSM   H13C16072   1.805   6.341   6.671  0.4176 -1.0131  0.2659
  146OSM    C1216073   1.722   6.596   6.619 -0.3534 -0.2217 -0.4393
  146OSM   H12A16074   1.749   6.700   6.627 -1.9711  0.2709 -0.9142
  146OSM   H12B16075   1.615   6.597   6.605 -0.2866 -1.0429 -1.1077
  146OSM    C1116076   1.795   6.554   6.490 -0.5440  0.2664  0.0894
  146OSM   H11A16077   1.746   6.615   6.411 -1.5575 -1.1294 -0.4111
  146OSM   H11B16078   1.759   6.450   6.472  0.8201 -0.2313  0.1874
  146OSM      P16079   2.014   6.686   6.458 -0.0228 -0.2772 -0.0119
  146OSM    O1316080   1.949   6.804   6.518 -0.5641 -0.4430 -0.1435
  146OSM    O1416081   2.156   6.677   6.498  0.3596  0.5371  0.1984
  146OSM    O1116082   2.004   6.691   6.298  0.1252 -0.1825 -0.4706
  146OSM    O1216083   1.937   6.557   6.500 -0.1108 -0.4641  0.0780
  146OSM    C1S16084   2.015   6.568   6.222  0.4899  0.0623  0.5856
  146OSM    H1S16085   1.915   6.521   6.233  0.8431 -0.4975  1.4848
  146OSM    H1T16086   2.089   6.497   6.265 -2.6982 -3.7209  0.4338
  146OSM     NF16087   1.998   6.478   6.000 -0.4477  1.0669 -0.1598
  146OSM    HNF16088   2.062   6.407   5.974  0.1475  1.0281  1.3013
  146OSM    C2S16089   2.047   6.595   6.075  0.3658 -0.9900 -0.0521
  146OSM    H2S16090   1.989   6.686   6.049  0.1180 -0.8884  0.8347
  146OSM    C3S16091   2.193   6.635   6.060 -0.4672  0.1558 -0.4440
  146OSM    H3S16092   2.261   6.549   6.081  1.6041  2.1476  1.5196
  146OSM     O316093   2.233   6.734   6.154 -0.2535  0.0342  0.0531
  146OSM    HO316094   2.159   6.732   6.215  0.6806  0.3667  1.2262
  146OSM    C4S16095   2.221   6.680   5.921  0.2379  0.2717 -0.1570
  146OSM    H4S16096   2.190   6.785   5.914 -0.7736 -0.0381 -0.5639
  146OSM    C5S16097   2.245   6.599   5.814  0.7734 -0.2513 -0.1539
  146OSM    H5S16098   2.247   6.491   5.832  2.5398  0.0977  2.1582
  146OSM    C6S16099   2.244   6.645   5.672 -0.8325 -0.6805  0.1130
  146OSM    H6S16100   2.352   6.643   5.646 -1.3821 -2.1737 -2.3562
  146OSM    H6T16101   2.215   6.752   5.663  0.3978 -0.2571  0.8934
  146OSM    C7S16102   2.173   6.558   5.577  0.3940 -0.0170 -0.6275
  146OSM    H7S16103   2.071   6.541   5.618 -0.0665 -2.1901 -2.4785
  146OSM    H7T16104   2.208   6.452   5.576 -0.5411 -0.3523  0.2667
  146OSM    C8S16105   2.151   6.610   5.430  0.3914  0.0767  0.0197
  146OSM    H8S16106   2.249   6.599   5.379  0.3175 -1.4245  0.1602
  146OSM    H8T16107   2.116   6.716   5.435 -1.3588 -0.5257  1.6099
  146OSM    C9S16108   2.046   6.525   5.347  0.0530  0.2485 -0.4564
  146OSM    H9S16109   1.949   6.518   5.402 -0.5893 -0.0904 -1.6168
  146OSM    H9T16110   2.090   6.423   5.346 -1.0832 -0.2646 -2.6350
  146OSM   C10S16111   2.015   6.594   5.206  0.0389 -0.3991  0.0163
  146OSM   H10S16112   2.117   6.613   5.166 -0.5837 -2.7803 -3.0956
  146OSM   H10T16113   1.965   6.693   5.212 -0.0123 -0.3323 -1.2293
  146OSM   C11S16114   1.927   6.507   5.110  0.8638  0.1362  0.2631
  146OSM   H11S16115   1.827   6.483   5.153  0.5644  0.2390 -0.3634
  146OSM   H11T16116   1.976   6.408   5.097 -1.0528 -0.6682 -1.3078
  146OSM   C12S16117   1.922   6.554   4.959  0.3517 -0.0890 -0.0688
  146OSM   H12S16118   2.030   6.558   4.934  0.8883 -1.8189  1.7999
  146OSM   H12T16119   1.889   6.661   4.955  2.0684  0.4905  0.4511
  146OSM   C13S16120   1.844   6.462   4.857 -0.2200 -0.7617  0.5475
  146OSM   H13S16121   1.737   6.450   4.886 -0.3099 -3.1377 -0.5322
  146OSM   H13T16122   1.889   6.361   4.863  0.0795 -0.6439  0.2698
  146OSM   C14S16123   1.845   6.521   4.713  1.1606 -0.6875  0.3791
  146OSM   H14S16124   1.951   6.553   4.700  1.4638 -2.2749 -1.3905
  146OSM   H14T16125   1.772   6.605   4.710 -1.9305 -3.2273 -1.7651
  146OSM   C15S16126   1.803   6.411   4.608 -0.1741 -0.7452  0.0828
  146OSM   H15S16127   1.797   6.463   4.510  1.1703  1.2867  1.0042
  146OSM   H15T16128   1.705   6.367   4.638  0.6879 -2.2438  0.8025
  146OSM   C16S16129   1.901   6.293   4.603  0.4066  0.0197  0.5652
  146OSM   H16S16130   1.878   6.225   4.688 -1.3073  0.5812  0.5943
  146OSM   H16T16131   2.006   6.327   4.601  0.0911  1.1570 -2.6770
  146OSM   C17S16132   1.879   6.213   4.472  0.1828  1.0867  0.3570
  146OSM   H17S16133   1.906   6.260   4.375 -3.2066  1.2383 -0.6375
  146OSM   H17T16134   1.771   6.185   4.473  0.8042 -2.7618 -4.3792
  146OSM   C18S16135   1.952   6.075   4.486  0.9375 -0.1609  1.0940
  146OSM   H18S16136   1.896   6.021   4.564  1.9565 -2.3609  0.3894
  146OSM   H18T16137   2.062   6.080   4.505  0.7969 -1.2655  2.3184
  146OSM   H18U16138   1.944   6.022   4.388  0.1246 -0.2712  1.2191
  146OSM    C1F16139   1.869   6.444   5.992 -0.0674 -0.6148  0.1192
  146OSM     OF16140   1.795   6.530   6.030  0.4208 -0.2441 -0.0453
  146OSM    C2F16141   1.830   6.317   5.927 -0.2052 -0.0604  0.2143
  146OSM    H2F16142   1.822   6.246   6.012 -0.7952  1.7615  1.7641
  146OSM    H2G16143   1.907   6.278   5.857 -0.0516 -0.6871  0.7255
  146OSM    C3F16144   1.698   6.334   5.849  0.5506 -0.1703  0.0240
  146OSM    H3F16145   1.720   6.376   5.749  2.4135 -2.3736 -0.5745
  146OSM    H3G16146   1.633   6.402   5.908  0.1347 -0.1804 -0.4199
  146OSM    C4F16147   1.626   6.201   5.837  0.2610 -0.1339  0.3895
  146OSM    H4F16148   1.519   6.205   5.808 -0.5154 -1.7766  2.7807
  146OSM    H4G16149   1.613   6.148   5.933  0.1691  0.0979  0.5055
  146OSM    C5F16150   1.700   6.100   5.747 -0.0428 -0.3992  0.0283
  146OSM    H5F16151   1.641   6.006   5.741 -0.6604 -0.1648  1.7827
  146OSM    H5G16152   1.794   6.071   5.799 -0.4595 -1.3339  0.2798
  146OSM    C6F16153   1.732   6.150   5.599 -0.2604 -0.3023 -0.3988
  146OSM    H6F16154   1.815   6.223   5.583 -0.3302 -0.6512 -2.6559
  146OSM    H6G16155   1.632   6.188   5.572  0.6683  1.8646 -0.9829
  146OSM    C7F16156   1.765   6.033   5.502  0.8507 -0.1015  0.1491
  146OSM    H7F16157   1.684   5.958   5.495 -0.3885  1.3073 -1.5127
  146OSM    H7G16158   1.862   5.984   5.524  0.9787  0.1943  0.2577
  146OSM    C8F16159   1.778   6.085   5.351 -0.1079 -0.4138  0.4113
  146OSM    H8F16160   1.832   6.001   5.301  1.2210  0.3666  0.4788
  146OSM    H8G16161   1.845   6.174   5.358 -0.1012 -0.5160  1.9910
  146OSM    C9F16162   1.653   6.127   5.276 -0.0155 -0.0577 -0.4898
  146OSM    H9F16163   1.608   6.222   5.307  0.9220  0.6987 -1.3562
  146OSM   C10F16164   1.601   6.066   5.167 -0.1491  0.3860 -0.6825
  146OSM   H10F16165   1.514   6.111   5.118  0.9681  0.6697 -2.4974
  146OSM   C11F16166   1.663   5.957   5.089 -0.1282 -0.0554  0.0214
  146OSM   H11F16167   1.593   5.880   5.049 -0.0270 -1.5429  2.4969
  146OSM   H11G16168   1.736   5.898   5.149  2.3807  1.1052 -1.7266
  146OSM   C12F16169   1.757   6.007   4.985 -0.7588 -0.2663 -0.1363
  146OSM   H12F16170   1.806   5.924   4.929  1.0179 -0.2439  1.2996
  146OSM   H12G16171   1.839   6.064   5.033 -0.5248 -0.3507 -0.4287
  146OSM   C13F16172   1.691   6.085   4.860  0.6189  0.5869 -0.3543
  146OSM   H13F16173   1.752   6.097   4.768 -0.0208 -1.7465 -1.1514
  146OSM   H13G16174   1.655   6.186   4.889 -3.1967 -1.6143  3.8164
  146OSM   C14F16175   1.568   6.015   4.804 -0.3926  0.8794 -0.0907
  146OSM   H14F16176   1.604   5.912   4.783 -1.8250  0.0350  1.4004
  146OSM   H14G16177   1.484   6.023   4.876 -1.4457 -0.5680 -1.1008
  146OSM   C15F16178   1.521   6.074   4.669  0.0718  0.2410 -0.2960
  146OSM   H15F16179   1.476   5.992   4.610  0.3403  0.3709 -0.6820
  146OSM   H15G16180   1.606   6.117   4.612 -0.4204  1.2361 -0.3139
  146OSM   C16F16181   1.407   6.174   4.694  0.0995 -0.2440  0.0313
  146OSM   H16F16182   1.438   6.255   4.764  0.0858  1.0160 -1.3539
  146OSM   H16G16183   1.324   6.116   4.740  1.3605 -1.4059  0.8965
  146OSM   C17F16184   1.353   6.247   4.572  0.3774  0.0390  0.4002
  146OSM   H17F16185   1.376   6.186   4.482  1.9238  0.9910  0.1145
  146OSM   H17G16186   1.414   6.336   4.547  0.4056 -0.8714 -3.3417
  146OSM   C18F16187   1.204   6.287   4.568  0.2170 -0.2309  0.7593
  146OSM   H18F16188   1.178   6.374   4.633  0.5595  1.0035 -0.6957
  146OSM   H18G16189   1.143   6.199   4.596  1.5171 -1.4011  0.0458
  146OSM   H18H16190   1.194   6.324   4.463 -0.0369 -1.9825  0.1293
  147OSM      N16191   3.914   1.660   2.443  0.2926 -0.0267 -0.1550
  147OSM    C1516192   3.768   1.683   2.448  0.2142 -0.6713  0.1696
  147OSM   H15A16193   3.750   1.781   2.406  1.7742 -0.1903  0.5507
  147OSM   H15B16194   3.728   1.667   2.546 -3.5829 -3.0425 -1.5235
  147OSM   H15C16195   3.717   1.610   2.386 -1.3911 -0.4678  1.1970
  147OSM    C1416196   3.935   1.514   2.461  0.3858  0.3171 -0.8096
  147OSM   H14A16197   3.897   1.457   2.378  0.3281 -0.1510 -0.4631
  147OSM   H14B16198   3.879   1.484   2.548 -0.9713  2.4018 -0.8829
  147OSM   H14C16199   4.042   1.497   2.468  0.2664  0.0121  0.5214
  147OSM    C1316200   3.964   1.686   2.306 -0.3345  0.2764  0.2396
  147OSM   H13A16201   3.950   1.788   2.275  2.0522  1.0551  1.4526
  147OSM   H13B16202   3.902   1.625   2.242  1.2631 -2.4990  1.1425
  147OSM   H13C16203   4.066   1.654   2.290 -0.6266 -0.1390 -0.9074
  147OSM    C1216204   3.983   1.742   2.553  0.4341  0.4880 -0.1970
  147OSM   H12A16205   3.959   1.709   2.653  1.1382  2.2685  0.6139
  147OSM   H12B16206   3.936   1.840   2.552  1.3065  0.9185 -1.2296
  147OSM    C1116207   4.136   1.747   2.552 -0.6429  0.3324 -0.3963
  147OSM   H11A16208   4.172   1.794   2.646  1.4945 -1.2485 -0.3629
  147OSM   H11B16209   4.161   1.807   2.462 -1.6687  2.0420  0.4062
  147OSM      P16210   4.329   1.574   2.515  0.4943 -0.3076 -0.0321
  147OSM    O1316211   4.357   1.433   2.531  0.6826  0.3325 -0.7203
  147OSM    O1416212   4.363   1.635   2.381 -0.3648 -0.1317 -0.2964
  147OSM    O1116213   4.417   1.644   2.628 -0.0836 -0.3664 -0.2584
  147OSM    O1216214   4.179   1.610   2.552 -0.2260  0.7250 -0.3261
  147OSM    C1S16215   4.387   1.623   2.768 -0.3922  0.8947  0.7026
  147OSM    H1S16216   4.363   1.518   2.795  0.4531  0.9166  1.5867
  147OSM    H1T16217   4.300   1.688   2.791 -2.0611 -0.7464 -0.6331
  147OSM     NF16218   4.491   1.600   2.993 -0.2759  0.0418 -0.1108
  147OSM    HNF16219   4.436   1.651   3.059 -0.8535 -0.4552 -0.2034
  147OSM    C2S16220   4.505   1.664   2.860  0.4525  0.1214 -0.3610
  147OSM    H2S16221   4.598   1.630   2.808  1.5020  2.3279 -0.0256
  147OSM    C3S16222   4.520   1.816   2.872  0.1380  0.5648  0.3248
  147OSM    H3S16223   4.422   1.853   2.908  0.7991  2.0916  0.6210
  147OSM     O316224   4.546   1.882   2.752  0.2730 -0.0243  0.4825
  147OSM    HO316225   4.559   1.813   2.686 -1.0583 -0.5881  0.7755
  147OSM    C4S16226   4.617   1.854   2.979 -0.5035 -0.8605 -0.5278
  147OSM    H4S16227   4.583   1.836   3.082  2.4181  1.0246  0.9237
  147OSM    C5S16228   4.749   1.901   2.971  0.1542  0.3610  0.2247
  147OSM    H5S16229   4.789   1.929   2.872  1.5295 -0.5110  0.4979
  147OSM    C6S16230   4.850   1.921   3.087 -0.0030 -0.3133  0.8388
  147OSM    H6S16231   4.839   2.027   3.119 -0.7415  0.5938 -2.0868
  147OSM    H6T16232   4.952   1.900   3.048  0.1449  0.5686  0.7176
  147OSM    C7S16233   4.811   1.848   3.207 -0.2732 -0.3777  0.4080
  147OSM    H7S16234   4.705   1.851   3.240 -0.1664 -0.3968  0.7534
  147OSM    H7T16235   4.861   1.885   3.299  0.4944  0.9074 -0.4932
  147OSM    C8S16236   4.858   1.704   3.187  0.1047 -0.0495 -0.2695
  147OSM    H8S16237   4.967   1.701   3.165  0.1838 -0.2915  0.1378
  147OSM    H8T16238   4.807   1.653   3.102  0.2511  2.1460 -1.7403
  147OSM    C9S16239   4.849   1.617   3.315  0.4620  0.5406 -0.2745
  147OSM    H9S16240   4.897   1.662   3.404  0.4210  0.4199 -0.1917
  147OSM    H9T16241   4.894   1.517   3.297 -0.2597  0.1242  0.1953
  147OSM   C10S16242   4.698   1.580   3.351 -0.3530 -0.7076  0.7676
  147OSM   H10S16243   4.646   1.571   3.253  0.6626  0.6988  0.0581
  147OSM   H10T16244   4.655   1.677   3.384 -1.3728 -1.2642  1.1078
  147OSM   C11S16245   4.673   1.462   3.441  0.6197  0.3278  0.1327
  147OSM   H11S16246   4.714   1.370   3.395  3.6551  1.9160 -0.5597
  147OSM   H11T16247   4.563   1.444   3.443  0.8215 -1.2717 -1.1508
  147OSM   C12S16248   4.727   1.474   3.587 -0.5707  0.2670  0.2020
  147OSM   H12S16249   4.694   1.575   3.619 -1.4783  0.8520 -2.3199
  147OSM   H12T16250   4.838   1.474   3.578 -0.6082  1.0899 -0.2968
  147OSM   C13S16251   4.678   1.374   3.690 -0.4543 -0.7322  0.1851
  147OSM   H13S16252   4.740   1.364   3.782  2.1521 -0.1379 -1.3820
  147OSM   H13T16253   4.686   1.273   3.644 -0.4657  0.1526 -1.8942
  147OSM   C14S16254   4.531   1.395   3.718 -1.0595  0.3166 -1.2289
  147OSM   H14S16255   4.474   1.389   3.623  2.1629  0.1174 -3.2997
  147OSM   H14T16256   4.505   1.496   3.758 -0.9022  0.1652 -0.7427
  147OSM   C15S16257   4.482   1.293   3.820 -0.2749 -0.5040 -1.2315
  147OSM   H15S16258   4.521   1.191   3.799  0.1712 -0.6899  0.3207
  147OSM   H15T16259   4.372   1.291   3.812 -0.6227  1.1897  1.6264
  147OSM   C16S16260   4.507   1.345   3.962  0.1691  0.0777  0.2587
  147OSM   H16S16261   4.444   1.434   3.984  0.4350  0.2062  0.5025
  147OSM   H16T16262   4.608   1.389   3.973  0.9325 -1.2032 -1.2587
  147OSM   C17S16263   4.485   1.241   4.069  0.2795 -0.9707  0.1364
  147OSM   H17S16264   4.554   1.154   4.076  0.6001 -0.6946  0.4736
  147OSM   H17T16265   4.379   1.210   4.055  0.1888 -1.1872  1.2666
  147OSM   C18S16266   4.504   1.304   4.212 -0.2405  0.0388  0.1638
  147OSM   H18S16267   4.466   1.408   4.216  1.0073  0.5436 -0.5206
  147OSM   H18T16268   4.614   1.302   4.227  0.3423 -1.1617 -3.3582
  147OSM   H18U16269   4.454   1.237   4.285  0.2296 -0.7750 -0.2490
  147OSM    C1F16270   4.511   1.471   3.011 -0.2891 -0.9148  0.3032
  147OSM     OF16271   4.582   1.407   2.933 -0.0482 -0.0615 -0.5567
  147OSM    C2F16272   4.424   1.410   3.109 -0.2402  0.4202 -0.1316
  147OSM    H2F16273   4.327   1.383   3.062  0.4738 -2.1286 -0.2675
  147OSM    H2G16274   4.402   1.488   3.186 -0.4118  1.0326 -0.7921
  147OSM    C3F16275   4.494   1.288   3.179 -0.3527  0.6269 -0.2295
  147OSM    H3F16276   4.589   1.312   3.232 -0.6336  1.6014 -0.1339
  147OSM    H3G16277   4.532   1.210   3.110  1.5347  0.3005  1.1134
  147OSM    C4F16278   4.395   1.230   3.281  0.5477  0.0691 -0.1608
  147OSM    H4F16279   4.299   1.210   3.228  1.1738 -2.1733 -0.5649
  147OSM    H4G16280   4.374   1.290   3.372 -0.8119 -0.3977 -0.1371
  147OSM    C5F16281   4.436   1.089   3.323 -0.5856  0.2805 -0.2731
  147OSM    H5F16282   4.535   1.097   3.372 -2.2452  0.0391  3.4162
  147OSM    H5G16283   4.447   1.028   3.230 -2.9683  0.1221 -0.5136
  147OSM    C6F16284   4.347   1.022   3.436  0.1685  0.2438 -0.0246
  147OSM    H6F16285   4.365   1.078   3.530  3.1379  1.0019 -0.9459
  147OSM    H6G16286   4.374   0.915   3.452  1.2134  0.2042 -1.7998
  147OSM    C7F16287   4.199   1.019   3.397 -0.2354 -0.5898  0.6697
  147OSM    H7F16288   4.189   0.968   3.299 -1.8009 -0.7502  0.8918
  147OSM    H7G16289   4.163   1.122   3.376 -0.5464 -0.8721 -0.2204
  147OSM    C8F16290   4.108   0.940   3.494 -0.0390  0.7216  0.0837
  147OSM    H8F16291   4.165   0.847   3.517  3.2853  2.2774 -1.3647
  147OSM    H8G16292   4.009   0.919   3.446 -0.5870 -1.1204  1.8562
  147OSM    C9F16293   4.087   1.035   3.612  0.2077 -0.0633 -0.0945
  147OSM    H9F16294   4.013   1.115   3.600  1.9579  1.3589 -2.0052
  147OSM   C10F16295   4.142   1.020   3.734 -0.3697 -0.1190  0.2201
  147OSM   H10F16296   4.103   1.089   3.809 -3.9168 -1.1047 -0.5570
  147OSM   C11F16297   4.263   0.925   3.769  0.3940 -0.0350  0.3041
  147OSM   H11F16298   4.354   0.968   3.723  1.1847  0.0495  1.8886
  147OSM   H11G16299   4.248   0.824   3.726 -2.3484  1.1266 -1.7517
  147OSM   C12F16300   4.277   0.923   3.920 -0.1934 -0.0238  0.7392
  147OSM   H12F16301   4.275   1.024   3.966 -1.2893 -0.4652  1.7125
  147OSM   H12G16302   4.377   0.875   3.928 -0.4607 -0.4602  1.6055
  147OSM   C13F16303   4.177   0.834   3.999  0.4118  0.4395  0.5156
  147OSM   H13F16304   4.182   0.731   3.958 -0.7199 -0.0545  1.5570
  147OSM   H13G16305   4.071   0.863   3.983 -0.2016 -0.8209  2.0750
  147OSM   C14F16306   4.200   0.806   4.144  0.1640 -0.0374 -0.0743
  147OSM   H14F16307   4.166   0.892   4.206 -0.6364  2.4266 -3.5966
  147OSM   H14G16308   4.309   0.791   4.158  0.4047  1.0458 -0.6559
  147OSM   C15F16309   4.143   0.681   4.205  0.1666  0.3203 -0.0567
  147OSM   H15F16310   4.177   0.598   4.141  1.3986  0.6839  0.0897
  147OSM   H15G16311   4.033   0.675   4.220  0.3406 -1.4937  0.7677
  147OSM   C16F16312   4.201   0.657   4.341 -0.1984  0.0194 -0.2247
  147OSM   H16F16313   4.192   0.737   4.418  0.3275 -0.0334 -0.1048
  147OSM   H16G16314   4.309   0.631   4.334  0.1304  0.9520  0.9234
  147OSM   C17F16315   4.130   0.537   4.404 -0.5861 -0.3923  0.4577
  147OSM   H17F16316   4.162   0.458   4.333 -0.3480  0.4380 -0.3765
  147OSM   H17G16317   4.020   0.548   4.411 -0.3129  1.6549  3.4771
  147OSM   C18F16318   4.187   0.503   4.548 -0.2117 -0.5661  0.9882
  147OSM   H18F16319   4.294   0.530   4.553  0.1544 -1.5258 -0.7590
  147OSM   H18G16320   4.168   0.399   4.581 -0.0255 -0.6976  0.6867
  147OSM   H18H16321   4.145   0.571   4.624  0.7349  0.1696  0.8688
  148OSM      N16322   4.524   2.144   2.119  0.0975 -0.1632  0.3431
  148OSM    C1516323   4.620   2.215   2.029 -0.5398 -0.2654 -0.6441
  148OSM   H15A16324   4.661   2.294   2.089 -2.0285 -0.7340  1.0760
  148OSM   H15B16325   4.579   2.271   1.945 -1.3251  1.7683  1.0062
  148OSM   H15C16326   4.701   2.154   1.992  0.4119  1.4005 -1.4517
  148OSM    C1416327   4.496   2.013   2.054  0.0728 -0.4139 -0.3495
  148OSM   H14A16328   4.431   2.032   1.969 -0.2721  0.9909  0.2073
  148OSM   H14B16329   4.439   1.949   2.120 -0.3118  1.6264  1.4191
  148OSM   H14C16330   4.592   1.966   2.045 -0.2532 -1.5399  1.5026
  148OSM    C1316331   4.584   2.123   2.250 -0.0315  0.3451 -0.6527
  148OSM   H13A16332   4.675   2.065   2.244 -0.9573 -1.5286  1.6284
  148OSM   H13B16333   4.517   2.055   2.301  1.8054 -1.3712 -0.3856
  148OSM   H13C16334   4.598   2.212   2.310  2.7848 -2.0065  2.5477
  148OSM    C1216335   4.392   2.216   2.132  0.3514 -0.2300  0.1567
  148OSM   H12A16336   4.324   2.160   2.195  1.3100  1.4853  2.9206
  148OSM   H12B16337   4.347   2.216   2.034  0.1114 -2.4841  0.2236
  148OSM    C1116338   4.389   2.355   2.203 -0.1358  0.2631  0.4710
  148OSM   H11A16339   4.289   2.399   2.185 -0.0747  0.0498 -0.4465
  148OSM   H11B16340   4.459   2.424   2.152  2.4523 -1.8449  0.9228
  148OSM      P16341   4.321   2.405   2.451 -0.2035  0.2868 -0.0894
  148OSM    O1316342   4.330   2.551   2.461 -0.0509 -0.1443 -0.1062
  148OSM    O1416343   4.187   2.345   2.434 -0.4095 -0.1388  0.1173
  148OSM    O1116344   4.372   2.340   2.581 -0.0700  0.2064  0.2345
  148OSM    O1216345   4.424   2.348   2.340  0.4960 -0.3815  0.1569
  148OSM    C1S16346   4.506   2.358   2.635  0.5496  0.3035  1.0244
  148OSM    H1S16347   4.566   2.440   2.589  0.2433  0.9417  1.7393
  148OSM    H1T16348   4.570   2.268   2.626  1.1617  0.5621  2.4756
  148OSM     NF16349   4.616   2.456   2.838  0.3736  0.1552 -0.7585
  148OSM    HNF16350   4.679   2.401   2.893  0.4368  0.9458 -0.0128
  148OSM    C2S16351   4.500   2.395   2.784 -0.1533 -0.1193  0.5877
  148OSM    H2S16352   4.415   2.461   2.813 -1.7870 -2.3058  1.0715
  148OSM    C3S16353   4.452   2.265   2.867 -0.0001 -0.1213 -0.6169
  148OSM    H3S16354   4.541   2.198   2.861  0.8125  0.7812  0.7029
  148OSM     O316355   4.334   2.200   2.812 -0.5061 -0.5319 -0.5539
  148OSM    HO316356   4.329   2.237   2.723  2.2120  0.6975 -0.3202
  148OSM    C4S16357   4.427   2.296   3.007 -0.5106 -0.1717 -0.1417
  148OSM    H4S16358   4.369   2.386   3.031 -2.8258 -1.6931  0.2993
  148OSM    C5S16359   4.472   2.224   3.116  0.4415  0.1286  0.1935
  148OSM    H5S16360   4.539   2.138   3.105  1.5953  0.3268  4.1086
  148OSM    C6S16361   4.445   2.270   3.256  0.3243  0.2192 -0.2874
  148OSM    H6S16362   4.347   2.240   3.298  0.5480 -0.0906  0.0190
  148OSM    H6T16363   4.434   2.381   3.251  0.2748  0.1646 -1.8967
  148OSM    C7S16364   4.564   2.221   3.345  0.6139 -0.1141  0.3213
  148OSM    H7S16365   4.661   2.258   3.304  1.1508 -1.8317 -0.0613
  148OSM    H7T16366   4.565   2.110   3.357 -1.0177 -0.1085  0.7701
  148OSM    C8S16367   4.543   2.256   3.492  0.0928 -0.2351 -0.8979
  148OSM    H8S16368   4.445   2.217   3.528  0.4761 -0.4279 -0.0400
  148OSM    H8T16369   4.548   2.365   3.511 -0.9801 -0.3762  0.3373
  148OSM    C9S16370   4.648   2.186   3.583  0.0004 -0.7339  0.0889
  148OSM    H9S16371   4.751   2.187   3.542 -0.8810 -1.0647 -2.2487
  148OSM    H9T16372   4.624   2.082   3.614  0.7327 -0.5554  1.3366
  148OSM   C10S16373   4.633   2.256   3.716  1.0195  0.1774 -0.2096
  148OSM   H10S16374   4.527   2.239   3.743  0.0668  1.1266 -2.9675
  148OSM   H10T16375   4.648   2.366   3.717  0.0139  0.3422  1.9861
  148OSM   C11S16376   4.725   2.197   3.826  0.2034 -0.0676  0.7670
  148OSM   H11S16377   4.829   2.224   3.797 -0.0364  0.8761  0.7497
  148OSM   H11T16378   4.726   2.086   3.821  2.5858 -0.0819  0.7268
  148OSM   C12S16379   4.702   2.255   3.964  0.0216  0.1229 -0.4094
  148OSM   H12S16380   4.624   2.200   4.021  2.0649 -0.9750  1.4911
  148OSM   H12T16381   4.672   2.362   3.954  2.0079  0.5998 -1.8620
  148OSM   C13S16382   4.823   2.240   4.057 -0.5969 -0.7200 -0.9011
  148OSM   H13S16383   4.922   2.255   4.007 -0.4374 -0.5594 -0.5412
  148OSM   H13T16384   4.839   2.134   4.083  1.6590 -0.3423 -0.5488
  148OSM   C14S16385   4.809   2.317   4.191 -0.7111 -0.0823  0.2764
  148OSM   H14S16386   4.812   2.425   4.169 -1.5342  0.3976  2.2654
  148OSM   H14T16387   4.890   2.284   4.260 -0.8740  0.4979  0.7549
  148OSM   C15S16388   4.678   2.271   4.265 -0.2467  0.3068  0.0007
  148OSM   H15S16389   4.588   2.288   4.202 -0.0965  1.5699  0.0983
  148OSM   H15T16390   4.676   2.331   4.359  2.0735  0.0694  0.2515
  148OSM   C16S16391   4.671   2.122   4.307 -0.3250  0.2119 -0.5172
  148OSM   H16S16392   4.703   2.065   4.217  1.4733  0.9676 -0.3930
  148OSM   H16T16393   4.565   2.090   4.320 -0.2524  0.2134  0.0757
  148OSM   C17S16394   4.737   2.090   4.440  0.4168  0.8132 -0.1047
  148OSM   H17S16395   4.822   2.160   4.454  0.2171  0.8325  1.1395
  148OSM   H17T16396   4.776   1.986   4.445  0.3180  0.7860  0.1497
  148OSM   C18S16397   4.644   2.104   4.561 -0.1688 -0.3867 -0.3339
  148OSM   H18S16398   4.627   2.211   4.587  1.5312 -0.1440 -0.0931
  148OSM   H18T16399   4.696   2.048   4.642  0.8536  1.1390  0.1405
  148OSM   H18U16400   4.547   2.053   4.546  1.0949 -3.2154  0.4850
  148OSM    C1F16401   4.637   2.590   2.811 -0.3729 -0.0675 -0.3680
  148OSM     OF16402   4.572   2.639   2.725 -0.1194 -0.0762 -0.1754
  148OSM    C2F16403   4.756   2.656   2.874 -0.4299  0.0369 -0.3485
  148OSM    H2F16404   4.817   2.701   2.792  0.0078  4.0026  1.9489
  148OSM    H2G16405   4.813   2.584   2.938  0.9999 -0.2542 -1.8680
  148OSM    C3F16406   4.710   2.767   2.968 -0.1988 -0.4735 -0.3007
  148OSM    H3F16407   4.656   2.845   2.911  2.4525  1.5052 -0.3113
  148OSM    H3G16408   4.808   2.802   3.007  0.4327 -1.6682 -0.7653
  148OSM    C4F16409   4.617   2.733   3.089 -0.5421  0.1433  0.3199
  148OSM    H4F16410   4.530   2.686   3.039 -1.6042  1.7573  0.5877
  148OSM    H4G16411   4.588   2.827   3.141 -1.7718 -0.9592  1.7451
  148OSM    C5F16412   4.670   2.624   3.189 -0.5301 -0.8999 -0.2364
  148OSM    H5F16413   4.768   2.652   3.233  0.3786 -2.9152 -0.8484
  148OSM    H5G16414   4.681   2.527   3.135  3.4740 -0.6297 -0.2051
  148OSM    C6F16415   4.575   2.600   3.304 -0.6251 -0.7462 -0.5532
  148OSM    H6F16416   4.615   2.514   3.361 -2.0615 -1.1916 -0.1760
  148OSM    H6G16417   4.478   2.569   3.259 -0.0715 -0.8332 -1.7157
  148OSM    C7F16418   4.545   2.714   3.408 -0.3873  0.2518  0.3907
  148OSM    H7F16419   4.481   2.786   3.353 -0.4512  1.7477  2.3178
  148OSM    H7G16420   4.643   2.756   3.439  0.8149 -2.3333  0.3148
  148OSM    C8F16421   4.491   2.652   3.535  0.8038  0.5648  0.4776
  148OSM    H8F16422   4.571   2.588   3.577  1.1520 -1.1179 -2.4962
  148OSM    H8G16423   4.403   2.586   3.517  0.1750  0.8992  2.1166
  148OSM    C9F16424   4.444   2.751   3.648  0.0105  0.0842 -0.2348
  148OSM    H9F16425   4.373   2.826   3.612  0.1245  0.0115 -0.6211
  148OSM   C10F16426   4.500   2.753   3.772 -0.0280 -0.2677  0.1879
  148OSM   H10F16427   4.449   2.808   3.853 -1.3369 -1.7273  0.4006
  148OSM   C11F16428   4.597   2.658   3.828 -0.0018 -0.2004 -0.2931
  148OSM   H11F16429   4.592   2.563   3.769  1.1141  0.8185 -2.1099
  148OSM   H11G16430   4.583   2.631   3.935  1.8734 -0.3635 -0.0557
  148OSM   C12F16431   4.740   2.702   3.821  0.4354  0.0815 -0.3757
  148OSM   H12F16432   4.751   2.801   3.870  0.5364  1.7129 -3.4611
  148OSM   H12G16433   4.774   2.716   3.716  0.9684  2.5882  0.0706
  148OSM   C13F16434   4.845   2.613   3.892 -0.2197 -0.0861  0.3704
  148OSM   H13F16435   4.858   2.520   3.831 -0.2573 -0.4673  0.9381
  148OSM   H13G16436   4.805   2.581   3.990 -1.0372 -0.9956 -0.2343
  148OSM   C14F16437   4.979   2.680   3.907 -0.1236 -0.6655  0.0500
  148OSM   H14F16438   5.002   2.727   3.808 -0.9646  0.5117  0.3870
  148OSM   H14G16439   5.053   2.598   3.917  0.1113 -0.7468 -1.9028
  148OSM   C15F16440   5.016   2.783   4.018  0.3085  0.4125 -0.5031
  148OSM   H15F16441   4.951   2.873   4.009  0.7375  0.7010 -0.7626
  148OSM   H15G16442   5.121   2.805   3.990  0.2189 -2.2763 -3.5476
  148OSM   C16F16443   5.030   2.726   4.163 -0.1100 -0.4357 -0.1784
  148OSM   H16F16444   4.923   2.722   4.192 -0.1621 -0.3175 -0.3570
  148OSM   H16G16445   5.076   2.807   4.223 -0.0752 -0.5848 -0.0018
  148OSM   C17F16446   5.098   2.594   4.179  0.1535  0.2389  0.0778
  148OSM   H17F16447   5.198   2.596   4.131  0.6727  1.7670  1.1523
  148OSM   H17G16448   5.037   2.519   4.124  0.5790 -0.7399  0.8970
  148OSM   C18F16449   5.119   2.529   4.320 -0.1708 -1.0225 -0.4436
  148OSM   H18F16450   5.174   2.434   4.311  0.4264 -0.8252  0.8163
  148OSM   H18G16451   5.028   2.511   4.383 -0.6341  1.8396 -0.1447
  148OSM   H18H16452   5.180   2.598   4.383 -1.7024 -1.5211  1.7210
  149OSM      N16453   6.192   3.415   1.925 -0.0434  0.5899  0.8566
  149OSM    C1516454   6.178   3.341   1.791  0.5265 -0.1356  0.3628
  149OSM   H15A16455   6.266   3.356   1.731 -0.5116  0.7183 -0.9993
  149OSM   H15B16456   6.102   3.372   1.721  2.3893  1.4765 -1.0312
  149OSM   H15C16457   6.156   3.238   1.816 -2.9117  0.4047  0.0621
  149OSM    C1416458   6.295   3.345   2.012  0.1765 -0.6341 -0.6471
  149OSM   H14A16459   6.261   3.248   2.046 -0.2816 -1.1246 -2.3986
  149OSM   H14B16460   6.319   3.393   2.106 -1.4934 -2.3375  0.7449
  149OSM   H14C16461   6.390   3.331   1.964  0.1398 -0.0708 -0.8915
  149OSM    C1316462   6.243   3.557   1.893  0.3533 -0.0953 -0.0640
  149OSM   H13A16463   6.176   3.615   1.832  0.3039 -0.6856 -0.5853
  149OSM   H13B16464   6.337   3.560   1.839 -1.1410 -2.0605 -3.0749
  149OSM   H13C16465   6.264   3.603   1.988  1.0066 -0.9996  0.2481
  149OSM    C1216466   6.060   3.417   1.994  1.3169 -0.7244 -0.3043
  149OSM   H12A16467   6.004   3.325   2.000 -1.5396  0.8951 -0.3256
  149OSM   H12B16468   5.995   3.465   1.922 -0.1597  0.4344  1.6771
  149OSM    C1116469   6.061   3.480   2.140  0.3168  0.5335  0.9496
  149OSM   H11A16470   6.130   3.567   2.144  0.4111  0.4566  1.0131
  149OSM   H11B16471   6.099   3.400   2.207 -1.3337 -1.1457 -0.0238
  149OSM      P16472   5.826   3.421   2.220 -0.1496  0.1708  0.1106
  149OSM    O1316473   5.695   3.491   2.227 -0.6428 -0.0327  0.4256
  149OSM    O1416474   5.838   3.304   2.136 -0.1191  0.1877 -0.2715
  149OSM    O1116475   5.865   3.390   2.369 -0.0643 -0.3688  0.5573
  149OSM    O1216476   5.930   3.525   2.181  0.0075 -0.0081  0.1876
  149OSM    C1S16477   5.841   3.484   2.473 -0.2416  0.0257  0.4683
  149OSM    H1S16478   5.760   3.557   2.457 -1.7117 -1.8414 -1.0634
  149OSM    H1T16479   5.940   3.534   2.480  1.0637 -2.2229 -0.4948
  149OSM     NF16480   5.761   3.489   2.706  0.4298 -0.6147 -0.0146
  149OSM    HNF16481   5.817   3.511   2.785 -2.1918  1.6665  1.3898
  149OSM    C2S16482   5.812   3.404   2.596  0.4079  0.5906  0.4359
  149OSM    H2S16483   5.723   3.342   2.576 -0.2763  1.8815 -0.6482
  149OSM    C3S16484   5.937   3.316   2.628  0.0792 -0.2289 -0.3927
  149OSM    H3S16485   6.021   3.388   2.635 -1.1830  1.1737  0.8927
  149OSM     O316486   5.972   3.210   2.537 -0.1341  0.4335  0.0138
  149OSM    HO316487   5.921   3.225   2.456 -0.6646  1.2202  0.4880
  149OSM    C4S16488   5.923   3.254   2.763  0.2064 -0.6995 -0.3726
  149OSM    H4S16489   5.837   3.186   2.771  0.1830 -0.5746  0.6691
  149OSM    C5S16490   5.995   3.275   2.873 -0.7341 -0.1094 -0.0925
  149OSM    H5S16491   6.089   3.331   2.879 -2.2333  2.4304  1.3787
  149OSM    C6S16492   5.956   3.205   3.008  0.0205  0.5409  0.7633
  149OSM    H6S16493   6.012   3.111   3.027 -0.1562  0.9386  3.8947
  149OSM    H6T16494   5.849   3.179   3.023  0.1762  0.2087  1.3352
  149OSM    C7S16495   5.975   3.288   3.134  0.8648 -0.3647  0.1615
  149OSM    H7S16496   5.902   3.370   3.122 -0.2595 -1.1652  1.2514
  149OSM    H7T16497   6.074   3.338   3.124  0.0363  0.9844 -1.9331
  149OSM    C8S16498   5.960   3.215   3.269  0.1991  0.5182  0.2510
  149OSM    H8S16499   6.024   3.125   3.281 -0.6106 -0.2249 -0.7860
  149OSM    H8T16500   5.857   3.174   3.263 -0.4513  1.7673  2.1193
  149OSM    C9S16501   5.990   3.299   3.395 -0.2109  0.0625  0.7369
  149OSM    H9S16502   5.889   3.329   3.431 -0.3534 -1.5449  1.7916
  149OSM    H9T16503   6.038   3.392   3.359 -0.6867  0.1230  0.2502
  149OSM   C10S16504   6.075   3.233   3.504 -0.3531 -0.0423 -0.4481
  149OSM   H10S16505   6.181   3.245   3.471  0.2129  0.3453  1.3818
  149OSM   H10T16506   6.042   3.127   3.512  0.3648 -0.2837 -0.5845
  149OSM   C11S16507   6.070   3.292   3.647 -0.7130  0.4999 -0.2481
  149OSM   H11S16508   5.970   3.258   3.681 -1.0098  2.6624  1.2227
  149OSM   H11T16509   6.070   3.403   3.653  1.8996  0.6946 -1.9383
  149OSM   C12S16510   6.184   3.236   3.735 -0.0041 -0.5582 -0.1617
  149OSM   H12S16511   6.281   3.251   3.681 -0.4636 -2.8281 -1.7524
  149OSM   H12T16512   6.180   3.125   3.734  4.1330 -0.8784  1.0776
  149OSM   C13S16513   6.166   3.281   3.880 -0.2741 -0.6451 -0.1874
  149OSM   H13S16514   6.075   3.238   3.926  0.0665 -0.6731  0.4787
  149OSM   H13T16515   6.141   3.389   3.886  0.3570 -0.3353 -2.2207
  149OSM   C14S16516   6.287   3.253   3.968 -0.2480 -0.6207  0.0505
  149OSM   H14S16517   6.373   3.312   3.930 -1.2767 -1.7284 -4.5132
  149OSM   H14T16518   6.306   3.144   3.965  3.0259 -0.1272 -2.5761
  149OSM   C15S16519   6.261   3.286   4.116 -0.0985 -0.6997  0.2169
  149OSM   H15S16520   6.188   3.225   4.174  2.0987 -2.5435  1.1995
  149OSM   H15T16521   6.214   3.386   4.121 -1.6795 -1.4618  1.4400
  149OSM   C16S16522   6.395   3.278   4.192 -0.2765  0.6307 -0.4375
  149OSM   H16S16523   6.452   3.373   4.180  1.2110 -0.3428 -1.5197
  149OSM   H16T16524   6.461   3.194   4.161 -0.0398  0.5038  0.3745
  149OSM   C17S16525   6.372   3.243   4.342  0.3793  0.1895  0.3226
  149OSM   H17S16526   6.470   3.216   4.389  0.9558  0.0840 -0.9040
  149OSM   H17T16527   6.313   3.150   4.343 -0.9250  0.9937 -0.0246
  149OSM   C18S16528   6.302   3.337   4.428  0.3014  0.5573 -0.2301
  149OSM   H18S16529   6.341   3.441   4.424 -0.4996  0.8478 -0.5134
  149OSM   H18T16530   6.307   3.313   4.537 -1.0615  0.7609 -0.1143
  149OSM   H18U16531   6.196   3.327   4.397  0.0645 -0.0622  0.7205
  149OSM    C1F16532   5.632   3.545   2.697 -0.1653 -0.1424 -0.6429
  149OSM     OF16533   5.558   3.516   2.604  0.1675 -0.5141  0.1262
  149OSM    C2F16534   5.588   3.629   2.814 -1.5606 -0.5231 -0.1824
  149OSM    H2F16535   5.602   3.730   2.769  0.4372 -0.8768 -0.4566
  149OSM    H2G16536   5.658   3.597   2.894 -1.8299 -3.1488 -0.9127
  149OSM    C3F16537   5.443   3.612   2.858 -0.5742  0.4743 -0.0323
  149OSM    H3F16538   5.374   3.630   2.772 -0.8665  2.4130  0.5664
  149OSM    H3G16539   5.406   3.687   2.930  0.2248  0.8979 -0.0610
  149OSM    C4F16540   5.411   3.467   2.908 -0.7986 -0.6403 -0.3131
  149OSM    H4F16541   5.456   3.399   2.833  1.1447 -0.5294  0.6907
  149OSM    H4G16542   5.300   3.472   2.911 -0.8312  0.7731 -1.9297
  149OSM    C5F16543   5.480   3.422   3.037 -0.1750  1.0118 -0.0839
  149OSM    H5F16544   5.571   3.485   3.047  1.9941 -1.8247 -0.7186
  149OSM    H5G16545   5.531   3.324   3.026 -0.6766  0.9280 -2.0339
  149OSM    C6F16546   5.399   3.432   3.167 -0.0640 -0.2204 -0.4313
  149OSM    H6F16547   5.313   3.363   3.175 -1.6137  1.6520 -0.3010
  149OSM    H6G16548   5.360   3.536   3.165 -2.8307 -1.2132 -1.2825
  149OSM    C7F16549   5.488   3.423   3.295  0.5201 -0.4532 -0.6662
  149OSM    H7F16550   5.421   3.447   3.380  0.9927  0.3168 -0.5056
  149OSM    H7G16551   5.571   3.497   3.302  0.2383 -0.1204 -0.8050
  149OSM    C8F16552   5.551   3.290   3.304  0.4969  0.1438  0.2850
  149OSM    H8F16553   5.626   3.293   3.385  1.7110  0.4069 -0.8073
  149OSM    H8G16554   5.615   3.283   3.214 -1.0379 -1.7640 -0.7445
  149OSM    C9F16555   5.460   3.171   3.311 -0.5531  0.0015  0.4428
  149OSM    H9F16556   5.467   3.104   3.225 -1.9552  2.9868 -2.1722
  149OSM   C10F16557   5.379   3.140   3.413 -0.0178  0.2913 -0.8106
  149OSM   H10F16558   5.334   3.040   3.407  2.8131 -1.6173  4.1375
  149OSM   C11F16559   5.357   3.210   3.546 -0.4571 -0.3279  0.1638
  149OSM   H11F16560   5.278   3.160   3.605  0.7958 -0.0403  2.1839
  149OSM   H11G16561   5.321   3.315   3.539  4.0287  1.3486 -1.7387
  149OSM   C12F16562   5.480   3.198   3.639 -0.4025 -0.6239 -0.0982
  149OSM   H12F16563   5.572   3.213   3.580 -1.7454  0.2913 -2.0708
  149OSM   H12G16564   5.473   3.092   3.669 -0.5435 -0.4443  0.5202
  149OSM   C13F16565   5.479   3.289   3.762  0.4233 -0.6999 -0.4596
  149OSM   H13F16566   5.379   3.300   3.809  0.6989 -2.5742  0.6704
  149OSM   H13G16567   5.508   3.390   3.726 -0.1201 -0.8358 -1.3261
  149OSM   C14F16568   5.581   3.248   3.875  0.0207 -0.1819 -0.6205
  149OSM   H14F16569   5.682   3.232   3.831  0.8732 -2.5602  1.9491
  149OSM   H14G16570   5.544   3.150   3.912  1.0765  1.1172  4.7539
  149OSM   C15F16571   5.571   3.333   3.996  0.1925  0.3294 -0.2017
  149OSM   H15F16572   5.467   3.326   4.034  0.1116 -3.3489 -0.7353
  149OSM   H15G16573   5.601   3.437   3.973  3.1181 -0.2450  0.5876
  149OSM   C16F16574   5.652   3.275   4.111  0.0945  0.1319 -0.1640
  149OSM   H16F16575   5.625   3.169   4.131  0.6592  0.6592  4.7974
  149OSM   H16G16576   5.627   3.322   4.209  0.5240 -0.4174  0.2210
  149OSM   C17F16577   5.804   3.270   4.091 -0.5260  0.6098  0.9095
  149OSM   H17F16578   5.827   3.198   4.010  2.2633 -1.3748  3.2611
  149OSM   H17G16579   5.852   3.229   4.183 -1.3771 -1.5623  0.4483
  149OSM   C18F16580   5.867   3.403   4.054 -0.1099 -0.6276  0.0739
  149OSM   H18F16581   5.852   3.431   3.947  0.9102 -1.7042 -0.3791
  149OSM   H18G16582   5.977   3.404   4.066  0.2145 -0.7016 -2.3202
  149OSM   H18H16583   5.821   3.481   4.118 -0.0224 -1.5633  1.3096
  150OSM      N16584   1.317   5.130   1.804  0.2974  0.3862 -0.2208
  150OSM    C1516585   1.462   5.130   1.784 -0.3252 -0.2552  0.3140
  150OSM   H15A16586   1.496   5.217   1.729  1.7535 -0.4299  1.2495
  150OSM   H15B16587   1.500   5.042   1.734  0.0551  1.2019 -2.1506
  150OSM   H15C16588   1.530   5.144   1.866  0.3416  0.0513 -0.2739
  150OSM    C1416589   1.264   5.264   1.841 -0.1954 -0.5729 -0.1938
  150OSM   H14A16590   1.157   5.266   1.829 -0.2419  1.9481  0.2360
  150OSM   H14B16591   1.300   5.343   1.777 -1.9097  0.3874 -0.0259
  150OSM   H14C16592   1.288   5.293   1.942  1.1245 -1.4484 -0.2268
  150OSM    C1316593   1.261   5.092   1.665 -0.2878  0.0952  0.3548
  150OSM   H13A16594   1.154   5.083   1.659 -0.0951 -2.7967 -0.2151
  150OSM   H13B16595   1.307   5.000   1.630 -1.1062 -1.0069  2.0181
  150OSM   H13C16596   1.295   5.168   1.597 -1.4566  0.6221  0.3463
  150OSM    C1216597   1.271   5.026   1.904  0.5258 -0.4491 -0.2451
  150OSM   H12A16598   1.302   4.931   1.865  1.5561 -0.0452 -0.4434
  150OSM   H12B16599   1.163   5.034   1.907  0.6054  0.9278 -0.4164
  150OSM    C1116600   1.332   5.037   2.045 -0.0128  0.8674 -0.2512
  150OSM   H11A16601   1.274   4.962   2.103  0.2827 -0.9506 -2.2089
  150OSM   H11B16602   1.311   5.137   2.090  0.3232  0.2738  1.2680
  150OSM      P16603   1.529   4.872   2.012 -0.3985  0.3511  0.1256
  150OSM    O1316604   1.453   4.820   1.897  0.1327  0.0581 -0.6990
  150OSM    O1416605   1.675   4.895   1.993  0.4900  0.2891 -0.0912
  150OSM    O1116606   1.500   4.781   2.136  0.1900  0.6196  0.2638
  150OSM    O1216607   1.471   5.012   2.056 -0.1916 -0.0741 -0.8507
  150OSM    C1S16608   1.534   4.803   2.273  0.2066 -0.3052 -0.2661
  150OSM    H1S16609   1.460   4.872   2.317  0.4290 -0.6175  0.6132
  150OSM    H1T16610   1.634   4.842   2.298 -0.1901  0.2670  0.4553
  150OSM     NF16611   1.544   4.684   2.500  0.7269 -0.3819 -0.0302
  150OSM    HNF16612   1.637   4.692   2.535  0.2324  0.8428  1.1002
  150OSM    C2S16613   1.526   4.674   2.355 -0.1001  0.4658 -0.4208
  150OSM    H2S16614   1.430   4.617   2.349  0.7643 -1.2030  0.6815
  150OSM    C3S16615   1.629   4.570   2.291 -0.0392 -0.0765 -0.1180
  150OSM    H3S16616   1.733   4.610   2.293 -0.2179  1.0360 -4.5053
  150OSM     O316617   1.609   4.547   2.148 -0.4055 -0.1139 -0.4074
  150OSM    HO316618   1.544   4.615   2.129 -0.3811  0.0362  0.0253
  150OSM    C4S16619   1.633   4.437   2.358  0.1284 -0.3819 -0.8516
  150OSM    H4S16620   1.554   4.367   2.327 -1.9238  0.2042  2.5853
  150OSM    C5S16621   1.736   4.393   2.437 -0.6151  0.9349 -0.4388
  150OSM    H5S16622   1.818   4.462   2.465 -0.7573  0.4893  1.1316
  150OSM    C6S16623   1.761   4.254   2.497 -0.5057 -0.8037 -0.5668
  150OSM    H6S16624   1.871   4.239   2.503 -0.7011 -2.8403 -1.3459
  150OSM    H6T16625   1.730   4.174   2.427  0.6130 -3.1312  1.4352
  150OSM    C7S16626   1.693   4.216   2.638 -0.2077 -0.1882 -0.3956
  150OSM    H7S16627   1.696   4.107   2.656 -3.2783 -0.3169 -0.1657
  150OSM    H7T16628   1.585   4.240   2.644  0.0802  1.0532  0.0939
  150OSM    C8S16629   1.764   4.292   2.751  0.4706 -0.4717 -0.5415
  150OSM    H8S16630   1.871   4.295   2.720  0.1892 -1.3306 -1.6124
  150OSM    H8T16631   1.760   4.233   2.845  0.2395 -0.6721 -0.6749
  150OSM    C9S16632   1.720   4.439   2.779  0.0777  0.7301  0.4105
  150OSM    H9S16633   1.610   4.446   2.795  0.3162  0.5991  2.3009
  150OSM    H9T16634   1.751   4.511   2.700  0.3734  0.7771  0.5660
  150OSM   C10S16635   1.785   4.492   2.909  0.8968  0.9117 -0.5605
  150OSM   H10S16636   1.767   4.601   2.917 -0.8300  0.8073 -2.4020
  150OSM   H10T16637   1.895   4.473   2.908  1.0490  1.7880 -1.8427
  150OSM   C11S16638   1.721   4.430   3.037  0.4370 -0.4820 -0.1809
  150OSM   H11S16639   1.709   4.320   3.025 -3.5160 -0.2796  0.5803
  150OSM   H11T16640   1.616   4.464   3.040 -0.0488 -1.9882  0.8949
  150OSM   C12S16641   1.803   4.469   3.158  0.2541 -0.6006 -0.8624
  150OSM   H12S16642   1.806   4.580   3.165 -0.2824 -0.6813  2.5289
  150OSM   H12T16643   1.907   4.437   3.137  0.7416  0.7257 -0.5367
  150OSM   C13S16644   1.752   4.412   3.284  0.3178  0.1283 -0.3600
  150OSM   H13S16645   1.727   4.307   3.257 -0.6361  0.6873 -1.7524
  150OSM   H13T16646   1.655   4.457   3.315  0.3076  0.2428 -0.5543
  150OSM   C14S16647   1.849   4.409   3.413  0.1696 -0.1963 -0.0375
  150OSM   H14S16648   1.909   4.502   3.421 -0.3715  0.1403  0.2000
  150OSM   H14T16649   1.926   4.332   3.393 -0.1145 -0.9721  1.7456
  150OSM   C15S16650   1.762   4.395   3.537 -0.5212  0.3754 -0.4158
  150OSM   H15S16651   1.698   4.304   3.530 -1.7442  1.2781 -1.4707
  150OSM   H15T16652   1.684   4.474   3.542 -0.9220 -0.0591  2.0541
  150OSM   C16S16653   1.855   4.392   3.660 -0.1309  0.0770 -0.1883
  150OSM   H16S16654   1.913   4.485   3.640  1.4682 -0.8041  0.1860
  150OSM   H16T16655   1.919   4.301   3.654 -1.3342 -0.6839 -2.4531
  150OSM   C17S16656   1.765   4.381   3.786  0.1444  0.5251  0.6064
  150OSM   H17S16657   1.678   4.312   3.782  1.4569 -1.2978  1.7258
  150OSM   H17T16658   1.721   4.480   3.810 -2.3735 -0.7940  1.9044
  150OSM   C18S16659   1.847   4.328   3.911  0.9263  0.4599  0.2562
  150OSM   H18S16660   1.773   4.337   3.993  0.3458  1.6771 -0.3762
  150OSM   H18T16661   1.931   4.396   3.936  1.0367  0.4175  0.0073
  150OSM   H18U16662   1.887   4.225   3.897  1.4038  0.7397 -0.5247
  150OSM    C1F16663   1.442   4.717   2.577  0.2193 -0.3707  0.0844
  150OSM     OF16664   1.334   4.740   2.531  0.1186 -0.3247  0.7990
  150OSM    C2F16665   1.470   4.723   2.728 -0.1441 -0.0017  0.3187
  150OSM    H2F16666   1.558   4.788   2.747 -1.8204  2.6973 -0.5838
  150OSM    H2G16667   1.481   4.626   2.780  1.5326  0.2095  0.4328
  150OSM    C3F16668   1.358   4.785   2.815 -0.2544  0.1468  0.2322
  150OSM    H3F16669   1.268   4.730   2.779 -1.8526  3.6388 -1.6425
  150OSM    H3G16670   1.341   4.894   2.804  2.1878  0.6740  1.0867
  150OSM    C4F16671   1.387   4.758   2.969  0.1195 -0.2493  0.1078
  150OSM    H4F16672   1.446   4.665   2.979  0.3217 -0.3812 -1.9556
  150OSM    H4G16673   1.286   4.752   3.016 -0.3355  2.3633 -0.3679
  150OSM    C5F16674   1.457   4.868   3.049  0.7682 -0.8277  0.4857
  150OSM    H5F16675   1.416   4.968   3.023 -1.0312 -1.8904 -0.9808
  150OSM    H5G16676   1.565   4.871   3.024  0.5018  0.7288 -0.6236
  150OSM    C6F16677   1.458   4.859   3.202 -0.3343  0.7623 -0.3619
  150OSM    H6F16678   1.356   4.855   3.246 -0.7354 -1.7091 -1.3336
  150OSM    H6G16679   1.515   4.943   3.246  0.2266 -0.9677  2.4173
  150OSM    C7F16680   1.534   4.735   3.255  0.3102 -0.3629  0.2640
  150OSM    H7F16681   1.623   4.707   3.195  0.0922 -3.5920  1.2612
  150OSM    H7G16682   1.455   4.658   3.242  0.7535 -1.0930  1.6799
  150OSM    C8F16683   1.576   4.737   3.400  0.0426 -0.5136  0.3298
  150OSM    H8F16684   1.677   4.781   3.413 -0.7344  2.0022 -1.2832
  150OSM    H8G16685   1.568   4.637   3.447 -1.2692  0.0042  1.2798
  150OSM    C9F16686   1.486   4.810   3.494 -0.9012  0.0947  0.0007
  150OSM    H9F16687   1.381   4.822   3.463 -1.5857  1.5000  2.6591
  150OSM   C10F16688   1.533   4.871   3.602 -0.3335  0.2178 -0.2058
  150OSM   H10F16689   1.469   4.930   3.669  3.4011  2.2783  1.9169
  150OSM   C11F16690   1.672   4.858   3.660 -0.1228  0.2222 -0.3777
  150OSM   H11F16691   1.741   4.920   3.598  1.5352 -1.1748 -0.0018
  150OSM   H11G16692   1.720   4.759   3.650  1.9900  1.1678 -0.1721
  150OSM   C12F16693   1.677   4.905   3.808 -0.0937  0.1112 -0.2588
  150OSM   H12F16694   1.783   4.894   3.839 -0.0277 -0.9021 -0.8004
  150OSM   H12G16695   1.618   4.834   3.868 -1.7263  1.8565  0.3076
  150OSM   C13F16696   1.622   5.038   3.840  0.6656 -0.4781 -0.4189
  150OSM   H13F16697   1.512   5.029   3.838  0.3439  1.0379  2.7557
  150OSM   H13G16698   1.661   5.113   3.768  4.3986  0.5728  2.3473
  150OSM   C14F16699   1.655   5.089   3.985 -0.1390 -0.1758  1.0589
  150OSM   H14F16700   1.619   5.194   3.986  1.3175  0.3646  0.6586
  150OSM   H14G16701   1.763   5.081   4.011  0.5631  0.2957 -1.4414
  150OSM   C15F16702   1.574   5.005   4.087 -0.0931 -0.5003 -0.4255
  150OSM   H15F16703   1.597   4.898   4.069 -1.0037 -0.6906 -0.5253
  150OSM   H15G16704   1.468   5.017   4.056  0.3843  0.1034 -1.9258
  150OSM   C16F16705   1.589   5.038   4.241  0.2078 -0.2264 -0.4180
  150OSM   H16F16706   1.597   5.148   4.250  1.8703 -0.2126 -1.5334
  150OSM   H16G16707   1.676   4.980   4.279  1.1369  1.0144 -0.6085
  150OSM   C17F16708   1.465   5.000   4.322 -0.2588 -0.0914  0.1817
  150OSM   H17F16709   1.441   4.894   4.301  0.3554  0.0896 -1.5737
  150OSM   H17G16710   1.372   5.047   4.285  0.7939  1.2523 -0.8241
  150OSM   C18F16711   1.486   5.023   4.470  0.3359  0.0331 -0.4849
  150OSM   H18F16712   1.405   4.963   4.517 -1.1683  0.5939 -2.2487
  150OSM   H18G16713   1.479   5.132   4.493  0.9757 -0.0383  0.0673
  150OSM   H18H16714   1.579   4.979   4.512 -0.9978 -2.1550  0.3796
  151OSM      N16715   0.866   3.750   2.115 -0.4328 -0.1779  0.0673
  151OSM    C1516716   0.722   3.778   2.067 -0.9930  0.4961 -0.1833
  151OSM   H15A16717   0.667   3.847   2.129 -0.9600 -0.1972  0.6299
  151OSM   H15B16718   0.667   3.686   2.074  0.7047 -0.4462  1.5502
  151OSM   H15C16719   0.726   3.818   1.966 -0.4380  1.5893  0.2476
  151OSM    C1416720   0.855   3.698   2.262 -0.0146  0.0333  0.0362
  151OSM   H14A16721   0.794   3.609   2.272  1.6783 -1.3746 -1.4342
  151OSM   H14B16722   0.809   3.778   2.318  1.1697 -0.2013  1.4083
  151OSM   H14C16723   0.952   3.691   2.310  1.8346  0.5397 -3.3480
  151OSM    C1316724   0.920   3.643   2.031 -0.2804 -0.0887 -0.0487
  151OSM   H13A16725   1.020   3.616   2.061  0.0147  0.3364 -0.6346
  151OSM   H13B16726   0.935   3.673   1.929  0.1238  0.0305  0.0455
  151OSM   H13C16727   0.850   3.561   2.026  1.1588 -1.2933 -2.4660
  151OSM    C1216728   0.956   3.877   2.121 -0.3129 -0.3201 -0.5480
  151OSM   H12A16729   0.902   3.952   2.176  0.3414  0.6431 -1.1856
  151OSM   H12B16730   0.965   3.909   2.018 -0.3981 -0.0865 -0.4819
  151OSM    C1116731   1.098   3.866   2.195 -0.1558 -0.3303  0.0192
  151OSM   H11A16732   1.067   3.846   2.300  0.3823 -1.3158  0.0000
  151OSM   H11B16733   1.145   3.966   2.191 -0.7862  0.1046  2.0346
  151OSM      P16734   1.253   3.652   2.211 -0.2462 -0.1094 -0.6140
  151OSM    O1316735   1.177   3.531   2.183 -0.0663  0.2779  0.1283
  151OSM    O1416736   1.401   3.649   2.194  0.1483 -0.3168  0.0419
  151OSM    O1116737   1.222   3.695   2.365 -0.6614 -0.4778  0.2624
  151OSM    O1216738   1.186   3.767   2.129  0.8429 -0.5180 -0.2340
  151OSM    C1S16739   1.264   3.592   2.463 -0.5169 -0.0652 -0.0490
  151OSM    H1S16740   1.371   3.565   2.446 -1.0476 -2.0515 -0.5446
  151OSM    H1T16741   1.202   3.500   2.452 -1.1372  0.4038 -0.6200
  151OSM     NF16742   1.311   3.539   2.697  0.7074  0.3838  1.1512
  151OSM    HNF16743   1.250   3.486   2.754 -0.1051 -0.6597 -0.6194
  151OSM    C2S16744   1.239   3.637   2.609 -0.5122 -0.5396 -0.0844
  151OSM    H2S16745   1.301   3.727   2.631 -0.0228 -1.2085  1.4944
  151OSM    C3S16746   1.093   3.665   2.650 -0.3592  0.5143 -0.1307
  151OSM    H3S16747   1.024   3.581   2.628  0.0286 -0.2989  1.5962
  151OSM     O316748   1.046   3.780   2.577 -0.0208  0.0788 -0.2340
  151OSM    HO316749   1.110   3.779   2.506  1.3410 -1.9535  0.9305
  151OSM    C4S16750   1.097   3.691   2.793 -0.0113  0.2321  0.3113
  151OSM    H4S16751   1.059   3.600   2.842  0.3929 -0.3710 -0.4747
  151OSM    C5S16752   1.125   3.796   2.865 -0.4604 -0.2751 -0.4837
  151OSM    H5S16753   1.168   3.887   2.820 -0.4704 -0.3282 -0.6017
  151OSM    C6S16754   1.117   3.811   3.014 -0.4960 -0.2129 -0.1934
  151OSM    H6S16755   1.024   3.869   3.032  0.4609  1.6113 -0.8977
  151OSM    H6T16756   1.216   3.849   3.049 -0.2337 -0.6071 -0.4937
  151OSM    C7S16757   1.088   3.685   3.103 -0.6677 -0.0749  0.0056
  151OSM    H7S16758   1.178   3.620   3.115 -1.0828 -0.4642  1.1314
  151OSM    H7T16759   1.011   3.621   3.055  1.4257 -1.0277 -2.3549
  151OSM    C8S16760   1.051   3.720   3.249  0.0446 -0.4724 -0.3809
  151OSM    H8S16761   1.016   3.627   3.299  0.1572  0.1700  0.9516
  151OSM    H8T16762   0.961   3.786   3.252  0.0767 -0.3699  3.1126
  151OSM    C9S16763   1.165   3.788   3.329 -0.1421 -0.5388  0.7221
  151OSM    H9S16764   1.160   3.898   3.314  0.4029 -0.4100  1.4331
  151OSM    H9T16765   1.259   3.751   3.283  0.2132 -1.4195  2.0953
  151OSM   C10S16766   1.158   3.760   3.480  0.3948 -0.0404  0.2437
  151OSM   H10S16767   1.237   3.686   3.507  0.1513  0.1430  1.5359
  151OSM   H10T16768   1.063   3.708   3.503  0.3773 -0.1931 -0.1780
  151OSM   C11S16769   1.166   3.884   3.566 -0.3836  0.8011  0.2267
  151OSM   H11S16770   1.091   3.958   3.531 -0.8393  0.8276  1.2135
  151OSM   H11T16771   1.272   3.916   3.577 -0.4323  0.2903  2.6214
  151OSM   C12S16772   1.111   3.853   3.706  0.0467 -0.4490 -0.1060
  151OSM   H12S16773   1.002   3.838   3.720  0.2991 -0.5453  2.0540
  151OSM   H12T16774   1.128   3.946   3.765  0.0869 -0.8651  0.5473
  151OSM   C13S16775   1.182   3.741   3.778  0.7707 -0.4103  0.0102
  151OSM   H13S16776   1.291   3.761   3.768  0.2649  2.9427 -0.1543
  151OSM   H13T16777   1.160   3.648   3.721  0.4169  0.0816 -0.6784
  151OSM   C14S16778   1.132   3.736   3.924 -0.1687  0.1760 -0.5388
  151OSM   H14S16779   1.021   3.733   3.930 -0.2821  0.1442 -2.2196
  151OSM   H14T16780   1.172   3.826   3.974 -0.8029 -0.5727  1.4160
  151OSM   C15S16781   1.201   3.620   3.993 -0.5488  0.6227 -0.0446
  151OSM   H15S16782   1.311   3.636   3.989 -0.3717 -0.6064 -0.6445
  151OSM   H15T16783   1.173   3.529   3.937 -4.5542  1.7365 -0.1223
  151OSM   C16S16784   1.155   3.609   4.135 -0.8699  0.2671 -0.0143
  151OSM   H16S16785   1.046   3.632   4.143 -0.4983  1.8506  0.7163
  151OSM   H16T16786   1.203   3.676   4.209 -1.2225 -0.9950  1.3928
  151OSM   C17S16787   1.183   3.465   4.189 -0.2250  0.2577  0.2170
  151OSM   H17S16788   1.284   3.458   4.233 -0.6511  1.7136  1.5044
  151OSM   H17T16789   1.180   3.392   4.105 -0.4721  0.9671 -0.4019
  151OSM   C18S16790   1.070   3.417   4.284 -0.2504  0.4545 -0.4136
  151OSM   H18S16791   1.065   3.467   4.383 -1.3626  0.6301 -0.5434
  151OSM   H18T16792   1.077   3.306   4.288 -1.6774  0.3210 -1.0708
  151OSM   H18U16793   0.973   3.441   4.237 -0.2923  0.9330 -0.0933
  151OSM    C1F16794   1.443   3.522   2.711 -0.3704 -0.2656  0.3537
  151OSM     OF16795   1.521   3.584   2.637  0.3693 -0.1192 -0.1601
  151OSM    C2F16796   1.489   3.416   2.807  0.0992 -0.2732  0.0695
  151OSM    H2F16797   1.597   3.393   2.803  0.5672  1.2446  2.0245
  151OSM    H2G16798   1.430   3.327   2.777  0.1467 -0.3095  0.0836
  151OSM    C3F16799   1.453   3.452   2.955 -0.7285 -0.0825 -0.6026
  151OSM    H3F16800   1.354   3.501   2.960  1.4452  4.7500  0.6755
  151OSM    H3G16801   1.530   3.520   2.998 -1.4661  0.0788  0.5194
  151OSM    C4F16802   1.448   3.330   3.057 -0.5308 -0.3874  0.4484
  151OSM    H4F16803   1.549   3.288   3.074 -0.9607 -1.6123  0.0389
  151OSM    H4G16804   1.386   3.242   3.028  0.4672 -1.5667  1.8165
  151OSM    C5F16805   1.393   3.371   3.195  0.6580  0.1307  0.2856
  151OSM    H5F16806   1.295   3.421   3.179  1.2618  1.4710  0.6591
  151OSM    H5G16807   1.461   3.441   3.247 -1.4588  2.2858  0.3574
  151OSM    C6F16808   1.369   3.250   3.287  0.6193  0.3833  0.1121
  151OSM    H6F16809   1.442   3.169   3.263  0.6671  0.1454  1.0253
  151OSM    H6G16810   1.268   3.204   3.288  1.8482 -2.5609 -0.5647
  151OSM    C7F16811   1.401   3.288   3.429 -0.6771 -0.3091 -0.4799
  151OSM    H7F16812   1.497   3.344   3.434 -1.9845  2.0768 -0.4467
  151OSM    H7G16813   1.423   3.196   3.487  0.6470 -0.8919 -1.8612
  151OSM    C8F16814   1.294   3.385   3.501  0.6825 -0.3607 -0.3917
  151OSM    H8F16815   1.192   3.341   3.501  0.8698 -0.8194  0.3498
  151OSM    H8G16816   1.275   3.478   3.444 -0.5098  0.4768  1.2782
  151OSM    C9F16817   1.351   3.412   3.636 -0.4353 -0.1222  0.3941
  151OSM    H9F16818   1.431   3.487   3.645 -0.6593  0.3749 -1.3423
  151OSM   C10F16819   1.320   3.346   3.750 -0.3263 -0.9295 -1.0329
  151OSM   H10F16820   1.380   3.366   3.839 -1.7827  0.8570 -0.3730
  151OSM   C11F16821   1.218   3.238   3.773 -0.4290  0.4132 -0.1589
  151OSM   H11F16822   1.139   3.247   3.695 -0.5800 -0.1021 -0.0693
  151OSM   H11G16823   1.160   3.249   3.867  0.6234  1.4153  0.4069
  151OSM   C12F16824   1.269   3.093   3.764  0.3910 -0.4486 -0.5276
  151OSM   H12F16825   1.317   3.071   3.666  0.5508 -1.3406 -0.2575
  151OSM   H12G16826   1.180   3.029   3.781 -1.8128  2.0804 -1.7985
  151OSM   C13F16827   1.366   3.055   3.875 -0.0872  0.3038 -0.1647
  151OSM   H13F16828   1.445   3.133   3.882 -0.7599  0.9004  1.2272
  151OSM   H13G16829   1.408   2.958   3.842 -0.4942  0.1092 -0.1167
  151OSM   C14F16830   1.299   3.049   4.014  0.1729 -0.0705 -0.0337
  151OSM   H14F16831   1.211   2.981   4.000  0.4675 -0.4992  0.1775
  151OSM   H14G16832   1.258   3.148   4.044  0.6265 -0.6075  2.5972
  151OSM   C15F16833   1.385   2.995   4.134  0.4470 -0.1244 -0.0554
  151OSM   H15F16834   1.409   2.887   4.123 -1.4575 -0.5523 -0.3515
  151OSM   H15G16835   1.323   2.989   4.226 -0.2612 -1.2952 -0.5836
  151OSM   C16F16836   1.510   3.073   4.175 -0.4135  0.3889  0.8949
  151OSM   H16F16837   1.572   3.104   4.088 -0.7013  0.6470  0.7814
  151OSM   H16G16838   1.571   3.000   4.232  0.6587  1.2795  0.9136
  151OSM   C17F16839   1.480   3.201   4.254 -0.7278 -0.1544  0.2090
  151OSM   H17F16840   1.400   3.171   4.325 -1.2895 -2.2723 -1.1873
  151OSM   H17G16841   1.429   3.278   4.192 -0.3195 -1.3105 -1.6731
  151OSM   C18F16842   1.595   3.260   4.323 -0.1560 -0.5212 -0.2894
  151OSM   H18F16843   1.663   3.301   4.245  0.8554 -2.5472 -0.5471
  151OSM   H18G16844   1.641   3.177   4.381 -0.4593  0.3686  1.2931
  151OSM   H18H16845   1.567   3.347   4.386  0.8319  0.2731 -0.9154
  152OSM      N16846   3.512   3.467   2.024 -0.6995 -0.4304  1.3556
  152OSM    C1516847   3.449   3.489   1.891  0.2643  0.1544  0.4537
  152OSM   H15A16848   3.344   3.468   1.874  0.3815  1.2588 -1.8590
  152OSM   H15B16849   3.493   3.428   1.813 -0.7067 -0.4848  0.3870
  152OSM   H15C16850   3.463   3.593   1.866 -0.7548  0.0069 -0.8510
  152OSM    C1416851   3.662   3.493   2.008  0.1605  0.7135 -0.5929
  152OSM   H14A16852   3.667   3.597   1.982 -0.2167  0.1907 -2.9946
  152OSM   H14B16853   3.708   3.428   1.935 -1.8769 -1.4104 -0.1048
  152OSM   H14C16854   3.707   3.472   2.104 -0.2677  0.1976 -0.4976
  152OSM    C1316855   3.450   3.570   2.109  0.1375 -0.1860 -0.0147
  152OSM   H13A16856   3.344   3.574   2.093 -0.1294  0.8881  1.7150
  152OSM   H13B16857   3.474   3.671   2.077 -1.5868 -0.0803 -1.0565
  152OSM   H13C16858   3.480   3.557   2.212  3.0004 -1.7020 -0.9241
  152OSM    C1216859   3.484   3.330   2.065 -0.5447  0.4358  0.5211
  152OSM   H12A16860   3.513   3.261   1.987 -0.8056 -0.1848  0.9680
  152OSM   H12B16861   3.378   3.313   2.079 -0.5146  1.8569  2.8919
  152OSM    C1116862   3.546   3.287   2.196  0.5176  0.0463  0.2255
  152OSM   H11A16863   3.524   3.367   2.270 -1.5003 -0.0619 -0.2009
  152OSM   H11B16864   3.656   3.277   2.188  0.6061  0.5942  0.7144
  152OSM      P16865   3.575   3.036   2.244 -0.2226  0.1489 -0.3048
  152OSM    O1316866   3.490   2.916   2.234  0.2629 -0.5783 -0.6323
  152OSM    O1416867   3.689   3.047   2.151 -0.3526  0.6772 -0.4350
  152OSM    O1116868   3.621   3.035   2.398  0.9171  0.1500 -0.3472
  152OSM    O1216869   3.484   3.165   2.231  0.1560  0.1252 -0.1270
  152OSM    C1S16870   3.523   3.067   2.497  0.2846 -0.0764 -0.2140
  152OSM    H1S16871   3.421   3.025   2.488 -0.0337  0.4253  0.8807
  152OSM    H1T16872   3.524   3.178   2.500 -2.2241 -0.0233  1.0122
  152OSM     NF16873   3.455   3.013   2.740  0.6244  0.4447  0.7878
  152OSM    HNF16874   3.428   3.089   2.799 -2.3523  0.6182 -0.6306
  152OSM    C2S16875   3.564   3.025   2.643  0.7781  0.5837  0.4410
  152OSM    H2S16876   3.594   2.919   2.625  1.6972  1.1669 -1.8332
  152OSM    C3S16877   3.684   3.110   2.688  0.1576  0.2296 -0.0467
  152OSM    H3S16878   3.646   3.214   2.688 -0.2397  0.1019  1.1117
  152OSM     O316879   3.792   3.120   2.602 -0.2772  0.0813  0.4323
  152OSM    HO316880   3.755   3.068   2.530 -2.9743  1.3746  0.7490
  152OSM    C4S16881   3.745   3.057   2.816  0.0950 -0.0739  0.3037
  152OSM    H4S16882   3.768   2.954   2.787  1.4742  0.8501 -2.1420
  152OSM    C5S16883   3.799   3.117   2.924  0.6789  0.1677 -0.1280
  152OSM    H5S16884   3.796   3.226   2.938 -2.1998  0.2908 -1.1333
  152OSM    C6S16885   3.885   3.054   3.029 -0.5299 -0.9868 -0.2634
  152OSM    H6S16886   3.971   3.121   3.050 -0.9658 -0.9352  1.4667
  152OSM    H6T16887   3.915   2.951   3.001 -0.5693 -0.7968 -1.0317
  152OSM    C7S16888   3.793   3.043   3.157  0.1123 -0.3583 -0.0102
  152OSM    H7S16889   3.710   2.970   3.141 -0.7006  0.8229 -1.4285
  152OSM    H7T16890   3.743   3.141   3.174 -2.1221 -0.8611 -2.8010
  152OSM    C8S16891   3.877   3.006   3.282  0.4747 -0.3632  1.0763
  152OSM    H8S16892   3.968   3.070   3.287 -0.4572  1.4675 -2.1411
  152OSM    H8T16893   3.920   2.905   3.298  2.0662  0.2177  0.7199
  152OSM    C9S16894   3.798   3.031   3.411  0.8115 -0.5215  0.1519
  152OSM    H9S16895   3.708   2.966   3.421  1.0381 -1.1181 -1.4156
  152OSM    H9T16896   3.746   3.129   3.418 -2.1149 -1.9073 -0.5740
  152OSM   C10S16897   3.878   3.022   3.537 -0.4037 -0.6828 -0.2954
  152OSM   H10S16898   3.828   3.073   3.622  3.1041  1.1649  0.8512
  152OSM   H10T16899   3.969   3.084   3.526 -1.0032  0.6866  1.7933
  152OSM   C11S16900   3.938   2.887   3.581 -0.2117  0.3987  0.4465
  152OSM   H11S16901   4.005   2.848   3.502 -0.9376  1.7349 -0.8759
  152OSM   H11T16902   3.854   2.817   3.600  0.1907 -0.5139 -0.9883
  152OSM   C12S16903   4.018   2.881   3.712  0.4489 -0.1202 -0.3867
  152OSM   H12S16904   4.080   2.973   3.710 -1.1975  1.0711  0.6970
  152OSM   H12T16905   4.085   2.794   3.694  0.5586  0.2001 -1.5777
  152OSM   C13S16906   3.949   2.880   3.848  0.4428  0.5555  0.9719
  152OSM   H13S16907   3.914   2.780   3.884 -3.3763  1.3856 -0.0048
  152OSM   H13T16908   3.858   2.943   3.840 -0.4775 -0.9556 -1.6456
  152OSM   C14S16909   4.052   2.922   3.959  0.0001 -0.0040  0.5360
  152OSM   H14S16910   4.127   2.998   3.927 -0.5312  0.7824  1.1018
  152OSM   H14T16911   4.108   2.833   3.994 -1.7714 -1.0238  0.9419
  152OSM   C15S16912   3.981   2.978   4.087  1.0837 -0.2083  0.2054
  152OSM   H15S16913   4.059   2.978   4.166  0.4874 -1.6845  0.8392
  152OSM   H15T16914   3.907   2.906   4.128  2.3093 -0.5077  2.0077
  152OSM   C16S16915   3.929   3.121   4.069  0.0648 -0.4708  0.0363
  152OSM   H16S16916   3.878   3.124   3.970 -0.5842  2.8544  0.3835
  152OSM   H16T16917   4.010   3.195   4.053 -1.3934  0.9416 -1.1707
  152OSM   C17S16918   3.840   3.179   4.183 -0.1988  0.1330  0.4270
  152OSM   H17S16919   3.800   3.272   4.136  0.8215  0.5726  0.4122
  152OSM   H17T16920   3.901   3.210   4.270 -0.5717 -0.0565  0.7602
  152OSM   C18S16921   3.719   3.080   4.220  0.1644 -0.0836 -0.9181
  152OSM   H18S16922   3.685   3.025   4.129 -0.1329 -0.2797 -0.6908
  152OSM   H18T16923   3.640   3.137   4.272  1.5346  1.2511 -0.2328
  152OSM   H18U16924   3.764   3.001   4.285  1.2780 -0.4806 -2.1200
  152OSM    C1F16925   3.371   2.913   2.722  0.6343  1.1562  0.1293
  152OSM     OF16926   3.400   2.815   2.648 -0.4234  0.4538  0.1389
  152OSM    C2F16927   3.232   2.925   2.785  0.3545 -0.3150  0.3277
  152OSM    H2F16928   3.167   2.868   2.715  1.4336 -2.7547  1.2003
  152OSM    H2G16929   3.204   3.032   2.796 -0.8401 -0.4340 -1.1447
  152OSM    C3F16930   3.241   2.862   2.923 -0.3861  0.0515 -0.1334
  152OSM    H3F16931   3.336   2.871   2.979 -1.2044 -0.5189  1.4144
  152OSM    H3G16932   3.238   2.753   2.903 -0.8156 -0.1956  1.1365
  152OSM    C4F16933   3.133   2.879   3.021 -0.6239 -0.4266 -0.5174
  152OSM    H4F16934   3.036   2.865   2.968 -0.3750  1.2369 -1.4919
  152OSM    H4G16935   3.140   2.986   3.052 -0.3026 -1.4110  3.3915
  152OSM    C5F16936   3.164   2.790   3.146 -0.1732  0.1322 -0.6931
  152OSM    H5F16937   3.271   2.798   3.174 -0.8483 -0.5842  2.5542
  152OSM    H5G16938   3.153   2.684   3.115 -0.4740  0.0989 -0.4876
  152OSM    C6F16939   3.084   2.821   3.270  0.1239 -0.6434 -0.4795
  152OSM    H6F16940   2.980   2.783   3.270  0.4265 -1.7001  2.1997
  152OSM    H6G16941   3.089   2.931   3.285  0.8328 -0.8455  0.9246
  152OSM    C7F16942   3.158   2.756   3.388 -0.0149  0.2281  0.2637
  152OSM    H7F16943   3.262   2.793   3.405  0.5052 -1.5840  1.2538
  152OSM    H7G16944   3.165   2.648   3.364 -0.3047 -0.0962  1.6123
  152OSM    C8F16945   3.079   2.774   3.519  0.6311  0.0895 -0.0077
  152OSM    H8F16946   3.048   2.874   3.557 -0.7172 -1.1518  2.3871
  152OSM    H8G16947   3.154   2.740   3.594  0.0498  1.0624  1.0433
  152OSM    C9F16948   2.959   2.685   3.513  0.2415 -0.0039  0.9294
  152OSM    H9F16949   2.879   2.737   3.457  0.6193 -0.2951  0.1022
  152OSM   C10F16950   2.946   2.568   3.568  0.5874  0.2455 -0.0229
  152OSM   H10F16951   2.848   2.521   3.550  1.3247 -1.7819  1.0037
  152OSM   C11F16952   3.050   2.489   3.652 -0.0413  0.1002  0.1618
  152OSM   H11F16953   3.151   2.532   3.640 -0.9070  1.8171 -1.4703
  152OSM   H11G16954   3.061   2.386   3.613  0.6843 -0.1250  0.9292
  152OSM   C12F16955   3.037   2.490   3.805  0.7823 -0.2636  0.3386
  152OSM   H12F16956   3.119   2.426   3.846  0.6010 -0.2080  0.8008
  152OSM   H12G16957   2.938   2.446   3.829  0.5747  0.4786  0.9035
  152OSM   C13F16958   3.039   2.622   3.872 -0.1977 -0.5631  0.1394
  152OSM   H13F16959   2.957   2.684   3.829  1.1127  1.1459  0.0196
  152OSM   H13G16960   3.130   2.677   3.840 -2.3868  1.8525 -2.3845
  152OSM   C14F16961   3.028   2.599   4.024  0.0892 -0.1985 -0.3140
  152OSM   H14F16962   3.037   2.492   4.051  2.9450  0.0605  0.1099
  152OSM   H14G16963   2.931   2.643   4.058 -0.2367 -0.7895 -0.4690
  152OSM   C15F16964   3.146   2.659   4.104  0.4372 -0.5573 -0.6468
  152OSM   H15F16965   3.155   2.767   4.081 -0.3034  0.3129  2.6428
  152OSM   H15G16966   3.237   2.610   4.063 -0.3692 -3.1677  0.4816
  152OSM   C16F16967   3.135   2.625   4.253 -0.6793 -0.1652  0.0721
  152OSM   H16F16968   3.086   2.527   4.266 -2.9405  0.7705 -0.9443
  152OSM   H16G16969   3.066   2.703   4.291  0.3579  0.8451 -0.0435
  152OSM   C17F16970   3.275   2.637   4.312  0.9129 -0.6753 -0.4663
  152OSM   H17F16971   3.329   2.553   4.262  1.5588 -0.1550 -0.6500
  152OSM   H17G16972   3.269   2.611   4.420  2.6270 -0.1625 -0.2166
  152OSM   C18F16973   3.360   2.770   4.296  0.7714  1.2863  0.2654
  152OSM   H18F16974   3.398   2.780   4.192  0.5256  0.6779  0.1139
  152OSM   H18G16975   3.458   2.778   4.349  0.9291 -0.6835  0.3432
  152OSM   H18H16976   3.310   2.865   4.324 -0.3295  1.3271 -1.6740
  153OSM      N16977   4.970   3.361   2.105  0.2958 -0.1712  0.6521
  153OSM    C1516978   5.004   3.217   2.060 -0.0350  0.3145 -0.0457
  153OSM   H15A16979   4.964   3.142   2.126  0.3997 -0.2623 -0.4218
  153OSM   H15B16980   5.112   3.203   2.062  0.1785  1.7660  1.4926
  153OSM   H15C16981   4.973   3.197   1.959 -0.2239  2.7259 -0.5293
  153OSM    C1416982   4.923   3.362   2.243 -0.2123 -0.0574 -0.4519
  153OSM   H14A16983   4.821   3.326   2.241 -1.0770  2.2674 -0.9706
  153OSM   H14B16984   4.921   3.462   2.284 -0.6941 -0.6645  1.0685
  153OSM   H14C16985   4.970   3.285   2.302 -1.5789 -1.3430 -0.9488
  153OSM    C1316986   5.092   3.446   2.106  0.0864  0.0954 -0.6531
  153OSM   H13A16987   5.152   3.390   2.176 -1.3186 -1.8322 -0.9093
  153OSM   H13B16988   5.071   3.544   2.146 -2.2782 -0.1707 -1.1044
  153OSM   H13C16989   5.144   3.450   2.011 -1.6487 -0.5889 -1.6951
  153OSM    C1216990   4.860   3.402   2.008 -0.4609 -0.1150 -1.0027
  153OSM   H12A16991   4.785   3.325   2.000 -2.0959  1.4772 -1.7360
  153OSM   H12B16992   4.913   3.404   1.913  0.6513  1.2586 -0.3868
  153OSM    C1116993   4.794   3.534   2.039  0.0017 -0.3052  0.2227
  153OSM   H11A16994   4.762   3.578   1.942  2.9091  0.1594 -0.6193
  153OSM   H11B16995   4.874   3.600   2.078  2.2506 -2.1379 -1.0314
  153OSM      P16996   4.546   3.450   2.063 -0.4220  0.1258 -0.1693
  153OSM    O1316997   4.489   3.557   1.984  0.2776 -0.1928 -0.2282
  153OSM    O1416998   4.570   3.317   2.002 -0.0009  0.3344 -0.0798
  153OSM    O1116999   4.462   3.426   2.186  0.2456 -0.0638 -0.1855
  153OSM    O1217000   4.680   3.503   2.129  0.2582  0.3143  0.4407
  153OSM    C1S17001   4.516   3.365   2.305 -1.0611  0.4136  0.8695
  153OSM    H1S17002   4.614   3.406   2.334 -0.4620  0.6715 -1.3083
  153OSM    H1T17003   4.520   3.254   2.295 -1.3898  0.5161 -0.7024
  153OSM     NF17004   4.499   3.378   2.559 -0.2156 -0.2994 -0.0456
  153OSM    HNF17005   4.455   3.316   2.624 -2.1877  1.1037  0.0639
  153OSM    C2S17006   4.432   3.403   2.431 -0.3817 -0.4630 -0.7022
  153OSM    H2S17007   4.417   3.512   2.416  0.4567 -0.6186 -3.0692
  153OSM    C3S17008   4.287   3.346   2.423 -0.6602 -0.1045 -0.0164
  153OSM    H3S17009   4.288   3.235   2.421  1.1193 -0.1227  0.3760
  153OSM     O317010   4.220   3.389   2.311 -0.6472 -0.0883  0.0923
  153OSM    HO317011   4.296   3.408   2.256 -0.2633  1.1727  1.0212
  153OSM    C4S17012   4.192   3.379   2.547  0.2418  0.2846  0.7373
  153OSM    H4S17013   4.151   3.288   2.592 -1.1127  1.1933  1.3998
  153OSM    C5S17014   4.164   3.498   2.608 -0.9165  0.1360 -0.0342
  153OSM    H5S17015   4.204   3.594   2.572  1.5947 -0.5155  0.8256
  153OSM    C6S17016   4.068   3.512   2.722 -0.3159 -0.2623  0.6718
  153OSM    H6S17017   4.126   3.492   2.815  2.0994 -3.9239 -1.3538
  153OSM    H6T17018   3.989   3.435   2.708 -0.5130  0.0178  0.2524
  153OSM    C7S17019   4.000   3.652   2.716 -0.3278  0.5670 -0.5865
  153OSM    H7S17020   3.946   3.664   2.620  0.4011  2.6287 -0.7894
  153OSM    H7T17021   4.084   3.725   2.717  1.6261 -1.5766  0.6543
  153OSM    C8S17022   3.902   3.687   2.827  0.6430  0.7073  0.5133
  153OSM    H8S17023   3.827   3.611   2.796  2.6697 -0.5230 -1.6692
  153OSM    H8T17024   3.858   3.788   2.810 -0.6380  0.3604  1.5576
  153OSM    C9S17025   3.965   3.679   2.964 -0.4252 -0.1592  0.1735
  153OSM    H9S17026   4.033   3.767   2.969  0.1818 -0.6469  0.7040
  153OSM    H9T17027   4.029   3.589   2.974 -0.6754 -0.3687 -0.1313
  153OSM   C10S17028   3.847   3.663   3.067  0.2908  0.3863  0.5894
  153OSM   H10S17029   3.760   3.615   3.019  1.0012 -0.6412  0.3101
  153OSM   H10T17030   3.822   3.764   3.108 -0.2266  0.1299  0.9266
  153OSM   C11S17031   3.880   3.569   3.188 -0.4637 -0.2957 -0.5024
  153OSM   H11S17032   3.975   3.607   3.231 -1.0104  0.7775 -0.1826
  153OSM   H11T17033   3.903   3.468   3.150  1.6166  0.4373 -1.3472
  153OSM   C12S17034   3.770   3.577   3.294 -0.2223 -0.5044  0.7355
  153OSM   H12S17035   3.669   3.564   3.250 -1.2256  2.5035  1.8392
  153OSM   H12T17036   3.765   3.679   3.339 -0.8222 -0.6323  0.9699
  153OSM   C13S17037   3.772   3.463   3.394  0.2757  0.2648 -0.7897
  153OSM   H13S17038   3.877   3.447   3.428  0.3490  1.5695 -0.3695
  153OSM   H13T17039   3.719   3.373   3.355 -1.5180  0.7883  0.3184
  153OSM   C14S17040   3.685   3.499   3.515  0.3414 -0.6132  0.4792
  153OSM   H14S17041   3.585   3.523   3.474  1.4859  1.7869 -1.1559
  153OSM   H14T17042   3.737   3.589   3.554 -1.5191  0.4041  0.7086
  153OSM   C15S17043   3.675   3.396   3.630 -0.0668  0.0053  1.0574
  153OSM   H15S17044   3.780   3.367   3.651 -0.3047 -2.4323 -0.7446
  153OSM   H15T17045   3.624   3.306   3.589  0.1920  1.3718 -2.6444
  153OSM   C16S17046   3.615   3.439   3.762 -0.2985  0.5246  0.6470
  153OSM   H16S17047   3.504   3.446   3.751 -0.8733 -2.1714  3.2428
  153OSM   H16T17048   3.665   3.530   3.802  0.2958 -0.2725  1.7467
  153OSM   C17S17049   3.642   3.343   3.877 -0.6295  0.2794  0.8912
  153OSM   H17S17050   3.568   3.341   3.960 -1.1248 -2.5528  0.4792
  153OSM   H17T17051   3.738   3.359   3.930 -0.9288  0.0415  1.5103
  153OSM   C18S17052   3.666   3.193   3.838  0.2522 -0.9557  0.5389
  153OSM   H18S17053   3.654   3.121   3.922 -1.1231 -0.1681  1.0571
  153OSM   H18T17054   3.770   3.177   3.802  1.1589 -0.4589  2.7934
  153OSM   H18U17055   3.585   3.173   3.763  0.9866  0.5459 -0.7064
  153OSM    C1F17056   4.628   3.417   2.591 -0.9739 -0.4149 -0.5327
  153OSM     OF17057   4.688   3.513   2.540 -0.4105  0.3318  0.1889
  153OSM    C2F17058   4.692   3.340   2.705  0.5530 -0.1299 -0.2608
  153OSM    H2F17059   4.670   3.231   2.706 -0.7836  0.1173  0.7798
  153OSM    H2G17060   4.649   3.390   2.795 -1.5114  0.1631 -1.3353
  153OSM    C3F17061   4.844   3.337   2.707 -0.7581 -0.2376 -0.4698
  153OSM    H3F17062   4.879   3.442   2.723 -1.4165 -0.0640 -0.1498
  153OSM    H3G17063   4.891   3.298   2.615  2.3839 -2.1324  1.7330
  153OSM    C4F17064   4.895   3.251   2.819 -0.5719  0.3659  0.5822
  153OSM    H4F17065   4.860   3.145   2.817 -0.3608  0.1550  3.3907
  153OSM    H4G17066   4.865   3.292   2.918  1.2878  1.0921  0.8856
  153OSM    C5F17067   5.048   3.247   2.821  1.0620  0.2708 -0.4362
  153OSM    H5F17068   5.080   3.346   2.859  1.2039  0.5767 -1.3294
  153OSM    H5G17069   5.100   3.244   2.723  2.3188  0.8432  0.1897
  153OSM    C6F17070   5.115   3.144   2.908 -0.5275  0.9408 -0.1683
  153OSM    H6F17071   5.226   3.150   2.905 -0.4070 -0.9478 -1.0286
  153OSM    H6G17072   5.078   3.046   2.871  2.6587 -1.3135  2.1111
  153OSM    C7F17073   5.069   3.141   3.053 -0.4258  0.1427  0.2290
  153OSM    H7F17074   4.960   3.123   3.068 -0.1085 -2.4167 -0.2254
  153OSM    H7G17075   5.096   3.243   3.088  3.5285 -0.4988 -0.5460
  153OSM    C8F17076   5.149   3.038   3.132  0.7802  0.3136 -0.0949
  153OSM    H8F17077   5.151   3.077   3.236  0.9292 -1.4388  0.5935
  153OSM    H8G17078   5.256   3.037   3.103  1.2925 -0.4011  1.6585
  153OSM    C9F17079   5.097   2.891   3.147  0.9350  0.4564  1.1793
  153OSM    H9F17080   5.099   2.839   3.049  0.0740  0.4699  1.1426
  153OSM   C10F17081   5.035   2.835   3.249  0.7958  0.1453 -0.9759
  153OSM   H10F17082   5.005   2.730   3.236 -0.9072  0.6097 -1.0368
  153OSM   C11F17083   5.014   2.892   3.389  0.8929  0.1160 -0.2844
  153OSM   H11F17084   5.106   2.948   3.416  0.0049  1.6046 -0.2594
  153OSM   H11G17085   5.008   2.807   3.460  1.3743 -0.2378 -0.6612
  153OSM   C12F17086   4.905   2.995   3.407 -0.3490 -0.5714 -0.9772
  153OSM   H12F17087   4.802   2.957   3.391  0.1793 -1.1051 -3.5321
  153OSM   H12G17088   4.921   3.075   3.332 -2.2458  0.5555 -0.2419
  153OSM   C13F17089   4.922   3.083   3.537  0.4671 -0.5105 -0.0117
  153OSM   H13F17090   4.851   3.169   3.531  1.4433  0.3332  0.1039
  153OSM   H13G17091   5.027   3.122   3.532 -0.5034  2.3153 -0.5667
  153OSM   C14F17092   4.905   3.003   3.668 -0.3043 -0.4512  0.4899
  153OSM   H14F17093   4.979   2.920   3.672  3.0128  2.2453 -0.7593
  153OSM   H14G17094   4.802   2.960   3.669  0.4839 -2.4316  0.8265
  153OSM   C15F17095   4.928   3.098   3.785 -0.3035 -0.0588  0.0474
  153OSM   H15F17096   4.880   3.041   3.868  2.0055  1.1351  2.3319
  153OSM   H15G17097   4.858   3.184   3.789 -2.0526 -1.4329  1.7625
  153OSM   C16F17098   5.071   3.134   3.813 -0.0584 -0.1007  0.2350
  153OSM   H16F17099   5.098   3.232   3.769  1.2968  0.4044  2.0900
  153OSM   H16G17100   5.144   3.051   3.803 -0.4163 -0.4443  0.4412
  153OSM   C17F17101   5.084   3.155   3.968 -0.3964 -0.4576  0.2560
  153OSM   H17F17102   5.013   3.082   4.014 -0.8027  0.8215  1.7401
  153OSM   H17G17103   5.048   3.259   3.979 -0.3298 -0.1323 -2.1531
  153OSM   C18F17104   5.230   3.129   4.023  0.0303 -0.1136 -0.6368
  153OSM   H18F17105   5.235   3.163   4.128  0.5906  0.0862 -0.7193
  153OSM   H18G17106   5.304   3.195   3.971  1.6326 -0.1121  1.5146
  153OSM   H18H17107   5.259   3.021   4.021  1.1550  0.1560  0.0392
  154OSM      N17108   2.823   1.369   2.337  0.1624 -0.1462 -1.0740
  154OSM    C1517109   2.858   1.360   2.481  0.0371 -0.0970  0.2206
  154OSM   H15A17110   2.770   1.331   2.536 -2.6171  1.3545 -2.8740
  154OSM   H15B17111   2.885   1.459   2.513 -0.7989 -0.2923  1.5891
  154OSM   H15C17112   2.947   1.301   2.500  1.0188  1.4183  0.4664
  154OSM    C1417113   2.773   1.243   2.278 -0.2262  0.5937  0.3120
  154OSM   H14A17114   2.781   1.262   2.172  2.6662  0.8890  0.5094
  154OSM   H14B17115   2.669   1.228   2.305 -0.6323  2.4749 -0.0727
  154OSM   H14C17116   2.838   1.164   2.313  0.4829  1.5875  1.2878
  154OSM    C1317117   2.727   1.470   2.321 -0.3591  0.5093 -0.0553
  154OSM   H13A17118   2.703   1.475   2.216  0.7334 -1.7638 -0.4543
  154OSM   H13B17119   2.757   1.564   2.365 -2.4669  0.8908  0.7184
  154OSM   H13C17120   2.633   1.442   2.367  1.0687 -4.9736  0.2121
  154OSM    C1217121   2.953   1.409   2.271  0.3844  0.7824 -0.0636
  154OSM   H12A17122   3.021   1.325   2.265  0.7777  1.1529 -0.9835
  154OSM   H12B17123   2.995   1.491   2.327  1.8524 -0.0379  0.0994
  154OSM    C1117124   2.956   1.455   2.121  0.2948 -0.2285  1.0106
  154OSM   H11A17125   2.927   1.369   2.057 -2.0312  1.7597 -0.7894
  154OSM   H11B17126   3.060   1.482   2.096  0.6393 -0.2162  2.3428
  154OSM      P17127   2.913   1.713   2.144  0.1953 -0.3464  0.1878
  154OSM    O1317128   3.039   1.757   2.079  0.0698 -0.1516 -0.2277
  154OSM    O1417129   2.790   1.796   2.124  0.4870  0.3219 -0.2460
  154OSM    O1117130   2.958   1.703   2.293  0.3236 -0.5666 -0.5146
  154OSM    O1217131   2.862   1.567   2.101 -0.1479 -0.2652  0.4385
  154OSM    C1S17132   2.887   1.791   2.382  0.2240  0.3998 -0.6997
  154OSM    H1S17133   2.778   1.769   2.383 -0.1745  2.1952 -0.9421
  154OSM    H1T17134   2.906   1.895   2.348  0.4439  0.2836 -0.9381
  154OSM     NF17135   2.841   1.829   2.625 -0.0400 -0.1613  0.2258
  154OSM    HNF17136   2.854   1.912   2.677  0.3151  0.3062 -0.5987
  154OSM    C2S17137   2.942   1.778   2.529  0.7908  0.4825 -0.0106
  154OSM    H2S17138   2.951   1.669   2.548 -1.5680  0.2078 -0.1689
  154OSM    C3S17139   3.083   1.847   2.538  0.0195  0.4228  0.4379
  154OSM    H3S17140   3.083   1.944   2.485  1.8492  0.0284 -0.3770
  154OSM     O317141   3.181   1.790   2.447  0.1259 -0.5336  0.6519
  154OSM    HO317142   3.131   1.758   2.371 -0.4337 -1.9713  1.5825
  154OSM    C4S17143   3.126   1.858   2.682 -0.1519  0.2174  0.5380
  154OSM    H4S17144   3.090   1.953   2.723 -1.6304  0.4380 -1.1383
  154OSM    C5S17145   3.220   1.783   2.753  0.6296 -0.1454 -0.5060
  154OSM    H5S17146   3.272   1.698   2.709  1.7204 -1.2827  2.6681
  154OSM    C6S17147   3.266   1.816   2.894 -0.4921  0.2973 -0.6194
  154OSM    H6S17148   3.212   1.755   2.969  0.2048  0.0407 -0.3133
  154OSM    H6T17149   3.260   1.926   2.913  0.1778  0.0189  1.5046
  154OSM    C7S17150   3.419   1.783   2.921  0.2917 -0.2115 -1.0062
  154OSM    H7S17151   3.475   1.834   2.839 -2.4761 -0.3959 -3.1474
  154OSM    H7T17152   3.424   1.674   2.903  1.1242 -0.3212 -0.1996
  154OSM    C8S17153   3.468   1.805   3.061  0.2306 -0.0453  0.8281
  154OSM    H8S17154   3.470   1.915   3.078 -2.0318  0.1770 -0.0232
  154OSM    H8T17155   3.572   1.769   3.073  0.4095  0.5443  1.0887
  154OSM    C9S17156   3.390   1.726   3.167 -1.0402 -0.3214 -0.4186
  154OSM    H9S17157   3.395   1.620   3.137 -1.6161 -0.2223 -0.8817
  154OSM    H9T17158   3.282   1.752   3.165 -0.4773  2.3678 -0.2890
  154OSM   C10S17159   3.434   1.736   3.316 -0.0361  0.4741  0.5790
  154OSM   H10S17160   3.440   1.837   3.360 -0.2426 -0.6238  3.3343
  154OSM   H10T17161   3.530   1.681   3.322 -1.3290 -1.7590  2.2665
  154OSM   C11S17162   3.348   1.658   3.421 -0.6306 -0.1812 -0.5759
  154OSM   H11S17163   3.334   1.553   3.389  3.3033 -0.8817 -0.4782
  154OSM   H11T17164   3.248   1.706   3.416  0.0774  1.3950 -0.5810
  154OSM   C12S17165   3.409   1.658   3.563  0.3790  0.6601 -0.2158
  154OSM   H12S17166   3.488   1.735   3.576  1.6430 -0.6516  0.1538
  154OSM   H12T17167   3.462   1.562   3.581 -0.5445  0.1492 -0.1416
  154OSM   C13S17168   3.301   1.667   3.671  0.2145  0.8477 -0.1503
  154OSM   H13S17169   3.255   1.566   3.676 -0.4185  1.1849  1.7874
  154OSM   H13T17170   3.217   1.732   3.637 -2.6832 -2.4628  0.0527
  154OSM   C14S17171   3.350   1.709   3.815  0.4043 -0.8891 -0.1549
  154OSM   H14S17172   3.396   1.810   3.817  0.6280 -0.9967  0.1898
  154OSM   H14T17173   3.428   1.634   3.838  1.3546 -0.5574 -2.0735
  154OSM   C15S17174   3.237   1.685   3.913  0.2483 -0.6850  0.0299
  154OSM   H15S17175   3.189   1.587   3.892  0.8540 -0.7844 -0.9938
  154OSM   H15T17176   3.173   1.775   3.907  2.0586  0.6444 -0.3646
  154OSM   C16S17177   3.281   1.677   4.056 -0.5106 -0.5405 -0.2593
  154OSM   H16S17178   3.382   1.631   4.062 -0.7872 -1.0495  0.6567
  154OSM   H16T17179   3.206   1.622   4.116 -0.4682 -1.0820 -0.6912
  154OSM   C17S17180   3.301   1.816   4.107  0.1715 -0.9164  0.1091
  154OSM   H17S17181   3.213   1.883   4.093  0.2771 -0.3500  1.9011
  154OSM   H17T17182   3.387   1.866   4.058  0.8955  0.6909  2.7779
  154OSM   C18S17183   3.333   1.826   4.261  0.0312  0.0997  0.4729
  154OSM   H18S17184   3.357   1.931   4.285 -0.4378 -0.2873  2.8580
  154OSM   H18T17185   3.416   1.758   4.291  1.5632  2.1373  1.0664
  154OSM   H18U17186   3.249   1.798   4.328  0.9547  0.1839  1.6925
  154OSM    C1F17187   2.719   1.773   2.640 -0.6252 -0.0967 -0.1826
  154OSM     OF17188   2.695   1.656   2.617  0.5364  0.2770 -0.5521
  154OSM    C2F17189   2.609   1.857   2.691 -0.3102  0.1840  0.0298
  154OSM    H2F17190   2.514   1.827   2.641 -0.4756 -0.0509  0.4804
  154OSM    H2G17191   2.631   1.962   2.660  0.4001 -0.4023 -1.5765
  154OSM    C3F17192   2.589   1.830   2.840  0.1784  0.2018 -0.0785
  154OSM    H3F17193   2.544   1.728   2.837 -2.5691  1.3312 -0.1810
  154OSM    H3G17194   2.507   1.892   2.881  1.3938  2.1979 -0.5470
  154OSM    C4F17195   2.704   1.832   2.942  1.2135 -0.0415 -0.0952
  154OSM    H4F17196   2.731   1.939   2.956 -0.8258  0.5329 -0.0861
  154OSM    H4G17197   2.785   1.767   2.906  1.1318 -0.6726  0.8160
  154OSM    C5F17198   2.677   1.768   3.073 -0.0786  0.4572 -0.7372
  154OSM    H5F17199   2.677   1.659   3.051  2.8843  0.0258  0.9387
  154OSM    H5G17200   2.577   1.788   3.116  0.9342  1.1302  1.4215
  154OSM    C6F17201   2.783   1.798   3.182  0.2265 -0.5224 -0.0144
  154OSM    H6F17202   2.790   1.909   3.179  0.7319 -0.5655 -1.3367
  154OSM    H6G17203   2.890   1.776   3.162  0.1747 -0.7492 -0.0495
  154OSM    C7F17204   2.746   1.739   3.316  0.7878 -0.7031  0.2365
  154OSM    H7F17205   2.743   1.628   3.307  0.0155 -0.6438 -0.3556
  154OSM    H7G17206   2.641   1.769   3.337  0.7265  0.3810 -1.4731
  154OSM    C8F17207   2.839   1.776   3.432 -0.2267  0.1783 -0.2002
  154OSM    H8F17208   2.938   1.768   3.384 -0.8866  0.8441 -1.7550
  154OSM    H8G17209   2.820   1.693   3.503 -0.3175  0.2511 -0.1385
  154OSM    C9F17210   2.819   1.918   3.488  0.5561 -0.7340  0.8107
  154OSM    H9F17211   2.781   1.989   3.413  0.2655 -0.5538  1.1291
  154OSM   C10F17212   2.817   1.958   3.621 -0.0179  0.4456  0.0286
  154OSM   H10F17213   2.813   2.058   3.665  0.1303 -0.0611  1.2428
  154OSM   C11F17214   2.855   1.858   3.733  0.2328 -1.1677 -0.1908
  154OSM   H11F17215   2.902   1.910   3.820  0.4941 -3.3852  1.0815
  154OSM   H11G17216   2.934   1.785   3.706  1.4139  0.4160 -1.1673
  154OSM   C12F17217   2.730   1.794   3.784  0.1180  0.3132  0.0262
  154OSM   H12F17218   2.664   1.765   3.700  2.3897  0.4254 -1.9127
  154OSM   H12G17219   2.680   1.874   3.843 -2.9603 -0.2929 -1.6051
  154OSM   C13F17220   2.761   1.683   3.886 -0.0469  0.4711  0.5504
  154OSM   H13F17221   2.816   1.603   3.831 -2.4089 -1.3376  0.6574
  154OSM   H13G17222   2.670   1.629   3.918 -0.6997 -0.0114 -1.8831
  154OSM   C14F17223   2.824   1.729   4.013 -0.7586  0.0673 -0.1672
  154OSM   H14F17224   2.759   1.792   4.077  0.5249 -0.4707  1.7355
  154OSM   H14G17225   2.905   1.798   3.981 -0.0541 -0.9118 -0.5575
  154OSM   C15F17226   2.886   1.613   4.098 -1.2820  0.3671  0.2989
  154OSM   H15F17227   2.983   1.581   4.054 -1.7395  0.1855 -0.5998
  154OSM   H15G17228   2.804   1.539   4.094 -1.3646  0.4654  0.1914
  154OSM   C16F17229   2.917   1.669   4.235  0.8760 -0.7135  0.0181
  154OSM   H16F17230   2.838   1.734   4.277 -0.8450 -0.7272 -2.8872
  154OSM   H16G17231   3.005   1.737   4.228  0.4847  0.0182  1.7652
  154OSM   C17F17232   2.947   1.557   4.333 -0.0977 -0.3382  0.5913
  154OSM   H17F17233   3.008   1.481   4.279 -1.6753 -1.7002  0.6559
  154OSM   H17G17234   2.853   1.506   4.363  0.0102  0.6356  2.7013
  154OSM   C18F17235   3.009   1.615   4.460  0.1625  0.1514  0.1883
  154OSM   H18F17236   2.930   1.662   4.522 -3.0210 -2.0089 -1.9256
  154OSM   H18G17237   3.073   1.700   4.429 -1.6134  0.6456 -2.3949
  154OSM   H18H17238   3.060   1.551   4.535 -0.6808 -0.2391  0.4485
  155OSM      N17239   6.341   0.591   2.126 -0.0634 -0.4333  0.9563
  155OSM    C1517240   6.240   0.586   2.016  0.3463 -0.3287 -0.3586
  155OSM   H15A17241   6.219   0.482   1.993 -1.0668 -0.4537  1.3012
  155OSM   H15B17242   6.262   0.651   1.933 -2.4871 -1.5841 -2.2422
  155OSM   H15C17243   6.143   0.620   2.047 -0.6005 -2.6647 -0.5657
  155OSM    C1417244   6.463   0.541   2.057 -0.2513 -0.3603 -0.3960
  155OSM   H14A17245   6.543   0.531   2.129 -2.3324 -0.7448  2.0269
  155OSM   H14B17246   6.497   0.613   1.985  1.7393 -0.9606 -0.1292
  155OSM   H14C17247   6.446   0.444   2.012  1.4112 -0.8210 -0.1142
  155OSM    C1317248   6.372   0.730   2.171  0.4556 -0.2374 -0.0700
  155OSM   H13A17249   6.439   0.725   2.256  0.0398 -0.8400  0.2265
  155OSM   H13B17250   6.280   0.781   2.197  1.7985  1.9016  0.8125
  155OSM   H13C17251   6.425   0.780   2.092 -0.2820 -1.2566 -1.2496
  155OSM    C1217252   6.300   0.494   2.235  0.3606  0.6595 -0.2116
  155OSM   H12A17253   6.381   0.481   2.304 -1.1226 -1.4175  1.2812
  155OSM   H12B17254   6.291   0.396   2.189 -1.3274  0.7077 -0.0539
  155OSM    C1117255   6.177   0.534   2.320 -0.6782 -0.2158 -0.0859
  155OSM   H11A17256   6.189   0.635   2.366  1.2269 -0.8308  0.8782
  155OSM   H11B17257   6.169   0.465   2.407  0.5009 -0.3724 -0.0803
  155OSM      P17258   5.993   0.403   2.193 -0.2087  0.1195  0.0298
  155OSM    O1317259   5.868   0.436   2.122  0.2354  0.2858  0.1125
  155OSM    O1417260   6.092   0.320   2.119 -0.4924  0.9907  0.8214
  155OSM    O1117261   5.960   0.336   2.329 -0.4470  0.8125 -0.1834
  155OSM    O1217262   6.063   0.539   2.235  0.1830  0.2058 -0.0857
  155OSM    C1S17263   5.845   0.381   2.404  0.0463 -0.2822  0.1657
  155OSM    H1S17264   5.756   0.378   2.337  0.2579  1.2018 -0.2077
  155OSM    H1T17265   5.861   0.485   2.439 -0.5740 -0.2667  0.4152
  155OSM     NF17266   5.701   0.335   2.591 -0.4040 -0.0167  0.2442
  155OSM    HNF17267   5.727   0.401   2.661  0.1393  0.9818 -0.8438
  155OSM    C2S17268   5.824   0.294   2.524 -0.2129  0.2178  0.2678
  155OSM    H2S17269   5.805   0.192   2.486  1.1884 -0.4432  1.2537
  155OSM    C3S17270   5.947   0.297   2.615  0.3461  0.0159  0.7815
  155OSM    H3S17271   5.978   0.401   2.643 -1.9623  0.8471  0.4669
  155OSM     O317272   6.054   0.235   2.545  0.3375  0.0354 -1.0335
  155OSM    HO317273   6.034   0.258   2.454  2.0248  0.0790 -1.4196
  155OSM    C4S17274   5.912   0.220   2.740  0.1990 -0.2203  0.1540
  155OSM    H4S17275   5.851   0.268   2.818  0.0862  0.9704 -0.6348
  155OSM    C5S17276   5.959   0.101   2.780 -0.3893 -0.4878 -0.0149
  155OSM    H5S17277   6.027   0.043   2.716 -0.0683 -1.6386  1.3295
  155OSM    C6S17278   5.930   0.035   2.915  0.2454  0.4505 -0.4970
  155OSM    H6S17279   6.027   0.022   2.969 -1.4672 -0.4829  2.6272
  155OSM    H6T17280   5.902  -0.072   2.906 -0.0114  0.6198 -1.8117
  155OSM    C7S17281   5.842   0.096   3.026 -0.0992 -0.0205 -0.6281
  155OSM    H7S17282   5.747   0.129   2.979 -0.8208  0.4795  1.1199
  155OSM    H7T17283   5.900   0.183   3.062 -0.9692 -0.1747  1.2921
  155OSM    C8S17284   5.819   0.006   3.149  0.1448 -0.4776  0.5442
  155OSM    H8S17285   5.816  -0.101   3.118 -2.8356 -0.0994 -0.8011
  155OSM    H8T17286   5.728   0.029   3.207  0.7387  1.7748  0.6624
  155OSM    C9S17287   5.934   0.012   3.253  0.3499 -0.3234  0.5053
  155OSM    H9S17288   5.982   0.112   3.253 -1.3961  0.5689 -0.7611
  155OSM    H9T17289   6.012  -0.063   3.226  1.0312  0.6947 -0.4516
  155OSM   C10S17290   5.891   0.001   3.393  0.0043  0.5057  0.5702
  155OSM   H10S17291   5.862  -0.103   3.417  0.6900 -0.0494 -0.9507
  155OSM   H10T17292   5.812   0.076   3.418 -0.4145  0.1926  0.1929
  155OSM   C11S17293   5.998   0.047   3.492 -0.4576  0.1575 -0.4206
  155OSM   H11S17294   6.012   0.157   3.482  4.5365 -0.2358  0.1033
  155OSM   H11T17295   6.099   0.004   3.481  0.1357  1.3189  0.3186
  155OSM   C12S17296   5.962   0.015   3.645 -0.3447  0.6152  0.0795
  155OSM   H12S17297   5.970  -0.096   3.655  1.1671  0.8577  2.0887
  155OSM   H12T17298   5.857   0.046   3.663 -0.8602 -0.5476 -0.7321
  155OSM   C13S17299   6.046   0.076   3.744 -0.0922 -0.2422  0.3031
  155OSM   H13S17300   6.043   0.187   3.730  2.3372 -0.2466 -0.8517
  155OSM   H13T17301   6.154   0.054   3.726 -0.6185 -1.9564 -0.9781
  155OSM   C14S17302   5.993   0.042   3.884  0.0193 -0.0753  0.0980
  155OSM   H14S17303   6.017  -0.066   3.894 -3.0394 -1.0007 -1.2843
  155OSM   H14T17304   5.883   0.060   3.882 -0.2082 -1.2455  1.0674
  155OSM   C15S17305   6.045   0.125   3.996 -0.6101  0.5052 -0.5720
  155OSM   H15S17306   6.032   0.232   3.970  0.4529  0.6986 -0.3839
  155OSM   H15T17307   6.153   0.109   4.020 -0.7788 -2.1434 -1.2423
  155OSM   C16S17308   5.960   0.094   4.124 -0.4956  0.1384  0.3509
  155OSM   H16S17309   5.963  -0.017   4.132 -1.7839 -0.0163 -1.0281
  155OSM   H16T17310   5.853   0.115   4.102 -0.3746  0.5928  0.1842
  155OSM   C17S17311   6.010   0.175   4.244  0.6966 -0.3752  0.0443
  155OSM   H17S17312   5.991   0.282   4.220 -0.8955 -0.5888  0.2350
  155OSM   H17T17313   6.118   0.156   4.262  0.5024 -3.1602 -1.2125
  155OSM   C18S17314   5.934   0.136   4.370  0.3210  0.3803  0.6563
  155OSM   H18S17315   5.929   0.026   4.380 -0.1475  0.2091 -1.1215
  155OSM   H18T17316   5.836   0.185   4.389  0.5137  1.6470 -1.2922
  155OSM   H18U17317   5.996   0.170   4.455  1.3885 -0.6868  0.3254
  155OSM    C1F17318   5.572   0.319   2.543 -0.4042  0.1612 -0.4717
  155OSM     OF17319   5.551   0.255   2.441  0.1290 -0.6835 -0.5447
  155OSM    C2F17320   5.459   0.390   2.619  0.7855  0.4432  0.5109
  155OSM    H2F17321   5.381   0.405   2.541  0.1007 -2.5605  0.4951
  155OSM    H2G17322   5.496   0.485   2.663 -2.4649  1.9229  0.3605
  155OSM    C3F17323   5.393   0.300   2.728 -0.3926 -0.5629  0.3936
  155OSM    H3F17324   5.368   0.197   2.692  2.3756 -0.4674 -2.2698
  155OSM    H3G17325   5.293   0.342   2.748  0.3323  0.9299  1.0145
  155OSM    C4F17326   5.472   0.309   2.859 -1.0234  0.2483  0.1378
  155OSM    H4F17327   5.496   0.413   2.888  1.4874 -0.4195  0.7769
  155OSM    H4G17328   5.576   0.274   2.837 -1.3976 -0.6915 -0.1968
  155OSM    C5F17329   5.403   0.233   2.971  0.4527 -0.4080 -0.7405
  155OSM    H5F17330   5.411   0.128   2.936  2.9986 -0.0232 -1.5963
  155OSM    H5G17331   5.297   0.263   2.985  0.4677 -0.3995 -0.6392
  155OSM    C6F17332   5.490   0.253   3.090 -0.6470 -0.6371 -0.3801
  155OSM    H6F17333   5.470   0.356   3.124 -3.7121 -0.5423 -2.0820
  155OSM    H6G17334   5.595   0.237   3.057 -0.5663 -2.1001  0.5099
  155OSM    C7F17335   5.465   0.159   3.209 -0.0746  0.1658  0.1823
  155OSM    H7F17336   5.491   0.054   3.183  0.4421  0.8242 -2.2129
  155OSM    H7G17337   5.358   0.161   3.242 -0.1956  2.2490 -0.1970
  155OSM    C8F17338   5.539   0.202   3.337  0.0392  0.6886 -0.0768
  155OSM    H8F17339   5.490   0.294   3.374 -0.8709 -0.3089  1.2771
  155OSM    H8G17340   5.644   0.222   3.307 -0.0332  1.7904  0.3507
  155OSM    C9F17341   5.539   0.095   3.442  1.0849  0.0217 -0.2567
  155OSM    H9F17342   5.528  -0.012   3.417 -0.2415 -0.6649  2.8155
  155OSM   C10F17343   5.537   0.118   3.575  0.0129 -0.0946  0.4726
  155OSM   H10F17344   5.540   0.033   3.644 -0.4125 -0.7989 -0.3516
  155OSM   C11F17345   5.554   0.256   3.628 -0.3165 -0.3593 -0.5682
  155OSM   H11F17346   5.452   0.295   3.607  0.2738  0.9864 -1.0703
  155OSM   H11G17347   5.617   0.322   3.564 -0.9882 -1.4024 -2.3989
  155OSM   C12F17348   5.605   0.272   3.770 -0.0289  0.0674 -0.7559
  155OSM   H12F17349   5.714   0.247   3.772  0.0630  0.4789 -0.4151
  155OSM   H12G17350   5.549   0.218   3.849 -3.0737  0.7392 -2.3195
  155OSM   C13F17351   5.589   0.417   3.823  0.0419  0.9695  0.5909
  155OSM   H13F17352   5.488   0.443   3.861 -0.7023 -1.5976  0.5682
  155OSM   H13G17353   5.627   0.493   3.751 -0.6604 -0.8323 -1.8019
  155OSM   C14F17354   5.673   0.435   3.953  0.5767 -0.2140  0.0017
  155OSM   H14F17355   5.777   0.398   3.937  1.0892  1.6168 -1.3040
  155OSM   H14G17356   5.615   0.380   4.030  0.6436  1.1824  1.0851
  155OSM   C15F17357   5.687   0.586   3.979  0.4647  0.0730  0.1520
  155OSM   H15F17358   5.595   0.629   3.934  0.9369 -0.6841 -1.6004
  155OSM   H15G17359   5.773   0.634   3.928  1.5504 -2.0397 -0.1001
  155OSM   C16F17360   5.689   0.627   4.131  0.5048 -0.4623 -0.1214
  155OSM   H16F17361   5.608   0.584   4.194  2.2158 -2.3822  0.9160
  155OSM   H16G17362   5.674   0.737   4.129  1.5604 -0.2845  0.5523
  155OSM   C17F17363   5.823   0.598   4.198 -0.3921  0.7105  0.4943
  155OSM   H17F17364   5.903   0.653   4.144 -1.6938 -0.1688 -2.5212
  155OSM   H17G17365   5.840   0.489   4.184  1.5147  0.8985  1.1008
  155OSM   C18F17366   5.845   0.633   4.347  0.7752  0.6141 -0.2316
  155OSM   H18F17367   5.823   0.741   4.361  0.2892  0.7865 -2.0241
  155OSM   H18G17368   5.945   0.606   4.387  0.8942 -0.4199 -1.1567
  155OSM   H18H17369   5.772   0.573   4.405 -0.5266  1.3697 -1.0421
  156OSM      N17370   5.541   5.810   1.757 -0.0116 -0.1814 -0.0131
  156OSM    C1517371   5.469   5.905   1.661 -0.0526 -0.6335 -0.1904
  156OSM   H15A17372   5.366   5.912   1.693  0.4923 -0.0555  1.5189
  156OSM   H15B17373   5.485   5.868   1.561  2.6075 -0.5374  0.1322
  156OSM   H15C17374   5.522   5.999   1.662 -3.3844  1.4176 -0.8639
  156OSM    C1417375   5.469   5.681   1.744  0.0884 -0.1483  1.0248
  156OSM   H14A17376   5.364   5.671   1.766 -0.0051 -0.7135  0.3484
  156OSM   H14B17377   5.524   5.614   1.810  0.1150 -0.4656  0.6852
  156OSM   H14C17378   5.477   5.639   1.645 -0.9295  2.5513 -0.2932
  156OSM    C1317379   5.685   5.789   1.733 -0.4167 -0.3958 -0.1139
  156OSM   H13A17380   5.741   5.880   1.717 -0.1734 -0.1201  2.0115
  156OSM   H13B17381   5.689   5.724   1.646  0.2979 -1.3169  0.5873
  156OSM   H13C17382   5.730   5.719   1.801 -0.7322 -1.2379 -0.7497
  156OSM    C1217383   5.525   5.872   1.892 -0.3377 -0.1670 -0.1970
  156OSM   H12A17384   5.423   5.885   1.928 -0.4463  3.6919 -1.3745
  156OSM   H12B17385   5.543   5.979   1.886 -2.7861  0.4297  1.1881
  156OSM    C1117386   5.605   5.805   2.005  0.0246 -0.5291  0.3764
  156OSM   H11A17387   5.588   5.874   2.091 -1.1354 -0.1237 -0.1535
  156OSM   H11B17388   5.713   5.815   1.982 -0.0199 -0.8614  0.0177
  156OSM      P17389   5.636   5.563   2.118  0.3573 -0.4835 -0.1054
  156OSM    O1317390   5.539   5.463   2.166 -0.1654  0.1526  0.1210
  156OSM    O1417391   5.733   5.502   2.033 -0.2287  0.3082  0.0215
  156OSM    O1117392   5.705   5.646   2.233  0.5207  0.6959 -0.4597
  156OSM    O1217393   5.557   5.676   2.032 -0.5721  0.0297 -0.2426
  156OSM    C1S17394   5.650   5.728   2.331 -0.9315 -0.5781  0.4064
  156OSM    H1S17395   5.557   5.775   2.294 -1.4361  0.1743  2.4643
  156OSM    H1T17396   5.714   5.813   2.364 -0.8996 -0.3595 -0.2083
  156OSM     NF17397   5.544   5.745   2.557  0.1247 -0.1572  0.4024
  156OSM    HNF17398   5.584   5.776   2.643 -1.3329 -3.7670  2.6106
  156OSM    C2S17399   5.617   5.660   2.467  0.1407  0.3763 -0.4502
  156OSM    H2S17400   5.547   5.579   2.438 -0.7929  0.2666  1.8719
  156OSM    C3S17401   5.738   5.596   2.543  0.1953 -0.3247  0.3497
  156OSM    H3S17402   5.786   5.681   2.595 -1.4816  0.0440  1.3692
  156OSM     O317403   5.835   5.538   2.459 -0.3097 -0.4319  0.5012
  156OSM    HO317404   5.818   5.575   2.372  1.8431 -0.9628 -0.2116
  156OSM    C4S17405   5.697   5.506   2.651 -0.0302 -1.1923 -0.0619
  156OSM    H4S17406   5.685   5.565   2.744 -2.0300 -0.1913 -0.8976
  156OSM    C5S17407   5.688   5.375   2.650  0.3158 -0.2694 -0.2231
  156OSM    H5S17408   5.698   5.319   2.556  0.2418 -0.3826 -0.1637
  156OSM    C6S17409   5.667   5.294   2.774 -0.1660  0.1612 -0.3128
  156OSM    H6S17410   5.714   5.194   2.762 -1.2677 -0.3493 -0.4751
  156OSM    H6T17411   5.558   5.272   2.780  0.0967 -0.8487  1.2277
  156OSM    C7S17412   5.697   5.353   2.915  0.1198  0.0463  0.2856
  156OSM    H7S17413   5.638   5.445   2.936  0.0974  0.1821 -0.3337
  156OSM    H7T17414   5.803   5.387   2.915  0.2873 -0.4623  0.0315
  156OSM    C8S17415   5.655   5.256   3.022 -0.1996  0.2409  0.1416
  156OSM    H8S17416   5.700   5.156   3.005 -0.0818  0.5295 -1.4878
  156OSM    H8T17417   5.545   5.248   3.011 -0.0093 -1.6548 -0.8518
  156OSM    C9S17418   5.685   5.301   3.164 -0.5808  0.1934  0.1730
  156OSM    H9S17419   5.627   5.394   3.183 -1.9512 -0.6571  0.3091
  156OSM    H9T17420   5.796   5.305   3.170 -0.3381 -1.9448 -1.5984
  156OSM   C10S17421   5.634   5.197   3.270 -0.3499  0.1840 -0.1949
  156OSM   H10S17422   5.683   5.099   3.253 -0.6623  0.0464 -0.3219
  156OSM   H10T17423   5.525   5.183   3.251 -0.3656 -0.4570  0.3426
  156OSM   C11S17424   5.675   5.257   3.403  0.4007 -0.0827  0.0463
  156OSM   H11S17425   5.625   5.354   3.425 -0.0040  0.2617 -2.1875
  156OSM   H11T17426   5.784   5.271   3.419 -0.0241  0.8948  2.6486
  156OSM   C12S17427   5.634   5.161   3.521 -0.0558 -1.0620  0.6782
  156OSM   H12S17428   5.693   5.067   3.510  0.1405 -0.9879  1.1128
  156OSM   H12T17429   5.525   5.141   3.515  0.0352 -1.3463 -0.1924
  156OSM   C13S17430   5.672   5.224   3.657 -0.2578 -0.4577 -0.3167
  156OSM   H13S17431   5.620   5.322   3.661 -0.8915 -0.6945 -1.8499
  156OSM   H13T17432   5.783   5.232   3.666 -0.3509 -1.0791  1.7545
  156OSM   C14S17433   5.632   5.145   3.783  0.2749 -0.3235  0.3714
  156OSM   H14S17434   5.657   5.037   3.773  2.0454  0.0820 -0.0288
  156OSM   H14T17435   5.523   5.153   3.799 -0.5266 -1.3073 -3.4713
  156OSM   C15S17436   5.690   5.218   3.908 -0.5790  0.4534 -0.2560
  156OSM   H15S17437   5.680   5.328   3.899 -0.9035  0.8367  3.3168
  156OSM   H15T17438   5.799   5.198   3.899 -0.7036 -2.7361  2.9262
  156OSM   C16S17439   5.628   5.184   4.050  0.8689  0.0191 -0.5099
  156OSM   H16S17440   5.607   5.075   4.038  0.4996 -0.3935  2.9685
  156OSM   H16T17441   5.531   5.231   4.076  0.4587 -1.6925  1.2824
  156OSM   C17S17442   5.724   5.212   4.161 -0.1621 -0.0410  0.0004
  156OSM   H17S17443   5.811   5.142   4.162 -0.6906 -0.7112 -0.3918
  156OSM   H17T17444   5.673   5.186   4.255  0.1594 -1.1836 -0.1297
  156OSM   C18S17445   5.785   5.358   4.167 -0.4842  0.7112 -0.6615
  156OSM   H18S17446   5.838   5.384   4.073 -1.8015  0.2497 -1.5580
  156OSM   H18T17447   5.860   5.362   4.249 -3.7041 -0.4491  2.5644
  156OSM   H18U17448   5.706   5.435   4.178 -1.0405 -0.0001  0.5800
  156OSM    C1F17449   5.412   5.768   2.539  0.6047  0.1847 -0.1098
  156OSM     OF17450   5.357   5.720   2.443  0.4245  0.0394  0.4198
  156OSM    C2F17451   5.337   5.849   2.643  0.7045  0.0996  0.0427
  156OSM    H2F17452   5.409   5.928   2.674 -0.0426  1.0977 -0.7264
  156OSM    H2G17453   5.309   5.782   2.726 -2.5606 -1.1501 -1.8878
  156OSM    C3F17454   5.209   5.915   2.582  0.0384 -0.4270 -0.1892
  156OSM    H3F17455   5.147   5.842   2.525  2.2805 -1.5586 -1.3361
  156OSM    H3G17456   5.253   5.975   2.499 -0.1379  0.9027  0.6538
  156OSM    C4F17457   5.118   6.001   2.674 -0.1640  0.3095 -0.1353
  156OSM    H4F17458   5.036   6.042   2.612  0.7582  0.2745 -1.4264
  156OSM    H4G17459   5.179   6.081   2.721 -0.7688  1.0934 -0.6624
  156OSM    C5F17460   5.064   5.915   2.790  0.4098 -0.3220  0.4216
  156OSM    H5F17461   5.148   5.888   2.856  0.8209  0.7129  0.3478
  156OSM    H5G17462   5.012   5.827   2.748 -0.8611  0.3861  0.4489
  156OSM    C6F17463   4.963   5.990   2.874  0.2949  0.4855 -1.6842
  156OSM    H6F17464   4.870   6.004   2.816 -0.3931 -1.0395 -1.0221
  156OSM    H6G17465   4.998   6.091   2.903 -0.5131  0.4613 -0.5619
  156OSM    C7F17466   4.915   5.907   3.004 -0.5832  0.1865 -0.2622
  156OSM    H7F17467   4.995   5.923   3.080  0.4935  1.0782 -1.5368
  156OSM    H7G17468   4.919   5.799   2.977  1.1070  0.9635 -3.7052
  156OSM    C8F17469   4.770   5.934   3.050 -0.1568  0.3696 -0.1183
  156OSM    H8F17470   4.731   5.848   3.109  1.3562  1.2675  2.3474
  156OSM    H8G17471   4.707   5.947   2.960  1.1499  1.1971 -0.9402
  156OSM    C9F17472   4.735   6.075   3.100  0.0103  0.7059  0.4317
  156OSM    H9F17473   4.717   6.146   3.018  0.3588 -1.6093 -1.7911
  156OSM   C10F17474   4.713   6.110   3.227  0.2845 -0.6576 -1.0750
  156OSM   H10F17475   4.695   6.216   3.252 -0.9278 -0.4866 -2.5415
  156OSM   C11F17476   4.724   6.014   3.346 -1.1529 -0.0236  0.7195
  156OSM   H11F17477   4.825   5.968   3.356 -1.1004  0.1297  0.9041
  156OSM   H11G17478   4.659   5.924   3.348  0.4974 -1.2633  1.7674
  156OSM   C12F17479   4.690   6.087   3.482 -0.4113 -0.0833  0.4402
  156OSM   H12F17480   4.580   6.100   3.482 -0.7656 -2.2587 -2.0416
  156OSM   H12G17481   4.738   6.188   3.486  0.7223 -0.5972  0.2484
  156OSM   C13F17482   4.746   6.010   3.596 -0.0204  0.3186 -0.0233
  156OSM   H13F17483   4.846   5.973   3.564 -0.2976 -1.1690  0.7214
  156OSM   H13G17484   4.679   5.921   3.599 -0.5244  0.6594 -0.8660
  156OSM   C14F17485   4.751   6.090   3.729  0.3607 -0.2737 -0.0238
  156OSM   H14F17486   4.653   6.140   3.734  0.0884 -0.9285  3.4329
  156OSM   H14G17487   4.840   6.157   3.725  1.9325 -2.2057  0.6842
  156OSM   C15F17488   4.773   5.997   3.852  0.7091  0.3658 -0.2218
  156OSM   H15F17489   4.856   5.932   3.818 -0.6045 -1.1691 -0.5730
  156OSM   H15G17490   4.674   5.952   3.872  0.1393  2.1772  1.3078
  156OSM   C16F17491   4.814   6.073   3.975 -0.3370 -1.3358  0.0053
  156OSM   H16F17492   4.913   6.122   3.958 -0.3022 -0.7403  1.7491
  156OSM   H16G17493   4.834   6.004   4.059  1.8514 -0.6436  0.0954
  156OSM   C17F17494   4.706   6.176   4.009 -0.0712 -0.0655  0.4395
  156OSM   H17F17495   4.609   6.126   4.026  0.4331 -2.5489 -2.8101
  156OSM   H17G17496   4.695   6.236   3.915 -0.2183 -1.1706 -0.2662
  156OSM   C18F17497   4.736   6.280   4.115  0.2625  0.1800  0.3121
  156OSM   H18F17498   4.836   6.326   4.098 -0.7609  1.4301 -2.9291
  156OSM   H18G17499   4.742   6.237   4.217  1.3356 -0.4441  0.0117
  156OSM   H18H17500   4.657   6.357   4.107  1.1015  0.9056 -1.5730
  157OSM      N17501   6.931   4.924   1.883 -0.0401  0.0516 -0.7118
  157OSM    C1517502   6.871   4.791   1.908  0.3616  0.4567  0.1428
  157OSM   H15A17503   6.934   4.728   1.970  0.7496  0.9485  0.2530
  157OSM   H15B17504   6.875   4.742   1.812  0.2169 -0.8737  0.7882
  157OSM   H15C17505   6.770   4.801   1.947  0.7517  1.5110  0.9219
  157OSM    C1417506   7.076   4.904   1.866 -0.5534  0.6168 -0.0983
  157OSM   H14A17507   7.130   4.892   1.959 -1.5960 -1.4652  0.3083
  157OSM   H14B17508   7.126   4.978   1.806  0.2010 -1.0648 -1.6629
  157OSM   H14C17509   7.100   4.810   1.817  2.9035  0.5009  1.5334
  157OSM    C1317510   6.869   4.979   1.751 -1.1913 -0.1209 -1.3194
  157OSM   H13A17511   6.764   5.001   1.764 -1.5159 -2.2913  0.3961
  157OSM   H13B17512   6.884   4.913   1.667  0.5985  0.9678 -1.8930
  157OSM   H13C17513   6.920   5.070   1.725  0.5984 -1.3723 -2.4531
  157OSM    C1217514   6.895   5.012   2.003 -0.1183 -0.2728 -0.1607
  157OSM   H12A17515   6.926   4.957   2.091  1.5490 -1.0154 -1.1622
  157OSM   H12B17516   6.788   5.021   2.001 -0.4399 -3.1095 -0.7806
  157OSM    C1117517   6.968   5.152   1.999 -0.0983 -0.0552  0.0979
  157OSM   H11A17518   6.912   5.231   2.053  1.2939  1.3463 -0.4276
  157OSM   H11B17519   6.968   5.177   1.891 -1.9064 -0.8404 -0.1144
  157OSM      P17520   7.132   5.182   2.191 -0.2815  0.2829 -0.3045
  157OSM    O1317521   7.254   5.110   2.233 -0.1346  0.2615 -0.7230
  157OSM    O1417522   7.133   5.328   2.200  0.3191  0.2395 -0.1871
  157OSM    O1117523   7.008   5.127   2.271  0.0194  0.3715 -0.5472
  157OSM    O1217524   7.110   5.141   2.037  0.2374  0.3624 -0.4029
  157OSM    C1S17525   7.031   5.093   2.408  0.4635 -0.5568 -1.2527
  157OSM    H1S17526   7.132   5.060   2.441 -0.1746 -0.1874  1.2461
  157OSM    H1T17527   6.969   5.004   2.432 -0.2273  0.3579  0.4767
  157OSM     NF17528   7.013   5.201   2.636 -0.3478  0.2680 -0.8235
  157OSM    HNF17529   6.948   5.185   2.709  0.4736  0.3245 -0.0588
  157OSM    C2S17530   6.975   5.212   2.499 -0.8915  0.2395  0.4846
  157OSM    H2S17531   7.009   5.311   2.463 -2.2902  0.7732  0.6061
  157OSM    C3S17532   6.820   5.222   2.479 -0.4938  0.7642 -0.0464
  157OSM    H3S17533   6.780   5.129   2.525 -0.1417 -0.5347 -2.2259
  157OSM     O317534   6.776   5.215   2.339 -0.3421 -0.0866  0.2587
  157OSM    HO317535   6.855   5.194   2.289  0.0766 -1.5294  1.4352
  157OSM    C4S17536   6.760   5.339   2.560  0.2477 -0.1391 -0.3306
  157OSM    H4S17537   6.763   5.327   2.669 -1.4498  0.6872 -0.1605
  157OSM    C5S17538   6.716   5.459   2.521  0.1138  0.6544 -0.2313
  157OSM    H5S17539   6.726   5.471   2.412 -0.3674 -1.1641 -0.5141
  157OSM    C6S17540   6.677   5.578   2.602  0.1497 -0.2199 -0.2903
  157OSM    H6S17541   6.566   5.572   2.609  0.1772 -0.6672 -0.2301
  157OSM    H6T17542   6.706   5.677   2.560 -2.6409  0.6496 -0.3422
  157OSM    C7S17543   6.734   5.577   2.741  0.2217  0.0908  0.1695
  157OSM    H7S17544   6.844   5.592   2.746  0.2041  0.1303  0.4221
  157OSM    H7T17545   6.723   5.475   2.784  2.4995 -1.6994 -3.0528
  157OSM    C8S17546   6.673   5.685   2.836  0.3437 -0.3185 -0.3842
  157OSM    H8S17547   6.562   5.678   2.834  0.2011 -0.7413  2.8010
  157OSM    H8T17548   6.699   5.789   2.808  0.4363  0.0289  0.9254
  157OSM    C9S17549   6.702   5.654   2.988 -0.6094 -0.0314  0.2850
  157OSM    H9S17550   6.809   5.679   3.005 -0.5096  1.0056 -1.5218
  157OSM    H9T17551   6.676   5.550   3.015  0.9267 -0.0136  1.9825
  157OSM   C10S17552   6.621   5.747   3.074 -0.1659 -0.0560 -0.2454
  157OSM   H10S17553   6.513   5.751   3.046  0.2431  0.9039 -1.8009
  157OSM   H10T17554   6.657   5.852   3.068 -2.9971  1.1019  1.3026
  157OSM   C11S17555   6.638   5.707   3.218 -0.3055 -0.2350  0.1101
  157OSM   H11S17556   6.747   5.703   3.237 -0.1262  1.0425 -0.5074
  157OSM   H11T17557   6.592   5.610   3.244 -1.7021  0.3989  0.1030
  157OSM   C12S17558   6.583   5.816   3.313 -0.5023  0.0463 -0.1725
  157OSM   H12S17559   6.475   5.834   3.298 -0.4064  1.7230  0.8575
  157OSM   H12T17560   6.639   5.908   3.284 -0.8189 -0.4582 -2.5605
  157OSM   C13S17561   6.592   5.785   3.467 -0.6904  0.3004 -1.1626
  157OSM   H13S17562   6.543   5.688   3.488  2.6679 -1.8695 -2.4280
  157OSM   H13T17563   6.545   5.869   3.523 -0.1213  0.0909 -0.3667
  157OSM   C14S17564   6.737   5.761   3.518  0.6383 -0.7695  0.2967
  157OSM   H14S17565   6.796   5.852   3.493  0.8955 -1.1898 -0.6936
  157OSM   H14T17566   6.777   5.679   3.454  3.5445  1.3785 -0.8840
  157OSM   C15S17567   6.759   5.730   3.666  1.1219  0.3312  0.1541
  157OSM   H15S17568   6.855   5.692   3.709  0.0061 -0.1276  2.3730
  157OSM   H15T17569   6.686   5.650   3.690  0.4290  0.9595  0.1649
  157OSM   C16S17570   6.712   5.851   3.752 -0.2872  0.1265  0.3471
  157OSM   H16S17571   6.602   5.859   3.745 -0.2168  1.1352  0.2921
  157OSM   H16T17572   6.761   5.942   3.711 -1.1311 -0.8062 -3.0452
  157OSM   C17S17573   6.747   5.831   3.903  0.9844 -0.7988 -0.5603
  157OSM   H17S17574   6.853   5.864   3.907  0.8035 -0.2939  0.6125
  157OSM   H17T17575   6.732   5.723   3.925  1.4249 -0.5675  1.0162
  157OSM   C18S17576   6.656   5.919   4.005 -0.2841 -0.0148 -0.1885
  157OSM   H18S17577   6.548   5.892   4.001 -1.3807  3.0818  3.2515
  157OSM   H18T17578   6.672   6.026   3.982 -1.7452  0.2280 -0.1601
  157OSM   H18U17579   6.679   5.898   4.111 -2.4173  0.6753  0.4655
  157OSM    C1F17580   7.143   5.208   2.674 -0.0163 -0.2881  0.8621
  157OSM     OF17581   7.233   5.243   2.593  0.3662  0.7182 -0.3532
  157OSM    C2F17582   7.173   5.178   2.822  0.1643  0.1823  0.6516
  157OSM    H2F17583   7.113   5.084   2.827  1.1436 -0.7189 -2.3950
  157OSM    H2G17584   7.113   5.252   2.878 -0.2065 -1.1330  2.0766
  157OSM    C3F17585   7.319   5.163   2.860 -0.5068  0.1800 -0.4231
  157OSM    H3F17586   7.360   5.266   2.857 -0.3738  0.2898  2.5885
  157OSM    H3G17587   7.375   5.109   2.781  2.0784  1.4217  0.4395
  157OSM    C4F17588   7.340   5.081   2.995 -0.3274  0.3493 -0.2736
  157OSM    H4F17589   7.294   4.984   2.964  0.2039  0.1338 -0.4019
  157OSM    H4G17590   7.290   5.128   3.082  1.2154 -2.5843  2.4113
  157OSM    C5F17591   7.493   5.061   3.034 -0.0983  0.2377  0.4608
  157OSM    H5F17592   7.550   5.148   2.994  0.3436  0.6264  1.8886
  157OSM    H5G17593   7.535   4.973   2.980 -0.5710  0.8488 -0.9400
  157OSM    C6F17594   7.508   5.024   3.181  0.6532 -0.4026  0.0534
  157OSM    H6F17595   7.614   4.997   3.201  1.1030  2.2312  1.8215
  157OSM    H6G17596   7.443   4.939   3.212  0.2886 -0.0862  0.1733
  157OSM    C7F17597   7.486   5.150   3.266  0.1406 -0.8706 -0.3058
  157OSM    H7F17598   7.381   5.184   3.260  0.1969 -0.9456 -1.9767
  157OSM    H7G17599   7.548   5.231   3.222  1.0864 -2.0711 -1.2394
  157OSM    C8F17600   7.526   5.140   3.420  0.9686  0.5966  0.0370
  157OSM    H8F17601   7.533   5.248   3.444 -0.7416  0.9293 -0.8137
  157OSM    H8G17602   7.617   5.085   3.453 -0.4734 -0.7570  1.9582
  157OSM    C9F17603   7.413   5.091   3.502 -0.3084 -0.7988 -0.0206
  157OSM    H9F17604   7.400   4.985   3.476 -0.5503 -0.5684 -0.8667
  157OSM   C10F17605   7.333   5.148   3.592 -1.1805  0.5566 -0.0270
  157OSM   H10F17606   7.246   5.091   3.627 -2.4690  1.3039 -1.8641
  157OSM   C11F17607   7.343   5.286   3.635 -0.6846  0.1211  0.8609
  157OSM   H11F17608   7.242   5.333   3.632 -0.4901  0.6259  1.7100
  157OSM   H11G17609   7.405   5.348   3.567 -0.9884 -0.9961 -0.4825
  157OSM   C12F17610   7.393   5.292   3.777  0.2333 -0.0266 -0.1481
  157OSM   H12F17611   7.503   5.274   3.771  0.5321  1.9344 -2.1040
  157OSM   H12G17612   7.349   5.217   3.846  1.0974  0.5238  1.0484
  157OSM   C13F17613   7.378   5.430   3.840 -0.2274 -0.6654  0.3836
  157OSM   H13F17614   7.405   5.504   3.761  0.2346 -1.2418 -0.0171
  157OSM   H13G17615   7.461   5.438   3.913  2.1690 -0.1374 -2.1951
  157OSM   C14F17616   7.237   5.459   3.892  0.1465  0.1946 -0.6163
  157OSM   H14F17617   7.174   5.368   3.882 -0.0156  0.2657 -0.2502
  157OSM   H14G17618   7.174   5.535   3.841 -1.0186 -2.2560 -3.0882
  157OSM   C15F17619   7.241   5.474   4.044 -0.4979 -0.7283  0.7774
  157OSM   H15F17620   7.279   5.576   4.065  0.0417 -0.0675 -2.8520
  157OSM   H15G17621   7.311   5.392   4.073 -0.6276 -1.4667 -0.8902
  157OSM   C16F17622   7.103   5.454   4.114  0.3054 -0.4781 -0.1565
  157OSM   H16F17623   7.131   5.450   4.222  0.7691  0.2247 -0.2447
  157OSM   H16G17624   7.054   5.355   4.098  1.7976 -1.5969  1.7966
  157OSM   C17F17625   7.009   5.573   4.086 -0.2761  0.5362  0.6805
  157OSM   H17F17626   6.987   5.554   3.979  1.8789  0.5084  0.1986
  157OSM   H17G17627   7.063   5.670   4.094 -0.7685  0.9032 -0.3077
  157OSM   C18F17628   6.876   5.580   4.159  0.6024 -0.0120 -0.1220
  157OSM   H18F17629   6.909   5.591   4.265 -0.9256  1.2411  0.2695
  157OSM   H18G17630   6.812   5.489   4.154 -1.6593  1.5660 -1.4521
  157OSM   H18H17631   6.819   5.673   4.138 -0.3260 -0.7358 -0.9165
  158OSM      N17632   4.616   3.841   1.771  0.2830 -0.0238 -0.1308
  158OSM    C1517633   4.665   3.982   1.749  0.4312 -0.4472 -0.0487
  158OSM   H15A17634   4.728   4.019   1.829 -0.9096  2.9164 -0.3786
  158OSM   H15B17635   4.575   4.041   1.746  0.1093 -0.8129  1.6146
  158OSM   H15C17636   4.717   3.997   1.655 -0.8581 -1.4886 -0.9596
  158OSM    C1417637   4.501   3.826   1.677 -0.4724  0.6072 -0.5330
  158OSM   H14A17638   4.433   3.908   1.696  2.5807  3.3517 -0.3701
  158OSM   H14B17639   4.457   3.729   1.693 -1.0842  0.9705  0.0134
  158OSM   H14C17640   4.534   3.834   1.574  0.9207  0.5614 -0.1197
  158OSM    C1317641   4.722   3.739   1.732  0.3420 -0.2994 -0.7136
  158OSM   H13A17642   4.810   3.758   1.792 -0.1667 -2.8243  0.9814
  158OSM   H13B17643   4.730   3.733   1.625  1.3009  0.8005 -0.7199
  158OSM   H13C17644   4.698   3.638   1.763 -0.9557  0.5614  1.3387
  158OSM    C1217645   4.579   3.815   1.913 -0.3691 -0.2098  0.3237
  158OSM   H12A17646   4.549   3.712   1.917 -1.9759  0.2199  0.0581
  158OSM   H12B17647   4.496   3.880   1.939  1.7864  2.3670  1.3233
  158OSM    C1117648   4.681   3.853   2.024 -0.3189 -0.4829  0.4389
  158OSM   H11A17649   4.782   3.806   2.015 -0.6679 -1.2063  0.2214
  158OSM   H11B17650   4.643   3.813   2.119 -1.3541 -2.5659 -0.7881
  158OSM      P17651   4.588   4.080   2.101  0.2944 -0.1077 -0.3431
  158OSM    O1317652   4.625   4.221   2.099  0.0474 -0.3611 -0.4970
  158OSM    O1417653   4.455   4.045   2.027 -0.0004 -0.3035  0.0523
  158OSM    O1117654   4.568   4.024   2.245 -0.0998 -0.3483  0.1019
  158OSM    O1217655   4.707   3.988   2.041 -0.0162 -0.5000 -0.4618
  158OSM    C1S17656   4.671   4.011   2.345 -0.2065  0.5228  0.9183
  158OSM    H1S17657   4.746   4.093   2.352  0.7645 -0.3792  1.3915
  158OSM    H1T17658   4.743   3.926   2.337  1.1279  1.6424  0.5170
  158OSM     NF17659   4.714   4.007   2.585 -0.6360 -0.3754 -0.2686
  158OSM    HNF17660   4.734   3.932   2.648 -0.6421  0.3553  0.6248
  158OSM    C2S17661   4.608   3.995   2.483  0.5798 -0.3694  0.3699
  158OSM    H2S17662   4.537   4.080   2.492 -1.0313 -1.6089 -0.1776
  158OSM    C3S17663   4.528   3.868   2.489  0.3106  0.7930  0.2473
  158OSM    H3S17664   4.591   3.776   2.483 -1.2299 -0.3915  1.2247
  158OSM     O317665   4.435   3.846   2.381  0.1016  0.0811 -0.1942
  158OSM    HO317666   4.460   3.908   2.312  1.2508 -0.0317  0.0959
  158OSM    C4S17667   4.442   3.859   2.614 -0.0221 -0.6287  0.4780
  158OSM    H4S17668   4.358   3.931   2.617 -0.0721 -0.6400 -0.3995
  158OSM    C5S17669   4.463   3.790   2.728 -0.1708  0.7631 -0.2881
  158OSM    H5S17670   4.543   3.715   2.729 -1.7455 -1.0406  1.9565
  158OSM    C6S17671   4.387   3.804   2.857 -0.2402  0.2427  0.7672
  158OSM    H6S17672   4.291   3.855   2.836  0.7918  1.5295 -1.0779
  158OSM    H6T17673   4.448   3.864   2.929 -0.1930 -0.7667  1.5919
  158OSM    C7S17674   4.353   3.677   2.928  0.5649 -0.2879  0.0539
  158OSM    H7S17675   4.440   3.608   2.929  0.8798 -0.1496 -3.5086
  158OSM    H7T17676   4.280   3.618   2.869 -0.0345 -0.0457  0.5435
  158OSM    C8S17677   4.315   3.703   3.077 -0.2789 -0.1675 -0.4045
  158OSM    H8S17678   4.246   3.624   3.111  1.3634 -2.1156 -1.4028
  158OSM    H8T17679   4.243   3.788   3.080  0.1400  0.2011 -0.6388
  158OSM    C9S17680   4.430   3.739   3.175 -0.2671  0.5693 -0.1478
  158OSM    H9S17681   4.494   3.821   3.137  0.1044  0.3746  0.0493
  158OSM    H9T17682   4.497   3.651   3.169  1.3955  1.8282 -0.7494
  158OSM   C10S17683   4.389   3.755   3.326  0.1965 -0.4399  0.1569
  158OSM   H10S17684   4.315   3.677   3.357 -1.3811 -0.5411 -3.3799
  158OSM   H10T17685   4.338   3.854   3.331  2.2315  0.7639 -1.4005
  158OSM   C11S17686   4.505   3.746   3.429  0.1845 -0.2225  0.1077
  158OSM   H11S17687   4.552   3.645   3.424  1.6584  0.4777 -1.2582
  158OSM   H11T17688   4.463   3.763   3.530 -0.8636 -0.0616 -0.3420
  158OSM   C12S17689   4.600   3.858   3.404 -0.1680 -0.3096 -0.8729
  158OSM   H12S17690   4.549   3.956   3.402  1.1064  0.3762 -1.5023
  158OSM   H12T17691   4.646   3.851   3.303  1.0712  0.7050 -0.4163
  158OSM   C13S17692   4.710   3.859   3.512  0.3610  0.2203 -0.6588
  158OSM   H13S17693   4.760   3.761   3.494 -0.9001 -0.1606 -2.3399
  158OSM   H13T17694   4.672   3.869   3.616 -0.2268  2.3422 -1.0255
  158OSM   C14S17695   4.819   3.962   3.499  0.1448 -0.2365 -0.1848
  158OSM   H14S17696   4.769   4.062   3.497 -0.4962 -0.5383  0.4577
  158OSM   H14T17697   4.860   3.959   3.396  0.2131 -0.9099 -0.1382
  158OSM   C15S17698   4.938   3.944   3.596 -0.2935 -0.4567  0.0524
  158OSM   H15S17699   4.950   3.834   3.605  1.5576 -0.4503 -1.5387
  158OSM   H15T17700   4.908   3.990   3.693  0.0591 -0.8166  0.3396
  158OSM   C16S17701   5.070   3.997   3.545  0.7762 -0.0079 -0.0917
  158OSM   H16S17702   5.073   4.108   3.538 -1.7731  0.0461 -1.6897
  158OSM   H16T17703   5.073   3.962   3.440 -1.3580 -0.8367  0.0613
  158OSM   C17S17704   5.197   3.952   3.616 -0.6265  0.2034  0.5370
  158OSM   H17S17705   5.288   3.981   3.560 -0.1879  0.4961  1.3812
  158OSM   H17T17706   5.193   3.841   3.625  0.7601  0.2252  1.8059
  158OSM   C18S17707   5.213   4.012   3.752  0.8626  0.6202 -0.0856
  158OSM   H18S17708   5.317   4.045   3.772  0.3682  0.2341  3.9434
  158OSM   H18T17709   5.188   3.937   3.830 -1.8510 -0.8188 -2.1664
  158OSM   H18U17710   5.145   4.098   3.771  0.8467  0.7331 -0.6313
  158OSM    C1F17711   4.779   4.120   2.608  0.3416 -0.1058 -0.6068
  158OSM     OF17712   4.738   4.220   2.560  0.5932  0.2431 -0.5836
  158OSM    C2F17713   4.897   4.111   2.698  0.1691 -0.0771  0.0079
  158OSM    H2F17714   4.969   4.188   2.664  0.0284  0.7386  1.4459
  158OSM    H2G17715   4.936   4.008   2.688  0.2719  0.0057 -0.4297
  158OSM    C3F17716   4.875   4.148   2.844  0.0124  0.4188 -1.0171
  158OSM    H3F17717   4.835   4.252   2.849  0.8270  0.6672  0.7396
  158OSM    H3G17718   4.976   4.152   2.889 -1.6145 -0.7359  3.1379
  158OSM    C4F17719   4.792   4.047   2.930  0.2425 -0.7194 -0.1352
  158OSM    H4F17720   4.688   4.027   2.897 -1.4611 -0.5368  4.4223
  158OSM    H4G17721   4.777   4.088   3.033 -0.5297  1.2955 -0.9882
  158OSM    C5F17722   4.864   3.911   2.947 -0.4034  0.2027 -0.3737
  158OSM    H5F17723   4.966   3.937   2.983 -0.7477  0.8085  0.1978
  158OSM    H5G17724   4.873   3.863   2.847 -1.5946  1.0699 -0.9224
  158OSM    C6F17725   4.810   3.807   3.045 -0.1165  0.4809 -0.0656
  158OSM    H6F17726   4.704   3.780   3.025 -0.3044  1.2697 -0.1655
  158OSM    H6G17727   4.817   3.848   3.148 -1.9690  0.8679 -0.0484
  158OSM    C7F17728   4.884   3.675   3.043  0.1478 -0.2703 -0.0651
  158OSM    H7F17729   4.986   3.713   3.068 -0.1085  0.9657 -0.7971
  158OSM    H7G17730   4.896   3.643   2.937 -1.9409 -0.2364 -0.3436
  158OSM    C8F17731   4.822   3.584   3.147  0.0126 -0.2793  0.1558
  158OSM    H8F17732   4.723   3.547   3.115 -0.3441 -0.7035  1.6993
  158OSM    H8G17733   4.814   3.645   3.239  0.5552 -0.7273  0.5054
  158OSM    C9F17734   4.924   3.474   3.158  0.3907  0.5326 -0.1754
  158OSM    H9F17735   4.945   3.430   3.059 -0.7029 -1.1627  0.2993
  158OSM   C10F17736   4.974   3.417   3.270 -0.6807  0.0424  0.6458
  158OSM   H10F17737   5.054   3.342   3.259 -2.9515 -2.6368  1.3697
  158OSM   C11F17738   4.940   3.455   3.415  0.2881  0.6418  0.5150
  158OSM   H11F17739   4.884   3.375   3.468  2.1289 -0.8896  0.2135
  158OSM   H11G17740   4.867   3.539   3.408 -1.2559 -0.5837  1.3370
  158OSM   C12F17741   5.068   3.478   3.505  0.4590  0.8178  0.2556
  158OSM   H12F17742   5.129   3.556   3.455  1.2736  0.9188  1.3674
  158OSM   H12G17743   5.126   3.384   3.513  1.2160  1.4384  3.1428
  158OSM   C13F17744   5.039   3.508   3.652  0.4126  0.3896 -0.5188
  158OSM   H13F17745   4.967   3.441   3.703 -0.3528  0.2689 -1.7100
  158OSM   H13G17746   4.996   3.610   3.662  1.6870  1.0512 -1.4585
  158OSM   C14F17747   5.170   3.530   3.722 -0.3528  0.8063  0.3547
  158OSM   H14F17748   5.237   3.588   3.655 -1.0203  1.6684  0.4110
  158OSM   H14G17749   5.213   3.430   3.741  1.0399  1.2300 -0.4374
  158OSM   C15F17750   5.159   3.619   3.848  0.1666  0.0305  0.1126
  158OSM   H15F17751   5.069   3.587   3.906  0.5029  0.8972  1.1509
  158OSM   H15G17752   5.123   3.720   3.817  1.6630 -0.2817 -3.0181
  158OSM   C16F17753   5.279   3.588   3.933 -0.0851  0.2458  0.0860
  158OSM   H16F17754   5.361   3.610   3.861 -1.3702  0.5165 -1.3388
  158OSM   H16G17755   5.282   3.483   3.969  1.9118  0.4990  0.7762
  158OSM   C17F17756   5.297   3.670   4.062  0.6652  0.2156  1.0493
  158OSM   H17F17757   5.217   3.652   4.136  0.5602  0.7058  1.0611
  158OSM   H17G17758   5.292   3.778   4.037 -3.3606 -0.4695 -1.9831
  158OSM   C18F17759   5.423   3.647   4.139 -0.3874 -0.0813  0.0358
  158OSM   H18F17760   5.421   3.545   4.184 -0.2317  0.3005  0.9182
  158OSM   H18G17761   5.446   3.732   4.206  0.2458 -1.4747  1.6366
  158OSM   H18H17762   5.497   3.662   4.057 -1.5661  1.5831 -0.7887
  159OSM      N17763   5.968   6.918   2.197  0.4726  0.3518  0.0854
  159OSM    C1517764   5.877   6.984   2.288  0.4342 -0.2777  0.0194
  159OSM   H15A17765   5.927   7.001   2.382 -0.0042 -0.8147  0.3509
  159OSM   H15B17766   5.790   6.922   2.302  1.2937 -2.1024 -2.1073
  159OSM   H15C17767   5.846   7.080   2.248 -0.5698 -1.4301 -2.1147
  159OSM    C1417768   6.112   6.970   2.209  0.1524 -0.1033 -0.0345
  159OSM   H14A17769   6.158   6.936   2.301  0.4724  1.0162  0.2325
  159OSM   H14B17770   6.121   7.076   2.190  1.5778 -0.3153 -0.6512
  159OSM   H14C17771   6.163   6.929   2.123  0.1074 -0.8197  0.2722
  159OSM    C1317772   5.980   6.773   2.244 -0.1425  0.1026  0.3791
  159OSM   H13A17773   6.024   6.784   2.342  1.2397  3.7429 -0.4788
  159OSM   H13B17774   6.043   6.712   2.180 -4.8985 -2.8884 -1.9992
  159OSM   H13C17775   5.883   6.726   2.246 -0.9921  1.6675 -1.1124
  159OSM    C1217776   5.928   6.941   2.049 -0.5028  0.5468  0.5732
  159OSM   H12A17777   6.003   6.909   1.979  0.4753  1.0666  1.3534
  159OSM   H12B17778   5.914   7.046   2.027 -0.6120  0.9192  2.2893
  159OSM    C1117779   5.798   6.873   1.994  0.4896 -0.1571  0.2755
  159OSM   H11A17780   5.786   6.896   1.885 -2.3480  1.3527  0.8096
  159OSM   H11B17781   5.712   6.925   2.040 -0.4325 -0.3116 -1.2058
  159OSM      P17782   5.703   6.658   2.101 -0.1946  0.0535 -0.3200
  159OSM    O1317783   5.587   6.615   2.018  0.2664  0.3656 -0.4369
  159OSM    O1417784   5.781   6.551   2.163 -0.1465 -0.3056 -0.0844
  159OSM    O1117785   5.670   6.768   2.210  0.0675  0.2349  0.3651
  159OSM    O1217786   5.803   6.735   2.010  0.6882  0.1137  0.4046
  159OSM    C1S17787   5.646   6.714   2.344 -0.6582  0.0187 -0.2722
  159OSM    H1S17788   5.746   6.694   2.390 -0.4120 -0.1605 -0.8633
  159OSM    H1T17789   5.584   6.622   2.344 -1.4385  0.5297 -0.8347
  159OSM     NF17790   5.561   6.771   2.564 -0.5488 -0.2389 -0.9596
  159OSM    HNF17791   5.470   6.739   2.591  0.6022 -1.9808  1.2007
  159OSM    C2S17792   5.565   6.816   2.428 -0.1025  0.2480 -0.4029
  159OSM    H2S17793   5.620   6.913   2.423  0.1905  0.1165  0.2682
  159OSM    C3S17794   5.427   6.836   2.362  0.2276 -0.2575 -0.9068
  159OSM    H3S17795   5.360   6.749   2.378 -0.0413  0.1311  0.1777
  159OSM     O317796   5.430   6.883   2.228 -0.5728 -0.1520 -0.4194
  159OSM    HO317797   5.517   6.856   2.198 -1.1256 -1.9215 -0.5332
  159OSM    C4S17798   5.334   6.932   2.444 -0.1269 -0.3474  0.5251
  159OSM    H4S17799   5.366   7.037   2.437  0.4716 -0.5878 -0.5661
  159OSM    C5S17800   5.218   6.906   2.505  0.0851  0.7988 -0.0881
  159OSM    H5S17801   5.175   6.806   2.487  1.0877  0.5482 -1.2126
  159OSM    C6S17802   5.125   6.991   2.588 -0.0204  0.6980 -0.1495
  159OSM    H6S17803   5.020   6.988   2.552  0.6576  0.5602 -2.2575
  159OSM    H6T17804   5.160   7.096   2.584  2.6221 -0.0982  0.5147
  159OSM    C7S17805   5.134   6.941   2.736 -0.4101  0.0309  0.2398
  159OSM    H7S17806   5.240   6.944   2.770  1.2622  2.9926 -4.2927
  159OSM    H7T17807   5.105   6.834   2.740  2.4038 -0.8215  0.1779
  159OSM    C8S17808   5.044   7.025   2.830 -0.6434 -0.0558 -0.3641
  159OSM    H8S17809   4.939   7.026   2.792 -0.0650 -0.7733 -2.0368
  159OSM    H8T17810   5.086   7.128   2.831 -0.4413 -0.1396  0.3705
  159OSM    C9S17811   5.046   6.965   2.966 -0.8462 -0.6405  0.0283
  159OSM    H9S17812   5.147   6.980   3.011 -0.7624 -0.9112 -0.0724
  159OSM    H9T17813   5.031   6.855   2.964  1.5236 -1.0031 -1.6147
  159OSM   C10S17814   4.943   7.035   3.057  0.3212 -0.6881 -0.7770
  159OSM   H10S17815   4.845   6.994   3.023 -0.4344  0.5156 -0.1190
  159OSM   H10T17816   4.935   7.145   3.048 -1.1529 -0.5378  1.5909
  159OSM   C11S17817   4.963   7.002   3.207  0.8352 -0.4362 -0.5628
  159OSM   H11S17818   5.067   7.031   3.232  0.1866  1.1502  0.4853
  159OSM   H11T17819   4.941   6.894   3.219  0.5768 -0.4674 -1.2500
  159OSM   C12S17820   4.869   7.072   3.306  0.5055  0.3954 -0.1134
  159OSM   H12S17821   4.761   7.064   3.281  0.1859  1.3062  0.8869
  159OSM   H12T17822   4.890   7.181   3.311 -0.8793  0.6380  1.1123
  159OSM   C13S17823   4.884   7.029   3.458 -0.8528 -0.9470 -0.1619
  159OSM   H13S17824   4.833   6.932   3.478 -4.1152  0.5133 -0.7870
  159OSM   H13T17825   4.826   7.103   3.516  0.8494 -0.5024  1.0582
  159OSM   C14S17826   5.032   7.033   3.514 -0.3079  0.4866 -0.1031
  159OSM   H14S17827   5.069   7.136   3.497 -0.8561  0.6225 -0.4887
  159OSM   H14T17828   5.100   6.963   3.461  0.5190  1.6552 -0.6284
  159OSM   C15S17829   5.034   7.008   3.670 -0.0633 -0.2017 -0.6384
  159OSM   H15S17830   5.029   6.897   3.675  1.5314 -0.3785 -2.1036
  159OSM   H15T17831   4.954   7.062   3.725  2.5065  1.2937  1.9239
  159OSM   C16S17832   5.166   7.047   3.741 -0.1037 -0.1771 -0.8680
  159OSM   H16S17833   5.182   7.156   3.726  1.1772 -0.2583 -0.2507
  159OSM   H16T17834   5.254   7.011   3.683  1.1353  3.6433 -1.6840
  159OSM   C17S17835   5.173   7.000   3.890  0.0280  0.1368  0.0421
  159OSM   H17S17836   5.126   6.899   3.885 -0.5860  0.4108  0.2157
  159OSM   H17T17837   5.125   7.079   3.951  0.3420  1.7059 -1.6667
  159OSM   C18S17838   5.312   6.978   3.936  0.4543  0.0970  0.1928
  159OSM   H18S17839   5.320   6.907   4.021  0.5271  0.7412  0.7318
  159OSM   H18T17840   5.353   7.077   3.965 -0.8971  0.8211 -0.2490
  159OSM   H18U17841   5.385   6.950   3.857  0.7360  0.9494  0.1416
  159OSM    C1F17842   5.666   6.777   2.649 -0.0534  0.4623  0.1868
  159OSM     OF17843   5.786   6.786   2.609  0.9478  0.0035 -0.1334
  159OSM    C2F17844   5.642   6.750   2.801  0.4757  0.1413 -0.3076
  159OSM    H2F17845   5.733   6.788   2.853  0.0061 -1.0197  1.4367
  159OSM    H2G17846   5.645   6.639   2.806  1.1675  0.1994  0.9998
  159OSM    C3F17847   5.515   6.805   2.868  0.0321 -0.0091  0.0916
  159OSM    H3F17848   5.435   6.772   2.798  1.9901 -2.0341 -1.3419
  159OSM    H3G17849   5.515   6.916   2.863  0.0420 -0.0443 -0.9292
  159OSM    C4F17850   5.498   6.750   3.006  0.2880  0.3319  0.1243
  159OSM    H4F17851   5.591   6.781   3.058  0.0669  2.5605 -0.6876
  159OSM    H4G17852   5.497   6.639   3.009 -1.3171  0.3409  0.8860
  159OSM    C5F17853   5.367   6.787   3.079 -0.3171 -0.5917  0.0616
  159OSM    H5F17854   5.290   6.736   3.017  1.0749 -0.0724 -2.1782
  159OSM    H5G17855   5.362   6.898   3.071 -0.9524 -0.7009 -1.2880
  159OSM    C6F17856   5.366   6.738   3.228 -0.3719 -0.3396  0.6857
  159OSM    H6F17857   5.416   6.813   3.293 -0.4022  0.2996 -0.0126
  159OSM    H6G17858   5.404   6.636   3.249 -1.9612 -0.7843  1.4860
  159OSM    C7F17859   5.226   6.742   3.282 -0.2638 -0.8934  1.3957
  159OSM    H7F17860   5.161   6.680   3.216 -0.6454  0.9102 -0.0114
  159OSM    H7G17861   5.186   6.844   3.263 -0.3858 -1.0483  0.7785
  159OSM    C8F17862   5.231   6.705   3.434  0.5680  0.2447 -0.4482
  159OSM    H8F17863   5.126   6.711   3.470  0.5599  0.6882 -0.5479
  159OSM    H8G17864   5.289   6.778   3.494 -1.1455  2.2736 -1.1774
  159OSM    C9F17865   5.272   6.559   3.455 -0.5255  0.3953 -0.0705
  159OSM    H9F17866   5.241   6.494   3.373 -0.4921  1.0640 -0.6177
  159OSM   C10F17867   5.352   6.506   3.558  0.2743  0.0958  0.0300
  159OSM   H10F17868   5.392   6.404   3.552  0.0979 -0.0075  0.5898
  159OSM   C11F17869   5.404   6.581   3.683 -0.0062  0.0172  0.8444
  159OSM   H11F17870   5.419   6.505   3.763 -1.4639 -1.7428 -0.4678
  159OSM   H11G17871   5.329   6.655   3.718  0.2576  1.2753 -1.1214
  159OSM   C12F17872   5.542   6.659   3.678  0.0627 -0.1166 -0.7816
  159OSM   H12F17873   5.546   6.734   3.596  0.2549 -0.4219 -1.0595
  159OSM   H12G17874   5.615   6.579   3.650 -1.3211 -1.1957 -1.4716
  159OSM   C13F17875   5.597   6.725   3.811 -0.6211  0.4587  0.3613
  159OSM   H13F17876   5.510   6.779   3.855 -1.6757  0.6538 -1.8259
  159OSM   H13G17877   5.683   6.791   3.786 -1.2297  0.2930 -2.5611
  159OSM   C14F17878   5.622   6.629   3.923 -0.5773 -0.3131  0.0117
  159OSM   H14F17879   5.692   6.546   3.901 -0.4338  0.3838 -2.5090
  159OSM   H14G17880   5.529   6.570   3.939 -2.5759  2.5804 -0.0929
  159OSM   C15F17881   5.665   6.679   4.055 -0.5079  0.5227  0.4060
  159OSM   H15F17882   5.767   6.721   4.048 -0.2895  0.2903  1.8111
  159OSM   H15G17883   5.674   6.591   4.123 -1.5154  1.5461  1.9335
  159OSM   C16F17884   5.570   6.778   4.122  0.7782  0.5617 -0.4814
  159OSM   H16F17885   5.488   6.805   4.052 -0.7357 -1.3081  0.5116
  159OSM   H16G17886   5.616   6.874   4.155  0.0841  1.5892 -2.3342
  159OSM   C17F17887   5.500   6.722   4.248 -0.8436  0.1625  0.0498
  159OSM   H17F17888   5.499   6.611   4.249  0.2371  0.0308 -3.2343
  159OSM   H17G17889   5.393   6.751   4.243 -1.9860 -3.3029  1.3080
  159OSM   C18F17890   5.559   6.797   4.374  1.1661  0.3548 -0.1325
  159OSM   H18F17891   5.497   6.784   4.464  1.7054 -1.0015  0.0772
  159OSM   H18G17892   5.565   6.906   4.353  2.1077  0.5559  1.0588
  159OSM   H18H17893   5.657   6.750   4.397  0.5298 -1.1190 -0.3129
  160OSM      N17894   3.119   6.556   2.298 -0.4006 -0.1239  0.1786
  160OSM    C1517895   3.216   6.442   2.297 -0.8023 -0.1565 -0.4202
  160OSM   H15A17896   3.306   6.494   2.267 -1.7530  1.9195  0.1265
  160OSM   H15B17897   3.196   6.367   2.222  0.3174 -0.0434 -0.8530
  160OSM   H15C17898   3.220   6.393   2.393  1.1542  0.2992 -0.2128
  160OSM    C1417899   3.082   6.606   2.162 -0.5865  0.0564  0.0402
  160OSM   H14A17900   3.021   6.694   2.167 -0.6297  0.1066 -1.0665
  160OSM   H14B17901   3.020   6.533   2.112 -1.6209  0.2563  0.9909
  160OSM   H14C17902   3.173   6.642   2.117  0.7898  0.9378  3.2179
  160OSM    C1317903   3.002   6.505   2.374  0.0770  0.1728  0.4699
  160OSM   H13A17904   2.937   6.589   2.390  0.4431  0.7565 -0.9442
  160OSM   H13B17905   3.022   6.477   2.476 -0.5401 -2.0254  0.0382
  160OSM   H13C17906   2.944   6.431   2.321  1.4465  0.5451 -1.6929
  160OSM    C1217907   3.179   6.674   2.378 -0.3789  0.2433  0.1232
  160OSM   H12A17908   3.191   6.648   2.482  0.0498 -1.2145 -0.2710
  160OSM   H12B17909   3.100   6.746   2.392 -0.7432 -0.4114  1.7469
  160OSM    C1117910   3.301   6.750   2.324 -0.3907 -0.1929  0.3253
  160OSM   H11A17911   3.325   6.844   2.377  0.5659 -0.9749  1.3120
  160OSM   H11B17912   3.279   6.770   2.216  1.2855  1.3121  0.2219
  160OSM      P17913   3.534   6.695   2.211  0.2641  0.2564 -0.2813
  160OSM    O1317914   3.531   6.576   2.125  0.3959  0.3884 -0.0520
  160OSM    O1417915   3.518   6.835   2.157 -0.5570  0.1746  0.1294
  160OSM    O1117916   3.672   6.691   2.293  0.1824 -0.4892  0.3766
  160OSM    O1217917   3.418   6.670   2.323 -0.0537 -0.4034 -0.2432
  160OSM    C1S17918   3.699   6.789   2.390 -0.0201 -0.2183 -0.7512
  160OSM    H1S17919   3.622   6.868   2.404 -0.4486 -0.9873  1.7315
  160OSM    H1T17920   3.792   6.843   2.361  1.7419 -2.1896  0.8403
  160OSM     NF17921   3.734   6.815   2.632 -0.2217  0.0328 -0.2868
  160OSM    HNF17922   3.819   6.861   2.655  0.0376 -0.7019  0.2661
  160OSM    C2S17923   3.744   6.720   2.524  0.0363  0.8098 -0.0641
  160OSM    H2S17924   3.669   6.641   2.548  1.6823 -0.8851 -0.2632
  160OSM    C3S17925   3.887   6.659   2.504 -0.0226  0.1486  0.8010
  160OSM    H3S17926   3.961   6.738   2.477  0.9046 -0.7643  0.5867
  160OSM     O317927   3.900   6.569   2.392  0.0188 -0.0706 -0.1651
  160OSM    HO317928   3.823   6.581   2.335  0.2219 -1.2666 -0.7261
  160OSM    C4S17929   3.932   6.583   2.618 -0.0411 -0.1962 -0.1886
  160OSM    H4S17930   3.868   6.495   2.632 -0.9710  0.3843 -0.6729
  160OSM    C5S17931   4.027   6.623   2.708 -0.2279  0.7026  0.1606
  160OSM    H5S17932   4.075   6.722   2.697  0.4121  0.4124  0.2802
  160OSM    C6S17933   4.063   6.572   2.846  0.1235 -0.0970 -0.3817
  160OSM    H6S17934   4.170   6.564   2.873 -0.3045  0.6290  1.7186
  160OSM    H6T17935   4.031   6.467   2.862  2.6431 -1.0915 -1.2825
  160OSM    C7S17936   4.014   6.657   2.971  0.0176  0.5607  0.1177
  160OSM    H7S17937   3.908   6.689   2.963 -0.2111  0.0524  0.9216
  160OSM    H7T17938   4.075   6.749   2.963 -0.4998  0.8439 -0.5893
  160OSM    C8S17939   4.043   6.582   3.101  0.9481 -0.3639  0.1221
  160OSM    H8S17940   4.147   6.544   3.106  0.8615 -0.4879  1.2289
  160OSM    H8T17941   3.970   6.499   3.109  0.6763 -0.0165  1.5512
  160OSM    C9S17942   4.030   6.665   3.244 -0.0331 -0.1054 -0.2560
  160OSM    H9S17943   3.929   6.710   3.253  0.7155  1.2189  2.8293
  160OSM    H9T17944   4.096   6.752   3.230 -1.6977  1.2443 -0.0758
  160OSM   C10S17945   4.052   6.567   3.365 -0.8727 -0.3103 -0.4707
  160OSM   H10S17946   4.161   6.548   3.376 -0.2503  2.5622 -0.7951
  160OSM   H10T17947   4.003   6.469   3.346  1.5816 -1.8526  0.6629
  160OSM   C11S17948   4.010   6.627   3.502  0.1478  0.2037  0.5040
  160OSM   H11S17949   3.901   6.649   3.497  0.3376  1.1170  0.3026
  160OSM   H11T17950   4.064   6.721   3.523  1.5985 -0.3800 -0.4498
  160OSM   C12S17951   4.024   6.529   3.621  0.1883  0.1115 -0.0505
  160OSM   H12S17952   4.133   6.519   3.636  0.1617 -0.7508 -0.3678
  160OSM   H12T17953   3.980   6.428   3.602  3.0096 -0.9527 -1.4847
  160OSM   C13S17954   3.961   6.590   3.744  0.2284 -0.3012 -0.2666
  160OSM   H13S17955   3.855   6.595   3.711  0.6153  0.3161 -1.4622
  160OSM   H13T17956   3.996   6.692   3.771  0.8369 -0.0132 -2.0048
  160OSM   C14S17957   3.973   6.501   3.865  0.6603 -0.4311 -0.2686
  160OSM   H14S17958   4.076   6.499   3.907  0.7605  1.4656 -0.3605
  160OSM   H14T17959   3.930   6.400   3.846 -2.0228  0.4136  0.9272
  160OSM   C15S17960   3.891   6.555   3.981  0.4903 -0.8449  0.3692
  160OSM   H15S17961   3.794   6.587   3.938  0.6917 -1.9093 -0.9448
  160OSM   H15T17962   3.935   6.648   4.025 -1.4090  0.6696 -0.7999
  160OSM   C16S17963   3.865   6.473   4.099  1.1724  0.5348 -0.9955
  160OSM   H16S17964   3.960   6.429   4.136  1.1950  1.6672  0.3730
  160OSM   H16T17965   3.804   6.382   4.081  3.0746 -1.0101 -0.0184
  160OSM   C17S17966   3.828   6.567   4.217 -0.1714  0.2258  0.6211
  160OSM   H17S17967   3.745   6.635   4.188  1.4283  1.5026 -1.2625
  160OSM   H17T17968   3.909   6.642   4.235 -0.7388  1.4575 -1.5431
  160OSM   C18S17969   3.798   6.486   4.340 -0.3439 -0.2411 -0.1181
  160OSM   H18S17970   3.690   6.463   4.350 -0.5101 -0.7492 -2.5008
  160OSM   H18T17971   3.822   6.544   4.432 -0.2384 -0.3663 -0.0654
  160OSM   H18U17972   3.854   6.390   4.350  0.4703  0.4055  2.1177
  160OSM    C1F17973   3.623   6.864   2.683  0.2429  0.1676 -0.9196
  160OSM     OF17974   3.515   6.852   2.625  0.2857  1.0279  0.7728
  160OSM    C2F17975   3.623   6.951   2.814 -0.9991 -0.0272 -0.5003
  160OSM    H2F17976   3.518   6.979   2.836 -0.5900  1.5573 -0.4766
  160OSM    H2G17977   3.684   7.042   2.798 -1.0924  0.1511  0.1161
  160OSM    C3F17978   3.671   6.856   2.928  0.0358  0.4289  0.6287
  160OSM    H3F17979   3.768   6.812   2.898 -1.3486 -0.8269 -2.4088
  160OSM    H3G17980   3.598   6.772   2.934  0.6581 -0.0648  1.3505
  160OSM    C4F17981   3.678   6.919   3.064 -0.2817 -0.2849 -0.4599
  160OSM    H4F17982   3.706   7.026   3.054 -0.4750 -0.2153 -0.2380
  160OSM    H4G17983   3.751   6.866   3.128 -0.4659 -0.1736 -0.1565
  160OSM    C5F17984   3.542   6.925   3.123  0.2177 -0.1425 -0.5588
  160OSM    H5F17985   3.482   6.834   3.103  1.7079 -1.1034 -0.8070
  160OSM    H5G17986   3.500   7.019   3.080  1.1134  0.8661  0.6708
  160OSM    C6F17987   3.550   6.956   3.274 -0.3358  0.0879 -0.2536
  160OSM    H6F17988   3.587   7.059   3.295 -4.3428  1.2351  2.4297
  160OSM    H6G17989   3.617   6.888   3.331  1.4923  0.5011 -1.8339
  160OSM    C7F17990   3.408   6.948   3.338  0.6141 -0.3711 -0.4530
  160OSM    H7F17991   3.321   6.991   3.285 -2.0465  0.6146  4.1760
  160OSM    H7G17992   3.403   7.012   3.429 -1.3477 -1.3227  0.1687
  160OSM    C8F17993   3.382   6.804   3.371 -0.6671 -0.6086  0.7188
  160OSM    H8F17994   3.476   6.760   3.411 -0.8478  0.5576  2.5656
  160OSM    H8G17995   3.356   6.747   3.280 -1.9492  1.9557 -0.6282
  160OSM    C9F17996   3.279   6.787   3.483 -0.1046 -0.6616  0.2839
  160OSM    H9F17997   3.174   6.811   3.462 -0.6967 -1.7649  1.8561
  160OSM   C10F17998   3.296   6.732   3.597  0.6173  0.0620 -0.4756
  160OSM   H10F17999   3.218   6.732   3.675  1.6303  0.2250  0.5570
  160OSM   C11F18000   3.424   6.691   3.652 -0.2046 -0.3676 -0.9464
  160OSM   H11F18001   3.500   6.772   3.643  1.2338 -1.4493  0.7001
  160OSM   H11G18002   3.466   6.598   3.609  2.4831  0.1007  0.4324
  160OSM   C12F18003   3.434   6.664   3.810  0.7756  0.1920  0.2564
  160OSM   H12F18004   3.422   6.759   3.866 -0.0599  1.3642 -1.8045
  160OSM   H12G18005   3.536   6.632   3.840  0.5442  0.6322  1.6188
  160OSM   C13F18006   3.329   6.564   3.853  0.2284 -0.6466 -0.0781
  160OSM   H13F18007   3.334   6.480   3.780  0.5978 -0.5394 -0.1741
  160OSM   H13G18008   3.231   6.615   3.842  0.9453  0.4239 -1.7623
  160OSM   C14F18009   3.360   6.519   4.001  0.7522 -0.1872  0.3154
  160OSM   H14F18010   3.411   6.609   4.041  0.8256  0.4516 -1.1320
  160OSM   H14G18011   3.433   6.436   4.007  0.5031 -0.3295  1.6883
  160OSM   C15F18012   3.233   6.485   4.079  0.2707 -0.2676 -0.4307
  160OSM   H15F18013   3.182   6.420   4.005 -0.3493 -0.1620 -0.1030
  160OSM   H15G18014   3.171   6.577   4.085  1.1379  0.3971 -1.3669
  160OSM   C16F18015   3.260   6.417   4.211 -0.7628  0.0417 -0.0875
  160OSM   H16F18016   3.343   6.466   4.267  0.9931 -3.0695  0.2531
  160OSM   H16G18017   3.296   6.313   4.202  2.3588  1.0855 -1.1410
  160OSM   C17F18018   3.139   6.441   4.300 -0.3845 -0.0709  0.8277
  160OSM   H17F18019   3.053   6.371   4.294  0.5328 -1.1671  0.1557
  160OSM   H17G18020   3.100   6.542   4.273  0.3481 -0.5467 -2.3846
  160OSM   C18F18021   3.189   6.460   4.445  0.6521 -0.2579 -0.9251
  160OSM   H18F18022   3.227   6.564   4.452 -1.0583  0.2831  2.7186
  160OSM   H18G18023   3.266   6.387   4.474 -0.4157 -0.6372  1.1096
  160OSM   H18H18024   3.107   6.454   4.519 -0.0095  0.2465 -1.5935
  161OSM      N18025   0.972   4.436   1.610 -0.3158 -0.1790  0.4419
  161OSM    C1518026   0.951   4.296   1.582 -0.3436  0.9636  0.2687
  161OSM   H15A18027   1.040   4.239   1.563 -0.2854  0.8154  0.9641
  161OSM   H15B18028   0.895   4.292   1.490  2.5354  0.6770 -1.6065
  161OSM   H15C18029   0.913   4.250   1.673  1.2778 -1.2557 -0.0926
  161OSM    C1418030   1.036   4.503   1.495 -0.2905 -0.6074  0.5223
  161OSM   H14A18031   0.982   4.509   1.401  0.4296  0.0740  0.1419
  161OSM   H14B18032   1.125   4.446   1.474 -0.0329 -0.1262  0.3225
  161OSM   H14C18033   1.069   4.602   1.520  0.1461 -0.3963 -0.8143
  161OSM    C1318034   0.847   4.505   1.632  0.1322 -0.2746 -0.3281
  161OSM   H13A18035   0.862   4.610   1.650  0.3741 -0.3175 -0.2723
  161OSM   H13B18036   0.791   4.472   1.718 -0.4861  0.6714 -0.3560
  161OSM   H13C18037   0.781   4.505   1.546 -1.4246 -0.2511  0.8312
  161OSM    C1218038   1.063   4.451   1.732  0.0201  0.0431 -0.3903
  161OSM   H12A18039   1.099   4.552   1.748 -1.4968  0.4357  0.7584
  161OSM   H12B18040   1.152   4.391   1.720 -0.6354 -0.9063 -0.6202
  161OSM    C1118041   0.998   4.409   1.868  0.4727 -0.0095  0.3615
  161OSM   H11A18042   1.076   4.387   1.944  1.1892  0.5652 -0.1897
  161OSM   H11B18043   0.946   4.314   1.846  2.7001 -0.6415 -2.8868
  161OSM      P18044   0.929   4.636   1.987 -0.7643  0.3444 -0.0974
  161OSM    O1318045   0.973   4.739   1.883 -0.2258  0.6103 -0.2958
  161OSM    O1418046   0.817   4.685   2.074 -0.3069  0.2758 -0.3278
  161OSM    O1118047   1.061   4.608   2.079  0.4136 -0.8717  0.0251
  161OSM    O1218048   0.898   4.497   1.917 -0.0252 -0.7016 -0.3576
  161OSM    C1S18049   1.098   4.718   2.157 -1.1045 -0.0559  0.4840
  161OSM    H1S18050   1.089   4.813   2.100  1.9012 -0.8426 -1.5501
  161OSM    H1T18051   1.208   4.706   2.169 -1.2434 -0.4855  1.4706
  161OSM     NF18052   1.127   4.823   2.370 -0.4536 -0.9779 -0.9063
  161OSM    HNF18053   1.196   4.793   2.436  0.2782 -1.3818 -1.8361
  161OSM    C2S18054   1.046   4.726   2.308 -0.4680  0.2558 -0.1057
  161OSM    H2S18055   0.942   4.764   2.303 -0.6428 -0.2984 -0.7206
  161OSM    C3S18056   1.040   4.590   2.384  0.0974  0.5560 -0.2101
  161OSM    H3S18057   1.146   4.559   2.375  0.4410  0.9045  2.1079
  161OSM     O318058   0.972   4.487   2.315 -0.0546 -0.1863 -0.4353
  161OSM    HO318059   0.982   4.522   2.226  1.0830  0.6230 -0.0032
  161OSM    C4S18060   0.996   4.595   2.527  0.0074 -0.3037  0.1062
  161OSM    H4S18061   1.082   4.620   2.591  0.1710 -0.9120  0.1340
  161OSM    C5S18062   0.868   4.581   2.571  0.1292 -0.5304 -0.2432
  161OSM    H5S18063   0.794   4.553   2.495 -2.3021  0.7104  1.5246
  161OSM    C6S18064   0.832   4.602   2.718 -0.4017 -0.0911  0.3326
  161OSM    H6S18065   0.816   4.507   2.772  1.3754 -1.0369 -0.7222
  161OSM    H6T18066   0.729   4.645   2.721 -0.5411 -0.3986 -0.0303
  161OSM    C7S18067   0.923   4.694   2.803 -0.1143 -0.4916 -0.0282
  161OSM    H7S18068   0.943   4.789   2.748 -2.3805 -0.4319 -0.8176
  161OSM    H7T18069   1.014   4.634   2.826 -0.0275 -0.1364  0.5868
  161OSM    C8S18070   0.854   4.710   2.940 -0.1020 -0.5840  0.1077
  161OSM    H8S18071   0.810   4.615   2.975  1.0982 -0.9906  0.5577
  161OSM    H8T18072   0.769   4.781   2.930  0.4305  0.1629  0.7100
  161OSM    C9S18073   0.961   4.751   3.048  0.3815  0.2054  0.3984
  161OSM    H9S18074   0.997   4.852   3.018  2.5969 -0.7817 -0.4463
  161OSM    H9T18075   1.041   4.675   3.051 -0.1681 -0.4578 -0.8712
  161OSM   C10S18076   0.896   4.758   3.191 -0.7414 -0.2629  0.5790
  161OSM   H10S18077   0.868   4.662   3.238 -0.3331 -0.7635 -0.1904
  161OSM   H10T18078   0.813   4.831   3.208  1.7452  2.7673  0.7032
  161OSM   C11S18079   1.003   4.820   3.282 -0.1731 -0.1321  0.6452
  161OSM   H11S18080   1.014   4.929   3.264  1.8416 -0.3137  0.5900
  161OSM   H11T18081   1.101   4.777   3.254 -0.6440 -0.4673 -0.5241
  161OSM   C12S18082   0.978   4.801   3.434 -0.6048  0.1413 -0.1380
  161OSM   H12S18083   0.957   4.693   3.449  1.9599 -0.3404  0.3804
  161OSM   H12T18084   0.891   4.857   3.474 -0.9667  0.3259 -1.1482
  161OSM   C13S18085   1.109   4.847   3.510  1.3093 -0.0265 -0.6822
  161OSM   H13S18086   1.128   4.945   3.462  1.5852 -0.1698 -0.8672
  161OSM   H13T18087   1.194   4.780   3.484  1.1570 -1.2319  1.6832
  161OSM   C14S18088   1.094   4.855   3.669  0.0472 -0.7883 -0.5220
  161OSM   H14S18089   1.011   4.918   3.707 -1.4754 -2.5034 -0.8565
  161OSM   H14T18090   1.185   4.903   3.712 -0.5491 -0.2353  0.1471
  161OSM   C15S18091   1.084   4.717   3.734  0.0538 -0.3223 -0.4531
  161OSM   H15S18092   1.157   4.641   3.699 -1.0826 -1.3851 -0.5946
  161OSM   H15T18093   0.986   4.671   3.709  0.8074 -2.4005  0.2473
  161OSM   C16S18094   1.119   4.732   3.881  0.1428 -0.3460  0.4956
  161OSM   H16S18095   1.085   4.636   3.926  0.0089 -1.7286 -2.3540
  161OSM   H16T18096   1.067   4.825   3.914 -0.2075 -0.0206 -0.9129
  161OSM   C17S18097   1.268   4.746   3.922 -0.8436 -0.0496  0.1434
  161OSM   H17S18098   1.278   4.743   4.033  1.3684 -0.0218 -0.0212
  161OSM   H17T18099   1.280   4.850   3.885 -3.1654 -0.1755 -1.1718
  161OSM   C18S18100   1.355   4.645   3.852  0.0737 -0.2863 -0.6807
  161OSM   H18S18101   1.320   4.549   3.898 -1.2470  1.2233  1.7045
  161OSM   H18T18102   1.463   4.649   3.876 -0.3045 -2.0859  1.7810
  161OSM   H18U18103   1.352   4.631   3.742 -2.4925 -1.5897 -0.5235
  161OSM    C1F18104   1.108   4.955   2.342 -0.0121 -0.7664  0.3427
  161OSM     OF18105   1.010   4.992   2.278  0.5609 -0.2132  0.3522
  161OSM    C2F18106   1.213   5.054   2.397 -0.0320 -0.1656  0.3410
  161OSM    H2F18107   1.282   5.061   2.310 -0.4580 -0.6131 -0.0381
  161OSM    H2G18108   1.284   5.012   2.472 -0.0542  1.5920  1.4041
  161OSM    C3F18109   1.159   5.186   2.453 -0.7029  0.0812  0.3329
  161OSM    H3F18110   1.100   5.247   2.381 -0.6814 -0.6118 -0.2833
  161OSM    H3G18111   1.235   5.263   2.476  0.6310 -1.1440  0.1234
  161OSM    C4F18112   1.067   5.172   2.570 -0.3360  0.2484 -0.2178
  161OSM    H4F18113   0.974   5.115   2.549 -0.3685  0.1255  0.2372
  161OSM    H4G18114   1.028   5.275   2.588  0.5067  0.3347  1.3475
  161OSM    C5F18115   1.132   5.125   2.703 -0.5119  0.1176 -1.0218
  161OSM    H5F18116   1.232   5.169   2.683 -2.2778  4.3744 -1.5867
  161OSM    H5G18117   1.136   5.014   2.708  1.4017  0.1696 -0.6452
  161OSM    C6F18118   1.069   5.189   2.833 -0.2094 -0.3351  0.3416
  161OSM    H6F18119   0.973   5.134   2.840 -0.2394 -0.1269  1.8809
  161OSM    H6G18120   1.056   5.298   2.815  0.5659 -0.2461  0.2775
  161OSM    C7F18121   1.142   5.168   2.962  0.2932  0.5058  0.1513
  161OSM    H7F18122   1.249   5.195   2.947  0.8772  1.2858  4.4184
  161OSM    H7G18123   1.149   5.061   2.990  0.1431  0.0809 -1.3361
  161OSM    C8F18124   1.086   5.266   3.070  0.3573  0.0027  0.2182
  161OSM    H8F18125   1.045   5.353   3.014  2.2043  0.1435 -0.9753
  161OSM    H8G18126   1.165   5.301   3.140  1.2516 -0.1270 -0.7156
  161OSM    C9F18127   0.968   5.198   3.137  0.4949 -0.3221  0.2110
  161OSM    H9F18128   0.893   5.155   3.070 -0.2348 -1.0924  1.4800
  161OSM   C10F18129   0.944   5.188   3.270  0.8280 -0.1611 -0.0534
  161OSM   H10F18130   0.859   5.130   3.309 -0.4998  1.1585 -0.8178
  161OSM   C11F18131   1.032   5.238   3.379 -0.8711  0.4517 -1.1222
  161OSM   H11F18132   1.111   5.311   3.351  0.2603  0.1054  0.9242
  161OSM   H11G18133   1.082   5.157   3.435 -3.3032  1.3899  2.7667
  161OSM   C12F18134   0.943   5.300   3.486  0.4243  0.2055 -0.0554
  161OSM   H12F18135   0.898   5.225   3.555 -1.0182  0.5118 -0.6332
  161OSM   H12G18136   0.852   5.346   3.442  0.9381 -0.5725 -2.0047
  161OSM   C13F18137   1.004   5.410   3.571 -0.9991 -0.5715 -0.2398
  161OSM   H13F18138   0.923   5.486   3.576 -0.7798 -0.1996 -1.7880
  161OSM   H13G18139   1.095   5.456   3.527 -0.9270 -0.7321 -0.2595
  161OSM   C14F18140   1.032   5.362   3.721 -0.0620  0.7125 -0.3622
  161OSM   H14F18141   0.940   5.349   3.783  0.0431  0.7546 -0.1963
  161OSM   H14G18142   1.090   5.442   3.772  1.0663  0.0221 -0.5300
  161OSM   C15F18143   1.122   5.236   3.733  0.5104 -0.2893  0.4248
  161OSM   H15F18144   1.179   5.233   3.638 -0.8225  2.0732 -0.5333
  161OSM   H15G18145   1.057   5.146   3.736  0.8307 -0.5356  0.0312
  161OSM   C16F18146   1.216   5.233   3.853  0.3611 -0.7475 -0.1511
  161OSM   H16F18147   1.296   5.309   3.847  1.1719 -1.5298  0.4459
  161OSM   H16G18148   1.275   5.139   3.851  0.5076 -0.7210 -3.5814
  161OSM   C17F18149   1.141   5.251   3.985 -0.5246  0.2337 -0.6364
  161OSM   H17F18150   1.056   5.180   3.975  1.7140 -2.4126 -2.6433
  161OSM   H17G18151   1.104   5.354   3.999 -1.7843 -0.4460  1.4937
  161OSM   C18F18152   1.220   5.202   4.102 -0.3371 -0.0175 -0.8089
  161OSM   H18F18153   1.250   5.095   4.095  0.1293  0.1404 -1.2347
  161OSM   H18G18154   1.152   5.200   4.190  2.7626 -0.0860  1.7416
  161OSM   H18H18155   1.311   5.262   4.119 -1.4941  1.4868  0.3286
  162OSM      N18156   2.291   6.078   2.192 -0.5985 -0.3363 -0.0594
  162OSM    C1518157   2.284   5.937   2.160 -0.1079 -0.2283  0.1519
  162OSM   H15A18158   2.311   5.931   2.055 -3.6832  0.5275 -0.9234
  162OSM   H15B18159   2.181   5.909   2.168 -0.0297 -0.5186  0.1373
  162OSM   H15C18160   2.347   5.870   2.217  0.9083 -0.2351 -0.9276
  162OSM    C1418161   2.201   6.156   2.097  0.0844  0.4460 -0.3512
  162OSM   H14A18162   2.099   6.134   2.125  0.3196  0.5782  0.6334
  162OSM   H14B18163   2.214   6.123   1.995  0.4364  0.3309 -0.2695
  162OSM   H14C18164   2.218   6.262   2.105  2.3970  0.0075  2.2406
  162OSM    C1318165   2.258   6.099   2.332  0.7496  0.3221 -0.4974
  162OSM   H13A18166   2.304   6.035   2.405  0.5889 -0.7441 -1.3121
  162OSM   H13B18167   2.151   6.095   2.349  0.9577  0.0882  0.8637
  162OSM   H13C18168   2.287   6.197   2.369  0.8965 -0.2633  1.0025
  162OSM    C1218169   2.439   6.128   2.166  0.9275 -0.2103 -0.1315
  162OSM   H12A18170   2.506   6.085   2.239  0.3047 -0.5633  0.2307
  162OSM   H12B18171   2.434   6.235   2.183 -1.8965 -0.3974  0.7610
  162OSM    C1118172   2.502   6.109   2.030  0.3542 -0.1065  0.2716
  162OSM   H11A18173   2.600   6.162   2.034  0.6039 -0.2856 -2.1375
  162OSM   H11B18174   2.450   6.155   1.944 -0.8627 -1.2359  0.3737
  162OSM      P18175   2.641   5.901   2.090 -0.1764 -0.1689 -0.0790
  162OSM    O1318176   2.678   5.770   2.028 -0.0999 -1.0623 -0.0536
  162OSM    O1418177   2.752   5.998   2.097  0.0261 -0.0716  0.0043
  162OSM    O1118178   2.573   5.874   2.227  0.0938 -0.2776  0.1056
  162OSM    O1218179   2.528   5.966   2.008  0.0991 -0.1919 -0.5731
  162OSM    C1S18180   2.647   5.843   2.346  0.8032  0.3310 -0.1103
  162OSM    H1S18181   2.689   5.938   2.385 -0.1321  0.8460 -0.3495
  162OSM    H1T18182   2.723   5.762   2.339 -0.0271 -0.4989  0.2379
  162OSM     NF18183   2.615   5.800   2.597 -0.0605  0.8127 -0.2347
  162OSM    HNF18184   2.658   5.715   2.625  2.7889  2.0295 -0.5268
  162OSM    C2S18185   2.554   5.809   2.467  0.1262  0.1466  0.0241
  162OSM    H2S18186   2.488   5.898   2.469  1.2260  0.9703  1.0265
  162OSM    C3S18187   2.464   5.686   2.438 -0.0647 -0.2784  0.3881
  162OSM    H3S18188   2.529   5.596   2.445  0.9040  0.2965 -0.7443
  162OSM     O318189   2.411   5.670   2.308 -0.5580 -0.2595  0.4703
  162OSM    HO318190   2.453   5.733   2.249 -0.0101 -0.6230  0.4674
  162OSM    C4S18191   2.355   5.672   2.550 -0.1042 -0.1428 -0.3530
  162OSM    H4S18192   2.384   5.613   2.638  0.2650 -0.1058 -0.4502
  162OSM    C5S18193   2.235   5.721   2.550  0.6862 -0.2034  0.1151
  162OSM    H5S18194   2.195   5.775   2.463  1.2707  2.7974  1.5633
  162OSM    C6S18195   2.137   5.695   2.664  0.1641  0.5941  0.2256
  162OSM    H6S18196   2.176   5.613   2.729  0.0147  0.4607  0.1482
  162OSM    H6T18197   2.034   5.660   2.638  0.6452  0.9179 -2.4111
  162OSM    C7S18198   2.121   5.818   2.752  0.3202  0.2114 -0.1607
  162OSM    H7S18199   2.079   5.893   2.681  0.2222  0.2931 -0.0156
  162OSM    H7T18200   2.220   5.844   2.796 -0.0856 -1.1716  1.6700
  162OSM    C8S18201   2.026   5.797   2.867 -0.3498 -0.0756 -0.0309
  162OSM    H8S18202   1.936   5.740   2.835  0.1052 -0.8251 -0.0028
  162OSM    H8T18203   1.987   5.897   2.898  0.5998 -0.4440  2.5627
  162OSM    C9S18204   2.091   5.719   2.986 -0.3371 -1.0308  0.2065
  162OSM    H9S18205   2.149   5.797   3.040  1.5068 -1.6680 -0.7458
  162OSM    H9T18206   2.169   5.648   2.950 -0.4422 -0.6463 -0.7980
  162OSM   C10S18207   1.996   5.651   3.079  0.6622 -0.7355 -0.3312
  162OSM   H10S18208   1.947   5.567   3.025 -0.4830  0.3557 -1.0524
  162OSM   H10T18209   1.911   5.714   3.113  0.4170 -0.8783 -0.6734
  162OSM   C11S18210   2.079   5.596   3.201  0.5642 -0.0569  0.4879
  162OSM   H11S18211   2.132   5.688   3.234 -0.8201  1.0192 -0.1632
  162OSM   H11T18212   2.140   5.520   3.149  0.2452 -0.7755  1.1524
  162OSM   C12S18213   2.003   5.539   3.322 -0.1349 -0.6291 -0.3726
  162OSM   H12S18214   2.066   5.464   3.374 -0.8314 -2.4841 -2.0739
  162OSM   H12T18215   1.921   5.475   3.284  0.6536 -3.6969  2.5997
  162OSM   C13S18216   1.961   5.643   3.423  0.5656 -0.1904 -0.3478
  162OSM   H13S18217   1.871   5.597   3.469  0.0137  0.5996 -0.6328
  162OSM   H13T18218   1.941   5.736   3.366  2.1836  0.7274  0.4970
  162OSM   C14S18219   2.073   5.668   3.529  0.1857 -0.0922 -0.2680
  162OSM   H14S18220   2.167   5.703   3.482 -0.2692  0.5458 -0.7290
  162OSM   H14T18221   2.082   5.567   3.575 -1.3567 -0.6595 -1.1041
  162OSM   C15S18222   2.044   5.769   3.631  0.3812 -0.7124  0.0953
  162OSM   H15S18223   1.945   5.757   3.679 -0.5178 -0.4899 -1.6359
  162OSM   H15T18224   2.048   5.869   3.583 -1.6723 -0.9991 -0.7511
  162OSM   C16S18225   2.158   5.762   3.744 -0.3324 -0.3518  0.1631
  162OSM   H16S18226   2.257   5.783   3.698 -0.0035  2.0116  1.7988
  162OSM   H16T18227   2.157   5.651   3.754 -0.8667 -0.5181 -1.4774
  162OSM   C17S18228   2.129   5.853   3.861  0.2377 -0.0233  0.0944
  162OSM   H17S18229   2.060   5.802   3.932 -0.1181 -0.8585 -0.8279
  162OSM   H17T18230   2.068   5.940   3.827  2.2371  1.0887 -0.8494
  162OSM   C18S18231   2.250   5.889   3.940 -0.1317  0.4753  0.1859
  162OSM   H18S18232   2.339   5.921   3.881 -0.4540  1.3722  0.1608
  162OSM   H18T18233   2.283   5.801   3.999 -1.0363 -1.5472 -2.1606
  162OSM   H18U18234   2.228   5.969   4.014 -0.0701  1.0263 -0.3795
  162OSM    C1F18235   2.664   5.906   2.657  0.3375  0.3441  0.1700
  162OSM     OF18236   2.643   6.013   2.612  0.1543 -0.3060 -0.2661
  162OSM    C2F18237   2.751   5.877   2.775  0.5265 -0.2851  0.6001
  162OSM    H2F18238   2.815   5.967   2.792  0.0298  0.0584  0.6622
  162OSM    H2G18239   2.830   5.803   2.751  0.6446 -0.3533  1.1754
  162OSM    C3F18240   2.674   5.824   2.900 -0.0513  0.1466  0.0130
  162OSM    H3F18241   2.749   5.808   2.981  3.6823 -0.0221 -3.1778
  162OSM    H3G18242   2.639   5.723   2.873 -1.1483  0.3906  0.4555
  162OSM    C4F18243   2.552   5.914   2.943 -0.4100  0.0778  0.5146
  162OSM    H4F18244   2.483   5.910   2.856  0.9735  0.5766 -0.6379
  162OSM    H4G18245   2.595   6.016   2.953 -2.0450  1.2697 -3.0489
  162OSM    C5F18246   2.487   5.868   3.071  0.2674 -0.3010  0.9022
  162OSM    H5F18247   2.385   5.911   3.080  0.6106  0.4692  1.1998
  162OSM    H5G18248   2.552   5.918   3.146  0.8653 -1.9900  1.5556
  162OSM    C6F18249   2.484   5.716   3.105  0.0799 -0.0532 -0.1312
  162OSM    H6F18250   2.591   5.685   3.108 -0.2157 -1.0042  1.3570
  162OSM    H6G18251   2.444   5.656   3.020  1.5855 -1.5164  0.1576
  162OSM    C7F18252   2.420   5.704   3.241  0.2199  0.7380 -1.0245
  162OSM    H7F18253   2.391   5.598   3.261  2.3875  0.0234 -1.4789
  162OSM    H7G18254   2.325   5.763   3.242 -0.0338  0.3404  0.2611
  162OSM    C8F18255   2.511   5.741   3.361  0.2575 -0.1162  0.7774
  162OSM    H8F18256   2.437   5.759   3.442 -0.4391 -1.4545  0.4673
  162OSM    H8G18257   2.561   5.838   3.340  0.9281 -0.7047 -0.4436
  162OSM    C9F18258   2.607   5.640   3.403  0.3053 -0.1933  0.3218
  162OSM    H9F18259   2.684   5.627   3.326  0.8712  4.4741 -0.1656
  162OSM   C10F18260   2.608   5.559   3.511  0.4317 -0.2400  0.0850
  162OSM   H10F18261   2.681   5.477   3.509  0.5757 -0.1394  0.9177
  162OSM   C11F18262   2.509   5.551   3.627  0.2242  0.0338  0.1472
  162OSM   H11F18263   2.465   5.450   3.618  1.1181 -0.5559  2.0334
  162OSM   H11G18264   2.429   5.626   3.611 -0.0297 -0.9257 -4.5533
  162OSM   C12F18265   2.579   5.539   3.770  0.3575  0.0094 -0.0882
  162OSM   H12F18266   2.656   5.459   3.769  2.2549  1.7714 -0.6852
  162OSM   H12G18267   2.502   5.500   3.841  1.6691  0.3121  1.5700
  162OSM   C13F18268   2.641   5.667   3.822 -0.8150 -0.3722  0.0330
  162OSM   H13F18269   2.578   5.754   3.793 -3.9392 -2.6476 -0.5316
  162OSM   H13G18270   2.748   5.668   3.793 -1.2312  0.1000 -1.6002
  162OSM   C14F18271   2.669   5.669   3.974  0.4266 -0.5105 -0.4653
  162OSM   H14F18272   2.576   5.647   4.031  0.3530  0.6740 -0.0943
  162OSM   H14G18273   2.685   5.775   4.005 -0.4592 -0.2465 -0.8486
  162OSM   C15F18274   2.780   5.578   4.022  0.4505 -0.7096  0.2487
  162OSM   H15F18275   2.879   5.618   3.989 -1.3637  2.5844 -1.6565
  162OSM   H15G18276   2.781   5.475   3.980  0.4135 -1.0745  1.1202
  162OSM   C16F18277   2.778   5.569   4.174  0.3044  0.3766 -0.0284
  162OSM   H16F18278   2.751   5.670   4.211 -2.6466  0.5876 -2.3668
  162OSM   H16G18279   2.873   5.549   4.229 -0.7391  0.3499  1.8252
  162OSM   C17F18280   2.677   5.462   4.217  0.4223 -0.2666 -0.0248
  162OSM   H17F18281   2.716   5.370   4.170 -0.1145 -0.2357 -0.5548
  162OSM   H17G18282   2.580   5.496   4.173  0.4788  3.0276  2.0571
  162OSM   C18F18283   2.678   5.449   4.367  0.4535 -0.1976 -0.0470
  162OSM   H18F18284   2.597   5.377   4.395 -1.9965  1.3063 -2.6724
  162OSM   H18G18285   2.653   5.544   4.420 -2.9414 -0.3941 -1.0200
  162OSM   H18H18286   2.774   5.406   4.401 -0.0254 -0.3829  1.1262
  163OSM      N18287   0.423   5.761   2.039 -0.7445  0.4636 -0.2230
  163OSM    C1518288   0.501   5.716   1.916 -0.1702 -0.7552  0.4135
  163OSM   H15A18289   0.466   5.772   1.830  1.0408 -1.1825 -0.3932
  163OSM   H15B18290   0.497   5.609   1.904  0.8716 -0.6572 -1.1072
  163OSM   H15C18291   0.605   5.743   1.928 -0.8422  0.9341  3.3024
  163OSM    C1418292   0.278   5.715   2.021 -0.4752  0.4808 -0.6567
  163OSM   H14A18293   0.208   5.740   2.099  0.6741 -0.5851  0.7750
  163OSM   H14B18294   0.273   5.608   2.006 -4.3430  0.3227  0.6657
  163OSM   H14C18295   0.234   5.748   1.928  0.2403 -1.8103 -1.8999
  163OSM    C1318296   0.488   5.697   2.160 -0.1886 -0.0210  1.0811
  163OSM   H13A18297   0.594   5.714   2.143 -0.7688  1.6202 -1.3400
  163OSM   H13B18298   0.472   5.590   2.158 -1.7615  0.2028  0.6109
  163OSM   H13C18299   0.446   5.737   2.251  1.5418  1.5182  1.2802
  163OSM    C1218300   0.423   5.910   2.050 -0.1845 -0.1004  0.4589
  163OSM   H12A18301   0.386   5.942   1.954 -0.2741 -1.7874 -0.1043
  163OSM   H12B18302   0.525   5.944   2.060  0.3993 -1.6306  0.0618
  163OSM    C1118303   0.334   5.985   2.156 -0.2547  0.5729 -0.1988
  163OSM   H11A18304   0.366   6.088   2.182 -1.7232  1.1612 -0.6210
  163OSM   H11B18305   0.333   5.929   2.252  1.8339 -1.0880 -1.0558
  163OSM      P18306   0.151   6.083   2.008  0.0166 -0.3943 -0.4043
  163OSM    O1318307   0.262   6.114   1.919 -0.1199 -0.7350  0.2865
  163OSM    O1418308   0.029   6.033   1.940  0.2707  0.1175 -0.0376
  163OSM    O1118309   0.119   6.213   2.086  0.2274 -0.1837  0.1723
  163OSM    O1218310   0.196   5.982   2.115  0.2695 -0.4825  0.1396
  163OSM    C1S18311   0.008   6.243   2.171 -0.1213 -0.2910  0.3067
  163OSM    H1S18312  -0.078   6.181   2.139 -0.8860  1.0492 -0.3393
  163OSM    H1T18313  -0.018   6.349   2.150  1.0748  0.7449  3.4507
  163OSM     NF18314  -0.069   6.227   2.407 -0.5355 -0.2444  0.8264
  163OSM    HNF18315  -0.071   6.297   2.478 -0.8741 -0.3585  0.9311
  163OSM    C2S18316   0.050   6.224   2.319 -0.1858  0.3898 -0.1087
  163OSM    H2S18317   0.091   6.120   2.319 -1.3863 -0.1308 -2.2219
  163OSM    C3S18318   0.156   6.337   2.357 -0.4040 -0.3947 -0.1327
  163OSM    H3S18319   0.102   6.434   2.351  0.5923  0.1243 -1.1473
  163OSM     O318320   0.261   6.365   2.261  0.6710 -0.0339 -0.0389
  163OSM    HO318321   0.232   6.313   2.185  0.1260 -0.6291  0.5689
  163OSM    C4S18322   0.198   6.322   2.506  0.3594 -0.1733  1.0609
  163OSM    H4S18323   0.133   6.382   2.572  2.0213 -0.2815  2.8994
  163OSM    C5S18324   0.297   6.242   2.554  0.6534  0.0459 -0.3009
  163OSM    H5S18325   0.347   6.174   2.483 -2.0138  0.8644 -3.1726
  163OSM    C6S18326   0.334   6.242   2.707  0.1759 -0.4840  0.1148
  163OSM    H6S18327   0.301   6.151   2.762 -2.0490 -0.9043 -1.7310
  163OSM    H6T18328   0.291   6.331   2.757  0.0021  1.1591 -2.7388
  163OSM    C7S18329   0.482   6.257   2.720  0.0107 -0.2173 -0.0309
  163OSM    H7S18330   0.522   6.360   2.710 -2.9375  0.9591 -0.8808
  163OSM    H7T18331   0.527   6.178   2.656  0.4894  1.0275 -1.2892
  163OSM    C8S18332   0.534   6.212   2.859  0.1050  0.7978 -0.4456
  163OSM    H8S18333   0.645   6.213   2.856  0.1932  0.2848  1.3813
  163OSM    H8T18334   0.483   6.117   2.887 -1.0436  1.1529 -1.3037
  163OSM    C9S18335   0.507   6.315   2.973 -0.8324  0.2584  1.1882
  163OSM    H9S18336   0.407   6.362   2.959 -0.6689  0.2295 -0.2217
  163OSM    H9T18337   0.583   6.396   2.968  0.5688 -1.1046 -0.5155
  163OSM   C10S18338   0.501   6.241   3.111  0.2769 -0.6590 -0.1437
  163OSM   H10S18339   0.586   6.171   3.122  2.2788  1.9065  2.2335
  163OSM   H10T18340   0.412   6.181   3.137 -0.2250  0.2782  0.3660
  163OSM   C11S18341   0.539   6.345   3.225 -0.0178 -0.2761  0.0676
  163OSM   H11S18342   0.451   6.412   3.230 -0.0325 -0.1048 -1.8234
  163OSM   H11T18343   0.630   6.406   3.209 -1.4614  2.3376  1.2049
  163OSM   C12S18344   0.559   6.271   3.362 -0.5262 -1.2217  1.5187
  163OSM   H12S18345   0.607   6.173   3.344  1.6678  0.2440 -1.8679
  163OSM   H12T18346   0.457   6.241   3.394 -1.1490  1.4552  2.3013
  163OSM   C13S18347   0.619   6.356   3.472  0.0431 -0.1870  0.1248
  163OSM   H13S18348   0.563   6.452   3.471 -1.2806 -0.9271  0.5663
  163OSM   H13T18349   0.730   6.366   3.468  0.0049  2.2169  2.2389
  163OSM   C14S18350   0.586   6.294   3.612  0.1206 -0.3302 -0.7551
  163OSM   H14S18351   0.603   6.185   3.620  1.8066  0.0530  2.6551
  163OSM   H14T18352   0.483   6.322   3.643 -0.2122 -1.3616 -0.8958
  163OSM   C15S18353   0.670   6.347   3.729 -0.4166  0.8691 -0.8229
  163OSM   H15S18354   0.661   6.458   3.733  0.6414  0.9836 -1.3065
  163OSM   H15T18355   0.776   6.329   3.702 -0.5972 -0.1031 -0.9175
  163OSM   C16S18356   0.632   6.299   3.873  0.7375  0.0270  0.5224
  163OSM   H16S18357   0.529   6.320   3.910  0.1008 -0.9940 -0.5932
  163OSM   H16T18358   0.694   6.358   3.944 -0.0132  0.6314  0.6979
  163OSM   C17S18359   0.654   6.147   3.889  0.3937 -0.1036 -0.0629
  163OSM   H17S18360   0.743   6.116   3.830 -0.9053  0.3313 -2.4059
  163OSM   H17T18361   0.574   6.097   3.830  0.1990  2.2831 -1.9696
  163OSM   C18S18362   0.673   6.095   4.030 -0.4183  0.1232 -0.0061
  163OSM   H18S18363   0.591   6.142   4.087 -1.8454 -0.6412 -1.3270
  163OSM   H18T18364   0.777   6.115   4.063 -0.6444 -0.2280  0.9461
  163OSM   H18U18365   0.648   5.988   4.050  0.6848 -0.0472  0.5114
  163OSM    C1F18366  -0.158   6.127   2.407  0.2209  0.5079 -0.2435
  163OSM     OF18367  -0.144   6.021   2.339 -0.0220 -0.0859 -0.7476
  163OSM    C2F18368  -0.282   6.144   2.490 -1.2035 -0.1842 -0.2276
  163OSM    H2F18369  -0.310   6.252   2.485  0.7092  0.3765  0.2520
  163OSM    H2G18370  -0.244   6.130   2.593 -0.3682  1.1480 -0.3321
  163OSM    C3F18371  -0.388   6.036   2.486 -0.4940  0.2826  0.2434
  163OSM    H3F18372  -0.357   5.930   2.492 -1.5767 -0.4330 -3.7476
  163OSM    H3G18373  -0.428   6.052   2.384 -0.2106  1.3704  0.2918
  163OSM    C4F18374  -0.503   6.063   2.589 -0.2416  0.2205 -0.6615
  163OSM    H4F18375  -0.600   6.023   2.552  0.4427 -1.7083 -0.4704
  163OSM    H4G18376  -0.511   6.173   2.605  0.1133  0.1893 -0.2551
  163OSM    C5F18377  -0.491   6.000   2.726 -0.4986  0.0396  0.1798
  163OSM    H5F18378  -0.386   6.006   2.763 -0.3221 -1.9995  0.1265
  163OSM    H5G18379  -0.523   5.895   2.715 -0.9336  0.4381 -3.7419
  163OSM    C6F18380  -0.585   6.064   2.824  0.0437 -0.8460  0.4883
  163OSM    H6F18381  -0.684   6.067   2.772  0.2863 -0.1001  0.0543
  163OSM    H6G18382  -0.551   6.170   2.836  1.4537 -1.3139  0.7557
  163OSM    C7F18383  -0.591   5.998   2.964  0.4895  0.0798 -0.7775
  163OSM    H7F18384  -0.486   6.000   3.001 -0.6555  1.5320  2.8184
  163OSM    H7G18385  -0.633   5.895   2.958 -0.6212  0.4623  0.1383
  163OSM    C8F18386  -0.691   6.061   3.061 -0.4305 -0.3414  0.1095
  163OSM    H8F18387  -0.715   5.993   3.146 -1.0532 -0.1216  0.1166
  163OSM    H8G18388  -0.789   6.069   3.010 -0.8882 -1.2303  0.8098
  163OSM    C9F18389  -0.637   6.197   3.107 -0.5172 -0.0041 -0.0101
  163OSM    H9F18390  -0.662   6.284   3.045 -0.8945 -0.1416 -0.0492
  163OSM   C10F18391  -0.597   6.230   3.233 -0.0422  0.5974 -0.8131
  163OSM   H10F18392  -0.569   6.335   3.252  0.4045  0.5195 -1.0426
  163OSM   C11F18393  -0.588   6.143   3.358 -0.0364  0.4337 -0.5754
  163OSM   H11F18394  -0.494   6.161   3.415  0.2336 -0.7454 -0.6256
  163OSM   H11G18395  -0.603   6.037   3.328 -3.1991  0.6261 -0.0044
  163OSM   C12F18396  -0.695   6.184   3.463 -0.2400  0.0558  0.8787
  163OSM   H12F18397  -0.795   6.173   3.415 -0.5480 -0.2778  1.5853
  163OSM   H12G18398  -0.675   6.293   3.477  1.0153  0.1507 -1.1393
  163OSM   C13F18399  -0.682   6.115   3.596  0.1991  0.4682  0.4054
  163OSM   H13F18400  -0.716   6.009   3.596  0.7069  0.2987  1.2389
  163OSM   H13G18401  -0.740   6.170   3.673  0.7495  0.8866  0.5240
  163OSM   C14F18402  -0.540   6.122   3.664  0.1544  0.6429  0.4199
  163OSM   H14F18403  -0.512   6.229   3.657 -1.1241  0.9789  0.1157
  163OSM   H14G18404  -0.474   6.060   3.599 -1.6206 -2.3669  1.2768
  163OSM   C15F18405  -0.524   6.082   3.810  0.0081  0.3991  0.2913
  163OSM   H15F18406  -0.423   6.101   3.850  0.2250  2.1959 -1.0177
  163OSM   H15G18407  -0.539   5.972   3.818  0.8419  0.2711  0.1726
  163OSM   C16F18408  -0.623   6.154   3.911 -0.7031 -0.3714  0.5403
  163OSM   H16F18409  -0.728   6.143   3.876 -0.8270  1.8454  0.0748
  163OSM   H16G18410  -0.596   6.261   3.918 -2.4048  0.2385 -1.2683
  163OSM   C17F18411  -0.615   6.106   4.053 -0.2890 -0.1203 -0.3698
  163OSM   H17F18412  -0.522   6.150   4.095  0.6112 -0.0098 -2.3751
  163OSM   H17G18413  -0.617   5.995   4.051 -0.9084 -0.1493 -3.6459
  163OSM   C18F18414  -0.738   6.158   4.135 -0.1319 -0.5267 -0.1362
  163OSM   H18F18415  -0.827   6.124   4.078 -1.1529 -0.8893  1.6168
  163OSM   H18G18416  -0.753   6.267   4.152  1.4404 -0.3894  0.5354
  163OSM   H18H18417  -0.751   6.095   4.225  2.6010  1.4466  1.7962
  164OSM      N18418   3.104   5.789   2.154 -0.4606 -0.8327 -0.0505
  164OSM    C1518419   3.007   5.744   2.259 -0.4732  0.1629 -0.4877
  164OSM   H15A18420   2.917   5.715   2.206 -1.6067 -1.9781  2.3608
  164OSM   H15B18421   2.991   5.822   2.332  0.1017  2.1246 -2.3433
  164OSM   H15C18422   3.043   5.652   2.302  3.2279  1.6501 -0.0364
  164OSM    C1418423   3.084   5.682   2.044  0.2886 -0.5411 -0.3363
  164OSM   H14A18424   3.116   5.583   2.074 -0.4098 -0.8092 -0.4504
  164OSM   H14B18425   3.132   5.701   1.950 -0.8472  1.2286 -0.6055
  164OSM   H14C18426   2.979   5.672   2.021  0.0678  0.2040  0.3136
  164OSM    C1318427   3.067   5.921   2.110  0.4071 -0.1561  0.4258
  164OSM   H13A18428   3.079   5.996   2.187  1.2824 -1.7293  1.8863
  164OSM   H13B18429   2.963   5.910   2.084  0.0218 -0.2164  1.9193
  164OSM   H13C18430   3.121   5.947   2.020  0.8781 -0.7019  0.5500
  164OSM    C1218431   3.248   5.784   2.209  0.1909  0.0288 -0.1147
  164OSM   H12A18432   3.300   5.824   2.123  1.1787 -0.4157  0.2591
  164OSM   H12B18433   3.286   5.684   2.218  2.2857  0.3349 -3.7070
  164OSM    C1118434   3.269   5.873   2.338 -0.6341 -0.7338  0.4143
  164OSM   H11A18435   3.361   5.841   2.391 -1.6030 -1.9454  1.4540
  164OSM   H11B18436   3.187   5.850   2.409 -1.3855 -0.5963 -0.3796
  164OSM      P18437   3.402   6.081   2.240  0.1290 -0.3424  0.1919
  164OSM    O1318438   3.482   5.978   2.176 -0.1886  0.1663 -0.2244
  164OSM    O1418439   3.365   6.195   2.150  0.1467 -0.5618  0.1684
  164OSM    O1118440   3.476   6.145   2.368 -0.0833 -0.2815 -0.5028
  164OSM    O1218441   3.270   6.021   2.307 -0.3313 -0.0991 -0.1639
  164OSM    C1S18442   3.405   6.203   2.483 -0.0034  0.2112 -0.0085
  164OSM    H1S18443   3.301   6.167   2.495  0.2138 -0.2451  0.6186
  164OSM    H1T18444   3.394   6.313   2.473  1.0342  0.5250  1.7806
  164OSM     NF18445   3.391   6.204   2.726  0.2232  0.2940  0.0053
  164OSM    HNF18446   3.388   6.296   2.765 -0.3256  0.0689  0.5138
  164OSM    C2S18447   3.486   6.178   2.615  0.5530  0.1615 -0.4242
  164OSM    H2S18448   3.525   6.074   2.615  1.0036  0.3156 -1.6516
  164OSM    C3S18449   3.612   6.272   2.625  0.2680  0.1118 -0.4363
  164OSM    H3S18450   3.580   6.375   2.655  0.4379 -0.0865  0.4793
  164OSM     O318451   3.684   6.304   2.498  0.0392  0.5980  0.1125
  164OSM    HO318452   3.645   6.250   2.430  0.8716 -0.8092  0.7050
  164OSM    C4S18453   3.713   6.226   2.715 -0.9223  0.5628  0.5048
  164OSM    H4S18454   3.798   6.165   2.681  1.2567  2.6294  1.9392
  164OSM    C5S18455   3.696   6.232   2.850  0.2671  0.9437  0.1135
  164OSM    H5S18456   3.599   6.259   2.893 -0.9469 -0.9261 -1.3185
  164OSM    C6S18457   3.792   6.178   2.955  0.0520 -0.3642  0.0773
  164OSM    H6S18458   3.895   6.193   2.915 -0.6075  2.4442 -0.7906
  164OSM    H6T18459   3.779   6.072   2.987 -2.3053  0.0404  0.6262
  164OSM    C7S18460   3.782   6.267   3.085 -0.1128  0.3007 -0.3469
  164OSM    H7S18461   3.683   6.241   3.128 -0.0771  2.4907  1.1641
  164OSM    H7T18462   3.776   6.372   3.050 -2.0047 -0.3606 -2.3015
  164OSM    C8S18463   3.896   6.243   3.182 -1.2713  0.0191  0.4522
  164OSM    H8S18464   3.870   6.294   3.277  0.5746  1.2553  0.3335
  164OSM    H8T18465   3.987   6.289   3.139 -1.8671  0.3657 -0.4751
  164OSM    C9S18466   3.924   6.098   3.203 -0.0533 -0.2022 -0.9693
  164OSM    H9S18467   3.986   6.058   3.120  0.4091 -0.7575 -0.3738
  164OSM    H9T18468   3.834   6.033   3.211 -0.1866  0.1492  0.7073
  164OSM   C10S18469   4.007   6.078   3.339  0.0755 -0.1048 -0.1636
  164OSM   H10S18470   4.093   6.149   3.334 -0.5453  0.6113 -0.9421
  164OSM   H10T18471   4.038   5.971   3.333  2.1113  0.4665 -0.6443
  164OSM   C11S18472   3.935   6.076   3.479  0.1198 -0.3507 -0.2181
  164OSM   H11S18473   3.835   6.029   3.462  0.2706 -0.3723 -1.1380
  164OSM   H11T18474   3.907   6.180   3.505 -0.7879  0.2334 -3.0992
  164OSM   C12S18475   4.031   6.028   3.594  0.4284 -0.2126  0.2037
  164OSM   H12S18476   4.132   6.075   3.587 -0.7408  2.6145  0.7575
  164OSM   H12T18477   4.044   5.918   3.601  1.3701 -0.0077  2.8078
  164OSM   C13S18478   3.998   6.092   3.733 -0.4312  0.2920  0.0082
  164OSM   H13S18479   3.970   6.200   3.726 -3.5986 -0.4967 -0.8705
  164OSM   H13T18480   4.087   6.080   3.799  0.3414 -1.4675 -1.2921
  164OSM   C14S18481   3.879   6.017   3.802 -0.2509 -0.4445 -0.0359
  164OSM   H14S18482   3.913   5.918   3.841  1.6720  1.0202  2.2458
  164OSM   H14T18483   3.809   5.990   3.720 -1.4056 -0.8429  1.0472
  164OSM   C15S18484   3.819   6.093   3.923  0.4737  0.3640  0.3716
  164OSM   H15S18485   3.776   6.190   3.889 -0.1497  0.0358  0.2047
  164OSM   H15T18486   3.910   6.120   3.981  0.9533  1.7501 -0.9341
  164OSM   C16S18487   3.712   6.022   4.000  0.1651 -0.0042  0.1422
  164OSM   H16S18488   3.751   5.924   4.034 -1.4227 -0.7425 -0.0776
  164OSM   H16T18489   3.616   6.004   3.946 -0.4568 -3.2457  2.0977
  164OSM   C17S18490   3.668   6.094   4.125  0.2855 -0.3028  0.4851
  164OSM   H17S18491   3.755   6.145   4.170 -1.3397  1.9787  1.2426
  164OSM   H17T18492   3.630   6.014   4.193  2.3022  0.2611  2.4005
  164OSM   C18S18493   3.557   6.196   4.102  0.2096 -0.7477  0.9252
  164OSM   H18S18494   3.538   6.234   4.205 -1.2444  1.7585 -0.1845
  164OSM   H18T18495   3.471   6.148   4.051 -1.7273  1.5927  1.8128
  164OSM   H18U18496   3.586   6.280   4.036 -2.9044 -0.9379 -0.8576
  164OSM    C1F18497   3.312   6.107   2.771  0.3415  0.2034  0.2333
  164OSM     OF18498   3.308   5.991   2.719 -0.3353  0.2249 -0.1654
  164OSM    C2F18499   3.226   6.139   2.882  0.0883 -0.1940  0.2018
  164OSM    H2F18500   3.151   6.204   2.832  0.0391 -2.1478 -2.4814
  164OSM    H2G18501   3.285   6.197   2.957  1.0764 -0.6670 -0.1899
  164OSM    C3F18502   3.159   6.019   2.948 -0.0828 -0.1126  0.5036
  164OSM    H3F18503   3.232   5.960   3.007  0.1293 -0.1623  0.1973
  164OSM    H3G18504   3.110   5.951   2.874 -1.1538  0.7138  0.4248
  164OSM    C4F18505   3.029   6.067   3.028 -1.0104 -1.0895 -0.0373
  164OSM    H4F18506   2.950   5.993   3.001 -1.7018  0.2945 -2.0202
  164OSM    H4G18507   2.988   6.165   2.996 -0.5096 -0.6476  0.6590
  164OSM    C5F18508   3.046   6.070   3.179 -0.2217 -0.3359 -0.5115
  164OSM    H5F18509   3.104   6.163   3.195 -1.5376  0.1816  1.7468
  164OSM    H5G18510   3.107   5.991   3.227 -0.7118 -0.2548  0.2755
  164OSM    C6F18511   2.920   6.098   3.258 -0.4978  0.7906 -0.9861
  164OSM    H6F18512   2.925   6.080   3.367  2.6046 -1.1366 -1.3207
  164OSM    H6G18513   2.834   6.034   3.229 -0.3089  0.2262 -0.3257
  164OSM    C7F18514   2.862   6.238   3.244 -0.2272  0.3112  0.1907
  164OSM    H7F18515   2.867   6.261   3.136 -0.6446  2.0020  0.5054
  164OSM    H7G18516   2.927   6.302   3.307 -0.5383 -0.5691  1.4648
  164OSM    C8F18517   2.717   6.259   3.289 -0.3736  0.0030 -0.1793
  164OSM    H8F18518   2.699   6.256   3.399  0.1806 -0.0838 -0.0893
  164OSM    H8G18519   2.651   6.179   3.249 -0.7261 -0.0128  0.4267
  164OSM    C9F18520   2.672   6.394   3.241 -0.8510  0.2099  0.2453
  164OSM    H9F18521   2.656   6.396   3.132  2.0903 -2.7932 -0.4183
  164OSM   C10F18522   2.654   6.507   3.311  0.2412  0.2756  0.7966
  164OSM   H10F18523   2.633   6.601   3.258 -1.7645  0.8341  2.4175
  164OSM   C11F18524   2.656   6.534   3.458 -0.0496  0.5531  0.3086
  164OSM   H11F18525   2.711   6.628   3.480  1.0486  0.2335 -0.9092
  164OSM   H11G18526   2.720   6.454   3.503  0.7874  1.0240 -0.0146
  164OSM   C12F18527   2.524   6.539   3.528  0.3414 -0.6668 -0.5804
  164OSM   H12F18528   2.477   6.438   3.533  0.5841 -0.8542 -1.7526
  164OSM   H12G18529   2.457   6.598   3.462 -0.0434 -2.3426 -1.7491
  164OSM   C13F18530   2.530   6.607   3.659 -0.5448 -0.4881 -0.1782
  164OSM   H13F18531   2.555   6.715   3.650  0.3961 -0.7738 -1.2443
  164OSM   H13G18532   2.606   6.574   3.734 -1.2024 -1.5023  0.0639
  164OSM   C14F18533   2.397   6.600   3.729 -0.2408 -0.2395 -0.4088
  164OSM   H14F18534   2.323   6.609   3.646 -0.8905  0.0829  0.1986
  164OSM   H14G18535   2.387   6.691   3.791  1.0255  0.2931 -0.9662
  164OSM   C15F18536   2.389   6.477   3.815  1.0200 -0.2379 -0.8285
  164OSM   H15F18537   2.464   6.471   3.897 -2.7047 -1.8700  2.7427
  164OSM   H15G18538   2.423   6.390   3.755  2.8224 -1.5149  1.8480
  164OSM   C16F18539   2.255   6.457   3.888 -1.1166  0.1008  0.0649
  164OSM   H16F18540   2.177   6.470   3.810 -1.4334 -0.0541  0.3561
  164OSM   H16G18541   2.226   6.522   3.973 -1.6741 -1.8383  1.4372
  164OSM   C17F18542   2.244   6.307   3.928 -0.2346 -0.2614  0.1197
  164OSM   H17F18543   2.325   6.271   3.995 -1.2443 -0.5401  1.2358
  164OSM   H17G18544   2.237   6.256   3.829  0.5845 -1.1065  0.4787
  164OSM   C18F18545   2.118   6.271   4.015 -0.2231 -0.2283  0.0038
  164OSM   H18F18546   2.104   6.164   4.042  0.1086  0.4053  2.9804
  164OSM   H18G18547   2.026   6.315   3.970  1.3700  0.7325 -2.5345
  164OSM   H18H18548   2.130   6.312   4.117 -1.5467 -1.8432  0.8484
  165SAPS     N18549   0.710   2.972   6.845  0.3006 -0.3958 -0.3847
  165SAPS   HN118550   0.813   2.957   6.855  0.5652 -0.0303 -2.0961
  165SAPS   HN218551   0.665   2.880   6.827 -0.0534 -0.5692  1.3009
  165SAPS   HN318552   0.693   3.031   6.761 -2.2673 -0.4348  0.0512
  165SAPS   C1218553   0.639   3.042   6.958 -0.4752 -0.1090 -0.4979
  165SAPS  H12A18554   0.546   3.084   6.925 -0.2553  1.4540  0.7500
  165SAPS   C1318555   0.603   2.948   7.085  0.7708 -0.2127  0.9686
  165SAPS  O13A18556   0.593   2.831   7.060  0.2308  0.2586  0.0066
  165SAPS  O13B18557   0.560   3.006   7.191  0.4403  0.1768 -0.1073
  165SAPS   C1118558   0.724   3.170   6.999 -0.4020  0.1053 -0.5940
  165SAPS  H11A18559   0.823   3.129   7.029  0.1905  0.2905 -2.2253
  165SAPS  H11B18560   0.675   3.216   7.088 -2.1271 -0.0534 -1.4279
  165SAPS     P18561   0.857   3.371   6.916 -0.0194 -0.4354 -0.1129
  165SAPS   O1318562   0.824   3.453   7.037 -0.7408 -0.4062 -0.1843
  165SAPS   O1418563   0.991   3.313   6.910 -0.3287 -0.0318  0.1833
  165SAPS   O1218564   0.740   3.265   6.891  0.3982 -0.6392 -0.2313
  165SAPS   O1118565   0.829   3.474   6.794  0.1323  0.7286 -0.4930
  165SAPS    C118566   0.703   3.504   6.741  0.1411  0.0099  0.2692
  165SAPS    HA18567   0.618   3.504   6.812  1.0093 -0.7089  1.3332
  165SAPS    HB18568   0.700   3.606   6.697  1.0360  0.7735  1.8881
  165SAPS    C218569   0.672   3.398   6.633 -0.1974  0.3849  0.3028
  165SAPS    HS18570   0.725   3.304   6.657 -0.1083  0.4760  0.4694
  165SAPS   O2118571   0.731   3.452   6.506  0.8798 -0.2613 -0.2129
  165SAPS   C2118572   0.764   3.358   6.425  0.0724 -0.0123  0.2666
  165SAPS   O2218573   0.779   3.238   6.456 -0.5818 -0.2686  0.4270
  165SAPS   C2218574   0.790   3.412   6.283 -0.7018  0.4675  0.2468
  165SAPS   H2R18575   0.752   3.516   6.281  1.0405  1.1491 -2.8183
  165SAPS   H2S18576   0.899   3.424   6.266 -0.5328 -2.0590 -1.0527
  165SAPS    C318577   0.521   3.364   6.626 -0.4832 -0.0336 -0.0028
  165SAPS    HX18578   0.462   3.457   6.613 -1.2527 -0.7639 -2.3226
  165SAPS    HY18579   0.494   3.326   6.726 -0.8176 -1.1759 -0.5089
  165SAPS   O3118580   0.494   3.274   6.523 -0.4137 -0.2610  0.1300
  165SAPS   C3118581   0.501   3.147   6.559 -0.2460 -0.7135  0.3458
  165SAPS   O3218582   0.553   3.111   6.664  0.4119 -0.1992 -0.1505
  165SAPS   C3218583   0.457   3.057   6.448 -0.3180 -0.5969 -0.1447
  165SAPS   H2X18584   0.372   2.991   6.478 -0.8864 -0.0480 -0.5163
  165SAPS   H2Y18585   0.552   3.000   6.435 -0.0800 -0.1201 -0.5082
  165SAPS   C2318586   0.732   3.321   6.176 -0.1334 -0.3640  0.4926
  165SAPS   H3R18587   0.621   3.325   6.176 -0.0962  1.4720  0.1400
  165SAPS   H3S18588   0.770   3.222   6.210 -0.1751 -0.3499  0.5794
  165SAPS   C2418589   0.779   3.357   6.032 -0.1639 -0.1109 -0.4356
  165SAPS   H4R18590   0.889   3.343   6.037  0.0518  1.7101  1.5753
  165SAPS   H4S18591   0.769   3.467   6.017  3.1889  0.7293  2.1068
  165SAPS   C2518592   0.708   3.270   5.931 -0.3185  0.4578  0.3531
  165SAPS   H5R18593   0.610   3.307   5.898  0.4947  0.3865 -2.4042
  165SAPS   C2618594   0.748   3.164   5.857  0.0063  0.3614 -0.3075
  165SAPS   H6R18595   0.677   3.112   5.792  0.1585 -1.3196  0.8215
  165SAPS   C2718596   0.885   3.106   5.869 -0.8870 -0.0892 -0.2610
  165SAPS   H7R18597   0.939   3.137   5.960  0.5601 -1.7198 -0.5020
  165SAPS   H7S18598   0.952   3.147   5.790  1.2938  0.2392  1.6446
  165SAPS   C2818599   0.876   2.960   5.871  0.1273 -0.2901  0.7778
  165SAPS   H8R18600   0.836   2.908   5.959  0.2391 -1.8738 -0.0691
  165SAPS   C2918601   0.919   2.888   5.769  0.2146  0.1912  0.0507
  165SAPS   H9R18602   0.902   2.780   5.781 -0.8831  0.5126  1.7892
  165SAPS  C21018603   0.981   2.927   5.640 -0.7851 -0.1052  0.5158
  165SAPS  H10R18604   1.020   2.838   5.586 -0.8175 -0.7267  1.4905
  165SAPS  H10S18605   1.071   2.988   5.662 -1.7564  1.9142 -0.8254
  165SAPS  C21118606   0.902   3.006   5.537 -0.1907 -0.4439  0.2298
  165SAPS  H11R18607   0.802   3.036   5.573  0.1022  1.7801 -0.6273
  165SAPS  C21218608   0.929   3.022   5.406 -0.7419  0.2710 -0.5806
  165SAPS  H12R18609   0.875   3.095   5.344 -1.0844  1.7868  1.3972
  165SAPS  C21318610   1.069   2.982   5.355  0.2012 -0.1464 -0.6190
  165SAPS  H13R18611   1.129   2.921   5.427 -1.1784 -0.0593  0.6431
  165SAPS  H13S18612   1.129   3.073   5.335 -1.5470  1.3906  0.7961
  165SAPS  C21418613   1.029   2.898   5.241  0.8885  0.1845 -0.3610
  165SAPS  H14R18614   0.984   2.802   5.268 -0.8244  0.6429 -1.4024
  165SAPS  C21518615   1.060   2.917   5.112 -0.0785 -0.3551 -0.0039
  165SAPS  H15R18616   1.032   2.839   5.040  0.7892 -1.7210  1.0757
  165SAPS  C21618617   1.140   3.030   5.053 -0.1543 -0.6454  0.3729
  165SAPS  H16R18618   1.198   3.079   5.134 -2.1576  0.2951  1.3013
  165SAPS  H16S18619   1.075   3.109   5.009  1.5289  0.6045  0.0303
  165SAPS  C21718620   1.257   2.990   4.955  0.1782  0.1053  0.1415
  165SAPS  H17R18621   1.323   2.912   4.998  0.4258  0.9704  1.3748
  165SAPS  H17S18622   1.314   3.085   4.939 -1.0488  0.5958 -1.6215
  165SAPS  C21818623   1.204   2.928   4.826  0.5582  0.9211  0.7211
  165SAPS  H18R18624   1.111   2.984   4.800  0.4150  0.2422 -0.2592
  165SAPS  H18S18625   1.156   2.831   4.851 -0.0290  0.8802 -0.5269
  165SAPS  C21918626   1.296   2.923   4.702  0.2516  0.2709 -0.6015
  165SAPS  H19R18627   1.247   2.874   4.615  0.8493 -1.6288  0.0801
  165SAPS  H19S18628   1.384   2.863   4.734  0.8659  2.2780  1.7598
  165SAPS  C22018629   1.339   3.063   4.648  0.2168  0.4705 -0.2052
  165SAPS  H20R18630   1.391   3.120   4.728 -0.3606  0.7182 -0.0024
  165SAPS  H20S18631   1.257   3.133   4.622  0.4445  0.8149 -0.0136
  165SAPS  H20T18632   1.395   3.053   4.553 -2.3691  1.1192 -1.8836
  165SAPS   C3318633   0.420   3.131   6.317  0.6839  0.0672  0.5909
  165SAPS   H3X18634   0.506   3.196   6.288  0.5504 -0.0426 -0.0856
  165SAPS   H3Y18635   0.325   3.180   6.345 -0.0615 -1.1153  0.2230
  165SAPS   C3418636   0.382   3.034   6.198 -0.0222 -0.0422 -0.2111
  165SAPS   H4X18637   0.305   2.965   6.240 -1.6241  0.4994 -2.1508
  165SAPS   H4Y18638   0.473   2.984   6.160 -1.2821 -0.7250 -2.5125
  165SAPS   C3518639   0.311   3.110   6.084 -0.0327 -0.2456 -0.2056
  165SAPS   H5X18640   0.385   3.180   6.039  0.3663 -0.2637  0.3998
  165SAPS   H5Y18641   0.224   3.168   6.120  0.5705 -0.8430  2.4217
  165SAPS   C3618642   0.251   3.021   5.980  0.1735  0.5399 -0.2820
  165SAPS   H6X18643   0.192   2.944   6.034  2.4113 -2.0365 -1.2795
  165SAPS   H6Y18644   0.330   2.960   5.931  0.3413 -0.0474  0.6941
  165SAPS   C3718645   0.160   3.086   5.869 -0.5153  0.0925  0.1022
  165SAPS   H7X18646   0.084   3.135   5.934  0.9299 -0.2740  2.1627
  165SAPS   H7Y18647   0.114   3.003   5.811  0.1232  1.6274 -2.7839
  165SAPS   C3818648   0.226   3.189   5.789 -0.3778 -0.1272  0.6731
  165SAPS   H8X18649   0.261   3.268   5.858 -1.2073  1.5503 -0.7274
  165SAPS   H8Y18650   0.159   3.242   5.717  1.8451  0.0322 -1.4453
  165SAPS   C3918651   0.349   3.132   5.713 -0.1257  0.1342  0.3559
  165SAPS   H9X18652   0.299   3.058   5.647 -3.6270  1.3180  1.4901
  165SAPS   H9Y18653   0.418   3.078   5.782 -2.7279 -0.2606  2.8396
  165SAPS  C31018654   0.410   3.235   5.620  0.0864  0.6214  0.1946
  165SAPS  H10X18655   0.496   3.286   5.669  0.4198 -0.5814  0.9016
  165SAPS  H10Y18656   0.338   3.313   5.587  1.8085  2.5051  0.6408
  165SAPS  C31118657   0.479   3.171   5.493 -0.2036 -0.3452 -0.1821
  165SAPS  H11X18658   0.405   3.122   5.426 -0.3056  0.3649 -0.6002
  165SAPS  H11Y18659   0.537   3.085   5.534 -0.2148 -0.6339 -0.7636
  165SAPS  C31218660   0.566   3.266   5.424 -0.5732  0.0107  0.0274
  165SAPS  H12X18661   0.660   3.215   5.393  0.8597  2.1189  0.6502
  165SAPS  H12Y18662   0.592   3.356   5.483  0.2143  0.1290 -0.4781
  165SAPS  C31318663   0.492   3.295   5.292 -0.0264  0.1242  0.6222
  165SAPS  H13X18664   0.389   3.334   5.305 -0.9824 -1.3669 -1.6967
  165SAPS  H13Y18665   0.494   3.203   5.229  0.7449 -2.2093  3.7683
  165SAPS  C31418666   0.569   3.402   5.217  0.0385 -0.0978 -0.2885
  165SAPS  H14X18667   0.676   3.372   5.220 -0.0100 -0.4079 -1.4980
  165SAPS  H14Y18668   0.564   3.495   5.277 -2.4550 -1.1367  1.2933
  165SAPS  C31518669   0.530   3.417   5.071  0.5902 -0.4279 -0.5365
  165SAPS  H15X18670   0.420   3.427   5.057  0.3324 -2.2563 -0.0585
  165SAPS  H15Y18671   0.569   3.324   5.025 -0.2737 -1.7531  1.2894
  165SAPS  C31618672   0.590   3.539   4.999 -0.1403 -0.3230 -1.3797
  165SAPS  H16X18673   0.697   3.536   5.030 -0.8247 -2.7968  1.1191
  165SAPS  H16Y18674   0.539   3.629   5.041  4.2293  1.2564  1.2074
  165SAPS  C31718675   0.592   3.544   4.852  0.0935  0.4903  0.0353
  165SAPS  H17X18676   0.494   3.520   4.807 -0.1639  1.7061 -0.0717
  165SAPS  H17Y18677   0.664   3.464   4.824 -0.2673  0.4336 -0.7481
  165SAPS  C31818678   0.632   3.675   4.780  0.2525  0.0322  0.6251
  165SAPS  H18X18679   0.623   3.661   4.670 -0.3365  1.9160  0.3874
  165SAPS  H18Y18680   0.738   3.701   4.803  0.2738  0.0799  0.4772
  165SAPS  H18Z18681   0.571   3.763   4.810 -0.2317 -0.3310  0.7107
  166SAPS     N18682   5.040   1.229   7.190 -0.7210 -0.1194 -0.3194
  166SAPS   HN118683   5.002   1.136   7.218 -0.2877 -0.6423 -1.3946
  166SAPS   HN218684   5.070   1.220   7.090 -1.4027 -1.2641 -0.4420
  166SAPS   HN318685   5.126   1.261   7.239 -2.3114  0.1850  2.4669
  166SAPS   C1218686   4.925   1.317   7.213  0.4680  0.3716  0.0621
  166SAPS  H12A18687   4.911   1.308   7.319 -1.5076 -2.8829 -0.3521
  166SAPS   C1318688   4.939   1.464   7.170 -0.5418 -0.0728  0.1587
  166SAPS  O13A18689   5.035   1.500   7.097 -0.5820  0.2259 -0.1067
  166SAPS  O13B18690   4.849   1.542   7.194  0.6759  0.1710 -0.0641
  166SAPS   C1118691   4.793   1.249   7.156 -0.1363 -0.1847  0.0722
  166SAPS  H11A18692   4.804   1.252   7.045 -0.4911  0.2304  0.0456
  166SAPS  H11B18693   4.704   1.308   7.185 -0.2371 -0.0175 -0.5616
  166SAPS     P18694   4.654   1.031   7.197  0.1632  0.0656  0.2205
  166SAPS   O1318695   4.688   0.889   7.215 -0.8065  0.1176 -0.2112
  166SAPS   O1418696   4.569   1.088   7.299  0.3418  0.7455  0.0754
  166SAPS   O1218697   4.783   1.113   7.192 -0.1987 -0.6189 -0.2229
  166SAPS   O1118698   4.593   1.051   7.054 -0.2439 -0.4006  0.3126
  166SAPS    C118699   4.652   0.982   6.936  0.4877 -0.0927 -0.5551
  166SAPS    HA18700   4.751   0.940   6.964  0.3224 -0.5879 -0.7260
  166SAPS    HB18701   4.591   0.896   6.903  0.7939 -0.9763  1.0539
  166SAPS    C218702   4.680   1.080   6.818  0.5928 -0.7091  0.0652
  166SAPS    HS18703   4.762   1.150   6.848  0.6301 -0.5314 -0.4415
  166SAPS   O2118704   4.558   1.150   6.776  0.2192  0.1321  0.2685
  166SAPS   C2118705   4.511   1.249   6.839  0.6678 -0.2135  0.4685
  166SAPS   O2218706   4.565   1.324   6.920 -0.1865  0.1366 -0.1222
  166SAPS   C2218707   4.369   1.272   6.797 -0.9252  0.8020 -0.4389
  166SAPS   H2R18708   4.331   1.188   6.735  1.1498 -1.7434  1.5338
  166SAPS   H2S18709   4.307   1.264   6.889 -0.2720 -0.9789 -0.1126
  166SAPS    C318710   4.739   1.012   6.694 -0.0025  0.3393  0.2452
  166SAPS    HX18711   4.659   0.940   6.668  0.1188  0.3036 -0.0331
  166SAPS    HY18712   4.830   0.953   6.720 -0.0618 -1.7334 -3.5078
  166SAPS   O3118713   4.772   1.100   6.588  0.0674 -0.2746 -1.0734
  166SAPS   C3118714   4.786   1.044   6.468 -0.2788  0.1853  0.2748
  166SAPS   O3218715   4.769   0.926   6.435 -0.3936  0.3781 -0.3025
  166SAPS   C3218716   4.831   1.153   6.370  0.2564 -0.1340  0.5838
  166SAPS   H2X18717   4.928   1.196   6.401 -0.1471  0.7663  0.6340
  166SAPS   H2Y18718   4.757   1.236   6.377 -0.9020 -1.1129  0.4022
  166SAPS   C2318719   4.352   1.411   6.741  0.3765 -0.1342 -0.0713
  166SAPS   H3R18720   4.431   1.442   6.670  0.6546  0.9886  0.7109
  166SAPS   H3S18721   4.369   1.483   6.823  0.5084  0.0748 -0.2819
  166SAPS   C2418722   4.217   1.433   6.668  0.0192 -0.1847 -0.1217
  166SAPS   H4R18723   4.145   1.387   6.738  3.0465 -0.7147  2.9085
  166SAPS   H4S18724   4.211   1.368   6.578  0.7595 -1.9619  1.0606
  166SAPS   C2518725   4.182   1.584   6.640 -0.2747  0.2324  0.2278
  166SAPS   H5R18726   4.203   1.661   6.716  0.6510 -0.4193  0.6439
  166SAPS   C2618727   4.122   1.636   6.530  0.1892 -0.5092  0.0308
  166SAPS   H6R18728   4.095   1.743   6.533 -1.9872 -1.0329  0.8860
  166SAPS   C2718729   4.066   1.572   6.409 -0.2653  0.8113  0.4813
  166SAPS   H7R18730   4.058   1.462   6.423  0.2406  0.8313  0.9601
  166SAPS   H7S18731   4.135   1.586   6.323 -0.1215 -1.6027  0.1446
  166SAPS   C2818732   3.934   1.616   6.366 -0.4408  0.3914  0.2949
  166SAPS   H8R18733   3.878   1.662   6.449 -0.2757 -0.1654  0.7207
  166SAPS   C2918734   3.883   1.593   6.245 -0.1493  0.1182  0.0537
  166SAPS   H9R18735   3.780   1.627   6.225 -0.5848 -0.9083  0.4811
  166SAPS  C21018736   3.947   1.524   6.123 -0.0846  0.5788  0.0501
  166SAPS  H10R18737   3.870   1.462   6.072 -0.1799  1.4594 -0.9121
  166SAPS  H10S18738   4.018   1.441   6.145  1.8679  1.6647 -1.7142
  166SAPS  C21118739   4.027   1.624   6.031  0.4340 -0.1238 -0.2838
  166SAPS  H11R18740   4.076   1.707   6.084 -0.9502  0.1899  0.5255
  166SAPS  C21218741   4.047   1.612   5.901 -0.1778  0.7191  0.2194
  166SAPS  H12R18742   4.118   1.675   5.845  2.9796 -2.7764 -0.1261
  166SAPS  C21318743   3.995   1.503   5.815 -0.4323  0.6428 -0.5575
  166SAPS  H13R18744   3.924   1.544   5.740 -1.9177 -0.9805 -0.1197
  166SAPS  H13S18745   3.946   1.420   5.871 -0.4238 -0.2041 -1.7537
  166SAPS  C21418746   4.110   1.436   5.743  0.0602  0.2560 -0.0132
  166SAPS  H14R18747   4.187   1.386   5.805 -1.2229 -0.8528  0.7386
  166SAPS  C21518748   4.116   1.423   5.607 -0.3741 -0.2158  0.2698
  166SAPS  H15R18749   4.198   1.365   5.562 -1.4316 -0.7157 -1.0739
  166SAPS  C21618750   4.013   1.474   5.509  0.3034 -0.5178 -0.0520
  166SAPS  H16R18751   4.046   1.503   5.407 -0.8486  0.8973 -0.0500
  166SAPS  H16S18752   3.966   1.567   5.546  0.7650 -0.5063  0.5239
  166SAPS  C21718753   3.895   1.374   5.495 -0.6488  0.4419 -0.4965
  166SAPS  H17R18754   3.869   1.348   5.600 -1.1971  3.3988  0.2035
  166SAPS  H17S18755   3.939   1.287   5.443  0.3831 -0.1089  1.2148
  166SAPS  C21818756   3.770   1.433   5.441 -0.3150  0.1174  0.0716
  166SAPS  H18R18757   3.743   1.530   5.489  0.6984  1.0961 -1.2352
  166SAPS  H18S18758   3.687   1.362   5.461 -0.2033 -0.3169 -0.9243
  166SAPS  C21918759   3.793   1.459   5.290  0.6199  0.1776 -0.4122
  166SAPS  H19R18760   3.847   1.375   5.241  0.4652 -0.5385  0.6156
  166SAPS  H19S18761   3.853   1.552   5.289 -1.0675  1.3417 -2.5277
  166SAPS  C22018762   3.653   1.473   5.221  0.4702 -0.4519  0.1721
  166SAPS  H20R18763   3.583   1.393   5.253  0.0760 -0.7640 -1.3921
  166SAPS  H20S18764   3.659   1.470   5.110 -0.0557  2.9279 -0.0474
  166SAPS  H20T18765   3.615   1.572   5.256  2.5084  1.2449 -2.1165
  166SAPS   C3318766   4.851   1.100   6.230 -0.7131 -0.5786 -0.0444
  166SAPS   H3X18767   4.765   1.038   6.195 -0.7312  0.4298 -1.9767
  166SAPS   H3Y18768   4.947   1.044   6.234 -1.0040 -0.9939  1.4734
  166SAPS   C3418769   4.858   1.216   6.130 -0.6045  0.0070 -0.2423
  166SAPS   H4X18770   4.901   1.296   6.193 -1.0657  0.5743 -0.6400
  166SAPS   H4Y18771   4.758   1.236   6.088 -0.7664  0.8767  0.5172
  166SAPS   C3518772   4.965   1.184   6.031  0.8316 -0.4560 -0.4502
  166SAPS   H5X18773   4.941   1.080   6.001  0.8786 -0.8808  0.9059
  166SAPS   H5Y18774   5.063   1.195   6.083  0.0070  1.5564  0.8010
  166SAPS   C3618775   4.961   1.272   5.912  0.1902 -0.6227  0.1882
  166SAPS   H6X18776   5.000   1.369   5.949  0.4257 -0.8349  0.5048
  166SAPS   H6Y18777   4.854   1.287   5.889  0.2745  0.4072  0.4009
  166SAPS   C3718778   5.031   1.227   5.780  0.0255  0.7017  0.4540
  166SAPS   H7X18779   4.964   1.156   5.728  1.9356  1.0574 -2.7926
  166SAPS   H7Y18780   5.120   1.174   5.820 -1.0987 -0.5446  1.3501
  166SAPS   C3818781   5.080   1.351   5.685  0.2927 -0.1858 -0.2479
  166SAPS   H8X18782   5.161   1.409   5.735 -0.1788  0.2585  0.0067
  166SAPS   H8Y18783   4.988   1.410   5.665  0.0120 -0.1087  1.1553
  166SAPS   C3918784   5.122   1.303   5.547  0.3602  0.1255  0.8310
  166SAPS   H9X18785   5.069   1.206   5.540  0.4712  0.0406  1.1263
  166SAPS   H9Y18786   5.233   1.292   5.541  0.0421 -3.3458 -2.9823
  166SAPS  C31018787   5.092   1.406   5.434 -0.2507 -0.4108  0.5840
  166SAPS  H10X18788   5.156   1.495   5.451  3.0471 -2.5075  0.0837
  166SAPS  H10Y18789   4.982   1.423   5.436 -0.6998 -2.6810 -0.6207
  166SAPS  C31118790   5.123   1.344   5.298 -0.2476 -0.4111 -0.1250
  166SAPS  H11X18791   5.063   1.251   5.281  0.8699 -1.1390 -0.1625
  166SAPS  H11Y18792   5.231   1.318   5.301 -0.3452 -0.7449  1.9658
  166SAPS  C31218793   5.086   1.443   5.182 -0.0776  1.1080  0.4312
  166SAPS  H12X18794   5.150   1.534   5.178  0.9899  0.4382  1.3406
  166SAPS  H12Y18795   4.978   1.468   5.176 -0.6468 -1.2162 -0.2782
  166SAPS  C31318796   5.115   1.378   5.038 -0.3388 -0.2957  0.2499
  166SAPS  H13X18797   5.043   1.296   5.020  0.1512 -1.0774  1.6959
  166SAPS  H13Y18798   5.221   1.344   5.033  0.3586  1.7943 -0.8003
  166SAPS  C31418799   5.094   1.493   4.941  0.4848  0.0667 -0.0418
  166SAPS  H14X18800   5.168   1.574   4.960  0.6137 -0.5093  2.1928
  166SAPS  H14Y18801   4.989   1.529   4.940  0.4957  0.0935 -0.1621
  166SAPS  C31518802   5.126   1.445   4.799  0.0039  0.2193  0.2038
  166SAPS  H15X18803   5.098   1.340   4.775 -0.3503  0.0548  1.2803
  166SAPS  H15Y18804   5.237   1.443   4.796 -0.0083 -0.2644 -0.0359
  166SAPS  C31618805   5.070   1.543   4.694 -0.1477  0.0444  0.5842
  166SAPS  H16X18806   5.109   1.638   4.735  0.6293 -0.9501  2.2735
  166SAPS  H16Y18807   4.960   1.548   4.704 -0.1596 -0.8679  1.0236
  166SAPS  C31718808   5.109   1.510   4.546 -0.0193  0.5071 -0.1021
  166SAPS  H17X18809   5.219   1.500   4.542 -0.0491 -0.2487  0.6888
  166SAPS  H17Y18810   5.088   1.593   4.475  0.7488 -0.2349 -1.2182
  166SAPS  C31818811   5.033   1.384   4.491  0.4984  1.0167 -0.4436
  166SAPS  H18X18812   4.922   1.389   4.489  0.5175  1.7903 -0.0037
  166SAPS  H18Y18813   5.059   1.298   4.557  0.3332  1.2321 -0.0987
  166SAPS  H18Z18814   5.075   1.353   4.393 -2.2991  1.3380 -1.8347
  167SAPS     N18815   2.176   1.789   7.311  0.3144  0.2789  0.4327
  167SAPS   HN118816   2.104   1.847   7.359 -1.4760  0.0364 -1.7752
  167SAPS   HN218817   2.208   1.718   7.380 -0.4976 -0.1851  0.3418
  167SAPS   HN318818   2.252   1.852   7.278  0.6186 -0.5922 -0.5729
  167SAPS   C1218819   2.108   1.736   7.192 -0.3157  0.1854 -0.2377
  167SAPS  H12A18820   2.143   1.635   7.180  3.8886  0.6090  4.8091
  167SAPS   C1318821   1.948   1.741   7.200 -0.5697  0.2616 -0.2018
  167SAPS  O13A18822   1.886   1.800   7.292 -0.2618  0.0583 -0.7533
  167SAPS  O13B18823   1.890   1.684   7.105 -0.3986  0.1426 -0.7135
  167SAPS   C1118824   2.141   1.824   7.066  0.3143  0.2330 -0.6202
  167SAPS  H11A18825   2.120   1.928   7.098 -0.7900 -0.4605  1.0457
  167SAPS  H11B18826   2.068   1.793   6.988 -1.0597  0.0449  0.6918
  167SAPS     P18827   2.350   1.870   6.909 -0.3243  0.3857  0.0822
  167SAPS   O1318828   2.410   1.998   6.954  0.5365  0.0528  0.5413
  167SAPS   O1418829   2.440   1.771   6.850  0.0670 -0.2812  0.1098
  167SAPS   O1218830   2.279   1.795   7.036  0.0411  0.0763  1.0344
  167SAPS   O1118831   2.231   1.898   6.812  0.4471  0.1410  0.3380
  167SAPS    C118832   2.178   1.806   6.721  0.6061  0.3544  0.7091
  167SAPS    HA18833   2.189   1.698   6.745  0.3855  0.1605 -0.0426
  167SAPS    HB18834   2.068   1.819   6.713  0.5342 -1.2254 -3.0503
  167SAPS    C218835   2.242   1.835   6.585  0.0656 -0.4070 -0.2348
  167SAPS    HS18836   2.344   1.791   6.591  0.3310 -0.7868 -4.3613
  167SAPS   O2118837   2.234   1.977   6.556  0.3833 -0.3393  0.1316
  167SAPS   C2118838   2.346   2.021   6.493  0.5597  0.2625 -0.6513
  167SAPS   O2218839   2.427   1.951   6.442 -0.8200 -0.3599 -0.2367
  167SAPS   C2218840   2.340   2.173   6.517 -0.1470 -0.0619 -0.0038
  167SAPS   H2R18841   2.244   2.221   6.491  1.2677  2.7352 -0.4887
  167SAPS   H2S18842   2.341   2.200   6.625 -2.2239  1.4528 -0.3028
  167SAPS    C318843   2.170   1.760   6.472  0.3777  0.0491  0.1998
  167SAPS    HX18844   2.065   1.798   6.469  0.4177  0.3000  1.3707
  167SAPS    HY18845   2.173   1.652   6.496  1.9183  0.7125  3.6372
  167SAPS   O3118846   2.226   1.786   6.341  0.4232  0.2193 -0.1496
  167SAPS   C3118847   2.330   1.708   6.303  0.0965  0.7008  0.1015
  167SAPS   O3218848   2.388   1.629   6.377 -0.0114 -0.1111 -0.0010
  167SAPS   C3218849   2.350   1.737   6.156 -0.3045 -0.0338  0.1271
  167SAPS   H2X18850   2.396   1.837   6.143  2.0085 -0.8697  1.1950
  167SAPS   H2Y18851   2.255   1.728   6.100  0.2739 -2.7360 -0.5834
  167SAPS   C2318852   2.448   2.241   6.429 -0.2149 -0.5814  0.5733
  167SAPS   H3R18853   2.424   2.349   6.427 -1.4131 -0.8345 -1.2653
  167SAPS   H3S18854   2.436   2.216   6.321  0.0886 -0.1479  0.4357
  167SAPS   C2418855   2.586   2.226   6.496  0.4105  0.1017  0.0224
  167SAPS   H4R18856   2.603   2.118   6.514  1.0897  0.1887 -0.0461
  167SAPS   H4S18857   2.578   2.280   6.593 -1.2304 -0.8169  0.4322
  167SAPS   C2518858   2.691   2.298   6.408 -0.0252  0.1651 -0.2593
  167SAPS   H5R18859   2.724   2.393   6.451 -0.9924  0.0256  0.8397
  167SAPS   C2618860   2.754   2.242   6.302 -0.1848  0.7469  0.1216
  167SAPS   H6R18861   2.844   2.282   6.254 -0.3250 -0.3158 -1.0904
  167SAPS   C2718862   2.730   2.102   6.236  0.0082 -0.3032  0.3347
  167SAPS   H7R18863   2.695   2.040   6.322  2.0820 -0.4479  1.1383
  167SAPS   H7S18864   2.827   2.058   6.206  0.9335  2.4968 -1.1238
  167SAPS   C2818865   2.631   2.096   6.118  0.1683  0.2961  0.2343
  167SAPS   H8R18866   2.527   2.127   6.132 -0.2368 -0.8504 -0.1605
  167SAPS   C2918867   2.660   2.057   5.996 -0.0439  0.0552  1.3816
  167SAPS   H9R18868   2.573   2.050   5.929  0.1036  0.9851  1.0749
  167SAPS  C21018869   2.797   2.018   5.937  0.2823  0.5646 -0.1193
  167SAPS  H10R18870   2.803   1.915   5.895  1.2573  1.8738 -3.4821
  167SAPS  H10S18871   2.878   2.024   6.012  1.4233  0.4659 -1.3163
  167SAPS  C21118872   2.828   2.118   5.832 -0.6383  0.0729  0.3971
  167SAPS  H11R18873   2.862   2.215   5.871  0.8679 -0.6037  0.8353
  167SAPS  C21218874   2.829   2.090   5.697  0.2626 -0.7989 -0.9272
  167SAPS  H12R18875   2.863   2.172   5.632  1.9472 -0.3898  0.3808
  167SAPS  C21318876   2.778   1.963   5.631  0.0012 -0.0546  0.0765
  167SAPS  H13R18877   2.668   1.955   5.630  0.0547 -2.2767 -3.0900
  167SAPS  H13S18878   2.813   1.877   5.693 -2.1173  0.4638  2.1296
  167SAPS  C21418879   2.832   1.952   5.493 -0.3991 -0.0099  0.3079
  167SAPS  H14R18880   2.938   1.922   5.498 -0.3656  0.2668  2.3890
  167SAPS  C21518881   2.777   1.977   5.373 -0.4019 -0.2081  0.2330
  167SAPS  H15R18882   2.835   1.951   5.283  0.2355 -0.0400  0.5836
  167SAPS  C21618883   2.640   2.031   5.346  0.1022 -0.9385 -0.1681
  167SAPS  H16R18884   2.603   2.075   5.441  0.2633 -0.2835 -0.4041
  167SAPS  H16S18885   2.577   1.947   5.310 -0.0666 -1.4159  1.1814
  167SAPS  C21718886   2.652   2.151   5.248  0.4449 -0.3785 -0.2401
  167SAPS  H17R18887   2.718   2.221   5.304  2.0231 -1.8474 -0.1588
  167SAPS  H17S18888   2.548   2.184   5.227 -0.1127  0.2557  2.9993
  167SAPS  C21818889   2.694   2.116   5.107  0.0809  0.4652  0.7507
  167SAPS  H18R18890   2.607   2.062   5.064 -0.4277  0.4096  1.8026
  167SAPS  H18S18891   2.787   2.055   5.111 -0.7822 -0.9408  0.1900
  167SAPS  C21918892   2.723   2.240   5.020  0.3261  0.1074 -0.7031
  167SAPS  H19R18893   2.764   2.319   5.085 -0.0572 -0.3571  0.1215
  167SAPS  H19S18894   2.630   2.279   4.973 -1.2943 -0.4392  1.8579
  167SAPS  C22018895   2.801   2.207   4.902 -0.0729  0.5138  0.4647
  167SAPS  H20R18896   2.800   2.293   4.832 -1.1551  1.3404  1.4665
  167SAPS  H20S18897   2.761   2.118   4.848  3.3699 -1.6574  1.1536
  167SAPS  H20T18898   2.911   2.194   4.917  0.0584 -0.9253 -1.3252
  167SAPS   C3318899   2.451   1.633   6.097 -0.8565  0.2360  0.1432
  167SAPS   H3X18900   2.408   1.531   6.085 -0.5774  0.2927 -1.5223
  167SAPS   H3Y18901   2.537   1.614   6.166  0.3973 -1.8476 -1.8492
  167SAPS   C3418902   2.513   1.671   5.967 -0.5335  0.1705  0.8665
  167SAPS   H4X18903   2.599   1.606   5.941 -0.4720  0.5053  0.1899
  167SAPS   H4Y18904   2.556   1.773   5.957  3.7510 -1.3642  1.7465
  167SAPS   C3518905   2.429   1.644   5.837  0.6570  0.4218 -0.2043
  167SAPS   H5X18906   2.329   1.692   5.848 -0.3836 -1.3529 -1.4682
  167SAPS   H5Y18907   2.401   1.537   5.831 -1.6598  1.0592 -1.9874
  167SAPS   C3618908   2.489   1.680   5.698  0.0555  0.2044  0.2403
  167SAPS   H6X18909   2.587   1.639   5.666 -0.2162 -0.3118  0.0611
  167SAPS   H6Y18910   2.501   1.790   5.696  0.1132  0.1840 -0.6227
  167SAPS   C3718911   2.396   1.637   5.583  1.2174  0.4536 -0.0073
  167SAPS   H7X18912   2.295   1.683   5.591  0.1486 -1.5002 -1.2304
  167SAPS   H7Y18913   2.380   1.527   5.577 -3.0981  0.9506 -2.5409
  167SAPS   C3818914   2.452   1.683   5.446 -0.7051  0.2313  0.7128
  167SAPS   H8X18915   2.528   1.607   5.418 -0.8837  1.0755 -2.5248
  167SAPS   H8Y18916   2.504   1.781   5.447  0.9534 -0.6142  1.4256
  167SAPS   C3918917   2.366   1.666   5.318 -0.3339 -0.0028 -0.3840
  167SAPS   H9X18918   2.280   1.736   5.313 -0.4578 -0.2517 -3.2524
  167SAPS   H9Y18919   2.328   1.561   5.316  0.7147 -0.4646  1.3703
  167SAPS  C31018920   2.446   1.681   5.178 -0.3742  0.0463 -0.0300
  167SAPS  H10X18921   2.537   1.618   5.177  0.4428  1.1857  0.6093
  167SAPS  H10Y18922   2.483   1.785   5.164 -1.8338  0.6038  0.0672
  167SAPS  C31118923   2.370   1.649   5.052 -0.1874 -0.7898  0.1358
  167SAPS  H11X18924   2.432   1.698   4.974  0.3030  1.4849  1.8573
  167SAPS  H11Y18925   2.271   1.698   5.043 -0.4981 -1.2235  1.0593
  167SAPS  C31218926   2.361   1.501   5.013  0.0162 -0.0338 -0.2280
  167SAPS  H12X18927   2.270   1.463   5.063 -0.0254 -0.7120 -0.7956
  167SAPS  H12Y18928   2.449   1.447   5.054  0.0442 -0.4130 -0.7763
  167SAPS  C31318929   2.335   1.488   4.863 -0.0447  0.3326 -0.2153
  167SAPS  H13X18930   2.242   1.547   4.847  0.3651  0.8707 -0.6435
  167SAPS  H13Y18931   2.313   1.382   4.840  2.9766 -0.3702 -0.2112
  167SAPS  C31418932   2.441   1.529   4.757  0.9672  0.1237  0.7256
  167SAPS  H14X18933   2.541   1.482   4.764  0.9812  0.1639  0.7951
  167SAPS  H14Y18934   2.458   1.638   4.763 -1.9005  0.6555  0.8390
  167SAPS  C31518935   2.397   1.500   4.618 -0.1769  0.4189 -0.6400
  167SAPS  H15X18936   2.295   1.542   4.602  0.1550  0.2624 -3.7933
  167SAPS  H15Y18937   2.390   1.389   4.620  1.5171  0.2979 -0.4581
  167SAPS  C31618938   2.498   1.533   4.511  0.3321 -0.2664  0.4782
  167SAPS  H16X18939   2.596   1.484   4.528  1.3525  1.3848 -0.3336
  167SAPS  H16Y18940   2.519   1.642   4.512  1.3633 -0.4311 -0.7400
  167SAPS  C31718941   2.449   1.493   4.370 -0.1133  0.4473  0.3027
  167SAPS  H17X18942   2.351   1.541   4.353 -1.7809 -2.1554  1.7329
  167SAPS  H17Y18943   2.432   1.383   4.375 -0.5604  0.5213  0.4488
  167SAPS  C31818944   2.547   1.532   4.260 -0.5484 -0.1698 -0.4670
  167SAPS  H18X18945   2.644   1.484   4.283 -0.3788 -0.3132 -1.4395
  167SAPS  H18Y18946   2.551   1.642   4.249 -0.4527  0.2303  2.7032
  167SAPS  H18Z18947   2.503   1.496   4.165  1.1152 -2.2726 -0.5295
  168SAPS     N18948   6.034   4.693   6.846 -0.3443  0.0262  0.2683
  168SAPS   HN118949   6.135   4.673   6.834  0.0074  2.0456 -0.6083
  168SAPS   HN218950   5.971   4.611   6.835  0.4344 -0.3972 -1.3302
  168SAPS   HN318951   6.002   4.770   6.783 -0.5288 -0.6521 -0.4861
  168SAPS   C1218952   6.029   4.743   6.989  0.4556  0.3746 -0.5801
  168SAPS  H12A18953   5.928   4.775   7.012 -0.3324 -1.1354 -1.7119
  168SAPS   C1318954   6.051   4.627   7.093 -0.4681  0.7463  1.5656
  168SAPS  O13A18955   6.077   4.507   7.052 -0.2105 -0.4292 -0.7220
  168SAPS  O13B18956   5.996   4.648   7.201  0.0996  0.7270  0.2160
  168SAPS   C1118957   6.126   4.863   7.021 -0.1364  0.6876  0.3458
  168SAPS  H11A18958   6.233   4.836   7.012  0.3641  2.5309  0.4780
  168SAPS  H11B18959   6.093   4.888   7.124  0.5022  0.0242  0.7234
  168SAPS     P18960   6.161   5.113   6.916  0.6085  0.0827 -0.1759
  168SAPS   O1318961   6.048   5.206   6.929 -0.0582 -0.7995 -0.7737
  168SAPS   O1418962   6.271   5.126   7.021 -0.4288  0.6953  0.2685
  168SAPS   O1218963   6.098   4.964   6.931  0.3282  0.1076  0.4334
  168SAPS   O1118964   6.230   5.126   6.771 -0.0725 -0.0582  0.3898
  168SAPS    C118965   6.180   5.052   6.657  0.6139  0.3084  0.0716
  168SAPS    HA18966   6.252   4.973   6.625  0.0541 -0.2765  0.2318
  168SAPS    HB18967   6.084   4.998   6.673  0.2483 -0.7985 -4.4784
  168SAPS    C218968   6.151   5.154   6.547 -0.5797 -0.1515  0.0997
  168SAPS    HS18969   6.114   5.101   6.456  1.4758 -1.3627 -0.1036
  168SAPS   O2118970   6.264   5.225   6.504 -0.0798 -0.1145  0.1025
  168SAPS   C2118971   6.344   5.161   6.418 -0.7718  0.3115 -0.1368
  168SAPS   O2218972   6.323   5.055   6.365  0.2580  0.3588 -0.1506
  168SAPS   C2218973   6.470   5.247   6.403 -0.3282 -0.3388 -0.7590
  168SAPS   H2R18974   6.449   5.353   6.430 -0.1899 -0.3904 -0.4464
  168SAPS   H2S18975   6.536   5.210   6.484 -2.0536 -0.1762  0.7933
  168SAPS    C318976   6.050   5.257   6.594  0.3624 -0.6276 -0.0810
  168SAPS    HX18977   6.083   5.308   6.687  0.0581 -0.4824 -0.0544
  168SAPS    HY18978   5.958   5.202   6.624 -0.6613  0.7677 -0.6132
  168SAPS   O3118979   6.022   5.342   6.484 -0.7497  0.0708  0.4591
  168SAPS   C3118980   6.081   5.459   6.490 -0.1448 -0.3836 -0.0657
  168SAPS   O3218981   6.148   5.504   6.585 -0.3139  0.3687 -0.0485
  168SAPS   C3218982   6.037   5.536   6.363  0.1497  1.0557  0.0287
  168SAPS   H2X18983   6.061   5.643   6.382 -0.4072  1.3035 -0.6495
  168SAPS   H2Y18984   5.926   5.526   6.366  0.3159 -1.4850 -0.1605
  168SAPS   C2318985   6.541   5.240   6.268 -0.2896  0.5616 -0.1546
  168SAPS   H3R18986   6.538   5.135   6.232  2.0871  0.4223 -0.0871
  168SAPS   H3S18987   6.648   5.255   6.291  0.0059  1.7518 -2.0584
  168SAPS   C2418988   6.490   5.333   6.162 -0.3879 -0.4515  0.6169
  168SAPS   H4R18989   6.569   5.358   6.088 -1.4115 -1.3028 -0.8054
  168SAPS   H4S18990   6.450   5.428   6.204  0.0875 -1.0253  2.4296
  168SAPS   C2518991   6.373   5.267   6.091  0.2957 -0.2581 -0.1246
  168SAPS   H5R18992   6.280   5.262   6.150  0.0812 -0.1499 -0.4514
  168SAPS   C2618993   6.371   5.200   5.971 -0.0737  0.2198 -0.4053
  168SAPS   H6R18994   6.276   5.157   5.936  0.4917 -0.8465 -0.6835
  168SAPS   C2718995   6.484   5.209   5.877 -0.5780 -0.0115  0.1681
  168SAPS   H7R18996   6.495   5.317   5.856 -0.9582  0.5467  2.5429
  168SAPS   H7S18997   6.447   5.172   5.779  1.3627 -1.2250 -0.1658
  168SAPS   C2818998   6.616   5.146   5.902 -0.9952 -0.2762  0.4151
  168SAPS   H8R18999   6.633   5.117   6.007  0.8681  0.2447  0.2835
  168SAPS   C2919000   6.714   5.126   5.815 -0.3085 -0.0703  0.0541
  168SAPS   H9R19001   6.794   5.059   5.849  0.2557 -0.2671 -1.5739
  168SAPS  C21019002   6.712   5.156   5.665 -0.3096  0.1563  0.0922
  168SAPS  H10R19003   6.667   5.258   5.654 -1.3097 -0.3348 -0.5842
  168SAPS  H10S19004   6.649   5.082   5.612 -1.4867  2.2590 -1.6508
  168SAPS  C21119005   6.854   5.152   5.618 -0.0937 -0.5182 -0.3993
  168SAPS  H11R19006   6.929   5.182   5.692 -1.1309  2.1843 -0.3305
  168SAPS  C21219007   6.888   5.149   5.488  0.0153  0.2297 -0.3382
  168SAPS  H12R19008   6.994   5.153   5.458 -0.0956 -1.0646 -1.0040
  168SAPS  C21319009   6.790   5.140   5.373 -0.6410  0.3445  0.5995
  168SAPS  H13R19010   6.826   5.212   5.296 -0.2767 -2.1960 -1.7575
  168SAPS  H13S19011   6.686   5.164   5.406 -0.4339  0.5574  1.0985
  168SAPS  C21419012   6.798   5.000   5.307  0.3233 -0.1609 -0.0601
  168SAPS  H14R19013   6.843   4.919   5.366 -1.1324  0.0355  1.4010
  168SAPS  C21519014   6.753   4.978   5.180  0.0358  0.5609 -0.7837
  168SAPS  H15R19015   6.797   4.889   5.132  1.0342 -0.1715  1.3791
  168SAPS  C21619016   6.685   5.072   5.086  0.5416  0.3845 -0.5055
  168SAPS  H16R19017   6.626   5.150   5.137  1.4507  0.5957  0.2473
  168SAPS  H16S19018   6.618   5.010   5.023  0.4589  1.1606 -1.2028
  168SAPS  C21719019   6.788   5.135   4.993 -0.3171  0.5912  0.1667
  168SAPS  H17R19020   6.860   5.200   5.047  1.1159 -0.0754 -0.8785
  168SAPS  H17S19021   6.733   5.199   4.921  0.3570  1.5685  0.4906
  168SAPS  C21819022   6.858   5.035   4.894  0.1860  0.2454  0.9462
  168SAPS  H18R19023   6.780   4.979   4.837 -0.5468  0.4284  1.7502
  168SAPS  H18S19024   6.918   4.958   4.947 -0.8315 -2.0386 -1.0392
  168SAPS  C21919025   6.955   5.106   4.799  0.0655 -0.7036  0.7378
  168SAPS  H19R19026   7.042   5.150   4.852  1.0390 -0.4412 -1.0195
  168SAPS  H19S19027   6.903   5.187   4.744 -0.3519 -2.1253 -1.0599
  168SAPS  C22019028   7.010   5.004   4.695 -0.2558 -0.3042 -0.0511
  168SAPS  H20R19029   7.085   4.940   4.746  1.0991  1.6881  0.5963
  168SAPS  H20S19030   7.065   5.045   4.608 -0.7358 -0.5718 -0.4834
  168SAPS  H20T19031   6.922   4.947   4.657 -1.4582  1.1669  0.4387
  168SAPS   C3319032   6.087   5.469   6.226 -0.6172  0.5311  0.5624
  168SAPS   H3X19033   6.054   5.363   6.222 -0.1198  0.4076 -2.0747
  168SAPS   H3Y19034   6.197   5.484   6.228 -0.5089 -0.1064 -0.2338
  168SAPS   C3419035   6.047   5.539   6.100  0.9457  0.8025  0.8191
  168SAPS   H4X19036   6.086   5.643   6.097  1.7951  0.4776 -0.7174
  168SAPS   H4Y19037   5.937   5.545   6.108  0.9172  0.3736  0.7419
  168SAPS   C3519038   6.067   5.458   5.973  0.1172  0.2129 -0.8538
  168SAPS   H5X19039   6.025   5.357   5.992 -0.8594  0.6583 -0.5927
  168SAPS   H5Y19040   6.172   5.449   5.938 -0.4433  1.8755 -3.2525
  168SAPS   C3619041   6.003   5.512   5.842  0.4153 -0.6222 -0.4353
  168SAPS   H6X19042   6.064   5.600   5.813  1.8693  0.2080  4.2433
  168SAPS   H6Y19043   5.906   5.557   5.870  0.5887 -0.0321 -0.7684
  168SAPS   C3719044   6.010   5.411   5.729  0.0104  0.7425  0.5447
  168SAPS   H7X19045   5.938   5.327   5.735 -0.0121  0.5727 -1.5851
  168SAPS   H7Y19046   6.112   5.368   5.722 -0.0933  0.6008 -0.1633
  168SAPS   C3819047   5.969   5.488   5.592 -0.2625  0.1289  0.0651
  168SAPS   H8X19048   5.974   5.414   5.509 -1.6210 -0.0043  0.0806
  168SAPS   H8Y19049   6.043   5.566   5.564  0.1380 -0.5296 -0.7884
  168SAPS   C3919050   5.843   5.566   5.590  0.5661  0.5407  0.0418
  168SAPS   H9X19051   5.851   5.650   5.662 -0.1671 -0.5505  1.4289
  168SAPS   H9Y19052   5.760   5.501   5.625  2.6159 -2.9710 -1.1574
  168SAPS  C31019053   5.807   5.613   5.446 -0.2776 -0.3843  0.4988
  168SAPS  H10X19054   5.896   5.669   5.409 -1.7154  0.8810 -1.2687
  168SAPS  H10Y19055   5.722   5.684   5.433 -0.1814 -0.6544 -1.9970
  168SAPS  C31119056   5.766   5.499   5.345 -0.4700  0.4092 -0.3883
  168SAPS  H11X19057   5.668   5.458   5.376 -0.5747  1.0843  0.1891
  168SAPS  H11Y19058   5.840   5.416   5.340  1.8490  2.1739  1.7535
  168SAPS  C31219059   5.740   5.559   5.205 -0.2086  0.4665  0.1552
  168SAPS  H12X19060   5.657   5.632   5.200 -1.4658 -0.9589 -0.6493
  168SAPS  H12Y19061   5.712   5.474   5.138  0.0241 -0.5899  1.3598
  168SAPS  C31319062   5.876   5.601   5.149  0.2213 -0.0058  0.2371
  168SAPS  H13X19063   5.938   5.511   5.167  0.9214  0.1070 -1.4238
  168SAPS  H13Y19064   5.916   5.688   5.205 -1.6735  1.1235 -0.0648
  168SAPS  C31419065   5.880   5.655   5.004  0.3902 -0.4716  0.8302
  168SAPS  H14X19066   5.799   5.731   5.001  2.4883  1.9311  1.2878
  168SAPS  H14Y19067   5.854   5.571   4.936  2.6195 -0.8882  0.4083
  168SAPS  C31519068   6.023   5.697   4.978  0.0456 -0.2355 -0.3259
  168SAPS  H15X19069   6.085   5.610   5.009 -0.9942 -0.3636  1.5735
  168SAPS  H15Y19070   6.059   5.785   5.036 -0.4933 -0.5814  0.5498
  168SAPS  C31619071   6.036   5.714   4.821  0.1581  0.5626 -0.0933
  168SAPS  H16X19072   5.966   5.649   4.764  0.1093 -1.5359  2.1939
  168SAPS  H16Y19073   6.135   5.682   4.782  0.1903  3.2120 -2.4983
  168SAPS  C31719074   6.020   5.865   4.791 -0.3649  0.2635  0.0737
  168SAPS  H17X19075   6.123   5.905   4.806 -0.7084  0.7948  1.1217
  168SAPS  H17Y19076   5.953   5.904   4.870  0.9129 -3.3073  3.2691
  168SAPS  C31819077   5.980   5.904   4.650  0.7146  0.1255  0.3771
  168SAPS  H18X19078   5.871   5.886   4.640  0.1978  0.9512  3.5770
  168SAPS  H18Y19079   6.031   5.840   4.575  0.7828  1.3428 -0.6573
  168SAPS  H18Z19080   6.004   6.011   4.630  2.7294 -0.3302  0.0972
  169SAPS     N19081   6.482   1.303   6.600  0.1773  0.0559 -0.3339
  169SAPS   HN119082   6.544   1.323   6.519  2.1698 -0.1268  1.0873
  169SAPS   HN219083   6.481   1.199   6.605 -0.1294 -0.0317 -1.7909
  169SAPS   HN319084   6.392   1.351   6.577  0.5753  1.0458  0.1437
  169SAPS   C1219085   6.533   1.370   6.720  1.0509 -0.2574 -0.3926
  169SAPS  H12A19086   6.607   1.441   6.688  0.2168  1.5930  1.5222
  169SAPS   C1319087   6.424   1.454   6.802 -0.6217  0.0552  0.1556
  169SAPS  O13A19088   6.303   1.462   6.759  0.2096 -0.7911 -0.0011
  169SAPS  O13B19089   6.461   1.523   6.901  0.2777  0.2016 -0.1798
  169SAPS   C1119090   6.599   1.271   6.819 -0.7793 -0.1404 -0.3686
  169SAPS  H11A19091   6.517   1.206   6.857 -1.4766 -0.3490 -2.1062
  169SAPS  H11B19092   6.637   1.330   6.905 -1.7361 -0.3478  0.2131
  169SAPS     P19093   6.855   1.248   6.765 -0.2684 -0.8355  0.0218
  169SAPS   O1319094   6.863   1.390   6.718  0.5484 -0.0509 -0.2821
  169SAPS   O1419095   6.910   1.215   6.898  0.2710 -0.4979  0.0769
  169SAPS   O1219096   6.706   1.193   6.757  0.3841  0.1627  0.8698
  169SAPS   O1119097   6.926   1.162   6.658  0.1250 -0.0236 -0.2776
  169SAPS    C119098   6.875   1.130   6.532  0.5040  0.6744 -0.5295
  169SAPS    HA19099   6.923   1.039   6.490 -0.0535 -0.3848  1.0269
  169SAPS    HB19100   6.768   1.098   6.533  0.3482  1.1838 -0.8314
  169SAPS    C219101   6.881   1.246   6.428  0.2498  0.1542 -0.3026
  169SAPS    HS19102   6.822   1.327   6.475 -1.6241 -0.9547 -0.6378
  169SAPS   O2119103   6.817   1.202   6.299  0.2192 -0.6119  0.1298
  169SAPS   C2119104   6.690   1.239   6.280  0.3207 -0.1523 -0.3476
  169SAPS   O2219105   6.621   1.299   6.362  0.0054  0.1670 -0.6110
  169SAPS   C2219106   6.655   1.204   6.138  0.2290  0.6123  0.1573
  169SAPS   H2R19107   6.737   1.238   6.071 -1.1584  1.5356 -1.1359
  169SAPS   H2S19108   6.648   1.093   6.134  3.3483  0.3413 -2.2464
  169SAPS    C319109   7.025   1.281   6.397 -0.5346 -0.2342  0.4389
  169SAPS    HX19110   7.070   1.190   6.352  1.1491  0.8452 -0.1477
  169SAPS    HY19111   7.087   1.303   6.487 -0.5680 -1.6600  0.8285
  169SAPS   O3119112   7.033   1.386   6.296 -0.1840  0.4401 -0.0172
  169SAPS   C3119113   7.025   1.511   6.343  0.1074 -0.0774 -0.5427
  169SAPS   O3219114   7.040   1.541   6.461 -0.2879 -0.4101  0.0968
  169SAPS   C3219115   6.982   1.616   6.234  0.4105  0.9077 -0.0293
  169SAPS   H2X19116   7.059   1.695   6.222  0.2032  0.6894 -4.1174
  169SAPS   H2Y19117   6.893   1.667   6.278 -0.7943 -0.1943 -1.0880
  169SAPS   C2319118   6.521   1.274   6.096 -0.1872  0.4135 -0.1096
  169SAPS   H3R19119   6.531   1.377   6.137 -0.5431 -0.5175  2.5256
  169SAPS   H3S19120   6.431   1.229   6.143 -0.4311  0.5952 -0.4018
  169SAPS   C2419121   6.495   1.291   5.944  0.3461 -0.3890  0.1824
  169SAPS   H4R19122   6.388   1.309   5.922  0.6545  1.1175 -0.1726
  169SAPS   H4S19123   6.520   1.190   5.905  2.3426 -0.6788  2.0526
  169SAPS   C2519124   6.589   1.388   5.876  0.9757  0.6956 -0.7151
  169SAPS   H5R19125   6.648   1.443   5.951  0.9825 -0.4277  0.1313
  169SAPS   C2619126   6.616   1.412   5.751 -0.6724  0.3362  0.5185
  169SAPS   H6R19127   6.691   1.486   5.717 -1.9351  0.8382 -1.3655
  169SAPS   C2719128   6.570   1.333   5.627  0.0703  0.5195  0.3940
  169SAPS   H7R19129   6.580   1.401   5.539  3.0503  1.1477  1.1033
  169SAPS   H7S19130   6.462   1.310   5.633  0.2489 -0.4106  0.2876
  169SAPS   C2819131   6.637   1.201   5.603  0.0088  0.1534 -0.5304
  169SAPS   H8R19132   6.665   1.142   5.692  1.8636  0.4165 -0.9030
  169SAPS   C2919133   6.644   1.137   5.487 -0.0264  1.2421  0.3343
  169SAPS   H9R19134   6.698   1.041   5.485 -2.2902 -0.0963 -1.1087
  169SAPS  C21019135   6.594   1.184   5.350  0.1316 -0.6629 -0.6249
  169SAPS  H10R19136   6.518   1.263   5.366  0.5590 -0.4179  0.2895
  169SAPS  H10S19137   6.539   1.101   5.303 -1.3139 -0.1809  0.1574
  169SAPS  C21119138   6.692   1.243   5.247  0.0610  0.0208 -0.0456
  169SAPS  H11R19139   6.673   1.344   5.210 -0.7258  0.2921  1.0450
  169SAPS  C21219140   6.784   1.167   5.177 -0.3292 -0.6742  0.0206
  169SAPS  H12R19141   6.854   1.227   5.117 -0.3794  1.1790  1.7238
  169SAPS  C21319142   6.829   1.023   5.199  0.3110 -0.3077 -0.1874
  169SAPS  H13R19143   6.772   0.967   5.122 -0.5332 -0.6110  0.6367
  169SAPS  H13S19144   6.792   0.988   5.298  0.4109 -1.0738 -0.4168
  169SAPS  C21419145   6.972   0.987   5.182 -0.2481 -0.2088 -0.4543
  169SAPS  H14R19146   7.003   0.968   5.078  2.0413  0.2742  0.0909
  169SAPS  C21519147   7.062   0.971   5.288 -0.5921 -0.0789 -0.5153
  169SAPS  H15R19148   7.165   0.954   5.255 -0.0359  2.1999 -0.0715
  169SAPS  C21619149   7.026   0.961   5.437 -0.0901 -0.4335  0.8374
  169SAPS  H16R19150   7.104   0.897   5.483  0.4162 -0.7389 -0.4130
  169SAPS  H16S19151   6.929   0.907   5.451 -1.4069  0.7226 -2.8155
  169SAPS  C21719152   7.017   1.091   5.515 -0.0118  0.8347  0.0854
  169SAPS  H17R19153   6.958   1.173   5.469 -0.6977  0.4706  0.2992
  169SAPS  H17S19154   7.123   1.124   5.517  1.0013 -2.0325 -0.4747
  169SAPS  C21819155   6.969   1.074   5.662 -0.4897  0.6451  0.3320
  169SAPS  H18R19156   6.871   1.021   5.661  0.7826 -1.8512 -0.1416
  169SAPS  H18S19157   6.955   1.173   5.711  0.8935 -0.3474  2.8970
  169SAPS  C21919158   7.063   0.989   5.752  0.4765 -0.2330  0.1255
  169SAPS  H19R19159   7.153   1.053   5.763 -0.3805  1.4866 -2.0036
  169SAPS  H19S19160   7.094   0.895   5.702 -0.1715 -0.5231  0.2636
  169SAPS  C22019161   7.001   0.967   5.892  0.8788 -0.4527 -0.6400
  169SAPS  H20R19162   6.956   1.060   5.933 -0.1792 -1.0188 -0.4891
  169SAPS  H20S19163   7.072   0.919   5.963 -1.5986 -2.8376  0.4040
  169SAPS  H20T19164   6.920   0.893   5.881  0.3885  0.1781 -1.3495
  169SAPS   C3319165   6.944   1.540   6.104 -0.7505 -0.4078 -0.1547
  169SAPS   H3X19166   6.874   1.596   6.039 -0.4374  0.2187  0.0447
  169SAPS   H3Y19167   6.898   1.441   6.123 -0.8545 -0.0017  1.9948
  169SAPS   C3419168   7.068   1.536   6.011 -0.0860  0.6096 -0.0523
  169SAPS   H4X19169   7.145   1.480   6.068 -1.1382  0.2076  1.0126
  169SAPS   H4Y19170   7.095   1.640   5.983 -0.8154  1.3094  1.7329
  169SAPS   C3519171   7.024   1.463   5.878 -0.3620  0.8573  0.1828
  169SAPS   H5X19172   6.920   1.493   5.853 -1.0304 -0.1518  1.6548
  169SAPS   H5Y19173   7.034   1.353   5.891  2.0315  1.2378  2.2275
  169SAPS   C3619174   7.120   1.501   5.769 -0.1281  0.2455 -0.0345
  169SAPS   H6X19175   7.225   1.475   5.794  0.6830  1.0286 -2.3455
  169SAPS   H6Y19176   7.116   1.611   5.752  0.0876 -0.0332 -2.1433
  169SAPS   C3719177   7.075   1.446   5.633  0.6760  0.3344 -1.0842
  169SAPS   H7X19178   6.977   1.487   5.601  0.7815  0.3486 -1.3868
  169SAPS   H7Y19179   7.071   1.336   5.643 -1.4656  0.0726 -3.7851
  169SAPS   C3819180   7.180   1.484   5.523  0.1308 -0.1583  0.3334
  169SAPS   H8X19181   7.288   1.483   5.546  0.7964 -1.5037 -2.4993
  169SAPS   H8Y19182   7.145   1.587   5.497  0.7997 -0.0850 -0.2852
  169SAPS   C3919183   7.165   1.398   5.397  0.1901  0.3304 -0.7057
  169SAPS   H9X19184   7.059   1.378   5.371 -0.0680  0.1440  0.4138
  169SAPS   H9Y19185   7.205   1.298   5.421 -2.7416 -0.8277 -0.1542
  169SAPS  C31019186   7.252   1.449   5.278  0.0222 -0.2985 -0.3880
  169SAPS  H10X19187   7.264   1.367   5.204  0.9481  0.0934 -0.6914
  169SAPS  H10Y19188   7.355   1.479   5.309 -0.0458 -0.3437 -0.1110
  169SAPS  C31119189   7.200   1.579   5.211 -0.1647  0.1136  0.0091
  169SAPS  H11X19190   7.204   1.663   5.283 -0.3260 -1.2919  1.7103
  169SAPS  H11Y19191   7.093   1.560   5.186  0.1642 -2.2186  0.1432
  169SAPS  C31219192   7.269   1.618   5.078 -0.3375 -0.0753 -0.0231
  169SAPS  H12X19193   7.247   1.529   5.017 -1.5707 -0.9380  1.6056
  169SAPS  H12Y19194   7.376   1.642   5.097 -0.3042  0.1266 -0.4357
  169SAPS  C31319195   7.195   1.742   5.023 -0.5147 -0.1749  0.8716
  169SAPS  H13X19196   7.213   1.838   5.076 -0.1154  0.6590 -0.7075
  169SAPS  H13Y19197   7.086   1.723   5.015 -0.4978 -0.1177  0.4769
  169SAPS  C31419198   7.236   1.790   4.885 -0.3308  0.4320  0.0190
  169SAPS  H14X19199   7.202   1.714   4.811  1.7367  0.5732 -1.1550
  169SAPS  H14Y19200   7.347   1.792   4.871 -0.4199 -0.5122 -0.9595
  169SAPS  C31519201   7.190   1.929   4.848 -0.5146  1.0030  0.3832
  169SAPS  H15X19202   7.254   1.999   4.906  0.4234  1.9791 -1.6960
  169SAPS  H15Y19203   7.086   1.952   4.880 -0.2163  3.4134 -0.1714
  169SAPS  C31619204   7.206   1.957   4.693  0.7671  0.5306 -0.9304
  169SAPS  H16X19205   7.137   1.886   4.643 -1.0569 -0.2324  2.3472
  169SAPS  H16Y19206   7.310   1.923   4.675 -0.2088 -2.8248 -0.9616
  169SAPS  C31719207   7.184   2.100   4.652 -0.5756  0.3520 -0.0731
  169SAPS  H17X19208   7.245   2.109   4.559 -0.2791 -1.1643 -0.0490
  169SAPS  H17Y19209   7.234   2.163   4.728  1.3670  0.9817 -1.7667
  169SAPS  C31819210   7.032   2.121   4.628  0.4090  0.1191 -0.0380
  169SAPS  H18X19211   6.965   2.134   4.715 -0.4228 -1.1097 -0.4791
  169SAPS  H18Y19212   6.985   2.037   4.572  1.7836 -0.7229  0.0024
  169SAPS  H18Z19213   7.016   2.207   4.560 -0.0374  0.9461  1.0846
  170SAPS     N19214   3.271   4.380   6.618  0.2381 -0.4985 -0.1093
  170SAPS   HN119215   3.252   4.456   6.550  1.2188  0.1617  0.3355
  170SAPS   HN219216   3.276   4.409   6.717  5.3715 -0.7016 -0.0262
  170SAPS   HN319217   3.363   4.336   6.595  0.0912 -0.5345 -0.6533
  170SAPS   C1219218   3.173   4.273   6.597  1.0175 -0.2005 -0.4935
  170SAPS  H12A19219   3.175   4.211   6.686  0.0393  0.8043  0.2568
  170SAPS   C1319220   3.034   4.335   6.582  0.2081  0.2601 -0.0540
  170SAPS  O13A19221   3.011   4.460   6.595 -0.5605 -0.4800 -0.7614
  170SAPS  O13B19222   2.936   4.257   6.553  1.0446 -0.2806  0.2680
  170SAPS   C1119223   3.204   4.198   6.469  0.6122 -0.0101  0.8589
  170SAPS  H11A19224   3.189   4.259   6.378  4.5636  1.7637  1.1511
  170SAPS  H11B19225   3.131   4.115   6.473  0.3351  0.1778 -0.1067
  170SAPS     P19226   3.408   4.062   6.363  0.0896 -0.0897 -0.0417
  170SAPS   O1319227   3.543   4.113   6.332 -0.3981  0.4252 -0.2913
  170SAPS   O1419228   3.400   3.919   6.416  0.0485  0.1628  0.3914
  170SAPS   O1219229   3.340   4.149   6.471 -0.0298 -0.3827  0.4756
  170SAPS   O1119230   3.318   4.068   6.232 -0.1974  0.0795  0.4540
  170SAPS    C119231   3.204   3.986   6.216  0.4069  0.2915  0.0579
  170SAPS    HA19232   3.163   3.947   6.312  0.7990  0.7200  0.3994
  170SAPS    HB19233   3.119   4.048   6.180 -2.3210 -2.5306  1.1089
  170SAPS    C219234   3.238   3.867   6.112  0.3949 -0.1973 -0.2439
  170SAPS    HS19235   3.309   3.801   6.167 -0.7085 -0.8455  0.4283
  170SAPS   O2119236   3.312   3.932   6.010  0.1456  0.0040  0.5712
  170SAPS   C2119237   3.353   3.862   5.910  0.8467 -0.1046 -0.5012
  170SAPS   O2219238   3.336   3.741   5.899  0.1571  0.0077 -0.0217
  170SAPS   C2219239   3.439   3.949   5.815  0.0489 -0.2118  0.0664
  170SAPS   H2R19240   3.423   4.057   5.831  1.6750 -0.1459  1.5516
  170SAPS   H2S19241   3.548   3.934   5.828  0.7927  1.7313 -2.7894
  170SAPS    C319242   3.106   3.795   6.065  0.8184 -0.4580  0.0045
  170SAPS    HX19243   3.037   3.796   6.151 -1.8552  0.8635 -1.9852
  170SAPS    HY19244   3.126   3.689   6.037  0.6246 -0.7192  0.8281
  170SAPS   O3119245   3.036   3.868   5.958 -0.0934  0.1338  0.1921
  170SAPS   C3119246   2.918   3.816   5.925  1.2839 -0.9879 -0.2981
  170SAPS   O3219247   2.867   3.720   5.982  0.3657  0.3585 -0.1382
  170SAPS   C3219248   2.855   3.890   5.802 -0.5283  0.3308  0.2497
  170SAPS   H2X19249   2.870   3.821   5.717  0.3343  1.2166 -0.3332
  170SAPS   H2Y19250   2.931   3.969   5.781  1.4507 -2.0887 -2.4022
  170SAPS   C2319251   3.411   3.915   5.671 -0.1647  0.3204  1.2618
  170SAPS   H3R19252   3.303   3.923   5.648  0.2486  0.9828 -0.6564
  170SAPS   H3S19253   3.444   3.813   5.642  0.2999  1.0705 -1.0565
  170SAPS   C2419254   3.465   4.010   5.561  0.4004  0.9454  0.0617
  170SAPS   H4R19255   3.417   4.109   5.577  1.2818  1.4362 -0.2152
  170SAPS   H4S19256   3.430   3.972   5.463  0.7976 -2.0894  1.0030
  170SAPS   C2519257   3.617   4.037   5.570  0.3859  0.4303  0.0857
  170SAPS   H5R19258   3.653   4.073   5.668 -0.5544  0.2033  0.5289
  170SAPS   C2619259   3.714   4.024   5.474  0.3137 -0.0097 -0.6195
  170SAPS   H6R19260   3.813   4.057   5.507 -0.0845  0.3164  0.2917
  170SAPS   C2719261   3.684   3.990   5.332 -0.3340  0.0558 -0.0132
  170SAPS   H7R19262   3.621   3.899   5.326  1.5956 -1.2361 -2.2298
  170SAPS   H7S19263   3.772   3.947   5.280 -1.9024 -2.0442 -1.0537
  170SAPS   C2819264   3.611   4.081   5.242  0.4222 -0.9087 -0.0617
  170SAPS   H8R19265   3.543   4.148   5.297 -0.4917 -0.8535 -1.2196
  170SAPS   C2919266   3.651   4.115   5.113  0.5068  0.4576  0.0650
  170SAPS   H9R19267   3.613   4.211   5.074 -0.0649  0.0279 -0.4542
  170SAPS  C21019268   3.755   4.053   5.024  0.3525 -0.1544 -0.6433
  170SAPS  H10R19269   3.827   3.996   5.087 -0.3643 -0.4217 -0.0532
  170SAPS  H10S19270   3.809   4.135   4.971 -1.4325  0.2238 -1.9599
  170SAPS  C21119271   3.705   3.962   4.922 -0.1948  0.3313 -0.0285
  170SAPS  H11R19272   3.596   3.957   4.908 -0.0936 -0.6719 -0.5077
  170SAPS  C21219273   3.784   3.897   4.838  0.3331 -0.2766 -0.0064
  170SAPS  H12R19274   3.740   3.833   4.760  1.9531 -0.5245 -0.7481
  170SAPS  C21319275   3.933   3.907   4.843 -0.4441 -0.0781 -0.0686
  170SAPS  H13R19276   3.972   3.816   4.894  1.4962  0.9836  0.4492
  170SAPS  H13S19277   3.962   3.987   4.913 -1.8832  0.7433 -0.3743
  170SAPS  C21419278   4.019   3.922   4.713  0.3421  0.0679  0.1994
  170SAPS  H14R19279   4.079   3.832   4.693 -1.1703 -1.4734  2.1907
  170SAPS  C21519280   4.005   4.021   4.619 -0.3181  0.0481 -0.4324
  170SAPS  H15R19281   4.062   4.020   4.525  0.6037  0.5657  0.1081
  170SAPS  C21619282   3.920   4.142   4.624  0.1846  0.0073 -0.0298
  170SAPS  H16R19283   3.886   4.156   4.729  3.5543 -1.3890  1.3971
  170SAPS  H16S19284   3.832   4.150   4.557 -1.3201  2.7671  2.0909
  170SAPS  C21719285   4.006   4.268   4.572  0.7772 -0.2641  0.5799
  170SAPS  H17R19286   4.108   4.272   4.616  0.5678  0.2042  1.0403
  170SAPS  H17S19287   3.949   4.354   4.613 -0.2774 -0.6816  0.0272
  170SAPS  C21819288   4.017   4.258   4.418 -0.2872 -0.3522  0.5246
  170SAPS  H18R19289   3.916   4.294   4.391 -1.0475 -2.2861  0.6339
  170SAPS  H18S19290   4.026   4.153   4.382  2.7688  0.0517 -0.2044
  170SAPS  C21919291   4.149   4.328   4.362 -0.0990 -0.4661 -0.4374
  170SAPS  H19R19292   4.154   4.318   4.252 -0.4296  0.5861 -0.5510
  170SAPS  H19S19293   4.228   4.274   4.418 -0.9472 -1.6255 -0.3163
  170SAPS  C22019294   4.148   4.476   4.391  0.5127  1.1645  0.7139
  170SAPS  H20R19295   4.240   4.509   4.337  1.6663  2.7492  3.4550
  170SAPS  H20S19296   4.158   4.486   4.501  2.9831 -1.0522  0.8031
  170SAPS  H20T19297   4.049   4.508   4.352  0.3823 -0.6280 -0.5216
  170SAPS   C3319298   2.716   3.942   5.834 -0.2557 -0.3610  0.1371
  170SAPS   H3X19299   2.725   4.006   5.924 -0.5984 -1.7965  1.2207
  170SAPS   H3Y19300   2.651   3.855   5.857  1.0309 -1.2299  0.6406
  170SAPS   C3419301   2.662   4.033   5.725  0.3547 -0.7736 -0.3201
  170SAPS   H4X19302   2.719   4.129   5.730 -1.6084  0.5211 -1.3173
  170SAPS   H4Y19303   2.557   4.045   5.759 -0.5786 -4.5599 -1.4890
  170SAPS   C3519304   2.661   3.983   5.581  0.2278  0.2245 -1.1924
  170SAPS   H5X19305   2.628   3.879   5.560  1.9860 -0.5377 -0.4096
  170SAPS   H5Y19306   2.770   3.981   5.558  0.5705  0.6257  0.3158
  170SAPS   C3619307   2.590   4.081   5.487 -0.2409 -0.3460 -0.1060
  170SAPS   H6X19308   2.637   4.181   5.480  1.7589 -1.1781  0.6856
  170SAPS   H6Y19309   2.483   4.100   5.509  0.1967  0.1647  1.7741
  170SAPS   C3719310   2.587   4.014   5.346 -0.6257  0.1275  0.4303
  170SAPS   H7X19311   2.686   3.975   5.313 -0.9308 -0.2654 -0.0468
  170SAPS   H7Y19312   2.551   4.087   5.270  0.0458 -0.7148 -0.7250
  170SAPS   C3819313   2.479   3.905   5.334  0.1594  0.2363  0.4689
  170SAPS   H8X19314   2.379   3.947   5.358  0.5459  0.5671  1.5181
  170SAPS   H8Y19315   2.502   3.825   5.407 -1.9236  0.0002  0.9269
  170SAPS   C3919316   2.476   3.832   5.205  0.4352  0.5936 -0.1232
  170SAPS   H9X19317   2.577   3.790   5.186 -0.6961 -2.0852 -0.6397
  170SAPS   H9Y19318   2.449   3.909   5.130  0.6813 -0.5857 -1.4593
  170SAPS  C31019319   2.386   3.708   5.219 -0.6526  0.4776 -0.4797
  170SAPS  H10X19320   2.277   3.727   5.229 -0.9816 -0.9445 -1.1193
  170SAPS  H10Y19321   2.412   3.651   5.310 -1.7430  1.0116  0.1849
  170SAPS  C31119322   2.388   3.622   5.088  0.2942 -0.3955  0.3872
  170SAPS  H11X19323   2.346   3.520   5.102 -1.6194 -0.1292 -2.6322
  170SAPS  H11Y19324   2.492   3.620   5.047 -0.0270 -0.8342 -0.4247
  170SAPS  C31219325   2.295   3.693   4.981 -0.2960 -0.0753 -0.4344
  170SAPS  H12X19326   2.328   3.799   4.970 -0.4679 -0.1436 -1.8497
  170SAPS  H12Y19327   2.187   3.701   5.004 -0.1044  1.4930  0.0839
  170SAPS  C31319328   2.297   3.627   4.836 -0.6990  0.3632 -0.1660
  170SAPS  H13X19329   2.215   3.659   4.768 -0.9516 -0.5779 -0.3092
  170SAPS  H13Y19330   2.266   3.526   4.868  0.0486 -0.3587 -1.6549
  170SAPS  C31419331   2.436   3.641   4.766  0.5515 -0.1903 -0.2667
  170SAPS  H14X19332   2.517   3.623   4.839 -0.8305 -0.9939  1.1274
  170SAPS  H14Y19333   2.453   3.746   4.735 -1.1648  0.2598  0.2248
  170SAPS  C31519334   2.453   3.543   4.650  0.7545  0.5182  0.0402
  170SAPS  H15X19335   2.397   3.569   4.558  2.6956 -1.0136 -1.6837
  170SAPS  H15Y19336   2.417   3.444   4.686  1.0870 -0.0463 -1.1480
  170SAPS  C31619337   2.591   3.520   4.594  0.2830  0.2275 -0.4423
  170SAPS  H16X19338   2.602   3.422   4.542 -0.5428 -0.1924  0.1547
  170SAPS  H16Y19339   2.645   3.515   4.691 -0.3950 -0.5924 -0.0920
  170SAPS  C31719340   2.640   3.635   4.510 -0.2698 -0.5903  0.3825
  170SAPS  H17X19341   2.656   3.725   4.573 -2.9441 -0.0856  0.4683
  170SAPS  H17Y19342   2.559   3.660   4.438  0.0350  0.0460  0.2542
  170SAPS  C31819343   2.777   3.617   4.436  0.2277  0.0239  0.2889
  170SAPS  H18X19344   2.776   3.706   4.370  0.3970 -0.3580 -0.2426
  170SAPS  H18Y19345   2.787   3.528   4.369 -3.1101 -1.1509  1.1715
  170SAPS  H18Z19346   2.865   3.624   4.503 -0.3265 -1.3919  1.2086
  171SAPS     N19347   3.753   4.343   6.625 -0.2494  0.0589  0.3246
  171SAPS   HN119348   3.821   4.264   6.626 -1.3192 -0.9010  1.8839
  171SAPS   HN219349   3.791   4.405   6.700 -1.7597 -0.1238  1.2775
  171SAPS   HN319350   3.663   4.308   6.663 -0.3009 -0.0203  0.1285
  171SAPS   C1219351   3.736   4.408   6.493  0.6831 -0.7837  0.0770
  171SAPS  H12A19352   3.695   4.332   6.428  0.1473 -0.0087 -0.5060
  171SAPS   C1319353   3.622   4.512   6.488 -0.2302 -0.0751 -0.2301
  171SAPS  O13A19354   3.551   4.521   6.591  0.4813 -0.3408 -0.1545
  171SAPS  O13B19355   3.582   4.562   6.381  0.1374  0.8218 -0.2370
  171SAPS   C1119356   3.859   4.478   6.427 -0.2772  0.7004 -0.4884
  171SAPS  H11A19357   3.892   4.560   6.494  1.1006  0.6816 -1.1054
  171SAPS  H11B19358   3.836   4.523   6.329  1.1285 -1.2117 -1.7642
  171SAPS     P19359   4.105   4.440   6.365 -0.4009 -0.2639 -0.3083
  171SAPS   O1319360   4.135   4.562   6.444  0.5337  0.4851  0.0859
  171SAPS   O1419361   4.203   4.330   6.366 -0.7118  0.7944  0.7482
  171SAPS   O1219362   3.963   4.382   6.412  0.2495 -0.3279 -0.0526
  171SAPS   O1119363   4.063   4.477   6.218 -0.6982  0.1634  0.6272
  171SAPS    C119364   4.077   4.383   6.108 -0.1818  0.1971  0.1687
  171SAPS    HA19365   4.088   4.440   6.013 -1.5091 -0.0396 -0.1377
  171SAPS    HB19366   4.173   4.326   6.109 -0.0741  0.3870  1.0361
  171SAPS    C219367   3.964   4.282   6.093 -0.4681 -0.1296  0.0568
  171SAPS    HS19368   3.938   4.242   6.193 -0.1094 -0.5432 -0.0105
  171SAPS   O2119369   4.001   4.176   6.006 -0.5584 -0.0999  0.4819
  171SAPS   C2119370   3.922   4.073   6.013  0.3924  0.3155  0.1638
  171SAPS   O2219371   3.837   4.053   6.104  0.0662  0.5342 -0.0303
  171SAPS   C2219372   3.950   3.981   5.894  0.1032 -0.3087  0.1749
  171SAPS   H2R19373   3.929   4.036   5.800 -0.9333 -0.2438  0.4325
  171SAPS   H2S19374   4.059   3.957   5.892  0.6110  1.7660  0.7782
  171SAPS    C319375   3.830   4.355   6.048  0.1814 -0.1462 -0.0972
  171SAPS    HX19376   3.810   4.440   6.118 -0.0458  1.1915 -1.7299
  171SAPS    HY19377   3.740   4.292   6.064 -1.1822  1.7819  0.2929
  171SAPS   O3119378   3.839   4.418   5.920 -0.9857 -0.8685  0.0517
  171SAPS   C3119379   3.790   4.356   5.814  0.0839  0.7834  0.1273
  171SAPS   O3219380   3.746   4.241   5.816 -0.1052  0.0268  0.1975
  171SAPS   C3219381   3.807   4.435   5.694 -0.5697  0.2947  0.7270
  171SAPS   H2X19382   3.862   4.529   5.718  2.4823 -1.0793 -0.3078
  171SAPS   H2Y19383   3.709   4.454   5.647  0.4851  0.0800 -1.6904
  171SAPS   C2319384   3.855   3.859   5.902 -0.0039 -0.4631  0.5788
  171SAPS   H3R19385   3.751   3.898   5.907  0.5155  0.9195  0.9619
  171SAPS   H3S19386   3.884   3.794   5.988  0.9464 -0.1959  0.4710
  171SAPS   C2419387   3.865   3.775   5.774 -0.1494  0.2749 -0.1786
  171SAPS   H4R19388   3.969   3.734   5.769  0.1570  1.0929 -0.5868
  171SAPS   H4S19389   3.866   3.838   5.683 -1.6715 -0.4673 -0.7422
  171SAPS   C2519390   3.763   3.661   5.759 -0.0624 -0.0910 -0.3244
  171SAPS   H5R19391   3.705   3.635   5.849 -2.4320  0.3082 -1.6441
  171SAPS   C2619392   3.768   3.565   5.662  0.7370 -0.6638  0.5113
  171SAPS   H6R19393   3.705   3.474   5.665  0.4446 -0.6064 -1.8684
  171SAPS   C2719394   3.846   3.580   5.537  0.0508 -0.5504 -0.1681
  171SAPS   H7R19395   3.855   3.475   5.502 -1.5102 -1.1690  1.1118
  171SAPS   H7S19396   3.951   3.607   5.564  0.7179 -0.7802 -2.3470
  171SAPS   C2819397   3.786   3.656   5.416  0.2453 -0.3735 -0.7124
  171SAPS   H8R19398   3.678   3.675   5.424  0.4484 -0.0800  2.5692
  171SAPS   C2919399   3.846   3.678   5.305  0.3550  0.2861 -0.2657
  171SAPS   H9R19400   3.782   3.708   5.221 -0.2790 -0.0768  0.0762
  171SAPS  C21019401   3.994   3.667   5.281  0.0795 -0.1637  0.7629
  171SAPS  H10R19402   4.029   3.569   5.319  1.4593 -0.5517 -1.3349
  171SAPS  H10S19403   4.049   3.742   5.342 -0.9905  1.1243  0.1980
  171SAPS  C21119404   4.028   3.676   5.132  0.1985  0.1825  0.7460
  171SAPS  H11R19405   4.079   3.768   5.100 -1.9885  1.0331 -0.5010
  171SAPS  C21219406   3.998   3.583   5.039  0.2719 -0.0397  0.3110
  171SAPS  H12R19407   4.039   3.594   4.938  2.1662 -1.4454  0.8820
  171SAPS  C21319408   3.942   3.443   5.075  0.4556 -0.3082  0.3084
  171SAPS  H13R19409   3.932   3.426   5.184 -1.6535  1.7430  0.5072
  171SAPS  H13S19410   4.010   3.370   5.026 -1.0180 -2.1963  0.9799
  171SAPS  C21419411   3.807   3.415   5.021  0.1770 -0.1123  0.9967
  171SAPS  H14R19412   3.728   3.434   5.096  1.9513  1.2671  2.6278
  171SAPS  C21519413   3.784   3.365   4.900 -0.4442  1.1767  0.0070
  171SAPS  H15R19414   3.681   3.352   4.864  0.3217  0.6127 -2.1133
  171SAPS  C21619415   3.880   3.341   4.782 -0.6138  0.2650 -0.0868
  171SAPS  H16R19416   3.952   3.425   4.766  0.1382 -0.5215 -0.9179
  171SAPS  H16S19417   3.823   3.338   4.687 -1.2515  0.9030  0.2636
  171SAPS  C21719418   3.966   3.207   4.780  0.2561  0.0775  0.1390
  171SAPS  H17R19419   3.978   3.174   4.886 -2.6834 -2.4701 -0.1901
  171SAPS  H17S19420   4.052   3.226   4.712 -0.8529  1.5583 -0.8928
  171SAPS  C21819421   3.895   3.085   4.722  0.1306 -0.5412  0.8052
  171SAPS  H18R19422   3.792   3.090   4.762 -0.5917  1.0129 -1.1152
  171SAPS  H18S19423   3.943   2.997   4.771 -0.9263 -1.8830 -0.4843
  171SAPS  C21919424   3.885   3.067   4.578  0.0122 -0.1022 -0.4706
  171SAPS  H19R19425   3.842   3.145   4.511  1.3465  2.4953  1.5217
  171SAPS  H19S19426   3.834   2.970   4.564  0.5680 -0.1357 -2.7297
  171SAPS  C22019427   4.022   3.037   4.511 -1.1713 -0.1551  0.6591
  171SAPS  H20R19428   4.009   2.999   4.408  0.7069 -1.3322  0.8054
  171SAPS  H20S19429   4.062   2.947   4.563  0.5646  0.0529 -0.2353
  171SAPS  H20T19430   4.099   3.118   4.515 -1.5013  0.1654  0.5726
  171SAPS   C3319431   3.880   4.367   5.576  0.2916  0.2512  0.5634
  171SAPS   H3X19432   3.821   4.284   5.530 -0.4347  1.9341 -1.7174
  171SAPS   H3Y19433   3.983   4.336   5.604  1.0654  1.8967 -0.3913
  171SAPS   C3419434   3.903   4.475   5.470 -0.1283 -0.4742  0.6696
  171SAPS   H4X19435   3.991   4.540   5.485  0.4699 -1.0147 -0.3818
  171SAPS   H4Y19436   3.818   4.546   5.480  0.3068  0.4939 -1.9220
  171SAPS   C3519437   3.911   4.429   5.326  0.8246  0.0488 -0.9767
  171SAPS   H5X19438   3.947   4.515   5.267 -0.7227  2.2090  1.0530
  171SAPS   H5Y19439   3.811   4.400   5.288  1.8580 -1.1426 -2.9681
  171SAPS   C3619440   4.008   4.308   5.305 -0.5042  0.3462  0.7858
  171SAPS   H6X19441   3.949   4.225   5.350  0.2798 -0.5513  0.1972
  171SAPS   H6Y19442   4.096   4.313   5.372 -1.2720 -2.5046  2.1624
  171SAPS   C3719443   4.054   4.281   5.161 -0.1506 -0.0886 -0.3578
  171SAPS   H7X19444   4.120   4.364   5.128 -0.4011  0.7233  1.1200
  171SAPS   H7Y19445   3.965   4.285   5.096  0.4705 -0.0276 -1.2248
  171SAPS   C3819446   4.141   4.158   5.147  0.0589 -0.6116  0.0253
  171SAPS   H8X19447   4.130   4.145   5.037 -0.8227 -2.0999  0.2623
  171SAPS   H8Y19448   4.096   4.076   5.207  1.3203 -0.8631  0.6575
  171SAPS   C3919449   4.292   4.174   5.169 -0.4943  0.0453  0.5121
  171SAPS   H9X19450   4.323   4.246   5.247 -0.1241 -1.6821  2.0288
  171SAPS   H9Y19451   4.338   4.218   5.078  0.4055 -0.2363  0.8146
  171SAPS  C31019452   4.364   4.043   5.207  0.1613 -0.7707  0.1581
  171SAPS  H10X19453   4.315   4.012   5.302 -0.8041 -2.3840 -0.8199
  171SAPS  H10Y19454   4.474   4.060   5.209  0.2335 -0.2119 -2.9489
  171SAPS  C31119455   4.344   3.931   5.108  0.0456 -0.4371  0.8708
  171SAPS  H11X19456   4.235   3.911   5.098  0.4259 -1.5451 -2.0049
  171SAPS  H11Y19457   4.383   3.833   5.144  1.7548  0.1023  0.5884
  171SAPS  C31219458   4.392   3.964   4.961 -0.2080 -0.1050 -0.2190
  171SAPS  H12X19459   4.490   4.016   4.968  0.4771 -1.2057 -1.3014
  171SAPS  H12Y19460   4.320   4.039   4.922  0.2799  0.6552  0.3131
  171SAPS  C31319461   4.385   3.833   4.880 -0.0455 -0.0369 -0.2091
  171SAPS  H13X19462   4.284   3.787   4.883  1.0269 -2.5036  0.7608
  171SAPS  H13Y19463   4.453   3.759   4.927  0.0621  0.9186  1.1846
  171SAPS  C31419464   4.419   3.869   4.737  0.2808  0.0285  0.0751
  171SAPS  H14X19465   4.521   3.912   4.737  0.2934  0.0044  0.6090
  171SAPS  H14Y19466   4.347   3.940   4.690  0.3611 -0.5839 -1.0150
  171SAPS  C31519467   4.410   3.748   4.648  0.3204  0.5164 -0.5566
  171SAPS  H15X19468   4.306   3.710   4.661  0.6913 -1.3165 -2.4078
  171SAPS  H15Y19469   4.477   3.677   4.702 -3.1387 -2.0019  0.8491
  171SAPS  C31619470   4.451   3.766   4.504 -0.6062  0.2464  0.3111
  171SAPS  H16X19471   4.493   3.673   4.461  1.4305  0.8522  0.9124
  171SAPS  H16Y19472   4.532   3.842   4.501 -1.1138  0.9236  2.1297
  171SAPS  C31719473   4.333   3.821   4.418 -0.3033  0.8357  0.3766
  171SAPS  H17X19474   4.294   3.919   4.453 -1.1730  1.2082 -1.4901
  171SAPS  H17Y19475   4.252   3.747   4.437  0.4295  0.2965  1.4396
  171SAPS  C31819476   4.361   3.825   4.269  0.8736 -0.3014 -0.2079
  171SAPS  H18X19477   4.291   3.889   4.211  2.1676 -0.0832 -1.5967
  171SAPS  H18Y19478   4.355   3.726   4.220  1.7869 -1.4903  1.9763
  171SAPS  H18Z19479   4.464   3.862   4.247  0.8433 -1.1501 -1.9762
  172SAPS     N19480   2.330   3.794   6.749  0.0905  0.0767 -0.4618
  172SAPS   HN119481   2.363   3.702   6.711 -0.5779 -0.2815 -0.1920
  172SAPS   HN219482   2.270   3.773   6.832  1.3773  3.3815  1.4760
  172SAPS   HN319483   2.272   3.839   6.675  0.2941 -0.5050 -0.9895
  172SAPS   C1219484   2.429   3.892   6.797 -0.4592  0.0133  0.5290
  172SAPS  H12A19485   2.387   3.990   6.811  0.3648  0.2944  1.1282
  172SAPS   C1319486   2.498   3.857   6.931 -0.2314 -0.0516  0.3360
  172SAPS  O13A19487   2.453   3.768   7.005  0.2462 -0.0831  0.4300
  172SAPS  O13B19488   2.583   3.938   6.964 -0.7330 -0.0463 -0.2004
  172SAPS   C1119489   2.539   3.904   6.685 -0.4544  0.2109  0.6445
  172SAPS  H11A19490   2.588   3.806   6.664  0.2242  0.0945  2.5555
  172SAPS  H11B19491   2.615   3.966   6.737  0.2163 -0.9809  1.1429
  172SAPS     P19492   2.591   3.961   6.447  0.1465  0.0016  0.2641
  172SAPS   O1319493   2.557   4.069   6.356  0.0696 -0.3686  0.5602
  172SAPS   O1419494   2.727   3.948   6.499 -0.1929  0.1997 -0.0452
  172SAPS   O1219495   2.487   3.968   6.565 -0.6143  0.2504  0.0353
  172SAPS   O1119496   2.551   3.830   6.376  0.6686  0.0699 -0.2993
  172SAPS    C119497   2.412   3.793   6.350 -0.1960  0.3570  0.3815
  172SAPS    HA19498   2.384   3.696   6.396  0.8818 -0.5361 -0.7900
  172SAPS    HB19499   2.340   3.868   6.390 -0.3478 -0.4299  1.6536
  172SAPS    C219500   2.392   3.776   6.193 -0.2821 -0.2968  0.0927
  172SAPS    HS19501   2.295   3.724   6.181 -0.3533 -0.7463  2.2086
  172SAPS   O2119502   2.500   3.701   6.137  1.0645  0.2660 -0.1355
  172SAPS   C2119503   2.480   3.571   6.149  0.1451 -1.4724  0.2300
  172SAPS   O2219504   2.395   3.512   6.214 -0.2414 -0.4348 -0.0333
  172SAPS   C2219505   2.584   3.510   6.055 -0.2237 -0.7473 -0.0031
  172SAPS   H2R19506   2.674   3.575   6.054 -1.2575  0.7665  1.1953
  172SAPS   H2S19507   2.612   3.414   6.106 -0.0728 -1.9413 -2.2226
  172SAPS    C319508   2.388   3.921   6.139 -0.1199 -0.3000  0.0242
  172SAPS    HX19509   2.477   3.984   6.161 -0.9648  1.2104 -0.7996
  172SAPS    HY19510   2.306   3.970   6.196  2.5843  3.8006  0.8300
  172SAPS   O3119511   2.346   3.931   6.005 -0.4212 -0.0798 -0.3538
  172SAPS   C3119512   2.338   4.051   5.954  0.5934  0.1055 -0.4032
  172SAPS   O3219513   2.379   4.150   6.011 -0.0013 -0.4667  0.7714
  172SAPS   C3219514   2.277   4.045   5.808  0.2032  0.4231  0.3377
  172SAPS   H2X19515   2.290   3.939   5.778  0.2097  0.6438 -0.4697
  172SAPS   H2Y19516   2.338   4.108   5.738  0.6961 -0.3282  0.0782
  172SAPS   C2319517   2.518   3.475   5.918 -0.2470  0.0181  0.0038
  172SAPS   H3R19518   2.424   3.421   5.945  0.4071 -0.5017  1.3491
  172SAPS   H3S19519   2.589   3.408   5.865  1.6933 -0.5681  3.1064
  172SAPS   C2419520   2.486   3.598   5.829  0.5217 -0.4645 -0.6833
  172SAPS   H4R19521   2.576   3.655   5.798  0.4550 -0.6615 -1.2480
  172SAPS   H4S19522   2.424   3.667   5.891  0.8719 -1.2483  0.5761
  172SAPS   C2519523   2.419   3.546   5.709  0.8250 -0.1856  0.7006
  172SAPS   H5R19524   2.478   3.485   5.638  0.5828 -1.4719  1.5708
  172SAPS   C2619525   2.290   3.563   5.673  0.0705  0.4905  0.0855
  172SAPS   H6R19526   2.254   3.507   5.586  1.6944  1.0766 -1.0211
  172SAPS   C2719527   2.198   3.647   5.758  0.4062  0.4231 -0.3255
  172SAPS   H7R19528   2.115   3.686   5.695 -0.2519 -0.1291  0.1858
  172SAPS   H7S19529   2.243   3.741   5.797  1.2006 -0.4380  0.8921
  172SAPS   C2819530   2.145   3.571   5.881  0.1591  0.4433  0.0022
  172SAPS   H8R19531   2.226   3.521   5.937  1.4215  1.1320 -1.1401
  172SAPS   C2919532   2.019   3.557   5.920 -0.2993 -0.1571  0.0941
  172SAPS   H9R19533   2.004   3.492   6.007  2.0987  0.0003  0.6956
  172SAPS  C21019534   1.891   3.624   5.868 -0.4117  0.2153  0.5437
  172SAPS  H10R19535   1.897   3.688   5.777 -1.5906 -3.7016 -2.5946
  172SAPS  H10S19536   1.866   3.689   5.954  1.4145 -0.0895  1.3509
  172SAPS  C21119537   1.779   3.525   5.863  0.5004 -0.4752  0.3741
  172SAPS  H11R19538   1.726   3.493   5.954  0.9128 -0.2157  0.7075
  172SAPS  C21219539   1.720   3.489   5.749 -0.4617  0.7228 -0.9401
  172SAPS  H12R19540   1.639   3.416   5.765 -1.1556  1.8412  0.9015
  172SAPS  C21319541   1.753   3.525   5.611 -0.3665  0.1313  0.4665
  172SAPS  H13R19542   1.804   3.623   5.602 -0.1591  0.0116  0.3434
  172SAPS  H13S19543   1.653   3.526   5.563  0.5460 -1.4951 -1.5819
  172SAPS  C21419544   1.839   3.417   5.550 -0.0494  0.4036  0.0807
  172SAPS  H14R19545   1.892   3.343   5.612  2.1910  0.7947 -1.2531
  172SAPS  C21519546   1.836   3.393   5.415  0.1397  0.1666 -0.6319
  172SAPS  H15R19547   1.894   3.305   5.385 -0.3407 -0.1293 -0.7005
  172SAPS  C21619548   1.763   3.477   5.312 -0.0135  0.9818  0.0602
  172SAPS  H16R19549   1.738   3.571   5.366 -0.4720 -0.3267  2.2353
  172SAPS  H16S19550   1.671   3.426   5.275 -0.7399  3.2011 -1.3745
  172SAPS  C21719551   1.856   3.531   5.197  0.5652  0.6207  0.0001
  172SAPS  H17R19552   1.922   3.445   5.173  1.2113  0.9313  0.6396
  172SAPS  H17S19553   1.925   3.608   5.238 -0.4458  1.3485  0.3814
  172SAPS  C21819554   1.776   3.577   5.085  0.4045  0.4502  0.9505
  172SAPS  H18R19555   1.693   3.647   5.111 -0.0321  0.1953  0.2752
  172SAPS  H18S19556   1.717   3.499   5.032  0.8885  1.1647 -0.7226
  172SAPS  C21919557   1.881   3.637   4.982 -0.0487  0.1074 -0.4944
  172SAPS  H19R19558   1.944   3.549   4.955 -1.4906 -0.9125 -0.6654
  172SAPS  H19S19559   1.949   3.710   5.032  3.4332 -1.2286 -2.8511
  172SAPS  C22019560   1.839   3.710   4.861  0.4392  0.3629  0.4216
  172SAPS  H20R19561   1.923   3.725   4.790 -0.7813 -0.8242 -1.3719
  172SAPS  H20S19562   1.814   3.814   4.891  1.2958 -0.0084  2.6935
  172SAPS  H20T19563   1.756   3.664   4.803  0.1973 -0.0538  1.0769
  172SAPS   C3319564   2.121   4.061   5.794  0.1150  0.6599 -0.2758
  172SAPS   H3X19565   2.084   4.158   5.833  1.2578  1.3446 -0.8454
  172SAPS   H3Y19566   2.069   3.981   5.852  1.1890  0.2409  0.1294
  172SAPS   C3419567   2.064   4.041   5.653  0.2099  0.3535  0.2865
  172SAPS   H4X19568   1.953   4.042   5.657  0.1639 -2.3366  2.3213
  172SAPS   H4Y19569   2.090   3.939   5.619  1.5276  0.7510  0.0496
  172SAPS   C3519570   2.120   4.143   5.558 -1.0001  0.8538  0.3800
  172SAPS   H5X19571   2.214   4.098   5.522 -1.8242 -2.1733  1.7411
  172SAPS   H5Y19572   2.145   4.242   5.603  1.6900 -0.7958  2.8048
  172SAPS   C3619573   2.036   4.163   5.426  0.4716  0.1999 -0.1669
  172SAPS   H6X19574   1.930   4.184   5.452 -0.6181 -0.4649 -3.5409
  172SAPS   H6Y19575   2.026   4.068   5.368 -1.8084  0.0499  0.3851
  172SAPS   C3719576   2.082   4.277   5.334 -0.1527 -0.4495 -0.3632
  172SAPS   H7X19577   2.095   4.364   5.401 -2.0268 -0.4561  0.0541
  172SAPS   H7Y19578   2.003   4.314   5.265  1.2305 -0.2463 -1.9036
  172SAPS   C3819579   2.217   4.247   5.263  0.0353 -0.9740  0.3198
  172SAPS   H8X19580   2.291   4.223   5.342  0.0158 -6.2128 -0.8703
  172SAPS   H8Y19581   2.259   4.338   5.217 -0.8299 -0.9646 -0.4906
  172SAPS   C3919582   2.202   4.133   5.165 -0.7243  0.3608  0.7174
  172SAPS   H9X19583   2.150   4.050   5.219 -0.9700 -0.2490 -0.4271
  172SAPS   H9Y19584   2.305   4.098   5.143 -0.3059  2.6268 -1.3466
  172SAPS  C31019585   2.133   4.163   5.034  0.5401 -0.4405 -0.1300
  172SAPS  H10X19586   2.180   4.252   4.987 -1.1723  0.9426  0.6473
  172SAPS  H10Y19587   2.041   4.215   5.068  0.2602 -0.2931 -1.0960
  172SAPS  C31119588   2.112   4.037   4.952 -0.1000  0.4107 -0.6654
  172SAPS  H11X19589   2.054   3.966   5.015  3.3505 -2.4262 -0.3590
  172SAPS  H11Y19590   2.213   3.990   4.940  0.4063  0.9327  1.2316
  172SAPS  C31219591   2.034   4.052   4.824 -0.0002 -0.7958  0.0796
  172SAPS  H12X19592   2.022   3.953   4.776  2.6884 -1.4093  0.5372
  172SAPS  H12Y19593   2.086   4.110   4.746 -3.0317  3.4190  0.8333
  172SAPS  C31319594   1.898   4.123   4.855  0.0212 -0.0920  0.0823
  172SAPS  H13X19595   1.926   4.224   4.891 -0.9128 -0.7510  2.8790
  172SAPS  H13Y19596   1.839   4.075   4.936 -0.9294  2.0098  0.7283
  172SAPS  C31419597   1.805   4.130   4.738 -0.3375  0.3218  0.0743
  172SAPS  H14X19598   1.778   4.025   4.716 -0.0714 -0.1196  1.7363
  172SAPS  H14Y19599   1.853   4.166   4.644  1.9228 -0.6084  0.7894
  172SAPS  C31519600   1.669   4.189   4.771 -0.2557 -0.0793  0.6130
  172SAPS  H15X19601   1.688   4.280   4.832 -0.9793 -0.5212  1.5445
  172SAPS  H15Y19602   1.612   4.134   4.849 -0.9548  1.1170  0.9688
  172SAPS  C31619603   1.589   4.233   4.644 -0.4500 -0.1015  0.3385
  172SAPS  H16X19604   1.656   4.313   4.604  0.5402 -0.8536  0.4343
  172SAPS  H16Y19605   1.574   4.158   4.563  0.2826  0.6478 -0.5279
  172SAPS  C31719606   1.449   4.290   4.671  0.4613  0.0161 -0.1433
  172SAPS  H17X19607   1.457   4.370   4.748  0.9656 -1.1443  1.0434
  172SAPS  H17Y19608   1.393   4.207   4.720 -1.8527  1.4084 -0.2746
  172SAPS  C31819609   1.376   4.339   4.548  0.2209 -0.3184  0.0199
  172SAPS  H18X19610   1.385   4.256   4.475  1.1082 -0.4133  0.2220
  172SAPS  H18Y19611   1.438   4.422   4.510  0.9212 -1.6095 -1.7770
  172SAPS  H18Z19612   1.273   4.373   4.570  0.3574  0.9056 -1.1130
  173SAPS     N19613   6.110   2.640   2.407 -0.1118 -0.1591 -0.6762
  173SAPS   HN119614   6.145   2.638   2.505  0.3978 -0.7054 -0.8681
  173SAPS   HN219615   6.088   2.741   2.395 -1.5540 -0.6384 -2.5130
  173SAPS   HN319616   6.025   2.585   2.430  0.6223 -0.1952  2.4465
  173SAPS   C1219617   6.190   2.576   2.307 -1.0617  0.6005 -0.2875
  173SAPS  H12A19618   6.134   2.494   2.266  0.9265  0.0984 -2.2040
  173SAPS   C1319619   6.213   2.660   2.177 -0.8630 -0.3517  0.4378
  173SAPS  O13A19620   6.148   2.765   2.156  0.5661  0.3841  0.0635
  173SAPS  O13B19621   6.269   2.600   2.080 -0.0848  0.5391 -0.7105
  173SAPS   C1119622   6.314   2.515   2.373 -0.0857 -0.1079 -0.6529
  173SAPS  H11A19623   6.396   2.589   2.379 -0.5244  0.3842 -0.5855
  173SAPS  H11B19624   6.348   2.444   2.295 -0.3922  0.8708 -1.6965
  173SAPS     P19625   6.396   2.332   2.537 -0.0164  0.0039  0.2237
  173SAPS   O1319626   6.350   2.205   2.475 -0.3935 -0.0426 -0.5591
  173SAPS   O1419627   6.529   2.381   2.498  0.8026  0.7464 -0.1583
  173SAPS   O1219628   6.287   2.433   2.493  0.4377  0.2424  0.0856
  173SAPS   O1119629   6.384   2.330   2.690  0.4924 -0.1088  0.6148
  173SAPS    C119630   6.331   2.420   2.782  0.5806  0.1546  0.3944
  173SAPS    HA19631   6.284   2.513   2.742 -0.0667 -0.5827 -0.6105
  173SAPS    HB19632   6.254   2.360   2.835 -0.7281  0.3241 -1.2193
  173SAPS    C219633   6.434   2.475   2.885 -0.3831 -0.3064 -0.5012
  173SAPS    HS19634   6.509   2.535   2.830  2.4078 -1.9861  1.2286
  173SAPS   O2119635   6.495   2.360   2.949  0.0534  0.3878 -0.1103
  173SAPS   C2119636   6.613   2.382   2.999 -0.0991 -0.0091 -0.0504
  173SAPS   O2219637   6.681   2.485   2.998  0.4252  0.3069 -0.0214
  173SAPS   C2219638   6.652   2.249   3.064  0.0685 -0.0849 -0.2052
  173SAPS   H2R19639   6.580   2.217   3.142 -0.3765 -0.3363 -0.7088
  173SAPS   H2S19640   6.669   2.176   2.982  1.4459  3.1944 -3.0617
  173SAPS    C319641   6.368   2.570   2.996  0.5329 -0.2079 -0.1909
  173SAPS    HX19642   6.340   2.667   2.949  0.6726  0.0293  0.2111
  173SAPS    HY19643   6.446   2.585   3.074 -1.1374 -1.4322  1.8383
  173SAPS   O3119644   6.253   2.500   3.055  1.2390 -0.5285  0.3321
  173SAPS   C3119645   6.142   2.568   3.040 -0.9629  0.7964 -0.2913
  173SAPS   O3219646   6.126   2.683   2.996 -0.3341 -0.2455 -0.1100
  173SAPS   C3219647   6.026   2.476   3.075 -0.7055  0.2339 -0.7542
  173SAPS   H2X19648   6.040   2.366   3.067 -1.6451 -0.1403  1.7525
  173SAPS   H2Y19649   5.944   2.499   3.005 -2.5896 -2.6753  0.2830
  173SAPS   C2319650   6.787   2.259   3.141 -0.1235  0.1023  0.5807
  173SAPS   H3R19651   6.769   2.323   3.231 -2.4069  1.2287 -0.6000
  173SAPS   H3S19652   6.860   2.306   3.072  2.4317 -2.2704  1.4857
  173SAPS   C2419653   6.854   2.128   3.175  0.4696 -0.2153  0.2952
  173SAPS   H4R19654   6.880   2.068   3.085  1.6998  1.9214 -0.8594
  173SAPS   H4S19655   6.784   2.071   3.240  0.1774  1.4538  1.5069
  173SAPS   C2519656   6.987   2.139   3.247  0.1159 -0.3563 -0.1346
  173SAPS   H5R19657   7.076   2.137   3.183  1.2156  2.8641  1.0655
  173SAPS   C2619658   7.007   2.143   3.380  0.0152 -0.0224 -0.5850
  173SAPS   H6R19659   7.111   2.151   3.416  0.5767 -4.5694 -0.6256
  173SAPS   C2719660   6.901   2.137   3.489 -0.2529 -0.4620  0.1630
  173SAPS   H7R19661   6.809   2.184   3.449  0.7589 -0.1540 -1.9568
  173SAPS   H7S19662   6.929   2.197   3.579 -3.0059  0.0127  0.7797
  173SAPS   C2819663   6.869   1.992   3.523 -0.1553 -0.3512 -0.1712
  173SAPS   H8R19664   6.843   1.941   3.429 -0.9455  2.2977 -1.4973
  173SAPS   C2919665   6.884   1.924   3.640  0.7909  0.9815  0.2409
  173SAPS   H9R19666   6.870   1.816   3.635  1.6715  0.9167 -3.2934
  173SAPS  C21019667   6.922   1.976   3.778 -0.1285 -0.3197 -0.0018
  173SAPS  H10R19668   6.835   1.980   3.847  0.4421  1.0369  0.6698
  173SAPS  H10S19669   6.954   2.082   3.769 -2.9466  0.8774  2.4661
  173SAPS  C21119670   7.033   1.886   3.833  0.6871  0.3673  0.4904
  173SAPS  H11R19671   7.135   1.912   3.800  0.1770  3.6668  1.2096
  173SAPS  C21219672   7.021   1.779   3.913 -0.8330 -0.0647  0.0686
  173SAPS  H12R19673   7.109   1.723   3.945 -1.6807 -0.5022  1.7408
  173SAPS  C21319674   6.895   1.728   3.980  0.2006 -0.2223 -0.1449
  173SAPS  H13R19675   6.823   1.813   3.984 -2.1347 -2.0693 -0.2101
  173SAPS  H13S19676   6.908   1.711   4.089 -1.0867  0.8906  0.2100
  173SAPS  C21419677   6.851   1.601   3.904 -0.3398 -0.0842 -0.7627
  173SAPS  H14R19678   6.930   1.549   3.846  1.6485  2.5356 -0.5649
  173SAPS  C21519679   6.732   1.541   3.927  0.0845  0.2047 -0.0472
  173SAPS  H15R19680   6.698   1.459   3.862  0.8020  0.7001 -1.0893
  173SAPS  C21619681   6.622   1.600   4.007  0.2557 -0.2753  0.0545
  173SAPS  H16R19682   6.526   1.580   3.955  1.3301  0.2757 -2.2700
  173SAPS  H16S19683   6.627   1.711   4.000 -2.3948 -0.1130 -0.0679
  173SAPS  C21719684   6.644   1.570   4.151  0.1583  0.3444  0.2823
  173SAPS  H17R19685   6.746   1.602   4.179  0.4914  0.3530 -0.8714
  173SAPS  H17S19686   6.637   1.462   4.174  1.5701  0.3715  0.9579
  173SAPS  C21819687   6.543   1.640   4.243 -0.0167 -0.6747 -0.0114
  173SAPS  H18R19688   6.445   1.590   4.237 -0.2275 -0.3370  0.5100
  173SAPS  H18S19689   6.529   1.744   4.207 -2.5428 -0.6897  0.7515
  173SAPS  C21919690   6.605   1.638   4.381  0.1160 -0.5323  0.1231
  173SAPS  H19R19691   6.716   1.639   4.377  0.1075  1.5503 -1.1129
  173SAPS  H19S19692   6.566   1.546   4.429 -0.4629 -1.2145 -1.5934
  173SAPS  C22019693   6.566   1.757   4.462 -0.1769  0.8547  0.5300
  173SAPS  H20R19694   6.459   1.785   4.451 -0.0554  0.5053 -1.9768
  173SAPS  H20S19695   6.619   1.848   4.428 -0.4826  0.4914 -0.9985
  173SAPS  H20T19696   6.599   1.742   4.567  2.5852  0.2575 -0.3550
  173SAPS   C3319697   5.982   2.527   3.213  0.7376 -0.5731  1.0754
  173SAPS   H3X19698   5.885   2.480   3.242 -1.5360  2.0078 -1.5746
  173SAPS   H3Y19699   5.956   2.635   3.213  0.3181 -0.6683  1.1648
  173SAPS   C3419700   6.084   2.506   3.321  0.0176 -0.2691  0.5308
  173SAPS   H4X19701   6.171   2.575   3.313  0.8202 -1.1593  1.3052
  173SAPS   H4Y19702   6.134   2.408   3.311  0.5966  0.2410 -2.2726
  173SAPS   C3519703   6.037   2.513   3.472 -0.5166 -0.4548 -0.0678
  173SAPS   H5X19704   5.997   2.616   3.483 -1.9093 -0.9373 -0.3419
  173SAPS   H5Y19705   6.129   2.509   3.533  1.4538 -0.9759 -2.9065
  173SAPS   C3619706   5.945   2.403   3.521 -1.0146  0.1366 -0.9640
  173SAPS   H6X19707   5.960   2.309   3.464 -1.4980 -0.0831 -0.7371
  173SAPS   H6Y19708   5.842   2.427   3.489 -1.1223 -1.1028 -1.5669
  173SAPS   C3719709   5.942   2.407   3.672  0.2765  0.0506 -0.3762
  173SAPS   H7X19710   5.924   2.509   3.713 -2.2678 -0.6799  0.4977
  173SAPS   H7Y19711   6.043   2.389   3.715 -1.5896 -2.6420  3.4876
  173SAPS   C3819712   5.843   2.320   3.747  0.0288 -0.0261  0.2533
  173SAPS   H8X19713   5.855   2.214   3.716  0.4435  0.2735 -0.6685
  173SAPS   H8Y19714   5.752   2.359   3.697  0.9963  1.7492 -0.2006
  173SAPS   C3919715   5.850   2.340   3.898 -0.4502  0.1205 -0.2543
  173SAPS   H9X19716   5.766   2.412   3.913 -2.3288 -2.1084  0.5722
  173SAPS   H9Y19717   5.948   2.386   3.923 -0.5785 -0.0131  0.5475
  173SAPS  C31019718   5.817   2.215   3.978  0.0118  0.4948  0.4422
  173SAPS  H10X19719   5.890   2.132   3.971  0.0303  0.5396  0.1187
  173SAPS  H10Y19720   5.716   2.177   3.950  0.5823  1.0346 -2.5907
  173SAPS  C31119721   5.820   2.249   4.136  0.6934 -0.9041 -0.0330
  173SAPS  H11X19722   5.752   2.334   4.159  1.6658  0.1636 -0.9990
  173SAPS  H11Y19723   5.925   2.278   4.155  0.7439  0.5208 -2.1260
  173SAPS  C31219724   5.773   2.134   4.228 -0.8256  0.2940 -0.5671
  173SAPS  H12X19725   5.769   2.169   4.333  4.0548  1.0720 -0.3840
  173SAPS  H12Y19726   5.852   2.056   4.233 -1.2241 -0.1848 -1.4724
  173SAPS  C31319727   5.644   2.065   4.179 -0.2871 -0.4512 -0.2971
  173SAPS  H13X19728   5.633   1.966   4.228 -2.4864  0.3061  0.8465
  173SAPS  H13Y19729   5.639   2.052   4.069  1.6016  1.5470 -0.7084
  173SAPS  C31419730   5.523   2.162   4.206 -0.9641  0.2126 -0.7162
  173SAPS  H14X19731   5.536   2.257   4.150  0.3625 -1.0182 -2.6539
  173SAPS  H14Y19732   5.520   2.178   4.315 -0.7189  0.9509 -0.8122
  173SAPS  C31519733   5.393   2.099   4.162  0.6397 -0.2515 -0.5525
  173SAPS  H15X19734   5.421   2.035   4.075 -0.6912 -0.5504 -0.7765
  173SAPS  H15Y19735   5.329   2.182   4.124  0.8859  0.4542  0.5443
  173SAPS  C31619736   5.329   2.026   4.281  0.0003  0.4488 -0.2462
  173SAPS  H16X19737   5.317   2.102   4.361  1.5543  1.4550 -0.9302
  173SAPS  H16Y19738   5.393   1.944   4.320 -0.0983  0.1046 -0.7913
  173SAPS  C31719739   5.194   1.963   4.254  0.0798  0.3941 -0.6267
  173SAPS  H17X19740   5.163   1.889   4.331 -0.2416 -0.0386 -1.1722
  173SAPS  H17Y19741   5.196   1.915   4.154  2.0208 -0.7493 -0.0974
  173SAPS  C31819742   5.085   2.067   4.249 -0.2143 -0.0622 -0.0199
  173SAPS  H18X19743   5.089   2.130   4.341 -0.2142 -1.4184  0.9420
  173SAPS  H18Y19744   4.985   2.019   4.253 -1.2501  1.5635 -3.1101
  173SAPS  H18Z19745   5.096   2.134   4.162  0.3777  0.5590  0.5240
  174SAPS     N19746   1.689   1.119   2.069  0.3175  0.3162 -0.3348
  174SAPS   HN119747   1.659   1.046   2.001  1.0305 -0.2227 -0.0732
  174SAPS   HN219748   1.623   1.120   2.149 -2.8879 -0.5009 -2.7445
  174SAPS   HN319749   1.668   1.205   2.015  3.2917  0.6346 -1.1659
  174SAPS   C1219750   1.833   1.121   2.099 -0.4327 -0.1388  0.0925
  174SAPS  H12A19751   1.863   1.026   2.141 -0.5235 -1.1344 -1.9534
  174SAPS   C1319752   1.928   1.140   1.977  0.1939  0.1823  0.0661
  174SAPS  O13A19753   1.871   1.179   1.871 -0.5415 -0.7452  0.4555
  174SAPS  O13B19754   2.055   1.144   1.992  0.2192 -0.7955  0.5318
  174SAPS   C1119755   1.855   1.224   2.212 -0.1906 -0.8908 -0.0837
  174SAPS  H11A19756   1.958   1.223   2.253  0.3858  3.3473 -0.9476
  174SAPS  H11B19757   1.795   1.201   2.302 -1.1447 -0.2648 -0.5413
  174SAPS     P19758   1.871   1.482   2.263 -0.0062  0.0159 -0.4524
  174SAPS   O1319759   2.019   1.492   2.249 -0.5302 -0.5542 -1.1442
  174SAPS   O1419760   1.789   1.600   2.232  0.1247 -0.6679 -0.1208
  174SAPS   O1219761   1.823   1.358   2.177 -0.1186  0.2584 -0.2986
  174SAPS   O1119762   1.848   1.434   2.415  0.0158 -0.4641  0.6117
  174SAPS    C119763   1.713   1.466   2.454  0.5920 -0.2794  0.0096
  174SAPS    HA19764   1.679   1.569   2.430  2.4178  0.3134 -0.1524
  174SAPS    HB19765   1.641   1.386   2.423  0.9462 -0.6946  0.2491
  174SAPS    C219766   1.701   1.434   2.602  0.5237  0.3278 -0.8500
  174SAPS    HS19767   1.612   1.489   2.639  0.8393  0.2914 -0.0200
  174SAPS   O2119768   1.807   1.483   2.687 -0.5287 -0.5826  0.3450
  174SAPS   C2119769   1.826   1.613   2.695  0.2628 -0.2823  0.1189
  174SAPS   O2219770   1.773   1.701   2.631  0.1553 -0.2316 -0.2230
  174SAPS   C2219771   1.929   1.648   2.808 -0.6491 -1.0532 -0.0382
  174SAPS   H2R19772   1.991   1.558   2.826  0.9811  0.1920  0.8958
  174SAPS   H2S19773   1.995   1.724   2.759 -1.0142  1.9292  3.6638
  174SAPS    C319774   1.687   1.286   2.641 -0.4628  0.4087 -0.2211
  174SAPS    HX19775   1.785   1.240   2.617  1.3145  3.6804  0.1921
  174SAPS    HY19776   1.619   1.229   2.574  1.4970 -3.4789  0.8005
  174SAPS   O3119777   1.651   1.262   2.785 -0.2379 -0.1297 -0.3046
  174SAPS   C3119778   1.751   1.230   2.869 -0.1907 -0.3148  0.2816
  174SAPS   O3219779   1.866   1.220   2.836  0.1286  0.1073 -0.2813
  174SAPS   C3219780   1.689   1.251   3.009  0.2207  0.3040 -0.5743
  174SAPS   H2X19781   1.609   1.176   3.025 -0.5309  1.1224 -0.3510
  174SAPS   H2Y19782   1.637   1.350   3.013 -0.4623 -0.0900  0.6584
  174SAPS   C2319783   1.860   1.721   2.930  0.4198  0.5515  0.2080
  174SAPS   H3R19784   1.785   1.796   2.896 -1.1720 -2.1185 -2.6634
  174SAPS   H3S19785   1.951   1.760   2.980  0.2077  0.7816  0.4155
  174SAPS   C2419786   1.809   1.621   3.028  0.5288  0.4392  0.0669
  174SAPS   H4R19787   1.871   1.603   3.118  0.9754 -0.3148 -0.3861
  174SAPS   H4S19788   1.807   1.524   2.975  0.0510  1.4570 -1.8993
  174SAPS   C2519789   1.674   1.665   3.079  0.6435  0.4064 -0.0883
  174SAPS   H5R19790   1.585   1.634   3.022  0.9518  2.4394 -1.7848
  174SAPS   C2619791   1.646   1.712   3.203  0.4224 -0.7347  0.7228
  174SAPS   H6R19792   1.543   1.744   3.221  0.3919 -1.3505  1.6761
  174SAPS   C2719793   1.741   1.745   3.310 -0.2656  0.1052  0.0858
  174SAPS   H7R19794   1.684   1.789   3.395  0.3872  2.4996 -0.6455
  174SAPS   H7S19795   1.816   1.820   3.279 -0.3972 -0.3623 -1.4892
  174SAPS   C2819796   1.813   1.628   3.379  0.5062 -0.2389  0.3105
  174SAPS   H8R19797   1.774   1.528   3.358  1.5225 -0.6802  0.4896
  174SAPS   C2919798   1.894   1.637   3.480 -0.3049 -0.5729 -0.3761
  174SAPS   H9R19799   1.942   1.542   3.508  0.6079 -0.3798 -1.2394
  174SAPS  C21019800   1.942   1.769   3.531 -0.2807  0.5274 -0.3109
  174SAPS  H10R19801   1.912   1.780   3.638 -0.3435  1.8084 -0.4422
  174SAPS  H10S19802   1.880   1.849   3.485 -1.3030 -0.3757 -0.5619
  174SAPS  C21119803   2.088   1.770   3.492 -0.7178 -0.1594  0.0726
  174SAPS  H11R19804   2.107   1.764   3.384 -0.5917 -1.2063  0.1366
  174SAPS  C21219805   2.188   1.801   3.580  0.4187  0.1025 -0.8337
  174SAPS  H12R19806   2.292   1.798   3.546  0.9359 -1.8047  0.7563
  174SAPS  C21319807   2.170   1.827   3.731 -0.2991  0.2281  0.1766
  174SAPS  H13R19808   2.148   1.728   3.777  1.3360  0.6678  2.0462
  174SAPS  H13S19809   2.078   1.888   3.746 -1.7795 -1.2050 -2.3388
  174SAPS  C21419810   2.298   1.885   3.796 -0.2152 -0.2397 -0.0701
  174SAPS  H14R19811   2.371   1.930   3.728  0.5423 -0.6233  0.4832
  174SAPS  C21519812   2.329   1.879   3.928  0.2092  0.3422  0.1366
  174SAPS  H15R19813   2.421   1.930   3.960 -0.3934  1.2781  0.4158
  174SAPS  C21619814   2.238   1.843   4.042 -0.4144 -0.1328  1.0651
  174SAPS  H16R19815   2.248   1.736   4.070 -2.8090 -2.3987 -5.0103
  174SAPS  H16S19816   2.134   1.850   4.003 -0.4206 -2.6324  0.4737
  174SAPS  C21719817   2.251   1.925   4.173 -0.7017 -0.3218 -0.1742
  174SAPS  H17R19818   2.190   1.873   4.250 -0.7705  0.7443  0.5123
  174SAPS  H17S19819   2.209   2.022   4.140  1.4219  1.1345  1.1223
  174SAPS  C21819820   2.387   1.944   4.232 -0.5268 -0.2660 -0.1635
  174SAPS  H18R19821   2.450   2.007   4.166  1.9851 -1.4298  0.9920
  174SAPS  H18S19822   2.443   1.848   4.242  2.6050  1.4528 -0.0982
  174SAPS  C21919823   2.375   2.026   4.360  0.1076  0.6581 -0.4767
  174SAPS  H19R19824   2.288   1.998   4.423  0.5027 -1.2094 -0.6976
  174SAPS  H19S19825   2.343   2.127   4.327  1.9379  1.2776 -0.4436
  174SAPS  C22019826   2.503   2.045   4.434 -0.0499 -0.1617  0.3257
  174SAPS  H20R19827   2.576   2.096   4.367  1.1018 -0.2168  1.4880
  174SAPS  H20S19828   2.546   1.944   4.456  0.4678 -0.9333 -3.5954
  174SAPS  H20T19829   2.489   2.094   4.533 -3.6453 -0.8069  0.2719
  174SAPS   C3319830   1.799   1.255   3.115 -0.2137  0.1443 -0.6520
  174SAPS   H3X19831   1.859   1.348   3.110  0.2783 -0.0982  0.4825
  174SAPS   H3Y19832   1.865   1.166   3.116  0.2440  0.4884  0.4463
  174SAPS   C3419833   1.722   1.251   3.255 -0.0325 -0.4447 -0.0442
  174SAPS   H4X19834   1.643   1.172   3.252 -1.6156  1.0057  1.0899
  174SAPS   H4Y19835   1.665   1.346   3.259  1.0314  0.2418 -0.8629
  174SAPS   C3519836   1.810   1.263   3.384 -0.4664  0.6203 -0.2784
  174SAPS   H5X19837   1.868   1.352   3.352  0.2385 -0.0334 -0.8620
  174SAPS   H5Y19838   1.864   1.167   3.392 -3.0184 -1.0626 -1.8798
  174SAPS   C3619839   1.744   1.265   3.527  0.0149  0.4421 -0.4138
  174SAPS   H6X19840   1.695   1.166   3.535  1.3040 -0.1968 -0.0201
  174SAPS   H6Y19841   1.666   1.343   3.521 -0.1602  0.7261  3.3738
  174SAPS   C3719842   1.849   1.277   3.633  0.3179  0.1999  0.2340
  174SAPS   H7X19843   1.882   1.377   3.669  1.0304 -0.5791  1.8582
  174SAPS   H7Y19844   1.938   1.223   3.595 -0.0704 -0.2517 -0.0397
  174SAPS   C3819845   1.817   1.209   3.766  0.6911 -0.7160  0.0516
  174SAPS   H8X19846   1.899   1.219   3.841 -0.5876  1.3994  1.2757
  174SAPS   H8Y19847   1.810   1.100   3.745  1.6905 -0.6268 -0.8420
  174SAPS   C3919848   1.684   1.263   3.825 -0.0655  0.3677  0.2150
  174SAPS   H9X19849   1.602   1.213   3.769  0.1254  1.1296 -0.7880
  174SAPS   H9Y19850   1.666   1.370   3.802 -0.7604  0.6820  2.0463
  174SAPS  C31019851   1.668   1.246   3.966  0.0881 -0.2328 -1.0389
  174SAPS  H10X19852   1.589   1.313   4.006  1.1767 -0.5610  1.9423
  174SAPS  H10Y19853   1.753   1.274   4.032  0.6764 -1.2470 -1.3440
  174SAPS  C31119854   1.653   1.104   4.010 -0.0623  0.2317 -0.2692
  174SAPS  H11X19855   1.704   1.028   3.947  0.2586 -0.6634  1.0186
  174SAPS  H11Y19856   1.546   1.075   4.008 -0.1939  0.6480  0.4597
  174SAPS  C31219857   1.682   1.089   4.162  0.6917 -0.4201 -0.1628
  174SAPS  H12X19858   1.788   1.114   4.184  0.5026 -0.2349  0.5615
  174SAPS  H12Y19859   1.658   0.982   4.178  2.1813 -0.8750 -0.8225
  174SAPS  C31319860   1.593   1.178   4.245  0.3885 -0.5277 -0.1277
  174SAPS  H13X19861   1.487   1.152   4.230  0.5417 -1.5189  0.4413
  174SAPS  H13Y19862   1.607   1.286   4.222  1.6247 -0.8453 -0.9843
  174SAPS  C31419863   1.618   1.157   4.400  0.2150  0.5087  0.5109
  174SAPS  H14X19864   1.598   1.050   4.421  1.7292  0.2650  0.8125
  174SAPS  H14Y19865   1.544   1.206   4.467 -1.2839 -0.8815 -0.0546
  174SAPS  C31519866   1.761   1.191   4.437 -0.2025 -0.1740 -0.6940
  174SAPS  H15X19867   1.769   1.301   4.421 -0.5685  0.1338  1.0211
  174SAPS  H15Y19868   1.847   1.145   4.384  1.8517 -0.2737  2.4483
  174SAPS  C31619869   1.793   1.145   4.579  0.3370 -0.0383  0.5659
  174SAPS  H16X19870   1.800   1.034   4.581 -1.5165 -0.1834  0.3285
  174SAPS  H16Y19871   1.708   1.172   4.645 -1.3248  0.1638 -1.5478
  174SAPS  C31719872   1.931   1.193   4.627  0.6012 -0.0029  0.0707
  174SAPS  H17X19873   2.001   1.148   4.554 -0.4890 -2.6510  0.5354
  174SAPS  H17Y19874   1.949   1.150   4.728 -0.6777 -2.7767 -0.7929
  174SAPS  C31819875   1.956   1.349   4.632  0.1146 -0.4500 -0.3560
  174SAPS  H18X19876   2.064   1.372   4.629  0.1424 -0.6740 -1.3390
  174SAPS  H18Y19877   1.921   1.392   4.729  1.4761  0.0736 -0.0770
  174SAPS  H18Z19878   1.906   1.392   4.543  0.1711 -1.5268 -0.9207
  175SAPS     N19879   5.707   1.520   2.029 -0.0511 -0.1911 -0.1034
  175SAPS   HN119880   5.629   1.498   2.094  0.1949 -0.1309  0.2216
  175SAPS   HN219881   5.667   1.593   1.968 -2.0435 -1.9791 -1.0362
  175SAPS   HN319882   5.737   1.446   1.963  1.2157 -0.2032  0.4364
  175SAPS   C1219883   5.833   1.569   2.098  0.3464  0.3348  0.3336
  175SAPS  H12A19884   5.908   1.552   2.022 -0.2785 -1.2827  0.0359
  175SAPS   C1319885   5.819   1.717   2.122 -0.3430 -0.5718 -0.2543
  175SAPS  O13A19886   5.702   1.769   2.124  0.6865  0.0897  0.1871
  175SAPS  O13B19887   5.916   1.781   2.166 -0.9571  0.6657 -0.2398
  175SAPS   C1119888   5.864   1.494   2.230  0.3758  0.5643  0.5775
  175SAPS  H11A19889   5.786   1.523   2.304  0.5610  3.0225 -0.0978
  175SAPS  H11B19890   5.957   1.545   2.265  0.2434  2.0000 -1.0459
  175SAPS     P19891   6.000   1.276   2.161 -0.0593  0.1461 -0.2535
  175SAPS   O1319892   5.969   1.159   2.079  0.1614 -0.8349 -0.0535
  175SAPS   O1419893   6.108   1.366   2.114 -0.1047 -0.1622 -0.3689
  175SAPS   O1219894   5.874   1.352   2.206 -0.0178  0.2604  0.2405
  175SAPS   O1119895   6.046   1.221   2.305 -0.0440  0.4001  0.1551
  175SAPS    C119896   5.993   1.091   2.350 -0.5143  0.3242 -0.2981
  175SAPS    HA19897   5.883   1.084   2.365 -0.1442 -2.6481  2.2193
  175SAPS    HB19898   6.015   1.014   2.272 -1.0047  0.8568 -0.9695
  175SAPS    C219899   6.062   1.044   2.482 -0.5967 -0.1039  0.0273
  175SAPS    HS19900   6.034   0.939   2.506  1.4479 -0.6652  0.1290
  175SAPS   O2119901   6.026   1.136   2.581  0.0567  0.3435 -0.1591
  175SAPS   C2119902   5.911   1.096   2.662  0.5302 -0.2034  0.0680
  175SAPS   O2219903   5.835   1.010   2.629 -0.7373  0.1527  0.0492
  175SAPS   C2219904   5.890   1.192   2.774  0.3104 -0.3632 -0.1838
  175SAPS   H2R19905   5.884   1.299   2.744  3.0842  0.6827  2.4649
  175SAPS   H2S19906   5.789   1.180   2.820 -0.7281  1.7402 -1.7229
  175SAPS    C319907   6.216   1.045   2.471  0.4516 -0.0757  0.5562
  175SAPS    HX19908   6.239   1.148   2.437  0.9038 -0.5186 -0.5325
  175SAPS    HY19909   6.250   0.978   2.389  0.7994  0.6448  0.1038
  175SAPS   O3119910   6.269   1.016   2.596 -0.4492  0.4100  0.1848
  175SAPS   C3119911   6.406   1.024   2.607  0.2403 -0.1378 -0.7526
  175SAPS   O3219912   6.477   1.052   2.512 -0.0666  0.1649 -0.4349
  175SAPS   C3219913   6.454   0.979   2.746  0.0732 -0.4962  0.2791
  175SAPS   H2X19914   6.396   0.887   2.771 -0.6017 -0.1749 -0.0734
  175SAPS   H2Y19915   6.431   1.052   2.826  0.3784 -0.5373  0.4049
  175SAPS   C2319916   5.999   1.184   2.889 -0.1444 -0.7776 -0.1606
  175SAPS   H3R19917   6.097   1.206   2.843 -0.0729 -0.0560  0.3209
  175SAPS   H3S19918   5.996   1.083   2.936  1.3577 -0.0596  1.5924
  175SAPS   C2419919   5.987   1.299   2.990  0.3216 -0.7591  0.3019
  175SAPS   H4R19920   6.015   1.387   2.928 -0.0835 -2.8157 -3.0404
  175SAPS   H4S19921   6.070   1.278   3.060 -0.6855  1.3257  2.2288
  175SAPS   C2519922   5.855   1.315   3.058  0.2713 -0.2317 -0.1041
  175SAPS   H5R19923   5.783   1.368   2.992  1.2636  0.1525 -0.9037
  175SAPS   C2619924   5.824   1.302   3.190  0.4665 -0.0676  0.1239
  175SAPS   H6R19925   5.719   1.317   3.219  0.4127  1.9961 -0.9108
  175SAPS   C2719926   5.915   1.236   3.295 -0.4462  0.2354 -0.7878
  175SAPS   H7R19927   5.972   1.314   3.350  0.3902  0.1835 -1.5592
  175SAPS   H7S19928   5.989   1.168   3.248  0.5360 -0.8296  2.0339
  175SAPS   C2819929   5.837   1.153   3.398  0.2257  0.1361 -0.0348
  175SAPS   H8R19930   5.766   1.085   3.349 -0.4466  1.5224 -1.0499
  175SAPS   C2919931   5.825   1.185   3.532 -0.3577 -0.2551  0.1909
  175SAPS   H9R19932   5.762   1.113   3.586  0.2474 -0.3172  0.8350
  175SAPS  C21019933   5.885   1.285   3.619  0.1994 -1.3503 -0.9040
  175SAPS  H10R19934   5.812   1.340   3.682 -1.2702 -2.7766 -1.3003
  175SAPS  H10S19935   5.940   1.365   3.565 -0.0987 -0.4364  0.1187
  175SAPS  C21119936   5.982   1.226   3.720 -0.6114 -0.1661  0.2883
  175SAPS  H11R19937   6.085   1.213   3.684  0.1775  1.7629  1.6291
  175SAPS  C21219938   5.946   1.178   3.844 -0.2028 -0.4671  0.1098
  175SAPS  H12R19939   6.027   1.151   3.913  0.0297 -1.9273 -0.6792
  175SAPS  C21319940   5.808   1.186   3.900 -0.8131  0.0968  0.3932
  175SAPS  H13R19941   5.735   1.157   3.821 -2.0718  2.1838  0.7177
  175SAPS  H13S19942   5.770   1.289   3.917 -2.7485 -0.6936  1.1407
  175SAPS  C21419943   5.779   1.095   4.022  0.7889 -0.1256 -0.8910
  175SAPS  H14R19944   5.845   1.009   4.042 -2.5329 -3.2025 -1.9329
  175SAPS  C21519945   5.664   1.107   4.095 -0.5288 -0.5233 -0.0057
  175SAPS  H15R19946   5.642   1.048   4.185  0.4694  0.2699  0.7794
  175SAPS  C21619947   5.546   1.206   4.063  0.0256 -0.0707  0.9861
  175SAPS  H16R19948   5.450   1.158   4.089 -1.1187  1.6888  0.1951
  175SAPS  H16S19949   5.541   1.225   3.954 -0.7518  2.9274  1.4383
  175SAPS  C21719950   5.530   1.335   4.139 -0.2989  0.6235 -0.9101
  175SAPS  H17R19951   5.606   1.414   4.119  0.0022  0.2043 -1.4666
  175SAPS  H17S19952   5.519   1.320   4.248 -1.2475 -2.4572 -1.3470
  175SAPS  C21819953   5.389   1.387   4.110  0.5260 -0.2757 -0.3094
  175SAPS  H18R19954   5.318   1.303   4.130  2.3558 -2.1438 -1.3239
  175SAPS  H18S19955   5.377   1.395   4.000  0.0757  0.2468 -0.2289
  175SAPS  C21919956   5.340   1.527   4.161 -0.1866  0.7381  0.5147
  175SAPS  H19R19957   5.410   1.612   4.147 -0.9864  1.2582 -0.5374
  175SAPS  H19S19958   5.335   1.520   4.272  0.4781 -0.1306  0.4953
  175SAPS  C22019959   5.209   1.578   4.110  1.0413  0.0058 -0.5802
  175SAPS  H20R19960   5.138   1.493   4.108  0.3204  0.5919 -0.4007
  175SAPS  H20S19961   5.209   1.618   4.006 -1.1832  1.4961 -0.0615
  175SAPS  H20T19962   5.172   1.656   4.179  0.3367  0.1554 -1.1185
  175SAPS   C3319963   6.605   0.955   2.747 -0.3130 -0.6334 -0.2685
  175SAPS   H3X19964   6.662   1.022   2.679 -1.3360 -1.6530 -2.2118
  175SAPS   H3Y19965   6.622   0.850   2.712 -2.5739 -1.5821  1.2408
  175SAPS   C3419966   6.660   0.984   2.887 -0.6707 -0.7474  0.5734
  175SAPS   H4X19967   6.651   1.093   2.906  1.7328 -0.7365  2.1274
  175SAPS   H4Y19968   6.770   0.968   2.881 -0.1053  2.7427 -1.3726
  175SAPS   C3519969   6.611   0.889   3.001  0.3087 -0.5097  0.0429
  175SAPS   H5X19970   6.634   0.788   2.960  1.7004  0.5890 -2.0692
  175SAPS   H5Y19971   6.501   0.901   3.005  0.5783  2.3051  0.9606
  175SAPS   C3619972   6.667   0.924   3.138 -0.8247 -0.4370 -0.1160
  175SAPS   H6X19973   6.644   1.031   3.158  1.8169 -0.1040  1.5127
  175SAPS   H6Y19974   6.777   0.919   3.131 -0.7005  1.6477 -0.3222
  175SAPS   C3719975   6.608   0.834   3.244  0.4933  0.3683  0.1129
  175SAPS   H7X19976   6.617   0.726   3.219 -2.1227 -0.4266  2.1078
  175SAPS   H7Y19977   6.498   0.847   3.255  0.6839  1.1684  1.2555
  175SAPS   C3819978   6.666   0.843   3.386  0.0256  0.2724  0.0399
  175SAPS   H8X19979   6.772   0.874   3.373  0.7139 -1.2410  1.5963
  175SAPS   H8Y19980   6.670   0.750   3.446 -0.8633  0.0682 -0.2062
  175SAPS   C3919981   6.590   0.943   3.473 -0.0695 -0.9981  0.3738
  175SAPS   H9X19982   6.483   0.917   3.457 -0.9518  2.0526  0.5489
  175SAPS   H9Y19983   6.611   1.048   3.441 -0.8921 -1.3698 -1.5009
  175SAPS  C31019984   6.635   0.933   3.617  0.4215 -0.3742  1.0825
  175SAPS  H10X19985   6.738   0.974   3.625  0.1185  0.1887  2.3517
  175SAPS  H10Y19986   6.641   0.825   3.643  0.9833 -0.7232 -0.3765
  175SAPS  C31119987   6.539   1.011   3.711  0.2195  0.9564  0.2395
  175SAPS  H11X19988   6.555   0.968   3.813 -0.9230 -3.3228 -1.1810
  175SAPS  H11Y19989   6.434   0.985   3.685 -0.4835  1.9634  1.8994
  175SAPS  C31219990   6.555   1.169   3.723  0.0117 -0.4455 -0.0044
  175SAPS  H12X19991   6.580   1.212   3.623 -1.3829  0.1021 -0.1303
  175SAPS  H12Y19992   6.638   1.182   3.795 -0.9175  0.1117  0.9961
  175SAPS  C31319993   6.435   1.233   3.780  0.6605 -0.4134 -0.5796
  175SAPS  H13X19994   6.347   1.207   3.716 -1.0830  2.4432  0.4923
  175SAPS  H13Y19995   6.454   1.342   3.774 -0.7494 -0.0442  0.9685
  175SAPS  C31419996   6.418   1.203   3.931  0.0763  0.0798  0.4678
  175SAPS  H14X19997   6.514   1.220   3.984  0.1128  0.9016  0.1485
  175SAPS  H14Y19998   6.391   1.096   3.948 -0.3262  0.4448  2.2560
  175SAPS  C31519999   6.313   1.296   3.990  0.8546 -0.8651 -0.8649
  175SAPS  H15X20000   6.216   1.250   3.959  0.4978  0.0109 -1.0626
  175SAPS  H15Y20001   6.323   1.400   3.953 -0.0998 -0.7332 -0.7902
  175SAPS  C31620002   6.315   1.301   4.151 -0.3458  0.1425  0.4647
  175SAPS  H16X20003   6.419   1.334   4.172 -0.2239  1.5122 -1.9453
  175SAPS  H16Y20004   6.322   1.195   4.183  2.6143  0.4140  1.0159
  175SAPS  C31720005   6.203   1.379   4.229  0.0542  0.4072 -0.7222
  175SAPS  H17X20006   6.208   1.486   4.200  1.6433  0.7670  0.6938
  175SAPS  H17Y20007   6.227   1.376   4.338  2.2774  0.1172 -1.1727
  175SAPS  C31820008   6.059   1.334   4.211 -0.1937  0.4417 -0.4903
  175SAPS  H18X20009   5.997   1.372   4.296 -0.7534  0.2753 -0.8191
  175SAPS  H18Y20010   6.054   1.223   4.211  1.2969  0.3623 -0.6577
  175SAPS  H18Z20011   6.020   1.372   4.114 -1.6363 -1.5337 -0.7445
  176SAPS     N20012   5.310   5.452   2.309 -0.4291  0.1471 -0.4251
  176SAPS   HN120013   5.406   5.443   2.271 -0.6054 -0.8772 -0.6441
  176SAPS   HN220014   5.288   5.554   2.319 -3.3584 -0.3413 -0.7894
  176SAPS   HN320015   5.308   5.414   2.405  2.2616  0.3581 -0.2197
  176SAPS   C1220016   5.212   5.385   2.226  0.4658 -0.4223 -0.1380
  176SAPS  H12A20017   5.213   5.435   2.130 -1.1537  0.7926  0.4336
  176SAPS   C1320018   5.226   5.240   2.191 -1.1154 -0.2220  0.1431
  176SAPS  O13A20019   5.322   5.176   2.242 -0.4177  0.0547  0.0099
  176SAPS  O13B20020   5.146   5.177   2.115 -0.1455  0.1409 -0.6175
  176SAPS   C1120021   5.075   5.417   2.288  0.2354 -0.5272 -0.5973
  176SAPS  H11A20022   5.061   5.364   2.385 -2.0762 -2.9364 -2.1102
  176SAPS  H11B20023   4.995   5.381   2.220  3.0694  0.3556 -4.7465
  176SAPS     P20024   4.944   5.641   2.254  0.1755  0.0224 -0.2238
  176SAPS   O1320025   4.974   5.783   2.223 -0.3017  0.1806 -0.1621
  176SAPS   O1420026   4.882   5.569   2.142 -0.1339 -0.2459  0.0378
  176SAPS   O1220027   5.073   5.563   2.298  0.5340 -0.1979  0.0351
  176SAPS   O1120028   4.849   5.638   2.381  0.0919 -0.7258 -0.3903
  176SAPS    C120029   4.906   5.671   2.509  0.7272 -0.4413 -0.5055
  176SAPS    HA20030   5.012   5.640   2.525  0.7377 -0.0759  0.2016
  176SAPS    HB20031   4.913   5.781   2.524  0.3320 -0.3310 -1.1064
  176SAPS    C220032   4.810   5.614   2.625 -0.6813 -0.2982 -0.0364
  176SAPS    HS20033   4.833   5.668   2.720 -0.2816  0.4507 -0.5480
  176SAPS   O2120034   4.844   5.471   2.621  0.1761 -0.0788 -0.0446
  176SAPS   C2120035   4.942   5.438   2.699 -0.2453 -0.2567  0.1370
  176SAPS   O2220036   5.011   5.520   2.763  0.6567  0.5809 -0.0774
  176SAPS   C2220037   4.968   5.285   2.687 -0.6854  0.5881 -0.1909
  176SAPS   H2R20038   4.874   5.233   2.658  0.0020 -1.0306  0.3488
  176SAPS   H2S20039   5.033   5.266   2.599  0.5847 -0.1109  0.8659
  176SAPS    C320040   4.664   5.651   2.605 -0.1596 -0.9110  0.1111
  176SAPS    HX20041   4.642   5.602   2.507  2.8238 -0.9575 -0.6124
  176SAPS    HY20042   4.629   5.754   2.579 -1.2018 -0.6212  2.4116
  176SAPS   O3120043   4.580   5.589   2.699 -0.3710 -0.0361 -0.5238
  176SAPS   C3120044   4.550   5.660   2.806 -0.0369  1.0580  0.6100
  176SAPS   O3220045   4.567   5.780   2.812  0.0289 -0.2438  1.0827
  176SAPS   C3220046   4.490   5.560   2.905 -0.2866  0.5363 -0.0314
  176SAPS   H2X20047   4.491   5.451   2.880 -1.4539 -0.4981  3.7866
  176SAPS   H2Y20048   4.382   5.583   2.916 -0.2839  0.8035 -0.5146
  176SAPS   C2320049   5.036   5.226   2.812 -0.7682 -0.0504  0.2030
  176SAPS   H3R20050   5.119   5.298   2.833  1.6910 -1.6947 -2.9424
  176SAPS   H3S20051   5.084   5.134   2.773  1.4659  1.5219 -0.9833
  176SAPS   C2420052   4.939   5.195   2.922  0.4555  0.2902 -0.2941
  176SAPS   H4R20053   4.866   5.133   2.865  1.0786  0.2088 -1.0142
  176SAPS   H4S20054   4.888   5.290   2.950  0.7391  0.6412 -0.9411
  176SAPS   C2520055   4.972   5.101   3.035 -0.7064  0.5807  0.1441
  176SAPS   H5R20056   5.078   5.105   3.065 -0.3839  0.6152 -0.9593
  176SAPS   C2620057   4.896   5.017   3.094  0.6082  0.7316 -0.1525
  176SAPS   H6R20058   4.943   4.958   3.174  0.7170  0.3997 -0.4559
  176SAPS   C2720059   4.751   4.990   3.072  0.0955 -0.0490 -0.9335
  176SAPS   H7R20060   4.741   4.880   3.079 -0.4547  0.0578  0.1852
  176SAPS   H7S20061   4.713   5.029   2.975 -1.6466  0.6320 -0.0340
  176SAPS   C2820062   4.670   5.055   3.178 -0.1524 -0.5696  0.3478
  176SAPS   H8R20063   4.665   5.164   3.168 -1.0569 -0.4141  2.1043
  176SAPS   C2920064   4.635   5.014   3.300 -0.0986 -0.6896  0.7347
  176SAPS   H9R20065   4.584   5.083   3.369 -1.6586  0.6839 -1.6074
  176SAPS  C21020066   4.642   4.873   3.350  0.0683  0.2259 -0.6486
  176SAPS  H10R20067   4.700   4.865   3.444 -0.4006 -1.2401 -0.4480
  176SAPS  H10S20068   4.694   4.807   3.277  0.3551 -0.0966 -0.1588
  176SAPS  C21120069   4.504   4.818   3.369  0.6858 -0.4879  0.0133
  176SAPS  H11R20070   4.429   4.817   3.288 -0.6394  0.4116  1.1704
  176SAPS  C21220071   4.459   4.749   3.478 -0.4936  0.9156  0.1132
  176SAPS  H12R20072   4.356   4.710   3.467 -1.1527  2.5868  0.0903
  176SAPS  C21320073   4.532   4.745   3.609  0.1000  0.0845 -0.7093
  176SAPS  H13R20074   4.593   4.837   3.618 -1.5272  1.4038 -2.3901
  176SAPS  H13S20075   4.605   4.661   3.602  0.9083  0.5871  1.1709
  176SAPS  C21420076   4.452   4.730   3.737  0.3480  0.1314  0.1536
  176SAPS  H14R20077   4.358   4.786   3.743 -0.4104 -0.8303 -1.8707
  176SAPS  C21520078   4.487   4.654   3.842  0.2866  0.4029 -0.5919
  176SAPS  H15R20079   4.430   4.651   3.936 -1.4673 -2.2670 -1.6192
  176SAPS  C21620080   4.622   4.576   3.848  0.6211 -0.4913 -0.9134
  176SAPS  H16R20081   4.686   4.634   3.917 -0.8127  2.8383 -2.1788
  176SAPS  H16S20082   4.682   4.583   3.756  1.9127  0.8100 -0.0105
  176SAPS  C21720083   4.593   4.434   3.899  0.0021  0.3758  0.3674
  176SAPS  H17R20084   4.677   4.375   3.858  1.7115  0.8224  2.9707
  176SAPS  H17S20085   4.508   4.376   3.856  0.1118 -1.6072  2.6220
  176SAPS  C21820086   4.588   4.417   4.052 -1.0668 -0.1483  0.0150
  176SAPS  H18R20087   4.520   4.486   4.107  0.0094 -1.1598  2.7822
  176SAPS  H18S20088   4.685   4.446   4.096 -1.6249  2.3813 -0.2929
  176SAPS  C21920089   4.545   4.276   4.099 -0.2359 -0.6172 -0.1245
  176SAPS  H19R20090   4.560   4.292   4.208 -0.1154 -1.4134 -0.0209
  176SAPS  H19S20091   4.610   4.197   4.056  0.8384 -0.3315  0.9387
  176SAPS  C22020092   4.401   4.240   4.074  0.2881 -0.6645  0.0657
  176SAPS  H20R20093   4.372   4.171   4.156  0.1079 -0.7384 -0.0609
  176SAPS  H20S20094   4.378   4.200   3.973  1.2615  1.1156 -0.9122
  176SAPS  H20T20095   4.334   4.326   4.096  0.1635 -0.6634 -0.3109
  176SAPS   C3320096   4.568   5.583   3.042 -0.0380 -0.3452 -0.2836
  176SAPS   H3X20097   4.502   5.539   3.120  0.1670 -0.1733 -0.0072
  176SAPS   H3Y20098   4.600   5.689   3.054  1.7668 -0.9333  0.4613
  176SAPS   C3420099   4.695   5.490   3.030 -0.2954  0.6235 -0.4216
  176SAPS   H4X20100   4.777   5.554   2.990  0.1992  0.3143  0.0852
  176SAPS   H4Y20101   4.686   5.397   2.970  1.2816 -0.5425  1.0659
  176SAPS   C3520102   4.740   5.451   3.171  0.2024  0.1484 -0.8870
  176SAPS   H5X20103   4.838   5.402   3.153  0.0677 -0.1758 -0.7401
  176SAPS   H5Y20104   4.666   5.383   3.218  1.9716 -0.9965  0.3715
  176SAPS   C3620105   4.781   5.568   3.266  0.0957  0.0454 -0.4413
  176SAPS   H6X20106   4.692   5.632   3.282  0.0437  1.3242 -4.7346
  176SAPS   H6Y20107   4.852   5.635   3.213  0.6092 -0.9076 -0.9909
  176SAPS   C3720108   4.852   5.509   3.390  0.2512 -0.5699  0.1166
  176SAPS   H7X20109   4.953   5.465   3.373 -0.3785 -3.4250  2.7346
  176SAPS   H7Y20110   4.792   5.429   3.438 -0.7801 -0.1092 -0.3651
  176SAPS   C3820111   4.862   5.610   3.506  0.8696  0.4532  1.2034
  176SAPS   H8X20112   4.775   5.678   3.500 -0.8796 -1.5552  2.6640
  176SAPS   H8Y20113   4.954   5.670   3.491  0.9630 -0.1737 -1.2816
  176SAPS   C3920114   4.858   5.552   3.646  0.1513 -0.1466 -0.6871
  176SAPS   H9X20115   4.947   5.488   3.667  1.4174  0.8164 -2.7726
  176SAPS   H9Y20116   4.773   5.481   3.646  1.3943 -1.7413 -2.4661
  176SAPS  C31020117   4.828   5.645   3.761  0.1109  0.7149  0.2237
  176SAPS  H10X20118   4.755   5.722   3.725  0.4324  1.9377  2.0305
  176SAPS  H10Y20119   4.921   5.699   3.789  1.1677 -0.4009 -1.0621
  176SAPS  C31120120   4.780   5.576   3.885  0.1439 -0.3938 -0.0430
  176SAPS  H11X20121   4.697   5.505   3.861 -0.2313 -0.4172  1.2680
  176SAPS  H11Y20122   4.738   5.653   3.953 -2.2691 -0.2177 -1.5897
  176SAPS  C31220123   4.881   5.488   3.956 -0.1075 -0.7880 -0.1439
  176SAPS  H12X20124   4.984   5.527   3.937 -0.7625  1.1381  0.0665
  176SAPS  H12Y20125   4.860   5.384   3.925  0.0501 -0.9987  0.4550
  176SAPS  C31320126   4.873   5.495   4.112  0.3281  0.2261 -0.0090
  176SAPS  H13X20127   4.771   5.476   4.151  0.6141 -1.7942 -0.1572
  176SAPS  H13Y20128   4.892   5.601   4.143  0.6044  0.3116 -0.4558
  176SAPS  C31420129   4.966   5.404   4.187  0.4435  0.8588  0.5579
  176SAPS  H14X20130   5.057   5.392   4.124 -1.1008 -2.1348 -1.3270
  176SAPS  H14Y20131   4.907   5.310   4.183  0.8006  0.6714 -1.7412
  176SAPS  C31520132   4.981   5.443   4.335 -0.6629  0.4944  0.1992
  176SAPS  H15X20133   4.885   5.433   4.390 -1.2710 -0.0537 -0.9284
  176SAPS  H15Y20134   5.017   5.547   4.349 -1.1239  0.6606  0.1598
  176SAPS  C31620135   5.086   5.347   4.400 -0.3697 -0.8257 -0.3490
  176SAPS  H16X20136   5.105   5.388   4.501  0.0888 -0.2076 -0.6781
  176SAPS  H16Y20137   5.179   5.344   4.339 -0.6776  0.2363 -0.9019
  176SAPS  C31720138   5.030   5.210   4.418 -0.7924  0.4645 -0.2489
  176SAPS  H17X20139   5.033   5.158   4.320 -1.4923 -0.2162  0.0743
  176SAPS  H17Y20140   4.928   5.216   4.461 -0.2451  0.3583  1.1283
  176SAPS  C31820141   5.118   5.116   4.507 -0.1426 -0.1226  0.2595
  176SAPS  H18X20142   5.226   5.126   4.483 -0.0836 -0.2670  0.4699
  176SAPS  H18Y20143   5.097   5.007   4.501  1.3826 -0.3627 -1.9471
  176SAPS  H18Z20144   5.093   5.144   4.612 -0.4765  0.9772 -0.0975
  177SAPS     N20145   2.089   1.931   2.447  0.0706 -0.1290  0.1707
  177SAPS   HN120146   2.031   1.857   2.402  0.3504 -1.6333  2.1771
  177SAPS   HN220147   2.177   1.879   2.467  0.7504  0.4801 -1.0907
  177SAPS   HN320148   2.044   1.966   2.534  1.1498  3.5898 -0.5806
  177SAPS   C1220149   2.105   2.039   2.341 -0.1807  0.4181  0.5338
  177SAPS  H12A20150   2.197   2.092   2.362 -0.6745  0.6481  2.2492
  177SAPS   C1320151   2.086   1.985   2.201 -0.3950  0.0037  0.5143
  177SAPS  O13A20152   2.051   1.868   2.175 -0.3791 -0.3632  0.1431
  177SAPS  O13B20153   2.118   2.057   2.109  0.4813 -0.0057 -0.4032
  177SAPS   C1120154   2.005   2.157   2.369  0.0105 -0.1485  0.0278
  177SAPS  H11A20155   1.902   2.118   2.353  0.3960 -0.3498 -2.3546
  177SAPS  H11B20156   2.031   2.230   2.290 -0.2973  1.2183  1.1650
  177SAPS     P20157   1.971   2.361   2.509 -0.4947 -0.0396  0.3286
  177SAPS   O1320158   2.069   2.451   2.448 -0.0906 -0.4415  0.6910
  177SAPS   O1420159   1.831   2.363   2.459  0.0030  0.1567  0.5934
  177SAPS   O1220160   2.024   2.210   2.503  0.2940  0.3767  0.4669
  177SAPS   O1120161   1.973   2.394   2.660 -0.3257 -0.0663 -0.3012
  177SAPS    C120162   1.940   2.301   2.762  0.3455  0.4795 -0.4372
  177SAPS    HA20163   1.829   2.291   2.766  0.3644  0.2839  3.4780
  177SAPS    HB20164   1.977   2.197   2.749 -1.8542 -0.8967  2.9781
  177SAPS    C220165   1.980   2.360   2.905 -0.4710  0.0645 -0.3835
  177SAPS    HS20166   2.088   2.350   2.928 -1.1707 -3.1769  2.4145
  177SAPS   O2120167   1.910   2.281   3.003 -0.8821 -0.3030 -0.5388
  177SAPS   C2120168   1.972   2.162   3.029 -0.5973  0.0325 -0.0456
  177SAPS   O2220169   2.084   2.123   2.991  0.0458 -0.3896 -0.4770
  177SAPS   C2220170   1.887   2.077   3.107  0.3145  0.3919  0.0406
  177SAPS   H2R20171   1.800   2.135   3.145  0.1730 -0.2174  0.6657
  177SAPS   H2S20172   1.848   1.986   3.057 -1.0327  1.0912 -0.2331
  177SAPS    C320173   1.926   2.509   2.920 -0.0773 -0.7497  0.2213
  177SAPS    HX20174   1.820   2.503   2.885  0.9115 -2.9252 -2.8019
  177SAPS    HY20175   1.983   2.576   2.852  0.4479 -1.9391 -0.5215
  177SAPS   O3120176   1.927   2.557   3.056 -0.4795 -0.3739 -0.2923
  177SAPS   C3120177   2.042   2.615   3.099  0.2292  0.5285  0.4193
  177SAPS   O3220178   2.147   2.622   3.035  0.2734 -0.3490  0.3496
  177SAPS   C3220179   2.036   2.657   3.245  0.0768 -0.2653 -0.0748
  177SAPS   H2X20180   1.936   2.704   3.257  0.5680  1.0842 -0.9796
  177SAPS   H2Y20181   2.120   2.726   3.271  1.0056 -0.8608 -1.3684
  177SAPS   C2320182   1.964   2.036   3.239 -0.3209  0.0784 -0.1498
  177SAPS   H3R20183   2.056   1.980   3.211  0.6473  2.3695 -1.9185
  177SAPS   H3S20184   1.911   1.974   3.313  1.4111 -0.3490  0.7859
  177SAPS   C2420185   1.992   2.166   3.316 -0.7060 -0.1115 -0.8290
  177SAPS   H4R20186   1.900   2.221   3.342 -0.0721  0.0363  1.2591
  177SAPS   H4S20187   2.051   2.237   3.254  0.6681  0.0436  0.5980
  177SAPS   C2520188   2.075   2.131   3.437 -0.5514 -0.3103 -0.4212
  177SAPS   H5R20189   2.170   2.079   3.419  0.3831 -0.1711  3.2952
  177SAPS   C2620190   2.043   2.134   3.569  0.2935 -0.2158 -0.2292
  177SAPS   H6R20191   2.103   2.086   3.647  2.4459  1.7943 -0.5377
  177SAPS   C2720192   1.903   2.189   3.612  0.7096  0.2049 -0.1320
  177SAPS   H7R20193   1.826   2.191   3.533  1.1951  2.3185 -0.6109
  177SAPS   H7S20194   1.916   2.294   3.646 -0.9897  0.3356  0.1863
  177SAPS   C2820195   1.850   2.094   3.720 -0.1130  0.4176 -0.1638
  177SAPS   H8R20196   1.783   2.015   3.682 -0.7193 -0.5134  2.6214
  177SAPS   C2920197   1.871   2.096   3.851 -0.3852  0.5572 -0.2889
  177SAPS   H9R20198   1.818   2.026   3.916  0.5075  0.3533  0.2458
  177SAPS  C21020199   1.958   2.190   3.931  0.0979  0.2891  1.0113
  177SAPS  H10R20200   2.009   2.266   3.868 -0.7415 -1.4443 -1.9660
  177SAPS  H10S20201   2.041   2.132   3.977 -1.6466 -2.2171  1.1996
  177SAPS  C21120202   1.871   2.264   4.027  0.6033 -0.5766  0.3147
  177SAPS  H11R20203   1.776   2.301   3.985  1.1172  1.0591  0.5145
  177SAPS  C21220204   1.902   2.286   4.156  0.5330  0.4360 -0.6680
  177SAPS  H12R20205   1.828   2.336   4.220  1.7823  0.9074  0.4670
  177SAPS  C21320206   2.027   2.234   4.221 -0.3243  0.1211  0.0471
  177SAPS  H13R20207   2.116   2.255   4.158 -0.4987  2.8980  0.6005
  177SAPS  H13S20208   2.012   2.125   4.236 -0.5548 -0.1217 -1.7989
  177SAPS  C21420209   2.046   2.283   4.365 -0.3604 -0.0508 -0.2772
  177SAPS  H14R20210   2.123   2.360   4.376  0.1041 -0.8527  3.6297
  177SAPS  C21520211   1.959   2.250   4.469  0.4522  0.9307  0.3208
  177SAPS  H15R20212   1.986   2.274   4.573 -1.0804  0.2131  0.9195
  177SAPS  C21620213   1.844   2.145   4.471 -0.2221 -0.4839 -0.5590
  177SAPS  H16R20214   1.795   2.130   4.373 -2.6261  1.5094  0.2243
  177SAPS  H16S20215   1.759   2.180   4.533  1.5953  0.0196  1.8024
  177SAPS  C21720216   1.888   2.018   4.551  0.2220 -0.5853  0.2678
  177SAPS  H17R20217   1.804   1.945   4.547 -0.4337  0.1520  0.2707
  177SAPS  H17S20218   1.906   2.039   4.658 -1.0101 -1.3003  0.6268
  177SAPS  C21820219   2.000   1.938   4.479 -0.4294  0.1194 -0.4366
  177SAPS  H18R20220   2.085   2.007   4.466 -0.5693  0.1119 -1.4828
  177SAPS  H18S20221   1.971   1.902   4.378 -0.4034  1.8453 -1.0985
  177SAPS  C21920222   2.060   1.821   4.553 -0.0680 -0.2336  0.8017
  177SAPS  H19R20223   2.115   1.863   4.640 -0.0390  0.3290  0.5135
  177SAPS  H19S20224   2.129   1.775   4.480 -1.9350 -0.7199 -0.7428
  177SAPS  C22020225   1.967   1.708   4.595  0.4380  0.5616  0.3654
  177SAPS  H20R20226   1.890   1.744   4.667  2.9892  2.3810  2.4013
  177SAPS  H20S20227   2.021   1.626   4.647 -0.7276 -1.0693 -0.8813
  177SAPS  H20T20228   1.915   1.652   4.515  2.4425 -2.2948  0.9242
  177SAPS   C3320229   2.022   2.535   3.339 -0.1380 -0.3083  0.6160
  177SAPS   H3X20230   2.105   2.464   3.322  1.6854  2.0502 -1.0533
  177SAPS   H3Y20231   1.929   2.478   3.319  0.0568 -0.7414  0.9300
  177SAPS   C3420232   2.017   2.577   3.485 -0.1515 -0.4304  0.3541
  177SAPS   H4X20233   1.968   2.494   3.540 -0.5281 -2.7014 -3.1139
  177SAPS   H4Y20234   1.954   2.669   3.491  0.2740 -0.1623  0.7712
  177SAPS   C3520235   2.150   2.601   3.549  0.2615 -0.2292 -0.4852
  177SAPS   H5X20236   2.205   2.673   3.484  0.3671 -0.5011 -0.6965
  177SAPS   H5Y20237   2.203   2.503   3.543  0.5515 -0.2593  1.6871
  177SAPS   C3620238   2.135   2.646   3.693 -0.2582 -0.2829  0.2715
  177SAPS   H6X20239   2.049   2.589   3.734  0.7478 -1.4240  0.8244
  177SAPS   H6Y20240   2.108   2.753   3.704 -1.3890 -0.6209  0.9653
  177SAPS   C3720241   2.260   2.619   3.775 -1.2456  0.4598  0.0228
  177SAPS   H7X20242   2.326   2.707   3.758 -0.8936  0.5499  1.6838
  177SAPS   H7Y20243   2.302   2.522   3.740 -0.0290  0.0389  2.4490
  177SAPS   C3820244   2.232   2.599   3.928  0.0560 -0.2887  0.2052
  177SAPS   H8X20245   2.151   2.524   3.945  1.0007 -2.0726 -2.4947
  177SAPS   H8Y20246   2.187   2.693   3.965 -0.9505 -0.9236  0.6368
  177SAPS   C3920247   2.356   2.549   4.002 -0.3640  0.5471 -0.1255
  177SAPS   H9X20248   2.446   2.615   3.996  3.1176 -3.6624  0.6858
  177SAPS   H9Y20249   2.384   2.452   3.956  3.1342  1.9926 -1.4147
  177SAPS  C31020250   2.339   2.527   4.151 -0.0627  0.3170  0.5745
  177SAPS  H10X20251   2.242   2.473   4.161  0.0422 -0.3169 -1.3573
  177SAPS  H10Y20252   2.330   2.625   4.203  2.2120 -0.8195  3.3812
  177SAPS  C31120253   2.455   2.443   4.207  0.0192 -0.3233 -0.0222
  177SAPS  H11X20254   2.555   2.488   4.188  0.1540 -0.3439  0.6007
  177SAPS  H11Y20255   2.445   2.342   4.163 -1.0962 -0.9298  1.5528
  177SAPS  C31220256   2.442   2.441   4.353  0.5571 -0.2327  0.6934
  177SAPS  H12X20257   2.356   2.372   4.367  1.4208 -1.3106  0.7886
  177SAPS  H12Y20258   2.420   2.541   4.397  0.3948 -0.5566  1.3513
  177SAPS  C31320259   2.563   2.382   4.429  0.0208  0.2108  0.8084
  177SAPS  H13X20260   2.629   2.313   4.373 -0.8811 -1.1728  1.4027
  177SAPS  H13Y20261   2.531   2.331   4.523  1.1172 -0.3569  0.8771
  177SAPS  C31420262   2.656   2.486   4.490 -0.3198  0.3951  0.0997
  177SAPS  H14X20263   2.597   2.531   4.572 -2.4940  0.8886 -1.6172
  177SAPS  H14Y20264   2.674   2.568   4.416  1.6221 -1.8673 -2.1368
  177SAPS  C31520265   2.795   2.434   4.528 -0.1782  0.6681  0.3683
  177SAPS  H15X20266   2.857   2.409   4.439 -0.9035  1.1309 -0.2890
  177SAPS  H15Y20267   2.769   2.341   4.583 -1.1425 -0.3612 -1.7042
  177SAPS  C31620268   2.871   2.534   4.610 -0.1667 -0.1425  0.5729
  177SAPS  H16X20269   2.816   2.552   4.705 -0.1652 -0.6190  0.6656
  177SAPS  H16Y20270   2.909   2.626   4.562  2.0106 -0.7171  1.0926
  177SAPS  C31720271   2.996   2.462   4.660  0.2885 -0.0769 -0.1869
  177SAPS  H17X20272   3.037   2.384   4.592  3.0958  1.6982 -0.6938
  177SAPS  H17Y20273   2.962   2.406   4.750 -0.2491 -1.4138 -1.1882
  177SAPS  C31820274   3.123   2.543   4.691  0.4062  0.1692 -0.4002
  177SAPS  H18X20275   3.132   2.561   4.800  1.5923  0.8032 -0.5838
  177SAPS  H18Y20276   3.133   2.639   4.636 -0.9096  1.9232  2.2051
  177SAPS  H18Z20277   3.215   2.485   4.666 -1.0808 -1.9014 -1.3142
  178SAPS     N20278   5.282   4.794   2.078  0.2063  0.2966 -0.3306
  178SAPS   HN120279   5.178   4.794   2.068 -0.2020  2.8547  2.3407
  178SAPS   HN220280   5.306   4.813   2.177  3.6186 -1.5471 -0.6604
  178SAPS   HN320281   5.316   4.871   2.017 -2.3105  1.8122  0.0325
  178SAPS   C1220282   5.342   4.660   2.045  0.1237  0.6559 -0.0776
  178SAPS  H12A20283   5.280   4.596   1.985  0.2088  0.9817 -0.5154
  178SAPS   C1320284   5.464   4.680   1.951 -0.1091 -0.4431 -0.6100
  178SAPS  O13A20285   5.514   4.789   1.924 -0.3453 -0.1761 -0.0261
  178SAPS  O13B20286   5.524   4.571   1.918 -0.1130  0.1620 -0.3125
  178SAPS   C1120287   5.378   4.571   2.170  0.5725  0.6016  0.0359
  178SAPS  H11A20288   5.409   4.468   2.139  0.7805  0.5657  0.3570
  178SAPS  H11B20289   5.287   4.550   2.229  0.2826 -2.4652 -1.3074
  178SAPS     P20290   5.572   4.576   2.357 -0.5945 -0.1327  0.3816
  178SAPS   O1320291   5.661   4.484   2.288 -0.2527  0.1335 -0.6077
  178SAPS   O1420292   5.637   4.684   2.434  0.1618  0.2134  0.3855
  178SAPS   O1220293   5.485   4.639   2.240  0.1018 -0.5698 -0.0607
  178SAPS   O1120294   5.460   4.507   2.445  0.6322 -0.8411 -0.4283
  178SAPS    C120295   5.351   4.585   2.496  0.5381  0.2410  0.3647
  178SAPS    HA20296   5.353   4.689   2.456 -0.2694  0.7833  1.6728
  178SAPS    HB20297   5.257   4.536   2.464  1.4092 -2.6662  1.9018
  178SAPS    C220298   5.346   4.591   2.653  0.4361 -0.6164 -0.3847
  178SAPS    HS20299   5.237   4.601   2.675  0.2073 -0.0186 -1.6556
  178SAPS   O2120300   5.436   4.684   2.718  0.2123  0.3664 -0.0222
  178SAPS   C2120301   5.391   4.809   2.720  1.1029  0.5509  0.3320
  178SAPS   O2220302   5.285   4.854   2.682  0.4355  0.5570  0.2803
  178SAPS   C2220303   5.498   4.889   2.779 -0.5885 -1.0348  0.1244
  178SAPS   H2R20304   5.590   4.830   2.798  0.2597  0.5426  1.0854
  178SAPS   H2S20305   5.526   4.967   2.704  1.1990 -0.4851  1.3175
  178SAPS    C320306   5.375   4.457   2.714 -0.0053  0.3442  0.7035
  178SAPS    HX20307   5.485   4.447   2.698 -0.1242 -0.3423  0.2900
  178SAPS    HY20308   5.328   4.371   2.662  0.2491 -0.6974  2.1537
  178SAPS   O3120309   5.352   4.449   2.855  0.3740 -0.6934  0.1193
  178SAPS   C3120310   5.224   4.426   2.897 -0.2497 -0.0980 -1.1156
  178SAPS   O3220311   5.127   4.407   2.822 -0.4253  0.5914 -0.6504
  178SAPS   C3220312   5.217   4.431   3.057 -0.2571 -0.2293  0.5460
  178SAPS   H2X20313   5.202   4.538   3.083  2.0432  0.0698  0.7903
  178SAPS   H2Y20314   5.313   4.398   3.101  0.6658  0.8901 -0.5555
  178SAPS   C2320315   5.447   4.972   2.905 -0.0209  0.6481  0.2269
  178SAPS   H3R20316   5.337   4.988   2.895 -0.2699 -1.1881 -0.5020
  178SAPS   H3S20317   5.480   5.076   2.887 -1.7276  1.4779  1.5253
  178SAPS   C2420318   5.500   4.921   3.041  0.1176 -0.4355 -0.4784
  178SAPS   H4R20319   5.469   4.994   3.118 -0.1665 -1.5739  0.5137
  178SAPS   H4S20320   5.610   4.930   3.049  0.1684 -0.3063 -1.2102
  178SAPS   C2520321   5.474   4.781   3.088  0.6450  0.5385 -0.2996
  178SAPS   H5R20322   5.564   4.718   3.085  1.0608  1.1336 -2.1716
  178SAPS   C2620323   5.362   4.745   3.151 -0.0797 -1.1358 -0.2145
  178SAPS   H6R20324   5.362   4.643   3.192 -0.3922 -0.8406  0.5282
  178SAPS   C2720325   5.235   4.831   3.176 -0.9545 -0.0547  0.3775
  178SAPS   H7R20326   5.150   4.764   3.200 -1.7625  0.9995  0.5193
  178SAPS   H7S20327   5.212   4.884   3.081  1.0670 -1.0942 -0.7711
  178SAPS   C2820328   5.263   4.921   3.294 -0.2567  0.3415 -0.1382
  178SAPS   H8R20329   5.347   4.991   3.278  0.0292  0.6653  2.3404
  178SAPS   C2920330   5.216   4.920   3.430 -0.1110 -0.0415  0.7144
  178SAPS   H9R20331   5.281   4.978   3.496  0.9861  0.4638 -0.7562
  178SAPS  C21020332   5.101   4.839   3.483  0.5730  0.6457  0.5382
  178SAPS  H10R20333   5.125   4.793   3.582  1.2794 -1.1131 -0.3955
  178SAPS  H10S20334   5.076   4.756   3.413  3.0472 -0.4242  0.7959
  178SAPS  C21120335   4.978   4.922   3.505  1.2398  0.7254  0.5196
  178SAPS  H11R20336   4.917   4.911   3.414  1.8610 -1.4480  0.3020
  178SAPS  C21220337   4.933   4.997   3.611 -0.0541  0.2772 -0.1026
  178SAPS  H12R20338   4.831   5.039   3.607 -0.1659 -0.0766 -1.5545
  178SAPS  C21320339   5.008   5.031   3.735  0.8074  0.4080 -0.6512
  178SAPS  H13R20340   4.941   5.107   3.781  1.0955  1.1378 -1.4184
  178SAPS  H13S20341   5.098   5.092   3.714 -0.6804  1.7557 -3.7911
  178SAPS  C21420342   5.022   4.921   3.842 -1.2846  0.2036 -0.2066
  178SAPS  H14R20343   4.950   4.838   3.839 -1.5185  0.4277 -1.1183
  178SAPS  C21520344   5.128   4.920   3.932  0.1771 -0.7645  0.0839
  178SAPS  H15R20345   5.124   4.843   4.011 -1.0211  0.2351  1.0375
  178SAPS  C21620346   5.229   5.032   3.959  0.2246  0.5495  0.6953
  178SAPS  H16R20347   5.203   5.136   3.930 -0.4450  0.6389  1.5918
  178SAPS  H16S20348   5.320   5.003   3.901  0.9656  1.2370  1.4760
  178SAPS  C21720349   5.275   5.037   4.108  0.9898  0.3776 -0.3051
  178SAPS  H17R20350   5.181   5.036   4.167  0.9743 -1.1888 -0.3250
  178SAPS  H17S20351   5.336   5.129   4.121 -0.6303  1.9293 -2.6750
  178SAPS  C21820352   5.361   4.918   4.148  0.7644  0.6284 -0.4050
  178SAPS  H18R20353   5.463   4.961   4.145  1.2718 -0.5769 -1.4711
  178SAPS  H18S20354   5.363   4.837   4.071 -0.5005 -1.2539  1.4464
  178SAPS  C21920355   5.343   4.860   4.290  0.1876 -0.7914  0.4709
  178SAPS  H19R20356   5.336   4.941   4.366  0.4134  0.1452 -0.4754
  178SAPS  H19S20357   5.439   4.807   4.310  1.3908  0.7276 -1.0135
  178SAPS  C22020358   5.229   4.765   4.289 -0.2164 -0.5343  0.1008
  178SAPS  H20R20359   5.233   4.690   4.207  0.3430  2.0472 -2.4065
  178SAPS  H20S20360   5.144   4.833   4.269  1.1405  0.5818 -2.3381
  178SAPS  H20T20361   5.223   4.728   4.394 -1.0053  1.2833  0.7305
  178SAPS   C3320362   5.099   4.350   3.103  0.7446  0.3436 -0.6882
  178SAPS   H3X20363   5.126   4.243   3.097 -2.7035 -0.7518  0.4796
  178SAPS   H3Y20364   5.011   4.367   3.036  0.2762  1.1638  0.1054
  178SAPS   C3420365   5.046   4.386   3.239 -0.2716  0.6063 -1.3804
  178SAPS   H4X20366   5.006   4.490   3.241  1.5179  1.3611 -2.3445
  178SAPS   H4Y20367   5.127   4.375   3.315  0.7615  1.5080 -2.3217
  178SAPS   C3520368   4.942   4.286   3.290  0.5159  0.0181  0.1014
  178SAPS   H5X20369   4.992   4.187   3.299  0.5165  0.2071  2.7560
  178SAPS   H5Y20370   4.858   4.282   3.218  0.4231 -0.6354  0.2346
  178SAPS   C3620371   4.871   4.336   3.417  0.8913  0.0061  0.1691
  178SAPS   H6X20372   4.803   4.259   3.460  1.0698 -1.8887 -2.6722
  178SAPS   H6Y20373   4.810   4.427   3.401  0.3168 -0.3669  0.2331
  178SAPS   C3720374   4.974   4.386   3.521 -0.0992 -0.1927 -0.5409
  178SAPS   H7X20375   5.022   4.478   3.483 -0.0206 -0.3647 -0.8622
  178SAPS   H7Y20376   5.052   4.312   3.548  1.1244  1.3065  0.2049
  178SAPS   C3820377   4.913   4.421   3.658  0.0807  0.5958 -0.0647
  178SAPS   H8X20378   4.860   4.336   3.705  0.0835  1.7143  2.0964
  178SAPS   H8Y20379   4.844   4.508   3.654 -2.1273 -1.0739  0.4615
  178SAPS   C3920380   5.018   4.442   3.770 -0.0476  0.0699  0.0475
  178SAPS   H9X20381   5.067   4.542   3.766 -0.6054  0.3730  0.5790
  178SAPS   H9Y20382   5.097   4.366   3.755  0.9782  0.7615  1.6708
  178SAPS  C31020383   4.965   4.431   3.915 -0.5697 -0.1591  0.5326
  178SAPS  H10X20384   4.895   4.345   3.922 -0.2842 -0.3893  0.5702
  178SAPS  H10Y20385   4.893   4.515   3.921 -0.6758  0.1604 -2.8386
  178SAPS  C31120386   5.059   4.447   4.030  0.2598  0.1948 -0.1567
  178SAPS  H11X20387   5.100   4.550   4.030 -0.6653  0.5727 -0.2358
  178SAPS  H11Y20388   5.149   4.382   4.024  0.0698 -0.0324 -0.5603
  178SAPS  C31220389   4.996   4.442   4.168  0.0452 -0.7281 -0.2170
  178SAPS  H12X20390   4.907   4.507   4.186  0.2514 -0.9649  1.9213
  178SAPS  H12Y20391   5.075   4.474   4.239 -2.1076  0.0456  1.9738
  178SAPS  C31320392   4.938   4.305   4.215  0.3333  0.5197  0.3107
  178SAPS  H13X20393   5.024   4.236   4.220 -1.2184 -1.4880  0.3379
  178SAPS  H13Y20394   4.877   4.272   4.128  0.8287 -0.1739  0.2206
  178SAPS  C31420395   4.855   4.297   4.341  0.9224 -0.2320 -0.2277
  178SAPS  H14X20396   4.759   4.352   4.346  0.2741 -1.4235  1.1773
  178SAPS  H14Y20397   4.922   4.334   4.421  0.3826  2.8329 -1.0567
  178SAPS  C31520398   4.795   4.157   4.351  0.3552 -0.4167 -0.0941
  178SAPS  H15X20399   4.873   4.081   4.334  0.5942 -0.0417 -0.6875
  178SAPS  H15Y20400   4.719   4.148   4.270 -0.7235 -1.8740  1.0193
  178SAPS  C31620401   4.718   4.138   4.492 -0.2928 -0.3830  0.0281
  178SAPS  H16X20402   4.671   4.038   4.502 -1.2767 -0.1143 -1.5089
  178SAPS  H16Y20403   4.638   4.214   4.496 -0.9784 -1.0740 -0.3068
  178SAPS  C31720404   4.812   4.155   4.613 -0.8425  0.0382 -0.5398
  178SAPS  H17X20405   4.852   4.259   4.622  0.5267 -0.2149 -3.0753
  178SAPS  H17Y20406   4.900   4.091   4.591 -0.4333  0.3621  0.1015
  178SAPS  C31820407   4.752   4.117   4.744 -0.2722 -0.3925 -0.1543
  178SAPS  H18X20408   4.660   4.175   4.769 -1.6895 -2.1821 -0.9451
  178SAPS  H18Y20409   4.827   4.133   4.824  0.6238 -0.3485 -0.9895
  178SAPS  H18Z20410   4.735   4.007   4.748 -0.0005 -0.4016  1.6214
  179SAPS     N20411   0.719   0.580   2.062  0.1957  0.2680  0.0823
  179SAPS   HN120412   0.737   0.651   2.135  0.2918  2.3637 -1.8618
  179SAPS   HN220413   0.672   0.500   2.109  1.3531 -1.2198 -1.1608
  179SAPS   HN320414   0.810   0.543   2.025  0.3813 -0.2796  1.0539
  179SAPS   C1220415   0.619   0.605   1.949 -0.1488 -0.2919  0.2489
  179SAPS  H12A20416   0.655   0.686   1.886 -0.4127 -0.9731 -0.8093
  179SAPS   C1320417   0.588   0.481   1.857  0.5815 -0.4154 -0.0255
  179SAPS  O13A20418   0.639   0.374   1.881 -0.7691  0.5678 -0.2566
  179SAPS  O13B20419   0.503   0.497   1.764  0.9962  0.1457  0.0248
  179SAPS   C1120420   0.494   0.663   2.025  0.1672  0.5019  0.6200
  179SAPS  H11A20421   0.438   0.592   2.090  1.1478 -0.7723  0.1052
  179SAPS  H11B20422   0.422   0.680   1.942  1.4563 -0.3175 -0.6987
  179SAPS     P20423   0.395   0.844   2.161 -0.5206 -0.5014 -0.1654
  179SAPS   O1320424   0.437   0.975   2.208 -0.2009  0.1147 -0.5386
  179SAPS   O1420425   0.275   0.830   2.081  0.0558  0.2963 -0.4079
  179SAPS   O1220426   0.520   0.783   2.085  0.2736  0.1301 -0.2974
  179SAPS   O1120427   0.377   0.749   2.286  0.0015 -0.0931  0.0757
  179SAPS    C120428   0.491   0.698   2.363 -0.3809  0.2549  0.2158
  179SAPS    HA20429   0.530   0.604   2.319  2.3997  1.0973  0.6618
  179SAPS    HB20430   0.574   0.772   2.369  2.9401 -2.9719 -2.0232
  179SAPS    C220431   0.454   0.661   2.514  0.4239  1.0064  0.2870
  179SAPS    HS20432   0.549   0.627   2.562  1.1035  0.4898 -1.3388
  179SAPS   O2120433   0.353   0.558   2.525 -0.6559  0.6007 -0.0815
  179SAPS   C2120434   0.393   0.431   2.508  0.2809 -0.0896 -0.0149
  179SAPS   O2220435   0.497   0.395   2.454 -0.1583 -0.3872 -0.1683
  179SAPS   C2220436   0.286   0.335   2.564  0.2988 -0.0400  1.0812
  179SAPS   H2R20437   0.223   0.368   2.649 -2.3603  0.0137 -0.7883
  179SAPS   H2S20438   0.204   0.329   2.489  0.0042 -0.0051  1.3961
  179SAPS    C320439   0.419   0.787   2.599  0.1060 -0.4513 -0.1791
  179SAPS    HX20440   0.314   0.809   2.572 -0.9656 -2.2708  2.2157
  179SAPS    HY20441   0.495   0.858   2.559  0.7824 -1.8669 -1.5135
  179SAPS   O3120442   0.425   0.762   2.744 -0.1075  0.1484  0.6172
  179SAPS   C3120443   0.431   0.873   2.811 -0.7619  0.0106  0.0305
  179SAPS   O3220444   0.452   0.982   2.766  0.9345 -0.5557  0.0915
  179SAPS   C3220445   0.406   0.843   2.955  0.2693 -0.0521 -0.3470
  179SAPS   H2X20446   0.409   0.733   2.966  0.2391  0.0245  0.4583
  179SAPS   H2Y20447   0.304   0.876   2.984  0.5175  2.9329 -2.3563
  179SAPS   C2320448   0.353   0.201   2.595  0.7020 -0.1299 -0.5288
  179SAPS   H3R20449   0.423   0.146   2.529  0.1214 -2.7604  0.9265
  179SAPS   H3S20450   0.271   0.126   2.598 -2.5158  3.1425  1.0809
  179SAPS   C2420451   0.407   0.193   2.745 -0.7259 -0.1837  0.3421
  179SAPS   H4R20452   0.414   0.083   2.763  0.7952  0.1944  2.4833
  179SAPS   H4S20453   0.340   0.244   2.817 -0.8240  3.5703 -2.1455
  179SAPS   C2520454   0.555   0.231   2.757 -0.0591  0.9759  0.3047
  179SAPS   H5R20455   0.620   0.190   2.678 -1.1801  2.4035 -1.4557
  179SAPS   C2620456   0.612   0.322   2.840 -0.4528 -0.2975  0.1798
  179SAPS   H6R20457   0.721   0.332   2.835 -0.6138  1.1203 -1.1638
  179SAPS   C2720458   0.562   0.406   2.952 -0.9649 -0.0742  0.0022
  179SAPS   H7R20459   0.474   0.462   2.914  0.3381  1.0162 -1.5226
  179SAPS   H7S20460   0.634   0.486   2.979 -1.6915  0.7077 -0.3184
  179SAPS   C2820461   0.519   0.329   3.076  0.3416 -0.7807  0.6697
  179SAPS   H8R20462   0.458   0.241   3.050  1.7022 -0.7669 -3.1563
  179SAPS   C2920463   0.543   0.361   3.202 -0.2597  0.2967 -0.0751
  179SAPS   H9R20464   0.515   0.282   3.273 -1.5086  0.1361 -0.7070
  179SAPS  C21020465   0.608   0.489   3.254 -0.5023  0.2013  0.0691
  179SAPS  H10R20466   0.681   0.532   3.181 -0.4344  0.0848  0.0674
  179SAPS  H10S20467   0.660   0.461   3.348 -2.5116 -1.7596  0.6684
  179SAPS  C21120468   0.508   0.598   3.273  0.3571 -0.4780 -0.2971
  179SAPS  H11R20469   0.471   0.646   3.182 -2.2959  0.0767  0.9659
  179SAPS  C21220470   0.466   0.646   3.390 -0.6554 -0.1216 -0.2784
  179SAPS  H12R20471   0.396   0.731   3.389 -0.7661 -0.2160 -0.6327
  179SAPS  C21320472   0.496   0.588   3.526  0.5964  0.2447  0.7392
  179SAPS  H13R20473   0.531   0.674   3.587  1.5805 -0.8978  1.8188
  179SAPS  H13S20474   0.572   0.508   3.515 -1.7476 -1.8254 -2.9092
  179SAPS  C21420475   0.368   0.532   3.596  0.9873 -0.4255 -0.3218
  179SAPS  H14R20476   0.328   0.435   3.564  2.2278 -1.2833  0.6219
  179SAPS  C21520477   0.297   0.607   3.689 -0.4648  0.4213 -0.7677
  179SAPS  H15R20478   0.202   0.566   3.726 -0.3411 -0.0222 -0.9365
  179SAPS  C21620479   0.343   0.740   3.736 -0.9664  0.2384  0.6312
  179SAPS  H16R20480   0.329   0.805   3.647 -0.3412  0.3635  0.6140
  179SAPS  H16S20481   0.447   0.741   3.776 -0.3159  0.6902 -0.9993
  179SAPS  C21720482   0.247   0.798   3.840  0.3913  0.3885 -1.0875
  179SAPS  H17R20483   0.142   0.772   3.814 -0.9234  1.9750  2.0832
  179SAPS  H17S20484   0.250   0.909   3.840  0.0811  0.5480  3.2677
  179SAPS  C21820485   0.261   0.737   3.981  0.3707 -0.0479  0.2036
  179SAPS  H18R20486   0.369   0.741   4.009  0.2052  0.8087  0.7380
  179SAPS  H18S20487   0.242   0.628   3.970 -0.6298  0.2948 -2.0781
  179SAPS  C21920488   0.166   0.804   4.078 -0.3358 -0.5939 -0.3145
  179SAPS  H19R20489   0.063   0.823   4.040 -0.6831 -0.3197  0.7331
  179SAPS  H19S20490   0.201   0.908   4.097  0.6956 -0.3916 -2.9129
  179SAPS  C22020491   0.143   0.734   4.212  0.4637 -0.5635  1.1232
  179SAPS  H20R20492   0.111   0.807   4.289  1.3466  1.3297 -0.2218
  179SAPS  H20S20493   0.237   0.684   4.245  0.7391 -1.1917 -0.5225
  179SAPS  H20T20494   0.075   0.648   4.194  1.9232 -1.7565  1.0806
  179SAPS   C3320495   0.514   0.915   3.034  0.1923  0.4796 -0.0040
  179SAPS   H3X20496   0.493   0.890   3.140  1.1512 -1.6569 -0.2676
  179SAPS   H3Y20497   0.492   1.023   3.016 -0.4312  0.0903 -1.8947
  179SAPS   C3420498   0.656   0.856   2.998  0.2143 -0.5403 -0.4386
  179SAPS   H4X20499   0.689   0.902   2.902  1.3544 -0.5065 -0.0418
  179SAPS   H4Y20500   0.656   0.745   2.999 -0.3367 -0.5411 -0.2161
  179SAPS   C3520501   0.752   0.913   3.111  0.0144 -0.6832  0.0141
  179SAPS   H5X20502   0.700   0.913   3.210  0.7065 -0.5253  0.3813
  179SAPS   H5Y20503   0.767   1.022   3.094 -0.8923 -0.8578 -2.1428
  179SAPS   C3620504   0.887   0.839   3.116  0.0298  0.0948 -0.6559
  179SAPS   H6X20505   0.929   0.851   3.014  0.9624 -0.1027 -0.3021
  179SAPS   H6Y20506   0.851   0.733   3.118 -2.8015  0.9834  0.6748
  179SAPS   C3720507   0.979   0.890   3.231  0.7480 -0.2401  0.3516
  179SAPS   H7X20508   1.006   0.997   3.216 -2.7930  0.7547  0.2534
  179SAPS   H7Y20509   1.075   0.836   3.220  0.6877 -0.2237 -0.2900
  179SAPS   C3820510   0.926   0.851   3.368  0.2738 -0.1355  0.7908
  179SAPS   H8X20511   0.826   0.894   3.392 -0.1529 -1.8222  2.3615
  179SAPS   H8Y20512   0.994   0.893   3.444 -0.3318  1.5101  0.4649
  179SAPS   C3920513   0.917   0.693   3.383  0.3867  0.4127  0.0607
  179SAPS   H9X20514   1.016   0.649   3.357 -0.0988  0.0817 -1.3267
  179SAPS   H9Y20515   0.856   0.644   3.304 -0.0079  1.0575 -0.0429
  179SAPS  C31020516   0.869   0.649   3.526  0.2028 -0.2210  0.1508
  179SAPS  H10X20517   0.879   0.538   3.521 -2.3202 -0.4637 -1.0243
  179SAPS  H10Y20518   0.763   0.678   3.534  0.3138  0.6874 -1.3146
  179SAPS  C31120519   0.944   0.728   3.642  0.7727  0.0643 -0.4150
  179SAPS  H11X20520   0.933   0.839   3.646 -0.1426 -0.0498  2.0517
  179SAPS  H11Y20521   1.053   0.710   3.634  1.2165  2.0371  0.4788
  179SAPS  C31220522   0.891   0.691   3.787 -0.2040  0.2965  0.3160
  179SAPS  H12X20523   0.977   0.710   3.854 -0.1184  0.7589  0.0820
  179SAPS  H12Y20524   0.873   0.582   3.784 -0.8237  0.4031  0.0071
  179SAPS  C31320525   0.757   0.757   3.828  0.2811 -0.0605  0.0739
  179SAPS  H13X20526   0.691   0.738   3.741  1.4158  0.7079 -1.0004
  179SAPS  H13Y20527   0.769   0.866   3.845  1.0282 -0.1853  0.4126
  179SAPS  C31420528   0.702   0.692   3.955  0.4815  0.6135  0.7330
  179SAPS  H14X20529   0.706   0.582   3.944  0.9783  0.8189 -1.7406
  179SAPS  H14Y20530   0.595   0.720   3.967 -0.4449 -1.3049 -2.0663
  179SAPS  C31520531   0.782   0.727   4.084 -0.5133 -0.1185  0.0845
  179SAPS  H15X20532   0.789   0.836   4.099 -0.3439 -0.1851  0.5075
  179SAPS  H15Y20533   0.885   0.694   4.057  0.4592  2.6088  0.1983
  179SAPS  C31620534   0.738   0.640   4.204 -0.0102 -0.5937  0.6533
  179SAPS  H16X20535   0.818   0.622   4.279  1.1271  0.7147 -0.1994
  179SAPS  H16Y20536   0.703   0.540   4.172 -0.9565 -0.2064  0.4315
  179SAPS  C31720537   0.619   0.702   4.275 -1.0359  0.0548  0.0764
  179SAPS  H17X20538   0.542   0.745   4.206 -0.2575  0.1042 -0.7825
  179SAPS  H17Y20539   0.643   0.788   4.341 -2.6586 -1.5023  2.8792
  179SAPS  C31820540   0.552   0.599   4.373  0.3404 -0.0310 -0.3033
  179SAPS  H18X20541   0.516   0.514   4.311  1.9400 -0.3638 -0.8159
  179SAPS  H18Y20542   0.473   0.645   4.436  2.0287  0.8856  1.2427
  179SAPS  H18Z20543   0.634   0.564   4.439  1.4044  1.2055 -0.9424
  180SAPS     N20544   1.195   6.905   1.932  0.5015 -0.0439  0.4143
  180SAPS   HN120545   1.169   6.832   1.864  2.0791  0.5472 -0.8619
  180SAPS   HN220546   1.130   6.919   2.012  1.1408  0.6939  0.8219
  180SAPS   HN320547   1.206   6.991   1.874  0.0104 -1.2723 -1.5831
  180SAPS   C1220548   1.323   6.870   2.005 -0.1605  0.3026  0.9180
  180SAPS  H12A20549   1.406   6.849   1.939  0.8877  0.7721  2.0278
  180SAPS   C1320550   1.379   6.971   2.104 -0.0371 -0.1548 -0.3153
  180SAPS  O13A20551   1.336   7.085   2.101 -0.0585 -0.1293  0.5249
  180SAPS  O13B20552   1.483   6.940   2.161 -0.3229 -0.1743  0.4351
  180SAPS   C1120553   1.308   6.730   2.069 -0.1887 -0.0088  0.5130
  180SAPS  H11A20554   1.250   6.749   2.162  1.4206  2.5014  1.1108
  180SAPS  H11B20555   1.407   6.693   2.105 -0.2337 -0.0365  0.6109
  180SAPS     P20556   1.236   6.488   1.974 -0.0528  0.8325  0.3856
  180SAPS   O1320557   1.111   6.454   2.043 -0.6251 -0.2951  0.2614
  180SAPS   O1420558   1.238   6.441   1.834  0.3862  0.4527 -0.1896
  180SAPS   O1220559   1.245   6.642   1.972  0.4653 -0.1212 -0.2348
  180SAPS   O1120560   1.363   6.434   2.065  0.3679 -0.7582  0.3081
  180SAPS    C120561   1.486   6.404   1.997  0.2351  0.3518  0.7981
  180SAPS    HA20562   1.472   6.325   1.921  0.8295  0.0009  1.0446
  180SAPS    HB20563   1.521   6.491   1.937 -0.8206 -0.0549 -0.4652
  180SAPS    C220564   1.594   6.354   2.095 -0.8797  1.0950 -0.0884
  180SAPS    HS20565   1.683   6.315   2.042 -0.6041 -3.4534  3.1648
  180SAPS   O2120566   1.545   6.247   2.178 -0.5842  0.1879 -0.6402
  180SAPS   C2120567   1.510   6.135   2.125 -0.0174 -0.1003  0.6487
  180SAPS   O2220568   1.509   6.110   2.004  0.7470  0.4354  0.3361
  180SAPS   C2220569   1.494   6.029   2.236  0.8209  0.1635  0.2327
  180SAPS   H2R20570   1.594   5.985   2.254  1.5905  1.3550 -0.9172
  180SAPS   H2S20571   1.472   6.077   2.333  3.4626  1.7930  0.1456
  180SAPS    C320572   1.641   6.472   2.179  0.0802 -0.1023 -0.6618
  180SAPS    HX20573   1.554   6.511   2.237  0.0593 -3.9520  2.3294
  180SAPS    HY20574   1.674   6.554   2.113  0.5839 -0.8359 -1.3282
  180SAPS   O3120575   1.748   6.441   2.269  0.8003 -0.0232 -0.3317
  180SAPS   C3120576   1.698   6.381   2.388 -0.1515 -0.4352  0.1561
  180SAPS   O3220577   1.578   6.376   2.409 -0.3020  0.1564  0.3913
  180SAPS   C3220578   1.803   6.339   2.495  0.3530  0.2656  0.2281
  180SAPS   H2X20579   1.886   6.412   2.489  1.3864 -0.8292  0.8132
  180SAPS   H2Y20580   1.837   6.237   2.468 -2.0437 -0.5388 -0.0302
  180SAPS   C2320581   1.406   5.912   2.191 -0.8474 -0.3081  0.5270
  180SAPS   H3R20582   1.415   5.829   2.264  1.5256  0.0020  0.6703
  180SAPS   H3S20583   1.453   5.879   2.096  1.1907  2.0180  0.6299
  180SAPS   C2420584   1.261   5.953   2.180  0.4083  0.5733  0.3607
  180SAPS   H4R20585   1.205   5.889   2.109  0.8863  1.3456 -0.7475
  180SAPS   H4S20586   1.247   6.055   2.138  3.6492  0.4600 -1.3262
  180SAPS   C2520587   1.188   5.941   2.315  0.6054  0.4721  0.4123
  180SAPS   H5R20588   1.173   6.038   2.365  0.4710  1.7814 -1.9922
  180SAPS   C2620589   1.168   5.826   2.389 -0.3535  0.5043 -0.1034
  180SAPS   H6R20590   1.117   5.835   2.486 -1.7503  2.2875 -0.9392
  180SAPS   C2720591   1.211   5.686   2.351  0.9359  0.2980 -0.4076
  180SAPS   H7R20592   1.224   5.687   2.241 -1.2655 -0.0617 -0.7254
  180SAPS   H7S20593   1.123   5.625   2.380  0.7415  0.3851 -0.8106
  180SAPS   C2820594   1.335   5.629   2.403  0.0388 -0.1394 -0.2266
  180SAPS   H8R20595   1.427   5.634   2.342  0.1513 -2.3703 -0.3262
  180SAPS   C2920596   1.345   5.551   2.503  0.4011 -0.2829 -0.5053
  180SAPS   H9R20597   1.443   5.506   2.527 -0.2649  0.1380  3.6838
  180SAPS  C21020598   1.228   5.528   2.594  0.8377  0.0353  0.6420
  180SAPS  H10R20599   1.169   5.440   2.562  0.7883  0.0638  0.6570
  180SAPS  H10S20600   1.156   5.612   2.596 -2.3977 -2.4327 -1.6211
  180SAPS  C21120601   1.285   5.507   2.737 -0.4121  0.8535 -0.5328
  180SAPS  H11R20602   1.334   5.410   2.749  1.6663  1.8419 -0.6717
  180SAPS  C21220603   1.259   5.579   2.851  0.6325  1.0638  0.2186
  180SAPS  H12R20604   1.305   5.543   2.944 -1.2885 -0.0871  0.7878
  180SAPS  C21320605   1.171   5.702   2.871 -0.1134 -0.2622 -0.2055
  180SAPS  H13R20606   1.089   5.683   2.944 -2.9441  0.5548 -2.9663
  180SAPS  H13S20607   1.109   5.723   2.782  0.6986  0.9150 -0.5187
  180SAPS  C21420608   1.240   5.833   2.904  0.0509  0.0975 -0.5156
  180SAPS  H14R20609   1.252   5.895   2.813  0.9635  2.3370  1.0507
  180SAPS  C21520610   1.273   5.885   3.026  0.8373 -0.4252  0.1716
  180SAPS  H15R20611   1.329   5.980   3.033  1.3325 -0.5536 -1.5365
  180SAPS  C21620612   1.249   5.818   3.166  0.0581 -0.4475  0.2672
  180SAPS  H16R20613   1.196   5.720   3.163 -0.8596  0.0118  1.0131
  180SAPS  H16S20614   1.192   5.886   3.233  0.6959  1.1904 -0.8004
  180SAPS  C21720615   1.387   5.785   3.225 -0.5148 -0.3149 -0.6299
  180SAPS  H17R20616   1.439   5.882   3.242 -0.1212 -0.5483 -0.4865
  180SAPS  H17S20617   1.433   5.718   3.149  1.1424  1.2000 -1.0263
  180SAPS  C21820618   1.388   5.701   3.359 -0.2454  1.0471  0.9231
  180SAPS  H18R20619   1.495   5.700   3.389  0.0054  1.0676  0.0640
  180SAPS  H18S20620   1.358   5.595   3.343  0.9382  0.8743 -0.3803
  180SAPS  C21920621   1.301   5.780   3.465  0.6025  0.6776  0.0947
  180SAPS  H19R20622   1.278   5.711   3.549  1.5457  2.2887  1.7553
  180SAPS  H19S20623   1.199   5.791   3.423  0.2083 -0.8240  0.5935
  180SAPS  C22020624   1.364   5.907   3.522 -0.5912  0.2165 -0.0509
  180SAPS  H20R20625   1.296   5.952   3.597 -0.3925  2.0654 -0.9235
  180SAPS  H20S20626   1.461   5.884   3.571 -1.4277  0.7072  1.9003
  180SAPS  H20T20627   1.385   5.992   3.452  0.3619  0.0497  0.0168
  180SAPS   C3320628   1.736   6.336   2.634  0.6909 -0.8653  0.1824
  180SAPS   H3X20629   1.644   6.274   2.628 -1.1942  1.8523 -1.2306
  180SAPS   H3Y20630   1.689   6.435   2.650 -0.1176 -1.1441 -0.4190
  180SAPS   C3420631   1.841   6.306   2.746 -0.1520 -0.0721  0.1469
  180SAPS   H4X20632   1.924   6.376   2.724 -0.7494  1.0964  1.4820
  180SAPS   H4Y20633   1.882   6.203   2.743 -2.5201 -1.0814 -0.1158
  180SAPS   C3520634   1.784   6.335   2.886 -0.0861 -0.1643 -0.1074
  180SAPS   H5X20635   1.853   6.290   2.961  0.0234  0.6156  0.2684
  180SAPS   H5Y20636   1.684   6.287   2.899  0.9933 -2.2625  0.9913
  180SAPS   C3620637   1.761   6.486   2.910 -0.0491  0.7279 -0.4516
  180SAPS   H6X20638   1.668   6.512   2.856 -0.3219  1.3538  0.2974
  180SAPS   H6Y20639   1.839   6.551   2.864 -0.6832  1.1809 -0.8906
  180SAPS   C3720640   1.748   6.528   3.049 -0.0430 -0.0505 -0.9308
  180SAPS   H7X20641   1.680   6.450   3.089  0.7130 -0.6246 -0.7549
  180SAPS   H7Y20642   1.701   6.629   3.054  0.4492  0.1073  1.1937
  180SAPS   C3820643   1.874   6.540   3.139  0.1800 -0.1107 -0.2372
  180SAPS   H8X20644   1.936   6.606   3.074  0.3525 -0.6389 -0.6192
  180SAPS   H8Y20645   1.928   6.443   3.149  0.8971  0.0090 -2.3280
  180SAPS   C3920646   1.864   6.604   3.276  0.1743 -0.0135 -0.3445
  180SAPS   H9X20647   1.789   6.687   3.274 -1.8503 -1.7418 -0.2731
  180SAPS   H9Y20648   1.966   6.629   3.310 -0.6044  0.6413  1.6745
  180SAPS  C31020649   1.808   6.509   3.385  0.0501  1.1372 -0.0458
  180SAPS  H10X20650   1.864   6.413   3.376 -1.4430  0.0376  1.6849
  180SAPS  H10Y20651   1.705   6.488   3.349 -0.1659  1.0778  0.6062
  180SAPS  C31120652   1.816   6.561   3.536  0.5893  0.2609 -0.1051
  180SAPS  H11X20653   1.920   6.554   3.572  0.8889  1.6134 -0.6228
  180SAPS  H11Y20654   1.751   6.491   3.593  2.0976 -1.3204 -0.2393
  180SAPS  C31220655   1.762   6.703   3.556  0.3064  0.5735 -0.1832
  180SAPS  H12X20656   1.656   6.698   3.521  0.0345 -1.5175  0.8139
  180SAPS  H12Y20657   1.811   6.773   3.485  0.4381 -0.3294 -1.0033
  180SAPS  C31320658   1.777   6.758   3.695  0.8884  0.4693  0.1680
  180SAPS  H13X20659   1.704   6.837   3.723 -0.2962 -1.3989  2.7951
  180SAPS  H13Y20660   1.880   6.799   3.698  0.3326  2.0662 -0.8242
  180SAPS  C31420661   1.754   6.660   3.812  0.0113  0.6280 -0.3569
  180SAPS  H14X20662   1.833   6.583   3.818 -0.0976  0.5903  1.1699
  180SAPS  H14Y20663   1.659   6.602   3.801  0.3077 -0.0928  0.7057
  180SAPS  C31520664   1.747   6.739   3.945 -0.0445  0.6874  0.2193
  180SAPS  H15X20665   1.668   6.817   3.943 -0.5265  0.2697 -3.2746
  180SAPS  H15Y20666   1.841   6.798   3.954  0.4957 -0.0716 -0.3352
  180SAPS  C31620667   1.707   6.645   4.054  0.3166  0.4287 -0.3176
  180SAPS  H16X20668   1.628   6.575   4.016  0.2036 -0.4078  1.3764
  180SAPS  H16Y20669   1.677   6.706   4.142  2.7720  0.1724  0.7801
  180SAPS  C31720670   1.842   6.568   4.091  0.3979 -0.0530 -0.4647
  180SAPS  H17X20671   1.906   6.658   4.108 -1.6697  1.3131  0.4713
  180SAPS  H17Y20672   1.889   6.508   4.010  1.7737  0.4594 -0.0872
  180SAPS  C31820673   1.833   6.469   4.205  0.0181  0.3140 -0.1497
  180SAPS  H18X20674   1.932   6.438   4.245 -0.6968 -2.5445 -0.3878
  180SAPS  H18Y20675   1.784   6.374   4.173 -0.4216 -0.4777  2.6155
  180SAPS  H18Z20676   1.766   6.510   4.283  1.2482  1.3236  0.4103
  181POPC     N20677   5.540   2.080   7.110 -0.3564  0.2648 -0.3103
  181POPC   C1220678   5.658   2.167   7.066 -0.1252  0.0776  0.6485
  181POPC  H12A20679   5.733   2.158   7.144  1.3998  0.3959 -0.7228
  181POPC  H12B20680   5.645   2.274   7.075  2.7402  0.6360 -0.5641
  181POPC   C1320681   5.574   1.937   7.115  0.2371 -0.6337  0.1874
  181POPC  H13A20682   5.493   1.868   7.135  1.0944 -0.9163  3.0663
  181POPC  H13B20683   5.614   1.909   7.018 -0.2534  2.4812 -1.0460
  181POPC  H13C20684   5.650   1.921   7.190  0.9286 -1.9587 -0.7486
  181POPC   C1420685   5.468   2.130   7.228 -0.0656  0.4876  0.0200
  181POPC  H14A20686   5.428   2.229   7.212 -1.9821 -0.0401  1.2503
  181POPC  H14B20687   5.387   2.064   7.254  0.4493 -0.1772 -0.0195
  181POPC  H14C20688   5.534   2.139   7.313  0.5259  1.7049 -0.5401
  181POPC   C1520689   5.433   2.088   7.012 -0.1812 -0.8436  0.4279
  181POPC  H15A20690   5.338   2.051   7.048  0.7655 -2.8514  1.0199
  181POPC  H15B20691   5.460   2.036   6.921 -2.1243  0.4380 -0.9555
  181POPC  H15C20692   5.417   2.191   6.983  0.8179 -1.2368 -1.6780
  181POPC   C1120693   5.722   2.129   6.932 -0.3247  0.0063 -0.3934
  181POPC  H11A20694   5.797   2.207   6.907 -0.9479  1.8321  2.9058
  181POPC  H11B20695   5.638   2.132   6.860 -0.8605 -0.4361  0.2012
  181POPC     P20696   5.921   1.973   6.984  0.3270  0.1557  0.0837
  181POPC   O1320697   5.899   1.856   7.074 -0.6122  0.0204  0.0537
  181POPC   O1420698   5.969   2.100   7.053  0.5775 -1.0110 -0.3610
  181POPC   O1220699   5.779   2.004   6.923 -0.0580  0.1948  0.3950
  181POPC   O1120700   6.014   1.926   6.865 -0.2800 -0.4003 -0.2004
  181POPC    C120701   6.064   2.007   6.759  1.0384  0.0848  0.6931
  181POPC    HA20702   6.175   1.998   6.754  1.2222  2.2861 -1.1253
  181POPC    HB20703   6.037   2.115   6.758  1.9931  0.4554 -3.3393
  181POPC    C220704   6.029   1.946   6.620 -0.3063 -0.0403 -0.0957
  181POPC    HS20705   6.105   1.984   6.548 -1.7301  0.9118 -1.1568
  181POPC   O2120706   5.896   1.988   6.589  0.1993 -0.7781  0.0253
  181POPC   C2120707   5.882   2.115   6.534  0.0248  0.5668 -0.2061
  181POPC   O2220708   5.976   2.188   6.510  0.2420 -0.3438  0.4465
  181POPC   C2220709   5.734   2.144   6.510  0.9392 -0.1910  0.1088
  181POPC   H2R20710   5.681   2.165   6.606 -0.9020  2.6044 -1.3784
  181POPC   H2S20711   5.678   2.053   6.480 -0.5014  0.4442  0.7607
  181POPC    C320712   6.037   1.786   6.621 -0.3428  0.1776  0.5994
  181POPC    HX20713   5.953   1.755   6.686 -1.3709  1.2862 -0.1646
  181POPC    HY20714   6.130   1.748   6.669  0.7211 -0.4284 -1.8115
  181POPC   O3120715   6.022   1.727   6.494 -0.0730  0.0218  0.2704
  181POPC   C3120716   5.897   1.704   6.450 -0.0149  0.0252 -0.1233
  181POPC   O3220717   5.798   1.745   6.503 -0.1005 -0.2348  0.1892
  181POPC   C3220718   5.903   1.621   6.324 -0.1198 -0.2220  0.5577
  181POPC   H2X20719   5.864   1.520   6.348 -1.7850 -0.1975 -1.6861
  181POPC   H2Y20720   6.005   1.621   6.279 -0.1200  1.1749  0.5159
  181POPC   C2320721   5.700   2.265   6.413 -0.4822 -0.2357  0.4012
  181POPC   H3R20722   5.784   2.336   6.399 -0.3765 -0.6034 -0.9544
  181POPC   H3S20723   5.614   2.315   6.462 -2.0942 -1.3937 -1.1283
  181POPC   C2420724   5.639   2.220   6.276  0.4062  0.4051  0.1912
  181POPC   H4R20725   5.548   2.162   6.301  1.9943 -1.1563  2.8171
  181POPC   H4S20726   5.710   2.161   6.214  1.0392 -0.7481  1.9512
  181POPC   C2520727   5.582   2.336   6.192 -0.6179  0.1472  0.4238
  181POPC   H5R20728   5.673   2.393   6.164 -0.3351  0.8470  2.5694
  181POPC   H5S20729   5.518   2.404   6.253 -2.6234 -0.5281 -0.8386
  181POPC   C2620730   5.503   2.274   6.077  0.1085  0.4448  0.1554
  181POPC   H6R20731   5.438   2.351   6.031  1.7253  0.4755 -2.2477
  181POPC   H6S20732   5.430   2.203   6.120 -1.3429  2.0534  0.4414
  181POPC   C2720733   5.587   2.205   5.964  0.2738 -0.4351 -0.3161
  181POPC   H7R20734   5.518   2.169   5.885  0.5939  2.5246 -2.1005
  181POPC   H7S20735   5.637   2.121   6.016 -1.4467 -0.2432  1.7771
  181POPC   C2820736   5.700   2.292   5.905  0.4115 -0.2279 -0.1942
  181POPC   H8R20737   5.762   2.230   5.838  0.9949  1.7860 -1.6170
  181POPC   H8S20738   5.765   2.328   5.988  1.0423  1.1373 -1.2527
  181POPC   C2920739   5.637   2.408   5.834  0.3028 -0.1467  0.8245
  181POPC   H9120740   5.623   2.501   5.891  0.4471  1.5180 -1.7067
  181POPC  C21020741   5.613   2.400   5.700  0.0422 -0.9304 -0.2847
  181POPC  H10120742   5.572   2.493   5.657  2.0048  1.1917  2.1695
  181POPC  C21120743   5.645   2.289   5.602  0.4021  0.2688  0.0760
  181POPC  H11R20744   5.545   2.251   5.571 -0.3930  1.4735  1.0874
  181POPC  H11S20745   5.709   2.202   5.628  0.1713 -0.5317 -1.8529
  181POPC  C21220746   5.703   2.354   5.474  0.9259 -0.3443  0.1463
  181POPC  H12R20747   5.809   2.385   5.487  0.8743  0.7055 -1.6182
  181POPC  H12S20748   5.641   2.440   5.442 -0.0492 -1.2037 -0.3189
  181POPC  C21320749   5.701   2.247   5.358  0.2231 -0.9100 -0.0684
  181POPC  H13R20750   5.600   2.202   5.347  0.1346 -0.6783 -0.1994
  181POPC  H13S20751   5.772   2.167   5.389  0.7657 -0.1103  0.7931
  181POPC  C21420752   5.734   2.310   5.221 -0.7041 -0.2068 -0.7231
  181POPC  H14R20753   5.835   2.355   5.211 -1.5943  1.5197 -2.9242
  181POPC  H14S20754   5.668   2.395   5.195  0.4733  1.2967  0.9975
  181POPC  C21520755   5.719   2.216   5.100  0.3522 -0.0191  0.5502
  181POPC  H15R20756   5.621   2.167   5.081  0.9720 -1.3124  0.5250
  181POPC  H15S20757   5.785   2.128   5.119  0.5487  0.3092  1.4527
  181POPC  C21620758   5.780   2.290   4.979 -0.6349 -0.1589  0.2309
  181POPC  H16R20759   5.883   2.325   5.003 -0.7300  0.7111 -0.5748
  181POPC  H16S20760   5.718   2.378   4.950 -0.9369  0.0518  1.4362
  181POPC  C21720761   5.783   2.202   4.846  0.2717  0.0414 -0.6236
  181POPC  H17R20762   5.840   2.108   4.863 -2.2243 -0.9543  3.4313
  181POPC  H17S20763   5.846   2.261   4.777  0.1153 -2.2903 -2.9502
  181POPC  C21820764   5.654   2.151   4.792 -0.0553 -0.1365 -0.0821
  181POPC  H18R20765   5.596   2.098   4.871  0.4925 -0.2685  0.2345
  181POPC  H18S20766   5.664   2.068   4.719  0.0844 -0.4431  0.2824
  181POPC  H18T20767   5.592   2.228   4.742  0.2922  1.3192  1.6265
  181POPC   C3320768   5.820   1.678   6.209 -0.4816 -0.2203  0.0512
  181POPC   H3X20769   5.711   1.671   6.229 -0.6878  0.8017 -0.6034
  181POPC   H3Y20770   5.831   1.621   6.114 -1.1665 -1.4276  0.6762
  181POPC   C3420771   5.851   1.825   6.179 -0.9618 -0.3508 -0.2495
  181POPC   H4X20772   5.962   1.822   6.172 -0.9293  1.6406 -1.1534
  181POPC   H4Y20773   5.836   1.887   6.269  0.6473  0.3699 -0.4575
  181POPC   C3520774   5.779   1.880   6.054  0.1473  0.2888 -0.2391
  181POPC   H5X20775   5.813   1.984   6.039  3.4703 -0.8389 -1.3353
  181POPC   H5Y20776   5.669   1.886   6.071  0.1401  0.9893 -0.5218
  181POPC   C3620777   5.814   1.815   5.914  0.0316  0.3445 -0.5754
  181POPC   H6X20778   5.761   1.718   5.901  1.5175 -0.4296 -1.0918
  181POPC   H6Y20779   5.921   1.789   5.908 -0.2492 -1.2685  0.7813
  181POPC   C3720780   5.777   1.905   5.798 -0.1741 -0.7021  0.5420
  181POPC   H7X20781   5.855   1.981   5.777  0.8085 -1.7441  0.3586
  181POPC   H7Y20782   5.690   1.953   5.847  1.5117  0.3582  2.6562
  181POPC   C3820783   5.737   1.827   5.669  0.4982  0.5061 -0.0443
  181POPC   H8X20784   5.673   1.744   5.707  2.2760  0.0137  2.0928
  181POPC   H8Y20785   5.831   1.775   5.643  0.1334 -0.7869  1.1186
  181POPC   C3920786   5.686   1.917   5.564 -0.7940 -0.1977  0.3650
  181POPC   H9X20787   5.763   1.997   5.558  1.6482 -2.3904  0.6465
  181POPC   H9Y20788   5.587   1.958   5.595 -1.9812  0.2741 -3.4058
  181POPC  C31020789   5.667   1.857   5.422  0.0042  0.1406 -0.3404
  181POPC  H10X20790   5.607   1.932   5.365 -1.5413 -0.2195  0.7572
  181POPC  H10Y20791   5.609   1.762   5.425  2.2140 -1.2392  1.4527
  181POPC  C31120792   5.800   1.842   5.347  1.3162 -0.1476  0.6718
  181POPC  H11X20793   5.871   1.785   5.411 -0.7810 -1.4544  1.9425
  181POPC  H11Y20794   5.847   1.941   5.330  0.4629  0.3076  0.8835
  181POPC  C31220795   5.792   1.769   5.209 -0.7369 -0.1299 -0.1447
  181POPC  H12X20796   5.725   1.830   5.145 -3.7148 -2.6599  0.3546
  181POPC  H12Y20797   5.749   1.668   5.228 -1.1274  0.3168  1.4610
  181POPC  C31320798   5.927   1.767   5.141 -0.2787 -0.2571  0.0801
  181POPC  H13X20799   5.999   1.735   5.219 -2.9333  0.9690  3.2788
  181POPC  H13Y20800   5.960   1.871   5.118 -1.8318  0.4314  0.7960
  181POPC  C31420801   5.940   1.689   5.015 -0.1778 -0.7416 -0.2985
  181POPC  H14X20802   5.911   1.582   5.019  3.6306 -2.0014 -1.9234
  181POPC  H14Y20803   6.045   1.688   4.981 -0.6482 -2.0291 -1.8488
  181POPC  C31520804   5.848   1.764   4.908 -0.1246  0.0149 -0.8277
  181POPC  H15X20805   5.868   1.873   4.911  1.3203 -0.2387 -0.8162
  181POPC  H15Y20806   5.740   1.749   4.932 -0.7035  1.9282 -1.9986
  181POPC  C31620807   5.862   1.716   4.760  0.5457 -0.6365 -0.9963
  181POPC  H16X20808   5.867   1.606   4.769  2.6762 -0.4339  1.9114
  181POPC  H16Y20809   5.961   1.739   4.715  0.7317 -0.3244 -0.4402
  181POPC  H16Z20810   5.786   1.771   4.700  2.7121  3.8344 -0.0826
  182POPC     N20811   4.542   0.098   6.837  0.1466 -0.0436  0.9067
  182POPC   C1220812   4.477   0.107   6.698 -0.4592 -0.0944  0.8860
  182POPC  H12A20813   4.455   0.211   6.680 -0.7571 -0.3253 -0.1519
  182POPC  H12B20814   4.383   0.053   6.697 -0.4203 -0.4258  3.9880
  182POPC   C1320815   4.663   0.197   6.840 -0.0506  0.4284 -0.5627
  182POPC  H13A20816   4.750   0.160   6.787 -0.6627 -0.6412 -0.8433
  182POPC  H13B20817   4.650   0.301   6.813 -2.5178  0.3091 -0.0421
  182POPC  H13C20818   4.679   0.215   6.945 -0.6447  0.7777 -0.5303
  182POPC   C1420819   4.452   0.155   6.947  0.3339  0.1682  0.1407
  182POPC  H14A20820   4.452   0.261   6.928 -1.1122 -0.0013 -1.0023
  182POPC  H14B20821   4.352   0.116   6.942  0.2335  0.5499 -1.4676
  182POPC  H14C20822   4.508   0.142   7.038  0.9696  0.2097 -0.2335
  182POPC   C1520823   4.581  -0.035   6.877 -0.2505  0.2096 -0.1908
  182POPC  H15A20824   4.649  -0.082   6.808 -0.5603 -0.1414 -0.2629
  182POPC  H15B20825   4.493  -0.097   6.876  0.6727 -1.1478 -0.5445
  182POPC  H15C20826   4.636  -0.020   6.969 -1.0902  0.0378  0.3503
  182POPC   C1120827   4.569   0.064   6.584  0.0015  0.2177 -0.5867
  182POPC  H11A20828   4.674   0.100   6.595 -0.1849  0.5328  0.2070
  182POPC  H11B20829   4.534   0.109   6.488 -1.5005  0.4025  0.0256
  182POPC     P20830   4.427  -0.160   6.533 -0.1721 -0.0608  0.5431
  182POPC   O1320831   4.327  -0.163   6.643 -0.0328  0.1860  0.1842
  182POPC   O1420832   4.472  -0.288   6.476  0.2143  0.3188  0.2257
  182POPC   O1220833   4.557  -0.082   6.571  0.5605 -0.0335  0.2494
  182POPC   O1120834   4.357  -0.082   6.410  0.4857  0.2646 -0.6560
  182POPC    C120835   4.430  -0.037   6.293  0.2225 -0.7228  0.0472
  182POPC    HA20836   4.541  -0.046   6.296  0.2709 -0.2879 -0.3293
  182POPC    HB20837   4.413   0.070   6.269 -0.8385 -0.4751  1.7447
  182POPC    C220838   4.376  -0.118   6.166  0.6702 -0.0478  0.2794
  182POPC    HS20839   4.455  -0.092   6.092  0.1987 -1.3266 -0.6857
  182POPC   O2120840   4.250  -0.070   6.125  0.2446  0.2927 -0.3809
  182POPC   C2120841   4.244   0.054   6.075  0.0216 -0.1361  0.7947
  182POPC   O2220842   4.345   0.119   6.057  0.2219 -0.3069 -0.5829
  182POPC   C2220843   4.099   0.096   6.032 -0.7932  0.1576  0.4617
  182POPC   H2R20844   4.098   0.205   6.010 -0.9081 -0.3383 -2.3974
  182POPC   H2S20845   4.039   0.078   6.124 -2.4683  1.8003 -0.2222
  182POPC    C320846   4.362  -0.275   6.186 -0.5075 -0.2036  0.2738
  182POPC    HX20847   4.274  -0.293   6.250 -0.3084  2.2651  1.3554
  182POPC    HY20848   4.456  -0.296   6.242 -0.1604 -0.0264 -0.2314
  182POPC   O3120849   4.366  -0.352   6.059 -0.5642 -0.4867  0.5897
  182POPC   C3120850   4.262  -0.433   6.043  0.0196  0.1668 -0.6742
  182POPC   O3220851   4.178  -0.460   6.130 -0.2340 -0.2747 -0.4038
  182POPC   C3220852   4.256  -0.477   5.895  0.0873  0.0826  0.3069
  182POPC   H2X20853   4.171  -0.547   5.887 -1.5525  2.1305 -1.6777
  182POPC   H2Y20854   4.358  -0.519   5.884  1.5109  3.4392 -0.7096
  182POPC   C2320855   4.041   0.036   5.910  0.6455  0.5405 -0.0205
  182POPC   H3R20856   3.932   0.056   5.921  0.8586  1.6425  0.1754
  182POPC   H3S20857   4.061  -0.073   5.907  1.0135  0.6062 -0.0354
  182POPC   C2420858   4.091   0.094   5.779  0.1407 -0.6119 -0.3449
  182POPC   H4R20859   4.193   0.051   5.767  0.2162 -0.3577 -0.6120
  182POPC   H4S20860   4.097   0.204   5.786  1.7048 -0.5435 -2.1087
  182POPC   C2520861   3.998   0.064   5.660 -0.6179  0.1287  0.6380
  182POPC   H5R20862   3.902   0.111   5.692 -1.7662 -2.1251  0.7450
  182POPC   H5S20863   3.989  -0.046   5.645  1.0854 -0.1227  1.3057
  182POPC   C2620864   4.035   0.126   5.524  0.4417  0.0626  0.2529
  182POPC   H6R20865   4.010   0.234   5.529 -3.1397 -0.6479  0.9767
  182POPC   H6S20866   3.972   0.082   5.444 -0.1934 -0.2287  0.8956
  182POPC   C2720867   4.186   0.109   5.491  0.1261 -0.7142  0.4175
  182POPC   H7R20868   4.218   0.003   5.502 -0.2350 -0.6796  2.0885
  182POPC   H7S20869   4.252   0.160   5.565  2.2711  0.3164 -2.0387
  182POPC   C2820870   4.229   0.166   5.355 -0.1736 -0.5264  0.4726
  182POPC   H8R20871   4.205   0.274   5.351  0.4550 -0.4062 -0.8986
  182POPC   H8S20872   4.159   0.126   5.279 -1.4083 -1.2217  1.9281
  182POPC   C2920873   4.367   0.156   5.306 -0.6528 -0.1109  0.6090
  182POPC   H9120874   4.442   0.185   5.382  1.3992 -0.4158 -1.1958
  182POPC  C21020875   4.420   0.115   5.188 -0.0763 -0.0692  0.0072
  182POPC  H10120876   4.528   0.115   5.170  0.1953 -1.6559  1.3914
  182POPC  C21120877   4.346   0.068   5.065 -0.5674  0.4067  0.3116
  182POPC  H11R20878   4.242   0.038   5.091 -0.6228  0.5697  0.2771
  182POPC  H11S20879   4.383  -0.029   5.025  0.1121 -0.4354  2.7881
  182POPC  C21220880   4.351   0.177   4.957  0.2390  0.5875 -0.6116
  182POPC  H12R20881   4.316   0.272   5.002  0.1886 -0.0795  0.7951
  182POPC  H12S20882   4.270   0.138   4.892 -1.4848  1.2290  1.0493
  182POPC  C21320883   4.474   0.175   4.867 -0.0244  0.3249 -0.0810
  182POPC  H13R20884   4.506   0.069   4.856 -0.6438  0.0325  0.8387
  182POPC  H13S20885   4.552   0.225   4.929 -0.4762 -1.8278  2.3836
  182POPC  C21420886   4.460   0.239   4.726  0.2346  0.2287 -0.6299
  182POPC  H14R20887   4.417   0.340   4.744  4.1861  2.0211 -0.1528
  182POPC  H14S20888   4.398   0.177   4.658  1.1594 -1.5445  0.0685
  182POPC  C21520889   4.598   0.251   4.660 -0.1555 -0.3030 -0.1564
  182POPC  H15R20890   4.632   0.149   4.633  3.1696  1.1485 -2.1014
  182POPC  H15S20891   4.674   0.294   4.729 -3.2998 -0.0042  3.4386
  182POPC  C21620892   4.588   0.330   4.526 -0.6362 -0.2500  0.7498
  182POPC  H16R20893   4.690   0.325   4.483 -1.3849  1.1624 -1.3667
  182POPC  H16S20894   4.580   0.439   4.542  3.5513  0.2068  0.8551
  182POPC  C21720895   4.488   0.290   4.416 -0.8072 -0.4620  0.3734
  182POPC  H17R20896   4.379   0.307   4.430 -0.9847 -1.2339  0.0093
  182POPC  H17S20897   4.496   0.184   4.382  1.0901 -0.5684  1.0239
  182POPC  C21820898   4.532   0.367   4.281 -0.9863  1.0677 -0.4795
  182POPC  H18R20899   4.635   0.333   4.258 -0.1781  2.1895  1.2331
  182POPC  H18S20900   4.542   0.476   4.304 -1.7205  0.6318  2.2927
  182POPC  H18T20901   4.446   0.353   4.213 -2.0110  1.3945  0.7041
  182POPC   C3320902   4.247  -0.360   5.791 -0.8221 -0.3211 -0.5276
  182POPC   H3X20903   4.330  -0.288   5.807 -0.0878 -1.3117  0.3081
  182POPC   H3Y20904   4.157  -0.300   5.817 -1.5497 -2.0490  1.1707
  182POPC   C3420905   4.243  -0.400   5.640 -0.1329  0.0139 -0.4918
  182POPC   H4X20906   4.163  -0.476   5.625 -1.6767  1.5963 -0.5528
  182POPC   H4Y20907   4.342  -0.439   5.606  0.0921 -0.2084  0.3885
  182POPC   C3520908   4.207  -0.269   5.568  0.1471  0.4177  0.0826
  182POPC   H5X20909   4.285  -0.191   5.559  0.0121  0.3389 -2.4664
  182POPC   H5Y20910   4.121  -0.219   5.618  1.4323  5.1186 -1.8926
  182POPC   C3620911   4.150  -0.308   5.428  0.3011  0.7390 -0.7509
  182POPC   H6X20912   4.046  -0.345   5.434 -0.1013  1.9896  0.2726
  182POPC   H6Y20913   4.211  -0.389   5.383 -1.1894 -2.2774  2.2510
  182POPC   C3720914   4.147  -0.198   5.324 -0.3413  0.0865  0.4595
  182POPC   H7X20915   4.248  -0.166   5.293  0.5346 -2.4070  0.5306
  182POPC   H7Y20916   4.084  -0.121   5.374  2.5169  1.5458  2.0420
  182POPC   C3820917   4.072  -0.235   5.192 -0.1663  0.6994 -0.2073
  182POPC   H8X20918   4.081  -0.151   5.119 -0.7126  0.4314 -0.5855
  182POPC   H8Y20919   3.965  -0.254   5.210  0.0518 -0.5274 -0.1380
  182POPC   C3920920   4.134  -0.360   5.134 -0.0726 -0.0838  0.4535
  182POPC   H9X20921   4.085  -0.446   5.184 -3.8965  2.0628  0.8059
  182POPC   H9Y20922   4.245  -0.355   5.143  0.1837 -0.8454 -1.7445
  182POPC  C31020923   4.100  -0.369   4.984  0.5736  0.0266  0.3920
  182POPC  H10X20924   4.153  -0.285   4.934  0.4163 -0.4044 -0.5193
  182POPC  H10Y20925   3.990  -0.354   4.975  0.4081 -1.1811  0.1335
  182POPC  C31120926   4.127  -0.508   4.913  0.0729 -0.5510 -0.3287
  182POPC  H11X20927   4.090  -0.582   4.986  0.3558  0.1209  0.5085
  182POPC  H11Y20928   4.236  -0.517   4.893 -0.2440 -5.0350 -1.0275
  182POPC  C31220929   4.052  -0.527   4.782 -0.4770  0.4085 -0.4989
  182POPC  H12X20930   3.942  -0.531   4.799 -0.7147 -2.2292 -2.0806
  182POPC  H12Y20931   4.076  -0.623   4.731 -1.4103 -1.2515  1.9743
  182POPC  C31320932   4.076  -0.408   4.690 -0.0455  0.3088  0.5924
  182POPC  H13X20933   4.014  -0.324   4.729 -2.0514 -0.7407 -0.1873
  182POPC  H13Y20934   4.010  -0.420   4.602 -0.7891 -0.8038  1.2824
  182POPC  C31420935   4.222  -0.376   4.662  0.0703 -0.2726  0.3531
  182POPC  H14X20936   4.269  -0.468   4.622  0.3705 -0.8703  2.0050
  182POPC  H14Y20937   4.270  -0.346   4.758 -0.5444  1.7153  0.0974
  182POPC  C31520938   4.234  -0.253   4.579 -0.2952 -0.0350 -0.3306
  182POPC  H15X20939   4.165  -0.258   4.492 -1.9699 -0.3041  0.9539
  182POPC  H15Y20940   4.339  -0.251   4.542 -0.0500  0.4262  0.3682
  182POPC  C31620941   4.211  -0.123   4.656 -0.4405  0.5044  0.7628
  182POPC  H16X20942   4.179  -0.043   4.585 -0.2842 -0.0761  0.0219
  182POPC  H16Y20943   4.306  -0.099   4.707  1.1528 -2.1314 -0.7329
  182POPC  H16Z20944   4.148  -0.135   4.747 -1.4102  0.0411  0.0481
  183POPC     N20945   5.413   5.722   6.849  0.0234  0.3426 -0.2941
  183POPC   C1220946   5.441   5.775   6.707  0.3552 -0.8106 -0.2652
  183POPC  H12A20947   5.475   5.692   6.646 -3.5122 -1.9520 -1.1786
  183POPC  H12B20948   5.519   5.849   6.714 -0.2265 -0.3874  3.2006
  183POPC   C1320949   5.536   5.654   6.897  0.4162  0.5438  0.4289
  183POPC  H13A20950   5.621   5.720   6.908  1.0645 -0.4676  1.6801
  183POPC  H13B20951   5.515   5.608   6.992 -1.5266  2.6691  1.1402
  183POPC  H13C20952   5.569   5.574   6.833  2.4996  1.9685 -0.3592
  183POPC   C1420953   5.371   5.827   6.942  0.2092 -0.5078  0.4770
  183POPC  H14A20954   5.335   5.790   7.037  2.2347  2.2127  2.4741
  183POPC  H14B20955   5.456   5.887   6.971  0.7127 -0.0872 -1.7266
  183POPC  H14C20956   5.293   5.889   6.900  0.8590 -0.4185 -0.6284
  183POPC   C1520957   5.306   5.620   6.859  0.0983 -0.0568  0.4908
  183POPC  H15A20958   5.317   5.544   6.784 -0.0976 -0.4095  0.8145
  183POPC  H15B20959   5.208   5.661   6.836  0.5253  0.8523  0.2522
  183POPC  H15C20960   5.303   5.573   6.956  1.6751  1.1691  1.1684
  183POPC   C1120961   5.312   5.827   6.632  0.6518  0.2472  0.1288
  183POPC  H11A20962   5.243   5.743   6.612 -0.7725  1.4197 -0.0678
  183POPC  H11B20963   5.350   5.876   6.540 -1.5230  3.8006  0.9218
  183POPC     P20964   5.285   6.073   6.691 -0.0415  0.1105 -0.1979
  183POPC   O1320965   5.433   6.085   6.671 -0.0948 -0.1066  0.0683
  183POPC   O1420966   5.229   6.155   6.804 -0.4351  0.3378 -0.0300
  183POPC   O1220967   5.247   5.924   6.708  0.2320 -0.7401  0.9638
  183POPC   O1120968   5.207   6.121   6.561  0.2155 -0.2296  0.0103
  183POPC    C120969   5.075   6.080   6.526 -0.2403 -0.2619 -0.0654
  183POPC    HA20970   5.013   6.160   6.480  0.4037 -0.0418 -0.5640
  183POPC    HB20971   5.011   6.039   6.607 -2.1400 -0.2197 -1.4736
  183POPC    C220972   5.072   5.979   6.410  0.7460 -0.4269  0.2680
  183POPC    HS20973   5.110   5.888   6.461 -0.0212 -1.5934 -1.1709
  183POPC   O2120974   5.154   6.033   6.299 -0.0671  0.5497 -0.3646
  183POPC   C2120975   5.243   5.944   6.258 -0.2732 -0.4528  0.0698
  183POPC   O2220976   5.266   5.838   6.313 -0.1330 -0.1511 -0.0537
  183POPC   C2220977   5.307   5.991   6.118 -0.4142  0.2081  0.0021
  183POPC   H2R20978   5.416   5.971   6.122 -0.4724 -0.4856 -1.1668
  183POPC   H2S20979   5.294   6.100   6.106  0.5663  0.5900  1.9332
  183POPC    C320980   4.923   5.953   6.363 -0.1040  0.4373  0.3479
  183POPC    HX20981   4.879   6.049   6.329  2.1382  0.7640 -1.9980
  183POPC    HY20982   4.862   5.928   6.452 -0.8906  0.3502 -0.2020
  183POPC   O3120983   4.914   5.853   6.260 -0.1747 -0.0954 -0.2534
  183POPC   C3120984   4.934   5.728   6.302  0.4187 -0.2228  0.3451
  183POPC   O3220985   4.988   5.702   6.407 -0.5905 -0.0712  0.2242
  183POPC   C3220986   4.869   5.628   6.202 -0.1401  0.2442  0.3241
  183POPC   H2X20987   4.913   5.649   6.103  0.7913  0.4217  0.7672
  183POPC   H2Y20988   4.758   5.639   6.197 -0.3733 -1.8108  0.0866
  183POPC   C2320989   5.262   5.914   5.992  0.0850  0.1540  0.2813
  183POPC   H3R20990   5.153   5.894   5.999  0.4832 -3.0184 -1.2855
  183POPC   H3S20991   5.313   5.816   5.997 -2.1952 -1.0378  2.0752
  183POPC   C2420992   5.311   5.988   5.862  0.6129 -0.4393  0.4355
  183POPC   H4R20993   5.408   6.037   5.884 -0.3032  1.2859  0.8905
  183POPC   H4S20994   5.232   6.063   5.837 -1.3201 -1.3421  3.3044
  183POPC   C2520995   5.336   5.893   5.739 -0.2406  0.3127 -0.0020
  183POPC   H5R20996   5.252   5.821   5.724  0.2268 -0.5439  1.3583
  183POPC   H5S20997   5.426   5.835   5.770 -0.3322 -0.3126 -0.8594
  183POPC   C2620998   5.374   5.962   5.610  0.0232 -0.7027 -1.3156
  183POPC   H6R20999   5.449   6.037   5.644 -1.0030 -0.2582  0.0492
  183POPC   H6S21000   5.296   6.032   5.572  0.0759  1.0139  1.4545
  183POPC   C2721001   5.433   5.877   5.500 -0.2263  0.7093  0.0662
  183POPC   H7R21002   5.527   5.825   5.528 -0.4867  0.5091  0.5784
  183POPC   H7S21003   5.470   5.939   5.415  2.1102 -1.0101 -0.2602
  183POPC   C2821004   5.344   5.763   5.442 -0.2794 -0.0124 -0.4836
  183POPC   H8R21005   5.309   5.702   5.528  1.1581  0.9960  0.8888
  183POPC   H8S21006   5.408   5.703   5.375 -1.2610  0.0110 -1.4634
  183POPC   C2921007   5.222   5.830   5.366  0.1743 -0.4134 -0.8334
  183POPC   H9121008   5.149   5.886   5.426  2.2461 -0.0058  1.4913
  183POPC  C21021009   5.217   5.845   5.236 -0.2441  0.0697  0.8082
  183POPC  H10121010   5.127   5.893   5.194 -0.3595  1.3456  2.4276
  183POPC  C21121011   5.315   5.785   5.137  0.2184  0.2254  0.2538
  183POPC  H11R21012   5.265   5.699   5.086 -1.4340  0.7028  0.9994
  183POPC  H11S21013   5.413   5.750   5.174  0.4352 -1.2225 -1.5269
  183POPC  C21221014   5.344   5.882   5.014  0.1023 -0.0766 -0.9221
  183POPC  H12R21015   5.388   5.976   5.055  0.3501 -0.8763  0.7497
  183POPC  H12S21016   5.245   5.897   4.968 -0.3300 -3.3593 -1.3406
  183POPC  C21321017   5.441   5.821   4.907  0.4485  0.2884 -0.4110
  183POPC  H13R21018   5.403   5.723   4.870  2.5979 -1.5310  1.7886
  183POPC  H13S21019   5.540   5.791   4.950  0.8055 -0.1457 -1.4931
  183POPC  C21421020   5.466   5.913   4.787 -0.5048 -0.1819  0.1014
  183POPC  H14R21021   5.502   6.011   4.826 -0.3871 -0.5975  1.0670
  183POPC  H14S21022   5.369   5.930   4.735 -1.7967 -3.6531  1.0845
  183POPC  C21521023   5.563   5.861   4.677  0.1106  0.8735  0.2933
  183POPC  H15R21024   5.669   5.847   4.707  1.5550  1.9766 -3.6174
  183POPC  H15S21025   5.574   5.944   4.604 -0.5065 -0.3082 -1.1986
  183POPC  C21621026   5.521   5.728   4.615 -0.5043  0.5382  0.2192
  183POPC  H16R21027   5.411   5.727   4.596 -0.9106 -0.9961  2.3086
  183POPC  H16S21028   5.543   5.645   4.685 -0.0371  1.8895  1.7250
  183POPC  C21721029   5.595   5.699   4.477  0.2799 -0.5151 -0.5483
  183POPC  H17R21030   5.701   5.688   4.509 -0.5410 -1.4221  2.1407
  183POPC  H17S21031   5.566   5.787   4.416 -0.8648 -1.1031 -0.8900
  183POPC  C21821032   5.549   5.568   4.408 -0.1480  0.5016  0.1175
  183POPC  H18R21033   5.571   5.482   4.474  0.5830  0.3676 -0.2824
  183POPC  H18S21034   5.610   5.556   4.315  0.0313 -2.1125  0.4796
  183POPC  H18T21035   5.441   5.564   4.383 -0.1523  2.1720 -0.2095
  183POPC   C3321036   4.914   5.487   6.243 -0.8112 -0.1400  0.0171
  183POPC   H3X21037   4.871   5.463   6.342 -1.6732 -1.4498 -0.6464
  183POPC   H3Y21038   5.024   5.471   6.252 -1.0428 -1.4156  0.8159
  183POPC   C3421039   4.857   5.383   6.146 -0.5771 -0.0194  0.1230
  183POPC   H4X21040   4.757   5.424   6.120 -2.0621 -1.6235  2.8326
  183POPC   H4Y21041   4.836   5.285   6.195  0.7327 -1.0648 -1.3247
  183POPC   C3521042   4.940   5.363   6.023  0.4511  0.8571  0.1010
  183POPC   H5X21043   5.042   5.346   6.063  0.5009 -1.1498 -0.7556
  183POPC   H5Y21044   4.945   5.456   5.962 -0.5321  0.0725 -1.2426
  183POPC   C3621045   4.890   5.248   5.937  0.4355 -0.7108  0.5910
  183POPC   H6X21046   4.780   5.251   5.923  0.3535  0.4942  1.3506
  183POPC   H6Y21047   4.912   5.153   5.989  1.2502 -0.8828 -0.0530
  183POPC   C3721048   4.945   5.234   5.792  0.4253 -0.5176 -0.0315
  183POPC   H7X21049   5.054   5.256   5.794  0.7868 -2.2105  0.5726
  183POPC   H7Y21050   4.895   5.311   5.728  0.2195 -0.5711  0.0638
  183POPC   C3821051   4.932   5.092   5.727  0.2811  0.1830  0.0989
  183POPC   H8X21052   4.954   5.010   5.798  1.6482 -0.8417 -1.4214
  183POPC   H8Y21053   5.008   5.076   5.647 -0.8929 -0.3456 -0.9422
  183POPC   C3921054   4.792   5.077   5.655  0.2207 -0.1433  0.1030
  183POPC   H9X21055   4.777   5.167   5.592 -2.4825  0.2166  1.1437
  183POPC   H9Y21056   4.712   5.069   5.732  0.5462  0.0748  0.4694
  183POPC  C31021057   4.796   4.958   5.565  0.1160  0.4792  0.4064
  183POPC  H10X21058   4.800   4.865   5.626  0.2585 -0.4133 -0.9265
  183POPC  H10Y21059   4.900   4.957   5.526 -0.2551 -1.8507 -0.6723
  183POPC  C31121060   4.684   4.948   5.463 -0.3805  0.3383  0.7252
  183POPC  H11X21061   4.670   5.046   5.412 -0.1843 -0.4910 -0.9816
  183POPC  H11Y21062   4.591   4.923   5.518 -1.1615  1.4971 -0.0075
  183POPC  C31221063   4.713   4.845   5.348 -0.5690  0.3673 -0.6764
  183POPC  H12X21064   4.754   4.755   5.400  1.6172  2.5197  1.5892
  183POPC  H12Y21065   4.800   4.887   5.293 -0.0904  1.1732  0.6364
  183POPC  C31321066   4.598   4.803   5.254  1.0858 -0.6162 -0.2822
  183POPC  H13X21067   4.638   4.729   5.181  2.9699 -0.6379  0.6954
  183POPC  H13Y21068   4.560   4.891   5.198 -1.3335 -0.7727  0.9776
  183POPC  C31421069   4.473   4.744   5.323  0.1628 -0.1502 -0.1960
  183POPC  H14X21070   4.426   4.822   5.387 -0.6806 -0.4541 -0.4311
  183POPC  H14Y21071   4.505   4.653   5.378  0.3084 -0.4436 -0.7582
  183POPC  C31521072   4.367   4.701   5.224  0.1081 -0.3266 -0.2267
  183POPC  H15X21073   4.419   4.631   5.154  0.1445 -1.8547  1.2470
  183POPC  H15Y21074   4.318   4.786   5.172 -1.5802 -1.5640 -0.7497
  183POPC  C31621075   4.267   4.615   5.297 -0.1498 -0.5505 -0.1200
  183POPC  H16X21076   4.183   4.582   5.232  1.8342  0.6138 -3.5316
  183POPC  H16Y21077   4.226   4.662   5.388 -0.9635 -0.8087 -0.3490
  183POPC  H16Z21078   4.311   4.516   5.325  3.1336  0.6352 -0.6282
  184POPC     N21079   0.932   6.826   6.966  0.2630  0.2050  0.1107
  184POPC   C1221080   0.867   6.699   6.904  0.5173 -0.4026 -0.3376
  184POPC  H12A21081   0.760   6.711   6.916  0.2432 -1.3419 -1.5929
  184POPC  H12B21082   0.911   6.625   6.969  0.0510  1.3338  2.0690
  184POPC   C1321083   0.863   6.954   6.927 -0.1174  0.0849 -0.1716
  184POPC  H13A21084   0.760   6.950   6.959 -0.1756 -2.4411 -0.4527
  184POPC  H13B21085   0.914   7.047   6.949  0.8528 -1.0191  2.6185
  184POPC  H13C21086   0.857   6.949   6.819 -3.4055 -0.1577 -0.0975
  184POPC   C1421087   0.938   6.804   7.122  0.2867 -0.3958  0.3560
  184POPC  H14A21088   0.846   6.806   7.178  0.7402  1.8193  1.1209
  184POPC  H14B21089   0.987   6.708   7.135 -2.5365 -2.0137 -0.1501
  184POPC  H14C21090   0.992   6.885   7.169 -0.2167  0.0594  0.1529
  184POPC   C1521091   1.076   6.829   6.921  0.2110 -1.0172  0.0025
  184POPC  H15A21092   1.125   6.738   6.950 -0.5655 -1.5820 -0.4289
  184POPC  H15B21093   1.127   6.919   6.952  1.0715 -1.4750 -0.0445
  184POPC  H15C21094   1.088   6.820   6.814  0.7353 -2.3487  0.1561
  184POPC   C1121095   0.899   6.652   6.756 -0.1627  0.7062 -0.2792
  184POPC  H11A21096   0.842   6.559   6.732  0.7074 -0.1773  0.9695
  184POPC  H11B21097   1.008   6.635   6.752 -0.2975  0.0671 -1.8333
  184POPC     P21098   0.727   6.810   6.635  0.5358  0.2161  0.2327
  184POPC   O1321099   0.733   6.955   6.659  0.4206 -0.1475  0.0530
  184POPC   O1421100   0.627   6.734   6.710  0.2513  0.0655  0.6555
  184POPC   O1221101   0.877   6.750   6.658  0.4059  0.5359 -0.8251
  184POPC   O1121102   0.704   6.785   6.478  0.4706  0.6263  0.4778
  184POPC    C121103   0.741   6.651   6.431  0.7309 -0.2241  0.2949
  184POPC    HA21104   0.647   6.592   6.427  0.0476  0.7804  1.1172
  184POPC    HB21105   0.813   6.592   6.490 -0.9833 -1.4873  1.2055
  184POPC    C221106   0.804   6.653   6.288  0.3203  0.4281  0.4823
  184POPC    HS21107   0.906   6.690   6.308  0.2999 -0.5936  2.7696
  184POPC   O2121108   0.731   6.743   6.200  0.0078  0.0008  0.0061
  184POPC   C2121109   0.802   6.799   6.092  0.6292  0.7101  0.4450
  184POPC   O2221110   0.924   6.793   6.079 -0.3005 -0.1788  0.0729
  184POPC   C2221111   0.705   6.854   5.985  0.4068  0.5943  0.0756
  184POPC   H2R21112   0.636   6.920   6.042 -0.0427  2.6719 -2.6470
  184POPC   H2S21113   0.643   6.767   5.954  1.3652  0.1177 -0.5230
  184POPC    C321114   0.819   6.509   6.231 -0.1804 -0.9927 -0.0595
  184POPC    HX21115   0.730   6.445   6.248  0.1762 -2.0488 -1.8487
  184POPC    HY21116   0.906   6.468   6.287 -0.3012 -0.7087  0.3381
  184POPC   O3121117   0.835   6.516   6.089 -0.5508  0.5475  0.5396
  184POPC   C3121118   0.914   6.438   6.019 -0.0614 -0.4330 -0.4893
  184POPC   O3221119   0.990   6.354   6.069 -0.1006 -0.4733  0.0748
  184POPC   C3221120   0.897   6.465   5.866  0.1682  0.0436 -0.6334
  184POPC   H2X21121   0.796   6.510   5.852 -1.7803 -3.0925  1.8466
  184POPC   H2Y21122   0.904   6.372   5.806  0.2250  0.0351 -0.6146
  184POPC   C2321123   0.787   6.914   5.865 -0.4751  0.5772 -0.7814
  184POPC   H3R21124   0.850   6.837   5.817 -1.3627  0.0442 -1.1252
  184POPC   H3S21125   0.858   6.993   5.899  0.5947 -0.8249  0.3761
  184POPC   C2421126   0.710   6.967   5.745 -0.3571  0.2064  0.4300
  184POPC   H4R21127   0.785   7.017   5.681  0.3203  0.7843  1.6325
  184POPC   H4S21128   0.634   7.042   5.777 -0.4016  0.6583 -0.6974
  184POPC   C2521129   0.633   6.855   5.672 -0.8379  0.0386 -0.0578
  184POPC   H5R21130   0.549   6.807   5.728 -1.8598  3.0615  1.1913
  184POPC   H5S21131   0.714   6.780   5.658 -0.3619  0.5222  0.0744
  184POPC   C2621132   0.553   6.903   5.542 -0.1903 -0.3376 -0.6391
  184POPC   H6R21133   0.489   6.992   5.561 -1.4627 -1.7191  2.1708
  184POPC   H6S21134   0.498   6.813   5.510  2.2102 -2.0823 -0.1331
  184POPC   C2721135   0.648   6.941   5.425 -0.3439  0.5860 -1.0708
  184POPC   H7R21136   0.700   6.846   5.402  1.1278  0.4543  2.2705
  184POPC   H7S21137   0.723   7.016   5.458 -0.0860  0.8661 -2.2521
  184POPC   C2821138   0.583   7.002   5.295 -0.5967 -0.2013 -0.3993
  184POPC   H8R21139   0.663   7.024   5.221  1.6248 -2.3730  1.1924
  184POPC   H8S21140   0.535   7.097   5.329 -1.6948 -0.6710 -0.5856
  184POPC   C2921141   0.486   6.898   5.248 -0.6057 -0.7898 -0.5021
  184POPC   H9121142   0.496   6.805   5.307  0.7705 -0.9538 -0.9511
  184POPC  C21021143   0.394   6.911   5.153  0.3725 -0.7794  0.9876
  184POPC  H10121144   0.313   6.837   5.140  1.0174 -1.6202  1.6610
  184POPC  C21121145   0.372   7.034   5.066 -0.1950 -0.0745 -1.0690
  184POPC  H11R21146   0.408   7.016   4.962  1.6892  1.4701 -0.7264
  184POPC  H11S21147   0.425   7.124   5.101 -0.7361  0.6764 -2.1412
  184POPC  C21221148   0.230   7.085   5.068  0.8339  0.3895  0.2759
  184POPC  H12R21149   0.228   7.183   5.015  1.9207  0.8218  0.9825
  184POPC  H12S21150   0.192   7.106   5.170  0.4383  1.4908 -0.0853
  184POPC  C21321151   0.127   6.994   4.998  0.4102 -0.1436 -0.0323
  184POPC  H13R21152   0.033   6.973   5.054 -0.3748 -3.2393 -2.2338
  184POPC  H13S21153   0.163   6.891   4.976  0.3048  0.3345 -2.6818
  184POPC  C21421154   0.091   7.054   4.858 -0.4236 -0.4845  0.4003
  184POPC  H14R21155   0.181   7.070   4.795  0.1219  0.1864  1.3332
  184POPC  H14S21156   0.045   7.151   4.887  1.5265  0.3515  0.8619
  184POPC  C21521157  -0.008   6.975   4.771  0.0981 -0.3423 -0.1377
  184POPC  H15R21158  -0.089   6.944   4.840 -1.5841  0.7151 -1.5680
  184POPC  H15S21159   0.045   6.890   4.723  2.4550  1.9328 -1.8907
  184POPC  C21621160  -0.076   7.066   4.667 -0.3528 -0.8544  0.5448
  184POPC  H16R21161  -0.008   7.093   4.584 -0.0841 -0.3216  0.9315
  184POPC  H16S21162  -0.118   7.158   4.712 -2.5226 -2.4835  2.0580
  184POPC  C21721163  -0.199   6.994   4.614  0.1169 -0.3201  0.1088
  184POPC  H17R21164  -0.171   6.887   4.603  0.0044 -0.0414 -4.3120
  184POPC  H17S21165  -0.222   7.020   4.509  0.3795  1.7600  0.5178
  184POPC  C21821166  -0.319   7.022   4.709  0.3331  0.7073  0.1201
  184POPC  H18R21167  -0.385   6.934   4.725 -0.6904  1.3477 -0.4527
  184POPC  H18S21168  -0.381   7.106   4.671  0.8148  1.1539  0.3051
  184POPC  H18T21169  -0.295   7.056   4.812 -3.0350  0.7302  1.0004
  184POPC   C3321170   1.002   6.556   5.820  0.0260  0.3171  0.2501
  184POPC   H3X21171   1.008   6.645   5.887 -0.4856  0.8145 -0.3442
  184POPC   H3Y21172   0.979   6.599   5.720 -1.1336  0.0985  0.4042
  184POPC   C3421173   1.145   6.495   5.813  0.7187 -0.1454 -0.3784
  184POPC   H4X21174   1.180   6.447   5.907 -0.1476  1.1835  0.6516
  184POPC   H4Y21175   1.212   6.583   5.805 -1.9325  2.3738  2.5086
  184POPC   C3521176   1.172   6.406   5.689  0.3574  0.1703 -1.0708
  184POPC   H5X21177   1.110   6.442   5.604 -1.1174  1.7079  0.5661
  184POPC   H5Y21178   1.145   6.298   5.695  2.7385 -0.4796 -0.9634
  184POPC   C3621179   1.321   6.414   5.654 -0.1301  0.1724 -0.0549
  184POPC   H6X21180   1.375   6.361   5.736 -0.3797 -2.3801 -1.4724
  184POPC   H6Y21181   1.370   6.514   5.648  0.8964 -0.3826 -1.2876
  184POPC   C3721182   1.353   6.340   5.527 -0.3144 -0.2126 -0.0627
  184POPC   H7X21183   1.317   6.236   5.537 -0.9801 -0.2233 -2.0346
  184POPC   H7Y21184   1.462   6.335   5.505  0.1934  0.1522  2.1396
  184POPC   C3821185   1.292   6.406   5.400  0.7122 -0.1816  0.4917
  184POPC   H8X21186   1.261   6.509   5.428  2.0046 -0.4261  3.0936
  184POPC   H8Y21187   1.195   6.356   5.380  1.1673 -0.8991  0.0419
  184POPC   C3921188   1.377   6.409   5.277 -0.7001 -0.9774 -0.2025
  184POPC   H9X21189   1.413   6.314   5.232  4.2180  0.8518 -0.7948
  184POPC   H9Y21190   1.470   6.462   5.306 -0.4931 -2.0093  1.1037
  184POPC  C31021191   1.307   6.493   5.173 -0.2247  0.7287  0.0176
  184POPC  H10X21192   1.320   6.597   5.212  1.3374  0.4955  0.1966
  184POPC  H10Y21193   1.203   6.461   5.152 -0.2389  1.9463 -2.0324
  184POPC  C31121194   1.376   6.478   5.031 -0.0252  0.2275 -0.4607
  184POPC  H11X21195   1.352   6.372   5.011  0.7140 -0.5909  2.4811
  184POPC  H11Y21196   1.486   6.487   5.031 -0.0744  1.1359  1.1503
  184POPC  C31221197   1.315   6.585   4.942  0.0769 -1.3115 -1.0879
  184POPC  H12X21198   1.349   6.680   4.988 -1.1550 -1.0392 -0.7103
  184POPC  H12Y21199   1.205   6.584   4.951  0.1269  1.9141  2.0808
  184POPC  C31321200   1.357   6.587   4.796 -0.7648 -0.7556  1.0624
  184POPC  H13X21201   1.323   6.494   4.745  0.6485 -1.4966  1.4224
  184POPC  H13Y21202   1.467   6.584   4.804 -0.6234 -1.3940 -0.7462
  184POPC  C31421203   1.321   6.706   4.713 -0.7770  0.2507  0.6581
  184POPC  H14X21204   1.389   6.794   4.717 -1.0132  0.5167 -0.8533
  184POPC  H14Y21205   1.220   6.734   4.748 -1.3528 -2.0314  0.9740
  184POPC  C31521206   1.313   6.656   4.564 -0.3424  0.4231 -0.1297
  184POPC  H15X21207   1.260   6.742   4.519  0.7036  0.5716 -1.1246
  184POPC  H15Y21208   1.247   6.567   4.552  1.0838 -0.6918 -0.0163
  184POPC  C31621209   1.448   6.632   4.494 -0.0598 -0.9731  0.4199
  184POPC  H16X21210   1.508   6.551   4.539  0.5779 -1.0969 -0.6285
  184POPC  H16Y21211   1.507   6.726   4.495 -0.6835 -0.4392 -2.3841
  184POPC  H16Z21212   1.442   6.611   4.385  2.3027 -1.1578  0.2673
  185POPC     N21213   4.706   2.696   2.339 -0.4073  0.1694  0.0410
  185POPC   C1221214   4.792   2.575   2.304 -0.4639 -0.5149  0.0725
  185POPC  H12A21215   4.897   2.598   2.311 -0.4759  0.1913 -1.6716
  185POPC  H12B21216   4.770   2.562   2.200 -3.2287  0.3898  0.4598
  185POPC   C1321217   4.751   2.818   2.265  0.2394 -0.6056  0.3451
  185POPC  H13A21218   4.717   2.909   2.313  1.9691 -0.2401  0.9585
  185POPC  H13B21219   4.859   2.823   2.259  0.5154 -3.0193  1.9187
  185POPC  H13C21220   4.705   2.816   2.167 -0.8229 -0.0773  0.8151
  185POPC   C1421221   4.568   2.677   2.317  0.2295  0.4996 -0.3872
  185POPC  H14A21222   4.524   2.612   2.391  1.9498 -1.3281 -0.8777
  185POPC  H14B21223   4.517   2.771   2.306 -2.3987 -1.0346 -3.1152
  185POPC  H14C21224   4.548   2.633   2.220 -0.7184 -0.3015  0.1490
  185POPC   C1521225   4.723   2.739   2.480 -0.3537 -0.0716 -0.3447
  185POPC  H15A21226   4.819   2.787   2.492 -0.9953  0.9886  0.7668
  185POPC  H15B21227   4.716   2.657   2.550 -1.2962  0.0407 -0.2950
  185POPC  H15C21228   4.641   2.806   2.502 -0.6452  0.4668 -2.7525
  185POPC   C1121229   4.777   2.443   2.383 -0.1904 -0.8665 -0.3594
  185POPC  H11A21230   4.835   2.381   2.311  1.0680  1.0740 -1.0737
  185POPC  H11B21231   4.673   2.405   2.388 -0.3796 -0.5847 -1.6910
  185POPC     P21232   4.998   2.462   2.530 -0.1009  0.0964 -0.0512
  185POPC   O1321233   5.039   2.603   2.539 -0.1386  0.2472 -0.5277
  185POPC   O1421234   5.062   2.386   2.415  0.2484  0.6320 -0.1925
  185POPC   O1221235   4.838   2.448   2.514 -0.0808 -0.0020  0.4644
  185POPC   O1121236   5.029   2.377   2.666 -0.1057 -0.3438 -0.1454
  185POPC    C121237   4.924   2.310   2.734  0.4360  1.1530 -0.1816
  185POPC    HA21238   4.866   2.252   2.659  2.1010 -1.6516  0.5060
  185POPC    HB21239   4.857   2.385   2.781 -0.5281  0.4232 -0.3575
  185POPC    C221240   4.968   2.207   2.834 -0.1400 -0.3430 -0.3613
  185POPC    HS21241   4.883   2.149   2.875  0.1123 -1.4012 -1.2953
  185POPC   O2121242   5.042   2.268   2.952  0.3406  0.3519 -0.3725
  185POPC   C2121243   4.959   2.338   3.027  0.0916 -0.8817 -0.4134
  185POPC   O2221244   4.842   2.351   3.001  0.1407  0.1247  0.0869
  185POPC   C2221245   5.034   2.394   3.144  0.4803 -0.2650 -0.2313
  185POPC   H2R21246   5.041   2.505   3.141  0.0823 -0.2323 -3.6331
  185POPC   H2S21247   5.139   2.360   3.143  0.7179  0.4233  0.2179
  185POPC    C321248   5.068   2.108   2.776 -0.3419  0.4915 -0.5830
  185POPC    HX21249   5.145   2.164   2.720  1.1853 -0.8342  0.1199
  185POPC    HY21250   4.999   2.051   2.710  1.0974 -1.4302 -0.5132
  185POPC   O3121251   5.116   2.024   2.885 -0.1534 -0.3521 -0.6617
  185POPC   C3121252   5.246   2.026   2.912 -0.2492 -0.6685  0.3384
  185POPC   O3221253   5.338   2.057   2.836  0.1345  0.1630  0.2661
  185POPC   C3221254   5.271   1.961   3.045  0.3809  0.5093  0.5037
  185POPC   H2X21255   5.381   1.959   3.060  0.7051  0.8235 -1.5707
  185POPC   H2Y21256   5.226   1.860   3.040 -0.2541  0.8142 -0.0097
  185POPC   C2321257   4.966   2.357   3.279  0.1413 -0.1368 -0.4652
  185POPC   H3R21258   4.946   2.248   3.266  0.4524 -0.3151  0.4504
  185POPC   H3S21259   4.866   2.404   3.288 -0.6178 -1.9660  1.4603
  185POPC   C2421260   5.053   2.374   3.406 -0.2417 -0.4361  0.6492
  185POPC   H4R21261   5.138   2.305   3.387 -0.8827 -1.2541  0.6595
  185POPC   H4S21262   5.003   2.337   3.499 -1.0847 -0.1264  0.3358
  185POPC   C2521263   5.109   2.513   3.427  0.1606 -0.2121 -0.6455
  185POPC   H5R21264   5.016   2.567   3.457  0.3298  0.3668 -1.1384
  185POPC   H5S21265   5.150   2.544   3.328 -0.8058 -0.0822 -1.0209
  185POPC   C2621266   5.207   2.534   3.544 -0.0194 -0.0325 -0.0430
  185POPC   H6R21267   5.307   2.501   3.511  0.1381  0.5218 -0.1314
  185POPC   H6S21268   5.162   2.474   3.626 -2.8745 -0.3825 -1.7073
  185POPC   C2721269   5.231   2.685   3.585 -0.2129  0.0792  0.0829
  185POPC   H7R21270   5.131   2.731   3.594 -0.7074 -1.0024  0.3113
  185POPC   H7S21271   5.289   2.738   3.507 -1.3533  0.1901 -0.7120
  185POPC   C2821272   5.321   2.720   3.707 -0.3109  0.8823  0.5869
  185POPC   H8R21273   5.270   2.716   3.805 -2.3363 -1.3535 -0.4443
  185POPC   H8S21274   5.345   2.829   3.700  0.1286  0.7903  0.5989
  185POPC   C2921275   5.444   2.628   3.700 -1.0371 -0.4558 -0.7360
  185POPC   H9121276   5.519   2.664   3.627 -0.1936  0.1939  0.4090
  185POPC  C21021277   5.453   2.507   3.758  0.5205 -0.8558 -0.1203
  185POPC  H10121278   5.542   2.442   3.750 -2.2143 -4.8569 -1.0893
  185POPC  C21121279   5.353   2.444   3.846  0.7508  0.2711  0.2640
  185POPC  H11R21280   5.257   2.496   3.865 -0.0455 -0.9360 -0.2679
  185POPC  H11S21281   5.388   2.435   3.951 -0.7924 -0.9990  0.7195
  185POPC  C21221282   5.314   2.298   3.797  0.1374 -0.7301  0.5149
  185POPC  H12R21283   5.292   2.291   3.688 -0.9813 -0.6712  0.7320
  185POPC  H12S21284   5.232   2.262   3.862  1.4653 -1.4277  1.8844
  185POPC  C21321285   5.431   2.197   3.822 -0.3244  0.4355 -0.4417
  185POPC  H13R21286   5.449   2.209   3.931  1.5598  1.9998 -0.8658
  185POPC  H13S21287   5.521   2.218   3.761 -1.0823  0.8721 -1.4427
  185POPC  C21421288   5.382   2.057   3.786  1.3915 -0.5269  0.2056
  185POPC  H14R21289   5.348   2.062   3.680  1.4285  2.9406  0.2415
  185POPC  H14S21290   5.292   2.026   3.843  0.8856 -2.3032 -1.4527
  185POPC  C21521291   5.489   1.946   3.794 -0.6931 -0.1532  0.0838
  185POPC  H15R21292   5.514   1.914   3.897  1.9033 -1.9035 -0.9784
  185POPC  H15S21293   5.580   1.978   3.740 -0.8984 -1.0020 -0.8049
  185POPC  C21621294   5.439   1.817   3.719  0.0297 -0.1711  0.5378
  185POPC  H16R21295   5.428   1.856   3.616  0.1546  1.2833  1.0492
  185POPC  H16S21296   5.340   1.782   3.757 -0.6693  1.2783  0.1008
  185POPC  C21721297   5.529   1.696   3.723 -0.4583  0.3340 -0.3076
  185POPC  H17R21298   5.632   1.739   3.716 -1.1181  2.5371  1.9647
  185POPC  H17S21299   5.502   1.629   3.638  0.6661 -0.1452 -0.3091
  185POPC  C21821300   5.512   1.622   3.855 -0.2402  0.0114 -0.5998
  185POPC  H18R21301   5.439   1.539   3.847 -2.9205  1.7319  3.0889
  185POPC  H18S21302   5.481   1.687   3.940  1.2981 -1.0444  0.8628
  185POPC  H18T21303   5.610   1.584   3.892  0.3744 -0.1599 -2.3162
  185POPC   C3321304   5.208   2.049   3.162 -0.9794  0.0323 -0.5555
  185POPC   H3X21305   5.102   2.078   3.147 -0.7259  1.1443 -0.2618
  185POPC   H3Y21306   5.272   2.140   3.158  0.5823 -1.0286 -0.8472
  185POPC   C3421307   5.223   1.972   3.302  0.1963  0.2439  1.4914
  185POPC   H4X21308   5.331   1.962   3.327  0.3567  0.3626  0.8717
  185POPC   H4Y21309   5.187   1.869   3.281  1.9627 -0.4544  1.7044
  185POPC   C3521310   5.147   2.018   3.417 -0.4577 -0.1090 -0.2236
  185POPC   H5X21311   5.060   2.079   3.386 -1.4615 -1.5762 -0.3427
  185POPC   H5Y21312   5.212   2.067   3.494 -0.2967 -1.0975  0.2838
  185POPC   C3621313   5.092   1.895   3.504  0.6100 -0.7473 -0.0701
  185POPC   H6X21314   5.170   1.825   3.541 -0.8034 -1.0209  2.6315
  185POPC   H6Y21315   5.006   1.845   3.455  1.4622 -0.6981 -1.7019
  185POPC   C3721316   5.026   1.947   3.629  0.2136  0.2802 -0.2655
  185POPC   H7X21317   4.971   2.042   3.611  2.0969  1.1204 -1.9496
  185POPC   H7Y21318   5.102   1.977   3.704 -1.8754  0.0346  2.0646
  185POPC   C3821319   4.936   1.846   3.714 -0.4919  0.1634 -0.1090
  185POPC   H8X21320   4.867   1.788   3.648  0.3112 -0.2230 -0.6184
  185POPC   H8Y21321   4.888   1.906   3.794 -0.2353 -2.0910  1.8599
  185POPC   C3921322   5.016   1.754   3.795  0.3158 -0.5859  0.2594
  185POPC   H9X21323   5.095   1.807   3.853  1.3669 -2.4728  0.6339
  185POPC   H9Y21324   5.080   1.699   3.722 -0.4808 -0.1737 -0.7734
  185POPC  C31021325   4.933   1.667   3.893  0.2566  0.7566  0.5808
  185POPC  H10X21326   4.995   1.592   3.947 -0.6485 -0.5256 -0.1042
  185POPC  H10Y21327   4.866   1.604   3.831 -1.4776  1.0663  2.0450
  185POPC  C31121328   4.826   1.735   3.980  0.1575  0.2629  0.0144
  185POPC  H11X21329   4.750   1.785   3.916  0.8730  1.6899  0.2438
  185POPC  H11Y21330   4.879   1.822   4.025 -0.6664  0.8719 -0.1577
  185POPC  C31221331   4.762   1.644   4.087  0.1880 -0.0860  0.7191
  185POPC  H12X21332   4.841   1.578   4.129  1.0317  1.5732  1.8622
  185POPC  H12Y21333   4.677   1.586   4.045 -0.2740  0.3299  1.0602
  185POPC  C31321334   4.722   1.724   4.211  0.4272 -0.9037  0.3237
  185POPC  H13X21335   4.649   1.807   4.198 -0.1178 -1.0188  2.3487
  185POPC  H13Y21336   4.814   1.773   4.248 -0.8238  1.4185  0.5772
  185POPC  C31421337   4.677   1.628   4.324 -0.3759 -0.0366  0.2201
  185POPC  H14X21338   4.744   1.539   4.319 -0.6997 -0.2426 -0.5553
  185POPC  H14Y21339   4.573   1.596   4.300 -0.8894  1.6853  0.0553
  185POPC  C31521340   4.679   1.689   4.464 -0.2590  0.2020  0.4936
  185POPC  H15X21341   4.636   1.791   4.456 -1.4407 -0.3721 -0.8721
  185POPC  H15Y21342   4.784   1.713   4.489  0.2538 -0.3497 -1.0245
  185POPC  C31621343   4.618   1.604   4.580  0.4226 -0.9074  0.7269
  185POPC  H16X21344   4.665   1.503   4.580 -0.0777 -1.1584 -0.6202
  185POPC  H16Y21345   4.509   1.595   4.562  0.1914  1.0491  0.8688
  185POPC  H16Z21346   4.636   1.641   4.683  0.3596  0.7845  0.1659
  186POPC     N21347   2.609   6.702   2.184  0.3345 -0.2152 -0.3827
  186POPC   C1221348   2.559   6.632   2.303 -0.4740  0.2069 -0.1785
  186POPC  H12A21349   2.470   6.574   2.282 -0.1713 -0.2136 -0.3234
  186POPC  H12B21350   2.533   6.705   2.378 -1.8969 -0.0954 -0.3567
  186POPC   C1321351   2.502   6.794   2.139 -0.0708 -0.1752 -0.4192
  186POPC  H13A21352   2.469   6.859   2.220  3.6244 -1.2225  2.1726
  186POPC  H13B21353   2.518   6.852   2.049 -0.4869  0.5352 -0.0520
  186POPC  H13C21354   2.411   6.737   2.130  0.7320 -2.1065  2.4049
  186POPC   C1421355   2.727   6.783   2.223 -0.7871  0.2223 -0.0567
  186POPC  H14A21356   2.704   6.878   2.270  0.2889  0.9835 -1.0404
  186POPC  H14B21357   2.789   6.733   2.295 -1.6724  0.2314  0.7404
  186POPC  H14C21358   2.786   6.807   2.136 -0.7038  1.6374  0.3562
  186POPC   C1521359   2.652   6.618   2.069  0.5803 -0.0552  0.7946
  186POPC  H15A21360   2.561   6.575   2.030 -0.0974  0.4934  1.7207
  186POPC  H15B21361   2.699   6.523   2.092 -1.4772 -0.9065  1.7337
  186POPC  H15C21362   2.711   6.663   1.991  1.3481 -0.8916  0.8753
  186POPC   C1121363   2.662   6.550   2.389 -0.2722 -0.0316  0.1617
  186POPC  H11A21364   2.711   6.467   2.333  2.4655 -1.0002  3.6106
  186POPC  H11B21365   2.602   6.495   2.465 -0.2008  1.4688  1.3462
  186POPC     P21366   2.707   6.724   2.580  0.0927 -0.0869  0.1089
  186POPC   O1321367   2.558   6.730   2.579 -0.7573  0.0291  0.2926
  186POPC   O1421368   2.778   6.856   2.573  0.1174 -0.0620 -0.0082
  186POPC   O1221369   2.748   6.633   2.460 -0.1778  0.3125 -0.5703
  186POPC   O1121370   2.751   6.646   2.707  0.1497  0.2665  0.4394
  186POPC    C121371   2.707   6.517   2.749  0.2835 -1.2334  0.8461
  186POPC    HA21372   2.788   6.481   2.817  2.7450 -1.1734 -1.8855
  186POPC    HB21373   2.700   6.435   2.674 -0.3967 -0.7989  0.4308
  186POPC    C221374   2.560   6.523   2.814  0.1593  0.1581  0.2768
  186POPC    HS21375   2.488   6.544   2.732  0.8613  0.2076 -0.3302
  186POPC   O2121376   2.563   6.624   2.918  0.1624  0.4546 -0.6378
  186POPC   C2121377   2.454   6.694   2.928 -0.2713 -0.3933 -0.9446
  186POPC   O2221378   2.373   6.713   2.843  0.6000 -0.1776 -0.0454
  186POPC   C2221379   2.442   6.734   3.081  0.4952 -0.7279 -0.3039
  186POPC   H2R21380   2.506   6.825   3.087 -0.7776  0.3271 -1.6750
  186POPC   H2S21381   2.476   6.640   3.128  0.0618 -1.5099 -1.5223
  186POPC    C321382   2.520   6.386   2.873 -0.5149  0.5662  0.3526
  186POPC    HX21383   2.603   6.364   2.943 -1.1675  0.1420  1.0147
  186POPC    HY21384   2.512   6.298   2.806 -0.3519 -1.2630  2.6037
  186POPC   O3121385   2.400   6.391   2.952  0.1658 -0.1538  0.5241
  186POPC   C3121386   2.288   6.363   2.897  0.2455  0.7458  0.6104
  186POPC   O3221387   2.271   6.332   2.779 -0.0864  0.4290 -0.3926
  186POPC   C3221388   2.175   6.369   2.998  0.4136 -0.5385 -0.0435
  186POPC   H2X21389   2.092   6.306   2.959 -0.3786 -0.4229  1.4058
  186POPC   H2Y21390   2.143   6.475   2.999  1.8195 -0.0883  1.8991
  186POPC   C2321391   2.291   6.762   3.112 -0.5948  0.1999  1.0660
  186POPC   H3R21392   2.230   6.674   3.081  0.3165 -0.9861  2.4783
  186POPC   H3S21393   2.258   6.853   3.059  0.3613  0.2748  0.5726
  186POPC   C2421394   2.268   6.773   3.264 -0.8492  0.0859  0.1772
  186POPC   H4R21395   2.354   6.824   3.314 -0.6524 -0.5930  0.5381
  186POPC   H4S21396   2.250   6.676   3.316  1.6296 -0.7618 -0.4213
  186POPC   C2521397   2.137   6.856   3.284 -0.3194 -0.0493  0.9397
  186POPC   H5R21398   2.055   6.800   3.234  0.2377 -1.5682  1.6700
  186POPC   H5S21399   2.162   6.954   3.238  0.1115 -1.1976 -1.3858
  186POPC   C2621400   2.104   6.888   3.437  0.3327  0.7483  0.2865
  186POPC   H6R21401   2.132   6.797   3.495  0.5046  0.7531  0.2104
  186POPC   H6S21402   2.000   6.923   3.454 -0.1837  0.1590 -1.5315
  186POPC   C2721403   2.195   6.996   3.503  0.1363 -0.1414  0.0054
  186POPC   H7R21404   2.191   7.082   3.432 -1.5705 -1.2064 -1.2691
  186POPC   H7S21405   2.298   6.955   3.513 -0.3627 -0.8765  2.9747
  186POPC   C2821406   2.146   7.039   3.643 -0.1208  0.2868  1.3546
  186POPC   H8R21407   2.038   7.064   3.651 -0.2652 -0.3363  1.4395
  186POPC   H8S21408   2.200   7.132   3.670 -0.2313  0.1633  2.0309
  186POPC   C2921409   2.183   6.939   3.746 -0.1010 -0.0865  0.7323
  186POPC   H9121410   2.111   6.855   3.742 -1.3787  0.8427  2.6182
  186POPC  C21021411   2.271   6.947   3.849  0.4241 -0.1471 -0.1137
  186POPC  H10121412   2.281   6.858   3.913  0.1842 -1.1064 -1.3822
  186POPC  C21121413   2.365   7.054   3.887  0.2943  0.0377 -0.7649
  186POPC  H11R21414   2.371   7.063   3.997 -3.0134  0.1822 -0.5045
  186POPC  H11S21415   2.326   7.151   3.848 -1.4521 -0.2885  0.0609
  186POPC  C21221416   2.515   7.027   3.850 -0.4545  0.5827 -0.3967
  186POPC  H12R21417   2.562   6.931   3.880  3.3947  2.0506 -1.1952
  186POPC  H12S21418   2.580   7.095   3.908 -0.1094  0.1125 -0.2271
  186POPC  C21321419   2.533   7.050   3.695 -0.3915 -0.1804 -0.6877
  186POPC  H13R21420   2.501   7.151   3.660 -0.3735  0.9765  2.3404
  186POPC  H13S21421   2.475   6.975   3.637  1.0108 -1.0825 -0.9661
  186POPC  C21421422   2.684   7.038   3.652  0.5811  0.7790  0.6719
  186POPC  H14R21423   2.715   6.931   3.659  2.0524  1.2409  1.5693
  186POPC  H14S21424   2.747   7.093   3.725  0.2306  0.6705  1.0604
  186POPC  C21521425   2.717   7.095   3.512  0.1330  0.4732  0.7435
  186POPC  H15R21426   2.819   7.066   3.480  0.1293  0.8603  0.3652
  186POPC  H15S21427   2.716   7.205   3.519 -1.1286  0.4040  2.0651
  186POPC  C21621428   2.621   7.057   3.397 -0.3887 -0.6774 -0.2665
  186POPC  H16R21429   2.532   7.123   3.408 -3.1050 -4.0788 -0.1590
  186POPC  H16S21430   2.586   6.951   3.396 -1.3663 -0.3883  0.7703
  186POPC  C21721431   2.684   7.091   3.255 -0.2618 -0.2707  0.2503
  186POPC  H17R21432   2.765   7.019   3.230  0.4242 -0.1307  1.9257
  186POPC  H17S21433   2.752   7.177   3.269  2.5192 -1.9734 -1.7911
  186POPC  C21821434   2.591   7.133   3.144  0.3704  0.4920  0.4604
  186POPC  H18R21435   2.527   7.054   3.098  1.7259 -0.5740  0.3377
  186POPC  H18S21436   2.529   7.221   3.173  0.0684 -0.2547  2.2303
  186POPC  H18T21437   2.654   7.170   3.060  2.3960  0.6441  1.9730
  186POPC   C3321438   2.207   6.321   3.130  0.0689 -0.5841 -0.4943
  186POPC   H3X21439   2.110   6.329   3.183 -1.3422 -1.6998 -2.7371
  186POPC   H3Y21440   2.285   6.382   3.180 -1.2458  0.6448  0.1328
  186POPC   C3421441   2.227   6.166   3.133  0.1170  0.1304  0.3595
  186POPC   H4X21442   2.331   6.139   3.107 -0.0042 -2.0630  1.9268
  186POPC   H4Y21443   2.159   6.114   3.062  2.4631 -1.9362 -0.5082
  186POPC   C3521444   2.197   6.111   3.271  0.0090  0.2944  0.0822
  186POPC   H5X21445   2.187   6.001   3.257 -0.0277  0.4576 -1.2937
  186POPC   H5Y21446   2.108   6.151   3.323  0.0834  2.7897 -1.5523
  186POPC   C3621447   2.316   6.135   3.367 -0.1304  0.0262 -0.6220
  186POPC   H6X21448   2.330   6.245   3.363 -0.2377  0.0094 -1.5303
  186POPC   H6Y21449   2.405   6.073   3.344 -0.4506 -0.9845  0.7333
  186POPC   C3721450   2.286   6.109   3.509  0.4466 -0.2641  0.1180
  186POPC   H7X21451   2.230   6.013   3.504 -1.3019  0.7718 -2.4262
  186POPC   H7Y21452   2.211   6.185   3.538  0.6114  0.8200 -2.0602
  186POPC   C3821453   2.403   6.121   3.600  0.0790  0.7026  0.2165
  186POPC   H8X21454   2.354   6.110   3.699 -1.1025 -0.6956 -0.4961
  186POPC   H8Y21455   2.432   6.227   3.584 -1.7245  1.2743  0.5977
  186POPC   C3921456   2.516   6.018   3.587  0.8480  0.6127 -0.1527
  186POPC   H9X21457   2.558   6.028   3.485  2.6588 -0.9446  0.3775
  186POPC   H9Y21458   2.482   5.912   3.593  0.1310  0.8609  0.2717
  186POPC  C31021459   2.631   6.027   3.689  0.4557 -0.2999  0.0615
  186POPC  H10X21460   2.590   5.983   3.783  1.5148 -3.8945 -0.9759
  186POPC  H10Y21461   2.646   6.136   3.702 -0.7567  0.0350 -1.1045
  186POPC  C31121462   2.761   5.952   3.648  0.1527 -0.5372  0.1628
  186POPC  H11X21463   2.807   6.009   3.564  1.2433  1.5424  2.0382
  186POPC  H11Y21464   2.746   5.844   3.628  1.1540 -1.0651  1.9694
  186POPC  C31221465   2.869   5.965   3.759  0.1601 -0.0318 -0.3681
  186POPC  H12X21466   2.945   5.897   3.715 -0.0806 -0.7397  0.2830
  186POPC  H12Y21467   2.833   5.912   3.850  2.3368 -0.6634  0.1751
  186POPC  C31321468   2.939   6.101   3.792  0.3505 -0.3852  0.0938
  186POPC  H13X21469   3.037   6.072   3.837 -0.7284 -0.5188  2.5058
  186POPC  H13Y21470   2.873   6.146   3.869  1.8829 -0.0754  1.2803
  186POPC  C31421471   2.957   6.192   3.671  0.0219 -0.3650 -0.7697
  186POPC  H14X21472   2.867   6.257   3.668 -1.2738 -1.9244  1.3983
  186POPC  H14Y21473   2.973   6.129   3.581 -0.9043  1.1748 -2.0599
  186POPC  C31521474   3.082   6.285   3.692  0.5704  0.3070 -0.0386
  186POPC  H15X21475   3.168   6.230   3.736  0.4047 -0.5868 -0.7870
  186POPC  H15Y21476   3.067   6.378   3.751  0.4170  1.2689 -1.5512
  186POPC  C31621477   3.138   6.334   3.550 -0.4142 -0.2768 -0.0730
  186POPC  H16X21478   3.059   6.378   3.485 -2.3592 -1.7366  1.1945
  186POPC  H16Y21479   3.163   6.236   3.502  0.5472  1.0980 -2.6153
  186POPC  H16Z21480   3.224   6.404   3.556  1.0137 -1.6061 -2.8012
  187POPC     N21481   4.027   0.848   1.729 -0.3348 -0.2288  0.5945
  187POPC   C1221482   4.061   0.712   1.782  0.5614  0.5710  0.4467
  187POPC  H12A21483   4.168   0.706   1.796  0.6217 -3.2237 -0.5703
  187POPC  H12B21484   4.033   0.639   1.707  0.8313 -0.3856  1.2504
  187POPC   C1321485   4.126   0.877   1.617  0.7933  0.4138 -0.3766
  187POPC  H13A21486   4.164   0.789   1.567  0.9165 -1.1549  2.2742
  187POPC  H13B21487   4.085   0.947   1.546 -0.2390  0.3525  0.1345
  187POPC  H13C21488   4.209   0.929   1.662  1.1335 -0.3951 -0.0449
  187POPC   C1421489   3.894   0.855   1.659 -0.3128 -0.3713 -0.2456
  187POPC  H14A21490   3.896   0.799   1.567 -1.1571 -0.2839 -0.3249
  187POPC  H14B21491   3.802   0.840   1.714 -1.3363 -0.4828 -1.9012
  187POPC  H14C21492   3.900   0.959   1.629  1.6791  0.2804  2.0909
  187POPC   C1521493   4.039   0.955   1.832 -0.0222 -0.2549  0.0816
  187POPC  H15A21494   4.036   1.053   1.787 -0.0321 -0.7463 -1.0316
  187POPC  H15B21495   4.130   0.939   1.889  1.7413 -3.0143 -3.1525
  187POPC  H15C21496   3.952   0.958   1.896  0.3587  1.3663  0.5598
  187POPC   C1121497   3.992   0.669   1.915  0.6599  0.4968  0.1886
  187POPC  H11A21498   4.010   0.560   1.918  0.2262  0.3983 -0.6256
  187POPC  H11B21499   3.884   0.693   1.922  0.3268 -0.8354 -0.0922
  187POPC     P21500   4.184   0.666   2.101 -0.1500  0.4089 -0.2208
  187POPC   O1321501   4.286   0.763   2.140 -0.8700  1.0423 -0.8781
  187POPC   O1421502   4.224   0.551   2.016 -0.1895  0.1816  0.2911
  187POPC   O1221503   4.050   0.728   2.036 -0.5277 -0.1340  0.2333
  187POPC   O1121504   4.120   0.601   2.233 -0.7208 -0.3104 -0.1527
  187POPC    C121505   4.131   0.684   2.358  0.2674 -0.7354 -0.0052
  187POPC    HA21506   4.087   0.785   2.345  1.1790 -0.4879 -1.3614
  187POPC    HB21507   4.235   0.688   2.396  0.1699 -2.0704  0.4693
  187POPC    C221508   4.041   0.619   2.467 -0.1971 -0.0549  0.0942
  187POPC    HS21509   3.938   0.602   2.431 -1.2202  2.5832  1.4797
  187POPC   O2121510   4.044   0.713   2.577 -0.2536  0.6847  0.4869
  187POPC   C2121511   3.964   0.681   2.675  1.0536 -0.0208  0.2354
  187POPC   O2221512   3.868   0.606   2.675  0.5214  0.4237 -0.0115
  187POPC   C2221513   4.005   0.770   2.790  0.8965  0.0842 -0.4982
  187POPC   H2R21514   3.914   0.768   2.853  0.9840 -0.3132 -0.3747
  187POPC   H2S21515   4.021   0.870   2.745  2.3121 -1.2768 -3.3268
  187POPC    C321516   4.110   0.486   2.514 -0.0459  0.1958 -0.2581
  187POPC    HX21517   4.113   0.428   2.420 -1.2095  1.0145 -0.8276
  187POPC    HY21518   4.054   0.429   2.592  0.5150  0.2883  0.2198
  187POPC   O3121519   4.238   0.517   2.571 -0.1274 -0.2807 -0.3845
  187POPC   C3121520   4.343   0.454   2.522  0.5393  0.5034 -0.5193
  187POPC   O3221521   4.345   0.374   2.428  0.2539  0.8686 -0.4040
  187POPC   C3221522   4.469   0.486   2.605 -0.3473 -0.5062  0.1973
  187POPC   H2X21523   4.467   0.583   2.659  1.4301  0.0846 -0.6911
  187POPC   H2Y21524   4.558   0.505   2.540  0.9770 -1.3376  1.6829
  187POPC   C2321525   4.131   0.724   2.877 -0.2060  0.1614  0.2270
  187POPC   H3R21526   4.187   0.818   2.896 -0.9070  0.3563  1.4319
  187POPC   H3S21527   4.192   0.650   2.821 -0.6410  0.2348 -0.3548
  187POPC   C2421528   4.101   0.666   3.017  0.1917  0.4649  0.0399
  187POPC   H4R21529   4.087   0.556   3.008 -2.1749  0.5274  2.0936
  187POPC   H4S21530   4.005   0.708   3.051  0.8438  4.0068 -2.0220
  187POPC   C2521531   4.206   0.702   3.118 -0.5510  0.0847 -0.2154
  187POPC   H5R21532   4.233   0.809   3.115  0.3122 -0.1319 -0.6073
  187POPC   H5S21533   4.302   0.650   3.100 -1.3711 -1.2712 -0.8791
  187POPC   C2621534   4.162   0.674   3.266  0.3219  0.5671  0.3555
  187POPC   H6R21535   4.063   0.720   3.286 -0.7240 -0.4671 -2.0606
  187POPC   H6S21536   4.239   0.717   3.334  0.1065  1.2313  0.1882
  187POPC   C2721537   4.155   0.521   3.301  0.0119  0.9938 -0.0881
  187POPC   H7R21538   4.228   0.461   3.243 -0.6106 -0.0124  0.1456
  187POPC   H7S21539   4.055   0.486   3.268  1.0035 -0.0706 -2.1556
  187POPC   C2821540   4.185   0.492   3.450  0.2316 -0.2011  1.0977
  187POPC   H8R21541   4.284   0.540   3.465 -0.3306  1.7387 -0.8369
  187POPC   H8S21542   4.208   0.384   3.464 -1.9822 -0.8039  0.4382
  187POPC   C2921543   4.093   0.554   3.550 -0.5683  0.3145  0.5353
  187POPC   H9121544   4.081   0.663   3.551 -2.1731  0.1647 -0.1529
  187POPC  C21021545   4.034   0.487   3.650  0.0046 -0.0698 -0.5079
  187POPC  H10121546   3.960   0.534   3.716  1.6152 -0.6098  1.7989
  187POPC  C21121547   4.056   0.340   3.681 -0.3579 -0.1335 -0.0477
  187POPC  H11R21548   4.121   0.290   3.605  0.2636  0.0004  0.3860
  187POPC  H11S21549   3.956   0.293   3.691 -0.1242 -0.6112  0.0919
  187POPC  C21221550   4.128   0.323   3.815  0.2244  0.2559 -0.0726
  187POPC  H12R21551   4.223   0.381   3.814  0.3341  0.1344  1.2963
  187POPC  H12S21552   4.160   0.216   3.811 -0.3729  0.0978 -1.0574
  187POPC  C21321553   4.052   0.358   3.947  0.3650 -0.8599  0.9282
  187POPC  H13R21554   3.950   0.314   3.944  0.6386 -1.4672 -0.9876
  187POPC  H13S21555   4.037   0.468   3.956 -0.6078 -0.6691 -2.0274
  187POPC  C21421556   4.123   0.294   4.070 -0.4913  0.5470  0.4706
  187POPC  H14R21557   4.063   0.306   4.163 -1.4042 -0.4564  0.0476
  187POPC  H14S21558   4.225   0.336   4.079 -0.7497  1.5201 -0.8553
  187POPC  C21521559   4.133   0.137   4.063  0.6758 -0.3657  0.0131
  187POPC  H15R21560   4.182   0.100   3.970 -1.0681 -1.1547 -0.6201
  187POPC  H15S21561   4.027   0.105   4.059  0.1011  0.9232  2.4764
  187POPC  C21621562   4.213   0.083   4.185  0.5954 -0.1016 -0.3672
  187POPC  H16R21563   4.301   0.150   4.191  1.3788 -0.8406 -2.6565
  187POPC  H16S21564   4.255  -0.018   4.166 -0.1328 -0.5397  0.2808
  187POPC  C21721565   4.134   0.057   4.319 -0.8859 -0.3406 -0.6518
  187POPC  H17R21566   4.096   0.156   4.355 -0.4541 -0.2702 -0.3772
  187POPC  H17S21567   4.203   0.011   4.393 -0.6651  1.2249  0.1791
  187POPC  C21821568   4.010  -0.027   4.310 -1.0058  0.1926 -0.2181
  187POPC  H18R21569   3.924   0.012   4.251  0.3657  2.1497 -0.9922
  187POPC  H18S21570   3.963  -0.049   4.408 -0.1173 -3.0401 -0.4072
  187POPC  H18T21571   4.044  -0.129   4.281  0.1279  0.5591 -0.2068
  187POPC   C3321572   4.502   0.361   2.691 -0.1126 -0.3185  0.1008
  187POPC   H3X21573   4.595   0.379   2.749  0.1528 -0.4408 -0.2847
  187POPC   H3Y21574   4.512   0.271   2.626  1.0384  1.4434 -2.2972
  187POPC   C3421575   4.394   0.323   2.799  0.5235  0.2429 -0.7627
  187POPC   H4X21576   4.297   0.290   2.756 -0.8116 -0.5671  2.5168
  187POPC   H4Y21577   4.376   0.411   2.865  2.1592 -0.3959  0.6092
  187POPC   C3521578   4.455   0.211   2.893 -0.3671 -0.6922 -0.0766
  187POPC   H5X21579   4.564   0.230   2.905 -0.3848 -1.9094  2.6416
  187POPC   H5Y21580   4.431   0.114   2.843 -0.8239  0.0525 -1.3412
  187POPC   C3621581   4.393   0.227   3.038  0.0717  0.0088  0.3520
  187POPC   H6X21582   4.289   0.188   3.031  0.1350  0.0010 -0.8307
  187POPC   H6Y21583   4.391   0.335   3.062 -1.8539 -0.0283  0.4713
  187POPC   C3721584   4.471   0.164   3.147 -0.9552 -0.2773 -0.7754
  187POPC   H7X21585   4.552   0.232   3.179 -1.5521  0.1676 -0.1690
  187POPC   H7Y21586   4.527   0.074   3.113  0.1358  0.5571 -1.2409
  187POPC   C3821587   4.386   0.118   3.256 -0.3815 -0.2397 -0.7576
  187POPC   H8X21588   4.306   0.050   3.219 -1.5354  1.2246 -1.0803
  187POPC   H8Y21589   4.328   0.204   3.298  0.5288  0.1398 -0.2562
  187POPC   C3921590   4.456   0.048   3.373  0.0995 -0.5801  0.3617
  187POPC   H9X21591   4.522   0.121   3.425  0.7334 -0.3267 -0.7769
  187POPC   H9Y21592   4.521  -0.028   3.324 -1.4991 -0.0217 -2.8837
  187POPC  C31021593   4.354  -0.011   3.473  0.3697 -0.4339  0.4746
  187POPC  H10X21594   4.295  -0.075   3.404  0.6307  0.6534 -0.7891
  187POPC  H10Y21595   4.296   0.074   3.514  0.0323  0.5802 -1.9296
  187POPC  C31121596   4.425  -0.083   3.584  0.0077 -0.3884 -0.3077
  187POPC  H11X21597   4.511  -0.018   3.613 -0.5052  0.4680 -0.6855
  187POPC  H11Y21598   4.467  -0.181   3.552 -1.8917 -0.8362 -1.6085
  187POPC  C31221599   4.330  -0.108   3.701 -0.2412  0.1103 -0.3709
  187POPC  H12X21600   4.238  -0.164   3.674  0.5217 -0.9096 -0.9315
  187POPC  H12Y21601   4.302  -0.006   3.734 -0.2515  0.1303 -0.4422
  187POPC  C31321602   4.407  -0.185   3.812  0.9109 -0.2523  0.0915
  187POPC  H13X21603   4.501  -0.132   3.837  0.2370  1.4197 -0.7924
  187POPC  H13Y21604   4.431  -0.289   3.781  0.1626 -1.0291  1.9305
  187POPC  C31421605   4.316  -0.211   3.926 -0.6290 -0.5612 -0.2019
  187POPC  H14X21606   4.223  -0.262   3.895 -1.3844  0.4626  0.3263
  187POPC  H14Y21607   4.285  -0.112   3.966 -1.0819 -1.4767  1.8433
  187POPC  C31521608   4.373  -0.303   4.041  0.5609 -0.3149  0.0854
  187POPC  H15X21609   4.462  -0.254   4.087  0.2811 -0.8728  1.2627
  187POPC  H15Y21610   4.420  -0.395   4.000 -0.4969 -1.5501  1.5383
  187POPC  C31621611   4.265  -0.341   4.139  0.0889  0.5372  0.6050
  187POPC  H16X21612   4.225  -0.247   4.181 -2.2496  1.3525 -3.0102
  187POPC  H16Y21613   4.309  -0.401   4.221  3.7495 -0.6284 -1.9677
  187POPC  H16Z21614   4.180  -0.389   4.084 -0.1771  1.1182  0.5069
  188POPC     N21615   1.370   2.392   2.099 -0.6536 -0.2278 -0.4800
  188POPC   C1221616   1.403   2.478   2.220  0.3552  0.7891  0.3600
  188POPC  H12A21617   1.331   2.557   2.208  0.2851  0.8193  0.9627
  188POPC  H12B21618   1.502   2.515   2.198  0.6142  0.6759  1.2838
  188POPC   C1321619   1.223   2.379   2.076 -1.0952 -0.3565 -0.4850
  188POPC  H13A21620   1.185   2.472   2.036  1.9654 -0.2087 -3.5061
  188POPC  H13B21621   1.202   2.302   2.003  2.3636 -1.8826 -0.0631
  188POPC  H13C21622   1.170   2.357   2.167 -1.1276 -1.1312 -0.6854
  188POPC   C1421623   1.423   2.451   1.970  0.3532  0.0344  0.5551
  188POPC  H14A21624   1.383   2.547   1.942  1.0777  0.3761  0.6572
  188POPC  H14B21625   1.530   2.465   1.979  0.2719 -0.1995  2.2041
  188POPC  H14C21626   1.404   2.388   1.885 -1.1545  0.5951  0.4434
  188POPC   C1521627   1.427   2.260   2.100 -0.3231  0.1115 -0.8453
  188POPC  H15A21628   1.535   2.259   2.096 -0.1278  1.1518  2.1089
  188POPC  H15B21629   1.397   2.209   2.009 -2.2470 -0.9555  0.3300
  188POPC  H15C21630   1.389   2.203   2.183 -4.4854  1.7407 -1.3857
  188POPC   C1121631   1.386   2.432   2.361 -0.3238 -0.1100  0.0544
  188POPC  H11A21632   1.417   2.517   2.426 -1.4089  0.4877 -0.1856
  188POPC  H11B21633   1.454   2.352   2.395 -0.7800 -0.3067  0.5201
  188POPC     P21634   1.163   2.463   2.484  0.0429 -0.1336 -0.4720
  188POPC   O1321635   1.033   2.395   2.504 -0.8811 -0.0226  0.8329
  188POPC   O1421636   1.154   2.610   2.456  0.1557  0.2356 -0.2244
  188POPC   O1221637   1.251   2.392   2.376  0.3658 -0.3226 -0.0634
  188POPC   O1121638   1.246   2.446   2.616  0.6863 -0.3528  0.1665
  188POPC    C121639   1.301   2.321   2.658 -0.0701 -0.2573 -0.0218
  188POPC    HA21640   1.387   2.279   2.603 -0.0871 -1.8996  1.1173
  188POPC    HB21641   1.227   2.239   2.657  1.0447 -1.2867  0.0171
  188POPC    C221642   1.349   2.343   2.802 -0.0617  0.5185 -0.9706
  188POPC    HS21643   1.363   2.245   2.851  0.2006  1.5327  1.1303
  188POPC   O2121644   1.268   2.421   2.888 -0.1103 -0.3943 -0.1388
  188POPC   C2121645   1.149   2.366   2.912 -0.3624 -0.3604  0.2751
  188POPC   O2221646   1.106   2.257   2.876  0.4242  0.0032 -0.5109
  188POPC   C2221647   1.069   2.477   2.977 -0.1540 -0.2020 -0.1042
  188POPC   H2R21648   0.961   2.454   2.984 -0.8922  3.1236  1.2605
  188POPC   H2S21649   1.059   2.562   2.905  0.3841 -2.0184 -2.4297
  188POPC    C321650   1.494   2.406   2.813  0.2361 -0.2665  0.3521
  188POPC    HX21651   1.500   2.504   2.760 -0.4698  0.2767  1.2536
  188POPC    HY21652   1.569   2.337   2.768 -0.7086 -0.6168 -0.7428
  188POPC   O3121653   1.530   2.433   2.951 -0.2802 -0.3534 -0.1564
  188POPC   C3121654   1.555   2.330   3.030 -0.7866  0.0527  0.2174
  188POPC   O3221655   1.567   2.217   2.985  0.6204  0.9004 -0.9003
  188POPC   C3221656   1.560   2.384   3.172  0.3022 -0.8345 -0.0793
  188POPC   H2X21657   1.528   2.490   3.172 -0.2345 -0.9374  2.6087
  188POPC   H2Y21658   1.664   2.389   3.208  0.5247 -2.0300 -0.5059
  188POPC   C2321659   1.130   2.510   3.115  0.4319 -0.0289  0.4181
  188POPC   H3R21660   1.215   2.579   3.099 -0.1965  0.4110 -1.1861
  188POPC   H3S21661   1.151   2.419   3.177 -2.6533 -0.4815  0.9722
  188POPC   C2421662   1.035   2.584   3.215 -0.4661 -0.2910  0.0855
  188POPC   H4R21663   0.964   2.511   3.259  0.8602 -0.8541  1.3652
  188POPC   H4S21664   0.989   2.673   3.166  0.8145  0.3129 -0.0676
  188POPC   C2521665   1.115   2.632   3.346 -0.2300  0.0398  0.0090
  188POPC   H5R21666   1.044   2.700   3.398  0.7776  2.0941 -1.2152
  188POPC   H5S21667   1.199   2.698   3.319 -1.2995  1.2428 -0.5048
  188POPC   C2621668   1.152   2.516   3.441 -0.2765  0.0323  0.1399
  188POPC   H6R21669   1.245   2.464   3.410 -0.1860 -0.4221  1.1490
  188POPC   H6S21670   1.071   2.441   3.452 -1.4813  1.3130  0.3498
  188POPC   C2721671   1.189   2.560   3.586 -0.3219 -0.1995  0.2276
  188POPC   H7R21672   1.211   2.467   3.643  0.9641 -0.8579 -1.2511
  188POPC   H7S21673   1.104   2.607   3.639  2.5613  2.7043  2.7072
  188POPC   C2821674   1.296   2.671   3.594 -0.1988  0.6050  0.0680
  188POPC   H8R21675   1.288   2.725   3.691 -1.4965 -0.2940  0.4926
  188POPC   H8S21676   1.268   2.748   3.519 -0.9470 -1.7752 -2.2695
  188POPC   C2921677   1.430   2.613   3.569 -0.1216  0.0025 -0.2835
  188POPC   H9121678   1.475   2.631   3.471 -0.6395 -2.1417 -0.9503
  188POPC  C21021679   1.505   2.553   3.664 -0.4766 -0.4668 -0.0599
  188POPC  H10121680   1.608   2.526   3.635 -0.1050 -0.2671  1.0270
  188POPC  C21121681   1.465   2.528   3.809 -0.0751  0.0543  0.0303
  188POPC  H11R21682   1.433   2.423   3.825 -1.3547  0.1168 -1.7447
  188POPC  H11S21683   1.407   2.607   3.862  0.7199 -0.2160  1.3474
  188POPC  C21221684   1.589   2.518   3.906 -0.4373  0.1444  0.7328
  188POPC  H12R21685   1.676   2.475   3.852 -1.1848  0.9417 -1.1771
  188POPC  H12S21686   1.560   2.467   4.000  1.2757 -0.9754  0.6944
  188POPC  C21321687   1.636   2.657   3.947  0.5730 -0.6328 -0.6763
  188POPC  H13R21688   1.560   2.712   4.008  1.1978 -0.2811 -0.2027
  188POPC  H13S21689   1.663   2.720   3.859  0.8773 -1.0197 -0.8608
  188POPC  C21421690   1.765   2.641   4.031  0.1961  0.7850  0.6618
  188POPC  H14R21691   1.837   2.586   3.967 -2.0616 -1.1149 -0.3823
  188POPC  H14S21692   1.742   2.569   4.112 -1.4085  0.8790  0.3296
  188POPC  C21521693   1.816   2.774   4.080 -0.5992 -0.8847 -0.5641
  188POPC  H15R21694   1.742   2.799   4.159  0.3206  1.0648 -0.2456
  188POPC  H15S21695   1.814   2.856   4.006  3.7045 -0.4620 -0.4804
  188POPC  C21621696   1.959   2.768   4.127 -0.2286 -0.1751 -0.5488
  188POPC  H16R21697   2.014   2.737   4.036  1.6196  1.0586  0.0821
  188POPC  H16S21698   1.970   2.685   4.201 -2.0513  0.3168  0.3432
  188POPC  C21721699   2.019   2.904   4.187  0.2077 -0.2258  0.3929
  188POPC  H17R21700   2.044   2.968   4.099  1.8129 -0.1029  0.9147
  188POPC  H17S21701   2.121   2.887   4.229 -0.0640 -0.2361  1.0631
  188POPC  C21821702   1.943   2.983   4.287  0.3775  0.2054 -0.8204
  188POPC  H18R21703   1.921   2.921   4.377  2.2485  1.0833  0.2821
  188POPC  H18S21704   1.846   3.024   4.251  1.0764  0.7985 -2.0648
  188POPC  H18T21705   1.997   3.070   4.330 -1.3685  0.8539  0.1891
  188POPC   C3321706   1.463   2.302   3.265 -0.3552 -0.6489 -0.0413
  188POPC   H3X21707   1.364   2.295   3.215  0.2390 -1.4908 -1.1383
  188POPC   H3Y21708   1.454   2.365   3.356  1.5588  0.7656 -0.7493
  188POPC   C3421709   1.519   2.168   3.307 -0.4075  0.3081  0.0705
  188POPC   H4X21710   1.630   2.175   3.309 -0.2421 -1.7884  1.3753
  188POPC   H4Y21711   1.491   2.080   3.245 -1.5717 -1.9102  3.4231
  188POPC   C3521712   1.475   2.131   3.448  0.3205 -0.0949  0.1188
  188POPC   H5X21713   1.366   2.109   3.453  0.2242 -0.2554 -1.9859
  188POPC   H5Y21714   1.485   2.203   3.533 -1.9912 -1.2826  1.5062
  188POPC   C3621715   1.550   2.007   3.500 -0.3230  0.6572 -0.3231
  188POPC   H6X21716   1.656   2.038   3.513 -0.3769  0.3348  1.0827
  188POPC   H6Y21717   1.545   1.926   3.425  0.5242 -0.9341  1.2867
  188POPC   C3721718   1.499   1.945   3.633 -0.8209 -0.0030 -0.1351
  188POPC   H7X21719   1.389   1.940   3.624 -0.8420  0.1289  0.0427
  188POPC   H7Y21720   1.521   2.020   3.712  2.6470  0.3499 -1.2578
  188POPC   C3821721   1.579   1.823   3.678 -0.4212  0.1398  0.7411
  188POPC   H8X21722   1.687   1.845   3.667 -0.6729  1.1318  0.1333
  188POPC   H8Y21723   1.554   1.739   3.609  1.1721  1.0650 -1.0397
  188POPC   C3921724   1.540   1.774   3.817  0.0586  0.7084 -0.4506
  188POPC   H9X21725   1.432   1.750   3.819  0.2154 -0.0380  1.6654
  188POPC   H9Y21726   1.568   1.841   3.901 -0.8530 -0.7801  1.0851
  188POPC  C31021727   1.626   1.659   3.869  0.0041 -0.1252 -0.0314
  188POPC  H10X21728   1.646   1.591   3.782 -0.9182 -1.2922  0.6339
  188POPC  H10Y21729   1.574   1.594   3.942 -1.4160 -0.3639 -1.2025
  188POPC  C31121730   1.764   1.702   3.927 -0.1879 -0.0422 -0.3070
  188POPC  H11X21731   1.764   1.770   4.015  1.5220 -0.7299  0.2666
  188POPC  H11Y21732   1.820   1.759   3.849 -1.0904 -0.2099 -1.0902
  188POPC  C31221733   1.828   1.570   3.974  0.5594  0.7752 -1.1827
  188POPC  H12X21734   1.885   1.524   3.891  1.5297 -0.8698  0.3309
  188POPC  H12Y21735   1.743   1.507   4.008 -0.0804  0.9973 -2.2836
  188POPC  C31321736   1.931   1.588   4.092  0.1135  0.0171  0.2295
  188POPC  H13X21737   1.867   1.596   4.182  1.6704  0.1062  1.3656
  188POPC  H13Y21738   1.997   1.674   4.065  0.1320 -0.4472 -1.3442
  188POPC  C31421739   2.016   1.462   4.121  1.2191 -0.8417 -0.3860
  188POPC  H14X21740   2.083   1.463   4.032 -0.2075  1.4326 -1.5244
  188POPC  H14Y21741   1.954   1.371   4.108 -0.5713  0.6403 -2.9088
  188POPC  C31521742   2.074   1.466   4.261  0.3715 -0.4900 -0.1536
  188POPC  H15X21743   1.983   1.470   4.324 -0.7632  0.4474 -1.7822
  188POPC  H15Y21744   2.131   1.560   4.272 -1.8281  0.9291 -0.4346
  188POPC  C31621745   2.166   1.347   4.304 -0.1144  0.1010  0.1254
  188POPC  H16X21746   2.253   1.351   4.234  0.1823  1.3787  0.5340
  188POPC  H16Y21747   2.114   1.251   4.288  0.6840  0.0917 -2.9893
  188POPC  H16Z21748   2.194   1.355   4.412 -1.3703  1.4900  0.3893
  189SAPI   C1221749   6.656   0.578   6.763  0.4763  0.3586  0.0713
  189SAPI    H221750   6.666   0.604   6.870  2.1025  0.9140 -0.1886
  189SAPI    O221751   6.679   0.703   6.692 -0.5972 -0.5221 -0.7058
  189SAPI   HO221752   6.606   0.753   6.729  0.3192 -0.4609  1.1001
  189SAPI   C1321753   6.761   0.470   6.736 -0.2806  0.6524 -0.3433
  189SAPI    H321754   6.735   0.379   6.793  3.6841 -0.4330  0.0239
  189SAPI    O321755   6.889   0.527   6.772  0.0335  0.0590  0.2915
  189SAPI   HO321756   6.936   0.458   6.821  1.4717  1.3462  0.8029
  189SAPI   C1421757   6.760   0.421   6.596 -0.0733 -0.9177 -0.0691
  189SAPI    H421758   6.823   0.490   6.535 -0.4925  0.8646  1.4232
  189SAPI    O421759   6.825   0.293   6.588 -0.2002  0.6962 -0.0431
  189SAPI   HO421760   6.913   0.285   6.626  0.1628  0.7001 -0.8644
  189SAPI   C1521761   6.619   0.419   6.526 -0.3905  0.5156  0.0800
  189SAPI    H521762   6.594   0.312   6.537  1.1958  0.0835 -0.2762
  189SAPI    O521763   6.627   0.442   6.384 -0.4663 -0.0220  0.0991
  189SAPI   HO521764   6.596   0.365   6.335  0.6041  0.7354 -1.8723
  189SAPI   C1621765   6.504   0.490   6.591 -0.1093 -0.5015  0.0549
  189SAPI    H621766   6.483   0.585   6.537 -0.9557 -0.9976 -0.5053
  189SAPI    O621767   6.388   0.406   6.573  0.0491 -0.3886  0.2424
  189SAPI   HO621768   6.318   0.471   6.574 -0.1099 -0.5595  1.0868
  189SAPI   C1121769   6.525   0.523   6.734  0.8433  0.5668 -0.4209
  189SAPI    H121770   6.511   0.431   6.794 -2.6109  1.7985  0.9202
  189SAPI     P21771   6.268   0.604   6.801 -0.1314  0.4200  0.2649
  189SAPI   O1321772   6.211   0.713   6.882  0.4010  0.3546  0.1289
  189SAPI   O1421773   6.248   0.470   6.870  0.3913  0.9160  0.3045
  189SAPI   O1221774   6.433   0.620   6.782  0.3040  0.1186  0.2213
  189SAPI   O1121775   6.215   0.602   6.654 -0.1926 -0.2906 -0.4498
  189SAPI    C121776   6.189   0.717   6.574  0.3122  0.7114 -0.3416
  189SAPI    HA21777   6.126   0.797   6.617  0.3797 -0.7092  2.6332
  189SAPI    HB21778   6.285   0.757   6.534  0.3529  0.2345 -0.7321
  189SAPI    C221779   6.107   0.680   6.440 -0.0163 -0.3382 -0.2034
  189SAPI    HS21780   6.009   0.647   6.481  0.9672  0.4257  3.0358
  189SAPI   O2121781   6.178   0.574   6.369  0.8071 -0.5471  0.3377
  189SAPI   C2121782   6.094   0.487   6.311 -0.6444  0.7808 -0.3550
  189SAPI   O2221783   5.972   0.489   6.314 -0.4337  0.2792 -0.1060
  189SAPI   C2221784   6.173   0.382   6.231 -0.9143 -0.5333 -0.1652
  189SAPI   H2R21785   6.268   0.428   6.196 -0.0384  0.0723  2.7178
  189SAPI   H2S21786   6.200   0.301   6.302  1.9441  1.2961  1.0014
  189SAPI    C321787   6.098   0.809   6.352 -0.1507  0.0790  0.0035
  189SAPI    HX21788   6.204   0.836   6.337 -0.0309 -0.8409 -0.9600
  189SAPI    HY21789   6.038   0.888   6.402  0.2978  0.6685 -0.3941
  189SAPI   O3121790   6.033   0.772   6.226 -0.2114  0.1269 -0.6205
  189SAPI   C3121791   5.904   0.806   6.212  0.1620  0.0005  0.1242
  189SAPI   O3221792   5.842   0.874   6.292 -0.8402 -0.1720 -0.1957
  189SAPI   C3221793   5.837   0.741   6.086 -0.0504 -0.3522  0.0130
  189SAPI   H2X21794   5.772   0.826   6.054 -1.2741 -1.0963  0.4538
  189SAPI   H2Y21795   5.778   0.652   6.118 -0.0221 -0.6306 -0.6844
  189SAPI   C2321796   6.080   0.329   6.123 -0.4155 -0.4056 -0.4092
  189SAPI   H3R21797   6.052   0.420   6.066  0.0748  0.0035 -0.0103
  189SAPI   H3S21798   5.982   0.293   6.160 -1.8461  1.5310 -2.0360
  189SAPI   C2421799   6.140   0.239   6.010  1.2764 -0.6524 -0.7588
  189SAPI   H4R21800   6.242   0.281   5.995  0.3780  1.2547 -1.8668
  189SAPI   H4S21801   6.081   0.257   5.918 -0.7035 -0.1496  0.5473
  189SAPI   C2521802   6.147   0.092   6.042 -0.1299  0.8324  0.4061
  189SAPI   H5R21803   6.207   0.062   6.129 -0.8595 -1.6829  0.1107
  189SAPI   C2621804   6.087  -0.004   5.970  0.4487 -0.1738 -0.3710
  189SAPI   H6R21805   6.106  -0.108   6.001 -1.6113 -0.3844  0.3427
  189SAPI   C2721806   5.989   0.025   5.858 -0.2540 -0.1896 -0.1899
  189SAPI   H7R21807   5.993  -0.052   5.778  1.2830 -0.4224  0.0837
  189SAPI   H7S21808   6.023   0.117   5.806  2.3222 -1.1015 -0.2998
  189SAPI   C2821809   5.851   0.044   5.904 -0.0989  0.4404 -0.1082
  189SAPI   H8R21810   5.840   0.073   6.010  0.6807 -0.1057  0.1334
  189SAPI   C2921811   5.752   0.040   5.822  0.2338  0.0535 -0.3786
  189SAPI   H9R21812   5.652   0.040   5.867  0.0751  0.8225 -0.7107
  189SAPI  C21021813   5.735   0.023   5.670  0.0357 -0.0324 -0.6266
  189SAPI  H10R21814   5.836   0.026   5.624 -0.3002  3.8178 -1.3926
  189SAPI  H10S21815   5.697   0.121   5.636 -1.4377 -0.0424  0.8518
  189SAPI  C21121816   5.643  -0.091   5.628  0.4764 -0.3674 -0.7897
  189SAPI  H11R21817   5.596  -0.141   5.714  1.7997  1.6121  1.1906
  189SAPI  C21221818   5.610  -0.134   5.507  0.4210 -0.3071  0.0076
  189SAPI  H12R21819   5.533  -0.213   5.505  0.4447 -0.4687  2.4708
  189SAPI  C21321820   5.647  -0.079   5.371 -0.1187 -0.5849  0.4394
  189SAPI  H13R21821   5.657  -0.165   5.302  0.1983 -0.4914  0.3675
  189SAPI  H13S21822   5.743  -0.023   5.379  0.2986 -1.3374  0.8968
  189SAPI  C21421823   5.554   0.017   5.304 -0.3918 -0.2249  1.1476
  189SAPI  H14R21824   5.525   0.095   5.376 -0.0136  2.3633 -1.3001
  189SAPI  C21521825   5.516   0.018   5.172  0.0809 -0.2615 -0.2837
  189SAPI  H15R21826   5.464   0.110   5.141  2.0794  0.8929 -0.3364
  189SAPI  C21621827   5.564  -0.076   5.067  0.2156  0.3763  0.6010
  189SAPI  H16R21828   5.478  -0.129   5.022  0.8739 -1.1363  1.0780
  189SAPI  H16S21829   5.628  -0.156   5.109  0.2743  0.9851  1.7053
  189SAPI  C21721830   5.635  -0.002   4.954  0.0838 -0.0208  0.1849
  189SAPI  H17R21831   5.731   0.044   4.988  0.3918  1.4513 -2.4308
  189SAPI  H17S21832   5.568   0.081   4.925  1.9670  1.0980 -1.2167
  189SAPI  C21821833   5.675  -0.096   4.834 -0.0892  0.0790 -0.6294
  189SAPI  H18R21834   5.583  -0.138   4.788 -0.7710 -0.5484  1.2134
  189SAPI  H18S21835   5.740  -0.174   4.878 -0.7004 -0.8161 -1.2806
  189SAPI  C21921836   5.751  -0.034   4.720 -0.5705  0.1451 -0.2179
  189SAPI  H19R21837   5.767  -0.108   4.639 -0.6069  0.1916 -0.2678
  189SAPI  H19S21838   5.852  -0.017   4.763 -1.7263  1.9997  2.0449
  189SAPI  C22021839   5.698   0.097   4.669 -0.5114 -0.4655 -0.1208
  189SAPI  H20R21840   5.600   0.092   4.616  0.7063  0.4333 -2.6414
  189SAPI  H20S21841   5.765   0.156   4.602 -1.2669  1.7441  0.9886
  189SAPI  H20T21842   5.677   0.161   4.757 -1.9145 -0.6277 -0.3172
  189SAPI   C3321843   5.931   0.709   5.967 -0.1702  0.5304 -0.1042
  189SAPI   H3X21844   6.016   0.651   6.009 -0.0379  0.6713 -0.1755
  189SAPI   H3Y21845   5.986   0.800   5.938  0.2018  0.4667  0.3862
  189SAPI   C3421846   5.871   0.644   5.843  0.3258 -0.3558  0.1878
  189SAPI   H4X21847   5.811   0.719   5.786 -0.9679 -0.5457  1.2574
  189SAPI   H4Y21848   5.817   0.548   5.859  1.0594 -1.1458 -1.7666
  189SAPI   C3521849   5.976   0.616   5.738  0.2255  0.2945 -0.0014
  189SAPI   H5X21850   6.069   0.581   5.788  2.4493  2.1115 -2.5435
  189SAPI   H5Y21851   6.019   0.706   5.689  0.9165  1.6566  2.9229
  189SAPI   C3621852   5.927   0.520   5.633  0.1676  0.7244  0.1469
  189SAPI   H6X21853   5.870   0.429   5.662 -2.2480  2.0455 -0.1913
  189SAPI   H6Y21854   6.017   0.483   5.580 -0.4004  1.4437 -1.3874
  189SAPI   C3721855   5.844   0.584   5.516  0.2925 -0.1730  0.5786
  189SAPI   H7X21856   5.914   0.659   5.471  0.4120  0.6779  2.1103
  189SAPI   H7Y21857   5.757   0.626   5.570 -0.1691 -2.7449  1.9648
  189SAPI   C3821858   5.806   0.480   5.409  0.2116 -0.1672 -0.2450
  189SAPI   H8X21859   5.757   0.396   5.463  2.0690 -0.8246  0.5215
  189SAPI   H8Y21860   5.899   0.437   5.367 -1.1262 -3.0233 -0.5094
  189SAPI   C3921861   5.708   0.526   5.300 -0.2596  0.2646 -0.6284
  189SAPI   H9X21862   5.752   0.608   5.239 -0.0079  0.6818  0.1098
  189SAPI   H9Y21863   5.618   0.581   5.336 -1.0160  0.1004 -2.1578
  189SAPI  C31021864   5.658   0.414   5.205  0.0576 -0.0521 -0.4770
  189SAPI  H10X21865   5.584   0.350   5.257 -0.7414 -1.9486 -3.6831
  189SAPI  H10Y21866   5.740   0.343   5.181  0.8854  0.4230  0.8239
  189SAPI  C31121867   5.605   0.465   5.073  0.6353 -0.1553  0.3531
  189SAPI  H11X21868   5.694   0.497   5.015  0.3025  0.4002  0.1452
  189SAPI  H11Y21869   5.546   0.554   5.101 -1.4018 -0.9044 -1.3040
  189SAPI  C31221870   5.523   0.367   4.998 -0.1478  0.5209 -0.0138
  189SAPI  H12X21871   5.424   0.354   5.047  0.0749  1.1466  0.6227
  189SAPI  H12Y21872   5.577   0.271   5.009 -0.4371  0.3127 -0.3468
  189SAPI  C31321873   5.494   0.408   4.855 -0.6156 -1.1430  0.0851
  189SAPI  H13X21874   5.589   0.418   4.799 -0.3390 -0.9147  0.5925
  189SAPI  H13Y21875   5.453   0.512   4.855  0.9986 -0.4551  1.5374
  189SAPI  C31421876   5.396   0.304   4.782 -0.8203 -0.0913  0.3975
  189SAPI  H14X21877   5.300   0.312   4.838  0.1386  0.4021  2.0444
  189SAPI  H14Y21878   5.451   0.207   4.779 -0.1788  0.2641  0.4849
  189SAPI  C31521879   5.381   0.356   4.634 -0.2034  0.4570  0.1819
  189SAPI  H15X21880   5.484   0.376   4.595 -0.5864  0.4272 -0.8755
  189SAPI  H15Y21881   5.332   0.456   4.638  0.6914  0.9786 -0.9258
  189SAPI  C31621882   5.305   0.268   4.536 -0.1102 -0.6353 -0.2396
  189SAPI  H16X21883   5.195   0.273   4.549 -0.3179 -1.0335 -1.6641
  189SAPI  H16Y21884   5.346   0.168   4.559  1.3408 -0.0843 -0.2978
  189SAPI  C31721885   5.348   0.297   4.389  0.3752  0.3522 -0.7047
  189SAPI  H17X21886   5.455   0.327   4.390 -0.1736  2.6179 -2.0343
  189SAPI  H17Y21887   5.283   0.384   4.366 -0.0760  0.7417  1.8228
  189SAPI  C31821888   5.335   0.178   4.299 -0.4817 -0.0127  0.1267
  189SAPI  H18X21889   5.376   0.090   4.353 -1.8751 -1.0249 -0.3883
  189SAPI  H18Y21890   5.385   0.194   4.201 -0.0926 -1.0496  0.1359
  189SAPI  H18Z21891   5.225   0.165   4.291 -0.7005  1.4079  0.5070
  190SAPI   C1221892   6.781   5.683   6.866 -0.0209 -0.4739  0.0056
  190SAPI    H221893   6.718   5.712   6.780  0.4396 -0.6382 -0.3908
  190SAPI    O221894   6.711   5.705   6.989  0.6259 -0.1314 -0.4002
  190SAPI   HO221895   6.695   5.800   6.994  1.9979  0.1042  0.0143
  190SAPI   C1321896   6.812   5.532   6.854  0.2787  0.3118 -0.2386
  190SAPI    H321897   6.871   5.520   6.760 -1.2522  0.1613 -1.2044
  190SAPI    O321898   6.698   5.449   6.829 -0.0129  0.1119 -0.0934
  190SAPI   HO321899   6.626   5.483   6.883 -0.3619  2.0155 -1.6473
  190SAPI   C1421900   6.913   5.478   6.961 -0.2014  0.2993  0.1958
  190SAPI    H421901   6.856   5.483   7.057 -1.0904 -1.3493 -0.1938
  190SAPI    O421902   6.959   5.346   6.937 -0.3955 -0.8316 -0.0496
  190SAPI   HO421903   6.996   5.354   6.849 -2.0588 -1.4904 -0.8586
  190SAPI   C1521904   7.038   5.566   6.977 -0.1026  0.4123 -0.2869
  190SAPI    H521905   7.100   5.547   6.886 -0.1325 -1.8016  0.0861
  190SAPI    O521906   7.125   5.535   7.087 -0.0719  0.5840 -0.0448
  190SAPI   HO521907   7.071   5.531   7.167  1.3551  1.9799  1.0604
  190SAPI   C1621908   7.006   5.717   6.971  0.0813  0.3491 -0.0824
  190SAPI    H621909   6.964   5.745   7.070  0.7603  1.8257 -0.1772
  190SAPI    O621910   7.126   5.792   6.956 -0.4863 -0.2227 -0.1497
  190SAPI   HO621911   7.122   5.862   7.021 -2.7480 -0.7013  0.3019
  190SAPI   C1121912   6.908   5.761   6.865  0.4486 -0.6358  0.1608
  190SAPI    H121913   6.954   5.745   6.766  0.8272  2.1524 -0.1944
  190SAPI     P21914   6.896   6.000   6.760 -0.0358 -0.1633  0.3913
  190SAPI   O1321915   7.024   5.977   6.691 -0.6210 -0.3062 -0.7740
  190SAPI   O1421916   6.874   6.138   6.812  0.0330  0.0081  0.6442
  190SAPI   O1221917   6.877   5.903   6.884  0.2461  0.0006 -0.0998
  190SAPI   O1121918   6.776   5.956   6.673  0.3335  0.0620  0.4078
  190SAPI    C121919   6.764   6.029   6.554 -0.3011  0.4191 -0.0117
  190SAPI    HA21920   6.770   6.138   6.573 -1.4804  1.3444 -4.0262
  190SAPI    HB21921   6.848   6.006   6.484 -2.0805 -0.4487 -1.9908
  190SAPI    C221922   6.635   6.003   6.467  0.0989  0.7758 -0.3684
  190SAPI    HS21923   6.551   6.002   6.540  0.1004  0.1116 -0.3649
  190SAPI   O2121924   6.638   5.871   6.403 -0.0805 -0.0559 -0.0801
  190SAPI   C2121925   6.528   5.834   6.336  0.4595  0.1519 -0.8887
  190SAPI   O2221926   6.417   5.882   6.347 -0.3271 -0.7341  0.4730
  190SAPI   C2221927   6.558   5.714   6.248 -0.0697 -0.4334  0.3636
  190SAPI   H2R21928   6.614   5.633   6.299  0.2403 -1.8833 -2.1404
  190SAPI   H2S21929   6.462   5.663   6.225  0.4639 -1.2215 -0.1525
  190SAPI    C321930   6.612   6.122   6.369  0.2233  0.3831  0.3900
  190SAPI    HX21931   6.636   6.222   6.412  3.9212  1.2053 -2.9786
  190SAPI    HY21932   6.506   6.118   6.337  0.0653 -1.3299  1.0247
  190SAPI   O3121933   6.693   6.092   6.251 -0.2497 -0.0119  0.1786
  190SAPI   C3121934   6.811   6.153   6.255  1.0255  0.4446  0.6704
  190SAPI   O3221935   6.852   6.222   6.352  0.2745  0.1508 -0.0166
  190SAPI   C3221936   6.888   6.134   6.131 -0.1155 -0.3376  0.3239
  190SAPI   H2X21937   6.922   6.028   6.128 -0.2480 -0.3836  0.4488
  190SAPI   H2Y21938   6.979   6.197   6.142 -1.5954  2.6191 -2.5374
  190SAPI   C2321939   6.614   5.758   6.109 -0.2937  0.1292  0.0312
  190SAPI   H3R21940   6.621   5.671   6.040  0.1888  0.4487 -0.3330
  190SAPI   H3S21941   6.721   5.785   6.123 -0.0353 -0.8967  0.1373
  190SAPI   C2421942   6.531   5.854   6.027 -0.0044  0.4025 -0.3439
  190SAPI   H4R21943   6.561   5.855   5.920  1.9224 -3.2115 -0.0029
  190SAPI   H4S21944   6.533   5.953   6.077  1.8902 -1.5437  4.0132
  190SAPI   C2521945   6.384   5.813   6.015 -0.4771  0.4378 -0.1535
  190SAPI   H5R21946   6.312   5.858   6.085 -0.7288 -0.4257  0.1555
  190SAPI   C2621947   6.338   5.718   5.931 -0.0481  0.3777  0.4008
  190SAPI   H6R21948   6.229   5.706   5.924 -0.3135  2.3940  0.4766
  190SAPI   C2721949   6.403   5.629   5.821  0.4904 -0.3783 -0.3183
  190SAPI   H7R21950   6.372   5.524   5.841 -2.3569  0.5537  0.6352
  190SAPI   H7S21951   6.510   5.638   5.849 -0.0554  1.2545  1.4499
  190SAPI   C2821952   6.385   5.663   5.676  0.0541 -0.4364  0.1976
  190SAPI   H8R21953   6.405   5.767   5.648 -0.1573 -0.7002 -0.9658
  190SAPI   C2921954   6.352   5.572   5.578  0.0103  0.0054 -0.1615
  190SAPI   H9R21955   6.325   5.610   5.478 -1.5502  0.7645  0.5061
  190SAPI  C21021956   6.336   5.419   5.588  0.3497 -0.2357 -0.6243
  190SAPI  H10R21957   6.231   5.402   5.558 -0.0990  1.3504 -0.0127
  190SAPI  H10S21958   6.342   5.379   5.692  1.1247  2.4387  0.4546
  190SAPI  C21121959   6.441   5.356   5.508  0.1616  0.5838 -0.2226
  190SAPI  H11R21960   6.542   5.385   5.542  0.5344  0.3114 -1.0620
  190SAPI  C21221961   6.416   5.302   5.388  0.2179  0.0922 -0.1937
  190SAPI  H12R21962   6.500   5.260   5.331 -0.7653 -1.3371 -0.6505
  190SAPI  C21321963   6.275   5.275   5.333 -0.7424  0.2747 -0.7966
  190SAPI  H13R21964   6.250   5.362   5.269  1.4423  1.6368  0.0959
  190SAPI  H13S21965   6.200   5.268   5.415  0.7098 -0.2635  0.5415
  190SAPI  C21421966   6.285   5.154   5.240 -0.0626  0.3324 -0.1973
  190SAPI  H14R21967   6.287   5.052   5.280  0.5487  0.9746  1.5198
  190SAPI  C21521968   6.325   5.165   5.111 -0.1230 -0.5094  0.2378
  190SAPI  H15R21969   6.339   5.073   5.052  1.5024 -0.3681  0.3566
  190SAPI  C21621970   6.314   5.287   5.026  0.8345 -0.2431  0.3022
  190SAPI  H16R21971   6.248   5.362   5.076  1.4551  0.3311  0.2784
  190SAPI  H16S21972   6.279   5.261   4.924  0.7433  1.3587 -0.1033
  190SAPI  C21721973   6.455   5.352   5.019 -0.0944  0.5243  0.1197
  190SAPI  H17R21974   6.525   5.278   4.975  0.0556  0.3663  0.6217
  190SAPI  H17S21975   6.481   5.370   5.125  0.1767 -0.5949  0.2543
  190SAPI  C21821976   6.471   5.483   4.957 -0.1721  0.0822 -0.1795
  190SAPI  H18R21977   6.566   5.537   4.978 -0.1226 -0.2705  0.5145
  190SAPI  H18S21978   6.403   5.554   5.008 -0.0774  1.3878 -1.7764
  190SAPI  C21921979   6.447   5.485   4.809  0.7089 -0.0435 -0.4175
  190SAPI  H19R21980   6.347   5.458   4.770  0.7846  0.4793 -0.9854
  190SAPI  H19S21981   6.510   5.402   4.770  1.9269 -0.3993  2.1195
  190SAPI  C22021982   6.484   5.609   4.729 -0.1510  0.2674 -0.4339
  190SAPI  H20R21983   6.576   5.661   4.763 -0.3557 -0.3283  1.0970
  190SAPI  H20S21984   6.407   5.689   4.725 -0.3666  0.0297 -1.3925
  190SAPI  H20T21985   6.496   5.568   4.626 -3.3586 -1.1362 -0.3799
  190SAPI   C3321986   6.808   6.163   5.997  0.1136 -0.6350  0.0114
  190SAPI   H3X21987   6.770   6.267   6.004  0.6871 -0.5185  1.8254
  190SAPI   H3Y21988   6.714   6.104   5.993 -0.1422 -0.4033  1.9225
  190SAPI   C3421989   6.891   6.175   5.867 -0.2541  0.5283 -0.5487
  190SAPI   H4X21990   6.971   6.251   5.878  0.8339 -0.7182  0.6376
  190SAPI   H4Y21991   6.827   6.210   5.784 -0.3220 -0.8551 -1.1004
  190SAPI   C3521992   6.952   6.039   5.833  0.7576 -0.0087  0.3020
  190SAPI   H5X21993   6.952   6.056   5.723 -0.4812  0.0835  0.2977
  190SAPI   H5Y21994   6.882   5.957   5.859  1.2854  0.2118  2.5965
  190SAPI   C3621995   7.098   6.009   5.882 -0.5132  0.4891  0.3251
  190SAPI   H6X21996   7.090   6.011   5.993 -2.0973  0.2298  0.2399
  190SAPI   H6Y21997   7.157   6.099   5.855  0.2424  1.0252  3.3857
  190SAPI   C3721998   7.165   5.884   5.825  0.2170 -0.0933  0.8196
  190SAPI   H7X21999   7.139   5.780   5.852  0.4093 -0.9786 -2.0418
  190SAPI   H7Y22000   7.270   5.900   5.858  0.5569  2.0426 -1.0340
  190SAPI   C3822001   7.159   5.888   5.676 -0.1480 -0.0769  0.5976
  190SAPI   H8X22002   7.054   5.874   5.642  0.4239 -1.6773 -0.5859
  190SAPI   H8Y22003   7.222   5.814   5.624 -1.9242  0.5488 -2.7261
  190SAPI   C3922004   7.194   6.019   5.596  0.0758 -0.5728 -0.1075
  190SAPI   H9X22005   7.277   6.057   5.660  0.9465 -0.3332 -1.3439
  190SAPI   H9Y22006   7.107   6.088   5.605  0.5989 -0.0257  0.9232
  190SAPI  C31022007   7.258   6.015   5.458 -0.4625  0.1157 -0.0283
  190SAPI  H10X22008   7.343   5.946   5.476  1.5392  2.2798 -0.7981
  190SAPI  H10Y22009   7.307   6.111   5.432  0.8307 -0.1351  1.3424
  190SAPI  C31122010   7.163   5.967   5.347 -0.3791  0.2526 -0.2953
  190SAPI  H11X22011   7.070   6.023   5.326 -0.3246 -0.0354 -1.3802
  190SAPI  H11Y22012   7.134   5.865   5.380 -0.6257  0.9180  1.7008
  190SAPI  C31222013   7.237   5.946   5.211 -0.1463 -0.2321 -0.8723
  190SAPI  H12X22014   7.308   5.863   5.230 -0.0432 -0.1211 -0.7769
  190SAPI  H12Y22015   7.296   6.031   5.171  2.0156 -0.7989  0.9099
  190SAPI  C31322016   7.133   5.890   5.115  0.0368  0.7463  0.4219
  190SAPI  H13X22017   7.075   5.827   5.186 -2.0625  0.7990 -1.1395
  190SAPI  H13Y22018   7.187   5.823   5.044  2.2535 -0.4688  3.0700
  190SAPI  C31422019   7.056   6.000   5.044  0.1814  0.1731 -0.2185
  190SAPI  H14X22020   7.130   6.079   5.023 -0.8446  0.7559 -1.7624
  190SAPI  H14Y22021   6.977   6.040   5.111  0.4463  0.4030 -0.0405
  190SAPI  C31522022   6.981   5.949   4.926 -0.6475  0.1640  0.3334
  190SAPI  H15X22023   6.890   5.888   4.945 -0.0087 -0.5731  1.0844
  190SAPI  H15Y22024   7.050   5.880   4.872  2.2234  2.2488  1.1245
  190SAPI  C31622025   6.931   6.063   4.838 -0.1068  0.2739  0.5198
  190SAPI  H16X22026   7.017   6.121   4.800  0.8521 -1.0974  0.5467
  190SAPI  H16Y22027   6.875   6.135   4.903  0.3973 -0.3716  1.6906
  190SAPI  C31722028   6.854   6.008   4.719  0.2690 -0.1078  0.1240
  190SAPI  H17X22029   6.792   6.093   4.681  0.7034 -0.1035 -0.6087
  190SAPI  H17Y22030   6.782   5.928   4.744  0.2139  0.3902  1.6234
  190SAPI  C31822031   6.937   5.961   4.599  0.2380 -0.5345 -0.4924
  190SAPI  H18X22032   7.009   6.040   4.568  0.8196 -0.6091  0.5967
  190SAPI  H18Y22033   6.873   5.936   4.512 -1.4752 -0.1676  0.6087
  190SAPI  H18Z22034   6.992   5.868   4.626  0.3648 -0.1700  0.5536
  191SAPI   C1222035   2.883   4.729   1.849  1.0697  0.0026  0.0320
  191SAPI    H222036   2.961   4.806   1.835  0.8195  0.0868 -0.9328
  191SAPI    O222037   2.785   4.760   1.746 -0.3744 -0.4121  0.2643
  191SAPI   HO222038   2.833   4.761   1.663 -0.7978  2.2438 -0.0158
  191SAPI   C1322039   2.936   4.588   1.845 -1.8169  0.4626  0.4583
  191SAPI    H322040   2.998   4.580   1.937 -3.1229  0.7011  1.3929
  191SAPI    O322041   3.030   4.569   1.731  0.3287  0.7216 -0.4039
  191SAPI   HO322042   2.997   4.593   1.644  0.8795 -1.8711 -1.4402
  191SAPI   C1422043   2.832   4.482   1.856 -0.5618 -0.0717  0.6683
  191SAPI    H422044   2.783   4.494   1.757  0.8411  0.2589 -0.0023
  191SAPI    O422045   2.885   4.351   1.868  0.4875 -0.1226  0.1466
  191SAPI   HO422046   2.939   4.353   1.948 -1.7787  0.3437  1.7724
  191SAPI   C1522047   2.727   4.514   1.969  0.0189 -0.4801 -0.4870
  191SAPI    H522048   2.782   4.472   2.056  1.3420 -1.8204 -1.9042
  191SAPI    O522049   2.601   4.442   1.949  0.2782 -0.5223 -0.4438
  191SAPI   HO522050   2.592   4.378   2.019  2.0640 -1.6019 -1.1307
  191SAPI   C1622051   2.707   4.659   2.007 -0.8213 -0.2412  0.1488
  191SAPI    H622052   2.630   4.694   1.935 -1.7790 -1.1214  0.7134
  191SAPI    O622053   2.670   4.679   2.143  0.4739 -0.2117  0.0189
  191SAPI   HO622054   2.709   4.764   2.167  0.4931 -0.5105  1.0996
  191SAPI   C1122055   2.821   4.749   1.981  0.1664  0.3050  0.0070
  191SAPI    H122056   2.899   4.720   2.055 -0.5825 -0.2700  0.5917
  191SAPI     P22057   2.859   4.986   2.111  0.2396 -0.0850  0.5105
  191SAPI   O1322058   2.832   5.128   2.090  0.2772  0.0090  0.1148
  191SAPI   O1422059   2.997   4.938   2.114 -0.0104 -1.0076 -0.4950
  191SAPI   O1222060   2.772   4.890   2.000 -0.2667  0.7046 -0.4637
  191SAPI   O1122061   2.784   4.937   2.240 -0.3312  0.0641  0.3682
  191SAPI    C122062   2.657   4.995   2.260 -0.0180  0.2738  0.6089
  191SAPI    HA22063   2.660   5.106   2.256 -1.1234  0.3658  1.7487
  191SAPI    HB22064   2.579   4.970   2.185 -1.6473  2.9253  1.2928
  191SAPI    C222065   2.598   4.947   2.396  0.4744  0.3403  0.4026
  191SAPI    HS22066   2.549   5.036   2.441  0.9361  0.3478  0.9046
  191SAPI   O2122067   2.700   4.890   2.486  0.2518 -0.6483 -0.1147
  191SAPI   C2122068   2.788   4.970   2.532  1.3523  0.2999  0.0869
  191SAPI   O2222069   2.782   5.089   2.531  0.1591 -0.9848  0.2612
  191SAPI   C2222070   2.897   4.890   2.606 -0.6884  0.4315 -0.2685
  191SAPI   H2R22071   2.882   4.781   2.589  1.4512  0.2682 -1.4086
  191SAPI   H2S22072   2.998   4.897   2.561 -0.2021 -2.4717  0.1476
  191SAPI    C322073   2.477   4.842   2.370  0.3686 -0.4733 -0.1732
  191SAPI    HX22074   2.503   4.774   2.286  0.2774 -1.3950  0.5280
  191SAPI    HY22075   2.386   4.897   2.339  0.3401  0.2898  1.1781
  191SAPI   O3122076   2.458   4.756   2.485  0.4961 -0.3639  0.5365
  191SAPI   C3122077   2.396   4.822   2.578  0.1682  0.2983 -0.4131
  191SAPI   O3222078   2.340   4.931   2.564  0.3645 -0.1170  0.3489
  191SAPI   C3222079   2.388   4.728   2.700  1.1317 -0.0722  0.2926
  191SAPI   H2X22080   2.483   4.672   2.710  0.5480 -1.6766 -2.3335
  191SAPI   H2Y22081   2.303   4.658   2.683  1.1812 -0.6816  2.2694
  191SAPI   C2322082   2.909   4.928   2.756 -0.2589  0.4478  0.1132
  191SAPI   H3R22083   2.813   4.915   2.810 -0.7733 -0.5761 -1.0083
  191SAPI   H3S22084   2.925   5.038   2.757  0.1025  0.3941  0.2420
  191SAPI   C2422085   3.028   4.875   2.845  0.6596 -0.2360  0.9621
  191SAPI   H4R22086   2.993   4.890   2.949  0.7012 -0.5624  1.0229
  191SAPI   H4S22087   3.122   4.931   2.825  0.5424 -0.6472 -0.9275
  191SAPI   C2522088   3.041   4.727   2.821  0.7253 -0.3988  0.0685
  191SAPI   H5R22089   3.041   4.693   2.717  0.6428  0.4499 -0.2167
  191SAPI   C2622090   3.065   4.636   2.913 -0.3951 -0.3452 -0.8939
  191SAPI   H6R22091   3.066   4.531   2.878  0.1769  0.1815 -2.5722
  191SAPI   C2722092   3.065   4.636   3.066 -0.1491  0.2082  0.4053
  191SAPI   H7R22093   3.040   4.531   3.094  2.3067 -0.6555 -0.3243
  191SAPI   H7S22094   2.996   4.715   3.101 -0.0249 -0.4337  2.1823
  191SAPI   C2822095   3.205   4.678   3.116 -0.5411  0.6426 -0.2591
  191SAPI   H8R22096   3.269   4.728   3.042 -1.5807  0.4466 -1.3185
  191SAPI   C2922097   3.253   4.663   3.236 -0.3433 -0.9220 -0.3428
  191SAPI   H9R22098   3.355   4.699   3.257 -1.0399  1.0188 -0.0433
  191SAPI  C21022099   3.170   4.622   3.355 -0.5247  0.1187 -0.2471
  191SAPI  H10R22100   3.069   4.591   3.321  0.1420 -1.0126 -1.2559
  191SAPI  H10S22101   3.152   4.712   3.417 -0.1447  0.5159 -0.7087
  191SAPI  C21122102   3.228   4.516   3.440 -0.4312 -0.1415  0.2379
  191SAPI  H11R22103   3.326   4.483   3.404  1.1271  1.5162  2.5868
  191SAPI  C21222104   3.179   4.467   3.557  0.2834 -0.2842  0.1153
  191SAPI  H12R22105   3.239   4.392   3.611  0.7075 -0.2751 -0.3432
  191SAPI  C21322106   3.048   4.500   3.618  0.2232  0.7425 -0.0290
  191SAPI  H13R22107   2.983   4.415   3.590  1.9301 -1.3005  1.8744
  191SAPI  H13S22108   3.008   4.592   3.570 -2.1354  0.8226  1.8960
  191SAPI  C21422109   3.046   4.519   3.768  0.1275 -0.0043 -0.2612
  191SAPI  H14R22110   3.018   4.617   3.808 -2.2682 -0.6097 -0.3015
  191SAPI  C21522111   3.084   4.432   3.863 -0.1748  0.0200  0.6636
  191SAPI  H15R22112   3.076   4.467   3.967  0.7238  2.1675  0.0729
  191SAPI  C21622113   3.117   4.284   3.843 -0.0145 -0.4811 -0.5834
  191SAPI  H16R22114   3.222   4.278   3.880 -0.8213  0.3089  2.0277
  191SAPI  H16S22115   3.117   4.255   3.735  2.0447 -2.2180 -0.1947
  191SAPI  C21722116   3.030   4.183   3.921 -0.1119  0.8196  0.7655
  191SAPI  H17R22117   3.076   4.085   3.895 -0.8694  1.0487 -1.6823
  191SAPI  H17S22118   2.924   4.188   3.885 -0.9325  3.6786  3.1862
  191SAPI  C21822119   3.034   4.205   4.073 -0.2699  0.4389  0.7047
  191SAPI  H18R22120   3.024   4.313   4.096  0.9663  1.2716 -2.2109
  191SAPI  H18S22121   3.129   4.176   4.124  1.1413  3.3511 -0.0666
  191SAPI  C21922122   2.921   4.128   4.145 -0.2781  1.0831 -0.5465
  191SAPI  H19R22123   2.827   4.137   4.088 -0.3419 -3.8010 -1.6282
  191SAPI  H19S22124   2.908   4.167   4.249 -0.3864 -1.1133  0.3079
  191SAPI  C22022125   2.936   3.973   4.150 -0.5672  0.1102 -0.8605
  191SAPI  H20R22126   2.935   3.936   4.045 -1.4431 -1.6021 -0.3007
  191SAPI  H20S22127   2.858   3.923   4.212 -2.1187 -0.4184 -3.1084
  191SAPI  H20T22128   3.036   3.938   4.186 -0.5926 -1.8421 -2.4648
  191SAPI   C3322129   2.338   4.796   2.834  1.1437  0.1743 -0.3744
  191SAPI   H3X22130   2.252   4.866   2.823  0.8343  0.5790  3.4338
  191SAPI   H3Y22131   2.426   4.852   2.873  2.7854 -1.9301 -0.8781
  191SAPI   C3422132   2.299   4.694   2.946  0.4826  0.6408 -0.5346
  191SAPI   H4X22133   2.374   4.612   2.942  0.8749  0.8346  1.5865
  191SAPI   H4Y22134   2.200   4.651   2.924  0.9602 -0.6036 -0.3523
  191SAPI   C3522135   2.299   4.765   3.091 -0.9638 -0.0329  0.5093
  191SAPI   H5X22136   2.238   4.855   3.071 -1.0426 -0.3166 -0.6112
  191SAPI   H5Y22137   2.400   4.806   3.112 -0.3912 -0.2782 -1.4880
  191SAPI   C3622138   2.252   4.685   3.212 -0.3026  1.0412 -0.0800
  191SAPI   H6X22139   2.307   4.591   3.232 -1.4144  0.1811 -0.9070
  191SAPI   H6Y22140   2.143   4.663   3.207  0.3930 -2.9144 -1.0084
  191SAPI   C3722141   2.270   4.757   3.340  0.5265 -0.3148 -0.2675
  191SAPI   H7X22142   2.205   4.847   3.329 -0.3390 -0.9711 -0.6022
  191SAPI   H7Y22143   2.375   4.796   3.340  0.4713 -0.1519  0.4203
  191SAPI   C3822144   2.257   4.678   3.477  0.8427 -0.3418  0.1704
  191SAPI   H8X22145   2.356   4.634   3.499  0.4036 -1.2292  0.4145
  191SAPI   H8Y22146   2.181   4.598   3.463 -1.4050  1.8535 -1.0425
  191SAPI   C3922147   2.220   4.776   3.594 -0.1562 -0.9266 -0.2125
  191SAPI   H9X22148   2.129   4.836   3.571  0.6871  0.2148 -0.7036
  191SAPI   H9Y22149   2.298   4.855   3.603  1.5225 -2.5934  0.4425
  191SAPI  C31022150   2.207   4.693   3.723 -0.1372  0.4313 -0.1569
  191SAPI  H10X22151   2.296   4.629   3.738  0.9031  1.8737  0.0387
  191SAPI  H10Y22152   2.115   4.632   3.708  0.9008 -0.7676 -2.1742
  191SAPI  C31122153   2.194   4.771   3.855  0.0618 -0.2463 -0.0468
  191SAPI  H11X22154   2.095   4.821   3.860 -0.9521 -2.2446  1.2166
  191SAPI  H11Y22155   2.268   4.854   3.852 -1.0466  0.7814  0.4321
  191SAPI  C31222156   2.226   4.681   3.978  0.1225 -0.1697 -0.6182
  191SAPI  H12X22157   2.260   4.747   4.061 -2.3724  0.0745  0.2987
  191SAPI  H12Y22158   2.309   4.608   3.976 -1.8225 -2.7639  2.6069
  191SAPI  C31322159   2.099   4.614   4.028 -0.3076 -0.0038 -0.0322
  191SAPI  H13X22160   2.137   4.518   4.069  0.1793  0.2605  0.1387
  191SAPI  H13Y22161   2.036   4.588   3.940 -1.7811 -1.5881  1.4059
  191SAPI  C31422162   2.009   4.685   4.131 -0.2141  0.5171  0.2656
  191SAPI  H14X22163   1.982   4.783   4.087 -0.0533  0.0870 -0.8148
  191SAPI  H14Y22164   2.061   4.673   4.229  0.5717 -2.9209 -0.4166
  191SAPI  C31522165   1.878   4.610   4.157  0.0169  0.9381 -0.2846
  191SAPI  H15X22166   1.909   4.504   4.171 -0.8165  0.2713 -2.8469
  191SAPI  H15Y22167   1.822   4.612   4.061 -0.7913  1.2730  0.1812
  191SAPI  C31622168   1.807   4.672   4.285 -0.2253  0.3150  0.4501
  191SAPI  H16X22169   1.783   4.772   4.241  1.4349 -0.3004 -2.0805
  191SAPI  H16Y22170   1.880   4.685   4.368 -0.6989 -1.9598  1.2910
  191SAPI  C31722171   1.671   4.604   4.331 -0.3787  0.5142  0.2533
  191SAPI  H17X22172   1.625   4.668   4.409 -1.8753 -1.0505  0.7235
  191SAPI  H17Y22173   1.685   4.500   4.368  1.6009  0.7753  0.3492
  191SAPI  C31822174   1.556   4.605   4.226 -0.7197  0.3759 -0.4178
  191SAPI  H18X22175   1.605   4.567   4.133 -0.6403  0.7455 -0.5325
  191SAPI  H18Y22176   1.522   4.710   4.211 -0.4919  0.6746  1.0426
  191SAPI  H18Z22177   1.477   4.533   4.254  0.7665 -0.5537  1.6374
  192SAPI   C1222178   6.257   3.727   2.459 -0.5886 -1.2024  0.3864
  192SAPI    H222179   6.178   3.736   2.536  0.0481  1.4411  0.8515
  192SAPI    O222180   6.365   3.811   2.501  0.0194  0.3993  0.0795
  192SAPI   HO222181   6.321   3.897   2.503 -1.7077 -0.4391  0.1760
  192SAPI   C1322182   6.286   3.584   2.442 -0.3557 -0.3319 -0.3569
  192SAPI    H322183   6.190   3.554   2.393  0.4266 -1.6680 -1.1209
  192SAPI    O322184   6.309   3.519   2.569 -0.6551  0.1560 -0.1986
  192SAPI   HO322185   6.300   3.586   2.637 -0.8464  1.0607 -1.0801
  192SAPI   C1422186   6.399   3.570   2.345  0.2155  0.2218  0.1188
  192SAPI    H422187   6.487   3.609   2.400  0.1101  0.7362 -0.0714
  192SAPI    O422188   6.421   3.430   2.306  0.0456 -0.7243 -0.4520
  192SAPI   HO422189   6.458   3.393   2.387  3.6472 -0.8828 -1.9691
  192SAPI   C1522190   6.395   3.661   2.224  0.6110 -0.8491  0.3957
  192SAPI    H522191   6.354   3.598   2.143  1.2271 -1.2768  0.4098
  192SAPI    O522192   6.529   3.697   2.183  0.4189 -0.5664 -0.3598
  192SAPI   HO522193   6.549   3.772   2.239 -3.0764  0.1217  0.1748
  192SAPI   C1622194   6.297   3.780   2.222  0.3726 -0.2883 -0.5631
  192SAPI    H622195   6.366   3.866   2.237  0.9481 -0.7048 -0.7645
  192SAPI    O622196   6.245   3.799   2.094  0.2162 -0.7253 -0.3494
  192SAPI   HO622197   6.279   3.883   2.062  0.5495 -1.5821 -2.3719
  192SAPI   C1122198   6.195   3.788   2.331  0.4361  0.6337 -0.1191
  192SAPI    H122199   6.110   3.718   2.316  1.3115 -0.2293 -1.3362
  192SAPI     P22200   5.997   3.961   2.400 -0.1255  0.1091  0.2934
  192SAPI   O1322201   5.895   3.868   2.338  0.5262  0.7510  0.0367
  192SAPI   O1422202   5.971   4.104   2.392  0.3343 -0.3481  0.1634
  192SAPI   O1222203   6.157   3.924   2.353  0.2010  0.2915 -0.2173
  192SAPI   O1122204   6.001   3.931   2.556  0.1936 -0.3993 -0.0896
  192SAPI    C122205   5.906   3.857   2.626 -0.1641 -0.1068  0.1413
  192SAPI    HA22206   5.816   3.914   2.657 -0.3075 -0.4760  0.4119
  192SAPI    HB22207   5.874   3.764   2.574 -2.3428 -0.8392  2.5577
  192SAPI    C222208   5.977   3.802   2.758 -0.5673 -0.4267  0.0020
  192SAPI    HS22209   6.004   3.696   2.739 -0.6860 -0.9711  2.4950
  192SAPI   O2122210   5.887   3.808   2.865  0.2166  0.0970  0.2300
  192SAPI   C2122211   5.885   3.711   2.965 -0.1367 -0.4800 -0.5217
  192SAPI   O2222212   5.936   3.602   2.945 -0.6712 -0.3774  0.2186
  192SAPI   C2222213   5.808   3.744   3.087 -0.1024 -0.1489 -0.1960
  192SAPI   H2R22214   5.807   3.855   3.094 -1.6366 -0.1397 -0.2581
  192SAPI   H2S22215   5.702   3.715   3.071 -0.8180  1.7533  0.8263
  192SAPI    C322216   6.118   3.878   2.790  0.1970  0.2778  0.5473
  192SAPI    HX22217   6.098   3.987   2.799  1.9274  0.6621  0.0282
  192SAPI    HY22218   6.184   3.863   2.702 -0.6608  2.0609 -0.4483
  192SAPI   O3122219   6.181   3.819   2.913 -0.3722  0.5331 -0.6049
  192SAPI   C3122220   6.240   3.699   2.891 -0.6957 -0.2172 -0.8191
  192SAPI   O3222221   6.250   3.645   2.781  0.1188 -0.6825  0.6293
  192SAPI   C3222222   6.280   3.635   3.025  0.1914  0.1059  0.4956
  192SAPI   H2X22223   6.386   3.604   3.011  0.5092  2.4343 -4.7618
  192SAPI   H2Y22224   6.221   3.542   3.016 -0.1951  0.5181 -1.8579
  192SAPI   C2322225   5.869   3.676   3.218  0.3011 -0.5542 -0.2606
  192SAPI   H3R22226   5.976   3.699   3.235 -0.3295  1.6490  1.1178
  192SAPI   H3S22227   5.869   3.565   3.214  2.1596 -0.6423  1.0919
  192SAPI   C2422228   5.791   3.736   3.338  0.8123  0.8538 -0.8260
  192SAPI   H4R22229   5.684   3.720   3.310  0.2324 -0.3598  1.7512
  192SAPI   H4S22230   5.801   3.846   3.342  4.0617  0.6329  3.0132
  192SAPI   C2522231   5.816   3.664   3.469  0.3439  0.0024 -0.2408
  192SAPI   H5R22232   5.866   3.566   3.478 -0.7436 -0.4058  2.1937
  192SAPI   C2622233   5.776   3.721   3.587  0.3355  0.4344  0.5357
  192SAPI   H6R22234   5.794   3.670   3.683 -1.1924  0.6662  0.9670
  192SAPI   C2722235   5.708   3.854   3.620  0.1223  0.1747  0.3717
  192SAPI   H7R22236   5.625   3.864   3.547  0.1735 -2.0624 -0.0940
  192SAPI   H7S22237   5.771   3.945   3.612  1.8535 -0.8372  1.5439
  192SAPI   C2822238   5.658   3.853   3.764  0.5999  0.2000  0.7483
  192SAPI   H8R22239   5.567   3.792   3.774 -0.3776  1.8565  2.9582
  192SAPI   C2922240   5.725   3.883   3.877  0.7315  0.4194 -0.6524
  192SAPI   H9R22241   5.671   3.865   3.971  0.2437  2.7386 -0.4399
  192SAPI  C21022242   5.852   3.950   3.898 -0.1555  0.0783  0.4961
  192SAPI  H10R22243   5.913   3.954   3.805 -0.6061 -0.1253  0.1893
  192SAPI  H10S22244   5.923   3.881   3.948  2.8129  3.1123  0.8388
  192SAPI  C21122245   5.859   4.076   3.970  0.1092 -0.3880 -0.2173
  192SAPI  H11R22246   5.903   4.158   3.911 -1.2332  2.3150  2.3013
  192SAPI  C21222247   5.847   4.107   4.100  0.2795  0.3283  0.6703
  192SAPI  H12R22248   5.849   4.214   4.126 -0.3234  0.9919 -1.7321
  192SAPI  C21322249   5.815   4.007   4.209  0.4042  0.1546 -0.2849
  192SAPI  H13R22250   5.903   3.982   4.272 -0.1858 -0.5964  0.2645
  192SAPI  H13S22251   5.782   3.905   4.179 -1.6210  0.3347  1.1432
  192SAPI  C21422252   5.706   4.050   4.305 -1.0545 -0.0428 -0.4408
  192SAPI  H14R22253   5.609   4.072   4.258 -1.4054  2.0562  1.1557
  192SAPI  C21522254   5.719   4.057   4.441  0.3298  0.4414  0.9739
  192SAPI  H15R22255   5.635   4.111   4.487 -0.4931  1.5577 -1.6505
  192SAPI  C21622256   5.835   4.035   4.522  0.7292 -0.2081  0.0749
  192SAPI  H16R22257   5.926   4.054   4.462  2.2433 -1.7942  1.7535
  192SAPI  H16S22258   5.841   3.935   4.572 -0.5166 -0.6312 -0.5613
  192SAPI  C21722259   5.860   4.117   4.649 -0.4622 -0.2929  0.2368
  192SAPI  H17R22260   5.946   4.080   4.709 -2.4445 -0.6262  3.0018
  192SAPI  H17S22261   5.770   4.108   4.713  0.3694 -0.9583  1.3494
  192SAPI  C21822262   5.880   4.265   4.613  0.8817 -0.6901 -0.7551
  192SAPI  H18R22263   5.798   4.295   4.544 -2.8520 -1.2521  3.0797
  192SAPI  H18S22264   5.976   4.269   4.557  1.9924 -0.6526  1.0733
  192SAPI  C21922265   5.873   4.349   4.735 -0.1346  0.2053  0.2689
  192SAPI  H19R22266   5.789   4.310   4.797 -1.0844 -0.1396 -1.1796
  192SAPI  H19S22267   5.847   4.450   4.695 -1.4730 -0.4483 -0.6121
  192SAPI  C22022268   6.005   4.354   4.821 -0.4267 -0.1396  1.0992
  192SAPI  H20R22269   6.035   4.247   4.830  0.9089  0.0214 -0.7924
  192SAPI  H20S22270   5.984   4.409   4.915 -2.1889  0.2029  0.5317
  192SAPI  H20T22271   6.085   4.403   4.761 -0.8636  0.1223  0.7216
  192SAPI   C3322272   6.257   3.710   3.154 -0.1513 -0.3387  0.7741
  192SAPI   H3X22273   6.159   3.762   3.153 -0.4499 -0.8922  0.3999
  192SAPI   H3Y22274   6.343   3.780   3.163 -0.1420  0.3595 -2.9902
  192SAPI   C3422275   6.264   3.614   3.274 -0.3196  0.3033  0.6813
  192SAPI   H4X22276   6.345   3.539   3.264  0.9012  1.6575 -0.0279
  192SAPI   H4Y22277   6.165   3.563   3.277  1.1338 -2.7486  0.6065
  192SAPI   C3522278   6.275   3.696   3.398  0.2827  0.0305 -0.1206
  192SAPI   H5X22279   6.207   3.783   3.384 -2.1046 -1.9587 -1.8684
  192SAPI   H5Y22280   6.374   3.734   3.430 -0.0070 -0.1339  1.0564
  192SAPI   C3622281   6.221   3.625   3.525 -0.3096 -0.9095  0.1709
  192SAPI   H6X22282   6.287   3.538   3.542  1.2292 -0.3386 -2.3323
  192SAPI   H6Y22283   6.115   3.594   3.512  0.2549 -2.6061 -0.5724
  192SAPI   C3722284   6.243   3.713   3.650  0.4507 -0.1725  0.3655
  192SAPI   H7X22285   6.176   3.800   3.633  0.1744 -0.7026 -1.4655
  192SAPI   H7Y22286   6.347   3.753   3.655  0.3958 -0.0678  0.6384
  192SAPI   C3822287   6.229   3.641   3.782 -0.0496  0.1968 -0.4342
  192SAPI   H8X22288   6.310   3.574   3.819 -2.6936 -1.2629  3.4019
  192SAPI   H8Y22289   6.143   3.571   3.770 -1.0369  1.4353 -0.8480
  192SAPI   C3922290   6.215   3.754   3.888  0.6330  0.5510  0.1785
  192SAPI   H9X22291   6.131   3.820   3.860 -1.6313 -1.8760  0.8279
  192SAPI   H9Y22292   6.310   3.811   3.888  1.2122 -0.3885  0.5195
  192SAPI  C31022293   6.194   3.705   4.038  0.0247 -0.3588  0.5587
  192SAPI  H10X22294   6.283   3.642   4.061 -0.7030 -2.2049 -1.2742
  192SAPI  H10Y22295   6.108   3.635   4.028 -1.1483  1.1483 -0.3765
  192SAPI  C31122296   6.172   3.822   4.137 -0.3344  0.1372  0.2264
  192SAPI  H11X22297   6.084   3.876   4.097 -1.0445 -2.8967 -2.7760
  192SAPI  H11Y22298   6.263   3.884   4.122  0.5830 -1.1581  0.2622
  192SAPI  C31222299   6.142   3.777   4.284  0.0475 -0.0721  1.0489
  192SAPI  H12X22300   6.203   3.693   4.324 -1.4621 -2.2652 -0.9214
  192SAPI  H12Y22301   6.038   3.739   4.293  0.2973 -0.9892  0.2891
  192SAPI  C31322302   6.179   3.892   4.372 -0.3616  0.1789 -0.3335
  192SAPI  H13X22303   6.103   3.973   4.375 -2.0661 -1.3666  2.4391
  192SAPI  H13Y22304   6.280   3.927   4.341  0.6969 -0.3412  2.3227
  192SAPI  C31422305   6.206   3.848   4.518 -0.4012  0.4675  0.8421
  192SAPI  H14X22306   6.284   3.769   4.516  0.9001  1.7453 -0.5495
  192SAPI  H14Y22307   6.115   3.795   4.555  0.2539 -1.0366  0.3758
  192SAPI  C31522308   6.248   3.966   4.602 -0.9264 -0.7288 -0.1242
  192SAPI  H15X22309   6.167   4.042   4.595 -1.1767 -1.0405 -0.6257
  192SAPI  H15Y22310   6.336   4.015   4.555 -2.6619  0.3909 -2.4127
  192SAPI  C31622311   6.290   3.923   4.745 -0.5393  0.4662  0.3482
  192SAPI  H16X22312   6.220   3.853   4.796  2.7172 -2.6342  1.0137
  192SAPI  H16Y22313   6.292   4.018   4.801  4.7399  0.7457  0.1535
  192SAPI  C31722314   6.422   3.854   4.748  0.0317 -0.3476  0.2234
  192SAPI  H17X22315   6.498   3.924   4.706  3.0335 -1.9245  2.5871
  192SAPI  H17Y22316   6.416   3.765   4.681 -1.9703  1.5854 -2.3741
  192SAPI  C31822317   6.474   3.835   4.890  0.9341 -0.3224 -0.2980
  192SAPI  H18X22318   6.395   3.783   4.948  0.7862  0.3038  0.0710
  192SAPI  H18Y22319   6.484   3.934   4.938  0.0565  0.2420 -1.2390
  192SAPI  H18Z22320   6.572   3.784   4.895 -0.2635 -2.7071  0.4649
  193SOD    SOD22321   4.195   6.798   1.323 -0.2687  0.0651 -0.1295
  194SOD    SOD22322   3.921   2.556   1.606 -0.0557 -0.2068  0.0261
  195SOD    SOD22323   3.721   3.793   6.693  0.0859  0.4662  0.2101
  196SOD    SOD22324   1.964   1.907   1.954 -0.4761  0.0754  0.8238
  197SOD    SOD22325   2.882   1.586   1.373 -0.2397 -0.5605  0.0584
  198SOD    SOD22326   4.002   5.495   6.846  0.3378  0.3100  0.5856
  199SOD    SOD22327   5.609   1.647   6.806 -0.1217  0.1425 -0.3910
  200SOD    SOD22328   5.877   4.505   1.723 -0.3914  0.1544 -0.4338
  201SOD    SOD22329   5.283   2.598   7.550 -0.0567  0.2446 -0.1377
  202SOD    SOD22330   3.054   4.830   6.762 -0.5531 -0.2909  0.3117
  203SOD    SOD22331   4.787   2.314   1.091  0.1212  0.5132  0.0517
  204SOD    SOD22332   0.092   1.037   0.659 -0.3089  0.2811 -0.4798
  205SOD    SOD22333   1.609   6.299   1.170  0.2033  0.3557  0.0948
  206SOD    SOD22334   2.624   1.205   6.836 -0.2474 -0.2527 -0.3155
  207SOD    SOD22335   1.812   6.591   8.395 -0.3638 -0.3993 -0.2263
  208SOD    SOD22336   5.849   5.966   6.758  0.0223 -0.3450  0.3008
  209SOD    SOD22337   1.172   3.690   7.456  0.2632 -0.0772 -0.3883
  210SOD    SOD22338   0.043   4.724   8.013 -0.2804  0.4555 -0.3318
  211SOD    SOD22339   0.055   4.963   0.820 -0.3734  0.4019  0.2653
  212SOD    SOD22340   4.055   3.365   6.515  0.0707  0.0094  0.1620
  213SOD    SOD22341   1.719   5.015   1.401  0.2288 -0.1467  0.3173
  214SOD    SOD22342   2.403   1.634   2.031  0.1328  0.7683 -0.2679
  215SOD    SOD22343   3.070   3.633   6.565  0.1043  0.5907 -0.2931
  216SOD    SOD22344   5.375   0.359   1.698 -0.3150 -0.2461  0.0741
  217SOD    SOD22345   2.695   5.655   1.314  0.2523 -0.1196 -0.6054
  218SOD    SOD22346   5.151   5.124   7.226 -0.5966 -0.5787 -0.4829
  219SOD    SOD22347   6.640   2.218   2.079  0.5756 -0.1420 -0.7143
  220SOD    SOD22348   5.124   5.705   1.402 -0.0134 -0.1848  0.0142
  221SOD    SOD22349   3.703   0.742   2.207  0.4654  0.0152  0.2853
  222SOD    SOD22350   6.830   2.123   2.632  0.2263  0.0278  0.6471
  223SOD    SOD22351   6.008   1.627   7.494 -0.4431 -0.4414  0.0004
  224SOD    SOD22352   4.818   4.408   2.469 -0.1045  0.5106  0.0457
  225SOD    SOD22353   4.264   4.998   0.844 -0.1099  0.0111  0.0601
  226SOD    SOD22354   6.592   1.997   7.252 -0.6507  0.2415  0.1438
  227SOD    SOD22355   3.976   6.737   6.543  0.7152 -0.0636  0.1402
  228SOD    SOD22356   6.172   1.871   2.558  0.3490 -0.4801 -0.1826
  229SOD    SOD22357   2.086   0.516   0.521 -0.0191 -0.5976  0.1859
  230CLA    CLA22358   6.593   0.804   0.580 -0.0023  0.3106 -0.4205
  231CLA    CLA22359   5.330   4.272   7.728  0.1392  0.1706 -0.1335
  232CLA    CLA22360   3.162   4.826   1.456 -0.0857 -0.6891  0.5203
  233CLA    CLA22361   0.493   5.104   0.524 -0.2107 -0.3371  0.1194
  234CLA    CLA22362   2.497   6.463   0.571 -0.0686  0.0736 -0.3304
  235CLA    CLA22363   2.523   2.410   1.372 -0.0775  0.0612  0.3612
  236CLA    CLA22364   4.846   5.192   0.798 -0.0446 -0.6476 -0.4043
  237CLA    CLA22365   2.445   1.590   7.943 -0.1693 -0.3535  0.1591
  238CLA    CLA22366   5.334   1.260   7.302  0.0116 -0.0909  0.2220
  239CLA    CLA22367   3.845   6.635   7.015  0.2216  0.5743 -0.0711
  240CLA    CLA22368   3.072   5.903   0.045  0.1575  0.0203 -0.1053
  241CLA    CLA22369   6.741   1.257   7.341 -0.5182  0.1917  0.0245
  242CLA    CLA22370   6.009   3.945   1.168 -0.3639  0.4404  0.2606
  243CLA    CLA22371   3.426   0.834   1.587 -0.1320  0.2960 -0.3458
  244CLA    CLA22372   0.359   5.991   7.423 -0.1264 -0.7861 -0.0827
  245CLA    CLA22373   2.773   0.220   8.240  0.4810 -0.1975  0.0659
  246CLA    CLA22374   0.297   0.528   0.632  0.0618 -0.0336 -0.4629
  247TIP3   OH222375   6.933   6.686   6.410  0.4403  0.0257 -0.1259
  247TIP3    H122376   6.963   6.601   6.443  3.1353  1.1385  0.5459
  247TIP3    H222377   7.012   6.740   6.408 -1.0778  2.3439 -1.1328
  248TIP3   OH222378   6.453   4.865   0.457  0.1192 -0.0679  0.1535
  248TIP3    H122379   6.428   4.774   0.474  2.0618 -0.7894 -0.4981
  248TIP3    H222380   6.409   4.888   0.375 -2.1294  0.3738  1.4231
  249TIP3   OH222381   1.089   0.796   1.605  0.0201 -0.0860  0.1134
  249TIP3    H122382   1.025   0.800   1.534  1.0764 -0.6802 -0.9051
  249TIP3    H222383   1.120   0.705   1.605 -0.0950 -0.1508  1.4696
  250TIP3   OH222384   3.318   6.301   6.663  0.1082  0.2206  0.4986
  250TIP3    H122385   3.260   6.352   6.606 -1.0787 -0.2711  1.2073
  250TIP3    H222386   3.261   6.233   6.699  1.1481 -0.2814  1.2382
  251TIP3   OH222387   3.834   4.180   7.052  0.1302  0.2949 -0.2228
  251TIP3    H122388   3.905   4.115   7.052  0.2649  0.2883 -3.3655
  251TIP3    H222389   3.879   4.264   7.059  0.0796  0.2050  1.9135
  252TIP3   OH222390   4.657   1.950   8.581 -0.1955 -0.1720 -0.0620
  252TIP3    H122391   4.697   1.933   8.666 -0.9873 -0.7874  0.2009
  252TIP3    H222392   4.568   1.915   8.589 -0.2121 -0.4352 -1.2079
  253TIP3   OH222393   0.229   1.908   1.101  0.2775  0.2671  0.1368
  253TIP3    H122394   0.156   1.969   1.100  0.9584  1.1110  0.9092
  253TIP3    H222395   0.217   1.857   1.180  0.2320  0.0350 -0.0178
  254TIP3   OH222396   2.206   5.326   6.132 -0.0841  0.7205 -0.2768
  254TIP3    H122397   2.234   5.259   6.069 -0.4212 -1.4428  1.7484
  254TIP3    H222398   2.237   5.294   6.217 -2.2781  1.9829  1.0889
  255TIP3   OH222399   3.961   2.229   8.216  0.9754 -0.2761 -0.4010
  255TIP3    H122400   3.884   2.283   8.233 -0.4878 -1.9868 -1.3304
  255TIP3    H222401   4.010   2.231   8.299 -0.1240  0.7165  0.2582
  256TIP3   OH222402   1.780   4.890   8.281 -0.4250  0.3846  1.0031
  256TIP3    H122403   1.728   4.873   8.202 -0.5188  0.2624  1.0908
  256TIP3    H222404   1.862   4.842   8.266 -0.0802  1.0941  0.5859
  257TIP3   OH222405   2.034   4.871   1.119  0.1650 -0.1472  0.1934
  257TIP3    H122406   1.972   4.807   1.156 -0.0007 -0.2839 -0.3182
  257TIP3    H222407   1.979   4.934   1.073  0.1676  1.3807  2.1393
  258TIP3   OH222408   0.443   0.431   8.293 -0.0360 -0.1013  0.7356
  258TIP3    H122409   0.494   0.350   8.303 -0.4941 -0.3923  0.7660
  258TIP3    H222410   0.379   0.428   8.364 -0.7254 -0.2259  0.1290
  259TIP3   OH222411   3.149   1.862   1.306 -0.2372 -0.3070  0.3055
  259TIP3    H122412   3.199   1.943   1.319 -0.2334  0.0300 -1.5566
  259TIP3    H222413   3.110   1.872   1.219 -0.5258 -2.1611  0.1918
  260TIP3   OH222414   5.024   5.442   6.846 -0.2145  0.1430  0.7650
  260TIP3    H122415   4.984   5.355   6.857  0.4654 -0.1312  1.1008
  260TIP3    H222416   5.015   5.460   6.752 -0.6910 -0.1296  0.7532
  261TIP3   OH222417   0.530   2.475   0.516  0.1331 -0.0029 -0.1336
  261TIP3    H122418   0.447   2.445   0.554 -0.4077  0.1054 -1.2040
  261TIP3    H222419   0.566   2.396   0.475  0.9925 -0.2531  1.0566
  262TIP3   OH222420   0.866   2.493   7.668  0.1113 -0.4697 -0.5841
  262TIP3    H122421   0.814   2.491   7.587  1.0688 -0.4858 -1.2159
  262TIP3    H222422   0.915   2.575   7.662 -3.4509  2.1925  2.3719
  263TIP3   OH222423   0.450   1.383   7.813 -0.3476  0.2966 -0.1261
  263TIP3    H122424   0.493   1.392   7.897 -0.3729 -1.2247  0.0694
  263TIP3    H222425   0.370   1.333   7.831  0.2076 -1.0494 -1.2018
  264TIP3   OH222426   3.642   5.640   0.261  0.1104 -0.0080 -0.6090
  264TIP3    H122427   3.716   5.668   0.315 -0.0686 -1.6266  0.5414
  264TIP3    H222428   3.671   5.656   0.171  0.1906  3.2899 -0.1187
  265TIP3   OH222429   6.643   6.376   2.171 -0.2663 -0.6620 -0.3586
  265TIP3    H122430   6.570   6.372   2.233  1.3812 -0.6857  1.6719
  265TIP3    H222431   6.713   6.327   2.213  1.2786  0.2091 -1.7855
  266TIP3   OH222432   6.479   3.128   2.152 -0.3765  0.3538 -0.3533
  266TIP3    H122433   6.560   3.177   2.160  0.8765 -1.7217  0.6944
  266TIP3    H222434   6.454   3.109   2.243 -2.2962  1.3103 -0.6376
  267TIP3   OH222435   5.584   3.059   7.613  0.1728 -0.1116 -0.5603
  267TIP3    H122436   5.664   3.043   7.662 -0.3249 -0.6416  0.0979
  267TIP3    H222437   5.575   3.154   7.611  0.3365 -0.0815  0.1561
  268TIP3   OH222438   0.647   4.821   6.801  0.6192  0.2860 -0.5929
  268TIP3    H122439   0.616   4.785   6.884  0.5732  2.0581  0.2073
  268TIP3    H222440   0.704   4.754   6.765 -1.7026 -1.8274 -0.6390
  269TIP3   OH222441   1.500   1.143   7.287 -0.8021 -0.3966  0.2719
  269TIP3    H122442   1.589   1.128   7.255 -1.2350 -0.2990 -1.0504
  269TIP3    H222443   1.509   1.208   7.356 -0.0472  1.1155 -1.2026
  270TIP3   OH222444   3.417   0.036   0.740  0.6005 -0.0456  0.4261
  270TIP3    H122445   3.340  -0.022   0.746  0.6950 -0.0427  2.2838
  270TIP3    H222446   3.466   0.002   0.665 -1.1516 -0.0902 -0.7714
  271TIP3   OH222447   0.031   5.398   1.282 -0.2185  0.2640 -0.3665
  271TIP3    H122448   0.104   5.447   1.320 -1.1708  0.8910  0.7064
  271TIP3    H222449   0.060   5.306   1.284  0.1010  0.3741  1.1069
  272TIP3   OH222450   6.090   0.560   7.310 -0.3792  0.2515 -0.0885
  272TIP3    H122451   6.146   0.528   7.381  0.9237 -1.7080 -1.8833
  272TIP3    H222452   6.126   0.646   7.289  1.6032 -0.6723 -0.7235
  273TIP3   OH222453   0.242   6.474   1.683  0.3247  0.2438  0.5282
  273TIP3    H122454   0.246   6.383   1.651  1.4833  0.1852  0.7902
  273TIP3    H222455   0.252   6.466   1.778 -0.6888  0.5812  0.6737
  274TIP3   OH222456   4.809   6.043   0.350  0.3733 -0.2129 -0.0676
  274TIP3    H122457   4.795   5.981   0.422  2.0744 -0.7893 -0.1707
  274TIP3    H222458   4.891   6.087   0.373  2.1314 -1.8836 -2.5938
  275TIP3   OH222459   0.760   0.181   1.738 -0.0474  0.1336 -0.6617
  275TIP3    H122460   0.759   0.112   1.804  1.3412  1.8680  1.2849
  275TIP3    H222461   0.724   0.258   1.782  1.1562  1.4308 -1.8253
  276TIP3   OH222462   4.059   4.016   7.011 -0.6136 -0.4454 -0.4663
  276TIP3    H122463   4.046   3.933   7.057 -1.8970  0.5762  1.1588
  276TIP3    H222464   4.023   4.001   6.924 -2.2180 -1.1888  0.2807
  277TIP3   OH222465   3.504   2.936   8.388  0.0193 -0.4380  0.4406
  277TIP3    H122466   3.554   2.856   8.405  0.5798 -0.4167 -0.9559
  277TIP3    H222467   3.421   2.905   8.351  0.3053 -0.3914 -0.2651
  278TIP3   OH222468   6.764   6.194   0.559  0.3286 -0.2420 -0.3080
  278TIP3    H122469   6.737   6.241   0.638 -0.5849 -0.6757 -0.3487
  278TIP3    H222470   6.688   6.197   0.501  1.2885  0.8622 -1.5813
  279TIP3   OH222471   1.040   6.907   7.841  0.4172  0.4214 -0.6020
  279TIP3    H122472   1.030   6.812   7.841  0.8958  0.3689 -0.7573
  279TIP3    H222473   0.969   6.939   7.786  0.8755  0.0856 -1.3996
  280TIP3   OH222474   6.034   2.347   7.947 -0.3510  0.9316 -0.1006
  280TIP3    H122475   6.083   2.304   7.877  0.5367 -0.9001  1.5673
  280TIP3    H222476   5.946   2.359   7.911  0.1387  0.2909 -1.5976
  281TIP3   OH222477   6.196   3.878   6.883 -0.0901 -0.3632 -0.2349
  281TIP3    H122478   6.214   3.789   6.912  0.7552 -0.0961  0.0771
  281TIP3    H222479   6.260   3.932   6.929 -0.6715  0.4238 -0.3265
  282TIP3   OH222480   5.726   6.316   0.474 -0.2158 -0.7876 -0.6667
  282TIP3    H122481   5.736   6.278   0.561 -0.7017  2.2701  0.8529
  282TIP3    H222482   5.816   6.337   0.447 -0.2172  0.2859  0.1189
  283TIP3   OH222483   4.222   4.892   8.566  0.2721  0.1377  0.1430
  283TIP3    H122484   4.180   4.955   8.508  1.1384 -1.7381 -2.7903
  283TIP3    H222485   4.307   4.931   8.586  0.2693  0.5069 -0.5211
  284TIP3   OH222486   4.799   3.320   0.829  0.4037 -0.0052 -0.2742
  284TIP3    H122487   4.792   3.276   0.745  1.5316 -2.9763  1.0547
  284TIP3    H222488   4.890   3.304   0.857  0.7864  2.9070  0.5428
  285TIP3   OH222489   4.088   5.342   1.999  0.1195 -0.4893  0.7412
  285TIP3    H122490   4.054   5.406   2.061 -0.7276  0.3941 -0.5733
  285TIP3    H222491   4.034   5.264   2.013 -1.7013  0.4787 -0.4489
  286TIP3   OH222492   4.103   3.147   6.555  0.3208 -0.3073 -0.4781
  286TIP3    H122493   4.136   3.135   6.644  1.5850  2.0825 -0.5435
  286TIP3    H222494   4.148   3.080   6.504  1.1171 -0.4386  0.3648
  287TIP3   OH222495   5.640   4.653   7.092  0.0722  0.2678 -0.1566
  287TIP3    H122496   5.696   4.578   7.111 -0.2650  0.3453  1.2590
  287TIP3    H222497   5.557   4.633   7.135 -0.7181  0.5557 -1.4721
  288TIP3   OH222498   2.260   1.425   6.609  0.2324  0.9606 -0.0109
  288TIP3    H122499   2.246   1.454   6.699 -1.0174  0.9540 -0.1839
  288TIP3    H222500   2.184   1.458   6.561  1.4259  1.9726 -1.3245
  289TIP3   OH222501   0.933   2.244   0.911 -0.2827  0.2311  0.1976
  289TIP3    H122502   0.995   2.314   0.890 -1.3168  0.8747 -0.8976
  289TIP3    H222503   0.948   2.178   0.843 -0.9626  0.5205 -0.2479
  290TIP3   OH222504   2.051   6.149   1.543 -0.4304 -0.3994  0.3471
  290TIP3    H122505   2.018   6.239   1.544  0.6136  0.0716  3.4136
  290TIP3    H222506   2.114   6.147   1.472  0.2823  1.6414  0.8576
  291TIP3   OH222507   1.602   2.929   1.364 -0.1861  0.1083 -0.2238
  291TIP3    H122508   1.641   2.960   1.446 -2.8449 -0.5508  1.4277
  291TIP3    H222509   1.544   3.000   1.337 -1.0513 -0.6001 -0.2619
  292TIP3   OH222510   2.160   5.101   2.468 -0.0066 -0.3320  0.4059
  292TIP3    H122511   2.189   5.030   2.525 -0.1629 -0.6579  0.0875
  292TIP3    H222512   2.113   5.057   2.397 -0.1036  0.0903  0.2022
  293TIP3   OH222513   2.725   2.325   0.029 -0.4188  0.2654 -0.2321
  293TIP3    H122514   2.638   2.364   0.037 -1.1831 -1.3150 -0.3276
  293TIP3    H222515   2.755   2.313   0.119 -0.1291  1.1374 -0.2039
  294TIP3   OH222516   1.523   1.874   1.804 -0.4236 -0.1599  0.2008
  294TIP3    H122517   1.456   1.869   1.872 -2.2966  0.8652 -1.4600
  294TIP3    H222518   1.485   1.829   1.729  0.5472  0.8777 -0.9546
  295TIP3   OH222519   5.840   4.619   0.832  0.1818  0.4524  0.4321
  295TIP3    H122520   5.784   4.697   0.839 -1.7213 -0.9421  2.2521
  295TIP3    H222521   5.834   4.593   0.740 -0.7050  1.3702  0.2103
  296TIP3   OH222522   5.411   5.384   1.846  0.3220 -0.3088 -0.2245
  296TIP3    H122523   5.323   5.399   1.880  0.1550 -0.9106 -0.3817
  296TIP3    H222524   5.443   5.307   1.893  0.7972 -0.0544 -0.1170
  297TIP3   OH222525   2.294   2.432   1.578 -0.3365  0.4401  0.0689
  297TIP3    H122526   2.362   2.479   1.529 -2.8112  2.7787 -1.4179
  297TIP3    H222527   2.253   2.375   1.514 -1.5263  1.1292  0.1857
  298TIP3   OH222528   4.713   5.360   7.103 -0.1888 -0.5068  0.7953
  298TIP3    H122529   4.719   5.333   7.011 -1.7613  1.1010  0.1537
  298TIP3    H222530   4.680   5.283   7.149  0.7004 -1.3586  0.0357
  299TIP3   OH222531   0.644   4.503   2.229  0.6441  0.6413  0.2092
  299TIP3    H122532   0.652   4.433   2.164 -1.4564  0.2570  0.2796
  299TIP3    H222533   0.718   4.561   2.212  2.5631 -1.6453  0.2478
  300TIP3   OH222534   4.634   3.083   2.106  0.4694 -0.3695 -0.3338
  300TIP3    H122535   4.703   3.103   2.169 -0.7072  1.4430  0.4577
  300TIP3    H222536   4.629   3.160   2.049  0.1305 -1.1296 -1.3829
  301TIP3   OH222537   1.118   1.708   0.737  0.0542  0.0566  0.2924
  301TIP3    H122538   1.208   1.695   0.768  0.6115  0.6891 -0.9776
  301TIP3    H222539   1.126   1.710   0.641 -1.4440 -0.8170  0.1132
  302TIP3   OH222540   5.645   6.070   2.473  0.7613  0.0291  0.0581
  302TIP3    H122541   5.695   6.019   2.537  1.1118 -0.3852 -0.5383
  302TIP3    H222542   5.672   6.161   2.490  0.8955 -0.0827  0.4625
  303TIP3   OH222543   0.609   5.878   7.996  0.1108  0.4575  0.6027
  303TIP3    H122544   0.623   5.938   7.923 -0.4666  0.9974  0.9266
  303TIP3    H222545   0.601   5.792   7.955  0.7006  0.6300  0.1130
  304TIP3   OH222546   5.131   5.979   8.578 -0.2539  0.2199 -0.1514
  304TIP3    H122547   5.217   6.007   8.549 -0.3017  0.9706  0.3932
  304TIP3    H222548   5.131   5.995   8.673 -0.5530 -0.9500  0.0677
  305TIP3   OH222549   6.727   4.388   6.834  0.2448  0.9471 -0.4527
  305TIP3    H122550   6.761   4.472   6.865 -2.5778  1.4699  1.6997
  305TIP3    H222551   6.651   4.412   6.780 -0.4189 -0.1769 -0.0516
  306TIP3   OH222552   1.521   4.226   8.482  0.2501  0.2252  0.3435
  306TIP3    H122553   1.474   4.173   8.547  1.8794 -1.1355  0.5014
  306TIP3    H222554   1.524   4.314   8.520 -1.3069  0.1290  0.7409
  307TIP3   OH222555   2.424   5.251   8.464 -0.3849 -0.3278  0.1758
  307TIP3    H122556   2.448   5.221   8.552  0.4377  0.2059  0.1419
  307TIP3    H222557   2.409   5.345   8.474 -1.6468 -0.4968  0.0130
  308TIP3   OH222558   2.967   0.719   7.799  0.1331  0.1391  0.3903
  308TIP3    H122559   2.917   0.719   7.717  1.1094  1.4279 -0.2400
  308TIP3    H222560   3.016   0.637   7.796  2.1271  1.2700 -1.6386
  309TIP3   OH222561   6.606   2.140   2.728 -0.2250  0.1115  0.0100
  309TIP3    H122562   6.574   2.125   2.639 -0.5252 -0.9907  0.2983
  309TIP3    H222563   6.550   2.210   2.762  0.7990  1.5646 -1.1326
  310TIP3   OH222564   6.186   3.889   6.617  0.0107  0.2911 -0.5572
  310TIP3    H122565   6.191   3.922   6.706  0.7523  3.0709 -1.5269
  310TIP3    H222566   6.117   3.822   6.620 -2.4505  2.6768  1.4213
  311TIP3   OH222567   3.918   4.470   2.162 -0.1965 -0.1517  0.1502
  311TIP3    H122568   3.851   4.466   2.231 -0.1829 -0.1537  0.1635
  311TIP3    H222569   4.000   4.451   2.208 -0.2073 -0.3094  0.1052
  312TIP3   OH222570   3.376   0.456   0.529 -0.5346  0.0604 -0.4606
  312TIP3    H122571   3.290   0.429   0.498  0.5771 -2.2490 -1.8460
  312TIP3    H222572   3.416   0.500   0.453  0.0690 -0.3444 -0.3873
  313TIP3   OH222573   5.694   4.411   2.055  0.2141 -0.0893  0.4250
  313TIP3    H122574   5.627   4.464   2.011  1.2401  1.2010  0.3559
  313TIP3    H222575   5.703   4.451   2.141 -2.1469 -2.8946  2.1869
  314TIP3   OH222576   2.206   1.046   0.173  0.3260  0.0380 -0.5823
  314TIP3    H122577   2.133   0.986   0.155  1.1350 -0.4077 -2.7092
  314TIP3    H222578   2.269   0.993   0.222 -0.2597  0.0700  0.2175
  315TIP3   OH222579   3.361   5.295   1.163 -0.2761 -0.0598 -0.4004
  315TIP3    H122580   3.287   5.238   1.146 -0.7682 -0.0959  1.5664
  315TIP3    H222581   3.323   5.382   1.177  0.0407 -0.0304  0.3851
  316TIP3   OH222582   3.594   6.407   0.791  0.0134 -0.3663  0.2288
  316TIP3    H122583   3.639   6.404   0.875 -0.2979 -0.4320  0.3930
  316TIP3    H222584   3.631   6.484   0.747 -0.4786  0.2089  0.8026
  317TIP3   OH222585   3.829   6.490   8.464  0.3366  0.2494 -0.3149
  317TIP3    H122586   3.805   6.442   8.385 -0.0529  1.8178 -1.1817
  317TIP3    H222587   3.774   6.452   8.533 -2.1870  1.3866 -1.5644
  318TIP3   OH222588   0.122   6.781   6.893  0.0802 -0.0536 -0.4227
  318TIP3    H122589   0.091   6.869   6.872  0.8183  0.1827 -0.5208
  318TIP3    H222590   0.041   6.731   6.908 -0.3543  0.5443 -0.7174
  319TIP3   OH222591   2.264   3.032   7.565 -0.0401  0.2560 -0.3336
  319TIP3    H122592   2.213   3.057   7.488 -0.0397 -0.1840 -0.4788
  319TIP3    H222593   2.264   2.936   7.564  0.1410  0.2490  0.0941
  320TIP3   OH222594   4.327   5.276   2.621  0.0515 -0.3009 -0.6414
  320TIP3    H122595   4.289   5.191   2.598 -1.5083  0.6668 -1.7394
  320TIP3    H222596   4.286   5.338   2.562  0.6933  1.3368  0.5747
  321TIP3   OH222597   6.454   1.213   7.689 -0.5533  0.1717 -0.4045
  321TIP3    H122598   6.521   1.281   7.691 -1.2422  0.8534  1.8856
  321TIP3    H222599   6.498   1.137   7.651  0.2528  1.7832 -2.9954
  322TIP3   OH222600   2.202   6.736   8.497 -0.0804 -0.3511 -0.6183
  322TIP3    H122601   2.254   6.797   8.446 -0.9986 -0.6145 -1.9513
  322TIP3    H222602   2.221   6.756   8.588  0.6650  0.9907 -1.0567
  323TIP3   OH222603   2.529   5.971   7.094 -0.2803  0.2561 -0.7088
  323TIP3    H122604   2.494   5.990   7.181 -1.8019  2.8253 -1.7717
  323TIP3    H222605   2.480   5.895   7.064 -2.5435  1.6237 -0.7251
  324TIP3   OH222606   4.293   1.872   7.168  0.4291 -0.1610 -0.6560
  324TIP3    H122607   4.348   1.939   7.129  0.8895 -0.7692 -1.0737
  324TIP3    H222608   4.311   1.793   7.117 -0.7532 -0.4019 -0.7429
  325TIP3   OH222609   2.310   3.306   1.245  0.1881  0.3436  0.7241
  325TIP3    H122610   2.348   3.256   1.317 -0.6961 -0.9739  0.3162
  325TIP3    H222611   2.354   3.273   1.167  0.1472  0.7706  0.5156
  326TIP3   OH222612   5.538   0.679   6.649 -0.2456  0.2424  0.3786
  326TIP3    H122613   5.516   0.642   6.564  0.1281 -0.0397  0.4014
  326TIP3    H222614   5.513   0.611   6.712  0.5571 -0.0246  0.4121
  327TIP3   OH222615   2.019   2.593   8.063  0.2204 -0.6508  0.1701
  327TIP3    H122616   1.943   2.649   8.047  1.0401  0.1936 -0.9433
  327TIP3    H222617   2.010   2.523   7.998  0.5037 -0.4467 -0.0851
  328TIP3   OH222618   3.528   4.938   8.246 -0.4559  0.2414  0.6867
  328TIP3    H122619   3.499   4.914   8.158 -0.2191 -2.3254  1.2213
  328TIP3    H222620   3.538   5.033   8.243  0.0366  0.1900 -2.1929
  329TIP3   OH222621   2.868   5.633   0.333  0.4348 -0.1056  0.5571
  329TIP3    H122622   2.930   5.600   0.398  0.5279 -2.4449 -0.6169
  329TIP3    H222623   2.898   5.597   0.250 -0.2363  2.0222 -0.6745
  330TIP3   OH222624   0.497   4.011   8.203  0.1604 -0.1624  0.1487
  330TIP3    H122625   0.533   3.926   8.179  0.1191 -0.1260 -0.0436
  330TIP3    H222626   0.469   4.001   8.294 -2.3976 -1.2193 -0.6674
  331TIP3   OH222627   4.914   6.940   7.733 -0.6600 -0.4901  0.1215
  331TIP3    H122628   4.831   6.903   7.706 -0.0452 -2.6870  1.0231
  331TIP3    H222629   4.964   6.952   7.652 -1.2798 -0.5862 -0.2736
  332TIP3   OH222630   2.617   6.575   8.358  0.5625 -0.2745 -0.3262
  332TIP3    H122631   2.524   6.598   8.355  0.6417  0.3223  1.2319
  332TIP3    H222632   2.662   6.660   8.358  1.0357 -0.5202  0.6259
  333TIP3   OH222633   5.883   0.309   1.368  0.0891 -0.1625 -0.3910
  333TIP3    H122634   5.944   0.374   1.403 -1.3384  1.7819 -1.3341
  333TIP3    H222635   5.936   0.254   1.310  1.4934 -0.4210  1.0757
  334TIP3   OH222636   2.007   1.752   0.754 -0.0049  0.1533  0.1012
  334TIP3    H122637   1.938   1.814   0.733  0.6751  1.0100  0.3142
  334TIP3    H222638   2.034   1.717   0.670 -1.0050 -0.5430  0.0570
  335TIP3   OH222639   5.182   3.370   7.194 -0.4962  0.3688 -0.0225
  335TIP3    H122640   5.121   3.393   7.124  0.0962 -1.0638 -1.0624
  335TIP3    H222641   5.159   3.428   7.266 -1.2642  1.7516 -1.3335
  336TIP3   OH222642   1.096   3.369   2.810  0.2011 -0.1002  0.3723
  336TIP3    H122643   1.001   3.361   2.797  0.3139  0.0349 -0.6374
  336TIP3    H222644   1.127   3.279   2.821 -0.0609 -0.1319  0.8872
  337TIP3   OH222645   5.873   6.271   1.183  0.1960 -0.8019 -0.3142
  337TIP3    H122646   5.803   6.248   1.244 -0.2563 -0.6700 -0.7783
  337TIP3    H222647   5.829   6.280   1.098  0.6409  0.0509 -0.4670
  338TIP3   OH222648   0.376   0.043   7.690  0.2535  0.1572 -0.2009
  338TIP3    H122649   0.440   0.071   7.625  1.2768 -0.6996  0.4028
  338TIP3    H222650   0.303   0.008   7.639  0.0344  1.5450 -0.9088
  339TIP3   OH222651   2.043   1.822   8.437 -0.1052 -0.3583 -0.2014
  339TIP3    H122652   1.971   1.858   8.489  1.4072 -0.1465  1.8224
  339TIP3    H222653   2.003   1.748   8.390 -1.8380  0.2973  0.1408
  340TIP3   OH222654   3.726   1.217   2.566 -0.2908  0.0273 -0.3670
  340TIP3    H122655   3.734   1.125   2.591 -1.2003 -0.5104 -1.9198
  340TIP3    H222656   3.752   1.265   2.645  1.1055 -1.5278  0.1987
  341TIP3   OH222657   4.910   0.383   0.165  0.4909 -0.3708 -0.5377
  341TIP3    H122658   4.934   0.293   0.143  1.1598 -0.6199  1.0716
  341TIP3    H222659   4.942   0.395   0.255 -0.2392  1.2326 -0.4603
  342TIP3   OH222660   4.859   1.812   1.021 -0.0667 -0.0628  0.0817
  342TIP3    H122661   4.780   1.771   1.056 -0.7423  0.7917 -0.4300
  342TIP3    H222662   4.931   1.765   1.065 -0.8409 -0.8626  0.5311
  343TIP3   OH222663   0.857   0.646   8.003 -0.3523 -0.2041 -0.7972
  343TIP3    H122664   0.917   0.708   7.962 -0.0353 -0.8966 -1.4146
  343TIP3    H222665   0.905   0.614   8.079 -1.9668  3.0933  1.8440
  344TIP3   OH222666   3.128   5.714   1.470 -0.7150  0.2178 -0.0403
  344TIP3    H122667   3.181   5.636   1.454 -1.8988 -0.4271 -0.9502
  344TIP3    H222668   3.158   5.746   1.555 -0.6725 -1.6311  0.6842
  345TIP3   OH222669   5.439   3.012   7.958 -0.0551 -0.6445 -0.2384
  345TIP3    H122670   5.445   3.102   7.991  0.3256  0.9425 -4.1350
  345TIP3    H222671   5.522   2.972   7.983  0.2633  0.4473  0.5373
  346TIP3   OH222672   1.679   6.418   8.460 -0.2785  0.2341  0.1233
  346TIP3    H122673   1.601   6.425   8.515  0.0272  1.3953  0.4397
  346TIP3    H222674   1.731   6.349   8.501 -0.6756  0.1602  0.5062
  347TIP3   OH222675   4.139   2.250   8.450  0.4392  0.6090  0.0809
  347TIP3    H122676   4.193   2.316   8.406  0.1572  1.2882  0.7241
  347TIP3    H222677   4.093   2.299   8.518 -0.8114 -0.0039 -0.3026
  348TIP3   OH222678   4.639   2.290   1.404 -0.3520  0.3377 -0.1750
  348TIP3    H122679   4.675   2.306   1.491  1.3195  1.6961 -1.0685
  348TIP3    H222680   4.636   2.194   1.397  1.7350  0.1607  0.5292
  349TIP3   OH222681   4.456   1.571   1.768  0.0685  0.0249  0.2366
  349TIP3    H122682   4.506   1.512   1.824 -0.1417  0.9949  1.4862
  349TIP3    H222683   4.365   1.560   1.796 -0.5168 -1.7938 -2.0716
  350TIP3   OH222684   6.012   0.541   7.859  0.2275  0.1403  0.1016
  350TIP3    H122685   5.942   0.502   7.808  0.2551  1.6929 -1.1906
  350TIP3    H222686   6.000   0.636   7.849  0.5096  0.5075  2.6283
  351TIP3   OH222687   3.301   4.513   6.382 -0.1999 -0.8248 -0.1052
  351TIP3    H122688   3.290   4.496   6.289 -1.3104  1.3217 -0.4352
  351TIP3    H222689   3.390   4.548   6.389  0.0507 -1.4223 -0.2803
  352TIP3   OH222690   2.826   1.622   1.728  0.2750 -0.5029 -0.7933
  352TIP3    H122691   2.767   1.660   1.663  1.5985 -0.0389 -1.7644
  352TIP3    H222692   2.903   1.678   1.727  0.4628 -0.6739  0.9737
  353TIP3   OH222693   6.845   1.465   7.771  0.4409 -0.2126 -0.0680
  353TIP3    H122694   6.800   1.529   7.827  0.4694 -0.5738  0.3746
  353TIP3    H222695   6.774   1.419   7.726  0.4154  2.0564 -2.6674
  354TIP3   OH222696   0.836   4.232   1.297  0.1199  0.1900  0.1720
  354TIP3    H122697   0.793   4.147   1.308 -1.6455  0.8280 -1.2335
  354TIP3    H222698   0.919   4.212   1.255 -0.5977 -0.8267 -0.8195
  355TIP3   OH222699   0.346   6.472   0.158  0.1059 -0.4969 -0.1047
  355TIP3    H122700   0.298   6.532   0.216  0.4614 -0.9776  0.7104
  355TIP3    H222701   0.399   6.419   0.218  1.1412 -0.4382 -0.9287
  356TIP3   OH222702   6.901   4.956   7.211 -0.6557  0.1331  0.4304
  356TIP3    H122703   6.894   4.867   7.246 -1.8412  0.1798  0.3633
  356TIP3    H222704   6.907   5.012   7.288  0.9495 -0.0361  0.4667
  357TIP3   OH222705   1.547   5.470   7.019 -0.1351  0.5939  0.4763
  357TIP3    H122706   1.455   5.483   6.996 -0.3772 -0.3390  0.8843
  357TIP3    H222707   1.595   5.511   6.948 -0.8527 -1.3868 -1.2534
  358TIP3   OH222708   5.092   2.470   7.603  0.8847  0.2571  0.2728
  358TIP3    H122709   5.005   2.509   7.607  1.1610  1.0271 -0.6853
  358TIP3    H222710   5.077   2.376   7.600  0.0562  0.4062 -0.5225
  359TIP3   OH222711   4.321   5.671   7.368 -0.0488 -0.0538  0.1305
  359TIP3    H122712   4.309   5.712   7.282 -1.5110 -1.1771 -0.2477
  359TIP3    H222713   4.415   5.655   7.374 -0.0502 -1.0670 -1.7956
  360TIP3   OH222714   4.435   2.047   6.959  0.1853 -0.2992  0.2501
  360TIP3    H122715   4.458   1.963   6.920 -1.2287  0.8260 -3.5158
  360TIP3    H222716   4.343   2.059   6.937  0.6806  2.7794 -0.6603
  361TIP3   OH222717   1.504   5.309   7.923 -0.7459  0.2231 -0.3343
  361TIP3    H122718   1.576   5.254   7.956 -1.5449  0.0127  1.0884
  361TIP3    H222719   1.495   5.281   7.831 -0.0072 -0.8162 -0.1212
  362TIP3   OH222720   6.608   2.866   2.028  0.9718 -0.2257 -0.4530
  362TIP3    H122721   6.547   2.793   2.033  0.4984  0.2252  0.7061
  362TIP3    H222722   6.583   2.924   2.100  2.2418  0.3800 -0.4572
  363TIP3   OH222723   3.838   0.369   1.194 -0.0752 -0.2737 -0.0031
  363TIP3    H122724   3.800   0.354   1.281  0.8544  1.7303  0.8091
  363TIP3    H222725   3.763   0.393   1.139 -0.6589 -1.4339  0.2583
  364TIP3   OH222726   6.341   2.147   0.992  0.2778  0.2080  0.1649
  364TIP3    H122727   6.362   2.146   0.899  0.1987 -0.8224  0.1529
  364TIP3    H222728   6.336   2.240   1.014  0.7330  0.4607 -0.7552
  365TIP3   OH222729   6.233   0.101   7.138  0.0804 -0.3987 -0.2763
  365TIP3    H122730   6.268   0.186   7.112  1.2962 -0.5975  0.6253
  365TIP3    H222731   6.307   0.040   7.130  0.4335 -0.5751  2.9735
  366TIP3   OH222732   2.136   6.593   1.905 -0.3632 -0.5606  0.0722
  366TIP3    H122733   2.184   6.651   1.846 -2.1473 -1.6739 -2.6607
  366TIP3    H222734   2.079   6.652   1.955  0.6443  0.3452  0.1975
  367TIP3   OH222735   1.844   5.799   7.473  0.0591  0.0306 -0.9868
  367TIP3    H122736   1.875   5.866   7.534  1.0154 -0.2654 -1.1263
  367TIP3    H222737   1.749   5.802   7.481  0.1575 -0.5246  1.1115
  368TIP3   OH222738   3.578   4.461   7.168  0.0314 -0.1040 -0.1361
  368TIP3    H122739   3.554   4.447   7.260  0.6408  0.9133  0.2008
  368TIP3    H222740   3.663   4.505   7.172  0.3486 -0.5908 -1.2102
  369TIP3   OH222741   1.908   1.959   8.038 -0.3163  0.3019  0.7011
  369TIP3    H122742   1.971   1.901   8.081  0.2913  0.1507 -0.3578
  369TIP3    H222743   1.914   2.041   8.087  0.3527  0.1333  0.9088
  370TIP3   OH222744   0.839   4.293   6.866  0.3070  0.3787  0.5104
  370TIP3    H122745   0.807   4.352   6.797 -3.0814  0.2309  1.7725
  370TIP3    H222746   0.834   4.206   6.827 -0.0422  0.4395  0.4138
  371TIP3   OH222747   0.251   2.370   1.831  0.2694 -0.0163 -0.1948
  371TIP3    H122748   0.304   2.450   1.823 -0.2842  0.2773 -1.1285
  371TIP3    H222749   0.313   2.299   1.816  1.0536  0.1348  1.9969
  372TIP3   OH222750   4.436   3.265   6.943  0.3095  0.1348 -0.0179
  372TIP3    H122751   4.431   3.181   6.898  0.5089 -0.3483  0.8506
  372TIP3    H222752   4.525   3.269   6.977  0.1035  0.4063  0.4974
  373TIP3   OH222753   2.132   4.400   0.944  0.4487  0.0525  0.0122
  373TIP3    H122754   2.221   4.374   0.921 -0.0017 -0.3734 -1.3403
  373TIP3    H222755   2.076   4.335   0.902 -0.4954 -0.3265  1.7568
  374TIP3   OH222756   2.419   1.089   7.745 -0.1294 -0.2162 -0.1600
  374TIP3    H122757   2.501   1.126   7.710  0.1080  0.3921  0.9734
  374TIP3    H222758   2.446   1.008   7.789 -0.1193 -0.0076  0.2275
  375TIP3   OH222759   1.215   1.305   2.519  0.4619  0.1835  0.4155
  375TIP3    H122760   1.122   1.294   2.500  0.4163  0.8464  0.2271
  375TIP3    H222761   1.242   1.220   2.553 -0.2197 -0.0080  0.5079
  376TIP3   OH222762   3.684   6.240   0.286  0.1358 -0.5800 -0.5675
  376TIP3    H122763   3.774   6.238   0.253  0.9730  0.4998  1.5194
  376TIP3    H222764   3.642   6.310   0.237  1.0242  0.2645 -0.1414
  377TIP3   OH222765   5.018   1.872   0.590  0.0481 -0.1276  0.3170
  377TIP3    H122766   5.055   1.872   0.679 -0.3899  0.5224  0.5052
  377TIP3    H222767   5.034   1.961   0.558 -1.3058  0.1571  0.3827
  378TIP3   OH222768   3.488   5.110   2.414 -0.2357  0.1207 -0.3334
  378TIP3    H122769   3.456   5.035   2.364 -0.5304 -0.1161  0.2004
  378TIP3    H222770   3.564   5.076   2.461 -1.0067 -0.1498  0.7480
  379TIP3   OH222771   2.857   6.508   1.052 -0.3146 -0.3810 -0.0813
  379TIP3    H122772   2.841   6.447   1.124 -2.2929  3.0749  2.8093
  379TIP3    H222773   2.815   6.469   0.976 -0.8550 -2.8620  1.3837
  380TIP3   OH222774   3.449   6.488   7.890  0.6812  0.6904 -0.7621
  380TIP3    H122775   3.355   6.492   7.870  1.0737  0.8278 -2.8422
  380TIP3    H222776   3.491   6.529   7.815  2.5315 -1.6004 -1.0920
  381TIP3   OH222777   6.854   5.095   7.473 -0.2059  0.2450 -0.2524
  381TIP3    H122778   6.767   5.104   7.434  0.2005 -2.2276 -1.9292
  381TIP3    H222779   6.909   5.155   7.421 -0.6651  0.9803  0.0899
  382TIP3   OH222780   3.768   2.162   7.389  0.6463  0.7560  0.6973
  382TIP3    H122781   3.751   2.187   7.479  1.0684  3.3889  0.1174
  382TIP3    H222782   3.692   2.111   7.363 -0.2679  1.3922  2.0340
  383TIP3   OH222783   4.084   2.390   0.533  0.0559 -0.0881  0.4130
  383TIP3    H122784   4.126   2.304   0.539 -0.6230 -0.7475 -2.6337
  383TIP3    H222785   4.155   2.453   0.548  0.8298 -1.1356  1.3148
  384TIP3   OH222786   3.293   3.460   8.350  0.2173  0.0495  0.1749
  384TIP3    H122787   3.305   3.390   8.285 -0.8463  0.6581 -0.7065
  384TIP3    H222788   3.228   3.425   8.410 -0.0335  0.1345 -0.0466
  385TIP3   OH222789   4.494   3.229   8.456 -0.3232  0.1094 -0.3702
  385TIP3    H122790   4.420   3.241   8.397 -0.6690  0.4508  0.1210
  385TIP3    H222791   4.457   3.191   8.535  0.0077  0.3720 -0.0818
  386TIP3   OH222792   5.982   3.951   8.479 -0.1446 -0.2003  0.3699
  386TIP3    H122793   5.997   4.022   8.541 -0.4165 -0.5940  0.8966
  386TIP3    H222794   5.886   3.946   8.471 -0.1137 -0.2351  0.0187
  387TIP3   OH222795   5.498   6.503   8.183 -0.4823  0.6815  0.0125
  387TIP3    H122796   5.566   6.564   8.214  0.5387  0.4085 -1.5650
  387TIP3    H222797   5.538   6.459   8.108 -1.4728 -1.4125  0.6352
  388TIP3   OH222798   3.564   5.379   0.219  0.3179  0.1269  0.2135
  388TIP3    H122799   3.592   5.468   0.243  0.8665  0.3658 -1.2063
  388TIP3    H222800   3.522   5.390   0.134 -1.8736 -0.6181  1.1183
  389TIP3   OH222801   1.924   6.396   1.466  0.1513  0.4023 -0.6785
  389TIP3    H122802   1.961   6.483   1.481  2.4665 -0.6155 -0.0898
  389TIP3    H222803   1.840   6.397   1.512  1.5423  1.3363  2.0411
  390TIP3   OH222804   2.678   1.631   1.491 -0.3032 -0.4253  0.1697
  390TIP3    H122805   2.620   1.568   1.534 -0.5204  0.5871  1.4061
  390TIP3    H222806   2.631   1.714   1.496  0.5007  0.0733 -0.3770
  391TIP3   OH222807   5.319   2.679   8.054  0.5420  0.4350  0.3550
  391TIP3    H122808   5.319   2.598   8.106 -0.1617  1.1440  1.5205
  391TIP3    H222809   5.407   2.684   8.017  1.2734  0.1564  1.9409
  392TIP3   OH222810   5.847   2.885   7.521 -0.6600  0.6015  0.2682
  392TIP3    H122811   5.812   2.917   7.438  0.3591 -2.8232 -1.6757
  392TIP3    H222812   5.787   2.814   7.546  1.2338 -1.1086  0.2059
  393TIP3   OH222813   2.216   5.745   1.474 -0.6407  0.2808  0.2902
  393TIP3    H122814   2.137   5.788   1.442 -0.2229 -0.3887 -1.8073
  393TIP3    H222815   2.195   5.719   1.564 -2.4705  0.8882  0.0769
  394TIP3   OH222816   6.714   6.521   1.438  0.2899  0.2972  0.2994
  394TIP3    H122817   6.767   6.567   1.373 -1.0637 -0.6909 -1.6081
  394TIP3    H222818   6.778   6.474   1.492  1.4443  1.0382 -0.3860
  395TIP3   OH222819   4.633   5.636   1.840  0.3266 -0.1641 -0.2435
  395TIP3    H122820   4.700   5.693   1.801  1.1470 -0.7293  0.2873
  395TIP3    H222821   4.683   5.563   1.877 -0.7243 -1.3501 -1.1085
  396TIP3   OH222822   0.926   1.250   1.608  0.0078  1.0890  0.6168
  396TIP3    H122823   1.004   1.279   1.655  0.6547 -0.1573  0.3590
  396TIP3    H222824   0.954   1.242   1.517 -0.5485  1.1058  0.4407
  397TIP3   OH222825   6.248   1.327   2.662  0.0333  0.5827  0.6079
  397TIP3    H122826   6.287   1.338   2.749  1.1885 -1.4132  0.4003
  397TIP3    H222827   6.210   1.239   2.663 -1.7257  1.2800 -0.2855
  398TIP3   OH222828   6.322   1.738   7.271 -0.0070  0.1162  0.4067
  398TIP3    H122829   6.340   1.661   7.218 -0.8035 -1.0224  1.7185
  398TIP3    H222830   6.354   1.812   7.219  1.2351 -1.1275 -0.6662
  399TIP3   OH222831   0.225   3.152   1.715  0.4585 -0.0730  0.5307
  399TIP3    H122832   0.258   3.182   1.800  0.0536  0.8869  0.3596
  399TIP3    H222833   0.135   3.185   1.711 -1.3364 -4.1719  1.7982
  400TIP3   OH222834   0.881   6.644   1.245  0.0043 -0.8358  0.0706
  400TIP3    H122835   0.789   6.672   1.244 -0.4609 -2.1520 -1.7478
  400TIP3    H222836   0.922   6.695   1.314 -1.2832  2.4016 -1.3457
  401TIP3   OH222837   4.875   4.252   1.677 -0.7846 -0.0317  0.8178
  401TIP3    H122838   4.824   4.316   1.727 -0.6315  3.6275 -3.1282
  401TIP3    H222839   4.966   4.275   1.693 -0.6331 -0.8430  1.1661
  402TIP3   OH222840   0.067   3.123   1.461 -0.0212 -0.2099 -0.5829
  402TIP3    H122841   0.050   3.148   1.552  0.8205  1.2120 -0.7746
  402TIP3    H222842   0.033   3.034   1.453 -1.7882  0.3085  0.6221
  403TIP3   OH222843   5.167   4.226   7.132 -0.1659  0.9825 -0.8992
  403TIP3    H122844   5.079   4.262   7.124 -0.4408  0.3244 -0.9011
  403TIP3    H222845   5.174   4.165   7.058 -0.2014  0.0369 -0.1407
  404TIP3   OH222846   6.019   4.611   7.676 -0.0942  0.2306 -0.2322
  404TIP3    H122847   5.933   4.571   7.688 -0.5790  1.3862  0.2493
  404TIP3    H222848   6.078   4.557   7.727 -0.7751  0.2516  0.5890
  405TIP3   OH222849   1.575   4.984   6.430 -0.0695 -0.5626  0.2405
  405TIP3    H122850   1.493   5.012   6.472  0.5780 -1.8794  2.5900
  405TIP3    H222851   1.553   4.901   6.388 -0.3057 -0.0895 -0.5964
  406TIP3   OH222852   4.101   4.656   8.453  0.0445  0.3961  0.2084
  406TIP3    H122853   4.066   4.679   8.367 -0.0094  0.0002  0.1226
  406TIP3    H222854   4.141   4.736   8.485 -0.9031  0.8461  0.2885
  407TIP3   OH222855   4.871   0.325   7.695 -0.2699 -0.2751 -0.0313
  407TIP3    H122856   4.894   0.260   7.629  0.7852 -1.0858  1.1060
  407TIP3    H222857   4.953   0.346   7.739 -0.6634  1.5106 -0.0564
  408TIP3   OH222858   5.678   3.279   1.146  0.2478 -0.1593 -0.1766
  408TIP3    H122859   5.585   3.276   1.169 -0.4745 -0.2260 -2.7790
  408TIP3    H222860   5.696   3.371   1.127  1.6046  0.4218  3.1495
  409TIP3   OH222861   5.676   3.010   0.035 -0.0770 -0.1347 -0.0207
  409TIP3    H122862   5.645   3.095   0.003  0.8433  0.6984  1.2100
  409TIP3    H222863   5.741   2.983  -0.029  1.0054  1.0232  0.5554
  410TIP3   OH222864   3.217   2.421   8.022  0.0758  0.4595  0.0421
  410TIP3    H122865   3.141   2.405   7.967  0.1988 -1.4112  0.3608
  410TIP3    H222866   3.202   2.508   8.059 -1.7247  0.2709 -0.1810
  411TIP3   OH222867   5.627   2.210   0.156  0.4083 -0.2602 -0.1056
  411TIP3    H122868   5.577   2.271   0.211  0.2726 -0.6083  0.1602
  411TIP3    H222869   5.677   2.158   0.218  2.0706  0.9106 -0.4161
  412TIP3   OH222870   6.457   6.903   7.082 -0.3980 -0.1659  0.3464
  412TIP3    H122871   6.534   6.914   7.026  0.0555 -0.6209  0.8643
  412TIP3    H222872   6.493   6.870   7.165 -0.9898  1.0822  1.1159
  413TIP3   OH222873   1.694   0.215   0.766  0.1952  0.0546  0.1533
  413TIP3    H122874   1.632   0.194   0.697  1.9917  0.2969 -1.6145
  413TIP3    H222875   1.765   0.153   0.755  1.2619  1.1225  0.7325
  414TIP3   OH222876   4.586   1.431   2.304  0.2330 -0.1312 -0.1628
  414TIP3    H122877   4.507   1.477   2.333  0.0847 -0.1285 -0.5751
  414TIP3    H222878   4.648   1.444   2.376 -0.0351  0.1310  0.0249
  415TIP3   OH222879   1.711   1.712   8.452 -0.2952  0.1439 -0.1089
  415TIP3    H122880   1.687   1.737   8.363 -1.6659  0.4041  0.3079
  415TIP3    H222881   1.740   1.794   8.493 -1.9402  0.5414  0.3613
  416TIP3   OH222882   2.708   1.787   7.966  0.1755 -0.1214  0.4057
  416TIP3    H122883   2.632   1.730   7.973  0.7214 -0.7047  2.1692
  416TIP3    H222884   2.783   1.727   7.968  0.7345  0.4243 -1.4238
  417TIP3   OH222885   6.701   6.867   0.356  0.3607 -0.3927 -0.5832
  417TIP3    H122886   6.751   6.788   0.338  1.8770  0.4478 -0.2869
  417TIP3    H222887   6.766   6.938   0.351 -0.6558  0.6702  0.5164
  418TIP3   OH222888   0.280   3.904   1.982 -0.4437 -0.3203 -0.1735
  418TIP3    H122889   0.213   3.886   1.916 -0.3562  3.1865 -1.4337
  418TIP3    H222890   0.273   3.998   1.999  1.5506 -0.5356  2.6535
  419TIP3   OH222891   1.788   6.842   6.225  0.9287 -0.4317 -0.2115
  419TIP3    H122892   1.737   6.863   6.304 -0.5056 -1.5296 -0.7863
  419TIP3    H222893   1.834   6.761   6.247  2.0681  0.2776  0.1214
  420TIP3   OH222894   6.145   1.043   8.315 -0.3864 -0.1073 -0.1713
  420TIP3    H122895   6.092   1.109   8.270 -0.4764  0.0070  0.1045
  420TIP3    H222896   6.201   1.093   8.374 -1.1085 -0.3333  0.7284
  421TIP3   OH222897   4.569   5.140   7.203 -0.1444 -0.0624 -0.5534
  421TIP3    H122898   4.645   5.117   7.149  1.2442 -0.7042  1.5701
  421TIP3    H222899   4.494   5.112   7.151  1.1610 -1.5026 -1.7644
  422TIP3   OH222900   0.673   2.453   2.555 -0.4553 -0.0128  0.3956
  422TIP3    H122901   0.668   2.549   2.557  1.0143  0.1268 -1.0399
  422TIP3    H222902   0.749   2.431   2.609 -0.5686 -0.3646  0.4170
  423TIP3   OH222903   2.903   2.846   0.811 -0.0312  0.0517  0.5300
  423TIP3    H122904   2.904   2.782   0.883 -0.0880 -1.8931 -1.1167
  423TIP3    H222905   2.816   2.839   0.773 -0.0150  1.0902  0.2645
  424TIP3   OH222906   3.685   6.252   7.888  0.2326 -0.2231 -0.5710
  424TIP3    H122907   3.710   6.192   7.959 -0.8207 -0.4835 -0.4031
  424TIP3    H222908   3.614   6.304   7.925 -0.2933 -0.3206 -1.4127
  425TIP3   OH222909   2.919   4.525   7.045 -0.9300  0.3015 -0.5133
  425TIP3    H122910   2.849   4.569   7.094 -0.6445  1.2288 -0.9211
  425TIP3    H222911   2.987   4.508   7.111 -1.4355 -0.4012 -0.1614
  426TIP3   OH222912   4.917   5.162   6.752 -0.1107 -0.0426 -0.6357
  426TIP3    H122913   4.878   5.093   6.805  0.0202 -0.4528 -1.0673
  426TIP3    H222914   5.012   5.152   6.765 -0.0233 -0.7672 -1.6915
  427TIP3   OH222915   0.372   2.597   1.521 -0.0715  0.4873  0.5426
  427TIP3    H122916   0.313   2.671   1.503  0.3808  0.3540 -1.6740
  427TIP3    H222917   0.402   2.613   1.611 -1.4590  1.9484  0.8048
  428TIP3   OH222918   1.434   5.834   7.085 -0.1174 -0.0141  0.0835
  428TIP3    H122919   1.503   5.832   7.020 -0.2585  3.9285 -0.3967
  428TIP3    H222920   1.479   5.847   7.168 -0.1751  1.4923 -0.0992
  429TIP3   OH222921   3.460   3.404   6.714 -0.5164 -0.3460 -0.2489
  429TIP3    H122922   3.393   3.413   6.646 -2.3968  1.6532  1.6993
  429TIP3    H222923   3.514   3.482   6.704 -1.6805  0.7192  1.3466
  430TIP3   OH222924   6.254   1.345   6.447 -1.3074  0.4734  0.1438
  430TIP3    H122925   6.277   1.404   6.375 -1.4416 -0.6043 -0.8214
  430TIP3    H222926   6.161   1.326   6.433 -1.2564  0.0105  0.4107
  431TIP3   OH222927   6.092   2.809   7.964  0.1330 -0.1341  0.1840
  431TIP3    H122928   6.069   2.885   8.018 -0.8428  0.8660 -1.5579
  431TIP3    H222929   6.070   2.734   8.019  0.7636  0.8132  1.8078
  432TIP3   OH222930   6.537   4.371   7.407  0.2037  0.3280 -0.2238
  432TIP3    H122931   6.512   4.450   7.454 -1.0275 -0.0577 -0.1938
  432TIP3    H222932   6.529   4.394   7.315 -2.6227 -0.4219 -0.2629
  433TIP3   OH222933   0.925   2.942   2.300  0.9821 -0.4240 -0.3658
  433TIP3    H122934   0.950   2.986   2.381 -0.9757  0.0681  0.0172
  433TIP3    H222935   0.892   2.857   2.328 -1.9418  0.6120 -0.2855
  434TIP3   OH222936   0.181   6.935   8.166 -0.2904 -0.0583 -0.3502
  434TIP3    H122937   0.149   6.940   8.076 -3.7004  0.9880  0.7779
  434TIP3    H222938   0.199   6.842   8.180 -1.0200 -0.4287 -1.6898
  435TIP3   OH222939   0.237   2.304   7.114  0.4901 -0.0067 -0.3264
  435TIP3    H122940   0.235   2.348   7.029  0.5491 -0.6365 -0.6650
  435TIP3    H222941   0.165   2.343   7.163  0.7493  0.7018 -0.4881
  436TIP3   OH222942   4.344   5.866   8.061  0.2311  0.3984  0.4794
  436TIP3    H122943   4.361   5.772   8.069 -0.4905  0.2902  0.9169
  436TIP3    H222944   4.424   5.908   8.092 -0.4365 -0.0770  3.0883
  437TIP3   OH222945   6.340   5.057   7.774  0.0276  0.1706 -0.3528
  437TIP3    H122946   6.402   5.006   7.722 -0.3648 -1.9745  1.1656
  437TIP3    H222947   6.389   5.085   7.851 -0.3765  0.0912 -0.0641
  438TIP3   OH222948   2.722   6.723   0.234  0.0203  0.2240  0.7932
  438TIP3    H122949   2.781   6.743   0.306  0.0267  1.3823  0.4927
  438TIP3    H222950   2.765   6.760   0.157 -0.8094  0.5695  0.4791
  439TIP3   OH222951   5.234   2.923   8.125  0.3018 -0.1152  0.6872
  439TIP3    H122952   5.229   2.828   8.126  0.7110 -0.1890 -1.0581
  439TIP3    H222953   5.292   2.944   8.052  2.5459  1.4363  2.7467
  440TIP3   OH222954   6.160   0.052   1.478  0.3248  0.0834 -0.2194
  440TIP3    H122955   6.206  -0.031   1.473 -0.0980 -0.1202 -0.8761
  440TIP3    H222956   6.079   0.032   1.524  0.3448  0.1893 -0.1372
  441TIP3   OH222957   5.088   1.163   0.735 -0.5150  0.2542  0.3871
  441TIP3    H122958   5.032   1.108   0.679 -0.3724 -0.7564  1.2082
  441TIP3    H222959   5.028   1.228   0.772 -0.8324  0.1993 -0.0221
  442TIP3   OH222960   4.217   3.832   0.822 -0.2737 -0.0989  0.2596
  442TIP3    H122961   4.239   3.779   0.746  0.2742 -1.2384  1.1944
  442TIP3    H222962   4.250   3.783   0.897 -0.9647  0.9045  1.2613
  443TIP3   OH222963   0.455   5.671   8.551  0.2892 -0.3652  0.5118
  443TIP3    H122964   0.530   5.730   8.539 -0.3190  0.2969 -0.0860
  443TIP3    H222965   0.475   5.625   8.633  1.9911 -1.1964 -0.3002
  444TIP3   OH222966   0.745   1.946   7.033  0.7468 -0.1164  0.0630
  444TIP3    H122967   0.704   1.880   6.978 -1.7788  1.7430 -0.4655
  444TIP3    H222968   0.784   2.008   6.972  1.9024 -0.3826  0.5119
  445TIP3   OH222969   5.568   4.191   1.878 -0.4106 -0.0994  0.0242
  445TIP3    H122970   5.603   4.224   1.960  1.0769  0.4976 -0.8172
  445TIP3    H222971   5.494   4.136   1.904 -1.2544  1.6620  1.6498
  446TIP3   OH222972   4.333   3.010   6.504  0.0861 -0.1511 -0.5231
  446TIP3    H122973   4.375   2.985   6.422 -0.0110 -0.1708 -0.5669
  446TIP3    H222974   4.359   2.942   6.567  1.4140  0.6805 -0.1425
  447TIP3   OH222975   6.662   4.227   1.075  0.0178  0.8171 -0.0501
  447TIP3    H122976   6.741   4.186   1.038 -1.2780  0.4438 -2.6023
  447TIP3    H222977   6.600   4.155   1.083 -0.3083  1.2327  1.3079
  448TIP3   OH222978   4.089   6.724   1.947  0.8564  0.5355 -0.2329
  448TIP3    H122979   4.156   6.787   1.969  1.2526  0.3187 -0.7792
  448TIP3    H222980   4.136   6.654   1.902  0.2439  0.4617 -0.7738
  449TIP3   OH222981   6.617   5.212   7.844  0.2238  0.3084  0.0946
  449TIP3    H122982   6.699   5.163   7.835  0.6435  1.0996 -0.5420
  449TIP3    H222983   6.645   5.301   7.863 -0.4626  0.8219 -1.2153
  450TIP3   OH222984   5.156   5.545   0.965  0.2006  0.3747  0.1787
  450TIP3    H122985   5.088   5.559   0.899  0.1571  1.7779  0.4966
  450TIP3    H222986   5.153   5.451   0.982 -1.1226  0.2876 -0.3839
  451TIP3   OH222987   4.898   3.487   7.629 -0.2404  0.4279 -0.3284
  451TIP3    H122988   4.877   3.563   7.684 -0.2860  0.8251 -0.8813
  451TIP3    H222989   4.959   3.435   7.681  1.4417  1.8976 -0.7502
  452TIP3   OH222990   0.526   6.249   1.949 -0.1989  0.0221  0.1621
  452TIP3    H122991   0.431   6.236   1.941 -0.3661  1.6533 -0.9130
  452TIP3    H222992   0.551   6.295   1.869  1.2097  1.1898  1.2200
  453TIP3   OH222993   6.075   0.874   7.030 -0.4324 -0.1103 -0.6619
  453TIP3    H122994   6.145   0.917   6.982 -1.4130  1.2928 -0.9100
  453TIP3    H222995   6.081   0.782   7.005  3.1811 -0.7040  1.6376
  454TIP3   OH222996   2.840   3.230   1.156 -0.4460  0.5071 -0.1203
  454TIP3    H122997   2.840   3.192   1.068 -1.1185 -0.4432  0.2759
  454TIP3    H222998   2.799   3.316   1.145  0.4579  0.8583 -0.9096
  455TIP3   OH222999   3.373   6.641   7.438 -0.4069 -0.1559 -0.4935
  455TIP3    H123000   3.438   6.677   7.378 -1.2755  0.7633 -0.9254
  455TIP3    H223001   3.408   6.556   7.464  0.4495 -0.1504 -1.5481
  456TIP3   OH223002   4.255   6.339   0.648  0.0137 -0.0300  0.0413
  456TIP3    H123003   4.299   6.297   0.574 -0.1785  1.9687 -1.2907
  456TIP3    H223004   4.326   6.367   0.706  0.2717 -0.1335 -0.2231
  457TIP3   OH223005   0.645   4.910   1.574  0.3437  0.3232 -0.2618
  457TIP3    H123006   0.607   4.991   1.606 -0.3777  0.6551 -1.8561
  457TIP3    H223007   0.605   4.841   1.628  1.0872  1.0045  1.2127
  458TIP3   OH223008   6.472   5.049   1.319  0.2528  0.2260 -0.0571
  458TIP3    H123009   6.523   5.021   1.395  1.2491  1.5315 -0.2188
  458TIP3    H223010   6.389   5.080   1.355 -0.2786 -1.4302  0.2520
  459TIP3   OH223011   6.283   5.378   1.463  0.0729  0.2887  0.1498
  459TIP3    H123012   6.251   5.461   1.496  1.9853  0.9894  0.3636
  459TIP3    H223013   6.298   5.393   1.369 -0.2791 -0.0641  0.0298
  460TIP3   OH223014   4.394   4.679   8.022  0.5216  0.2659  0.4529
  460TIP3    H123015   4.315   4.645   7.979 -0.1901  1.3003  0.8932
  460TIP3    H223016   4.433   4.602   8.064 -1.8165  0.1487  2.6566
  461TIP3   OH223017   5.737   0.927   0.810 -0.4837  1.1298 -0.2312
  461TIP3    H123018   5.690   1.002   0.847 -1.9490  0.2775 -0.2873
  461TIP3    H223019   5.822   0.963   0.785 -0.9028  2.6255  0.3340
  462TIP3   OH223020   4.801   0.946   2.177  0.4119  0.2844  0.1661
  462TIP3    H123021   4.786   0.858   2.209  0.5594 -0.3045 -1.3025
  462TIP3    H223022   4.713   0.983   2.167  0.3724  0.6911  1.7079
  463TIP3   OH223023   4.749   6.423   8.409  0.9588 -0.2083  0.3386
  463TIP3    H123024   4.817   6.436   8.343 -1.2610 -2.1052 -2.6071
  463TIP3    H223025   4.746   6.329   8.422 -1.4733 -0.2702 -0.1811
  464TIP3   OH223026   4.812   1.416   6.640 -0.0938 -0.8043 -0.4809
  464TIP3    H123027   4.779   1.327   6.629 -2.9151 -0.1619  1.6566
  464TIP3    H223028   4.869   1.411   6.716  1.4410 -1.0795 -1.5880
  465TIP3   OH223029   1.337   1.771   0.163  0.0663 -0.6613 -0.0227
  465TIP3    H123030   1.268   1.786   0.227  0.0632  1.8853 -0.5467
  465TIP3    H223031   1.376   1.687   0.190 -0.3750 -0.0445  2.8961
  466TIP3   OH223032   6.711   6.343   1.891 -0.2840  0.2319 -0.0819
  466TIP3    H123033   6.684   6.369   1.979  1.2199 -0.1879  0.5449
  466TIP3    H223034   6.785   6.401   1.871  0.6237 -0.9321 -0.2471
  467TIP3   OH223035   2.391   1.920   0.892 -0.2702  0.4859  0.2707
  467TIP3    H123036   2.358   1.885   0.974 -1.2382  0.0887 -0.2620
  467TIP3    H223037   2.486   1.920   0.902 -0.3794  0.6601  1.4631
  468TIP3   OH223038   6.228   2.597   7.570  0.1780  0.0145 -0.7226
  468TIP3    H123039   6.238   2.539   7.645 -0.8453  0.4444 -0.2273
  468TIP3    H223040   6.307   2.651   7.570  0.5086 -0.4656 -0.3801
  469TIP3   OH223041   4.131   4.035   1.516 -0.0824  0.1196  0.3475
  469TIP3    H123042   4.080   4.020   1.596 -0.3531  0.4310  0.2369
  469TIP3    H223043   4.173   4.120   1.530  0.6764 -0.2793  0.5725
  470TIP3   OH223044   3.491   4.513   1.346 -0.4801  0.3946  0.2121
  470TIP3    H123045   3.564   4.458   1.371 -0.2399  1.1671  1.2662
  470TIP3    H223046   3.530   4.599   1.330 -1.1386  0.7878  0.6840
  471TIP3   OH223047   0.169   0.876   1.528  0.1043  0.2156  0.0034
  471TIP3    H123048   0.207   0.964   1.529 -1.7649  1.1055  1.9736
  471TIP3    H223049   0.218   0.828   1.595 -0.0610  0.3435  0.2191
  472TIP3   OH223050   2.752   4.885   0.362 -0.2345 -0.1165 -0.2695
  472TIP3    H123051   2.746   4.884   0.457 -0.0476 -1.0825 -0.2556
  472TIP3    H223052   2.816   4.953   0.342  0.7679 -0.8443  0.3736
  473TIP3   OH223053   5.590   0.590   7.315  0.6449 -0.1088 -0.1369
  473TIP3    H123054   5.523   0.567   7.251  0.1342  0.1958  0.2734
  473TIP3    H223055   5.623   0.675   7.287  0.9325 -0.3071 -0.3977
  474TIP3   OH223056   3.405   6.375   7.554 -0.2513  0.7244  0.3332
  474TIP3    H123057   3.374   6.331   7.633  0.1388  0.1697  0.1791
  474TIP3    H223058   3.499   6.360   7.553 -0.4171 -0.3559 -0.8929
  475TIP3   OH223059   0.189   2.068   1.582 -0.1675 -0.0451 -0.3626
  475TIP3    H123060   0.204   2.157   1.549  1.4490 -0.1142  0.0863
  475TIP3    H223061   0.274   2.041   1.616 -0.6634 -1.7324 -0.3809
  476TIP3   OH223062   0.750   3.009   0.381 -0.0517 -0.3746 -0.2861
  476TIP3    H123063   0.699   3.058   0.445  1.5900  0.7838  0.2069
  476TIP3    H223064   0.689   2.992   0.309 -1.4665 -0.2425  0.8404
  477TIP3   OH223065   5.597   5.652   0.612 -0.1988  0.2634 -0.0974
  477TIP3    H123066   5.583   5.670   0.705 -1.9010 -2.3127  0.2469
  477TIP3    H223067   5.528   5.701   0.567 -1.3269 -0.9374  0.3014
  478TIP3   OH223068   3.060   3.825   2.119 -0.3399  0.0163 -0.0812
  478TIP3    H123069   3.037   3.871   2.200  0.4411  0.2349  0.0196
  478TIP3    H223070   3.155   3.818   2.121 -0.1703  1.2932 -1.6724
  479TIP3   OH223071   2.292   0.640   7.700  0.1546 -0.0430  0.0971
  479TIP3    H123072   2.257   0.730   7.701 -0.4041 -0.1941  2.7011
  479TIP3    H223073   2.387   0.651   7.709  0.1419  0.2994 -0.1773
  480TIP3   OH223074   0.581   5.796   0.617 -0.0522  0.1762  0.2053
  480TIP3    H123075   0.502   5.752   0.650  0.5392 -0.0891  1.2931
  480TIP3    H223076   0.566   5.889   0.637  0.0200  0.0940  0.6587
  481TIP3   OH223077   6.397   0.343   0.299 -0.0372  0.3926  0.3038
  481TIP3    H123078   6.466   0.360   0.235 -0.4540 -0.1064 -0.2878
  481TIP3    H223079   6.414   0.406   0.369  1.0784  0.2168  0.2177
  482TIP3   OH223080   1.347   0.711   8.176  0.1179 -0.3608 -0.4443
  482TIP3    H123081   1.404   0.743   8.106 -1.0447  2.9352 -0.0881
  482TIP3    H223082   1.364   0.770   8.250 -1.3471 -1.3847  0.7910
  483TIP3   OH223083   2.246   1.614   0.858  0.4674 -0.0839  0.2262
  483TIP3    H123084   2.310   1.683   0.840  1.3067 -0.9239 -0.0632
  483TIP3    H223085   2.161   1.658   0.848  0.9112  0.3361 -2.5302
  484TIP3   OH223086   2.581   2.499   2.325  0.2189 -0.5052 -0.6153
  484TIP3    H123087   2.673   2.520   2.337 -0.0095  0.3299 -0.2710
  484TIP3    H223088   2.578   2.452   2.241  0.6954  1.3267 -1.7254
  485TIP3   OH223089   1.658   3.443   7.081 -0.5395 -0.0460 -0.1743
  485TIP3    H123090   1.604   3.521   7.093 -0.3725  0.0643 -0.1365
  485TIP3    H223091   1.698   3.455   6.995  0.5084  0.5456  0.3664
  486TIP3   OH223092   3.255   0.363   7.579  0.2374 -0.5004  0.1389
  486TIP3    H123093   3.323   0.430   7.582  0.2869 -0.0596 -4.2022
  486TIP3    H223094   3.302   0.280   7.588  0.5593 -0.1238  2.4663
  487TIP3   OH223095   2.171   1.284   2.179  0.2752  0.3114  0.6844
  487TIP3    H123096   2.126   1.247   2.103 -1.5688  0.8483  1.4770
  487TIP3    H223097   2.108   1.345   2.217  1.6780  1.0726  1.8677
  488TIP3   OH223098   1.855   2.592   7.345  0.3764  0.7921  0.2141
  488TIP3    H123099   1.895   2.629   7.423  0.3111  0.1929  0.5432
  488TIP3    H223100   1.820   2.507   7.374 -1.2342  1.3408 -0.0268
  489TIP3   OH223101   2.511   1.471   1.626  0.7201  0.2329  0.1219
  489TIP3    H123102   2.575   1.401   1.632 -0.5931 -1.0139  0.1157
  489TIP3    H223103   2.442   1.446   1.687 -1.4270 -0.3131 -2.3591
  490TIP3   OH223104   2.285   6.644   0.704 -0.0957 -0.0024  0.0544
  490TIP3    H123105   2.218   6.577   0.718 -1.3604  1.3248  0.6454
  490TIP3    H223106   2.366   6.595   0.694 -0.3543 -1.5475  3.9000
  491TIP3   OH223107   1.915   3.373   8.357  0.1116  0.3689  0.3684
  491TIP3    H123108   1.929   3.354   8.265 -1.7276 -2.8666  0.6322
  491TIP3    H223109   2.002   3.395   8.390  0.8790  1.1790 -1.9959
  492TIP3   OH223110   1.212   2.257   1.177 -0.0812  0.0021  0.3034
  492TIP3    H123111   1.261   2.308   1.242  1.1078 -0.4628 -0.1908
  492TIP3    H223112   1.123   2.252   1.212  0.6691 -0.7795  2.2316
  493TIP3   OH223113   2.653   0.864   0.999 -0.3002  0.1259 -0.5583
  493TIP3    H123114   2.572   0.818   0.980 -0.0448  0.5205 -2.9471
  493TIP3    H223115   2.718   0.795   1.010 -0.6839 -0.1525  0.0042
  494TIP3   OH223116   2.057   5.450   0.501 -0.1880 -0.0526  0.3394
  494TIP3    H123117   1.968   5.468   0.532 -1.0943 -0.8844 -1.6138
  494TIP3    H223118   2.114   5.492   0.565 -1.9826  5.4507 -1.1554
  495TIP3   OH223119   2.144   5.065   7.234 -0.0870 -0.2528 -0.4732
  495TIP3    H123120   2.069   5.079   7.176  0.3927  2.3536 -0.5930
  495TIP3    H223121   2.219   5.065   7.175  0.1390 -1.0736 -0.1833
  496TIP3   OH223122   5.064   4.728   2.925 -0.0930 -0.2592  0.7569
  496TIP3    H123123   5.032   4.750   2.838 -0.0702  1.4753  1.1599
  496TIP3    H223124   4.986   4.703   2.974 -0.3629  0.5535  0.7488
  497TIP3   OH223125   4.503   2.787   0.183  0.0370 -0.3072 -0.0609
  497TIP3    H123126   4.520   2.736   0.104  2.2643 -0.2349  0.3109
  497TIP3    H223127   4.563   2.862   0.176 -0.7834  0.4729  1.0029
  498TIP3   OH223128   2.991   1.739   1.508 -0.6666  0.2952  0.2722
  498TIP3    H123129   3.073   1.751   1.459  1.4377 -1.1212  3.0986
  498TIP3    H223130   2.969   1.826   1.540  0.4489  0.5199  0.4754
  499TIP3   OH223131   3.580   1.941   2.470 -0.1091  0.2608 -0.6637
  499TIP3    H123132   3.520   1.974   2.404 -1.1889  0.5027  0.3943
  499TIP3    H223133   3.633   2.016   2.496  0.2742  0.1782 -1.1926
  500TIP3   OH223134   2.045   2.811   0.610 -0.2442  0.0718  0.0153
  500TIP3    H123135   2.101   2.741   0.577  1.6145  1.3059  0.3162
  500TIP3    H223136   2.080   2.830   0.697 -2.2292 -0.1813  0.9159
  501TIP3   OH223137   2.600   0.152   2.506  1.3871  0.2558 -0.4294
  501TIP3    H123138   2.662   0.107   2.564 -0.0350 -0.1922  0.7892
  501TIP3    H223139   2.538   0.085   2.480  0.8493  0.9099 -0.8542
  502TIP3   OH223140   4.606   2.249   7.028  0.1263 -0.2217  0.0609
  502TIP3    H123141   4.680   2.191   7.040  0.5535 -0.2085 -2.2218
  502TIP3    H223142   4.533   2.192   7.004  0.3418  0.0638 -1.3615
  503TIP3   OH223143   2.549   5.643   1.518  0.0459  0.5368  0.0628
  503TIP3    H123144   2.482   5.702   1.484  0.1470  0.5698 -0.0797
  503TIP3    H223145   2.544   5.653   1.613  1.6910  2.5866 -0.0015
  504TIP3   OH223146   0.930   3.684   0.149  0.4056 -0.3128 -0.2725
  504TIP3    H123147   0.958   3.593   0.138  0.9337 -0.4554  1.8259
  504TIP3    H223148   0.989   3.720   0.215 -0.4836  1.2488 -0.2693
  505TIP3   OH223149   6.607   4.782   2.101  0.0848 -0.4903  0.0771
  505TIP3    H123150   6.551   4.739   2.166  1.2857 -0.9910  0.8306
  505TIP3    H223151   6.692   4.789   2.144  0.1354  2.0166 -0.3141
  506TIP3   OH223152   4.986   4.939   1.828 -0.4325  0.7395  0.6150
  506TIP3    H123153   4.916   4.983   1.875 -1.3237 -0.4211  0.4189
  506TIP3    H223154   4.991   4.853   1.868 -0.0137  0.3516 -0.2417
  507TIP3   OH223155   2.236   2.757   7.522  0.5600 -0.0090  0.4616
  507TIP3    H123156   2.223   2.745   7.428 -1.1404 -2.0783  0.8930
  507TIP3    H223157   2.216   2.672   7.561  1.0762  0.8239  2.7248
  508TIP3   OH223158   3.111   5.949   7.652 -0.3696 -0.1602 -0.5822
  508TIP3    H123159   3.073   5.920   7.569 -0.3631  2.5833 -1.6373
  508TIP3    H223160   3.172   6.019   7.628 -0.4220  0.7764  1.7202
  509TIP3   OH223161   2.163   2.216   7.936  0.4448  0.0950  0.4088
  509TIP3    H123162   2.095   2.276   7.904  0.5672 -0.1625 -0.3499
  509TIP3    H223163   2.220   2.202   7.860 -0.0548 -1.6571  0.3199
  510TIP3   OH223164   4.961   1.644   1.912 -0.2171 -0.3654  0.2871
  510TIP3    H123165   4.984   1.735   1.897  0.7998 -0.5476  0.6819
  510TIP3    H223166   4.879   1.632   1.864 -1.0490  1.0801  1.2938
  511TIP3   OH223167   3.971   3.964   7.475  0.1148 -0.6031 -0.4168
  511TIP3    H123168   4.036   3.937   7.540 -0.4590 -1.2317 -0.0970
  511TIP3    H223169   3.891   3.979   7.526  0.0651  0.3948 -0.7739
  512TIP3   OH223170   3.420   3.866   7.446 -0.0139  0.0340  0.3373
  512TIP3    H123171   3.428   3.851   7.540 -0.4794 -0.0028  0.3706
  512TIP3    H223172   3.378   3.787   7.412  0.9124 -0.3208 -0.0324
  513TIP3   OH223173   3.441   5.386   0.483  0.2292 -0.5403 -0.0621
  513TIP3    H123174   3.407   5.474   0.468  0.6749 -0.2306  0.6888
  513TIP3    H223175   3.467   5.354   0.396  1.0024  0.4657 -0.2168
  514TIP3   OH223176   6.844   6.058   8.327  0.3458 -0.3594 -0.4948
  514TIP3    H123177   6.904   5.989   8.354  0.0001 -0.8533 -0.9751
  514TIP3    H223178   6.893   6.106   8.260  0.4351 -0.3797 -0.4445
  515TIP3   OH223179   5.607   0.427   6.330 -0.0463  0.1437  0.0222
  515TIP3    H123180   5.632   0.513   6.297 -0.1238  0.2439  0.2233
  515TIP3    H223181   5.517   0.439   6.362 -0.6123 -0.3680 -1.2894
  516TIP3   OH223182   1.279   5.191   0.951 -0.1258 -0.3645 -0.0664
  516TIP3    H123183   1.371   5.205   0.971 -0.1214  0.1719 -0.4483
  516TIP3    H223184   1.235   5.195   1.037  0.3572 -2.0055  0.2903
  517TIP3   OH223185   2.723   2.044   2.038 -0.3288 -0.0145  0.1007
  517TIP3    H123186   2.759   1.957   2.060  0.2840  0.7302  2.3788
  517TIP3    H223187   2.646   2.052   2.094  0.3654  1.3760  0.9299
  518TIP3   OH223188   3.829   6.552   1.042  0.0498  0.0201 -0.4735
  518TIP3    H123189   3.850   6.461   1.062 -1.0799  0.2172  1.9159
  518TIP3    H223190   3.897   6.603   1.087 -1.0269  0.4265  0.7190
  519TIP3   OH223191   0.280   2.839   1.410 -0.3321 -0.5462  0.4452
  519TIP3    H123192   0.268   2.933   1.395  1.0984 -0.7484 -2.4319
  519TIP3    H223193   0.266   2.799   1.325  1.0673 -2.7475  1.1747
  520TIP3   OH223194   4.328   0.826   1.048  0.0730  0.1539  0.5770
  520TIP3    H123195   4.321   0.731   1.050  1.0249 -0.0334 -1.8531
  520TIP3    H223196   4.244   0.856   1.013  0.1098  0.1521  0.4882
  521TIP3   OH223197   1.713   1.371   6.742 -0.5316 -0.2178  0.4112
  521TIP3    H123198   1.651   1.437   6.712 -2.5790 -0.9726  2.6271
  521TIP3    H223199   1.761   1.414   6.813  1.7554  0.4205 -1.3973
  522TIP3   OH223200   6.265   0.710   7.885 -0.0999 -0.3787  0.2438
  522TIP3    H123201   6.267   0.738   7.976 -2.3240 -1.1975  0.6096
  522TIP3    H223202   6.313   0.627   7.884 -0.3845 -0.5521  0.7474
  523TIP3   OH223203   6.907   4.617   2.230 -0.3674  0.2427 -0.0733
  523TIP3    H123204   6.929   4.575   2.314 -1.8280 -0.0487  0.1881
  523TIP3    H223205   6.859   4.696   2.255 -0.3877  0.4081 -0.6294
  524TIP3   OH223206   6.464   0.487   0.497  0.3098 -0.0861  0.1816
  524TIP3    H123207   6.478   0.581   0.511 -1.2122  0.6944 -2.6252
  524TIP3    H223208   6.416   0.458   0.574  1.5683  1.2072  1.5181
  525TIP3   OH223209   6.786   1.784   1.107 -0.0555  0.1311 -0.9157
  525TIP3    H123210   6.698   1.812   1.081 -0.2714  0.6377  0.2928
  525TIP3    H223211   6.840   1.803   1.030 -1.2968 -1.9332 -2.3856
  526TIP3   OH223212   3.397   1.334   7.517  0.0372  0.6297  0.1921
  526TIP3    H123213   3.414   1.251   7.562 -0.9085  0.5409  0.4083
  526TIP3    H223214   3.445   1.399   7.569  0.7813  0.2344  0.0250
  527TIP3   OH223215   4.864   6.749   2.664 -0.6086 -0.6352 -0.2829
  527TIP3    H123216   4.847   6.838   2.633 -1.8848 -0.1040  1.7584
  527TIP3    H223217   4.931   6.716   2.604 -0.4633  1.4969 -1.4188
  528TIP3   OH223218   3.416   2.575   7.814 -0.5092  0.0881  0.0550
  528TIP3    H123219   3.472   2.598   7.887 -1.4622  0.9514  0.5416
  528TIP3    H223220   3.354   2.512   7.850  0.8112 -1.7503 -0.7627
  529TIP3   OH223221   6.233   4.743   7.841  0.3851 -0.1825  0.4592
  529TIP3    H123222   6.307   4.735   7.781  0.0071 -2.0520  0.1906
  529TIP3    H223223   6.170   4.797   7.794  0.8387 -0.0985 -0.0638
  530TIP3   OH223224   6.627   3.551   1.108 -0.4160 -1.0644  0.1070
  530TIP3    H123225   6.680   3.520   1.035  0.1475  2.0215 -0.9256
  530TIP3    H223226   6.541   3.567   1.071 -1.0496 -2.4740  0.9060
  531TIP3   OH223227   4.054   1.301   0.443  0.2402  0.8723  0.1303
  531TIP3    H123228   3.995   1.261   0.380  1.3665  2.1199 -1.8252
  531TIP3    H223229   4.029   1.263   0.528 -0.9001 -1.3536 -1.1256
  532TIP3   OH223230   5.036   5.758   0.675 -0.1412  0.6641 -0.1848
  532TIP3    H123231   5.049   5.708   0.595 -0.1509 -0.6820  0.6301
  532TIP3    H223232   5.000   5.696   0.738  3.0188  0.7108  1.9336
  533TIP3   OH223233   6.445   1.661   0.612  0.4288  0.8801  0.4105
  533TIP3    H123234   6.469   1.578   0.653  0.5441  0.1888 -1.0054
  533TIP3    H223235   6.407   1.713   0.683 -0.0576 -0.5526  1.2317
  534TIP3   OH223236   1.702   0.623   0.957 -0.5759  0.5415  0.5635
  534TIP3    H123237   1.615   0.598   0.987 -1.0416 -0.3605 -1.3764
  534TIP3    H223238   1.751   0.541   0.956 -0.1171  0.8133  0.3797
  535TIP3   OH223239   3.110   0.407   8.286  0.1011  0.0619 -0.2661
  535TIP3    H123240   3.022   0.380   8.311 -0.9388  2.1271 -1.3747
  535TIP3    H223241   3.120   0.373   8.197  0.5863 -0.4815 -0.0076
  536TIP3   OH223242   2.365   4.906   1.472 -0.2355 -0.3109 -0.3901
  536TIP3    H123243   2.452   4.890   1.508  0.6159  0.1488 -2.1432
  536TIP3    H223244   2.345   4.828   1.419 -0.9431 -0.4583  0.0739
  537TIP3   OH223245   2.716   5.484   0.719  0.7184 -0.2746 -0.2576
  537TIP3    H123246   2.742   5.427   0.647  2.1459  1.3716 -1.1371
  537TIP3    H223247   2.799   5.505   0.763  0.2058  0.9384  0.1553
  538TIP3   OH223248   5.004   3.789   7.432  0.4407  0.0208  0.4677
  538TIP3    H123249   4.910   3.774   7.433  0.6124 -1.4098 -0.8248
  538TIP3    H223250   5.021   3.830   7.347  0.9833  0.2035  0.6586
  539TIP3   OH223251   3.627   1.527   6.897 -0.8043  0.6344  0.1415
  539TIP3    H123252   3.602   1.612   6.933 -0.2761  0.7618  0.2258
  539TIP3    H223253   3.719   1.538   6.873 -0.8061  0.1642 -0.0885
  540TIP3   OH223254   4.482   5.858   6.756 -0.4741  0.2365  0.5998
  540TIP3    H123255   4.554   5.873   6.817 -0.9093 -0.5760  1.3456
  540TIP3    H223256   4.407   5.839   6.812 -1.5148  1.9849 -0.1403
  541TIP3   OH223257   1.384   3.374   0.146 -0.2082  0.2794  0.1196
  541TIP3    H123258   1.414   3.286   0.121 -0.3545  0.2682 -0.0219
  541TIP3    H223259   1.448   3.404   0.211  0.4458  0.4835 -0.5968
  542TIP3   OH223260   5.508   4.820   8.542  0.1450 -0.4122 -0.5439
  542TIP3    H123261   5.596   4.831   8.506  0.4934 -0.8962  0.1440
  542TIP3    H223262   5.510   4.735   8.586 -0.5420 -0.2374 -0.1585
  543TIP3   OH223263   0.146   3.733   6.549 -0.2227  0.4221 -0.0535
  543TIP3    H123264   0.201   3.778   6.486  0.4526 -0.9596 -0.4876
  543TIP3    H223265   0.064   3.783   6.551  1.0047  2.4988  0.5907
  544TIP3   OH223266   2.459   3.784   1.579 -0.2507  0.2279 -0.6159
  544TIP3    H123267   2.365   3.779   1.560 -0.2319  1.2427 -1.0603
  544TIP3    H223268   2.498   3.812   1.496  0.5769 -1.1099 -0.7032
  545TIP3   OH223269   6.907   3.052   8.558  0.1939  0.4984  0.2628
  545TIP3    H123270   6.891   3.055   8.463  2.4229  0.1745 -0.1924
  545TIP3    H223271   6.944   3.139   8.578  0.8874  0.1395  0.5736
  546TIP3   OH223272   0.675   2.177   6.563 -0.2826 -0.6008  0.0424
  546TIP3    H123273   0.763   2.139   6.561 -0.4180 -1.1320  1.9267
  546TIP3    H223274   0.687   2.267   6.533  0.7205 -0.9602 -0.6997
  547TIP3   OH223275   0.160   5.514   1.478  0.5483  0.0751  0.5293
  547TIP3    H123276   0.121   5.601   1.470 -0.7435 -0.5003  0.3599
  547TIP3    H223277   0.147   5.490   1.570  2.2590  0.6533  0.9599
  548TIP3   OH223278   1.892   4.262   1.205  0.8372 -0.1794  0.2870
  548TIP3    H123279   1.833   4.273   1.279 -0.4503 -0.8134 -0.5914
  548TIP3    H223280   1.888   4.168   1.186  1.1329 -0.0245 -0.5820
  549TIP3   OH223281   0.723   4.258   0.641 -0.7484  0.0336 -0.6714
  549TIP3    H123282   0.808   4.220   0.664 -0.2533  2.0501  1.2075
  549TIP3    H223283   0.736   4.352   0.649 -2.3134  0.6238 -3.5878
  550TIP3   OH223284   0.566   2.008   7.208  0.4417  0.1839  0.4645
  550TIP3    H123285   0.483   1.981   7.168  0.4356  0.3563  0.3627
  550TIP3    H223286   0.632   1.953   7.166  0.5007  0.7310 -0.1591
  551TIP3   OH223287   4.111   5.148   0.918 -0.2567 -0.4144 -0.4790
  551TIP3    H123288   4.097   5.195   1.000 -0.3700 -0.3637 -0.5270
  551TIP3    H223289   4.082   5.209   0.850 -0.5913 -0.6238 -0.5291
  552TIP3   OH223290   0.511   2.831   0.191 -0.0517  0.2887 -0.6644
  552TIP3    H123291   0.579   2.851   0.127  1.9546  1.6753  1.7141
  552TIP3    H223292   0.530   2.741   0.219  0.2303  0.3379 -0.6939
  553TIP3   OH223293   6.284   3.466   0.549 -0.1195  0.1268 -0.1383
  553TIP3    H123294   6.311   3.547   0.592 -0.7657 -0.3986  1.3072
  553TIP3    H223295   6.347   3.400   0.579 -1.0621 -0.4202  0.7257
  554TIP3   OH223296   6.544   3.692   8.187  0.3343  0.0102 -0.4160
  554TIP3    H123297   6.581   3.763   8.134  0.5435  2.1094  2.3513
  554TIP3    H223298   6.570   3.612   8.141  1.5985  1.6243 -2.7261
  555TIP3   OH223299   1.291   1.847   1.477  0.9349  0.1100  0.2242
  555TIP3    H123300   1.308   1.879   1.388  0.9522  0.2819  0.2893
  555TIP3    H223301   1.376   1.821   1.510  1.0743  0.9338  0.5361
  556TIP3   OH223302   3.639   1.335   1.115  0.2713  0.0538 -0.1155
  556TIP3    H123303   3.593   1.395   1.174  0.7487  2.1561 -1.7395
  556TIP3    H223304   3.732   1.350   1.133  0.4235  0.7924 -1.4004
  557TIP3   OH223305   4.751   1.912   8.312  0.1411 -0.0207  0.5945
  557TIP3    H123306   4.796   1.984   8.267  2.3165 -1.8682 -0.3559
  557TIP3    H223307   4.720   1.951   8.394  0.2022  2.2681 -0.3832
  558TIP3   OH223308   1.009   3.348   0.719 -0.0023  0.1250  0.4506
  558TIP3    H123309   0.979   3.422   0.773 -1.1729 -1.1720  1.6741
  558TIP3    H223310   0.935   3.329   0.662  0.4718  0.2004 -0.1910
  559TIP3   OH223311   1.306   6.798   8.459 -0.0398  1.0252 -0.4820
  559TIP3    H123312   1.232   6.807   8.399 -0.8586  1.2131  0.5144
  559TIP3    H223313   1.366   6.738   8.415 -0.2278  1.8173 -1.8339
  560TIP3   OH223314   4.395   1.344   8.298 -0.0666 -0.7024  0.1729
  560TIP3    H123315   4.373   1.359   8.206  0.6301 -0.6734  0.0032
  560TIP3    H223316   4.483   1.380   8.308  0.0541 -1.1300  0.7312
  561TIP3   OH223317   3.168   4.227   0.327  0.8672 -0.6387 -0.0729
  561TIP3    H123318   3.122   4.248   0.408  1.3132 -0.3858  0.1163
  561TIP3    H223319   3.173   4.311   0.280 -1.3350 -1.1588 -1.3859
  562TIP3   OH223320   5.765   6.293   8.434  0.6486  0.2669  0.5995
  562TIP3    H123321   5.768   6.256   8.346  0.5399 -0.5844  0.9387
  562TIP3    H223322   5.833   6.245   8.482 -0.9801 -1.1122  1.6402
  563TIP3   OH223323   0.817   0.589   8.485 -0.4022 -0.3188  0.1519
  563TIP3    H123324   0.800   0.677   8.517 -0.9104 -0.3697  0.0325
  563TIP3    H223325   0.742   0.538   8.514 -0.7406 -0.4330 -0.8591
  564TIP3   OH223326   3.121   6.260   2.012 -0.0777 -0.0843 -0.2219
  564TIP3    H123327   3.213   6.239   2.029 -0.1186  0.5625  0.8835
  564TIP3    H223328   3.091   6.191   1.952  0.4185 -1.8079  1.4268
  565TIP3   OH223329   1.010   1.006   7.788  0.0537  0.0215  0.1073
  565TIP3    H123330   1.040   1.093   7.760  1.5840 -0.3046  0.6413
  565TIP3    H223331   1.081   0.947   7.764 -0.7525 -1.0202  0.2036
  566TIP3   OH223332   5.702   2.348   7.484 -0.1955  0.4581  0.4457
  566TIP3    H123333   5.713   2.255   7.463  1.1920  0.9457 -1.1518
  566TIP3    H223334   5.759   2.362   7.560  0.0341  0.1278  0.3355
  567TIP3   OH223335   3.625   1.737   8.149  0.2330 -0.1511 -0.3993
  567TIP3    H123336   3.615   1.826   8.183  0.1457 -0.2515 -0.1604
  567TIP3    H223337   3.701   1.702   8.195  2.1156  0.7908 -2.5740
  568TIP3   OH223338   1.785   3.459   6.844 -0.0098  0.0466 -0.2701
  568TIP3    H123339   1.848   3.507   6.898  0.5212  0.7057 -1.4477
  568TIP3    H223340   1.741   3.526   6.793 -1.0110 -0.5063 -0.1588
  569TIP3   OH223341   6.675   4.900   1.483  0.2670 -0.3277  0.3872
  569TIP3    H123342   6.638   4.816   1.456  2.7003 -2.4109  2.9381
  569TIP3    H223343   6.635   4.917   1.568  0.3339  0.7465  0.2155
  570TIP3   OH223344   5.323   2.133   7.805  0.4395 -0.7808  0.1774
  570TIP3    H123345   5.269   2.191   7.751  1.8597  1.3206  0.8975
  570TIP3    H223346   5.270   2.053   7.814 -1.3335  0.1294 -1.3759
  571TIP3   OH223347   3.667   0.614   1.572  0.0760 -0.5041 -0.2112
  571TIP3    H123348   3.678   0.651   1.485 -1.1625 -0.5383 -0.3996
  571TIP3    H223349   3.611   0.676   1.618  0.8293 -0.4153  0.6199
  572TIP3   OH223350   2.902   0.199   1.227  0.1991 -0.1509  0.1469
  572TIP3    H123351   2.992   0.166   1.223  0.1565 -0.3765  0.8933
  572TIP3    H223352   2.858   0.140   1.288 -0.0174  0.9666  1.0911
  573TIP3   OH223353   3.881   4.975   7.396 -0.4091 -0.1884 -0.7723
  573TIP3    H123354   3.803   5.017   7.432 -0.1732 -1.0166  0.7870
  573TIP3    H223355   3.878   4.885   7.429  1.7821  0.0668  0.3508
  574TIP3   OH223356   5.911   4.036   6.712 -0.4259 -0.3301 -0.3374
  574TIP3    H123357   5.956   4.073   6.636  0.2202 -3.5141 -1.6581
  574TIP3    H223358   5.964   4.064   6.787 -0.3473  1.8187 -1.1352
  575TIP3   OH223359   1.843   3.276   1.751 -0.2600  0.1841 -0.0829
  575TIP3    H123360   1.857   3.240   1.839 -0.1168  0.1876 -0.1046
  575TIP3    H223361   1.802   3.361   1.767 -2.0061 -0.6133 -0.0662
  576TIP3   OH223362   1.384   0.442   8.439 -0.0595  0.3905 -0.4313
  576TIP3    H123363   1.458   0.460   8.496 -0.0246  0.0594 -0.3729
  576TIP3    H223364   1.419   0.449   8.350  0.3579 -1.0495 -0.4065
  577TIP3   OH223365   3.632   6.704   1.439  0.1808 -0.0809 -0.4152
  577TIP3    H123366   3.615   6.674   1.349  1.7022 -1.3666 -0.3179
  577TIP3    H223367   3.556   6.674   1.489  0.2748 -1.2080 -0.9088
  578TIP3   OH223368   4.406   0.252   0.592 -0.5481  0.0689 -0.8525
  578TIP3    H123369   4.416   0.292   0.506  0.7658  0.8695 -0.3725
  578TIP3    H223370   4.496   0.239   0.622 -0.9691  0.5247  0.7030
  579TIP3   OH223371   5.144   4.102   7.391 -0.1610 -0.0529  0.3139
  579TIP3    H123372   5.143   4.179   7.448 -0.0765 -0.1812  0.4879
  579TIP3    H223373   5.108   4.134   7.308  0.2855  0.2792  0.2463
  580TIP3   OH223374   3.543   0.605   7.945 -0.7333  0.2278 -0.0786
  580TIP3    H123375   3.549   0.525   7.998 -0.3844 -1.0377 -1.9361
  580TIP3    H223376   3.633   0.629   7.927 -0.8409  1.0185  0.4044
  581TIP3   OH223377   4.156   2.717   0.898  0.8208 -0.2712  0.1811
  581TIP3    H123378   4.237   2.724   0.847  1.6389  0.7534  1.5569
  581TIP3    H223379   4.175   2.652   0.965  0.3854 -0.2570  0.3214
  582TIP3   OH223380   1.950   1.673   1.660 -0.0795  0.2349  0.2474
  582TIP3    H123381   1.899   1.754   1.666 -0.2179  0.2782 -1.2642
  582TIP3    H223382   1.914   1.627   1.585  0.4879 -0.9015  0.6477
  583TIP3   OH223383   6.459   1.592   7.508  0.0671 -0.3637  0.6582
  583TIP3    H123384   6.401   1.639   7.568 -1.5803 -1.5297  0.0552
  583TIP3    H223385   6.421   1.607   7.422  2.8830  1.9948 -0.3340
  584TIP3   OH223386   6.655   1.839   7.087  0.0805 -0.2369 -0.7189
  584TIP3    H123387   6.640   1.804   6.999 -0.5715 -1.5808 -0.1032
  584TIP3    H223388   6.663   1.761   7.143  1.2311  0.5778  0.3110
  585TIP3   OH223389   0.456   2.559   1.249  0.2256 -0.3996  0.2721
  585TIP3    H123390   0.401   2.563   1.326 -0.0604 -2.0200  0.1794
  585TIP3    H223391   0.533   2.509   1.277  0.6483 -0.0115 -0.1806
  586TIP3   OH223392   0.371   3.186   0.622  0.5582 -0.4973 -0.0234
  586TIP3    H123393   0.290   3.172   0.672  1.0078 -3.1427  0.1043
  586TIP3    H223394   0.434   3.127   0.661  2.2103  0.5374 -0.9911
  587TIP3   OH223395   2.438   3.483   7.680  0.5632 -0.1259  0.6772
  587TIP3    H123396   2.401   3.504   7.765  0.6420 -0.7827  0.8775
  587TIP3    H223397   2.369   3.435   7.634  0.8163 -0.5233  0.6991
  588TIP3   OH223398   6.456   4.053   1.069  0.1270 -0.0619  0.1459
  588TIP3    H123399   6.374   4.067   1.023 -0.3658 -0.5958  0.8361
  588TIP3    H223400   6.432   4.001   1.146  0.6777  1.9510  1.7828
  589TIP3   OH223401   2.951   2.149   7.163 -0.6464  0.0189  0.3006
  589TIP3    H123402   2.986   2.115   7.245 -0.1647 -1.4008 -0.4649
  589TIP3    H223403   2.865   2.107   7.154 -0.2189 -0.7235 -0.4565
  590TIP3   OH223404   3.310   2.972   1.216 -0.1450 -0.5468 -0.1718
  590TIP3    H123405   3.397   3.012   1.227 -0.4234  0.2666 -0.7505
  590TIP3    H223406   3.257   3.043   1.179 -1.0791 -1.0099  0.2685
  591TIP3   OH223407   3.321   1.826   7.328 -0.4148 -0.0869  0.1428
  591TIP3    H123408   3.402   1.794   7.290  0.0115  1.1652 -0.0634
  591TIP3    H223409   3.301   1.764   7.398  1.0717 -0.0650  0.6255
  592TIP3   OH223410   5.624   2.107   2.421  0.4911 -0.5733  0.1218
  592TIP3    H123411   5.649   2.020   2.389  0.1649 -0.7468  0.3233
  592TIP3    H223412   5.702   2.141   2.464  1.1799 -0.0267 -1.4729
  593TIP3   OH223413   0.878   5.078   0.952 -0.1771  0.3575  0.0558
  593TIP3    H123414   0.798   5.025   0.953  1.0647 -1.6462  0.2172
  593TIP3    H223415   0.865   5.143   1.021 -1.1865 -0.7132  0.9210
  594TIP3   OH223416   2.113   0.742   7.339 -0.1134 -0.2533 -0.0227
  594TIP3    H123417   2.181   0.706   7.283 -0.5874 -0.5149 -0.4387
  594TIP3    H223418   2.092   0.827   7.300 -0.1305 -0.2415  0.0121
  595TIP3   OH223419   5.671   5.734   7.554  0.0362  0.4600  0.1002
  595TIP3    H123420   5.596   5.793   7.549  0.4975  1.2558  1.8606
  595TIP3    H223421   5.733   5.767   7.488 -1.0525 -0.1157 -1.2594
  596TIP3   OH223422   2.131   4.317   7.113 -0.5963  0.1213  0.0641
  596TIP3    H123423   2.158   4.247   7.053 -1.4449 -1.2747  1.2099
  596TIP3    H223424   2.081   4.377   7.058 -0.2153 -0.3961 -0.8849
  597TIP3   OH223425   2.717   2.907   1.359  0.1935  0.1299 -0.4228
  597TIP3    H123426   2.812   2.916   1.354  0.1308  1.2976  0.0613
  597TIP3    H223427   2.686   2.942   1.275  0.2018 -0.6493 -0.7583
  598TIP3   OH223428   5.057   2.881   6.642  0.1377  0.1790 -0.0287
  598TIP3    H123429   5.122   2.889   6.713  2.0568 -1.1625 -1.5258
  598TIP3    H223430   5.023   2.791   6.651  0.3424  0.0248 -0.7348
  599TIP3   OH223431   5.716   4.271   6.903  0.1917 -0.0644 -0.2434
  599TIP3    H123432   5.689   4.258   6.994  1.0608  0.7436  0.1385
  599TIP3    H223433   5.683   4.193   6.857 -0.3595 -0.4191  0.7332
  600TIP3   OH223434   2.979   0.439   1.041 -0.0196 -0.3052  0.1575
  600TIP3    H123435   3.051   0.429   0.978 -0.0518  1.5306 -0.2334
  600TIP3    H223436   2.979   0.357   1.090  1.5560 -0.8386 -0.6425
  601TIP3   OH223437   1.665   3.646   1.444  0.2155  0.7399  0.3886
  601TIP3    H123438   1.662   3.611   1.533  0.0295  1.2529  0.5855
  601TIP3    H223439   1.755   3.629   1.415 -0.0648 -0.5446  0.2107
  602TIP3   OH223440   3.742   0.336   8.363  0.0369 -0.2747 -0.2794
  602TIP3    H123441   3.827   0.315   8.324 -0.0163  0.6077 -0.8879
  602TIP3    H223442   3.697   0.251   8.367  1.0679 -0.8182  0.4110
  603TIP3   OH223443   5.187   3.736   2.208 -0.1929  0.2695  0.1318
  603TIP3    H123444   5.132   3.748   2.130 -0.5857 -0.9256  0.2003
  603TIP3    H223445   5.276   3.727   2.174 -0.1798  1.0859 -0.0682
  604TIP3   OH223446   2.917   6.546   0.096 -0.0760 -0.2274 -0.2469
  604TIP3    H123447   2.938   6.493   0.018 -0.3176  0.8604 -1.0787
  604TIP3    H223448   2.872   6.485   0.155  0.4536 -1.1712 -0.7937
  605TIP3   OH223449   1.062   3.735   6.900 -0.5015 -0.4968 -0.9283
  605TIP3    H123450   0.967   3.727   6.908 -0.4944 -2.9501 -2.2422
  605TIP3    H223451   1.076   3.773   6.814 -0.3295 -1.9160 -1.5607
  606TIP3   OH223452   5.363   0.549   7.855  0.3004 -0.5145  0.0778
  606TIP3    H123453   5.373   0.612   7.783  0.6386  0.0056  0.5741
  606TIP3    H223454   5.346   0.604   7.932  2.2257 -0.9099  0.8370
  607TIP3   OH223455   2.709   1.044   7.659  0.2260  0.0618  0.2498
  607TIP3    H123456   2.755   1.048   7.576 -0.6554  0.5687 -0.2300
  607TIP3    H223457   2.759   0.981   7.712  1.2266  0.3103 -0.3811
  608TIP3   OH223458   2.613   6.761   0.744  0.5212  0.4529 -0.0275
  608TIP3    H123459   2.549   6.828   0.771  0.4818  0.0463  0.9522
  608TIP3    H223460   2.580   6.728   0.661 -0.1951  0.7078  0.1483
  609TIP3   OH223461   1.942   2.315   7.090 -0.3456  0.2504  0.1564
  609TIP3    H123462   1.898   2.383   7.039  0.3631  0.1531 -0.6116
  609TIP3    H223463   1.943   2.239   7.032 -0.7788 -0.3017  0.8612
  610TIP3   OH223464   4.198   0.787   8.174 -0.3743 -0.1175  0.2651
  610TIP3    H123465   4.182   0.853   8.242 -1.2948  1.3037 -1.2518
  610TIP3    H223466   4.164   0.706   8.211  0.3176  0.3313  1.9902
  611TIP3   OH223467   3.230   3.172   1.808 -0.4663 -0.4158  0.2082
  611TIP3    H123468   3.283   3.167   1.887 -0.3524  0.1751  0.1722
  611TIP3    H223469   3.140   3.159   1.838 -0.3358 -1.1996  0.2968
  612TIP3   OH223470   0.098   2.038   0.444 -0.2802 -0.4341  0.2592
  612TIP3    H123471   0.038   2.111   0.462  0.2168 -0.0021  0.1935
  612TIP3    H223472   0.184   2.070   0.473  0.3944 -0.0615 -1.9537
  613TIP3   OH223473   0.177   4.857   0.088 -0.3272 -0.0401 -0.4274
  613TIP3    H123474   0.088   4.892   0.093 -0.4287 -0.4368  1.0265
  613TIP3    H223475   0.227   4.910   0.150  0.5979  0.5316 -1.6265
  614TIP3   OH223476   5.336   1.931   0.665 -0.1414  0.2347  0.2350
  614TIP3    H123477   5.391   1.853   0.665  0.3530  0.5598 -1.2511
  614TIP3    H223478   5.276   1.919   0.592 -1.1606  0.5133  1.0055
  615TIP3   OH223479   5.249   6.719   7.786  0.2058 -0.1590  0.5382
  615TIP3    H123480   5.337   6.732   7.822 -0.3901 -0.5841  2.2587
  615TIP3    H223481   5.262   6.711   7.692  1.8624  1.0136  0.6313
  616TIP3   OH223482   6.538   6.702   7.312  0.2090  0.0255 -0.8859
  616TIP3    H123483   6.501   6.713   7.400  0.1530  0.0268 -0.9097
  616TIP3    H223484   6.608   6.637   7.324 -0.0121 -0.2175 -0.8988
  617TIP3   OH223485   1.004   6.281   8.336 -0.5003  0.1116  0.3135
  617TIP3    H123486   0.948   6.282   8.413 -0.4827 -0.0851  0.3279
  617TIP3    H223487   0.994   6.369   8.298  0.1689  0.5119  1.0308
  618TIP3   OH223488   1.712   6.726   8.556 -0.3384  0.1844 -0.0381
  618TIP3    H123489   1.655   6.801   8.573  0.0762  0.1216  1.8525
  618TIP3    H223490   1.746   6.702   8.642  0.9029 -1.0947 -0.8453
  619TIP3   OH223491   5.859   0.234   1.784  0.4580  0.4581 -0.4271
  619TIP3    H123492   5.866   0.321   1.744  0.9029  0.1122 -1.1076
  619TIP3    H223493   5.810   0.249   1.865 -0.2487  1.2025 -0.9808
  620TIP3   OH223494   4.471   5.495   7.128  0.2320 -0.0226 -0.2792
  620TIP3    H123495   4.490   5.581   7.092 -0.1753 -0.2421 -1.0293
  620TIP3    H223496   4.557   5.455   7.142  0.3992 -0.1052 -1.4470
  621TIP3   OH223497   1.947   6.744   2.042  1.2350  0.4645 -0.6683
  621TIP3    H123498   1.914   6.826   2.079  1.8578 -0.5616  2.4959
  621TIP3    H223499   1.951   6.684   2.117  2.3326 -1.9754 -2.5376
  622TIP3   OH223500   1.479   3.079   7.543  0.2882 -0.1408  0.0316
  622TIP3    H123501   1.565   3.085   7.582  0.3611 -2.2043  0.3001
  622TIP3    H223502   1.443   3.168   7.548  0.9975  0.0595  3.1218
  623TIP3   OH223503   6.271   0.244   1.148  0.1677 -0.0847  0.5073
  623TIP3    H123504   6.176   0.233   1.152 -0.0086  1.2554  0.4111
  623TIP3    H223505   6.285   0.316   1.086  1.3864 -1.7681 -1.2824
  624TIP3   OH223506   4.095   5.177   2.435  0.1886 -0.0553  0.6301
  624TIP3    H123507   4.122   5.267   2.451 -0.2945  0.4525 -1.1294
  624TIP3    H223508   4.176   5.130   2.416  0.3037  0.3842  0.0041
  625TIP3   OH223509   4.278   1.425   0.387 -0.1122 -0.4696 -0.0306
  625TIP3    H123510   4.196   1.375   0.398 -0.2716 -0.4629 -1.0852
  625TIP3    H223511   4.281   1.445   0.294  0.9875 -0.2625  0.0412
  626TIP3   OH223512   3.155   0.255   8.054 -0.1545  0.1112  0.2709
  626TIP3    H123513   3.213   0.211   7.991 -2.4780 -1.9795 -0.6005
  626TIP3    H223514   3.067   0.234   8.023 -1.4377  2.9468  1.6484
  627TIP3   OH223515   2.173   5.528   7.886  0.2474  0.1397  0.2835
  627TIP3    H123516   2.151   5.566   7.972 -3.4910  1.3718 -0.9999
  627TIP3    H223517   2.223   5.597   7.842  2.8734 -0.7944  1.5988
  628TIP3   OH223518   4.758   6.498   7.266 -0.0553  0.7057  0.1708
  628TIP3    H123519   4.802   6.445   7.199 -1.0183 -0.5894  0.5289
  628TIP3    H223520   4.700   6.555   7.217 -2.0840 -1.4440 -0.1220
  629TIP3   OH223521   4.983   0.137   0.067 -0.5146 -0.3159 -0.0202
  629TIP3    H123522   5.002   0.097  -0.018  0.7306 -0.6327  0.3794
  629TIP3    H223523   4.972   0.063   0.127 -0.3714 -0.0933  0.2869
  630TIP3   OH223524   3.672   5.449   6.537 -0.8740 -0.3760  0.2606
  630TIP3    H123525   3.647   5.398   6.460  0.6280 -0.2553 -0.3402
  630TIP3    H223526   3.671   5.540   6.507  1.5122 -0.4356 -0.2225
  631TIP3   OH223527   5.213   3.674   0.636  0.0455  0.1636 -0.7212
  631TIP3    H123528   5.230   3.627   0.718 -2.0133  2.9437  1.5165
  631TIP3    H223529   5.274   3.749   0.639 -2.0298  1.9354 -0.1006
  632TIP3   OH223530   2.963   1.626   7.978 -0.2468 -0.3215  0.4672
  632TIP3    H123531   2.981   1.533   7.991 -1.9479 -0.6909  0.4583
  632TIP3    H223532   3.016   1.650   7.902 -0.9773 -1.7271 -0.5543
  633TIP3   OH223533   3.193   3.130   7.682  0.6245  0.6592  0.1711
  633TIP3    H123534   3.215   3.219   7.654  0.1353 -0.0508 -2.7297
  633TIP3    H223535   3.112   3.109   7.636  1.7059 -1.9414 -0.7286
  634TIP3   OH223536   3.384   1.300   1.571  0.0387 -0.4056  0.4417
  634TIP3    H123537   3.434   1.379   1.587  1.1555 -1.0869  0.4032
  634TIP3    H223538   3.442   1.229   1.598  0.0938 -1.3611 -1.9662
  635TIP3   OH223539   1.422   4.093   1.427 -0.2741 -0.1414 -0.7895
  635TIP3    H123540   1.483   4.040   1.375 -2.6067 -1.1318 -2.6836
  635TIP3    H223541   1.389   4.033   1.494  0.6187  0.3475  0.1254
  636TIP3   OH223542   2.828   6.169   1.031  0.5820  0.0295  0.2688
  636TIP3    H123543   2.885   6.206   1.098 -0.3260  0.1182  1.0058
  636TIP3    H223544   2.855   6.212   0.950  2.3094 -0.7531  0.3982
  637TIP3   OH223545   5.181   3.882   7.613 -0.3044  0.2900 -0.1682
  637TIP3    H123546   5.158   3.975   7.601 -0.3572  0.4536  1.0550
  637TIP3    H223547   5.127   3.836   7.550 -1.4558  0.9709  0.2844
  638TIP3   OH223548   3.767   4.957   2.255 -0.5353 -0.0402  0.0018
  638TIP3    H123549   3.767   4.959   2.350  0.3914  1.6533  0.0173
  638TIP3    H223550   3.847   4.909   2.232 -0.2664  0.3472  0.1060
  639TIP3   OH223551   2.536   1.627   1.013 -0.1230 -0.2531 -0.4084
  639TIP3    H123552   2.517   1.543   1.054 -1.4560  0.2607  0.0677
  639TIP3    H223553   2.535   1.609   0.919 -0.1028 -0.8239 -0.3018
  640TIP3   OH223554   3.486   1.249   0.893  0.2063  0.3194  0.8636
  640TIP3    H123555   3.541   1.258   0.971 -0.2312 -0.8243  1.3273
  640TIP3    H223556   3.544   1.273   0.820  1.2933 -0.7208  1.3506
  641TIP3   OH223557   3.038   5.253   7.892  0.3589  0.2707 -0.1808
  641TIP3    H123558   2.963   5.311   7.906  0.8968  0.8394  0.3617
  641TIP3    H223559   3.057   5.261   7.798  0.0631  0.5145 -0.2209
  642TIP3   OH223560   2.536   3.053   8.070 -0.1244 -0.3825  0.3122
  642TIP3    H123561   2.566   3.123   8.011 -1.7060  0.5969  0.6060
  642TIP3    H223562   2.507   3.100   8.148  2.2426 -1.6706  2.0900
  643TIP3   OH223563   6.753   1.757   6.504  0.3688  0.2535 -0.6031
  643TIP3    H123564   6.834   1.738   6.552  0.4528 -0.6125 -1.0630
  643TIP3    H223565   6.711   1.826   6.555  0.6464 -0.3610  0.4999
  644TIP3   OH223566   2.987   6.638   7.864  0.2831 -0.6629  0.9732
  644TIP3    H123567   2.926   6.594   7.923 -1.1268  2.5577  2.1915
  644TIP3    H223568   2.933   6.668   7.791  0.6096  1.0699  1.3919
  645TIP3   OH223569   0.304   6.560   6.963  0.2393  0.4307 -0.1420
  645TIP3    H123570   0.252   6.640   6.959 -1.0770 -0.3406  0.5954
  645TIP3    H223571   0.305   6.537   7.056  1.3758  0.0656 -0.2243
  646TIP3   OH223572   5.681   3.933   8.073 -0.2723 -0.1721 -0.0133
  646TIP3    H123573   5.715   3.882   8.146  0.8414 -0.5806 -0.7878
  646TIP3    H223574   5.709   4.023   8.091 -2.0653  0.1931  1.2490
  647TIP3   OH223575   0.900   5.631   1.148 -0.4465  0.2293  0.5111
  647TIP3    H123576   0.949   5.640   1.230  0.1511 -0.1046  0.1941
  647TIP3    H223577   0.920   5.542   1.118  0.4325  0.8038 -0.6905
  648TIP3   OH223578   5.514   0.161   7.730  0.2682  0.1304 -0.2529
  648TIP3    H123579   5.605   0.141   7.750  1.1876  2.5817 -1.5504
  648TIP3    H223580   5.478   0.195   7.812  0.0668 -1.9987  0.6159
  649TIP3   OH223581   3.644   3.834   8.223  0.5674  0.0116  0.2234
  649TIP3    H123582   3.610   3.894   8.157 -0.4798  0.4217  1.1101
  649TIP3    H223583   3.687   3.765   8.172 -0.1131  0.3737 -0.8858
  650TIP3   OH223584   1.580   1.625   1.983  0.0861  0.0008 -0.2525
  650TIP3    H123585   1.608   1.604   2.072 -1.1292 -0.2797  0.0850
  650TIP3    H223586   1.636   1.699   1.957  0.8361 -0.2796  0.5205
  651TIP3   OH223587   3.484   4.659   1.857  0.5701  0.3699 -0.2132
  651TIP3    H123588   3.464   4.610   1.938 -0.1357  0.9397 -0.0286
  651TIP3    H223589   3.466   4.750   1.880  1.9634  0.7465 -0.5315
  652TIP3   OH223590   1.792   4.948   0.219  0.4579 -0.1756  0.0423
  652TIP3    H123591   1.744   4.936   0.137  0.1481  0.1119  0.1806
  652TIP3    H223592   1.737   5.007   0.270  1.4427  1.0210 -0.2285
  653TIP3   OH223593   6.294   3.957   1.330  0.7702 -0.3254 -0.1405
  653TIP3    H123594   6.257   3.989   1.412  0.1266 -1.9253  0.2347
  653TIP3    H223595   6.219   3.926   1.280  1.2992 -0.7058 -0.7143
  654TIP3   OH223596   1.232   6.445   0.738 -0.1690  0.4549 -0.4472
  654TIP3    H123597   1.166   6.497   0.693 -0.4257  0.6109  0.0920
  654TIP3    H223598   1.294   6.419   0.670 -1.8815 -1.4868 -1.3699
  655TIP3   OH223599   1.110   0.722   7.969 -0.0132  0.5803 -0.0595
  655TIP3    H123600   1.153   0.735   7.884 -0.8915  4.1072 -0.0999
  655TIP3    H223601   1.183   0.709   8.030  0.6354 -2.1021 -1.2133
  656TIP3   OH223602   1.434   5.013   1.396 -0.1898  0.6403  0.0324
  656TIP3    H123603   1.428   5.109   1.399 -1.9611  0.5427  1.7156
  656TIP3    H223604   1.400   4.990   1.309  0.1710  1.5256 -0.3538
  657TIP3   OH223605   4.246   1.690   7.639  0.3400  0.5634  0.0424
  657TIP3    H123606   4.221   1.739   7.561 -0.1628 -1.9354 -1.4984
  657TIP3    H223607   4.337   1.665   7.624  0.0522 -0.4632 -0.0998
  658TIP3   OH223608   3.131   4.966   7.626  0.4649  0.2308 -0.0997
  658TIP3    H123609   3.102   4.956   7.717 -0.2869  0.0945 -0.3469
  658TIP3    H223610   3.067   4.917   7.575  1.3503 -0.3877 -0.6403
  659TIP3   OH223611   2.259   6.819   0.495 -0.0088  0.7387  0.4665
  659TIP3    H123612   2.348   6.846   0.477 -0.0144  0.2376 -0.3356
  659TIP3    H223613   2.268   6.751   0.562  0.5341 -1.7595 -1.9588
  660TIP3   OH223614   4.203   3.535   7.886 -0.3993  0.3228 -1.1955
  660TIP3    H123615   4.172   3.452   7.923 -0.5079  0.1775 -1.6142
  660TIP3    H223616   4.268   3.566   7.950 -1.8195  0.9402  0.0275
  661TIP3   OH223617   1.688   3.611   0.794 -0.0786 -0.9475  0.1292
  661TIP3    H123618   1.598   3.580   0.804 -0.7838  0.4222 -1.5026
  661TIP3    H223619   1.724   3.557   0.724  0.6004 -1.9029  1.1880
  662TIP3   OH223620   6.933   6.549   1.836  0.1996 -0.1935 -0.0151
  662TIP3    H123621   6.877   6.610   1.884  0.3432 -1.8719  2.4168
  662TIP3    H223622   7.022   6.582   1.851  0.2250 -0.5683  0.6976
  663TIP3   OH223623   5.397   2.145   2.584  0.3824  0.4079  0.0871
  663TIP3    H123624   5.490   2.138   2.562  0.4843  0.7675  0.3914
  663TIP3    H223625   5.393   2.133   2.679  0.2123  1.1878  0.1832
  664TIP3   OH223626   6.391   2.755   8.530 -0.0041 -0.5173  0.2735
  664TIP3    H123627   6.422   2.830   8.580  2.9454 -0.5614 -1.2387
  664TIP3    H223628   6.433   2.765   8.444 -1.4749 -2.6314 -0.7789
  665TIP3   OH223629   3.676   6.893   1.117  0.0932  0.4337  0.0010
  665TIP3    H123630   3.617   6.852   1.054 -0.3884 -0.9269  1.2697
  665TIP3    H223631   3.637   6.874   1.202  1.4677  0.9760  0.7850
  666TIP3   OH223632   5.671   1.257   6.817  0.2881 -1.0352 -0.5488
  666TIP3    H123633   5.587   1.212   6.810  1.0007 -2.6708  0.7076
  666TIP3    H223634   5.695   1.279   6.727 -1.1253 -1.1748 -0.9812
  667TIP3   OH223635   3.714   5.261   6.918 -0.3665 -0.1657 -0.6059
  667TIP3    H123636   3.696   5.354   6.905  0.9302  0.1781 -0.0517
  667TIP3    H223637   3.711   5.249   7.013 -0.1045 -0.6056 -0.6499
  668TIP3   OH223638   4.703   6.213   2.608 -0.7662  0.1195  0.0172
  668TIP3    H123639   4.773   6.260   2.653 -0.0181 -1.2051  0.3058
  668TIP3    H223640   4.664   6.157   2.676 -0.4292 -1.0135 -0.6898
  669TIP3   OH223641   2.826   6.224   2.232  0.0083 -0.0410 -0.4121
  669TIP3    H123642   2.790   6.146   2.189 -1.1171 -0.2396  0.8422
  669TIP3    H223643   2.795   6.218   2.322  0.2619  1.6411 -0.1881
  670TIP3   OH223644   5.931   3.632   0.574 -0.4119  0.5197 -0.1575
  670TIP3    H123645   5.877   3.554   0.580 -1.4378  1.3026  1.6956
  670TIP3    H223646   5.930   3.655   0.481 -0.6450 -1.2631 -0.6291
  671TIP3   OH223647   4.525   4.542   6.917  0.3162 -0.3311  0.3309
  671TIP3    H123648   4.572   4.573   6.840  0.9175 -2.1056 -0.0685
  671TIP3    H223649   4.592   4.501   6.972 -0.5675 -2.1829  0.1310
  672TIP3   OH223650   3.035   6.807   1.351  0.1959  0.7691 -0.4494
  672TIP3    H123651   3.021   6.770   1.264 -1.8747  1.7287 -0.5891
  672TIP3    H223652   3.130   6.817   1.358  0.4192  0.6746 -2.5905
  673TIP3   OH223653   5.697   5.711   0.850 -0.5744  0.5419 -0.6515
  673TIP3    H123654   5.769   5.652   0.875 -0.3126  1.9176  2.2545
  673TIP3    H223655   5.618   5.667   0.880 -0.4013  1.4485  1.2677
  674TIP3   OH223656   4.416   3.511   1.223  0.0182 -0.2584 -0.2528
  674TIP3    H123657   4.467   3.432   1.239 -0.0152 -0.3063 -0.3774
  674TIP3    H223658   4.348   3.510   1.291  1.4859  0.9465  1.3113
  675TIP3   OH223659   3.169   5.449   2.370  0.8473 -0.2301  0.7446
  675TIP3    H123660   3.254   5.478   2.403  1.0526 -0.3539  0.3359
  675TIP3    H223661   3.107   5.473   2.438  0.8794  1.9759  0.0829
  676TIP3   OH223662   3.770   2.029   2.237  0.9089  0.3599  0.0160
  676TIP3    H123663   3.733   2.116   2.227 -0.0598 -0.0690 -0.1745
  676TIP3    H223664   3.814   2.032   2.322 -0.2884  0.6238  0.6479
  677TIP3   OH223665   3.707   0.714   1.321 -0.1255 -0.1497 -0.0584
  677TIP3    H123666   3.669   0.722   1.233  2.2338  1.3650 -1.0404
  677TIP3    H223667   3.692   0.799   1.361  0.4293 -0.2131  0.2941
  678TIP3   OH223668   4.957   4.499   7.364 -0.4523  0.5670  0.5545
  678TIP3    H123669   4.985   4.520   7.275 -1.5720 -2.0937 -0.5307
  678TIP3    H223670   5.030   4.452   7.402 -1.0364 -0.9693 -0.1117
  679TIP3   OH223671   2.811   4.061   8.480  0.9269 -0.6124  0.5916
  679TIP3    H123672   2.890   4.098   8.520  0.9220  0.4944 -0.3946
  679TIP3    H223673   2.843   4.016   8.402  0.5046  0.6127 -0.3156
  680TIP3   OH223674   5.291   3.097   7.603 -0.2752 -0.9370 -0.2177
  680TIP3    H123675   5.383   3.096   7.630  0.1884  0.8719 -1.5385
  680TIP3    H223676   5.249   3.032   7.659  1.5670 -0.9354  1.2681
  681TIP3   OH223677   1.207   6.544   1.297  0.0731 -0.4113  0.2462
  681TIP3    H123678   1.226   6.529   1.204  0.4900  0.5769  0.1612
  681TIP3    H223679   1.142   6.478   1.319 -1.3263  0.4154 -1.1992
  682TIP3   OH223680   2.065   6.685   8.134  0.3184 -0.9573 -0.2219
  682TIP3    H123681   2.039   6.603   8.177  1.5982 -1.2347  0.0391
  682TIP3    H223682   2.035   6.753   8.195  0.6646 -1.2881  0.3275
  683TIP3   OH223683   6.431   4.707   0.078  0.0650 -0.3731  0.0641
  683TIP3    H123684   6.424   4.611   0.072 -1.6418 -0.2445 -0.6842
  683TIP3    H223685   6.369   4.731   0.146  0.0358  0.2392 -0.1763
  684TIP3   OH223686   2.011   4.526   1.197  0.0900  0.1002  0.0057
  684TIP3    H123687   2.083   4.529   1.135 -0.3862  0.0134 -0.5694
  684TIP3    H223688   1.981   4.435   1.193  0.3664 -0.0260  0.7324
  685TIP3   OH223689   3.768   3.977   2.343  0.3807 -0.2629  0.5356
  685TIP3    H123690   3.673   3.968   2.335  0.4780 -2.3710  1.3169
  685TIP3    H223691   3.801   3.966   2.253 -0.0830  0.5466  0.2518
  686TIP3   OH223692   3.908   1.102   7.902 -0.1962 -0.2057  0.0679
  686TIP3    H123693   3.888   1.187   7.864 -0.7784  0.2249  1.2791
  686TIP3    H223694   3.981   1.119   7.962  1.4622 -1.0794 -1.5950
  687TIP3   OH223695   0.473   1.784   7.885  0.1429 -0.2941  0.1805
  687TIP3    H123696   0.393   1.735   7.904 -0.2674 -0.1722 -1.1422
  687TIP3    H223697   0.512   1.738   7.811  1.4567 -0.5014  0.9512
  688TIP3   OH223698   6.584   1.000   7.573 -0.1108  0.5113 -0.3599
  688TIP3    H123699   6.593   0.909   7.547  0.5859  0.2037  0.8900
  688TIP3    H223700   6.636   1.049   7.509 -0.1151 -0.0099 -0.7636
  689TIP3   OH223701   6.045   3.031   8.097 -0.1348 -0.6263 -0.4081
  689TIP3    H123702   6.124   3.078   8.068 -0.1956 -1.2469 -1.6502
  689TIP3    H223703   6.027   3.067   8.184  0.5307  0.7456 -0.7978
  690TIP3   OH223704   0.827   1.286   2.079  0.6584  0.0940  0.0514
  690TIP3    H123705   0.789   1.316   2.162  1.9400  1.7471  0.1066
  690TIP3    H223706   0.814   1.191   2.079  2.1617 -0.2238  3.0096
  691TIP3   OH223707   6.586   2.649   2.625 -0.1043 -0.1614 -0.0457
  691TIP3    H123708   6.675   2.652   2.659  0.8289  1.5796 -2.3634
  691TIP3    H223709   6.578   2.560   2.589  1.0594 -0.0566 -0.6251
  692TIP3   OH223710   4.329   0.267   8.201 -0.4114  0.0377 -0.7322
  692TIP3    H123711   4.362   0.352   8.173 -0.7265  0.7635  1.0046
  692TIP3    H223712   4.404   0.209   8.194 -0.2082  0.4148 -2.0047
  693TIP3   OH223713   1.879   6.192   0.583 -0.7500 -0.1397 -0.6635
  693TIP3    H123714   1.857   6.162   0.495  0.9820 -1.5372 -0.6632
  693TIP3    H223715   1.965   6.232   0.575  0.0058 -1.3958  0.5681
  694TIP3   OH223716   1.626   1.589   0.755  0.1018 -0.0349 -0.0452
  694TIP3    H123717   1.697   1.587   0.691 -0.2658 -1.7503 -0.4529
  694TIP3    H223718   1.587   1.501   0.750 -1.4170  0.5486  0.8665
  695TIP3   OH223719   5.207   1.216   0.466  0.1265  0.0130  0.0711
  695TIP3    H123720   5.243   1.181   0.547 -0.6402  1.0685  0.8826
  695TIP3    H223721   5.171   1.301   0.489 -0.9814 -0.0760 -1.1643
  696TIP3   OH223722   5.775   2.945   8.115 -0.1116 -0.4636  0.0420
  696TIP3    H123723   5.721   2.877   8.155 -0.1606 -1.4976 -1.6690
  696TIP3    H223724   5.864   2.926   8.146 -0.1172 -1.3730 -0.4404
  697TIP3   OH223725   6.318   6.257   8.079  0.4130 -0.4179  0.1651
  697TIP3    H123726   6.348   6.265   8.170 -0.2738 -1.3349  0.4877
  697TIP3    H223727   6.245   6.318   8.073 -1.3639 -2.3177  1.0786
  698TIP3   OH223728   2.516   3.422   2.476 -0.2001 -0.1194  0.7962
  698TIP3    H123729   2.428   3.459   2.471 -0.2128 -0.1799  0.5836
  698TIP3    H223730   2.567   3.473   2.413 -0.6568 -1.6997 -0.9347
  699TIP3   OH223731   1.795   4.579   1.046 -0.3204  0.1468  0.2148
  699TIP3    H123732   1.826   4.583   0.955 -1.1447  0.2722 -0.0724
  699TIP3    H223733   1.873   4.556   1.097  0.1003 -0.1753 -0.5517
  700TIP3   OH223734   5.870   1.755   7.649  0.2803  0.5653  0.0728
  700TIP3    H123735   5.840   1.703   7.723 -0.3906 -0.8390 -1.1352
  700TIP3    H223736   5.795   1.809   7.625  0.2084  0.3885 -0.1068
  701TIP3   OH223737   3.873   4.089   0.997 -0.0218 -0.1494  0.0523
  701TIP3    H123738   3.828   4.172   0.983  0.5952 -0.0641 -1.5109
  701TIP3    H223739   3.874   4.079   1.092 -4.8958 -0.9838  0.3199
  702TIP3   OH223740   6.253   6.595   1.262  0.1754 -0.4368 -0.1204
  702TIP3    H123741   6.168   6.564   1.230  0.4715  0.3177 -1.7677
  702TIP3    H223742   6.317   6.545   1.211  0.6997  0.0712  0.0249
  703TIP3   OH223743   5.351   6.061   2.071 -0.0975  0.4938  0.1687
  703TIP3    H123744   5.309   6.009   2.140 -0.0759  2.0308  1.4066
  703TIP3    H223745   5.301   6.143   2.069  1.3200  1.3893 -0.0342
  704TIP3   OH223746   4.116   1.632   0.108 -0.7778  0.1188  0.2785
  704TIP3    H123747   4.050   1.615   0.042 -0.6083 -1.2211  0.4130
  704TIP3    H223748   4.165   1.550   0.114  0.0574  0.6531  1.1109
  705TIP3   OH223749   5.378   2.826   7.511 -0.1754 -0.2334  0.7180
  705TIP3    H123750   5.332   2.878   7.446  0.2018 -0.6364  0.1275
  705TIP3    H223751   5.461   2.872   7.525 -0.8680  0.6918  2.0456
  706TIP3   OH223752   5.444   4.584   7.725 -0.5502 -0.1811 -0.1709
  706TIP3    H123753   5.409   4.496   7.715 -0.6060 -0.1401 -0.3383
  706TIP3    H223754   5.384   4.628   7.784 -1.4164  0.2382 -1.3241
  707TIP3   OH223755   0.475   0.700   7.627  0.7995  0.1801  0.3160
  707TIP3    H123756   0.558   0.708   7.674  0.9349 -1.9799  0.5505
  707TIP3    H223757   0.438   0.618   7.658 -0.1124 -0.2787 -1.8058
  708TIP3   OH223758   5.182   0.261   1.016 -0.2974 -0.3149 -0.6008
  708TIP3    H123759   5.267   0.285   0.979  0.2440  0.0450  0.8159
  708TIP3    H223760   5.128   0.340   1.004  0.3105  0.3067  0.6245
  709TIP3   OH223761   0.242   1.345   0.279 -1.1786  0.5529  0.0604
  709TIP3    H123762   0.265   1.380   0.365 -1.6744 -0.3898  0.6021
  709TIP3    H223763   0.147   1.339   0.281 -1.1204 -0.8833  0.0539
  710TIP3   OH223764   1.753   4.582   7.763  0.4789  0.1767 -0.0569
  710TIP3    H123765   1.728   4.519   7.829  0.5541  1.3726  1.1609
  710TIP3    H223766   1.811   4.533   7.703 -0.6286 -1.2487 -0.0048
  711TIP3   OH223767   0.622   1.544   6.505  0.0116 -0.0220  0.0267
  711TIP3    H123768   0.675   1.537   6.585  2.0719  0.1716 -1.2651
  711TIP3    H223769   0.613   1.454   6.474  1.6285  0.1345 -0.9909
  712TIP3   OH223770   1.157   2.877   2.952 -0.0045  0.5269 -0.3779
  712TIP3    H123771   1.180   2.852   2.862  0.0737  1.5827 -0.6746
  712TIP3    H223772   1.153   2.795   3.000  2.5340  0.1021 -0.7505
  713TIP3   OH223773   2.790   4.713   0.162  0.0394 -0.0873 -0.1684
  713TIP3    H123774   2.758   4.773   0.229  1.4419  1.8596 -1.1477
  713TIP3    H223775   2.792   4.628   0.204 -1.2815  0.6704  1.5302
  714TIP3   OH223776   0.823   0.567   1.574  0.0955 -0.7394 -0.7042
  714TIP3    H123777   0.779   0.510   1.512  0.0950  0.1854 -1.5679
  714TIP3    H223778   0.849   0.644   1.523  0.0434  0.0692  0.4456
  715TIP3   OH223779   2.374   5.355   7.291  0.0967 -0.1839 -0.8874
  715TIP3    H123780   2.434   5.326   7.360 -0.8786 -0.3247 -0.0778
  715TIP3    H223781   2.287   5.337   7.326 -0.4273  0.1739 -1.9763
  716TIP3   OH223782   6.845   1.113   8.447 -0.3274  0.4673 -0.3607
  716TIP3    H123783   6.771   1.093   8.391  1.7494  1.2228 -3.6758
  716TIP3    H223784   6.816   1.186   8.502 -1.9939  0.8415 -1.6801
  717TIP3   OH223785   1.844   6.263   0.095 -0.4891  0.0375 -0.1600
  717TIP3    H123786   1.768   6.297   0.144 -1.5812 -1.4910 -0.7207
  717TIP3    H223787   1.844   6.169   0.114  1.3073  0.0129 -0.1652
  718TIP3   OH223788   0.846   2.626   0.879 -0.5719 -0.3298  0.2214
  718TIP3    H123789   0.752   2.610   0.878 -0.5840 -0.7616  2.5678
  718TIP3    H223790   0.856   2.701   0.938  0.5657 -0.3005  0.0087
  719TIP3   OH223791   5.362   3.962   7.297  0.4266 -0.5947  0.2385
  719TIP3    H123792   5.278   3.997   7.326  0.5318  0.2761 -0.4677
  719TIP3    H223793   5.363   3.978   7.202  0.2225 -3.0519 -0.2452
  720TIP3   OH223794   0.994   5.279   7.838 -0.3087  0.3017  0.9177
  720TIP3    H123795   0.987   5.250   7.929  1.0359  1.6946  1.5016
  720TIP3    H223796   1.019   5.200   7.789  0.0420 -0.2292  1.9336
  721TIP3   OH223797   6.682   4.126   7.029 -0.0271  0.2533 -0.6245
  721TIP3    H123798   6.712   4.144   7.118 -1.8920  0.4518 -0.0091
  721TIP3    H223799   6.737   4.053   7.000  0.2393 -0.1877  0.8945
  722TIP3   OH223800   5.595   3.685   1.699  0.1979  0.2762 -0.6991
  722TIP3    H123801   5.513   3.729   1.674 -1.1241 -2.0046 -0.7073
  722TIP3    H223802   5.658   3.712   1.632 -0.9753  0.8670 -1.6142
  723TIP3   OH223803   1.567   5.651   0.563  0.6305 -0.0573 -0.3803
  723TIP3    H123804   1.587   5.737   0.526 -0.0864  0.1367 -0.3343
  723TIP3    H223805   1.475   5.657   0.589  0.6966 -0.6971  0.0208
  724TIP3   OH223806   5.267   1.298   0.988  0.3434  0.1736  0.3581
  724TIP3    H123807   5.266   1.242   0.910 -1.6731 -1.1354  1.2383
  724TIP3    H223808   5.258   1.387   0.954 -0.1028 -0.3464 -0.9311
  725TIP3   OH223809   0.881   4.890   7.918 -0.1077  0.3647  0.4503
  725TIP3    H123810   0.787   4.891   7.902 -0.5115 -2.0121  2.1699
  725TIP3    H223811   0.890   4.875   8.012  1.9750 -0.3126  0.2088
  726TIP3   OH223812   2.597   0.657   8.037  0.4872  0.3227 -0.4807
  726TIP3    H123813   2.688   0.630   8.052  0.5654  0.6897 -0.2675
  726TIP3    H223814   2.544   0.585   8.070  0.7012  0.1349 -0.5479
  727TIP3   OH223815   3.601   3.458   1.633 -0.1718 -0.9639  0.9107
  727TIP3    H123816   3.624   3.535   1.685  1.0354 -0.6320 -0.0622
  727TIP3    H223817   3.673   3.449   1.571 -1.4959 -1.3873 -0.6550
  728TIP3   OH223818   4.969   6.788   6.334  0.1032 -0.3325 -0.1133
  728TIP3    H123819   5.021   6.711   6.315  2.2071  1.3517 -1.6041
  728TIP3    H223820   5.021   6.837   6.398  0.0376  1.0355 -1.0672
  729TIP3   OH223821   3.845   3.725   1.056 -0.6125  0.1943 -0.2923
  729TIP3    H123822   3.899   3.697   1.131  1.3605  4.2674  0.0894
  729TIP3    H223823   3.771   3.771   1.095 -1.0738 -0.0435 -0.8688
  730TIP3   OH223824   6.236   2.443   8.534 -0.0473  0.6885  0.2423
  730TIP3    H123825   6.185   2.490   8.600  0.6146  0.5523  0.8663
  730TIP3    H223826   6.327   2.451   8.564  0.1221 -0.6424  0.1484
  731TIP3   OH223827   1.060   5.016   0.270  0.7320  0.0021  0.0486
  731TIP3    H123828   1.139   5.043   0.316  1.8409  0.0512 -1.7799
  731TIP3    H223829   1.090   4.954   0.204 -0.7756 -0.0806 -0.6124
  732TIP3   OH223830   4.549   0.213   0.326 -0.5466 -0.7333 -0.2009
  732TIP3    H123831   4.605   0.177   0.256 -0.8808 -2.2154  0.2569
  732TIP3    H223832   4.610   0.254   0.387 -0.2087  0.1349 -1.1054
  733TIP3   OH223833   4.339   0.989   7.941  0.1466  0.0983 -0.1176
  733TIP3    H123834   4.373   1.053   8.004  0.6088  0.9149 -1.1725
  733TIP3    H223835   4.259   1.029   7.907  0.2419 -0.0536 -0.5166
  734TIP3   OH223836   2.773   0.843   7.959  0.2033  0.1910 -0.5747
  734TIP3    H123837   2.844   0.798   7.913 -0.8207  0.1979 -2.2555
  734TIP3    H223838   2.721   0.772   7.997  0.5995  0.1524 -0.0848
  735TIP3   OH223839   4.262   6.636   7.145 -0.3774 -0.7192  0.7248
  735TIP3    H123840   4.218   6.618   7.228  1.6583  1.3294  2.3615
  735TIP3    H223841   4.304   6.721   7.157  0.6527 -0.6986 -2.1503
  736TIP3   OH223842   6.236   6.392   7.629  0.7761  0.0591  0.3791
  736TIP3    H123843   6.302   6.395   7.559  1.2060 -1.1761  0.6978
  736TIP3    H223844   6.273   6.332   7.694 -0.3956 -0.1723  0.8596
  737TIP3   OH223845   4.637   6.101   1.826  0.5066 -0.6805  0.0857
  737TIP3    H123846   4.672   6.187   1.801  2.2659 -1.6485 -1.0039
  737TIP3    H223847   4.560   6.090   1.770  0.6188 -0.0687 -0.2037
  738TIP3   OH223848   2.461   0.216   1.871  0.1201  0.1456 -0.3552
  738TIP3    H123849   2.532   0.191   1.812  1.2255 -2.4459  1.8914
  738TIP3    H223850   2.505   0.246   1.950 -1.3019  0.2731  0.4285
  739TIP3   OH223851   2.355   2.556   2.843 -0.0826 -0.3736  0.2790
  739TIP3    H123852   2.431   2.605   2.873 -0.2139 -0.4241  0.6928
  739TIP3    H223853   2.285   2.580   2.904 -0.8295  0.8912 -1.0033
  740TIP3   OH223854   1.046   4.212   6.330 -0.4708  0.3852 -0.4988
  740TIP3    H123855   1.001   4.137   6.368 -1.5651  1.2470 -0.0556
  740TIP3    H223856   1.035   4.282   6.394  1.8554  0.5451 -0.1732
  741TIP3   OH223857   3.812   4.877   0.448 -0.3597 -0.2488 -0.4747
  741TIP3    H123858   3.853   4.869   0.362  0.8877 -0.7453  0.1498
  741TIP3    H223859   3.875   4.926   0.501 -1.4483  0.7290 -0.0324
  742TIP3   OH223860   1.302   5.734   6.695 -0.2062 -0.6391 -0.1221
  742TIP3    H123861   1.299   5.656   6.640 -0.0265  0.1517 -1.2952
  742TIP3    H223862   1.285   5.806   6.634 -0.5408  0.2204  0.9679
  743TIP3   OH223863   5.934   2.818   1.632  0.1627  0.0868  0.3497
  743TIP3    H123864   5.967   2.814   1.543  3.0060 -0.3977  1.3050
  743TIP3    H223865   5.955   2.906   1.662 -0.7920  0.2544  0.5776
  744TIP3   OH223866   5.920   1.462   0.124 -0.2991 -0.6598 -0.2262
  744TIP3    H123867   5.854   1.463   0.056 -1.5046 -0.0997  0.9014
  744TIP3    H223868   5.966   1.379   0.113 -0.4298 -0.5470 -1.7227
  745TIP3   OH223869   5.784   2.043   1.798 -0.1584 -1.0741 -0.1505
  745TIP3    H123870   5.823   2.130   1.809  3.3675 -2.6231  0.9964
  745TIP3    H223871   5.759   2.016   1.886  0.1553 -1.8044 -0.2806
  746TIP3   OH223872   1.719   5.635   0.909 -0.6741 -1.1582  0.1346
  746TIP3    H123873   1.705   5.658   1.001 -1.0543  0.9055 -0.3825
  746TIP3    H223874   1.644   5.581   0.886 -1.1028 -0.8521  0.7785
  747TIP3   OH223875   0.552   0.061   7.912 -0.3093 -0.2516 -0.0297
  747TIP3    H123876   0.509   0.110   7.983  0.1024 -0.1695  0.1669
  747TIP3    H223877   0.486   0.055   7.843  0.2429  2.3167 -0.8848
  748TIP3   OH223878   4.760   5.617   0.313 -0.2491 -0.2928  0.6208
  748TIP3    H123879   4.712   5.563   0.377 -1.4712 -1.4367 -1.1673
  748TIP3    H223880   4.761   5.565   0.233 -0.2623  1.7736 -0.8120
  749TIP3   OH223881   5.765   5.019   0.553  0.0230  0.0722  0.3818
  749TIP3    H123882   5.713   5.014   0.472  2.0440 -1.9499 -0.8936
  749TIP3    H223883   5.775   5.113   0.568 -0.7143  0.5214 -1.5224
  750TIP3   OH223884   3.804   2.092   8.037  0.5047 -0.1096  0.1011
  750TIP3    H123885   3.763   2.033   8.100 -0.3489  2.4373  2.0879
  750TIP3    H223886   3.877   2.131   8.085  0.9837  0.5501 -1.1228
  751TIP3   OH223887   1.603   0.587   8.584 -0.1929 -0.5531  0.6431
  751TIP3    H123888   1.615   0.657   8.519  0.2019 -0.0820  1.2108
  751TIP3    H223889   1.678   0.529   8.570  0.3253 -0.0271  1.1952
  752TIP3   OH223890   5.019   1.453   8.354 -0.5741 -0.1395  0.3827
  752TIP3    H123891   5.046   1.482   8.267  0.1221 -0.1735  0.5769
  752TIP3    H223892   4.969   1.526   8.390 -1.3391 -0.3411 -0.2527
  753TIP3   OH223893   3.598   2.118   7.857 -0.0021 -0.8722  0.5347
  753TIP3    H123894   3.672   2.099   7.915 -0.7049 -1.5659  1.2273
  753TIP3    H223895   3.520   2.093   7.908 -0.7687  0.5525  0.1081
  754TIP3   OH223896   0.587   3.193   8.545 -0.3858  0.1512  0.4434
  754TIP3    H123897   0.593   3.286   8.527  1.1126  0.2466  1.2999
  754TIP3    H223898   0.585   3.151   8.459  1.3987  0.8599  0.0277
  755TIP3   OH223899   5.582   3.329   7.605 -0.0051  0.4157 -0.0177
  755TIP3    H123900   5.578   3.377   7.688 -2.4363 -1.8466  1.3182
  755TIP3    H223901   5.527   3.380   7.545  1.1411  1.6581 -0.0513
  756TIP3   OH223902   5.129   1.920   1.921  0.4887  0.1587  0.1330
  756TIP3    H123903   5.170   1.933   2.007  1.6451 -2.2281  0.0139
  756TIP3    H223904   5.202   1.916   1.860 -0.2694  0.7751 -0.8355
  757TIP3   OH223905   2.715   2.257   7.812 -0.2678  0.6040 -0.1483
  757TIP3    H123906   2.645   2.322   7.822 -0.7572 -0.1160  1.4928
  757TIP3    H223907   2.669   2.174   7.806  0.4304  0.1170  0.9814
  758TIP3   OH223908   5.223   3.809   8.432  0.3044 -0.4269 -0.1117
  758TIP3    H123909   5.140   3.828   8.475 -0.3088  0.2070 -1.5252
  758TIP3    H223910   5.227   3.713   8.428 -0.6069 -0.4581 -0.4606
  759TIP3   OH223911   4.596   0.041   0.893 -0.3549  0.7888  0.1880
  759TIP3    H123912   4.532  -0.002   0.837  0.2134  0.8577 -0.5436
  759TIP3    H223913   4.653   0.089   0.832  1.1039 -0.2203  0.6834
  760TIP3   OH223914   0.056   5.362   8.007  0.5282  0.3128 -0.2270
  760TIP3    H123915   0.030   5.454   8.021 -1.4613 -0.1550 -0.4800
  760TIP3    H223916   0.005   5.313   8.071  0.8234 -0.7113 -0.7514
  761TIP3   OH223917   3.816   6.649   6.685 -0.1612  0.7490  0.1072
  761TIP3    H123918   3.720   6.655   6.686 -0.1199  1.6157  1.3562
  761TIP3    H223919   3.840   6.631   6.776  0.7751 -1.7073 -0.5524
  762TIP3   OH223920   3.450   0.321   7.932 -0.0710  0.0075 -0.1589
  762TIP3    H123921   3.494   0.267   7.866 -0.8983 -0.6791 -0.1698
  762TIP3    H223922   3.436   0.262   8.005  0.6158  0.7041  0.5484
  763TIP3   OH223923   4.704   6.287   0.222  0.1007 -0.6274 -0.6626
  763TIP3    H123924   4.764   6.357   0.248  0.3271 -0.8906 -0.4804
  763TIP3    H223925   4.715   6.219   0.288 -1.7212  0.0511  0.4186
  764TIP3   OH223926   4.449   4.630   1.758 -0.0308 -0.4403  0.1874
  764TIP3    H123927   4.360   4.664   1.757 -0.2986 -1.1291  0.3804
  764TIP3    H223928   4.461   4.594   1.845  0.7826  0.5211  0.4946
  765TIP3   OH223929   3.769   0.255   7.453 -0.0303  0.0035 -0.1405
  765TIP3    H123930   3.823   0.182   7.484  0.4137  0.7772  0.9789
  765TIP3    H223931   3.833   0.324   7.432 -0.5496  0.9010  1.1156
  766TIP3   OH223932   5.334   6.338   0.603 -0.2628 -0.5021  0.0352
  766TIP3    H123933   5.373   6.330   0.516  0.2324  0.5870  0.1355
  766TIP3    H223934   5.287   6.421   0.600  0.1516 -0.2243  0.9491
  767TIP3   OH223935   3.578   5.945   7.396  0.4080  0.0880 -0.5380
  767TIP3    H123936   3.484   5.927   7.393  0.7300 -1.6465 -1.5091
  767TIP3    H223937   3.592   6.006   7.323  0.1010 -0.0240 -0.6955
  768TIP3   OH223938   4.557   0.517   1.813  0.3166  0.4737 -0.4050
  768TIP3    H123939   4.499   0.590   1.790 -0.4104 -0.0717 -0.3477
  768TIP3    H223940   4.497   0.444   1.831  1.0582 -0.3585 -1.2332
  769TIP3   OH223941   0.704   5.696   0.905 -0.4617  0.0441 -0.2390
  769TIP3    H123942   0.732   5.715   0.815 -0.0357  2.5974  0.3631
  769TIP3    H223943   0.783   5.666   0.949  0.1227  1.9328  0.0650
  770TIP3   OH223944   6.037   5.649   2.710 -0.7710  0.4226  0.1563
  770TIP3    H123945   6.096   5.712   2.670 -1.5784  1.5238  0.6480
  770TIP3    H223946   6.026   5.581   2.643 -0.0006  0.8671 -0.4376
  771TIP3   OH223947   4.099   5.490   7.368 -0.3676  0.5442  0.1760
  771TIP3    H123948   4.082   5.546   7.443 -2.1750  1.0177 -0.5314
  771TIP3    H223949   4.192   5.500   7.351 -0.4611  2.6615  0.6191
  772TIP3   OH223950   3.407   6.573   2.582  0.4578  0.4515  0.1716
  772TIP3    H123951   3.405   6.588   2.487  2.0697 -2.8424 -0.5153
  772TIP3    H223952   3.421   6.661   2.619  0.6514  1.7343 -2.6705
  773TIP3   OH223953   0.128   3.146   2.084  0.1825 -0.4084  0.3857
  773TIP3    H123954   0.223   3.148   2.087  0.2244  2.0800 -0.4044
  773TIP3    H223955   0.108   3.068   2.032  2.1300  1.7192 -4.1973
  774TIP3   OH223956   6.054   4.132   7.590  0.2729  0.3117 -0.4472
  774TIP3    H123957   6.002   4.212   7.589 -0.9990 -0.3860  1.7306
  774TIP3    H223958   5.995   4.065   7.557  1.4445  0.2576 -2.6064
  775TIP3   OH223959   5.687   1.911   8.547 -0.5394 -0.1910  0.3463
  775TIP3    H123960   5.747   1.948   8.611  1.1900  2.2415 -2.4131
  775TIP3    H223961   5.608   1.966   8.553 -0.0322  0.6177 -0.1407
  776TIP3   OH223962   5.768   5.318   6.357  0.1146  0.0793  0.2698
  776TIP3    H123963   5.764   5.228   6.326 -1.0278 -0.3869  1.6981
  776TIP3    H223964   5.846   5.321   6.413  0.7449  0.2690 -0.6004
  777TIP3   OH223965   0.293   5.848   8.403 -0.2857  0.6828 -0.0460
  777TIP3    H123966   0.352   5.923   8.413  0.7716 -0.0282 -0.8245
  777TIP3    H223967   0.335   5.777   8.452 -0.1761  0.0088 -1.0975
  778TIP3   OH223968   3.849   6.140   8.577  0.0074 -0.2937 -0.1090
  778TIP3    H123969   3.930   6.187   8.559 -0.2447  0.1693 -0.0654
  778TIP3    H223970   3.783   6.209   8.588 -0.1594 -0.5991  1.0316
  779TIP3   OH223971   2.104   6.053   6.804  0.2147 -0.1561  0.5764
  779TIP3    H123972   2.090   6.020   6.715 -1.5968  0.1891  0.6889
  779TIP3    H223973   2.111   6.148   6.793  0.1773 -0.1300  0.7881
  780TIP3   OH223974   0.051   3.732   1.390 -0.5361 -0.0651 -0.0510
  780TIP3    H123975  -0.004   3.747   1.313 -1.3877  1.3271  0.7924
  780TIP3    H223976   0.001   3.672   1.445 -0.2681 -0.4518 -0.2245
  781TIP3   OH223977   2.746   0.921   2.569 -0.1466 -0.3667  0.1671
  781TIP3    H123978   2.679   0.987   2.589 -0.6230 -0.9544  0.5203
  781TIP3    H223979   2.707   0.838   2.594  2.2217 -0.4567  4.4377
  782TIP3   OH223980   6.659   0.445   2.313  0.0617 -0.3246  0.2720
  782TIP3    H123981   6.620   0.359   2.328  0.3771 -0.1980  2.0648
  782TIP3    H223982   6.736   0.427   2.260 -0.6149 -0.9707 -0.5167
  783TIP3   OH223983   2.317   6.481   1.126 -0.3046  0.8252 -0.1797
  783TIP3    H123984   2.385   6.533   1.083 -0.4974  0.4666 -0.9395
  783TIP3    H223985   2.363   6.401   1.154 -0.3068  0.7980 -0.2530
  784TIP3   OH223986   3.542   5.794   0.979  0.7866  0.1942  0.2141
  784TIP3    H123987   3.562   5.800   1.072  0.8143 -1.9239  0.3928
  784TIP3    H223988   3.481   5.720   0.972  2.1813 -0.8665 -1.6318
  785TIP3   OH223989   4.931   5.132   1.279  0.1799  0.2216  0.5406
  785TIP3    H123990   4.907   5.059   1.337  0.3751  0.0141  0.3621
  785TIP3    H223991   4.848   5.161   1.241 -0.0471  0.8408  1.4789
  786TIP3   OH223992   5.737   4.815   7.867  0.0143 -0.0764 -0.3203
  786TIP3    H123993   5.693   4.791   7.948 -1.7468  1.0978 -0.8857
  786TIP3    H223994   5.779   4.899   7.886 -1.6138  0.9255 -1.0011
  787TIP3   OH223995   6.436   0.589   8.227 -0.6220  0.7803 -0.3279
  787TIP3    H123996   6.496   0.571   8.154  0.1578 -0.6824  0.6321
  787TIP3    H223997   6.396   0.504   8.247 -1.4300  1.3204  0.4374
  788TIP3   OH223998   6.359   4.736   0.768 -0.2881 -0.0818  0.3328
  788TIP3    H123999   6.292   4.743   0.836  0.7553  0.7134  1.3127
  788TIP3    H224000   6.426   4.799   0.793  1.5463 -1.8828  0.2178
  789TIP3   OH224001   4.689   4.478   6.320  0.2886 -0.1205 -0.2061
  789TIP3    H124002   4.660   4.551   6.374 -1.2274  0.9683 -2.3508
  789TIP3    H224003   4.613   4.456   6.267  1.5560 -1.4238 -1.5704
  790TIP3   OH224004   2.927   6.747   0.436 -0.3003 -0.0241  0.1980
  790TIP3    H124005   2.978   6.667   0.447 -0.0798 -0.0663 -1.0058
  790TIP3    H224006   2.902   6.772   0.525  1.5730 -0.1612  0.8209
  791TIP3   OH224007   4.835   3.221   7.521 -0.1363 -0.2617 -0.0496
  791TIP3    H124008   4.862   3.164   7.593  0.1208  0.2379  0.2585
  791TIP3    H224009   4.847   3.309   7.555 -1.0431 -0.0184 -0.3341
  792TIP3   OH224010   5.631   4.900   0.331  0.3456 -0.1551  0.3608
  792TIP3    H124011   5.583   4.973   0.291  0.6182  0.4703  1.1367
  792TIP3    H224012   5.715   4.899   0.287 -0.1143 -0.8212 -0.5329
  793TIP3   OH224013   0.408   1.093   8.511  0.0322  0.3167  0.1344
  793TIP3    H124014   0.435   1.086   8.420 -0.7833 -2.2993 -0.0041
  793TIP3    H224015   0.312   1.085   8.508  0.1420 -3.0839  1.3086
  794TIP3   OH224016   6.456   5.631   6.614  0.4061  1.1378 -0.1234
  794TIP3    H124017   6.545   5.641   6.578 -0.1190  1.3577 -1.4223
  794TIP3    H224018   6.462   5.554   6.671  1.2069  0.5632 -0.9555
  795TIP3   OH224019   6.102   5.928   1.652  0.3495  0.1228  0.2201
  795TIP3    H124020   6.018   5.898   1.615  1.8990 -2.3086 -1.6284
  795TIP3    H224021   6.099   5.898   1.743 -0.3968 -0.8423 -0.0991
  796TIP3   OH224022   2.765   0.096   0.439  0.2833 -0.0584  0.0300
  796TIP3    H124023   2.772   0.093   0.344  0.4114  1.2494 -0.0180
  796TIP3    H224024   2.855   0.087   0.470  0.1750 -1.1593  0.0699
  797TIP3   OH224025   0.399   3.315   6.958  0.3225 -0.4168  0.5084
  797TIP3    H124026   0.434   3.278   7.040  2.8320  1.2945  0.3060
  797TIP3    H224027   0.399   3.409   6.972 -1.1159 -0.1887 -0.7863
  798TIP3   OH224028   2.126   2.984   1.787 -0.1313 -0.1763  0.7425
  798TIP3    H124029   2.039   2.952   1.807  0.4539 -0.8315  2.4535
  798TIP3    H224030   2.185   2.914   1.815  0.9965  0.7650  0.8422
  799TIP3   OH224031   6.260   4.312   7.514  0.3566 -0.2739 -0.2879
  799TIP3    H124032   6.245   4.391   7.461 -2.4003  0.8469  1.9096
  799TIP3    H224033   6.192   4.251   7.487 -0.2108 -0.2148  0.9262
  800TIP3   OH224034   1.126   3.556   1.384  0.4645  0.7421  0.3110
  800TIP3    H124035   1.102   3.611   1.459  0.0864 -0.2000  0.8962
  800TIP3    H224036   1.043   3.534   1.342  0.4262 -0.8573  1.1533
  801TIP3   OH224037   4.573   6.400   1.493 -0.1886 -0.4922 -0.3211
  801TIP3    H124038   4.634   6.392   1.419 -0.8308  1.2032 -1.0687
  801TIP3    H224039   4.606   6.337   1.557  1.5930 -0.5410 -1.2198
  802TIP3   OH224040   1.286   4.819   7.529 -0.2980  0.3838  0.0937
  802TIP3    H124041   1.329   4.769   7.598 -1.6733  0.1755  0.8382
  802TIP3    H224042   1.201   4.844   7.566  0.2346  3.1052 -0.3270
  803TIP3   OH224043   2.431   6.247   1.212  0.0117 -0.0810  0.0249
  803TIP3    H124044   2.487   6.225   1.286  0.0964 -0.2464 -0.0861
  803TIP3    H224045   2.448   6.178   1.148 -0.6591 -0.3829  0.1716
  804TIP3   OH224046   0.969   2.752   7.772  0.1411  0.2348 -0.2464
  804TIP3    H124047   0.881   2.785   7.786  0.4660  0.7521  0.6238
  804TIP3    H224048   0.974   2.673   7.827 -0.1333 -0.4279 -1.1497
  805TIP3   OH224049   2.166   1.432   7.979  0.1180  0.4445  0.2234
  805TIP3    H124050   2.258   1.457   7.968 -0.3005  1.9425 -0.0525
  805TIP3    H224051   2.135   1.483   8.053 -0.0676 -1.3565  1.4608
  806TIP3   OH224052   5.048   1.068   2.185  0.3106 -0.1768  0.3293
  806TIP3    H124053   5.037   1.077   2.280 -0.1817  2.8273  0.0601
  806TIP3    H224054   4.975   1.012   2.158 -0.4516  0.1930  1.5424
  807TIP3   OH224055   0.852   5.964   8.299  0.4701 -0.0760 -0.1709
  807TIP3    H124056   0.893   5.989   8.216 -0.5010  1.2258 -0.3092
  807TIP3    H224057   0.835   5.871   8.291  0.8257 -0.0593 -1.2469
  808TIP3   OH224058   0.123   5.445   1.745  0.7127  0.3704  0.1856
  808TIP3    H124059   0.180   5.434   1.820  0.1938  0.2634  0.5716
  808TIP3    H224060   0.061   5.513   1.771 -1.1134 -1.4567  0.8831
  809TIP3   OH224061   5.804   2.686   7.817  0.0613 -0.4102  0.6838
  809TIP3    H124062   5.784   2.672   7.725 -1.7617  0.9307  0.8231
  809TIP3    H224063   5.879   2.745   7.817 -1.0072  1.0059 -0.0007
  810TIP3   OH224064   1.481   3.496   8.459  0.4504  0.0053 -0.0394
  810TIP3    H124065   1.528   3.561   8.512  0.6907  0.8565 -1.2573
  810TIP3    H224066   1.403   3.475   8.511  0.2693  1.4127  0.3006
  811TIP3   OH224067   3.149   6.409   6.485 -0.2834  0.0153 -0.2654
  811TIP3    H124068   3.181   6.393   6.396 -0.2314 -0.2485 -0.1985
  811TIP3    H224069   3.060   6.441   6.472  0.9744  3.9686 -0.6766
  812TIP3   OH224070   0.114   5.863   1.640 -0.1071 -0.2949 -0.5325
  812TIP3    H124071   0.191   5.902   1.682 -0.8742 -0.0602  0.6845
  812TIP3    H224072   0.076   5.934   1.588 -2.4153  1.2500  2.9077
  813TIP3   OH224073   5.157   2.688   7.343 -0.2562 -0.1072 -0.0646
  813TIP3    H124074   5.124   2.629   7.276  0.2024  0.3587 -0.7195
  813TIP3    H224075   5.079   2.736   7.374 -0.5002 -0.4778 -0.1019
  814TIP3   OH224076   5.449   3.009   8.280 -0.2802 -0.0729 -0.0629
  814TIP3    H124077   5.374   2.964   8.242 -0.2102 -0.9534  0.8121
  814TIP3    H224078   5.495   2.942   8.330  1.4351  0.3014 -1.0473
  815TIP3   OH224079   5.296   0.520   1.326  0.1500  0.9667 -0.3399
  815TIP3    H124080   5.337   0.557   1.248 -0.1858  1.3794 -0.3225
  815TIP3    H224081   5.304   0.425   1.314  0.5659  1.0336 -0.6231
  816TIP3   OH224082   2.684   6.570   8.059  0.4841  0.5478  0.0739
  816TIP3    H124083   2.718   6.495   8.108 -1.6970  0.6493  1.9134
  816TIP3    H224084   2.658   6.534   7.974  0.5135 -0.5378  0.5099
  817TIP3   OH224085   3.363   4.537   5.967  0.2275 -0.2782  0.2460
  817TIP3    H124086   3.349   4.476   6.039 -0.9630  0.5042  0.7202
  817TIP3    H224087   3.384   4.482   5.892 -0.0065 -1.2090  0.8487
  818TIP3   OH224088   4.972   2.905   1.768  0.4423  0.0920  0.5601
  818TIP3    H124089   5.018   2.954   1.700 -0.6256  1.8646  1.0379
  818TIP3    H224090   4.925   2.836   1.721 -1.0641  1.8781 -0.7076
  819TIP3   OH224091   0.621   6.310   0.027  0.1381  0.4905  0.0562
  819TIP3    H124092   0.611   6.386  -0.031 -0.0014  1.1442  0.9134
  819TIP3    H224093   0.706   6.273   0.003 -0.1344  0.4683 -0.8890
  820TIP3   OH224094   5.811   2.075   7.773  0.6444  0.2175 -0.1635
  820TIP3    H124095   5.826   2.120   7.690  0.1888  0.4271 -0.1362
  820TIP3    H224096   5.896   2.074   7.816  0.3229  2.7891  0.6905
  821TIP3   OH224097   6.938   2.837   1.542 -0.4628 -0.0673  0.1793
  821TIP3    H124098   6.993   2.763   1.517 -0.9068 -1.1242  2.1385
  821TIP3    H224099   6.970   2.863   1.628  0.5931  2.9953 -0.9902
  822TIP3   OH224100   5.393   0.042   7.526  0.0134 -0.0991 -0.9579
  822TIP3    H124101   5.400  -0.054   7.533  0.7459 -0.0989 -1.5968
  822TIP3    H224102   5.433   0.075   7.607  0.2875 -0.3205 -1.0008
  823TIP3   OH224103   3.986   4.463   2.521  0.3535 -0.2121 -0.0790
  823TIP3    H124104   4.077   4.481   2.498  0.2104  0.1508 -0.3725
  823TIP3    H224105   3.943   4.548   2.515 -0.2491 -0.5747 -1.0757
  824TIP3   OH224106   6.924   4.692   8.245 -0.0878 -0.6577  0.1627
  824TIP3    H124107   6.982   4.717   8.317 -1.5561  2.4925  0.4338
  824TIP3    H224108   6.846   4.656   8.289 -0.7382  0.7147  0.1947
  825TIP3   OH224109   4.779   3.740   2.675 -0.2271  0.2424 -0.2142
  825TIP3    H124110   4.866   3.711   2.703 -1.0363 -0.3650  1.8995
  825TIP3    H224111   4.739   3.662   2.635  0.2728  0.6029 -1.4586
  826TIP3   OH224112   0.874   2.073   6.828 -0.1651  0.5162 -0.0922
  826TIP3    H124113   0.867   2.085   6.734  3.4790 -0.1890 -0.6009
  826TIP3    H224114   0.966   2.049   6.843 -0.2304  1.8752  3.7674
  827TIP3   OH224115   2.189   6.758   2.670 -0.5025 -0.4402  0.1301
  827TIP3    H124116   2.118   6.770   2.733 -0.8229 -0.4533 -0.2285
  827TIP3    H224117   2.265   6.736   2.724 -0.9442 -1.1938  0.4562
  828TIP3   OH224118   2.620   6.458   0.052  0.0670 -0.5311  0.7285
  828TIP3    H124119   2.671   6.528   0.011  0.6223 -1.1876  0.2831
  828TIP3    H224120   2.576   6.500   0.126 -0.4278  0.5248 -0.1535
  829TIP3   OH224121   2.849   0.952   2.308  0.5020  0.3299  0.2203
  829TIP3    H124122   2.941   0.926   2.306  0.4399 -0.0410  1.4111
  829TIP3    H224123   2.820   0.931   2.397 -0.7540  0.3714 -0.1564
  830TIP3   OH224124   2.909   2.469   1.478  0.1814 -1.1647  0.0353
  830TIP3    H124125   2.829   2.506   1.439 -0.1896 -4.0333 -2.2461
  830TIP3    H224126   2.881   2.439   1.564 -0.1249  1.3395  0.8924
  831TIP3   OH224127   3.317   1.476   1.242 -1.1378  0.3350 -0.5200
  831TIP3    H124128   3.405   1.511   1.255 -1.9003  1.3912  2.6353
  831TIP3    H224129   3.311   1.463   1.147  2.7002 -0.7390 -0.8172
  832TIP3   OH224130   3.580   3.761   6.918 -0.3552 -0.2017 -0.1445
  832TIP3    H124131   3.543   3.678   6.950 -0.7949  0.1895  0.3767
  832TIP3    H224132   3.604   3.808   6.997  1.8546 -0.6818 -0.4659
  833TIP3   OH224133   6.507   2.962   0.087 -0.8584  0.5453  0.0154
  833TIP3    H124134   6.551   3.046   0.097  1.3207 -0.6894  1.7768
  833TIP3    H224135   6.461   2.949   0.169 -0.3636 -0.3923  0.1585
  834TIP3   OH224136   0.161   0.531   1.519  0.1220 -0.0304 -0.3191
  834TIP3    H124137   0.106   0.458   1.488  0.9891 -1.1051  0.5892
  834TIP3    H224138   0.235   0.533   1.458  0.8361 -0.8805  0.4906
  835TIP3   OH224139   0.966   1.545   1.394 -1.2955  0.9100  0.0726
  835TIP3    H124140   0.961   1.451   1.381 -0.3515  0.6880  1.1506
  835TIP3    H224141   1.053   1.560   1.431 -2.0986  1.9808  1.6403
  836TIP3   OH224142   1.529   3.611   6.228 -0.9638 -0.2488 -0.1563
  836TIP3    H124143   1.464   3.634   6.295  1.0952  1.9784  1.2572
  836TIP3    H224144   1.602   3.574   6.278 -0.4043 -1.0171 -1.4982
  837TIP3   OH224145   1.413   2.809   2.341 -0.2770  0.3824 -0.5486
  837TIP3    H124146   1.488   2.792   2.285 -0.4507  2.1410 -1.3910
  837TIP3    H224147   1.339   2.769   2.294 -0.1144  0.0507 -0.5259
  838TIP3   OH224148   2.794   6.358   8.200  0.2807 -0.1910 -0.1496
  838TIP3    H124149   2.750   6.373   8.283  0.0396 -0.5599 -0.2087
  838TIP3    H224150   2.764   6.272   8.171 -0.4112  0.3513 -1.1062
  839TIP3   OH224151   5.605   5.961   7.169  0.1727 -0.3499  0.4213
  839TIP3    H124152   5.688   6.002   7.145  0.4456 -1.5371 -0.7764
  839TIP3    H224153   5.629   5.872   7.192 -0.5093 -0.1010  2.2574
  840TIP3   OH224154   6.610   3.540   7.637 -0.2400 -0.6276  0.1739
  840TIP3    H124155   6.589   3.581   7.553 -0.6868  0.9648  1.0120
  840TIP3    H224156   6.697   3.574   7.659 -0.3941 -0.5219  0.6376
  841TIP3   OH224157   3.170   6.357   0.291  0.2462  0.5364  0.6321
  841TIP3    H124158   3.261   6.350   0.320  1.3121  3.3307 -1.6197
  841TIP3    H224159   3.166   6.303   0.212 -0.7750 -1.4283  1.9350
  842TIP3   OH224160   3.746   5.117   6.270 -0.6469  0.5330 -0.2665
  842TIP3    H124161   3.675   5.160   6.317 -0.7241  2.9836 -2.4254
  842TIP3    H224162   3.824   5.170   6.289 -0.5605  1.2257 -2.2982
  843TIP3   OH224163   3.886   1.947   1.623  0.6091  0.8538  0.0066
  843TIP3    H124164   3.838   1.874   1.662  1.3134  0.8568  0.9134
  843TIP3    H224165   3.820   1.997   1.577 -0.0416  0.1583  0.1629
  844TIP3   OH224166   2.501   5.601   7.207 -0.1346 -1.1060 -0.1086
  844TIP3    H124167   2.459   5.526   7.250  1.5218 -2.2509 -0.3958
  844TIP3    H224168   2.431   5.666   7.200 -0.5995 -0.9281  3.9745
  845TIP3   OH224169   2.634   1.237   1.684  0.0317  0.2483 -0.1772
  845TIP3    H124170   2.719   1.203   1.712  0.5606 -1.0077 -2.9357
  845TIP3    H224171   2.575   1.215   1.756  1.9693  1.0865  1.7836
  846TIP3   OH224172   6.406   4.099   8.029  0.1736  0.4765 -0.3496
  846TIP3    H124173   6.353   4.152   7.971 -0.0222  0.4202 -0.2228
  846TIP3    H224174   6.371   4.115   8.117 -0.7668 -0.8725 -0.4455
  847TIP3   OH224175   6.711   3.411   1.714  0.3363  0.5330 -0.2700
  847TIP3    H124176   6.771   3.471   1.671  0.6754 -0.4508 -1.2084
  847TIP3    H224177   6.729   3.422   1.807 -0.5782  2.8729 -0.2980
  848TIP3   OH224178   5.340   4.698   7.246  0.3240  0.2607 -0.4187
  848TIP3    H124179   5.390   4.720   7.324 -0.8457 -0.2858  0.5122
  848TIP3    H224180   5.312   4.607   7.259 -1.8308  0.8603 -0.3508
  849TIP3   OH224181   2.580   3.054   7.046 -0.5835  0.0582  0.0181
  849TIP3    H124182   2.520   3.069   6.973 -1.3689  0.1404  0.6667
  849TIP3    H224183   2.586   3.139   7.090  2.1229  0.8129 -1.5464
  850TIP3   OH224184   0.103   4.083   8.346  0.0405  0.1196  0.3354
  850TIP3    H124185   0.055   4.041   8.418  0.3836  0.6437  0.8707
  850TIP3    H224186   0.038   4.141   8.305  0.1181  0.5820  0.8567
  851TIP3   OH224187   4.329   3.071   0.832 -0.4612  0.1017 -0.5630
  851TIP3    H124188   4.365   3.022   0.906 -0.4423  0.0735 -0.5909
  851TIP3    H224189   4.282   3.005   0.780 -1.0208  0.2336 -0.2371
  852TIP3   OH224190   4.664   3.874   6.854 -0.4595  0.0576  0.4201
  852TIP3    H124191   4.601   3.866   6.926 -2.0532  0.8511 -0.8277
  852TIP3    H224192   4.620   3.834   6.779  0.7780  0.0919 -0.3414
  853TIP3   OH224193   6.365   0.352   1.427 -0.1793  0.7303  0.5166
  853TIP3    H124194   6.337   0.436   1.391 -2.0819  0.4639  1.2463
  853TIP3    H224195   6.376   0.296   1.351 -1.8470  0.8347  0.1455
  854TIP3   OH224196   2.083   1.917   1.025 -0.1266 -0.5740 -0.1466
  854TIP3    H124197   2.154   1.981   1.028 -0.1446 -0.5869  1.0980
  854TIP3    H224198   2.040   1.932   0.941 -0.4741  1.4160  0.3489
  855TIP3   OH224199   1.023   5.955   0.034 -0.6130 -0.4478  0.2164
  855TIP3    H124200   1.026   5.879  -0.026 -0.9897  0.0560 -0.4512
  855TIP3    H224201   1.026   5.916   0.121  3.3619 -1.1273 -0.0347
  856TIP3   OH224202   0.869   1.804   8.310 -0.5323  0.1583 -0.3970
  856TIP3    H124203   0.904   1.767   8.229 -0.4389  0.8790 -0.6944
  856TIP3    H224204   0.875   1.899   8.298 -1.7318  0.2949 -0.0819
  857TIP3   OH224205   2.286   2.580   2.145 -0.5423 -0.5042 -0.1866
  857TIP3    H124206   2.246   2.494   2.145 -1.1144 -0.2434 -0.4296
  857TIP3    H224207   2.327   2.589   2.231 -0.3148 -1.0878 -0.2323
  858TIP3   OH224208   5.942   0.995   6.609  0.2595  0.3384 -0.3365
  858TIP3    H124209   5.967   1.049   6.684  0.1054 -0.1447  0.0639
  858TIP3    H224210   5.871   0.940   6.642  1.9312 -1.7774 -0.0557
  859TIP3   OH224211   1.473   0.851   0.430  1.0810 -0.6604  0.0562
  859TIP3    H124212   1.500   0.785   0.367  1.4515  0.0589 -0.5632
  859TIP3    H224213   1.377   0.847   0.430  1.0333 -0.0335 -1.2820
  860TIP3   OH224214   0.587   4.811   0.575  0.2036 -0.5721  0.3166
  860TIP3    H124215   0.537   4.892   0.569 -0.1811 -0.8391 -0.1239
  860TIP3    H224216   0.674   4.839   0.602 -0.1361 -0.0902  0.9484
  861TIP3   OH224217   3.032   4.741   0.052  0.5237 -0.2780 -0.3759
  861TIP3    H124218   3.045   4.659   0.004 -0.7339  0.2250 -1.6348
  861TIP3    H224219   2.938   4.744   0.071  0.0765  1.9255 -2.4207
  862TIP3   OH224220   6.033   2.417   6.614 -0.0739 -0.2965  0.0217
  862TIP3    H124221   6.126   2.433   6.597 -0.0932  0.4641  0.5931
  862TIP3    H224222   6.010   2.345   6.555  0.8009 -0.2916 -0.3398
  863TIP3   OH224223   3.393   4.963   2.203  0.3244 -0.7215  0.1633
  863TIP3    H124224   3.477   4.917   2.195  0.1491 -1.0961  0.5004
  863TIP3    H224225   3.339   4.927   2.133 -0.3458 -2.1703  1.3932
  864TIP3   OH224226   5.457   2.335   1.384 -0.2424 -0.4171  0.3241
  864TIP3    H124227   5.502   2.288   1.455 -0.2323 -0.0303  0.5839
  864TIP3    H224228   5.528   2.374   1.333 -0.2616  1.1018  1.3629
  865TIP3   OH224229   4.870   1.922   1.819 -0.1218 -0.1648 -0.2929
  865TIP3    H124230   4.846   1.905   1.910 -1.1523  1.0739 -0.3117
  865TIP3    H224231   4.962   1.949   1.823 -0.3427  0.4870  0.4520
  866TIP3   OH224232   0.710   0.711   7.736 -0.2637  0.1596 -0.0383
  866TIP3    H124233   0.727   0.667   7.819  2.2425 -1.2295 -1.1894
  866TIP3    H224234   0.721   0.804   7.756  2.4276 -0.2566  0.8407
  867TIP3   OH224235   3.981   6.258   0.689 -0.0622  0.3851  0.1258
  867TIP3    H124236   3.982   6.198   0.764  2.2053  0.1881  0.0013
  867TIP3    H224237   4.073   6.283   0.677 -0.3853  0.5843 -2.4613
  868TIP3   OH224238   4.259   3.403   7.184  0.1076 -0.3492  0.7367
  868TIP3    H124239   4.224   3.450   7.260 -1.1946 -0.8914  0.5116
  868TIP3    H224240   4.186   3.346   7.156  1.4577 -2.1531  0.7217
  869TIP3   OH224241   0.194   2.059   0.779 -0.1172  0.3222 -0.1993
  869TIP3    H124242   0.205   2.091   0.868  1.1080 -0.2475 -0.1159
  869TIP3    H224243   0.276   2.084   0.735 -0.0435 -0.7793 -0.7110
  870TIP3   OH224244   2.696   6.241   2.488  0.2785  0.0779 -0.1745
  870TIP3    H124245   2.669   6.156   2.524 -1.6234  1.6783  2.5873
  870TIP3    H224246   2.783   6.256   2.525 -0.0958  0.0206  0.7848
  871TIP3   OH224247   3.236   5.511   6.627  0.1036 -0.0549  0.1216
  871TIP3    H124248   3.265   5.477   6.542  2.3171 -0.0948  0.8406
  871TIP3    H224249   3.170   5.577   6.604  0.0476 -0.6368 -1.5753
  872TIP3   OH224250   5.274   4.320   2.332  0.4882 -0.1768 -0.2270
  872TIP3    H124251   5.342   4.330   2.399  0.2804  0.5865 -0.1141
  872TIP3    H224252   5.284   4.230   2.301  0.8650 -0.4080  0.5286
  873TIP3   OH224253   2.767   2.529   1.986 -0.2865 -0.7396 -0.4187
  873TIP3    H124254   2.688   2.476   1.997 -0.5794 -0.5054 -1.2516
  873TIP3    H224255   2.742   2.615   2.019  0.1931 -1.1050  0.9453
  874TIP3   OH224256   6.298   2.075   1.374  0.4814  0.4897 -0.0900
  874TIP3    H124257   6.215   2.027   1.379  0.0122  0.8200 -2.7540
  874TIP3    H224258   6.275   2.155   1.327  2.1692  0.9258 -0.2090
  875TIP3   OH224259   6.106   1.753   0.016  0.3209  0.1778 -0.0234
  875TIP3    H124260   6.135   1.665  -0.006  0.1209 -0.2891  1.4905
  875TIP3    H224261   6.048   1.742   0.091  0.2472  1.5848  0.1606
  876TIP3   OH224262   3.605   1.106   6.962  0.5495 -0.9004 -0.0571
  876TIP3    H124263   3.560   1.176   6.914  0.0516 -1.5052 -0.4854
  876TIP3    H224264   3.578   1.025   6.918  2.6337 -1.2495 -0.7922
  877TIP3   OH224265   1.677   4.017   0.533 -0.6014  0.5136  0.5355
  877TIP3    H124266   1.623   3.961   0.477 -0.3222  1.8289 -1.1245
  877TIP3    H224267   1.663   3.983   0.621 -2.0090 -0.8751 -0.1736
  878TIP3   OH224268   2.706   3.417   1.591 -0.4255 -0.1782 -0.5828
  878TIP3    H124269   2.621   3.453   1.618 -0.9497 -0.8865 -1.2484
  878TIP3    H224270   2.770   3.463   1.646 -1.2437  0.2820  0.0089
  879TIP3   OH224271   0.581   0.312   1.579  0.0896  0.2024  0.9611
  879TIP3    H124272   0.631   0.240   1.617  0.5129  0.1248  0.2830
  879TIP3    H224273   0.553   0.364   1.654  0.1239 -0.4434  1.4342
  880TIP3   OH224274   4.419   5.905   2.502 -0.2840 -0.2022  0.3990
  880TIP3    H124275   4.374   5.951   2.572 -0.3774 -0.4048  0.4739
  880TIP3    H224276   4.388   5.814   2.509  0.0413 -0.3180  0.3767
  881TIP3   OH224277   1.644   4.817   0.950 -0.1889  0.0140  0.6515
  881TIP3    H124278   1.690   4.734   0.965 -0.5179 -0.0344  1.4727
  881TIP3    H224279   1.621   4.847   1.038 -1.4688  0.1805  0.2771
  882TIP3   OH224280   3.779   2.689   8.256  0.2221 -0.4416  0.6109
  882TIP3    H124281   3.873   2.702   8.266  0.5442 -1.7371 -0.4917
  882TIP3    H224282   3.746   2.682   8.346  1.3040 -0.7316  1.0000
  883TIP3   OH224283   5.918   0.258   7.621 -0.6383 -0.4406  0.5347
  883TIP3    H124284   5.895   0.254   7.528  1.2727  0.6795 -0.0510
  883TIP3    H224285   5.874   0.337   7.653  1.3702  1.0924 -0.3097
  884TIP3   OH224286   2.848   6.255   0.022 -0.3912  0.0230 -0.6675
  884TIP3    H124287   2.794   6.176   0.014 -0.3479 -0.0191 -0.5466
  884TIP3    H224288   2.788   6.322   0.053  0.0584 -0.5339  1.5594
  885TIP3   OH224289   1.186   6.449   8.547  0.1140 -0.4270  0.0214
  885TIP3    H124290   1.148   6.398   8.619 -0.6987  2.3983  1.7448
  885TIP3    H224291   1.110   6.487   8.503  0.7101  1.6083  0.6554
  886TIP3   OH224292   0.380   6.130   0.357  0.1626 -0.0575  0.2075
  886TIP3    H124293   0.472   6.146   0.336  0.3749 -1.0726  0.3033
  886TIP3    H224294   0.355   6.204   0.412  0.9781  0.1310  0.3460
  887TIP3   OH224295   0.801   3.389   8.357  0.9756 -0.2504 -0.1042
  887TIP3    H124296   0.730   3.432   8.406  0.0481 -2.1887  0.3669
  887TIP3    H224297   0.845   3.334   8.422  2.0092 -0.1821 -0.7219
  888TIP3   OH224298   5.613   2.750   6.825 -0.2977 -0.5544  0.2569
  888TIP3    H124299   5.525   2.734   6.858 -0.1578 -0.8177  0.5114
  888TIP3    H224300   5.605   2.828   6.770 -0.6760 -0.5430  0.3287
  889TIP3   OH224301   6.221   4.965   0.974 -0.1576  0.5984  0.3480
  889TIP3    H124302   6.307   4.950   1.015  0.0212  2.8293  0.9333
  889TIP3    H224303   6.174   5.018   1.038 -1.1927  1.1847 -0.8681
  890TIP3   OH224304   5.928   2.337   7.220  0.4633 -0.2064 -0.2454
  890TIP3    H124305   5.872   2.299   7.288  1.2489 -0.5309  0.2307
  890TIP3    H224306   5.960   2.261   7.171  0.9679 -0.0726 -0.1291
  891TIP3   OH224307   4.377   2.695   0.746 -0.0791 -0.0175  0.2537
  891TIP3    H124308   4.466   2.723   0.769  0.1396  0.2058 -0.8099
  891TIP3    H224309   4.382   2.600   0.741  0.3358  0.0438 -0.6871
  892TIP3   OH224310   5.148   2.997   2.220 -0.5117  0.3141  0.3150
  892TIP3    H124311   5.132   2.907   2.250  0.9885  0.2090  0.9203
  892TIP3    H224312   5.165   3.045   2.301  0.7766  0.6636 -0.1378
  893TIP3   OH224313   4.909   3.360   0.534 -0.4569  0.4950  0.1505
  893TIP3    H124314   4.920   3.437   0.478 -1.7750  0.6822  0.1261
  893TIP3    H224315   4.977   3.370   0.601  0.5946  0.7003 -0.9069
  894TIP3   OH224316   4.109   5.137   1.618  0.3104  0.0212  0.0838
  894TIP3    H124317   4.163   5.089   1.680  0.3778 -0.0744 -0.0490
  894TIP3    H224318   4.167   5.205   1.583  0.2854  0.0454  0.0901
  895TIP3   OH224319   0.104   2.494   1.132  0.2687  0.0551 -0.5438
  895TIP3    H124320   0.073   2.470   1.219  0.8878  1.3608  0.0705
  895TIP3    H224321   0.031   2.541   1.093  0.0285 -0.4363 -0.6859
  896TIP3   OH224322   6.206   0.795   8.497  0.1575 -0.2675  0.2453
  896TIP3    H124323   6.188   0.867   8.436  1.2371 -0.1180  0.0880
  896TIP3    H224324   6.238   0.839   8.576 -0.0975 -0.5276  0.4936
  897TIP3   OH224325   6.658   4.615   0.887  0.1529  0.0065  0.0220
  897TIP3    H124326   6.709   4.626   0.967  1.6882  1.2771 -1.0730
  897TIP3    H224327   6.631   4.703   0.863 -1.3583 -0.4856 -0.2355
  898TIP3   OH224328   6.843   5.956   7.202  0.6282  0.0946  0.3467
  898TIP3    H124329   6.937   5.972   7.197  0.5813  0.1061 -0.9516
  898TIP3    H224330   6.814   5.955   7.111 -0.4349 -1.1072  0.6643
  899TIP3   OH224331   5.376   6.731   7.039 -0.0110 -0.2695 -0.3721
  899TIP3    H124332   5.335   6.801   6.988 -0.2676 -1.7338 -2.2773
  899TIP3    H224333   5.466   6.728   7.007  0.2280 -0.2784  0.2922
  900TIP3   OH224334   6.823   3.933   6.907 -0.3578 -0.0084  0.6520
  900TIP3    H124335   6.911   3.902   6.885  0.1125  1.7050 -0.1076
  900TIP3    H224336   6.772   3.921   6.826 -0.6740 -0.5023  0.9234
  901TIP3   OH224337   0.586   0.775   6.545 -0.1125  0.0850 -0.0347
  901TIP3    H124338   0.664   0.820   6.511  0.1689 -1.4079 -1.5694
  901TIP3    H224339   0.612   0.744   6.632  1.6377 -1.6382 -1.0694
  902TIP3   OH224340   0.152   4.740   1.224 -0.6427  0.3458  0.0122
  902TIP3    H124341   0.114   4.669   1.276  0.6965  0.3338  1.0199
  902TIP3    H224342   0.125   4.820   1.270 -2.1833  0.5518 -1.1428
  903TIP3   OH224343   0.377   1.549   0.929  0.0975  0.9400  0.1297
  903TIP3    H124344   0.343   1.634   0.902  0.2601  1.0731  0.3375
  903TIP3    H224345   0.472   1.560   0.927  0.1112  0.9017  0.5948
  904TIP3   OH224346   4.428   4.400   6.257 -0.7454  0.1498 -0.3857
  904TIP3    H124347   4.338   4.392   6.288 -0.5739 -0.7021 -0.0697
  904TIP3    H224348   4.430   4.352   6.175 -0.3520 -0.7034  0.1122
  905TIP3   OH224349   3.724   2.669   1.441  0.0918 -0.5733  0.3957
  905TIP3    H124350   3.740   2.584   1.402  1.0501 -0.4941  0.6087
  905TIP3    H224351   3.687   2.722   1.370 -0.3335 -1.1041  0.2177
  906TIP3   OH224352   4.984   3.882   0.074  0.0964  0.2677  0.0201
  906TIP3    H124353   4.971   3.965   0.120 -0.6079  0.3564 -0.3260
  906TIP3    H224354   4.897   3.842   0.074 -0.0544  0.5518 -1.7805
  907TIP3   OH224355   3.605   1.434   8.261 -0.1691 -0.0283 -0.1701
  907TIP3    H124356   3.666   1.501   8.292 -0.6905  0.1609  0.4798
  907TIP3    H224357   3.614   1.363   8.325 -0.9625  0.1980  0.2116
  908TIP3   OH224358   5.133   5.245   8.395  0.1568 -0.1124 -0.2468
  908TIP3    H124359   5.135   5.153   8.369 -0.3812  0.2981 -1.8556
  908TIP3    H224360   5.179   5.248   8.479 -0.0747 -1.8797 -0.0304
  909TIP3   OH224361   3.852   4.524   6.826  0.2973 -0.4622 -0.0399
  909TIP3    H124362   3.833   4.561   6.912 -1.4440 -0.3190 -0.4469
  909TIP3    H224363   3.893   4.595   6.777 -0.8011  0.1831 -0.0433
  910TIP3   OH224364   6.183   3.323   6.988  0.2065 -0.1275  0.0204
  910TIP3    H124365   6.243   3.369   7.047  1.6524 -1.0277 -0.6846
  910TIP3    H224366   6.180   3.234   7.023  0.2691 -0.4052 -0.6795
  911TIP3   OH224367   5.405   2.110   0.864  0.0695 -0.4001 -0.4814
  911TIP3    H124368   5.369   2.044   0.804 -0.8108  0.8798 -1.3982
  911TIP3    H224369   5.338   2.120   0.932 -0.5092  0.6539 -1.1893
  912TIP3   OH224370   5.451   5.923   7.420  0.3044 -0.0224  0.4154
  912TIP3    H124371   5.424   5.972   7.497 -0.6097 -1.9926  1.3973
  912TIP3    H224372   5.385   5.944   7.354  0.1206  0.3347  0.7121
  913TIP3   OH224373   4.680   0.817   0.688 -0.1503 -0.6317 -0.1768
  913TIP3    H124374   4.658   0.837   0.597 -0.3038 -4.4859 -1.1391
  913TIP3    H224375   4.609   0.855   0.739 -0.3467  1.1184 -1.6502
  914TIP3   OH224376   6.425   5.999   2.178 -0.2514  0.2060  0.1347
  914TIP3    H124377   6.492   6.011   2.111 -0.9891  2.1633 -0.3318
  914TIP3    H224378   6.379   6.083   2.181 -4.5781 -1.7377 -1.6237
  915TIP3   OH224379   6.550   0.873   0.093  0.4841  0.5947 -0.3361
  915TIP3    H124380   6.462   0.857   0.126  0.7298  0.5726  0.3379
  915TIP3    H224381   6.593   0.923   0.163  0.7571  1.3219 -0.9986
  916TIP3   OH224382   6.390   3.038   1.905  0.7501 -0.2029 -0.0151
  916TIP3    H124383   6.428   2.952   1.923  2.6612  0.8626  1.3363
  916TIP3    H224384   6.415   3.092   1.980 -0.4190  1.5587 -0.8205
  917TIP3   OH224385   1.324   2.590   6.886 -0.0660 -0.3357  0.7090
  917TIP3    H124386   1.248   2.642   6.860 -0.0544 -0.4637  0.4105
  917TIP3    H224387   1.383   2.594   6.811  0.7104  0.6644  1.3515
  918TIP3   OH224388   5.763   5.281   2.337  0.1259  0.5467 -0.4586
  918TIP3    H124389   5.672   5.256   2.353  0.4393  0.1455  0.7673
  918TIP3    H224390   5.779   5.354   2.395  0.3629  1.1507 -1.2644
  919TIP3   OH224391   5.405   0.314   7.447  0.3368  0.2500  0.4497
  919TIP3    H124392   5.416   0.222   7.425 -0.4597  0.5900 -1.6298
  919TIP3    H224393   5.362   0.314   7.532 -0.0148 -1.3059  0.2977
  920TIP3   OH224394   4.462   1.244   0.423  0.2889  0.1636 -0.2217
  920TIP3    H124395   4.397   1.314   0.427 -1.5899 -1.5255  1.0127
  920TIP3    H224396   4.415   1.171   0.383  2.3221 -0.3098 -1.8874
  921TIP3   OH224397   2.082   5.508   7.556  0.0296 -0.6107  0.6092
  921TIP3    H124398   2.000   5.491   7.603 -0.5181  1.9071  0.7107
  921TIP3    H224399   2.077   5.451   7.479 -2.6466  0.6257 -0.2733
  922TIP3   OH224400   0.617   3.095   7.447 -0.5757 -0.3091 -0.1363
  922TIP3    H124401   0.677   3.169   7.443  1.7629 -1.9515  1.8718
  922TIP3    H224402   0.624   3.053   7.361  0.5452 -0.0305 -0.1885
  923TIP3   OH224403   4.661   2.236   0.002 -0.1594  0.0054  0.0585
  923TIP3    H124404   4.583   2.267   0.047 -0.5199 -2.4190  1.2701
  923TIP3    H224405   4.649   2.141  -0.006  2.2116 -0.3164 -0.5935
  924TIP3   OH224406   6.343   2.291   0.679 -0.1022  0.0881 -0.6759
  924TIP3    H124407   6.409   2.232   0.714 -0.1027  0.2114 -0.4668
  924TIP3    H224408   6.263   2.238   0.677 -0.8377  0.8980  2.2940
  925TIP3   OH224409   4.941   2.708   7.961  0.1422  0.4451 -0.1602
  925TIP3    H124410   4.887   2.783   7.990  2.4386  1.8921  0.6278
  925TIP3    H224411   4.908   2.688   7.873 -0.5813  2.3903 -0.3935
  926TIP3   OH224412   1.806   6.205   6.303  0.4034  0.2391  0.0357
  926TIP3    H124413   1.765   6.217   6.389 -0.4299 -2.2185  0.0664
  926TIP3    H224414   1.883   6.151   6.320 -0.3191 -1.1149 -0.8446
  927TIP3   OH224415   0.685   3.617   0.690  0.3698 -0.3021  0.5604
  927TIP3    H124416   0.721   3.639   0.604 -1.4276  2.0606  0.3057
  927TIP3    H224417   0.614   3.556   0.671  0.9670 -1.0037  0.5493
  928TIP3   OH224418   2.461   3.509   1.642 -0.2476  0.0594 -0.0711
  928TIP3    H124419   2.459   3.605   1.641 -0.9278  0.0455 -0.1911
  928TIP3    H224420   2.380   3.483   1.685  0.2646 -0.4617  0.6212
  929TIP3   OH224421   0.687   1.958   0.852  0.0128 -0.6857  0.4136
  929TIP3    H124422   0.716   1.868   0.837 -0.7850 -0.4976 -3.3807
  929TIP3    H224423   0.611   1.950   0.909 -2.0395 -2.9390 -2.3174
  930TIP3   OH224424   0.208   2.046   2.868 -0.4126 -0.2807  0.2614
  930TIP3    H124425   0.303   2.057   2.868 -0.4870  0.4362  0.6354
  930TIP3    H224426   0.194   1.955   2.841  0.4476 -0.9621  1.9548
  931TIP3   OH224427   0.122   2.466   7.818 -0.1644 -0.4878  0.0886
  931TIP3    H124428   0.089   2.503   7.900  0.1006 -0.7712  0.3208
  931TIP3    H224429   0.096   2.530   7.752  0.7741  0.4137  0.5555
  932TIP3   OH224430   2.193   2.553   7.046  0.0501 -0.2298  0.1767
  932TIP3    H124431   2.159   2.467   7.021  0.2065 -0.5417  1.0222
  932TIP3    H224432   2.131   2.615   7.007 -0.1675 -0.7225 -0.2803
  933TIP3   OH224433   4.709   0.129   8.437 -0.2406  0.0237 -0.3602
  933TIP3    H124434   4.731   0.220   8.458 -2.4943  0.3629  0.7927
  933TIP3    H224435   4.706   0.085   8.521 -0.2070 -0.8840 -0.8249
  934TIP3   OH224436   1.611   1.313   0.058 -0.0929  0.4184  0.4412
  934TIP3    H124437   1.568   1.232   0.031 -0.9329  0.5643  1.2867
  934TIP3    H224438   1.704   1.290   0.066 -0.1492 -0.1590 -0.4201
  935TIP3   OH224439   2.561   3.175   2.554  0.0679 -0.1718  0.6796
  935TIP3    H124440   2.539   3.268   2.543  1.2030  0.0492  0.1681
  935TIP3    H224441   2.555   3.161   2.649  0.6712  0.6439  0.8568
  936TIP3   OH224442   3.088   5.214   1.357  0.4568 -0.1686  0.1168
  936TIP3    H124443   3.067   5.304   1.332  4.4135  1.1496  0.8954
  936TIP3    H224444   3.146   5.223   1.433  2.0778 -3.3112 -0.5790
  937TIP3   OH224445   3.339   6.199   7.750  0.4598 -0.0065  0.2728
  937TIP3    H124446   3.404   6.133   7.774 -0.2904 -0.5584  0.8210
  937TIP3    H224447   3.265   6.182   7.808 -1.2155 -1.0040 -2.0212
  938TIP3   OH224448   6.540   5.374   2.097 -1.3200  0.1763  0.2617
  938TIP3    H124449   6.592   5.387   2.017 -0.6296  2.7263  1.0467
  938TIP3    H224450   6.449   5.375   2.066 -1.0783 -2.6782 -0.9071
  939TIP3   OH224451   0.639   4.428   1.315  0.1995  0.4762 -0.5463
  939TIP3    H124452   0.715   4.377   1.284  0.3276  0.6038 -0.4399
  939TIP3    H224453   0.571   4.410   1.250  0.3241  0.3706 -0.6490
  940TIP3   OH224454   4.450   0.882   0.791 -0.2108 -0.1671  0.1401
  940TIP3    H124455   4.465   0.882   0.886 -0.4394  1.2008  0.1919
  940TIP3    H224456   4.380   0.946   0.778 -1.7965 -1.9866 -0.7407
  941TIP3   OH224457   2.439   6.035   0.652 -0.3119  0.1085  0.4714
  941TIP3    H124458   2.511   6.083   0.610 -0.4990  1.2249  1.3741
  941TIP3    H224459   2.474   5.947   0.667  0.0159 -0.1170 -1.3051
  942TIP3   OH224460   6.293   2.452   6.612  0.1529  0.0962  0.0098
  942TIP3    H124461   6.367   2.426   6.558  0.7940  1.7953 -0.0023
  942TIP3    H224462   6.298   2.396   6.689  1.0459 -0.2547 -0.2911
  943TIP3   OH224463   0.528   2.884   7.952  0.1386 -0.7420 -0.4150
  943TIP3    H124464   0.485   2.897   8.036 -1.7068 -0.3026 -1.3716
  943TIP3    H224465   0.583   2.806   7.965 -0.1615 -0.7299  1.1568
  944TIP3   OH224466   5.544   4.403   1.467 -0.3549 -0.4130  0.7294
  944TIP3    H124467   5.611   4.425   1.402  0.0517 -1.2243  0.8693
  944TIP3    H224468   5.575   4.445   1.547 -0.5530  0.0875  0.5486
  945TIP3   OH224469   6.559   2.465   1.426  0.3393 -0.0663  0.9355
  945TIP3    H124470   6.635   2.496   1.375  0.8854  0.5448  2.0882
  945TIP3    H224471   6.588   2.384   1.467 -0.3344 -0.9417 -0.2302
  946TIP3   OH224472   0.353   5.050   0.240  0.2703 -0.4264  0.4848
  946TIP3    H124473   0.428   5.077   0.293  0.9254  2.0316 -1.4587
  946TIP3    H224474   0.281   5.042   0.302  1.7446 -1.2286  2.1844
  947TIP3   OH224475   2.527   3.733   0.066  0.1174  0.2203 -0.2922
  947TIP3    H124476   2.508   3.784   0.145  0.2504 -0.9918  0.5483
  947TIP3    H224477   2.620   3.749   0.049 -0.4275  2.4446 -1.6963
  948TIP3   OH224478   2.965   1.089   0.168 -0.0346 -0.0792 -0.1415
  948TIP3    H124479   2.998   1.067   0.081 -0.4676  0.1639 -0.3640
  948TIP3    H224480   2.978   1.183   0.176  2.8433 -0.4521  1.2305
  949TIP3   OH224481   2.845   0.909   1.538  0.1167 -0.1145  0.4459
  949TIP3    H124482   2.910   0.839   1.548  1.1991  0.9683  1.3294
  949TIP3    H224483   2.825   0.937   1.627 -0.5574  0.4682  0.1224
  950TIP3   OH224484   5.437   0.993   2.158 -0.0833 -0.0027 -0.2018
  950TIP3    H124485   5.407   0.923   2.215 -0.7878 -1.2330 -1.9686
  950TIP3    H224486   5.506   0.953   2.106 -0.9003  0.3793 -1.6532
  951TIP3   OH224487   6.852   4.594   6.968  0.2494  0.1265  0.1309
  951TIP3    H124488   6.905   4.521   7.001  0.5459  1.0799  1.9376
  951TIP3    H224489   6.912   4.669   6.969 -1.1516  1.3439  2.6855
  952TIP3   OH224490   4.362   1.520   7.266 -0.0339  0.1438 -0.0689
  952TIP3    H124491   4.450   1.546   7.239  0.1842 -0.1561  0.3507
  952TIP3    H224492   4.358   1.426   7.251 -0.8633  0.4081 -1.6918
  953TIP3   OH224493   6.033   4.473   2.778  0.2641 -0.2069 -0.1126
  953TIP3    H124494   6.043   4.409   2.708  0.9316  0.5053 -0.6932
  953TIP3    H224495   5.944   4.506   2.768  0.7803  0.8559 -1.5003
  954TIP3   OH224496   2.284   0.633   0.603 -0.4617  0.1722 -0.0690
  954TIP3    H124497   2.376   0.650   0.584 -0.4195  0.9174  0.7126
  954TIP3    H224498   2.270   0.673   0.689 -1.9646  1.6722 -0.9589
  955TIP3   OH224499   2.977   2.910   1.208  0.3518  0.1009 -0.1858
  955TIP3    H124500   3.006   2.832   1.256 -1.3981 -0.2064  0.4278
  955TIP3    H224501   2.970   2.882   1.117  0.4446 -0.2410 -0.0866
  956TIP3   OH224502   3.920   0.531   0.959  0.4299  0.6706  0.3534
  956TIP3    H124503   3.891   0.456   1.010  0.7230  0.0896 -0.3175
  956TIP3    H224504   3.845   0.552   0.903  0.3880  0.8084  0.4607
  957TIP3   OH224505   4.839   6.574   6.859 -0.2159 -0.2004  0.0052
  957TIP3    H124506   4.813   6.634   6.929  1.4726  0.5484  0.0229
  957TIP3    H224507   4.798   6.611   6.780 -0.3619  0.1570  0.2451
  958TIP3   OH224508   5.392   3.045   1.478  0.4923 -0.1248 -0.6085
  958TIP3    H124509   5.465   2.986   1.461 -0.6983 -1.4006 -1.5232
  958TIP3    H224510   5.377   3.089   1.394 -0.9208 -1.2399 -0.9906
  959TIP3   OH224511   1.890   6.610   1.216  0.4256 -0.0809 -0.3945
  959TIP3    H124512   1.812   6.613   1.160  0.3977  0.6427 -0.3315
  959TIP3    H224513   1.919   6.701   1.221  0.8064 -0.2290  0.2404
  960TIP3   OH224514   0.399   2.360   0.754  0.0460 -0.3859 -0.1426
  960TIP3    H124515   0.369   2.399   0.836  1.0303  0.4278 -0.1478
  960TIP3    H224516   0.466   2.297   0.781  0.5393  0.0539 -0.3344
  961TIP3   OH224517   2.002   6.197   7.955 -0.1592  0.3084 -0.2709
  961TIP3    H124518   1.960   6.226   7.874 -0.5889 -1.0581 -0.5706
  961TIP3    H224519   1.941   6.224   8.024 -0.4897  0.2318 -0.5280
  962TIP3   OH224520   1.391   6.001   7.497  0.4981 -0.8043  0.0031
  962TIP3    H124521   1.321   5.970   7.439  1.2001 -0.5189 -1.0293
  962TIP3    H224522   1.357   5.986   7.585 -2.2316  2.2024 -0.3476
  963TIP3   OH224523   2.481   5.842   0.215 -0.6648 -0.2767  0.1332
  963TIP3    H124524   2.533   5.770   0.251  0.2904  0.3652  0.0713
  963TIP3    H224525   2.524   5.921   0.248 -0.2373  0.3228 -1.7272
  964TIP3   OH224526   1.669   3.476   7.383 -0.4345  0.2233  0.2201
  964TIP3    H124527   1.656   3.534   7.309 -1.0511 -0.0615  0.0969
  964TIP3    H224528   1.737   3.415   7.354  0.0798  0.7656  0.2831
  965TIP3   OH224529   0.384   3.247   1.930 -0.3840 -0.1224 -0.5436
  965TIP3    H124530   0.433   3.322   1.898  0.2449 -0.6745 -0.8930
  965TIP3    H224531   0.449   3.178   1.943 -1.0499 -0.8834 -1.0604
  966TIP3   OH224532   1.052   6.543   0.345 -0.0304 -0.1865 -0.3165
  966TIP3    H124533   0.983   6.554   0.279 -0.3628 -2.0551 -0.3393
  966TIP3    H224534   1.050   6.449   0.365  1.9137 -0.1129  0.3512
  967TIP3   OH224535   0.192   4.203   7.502  0.2381 -0.3729  0.6587
  967TIP3    H124536   0.258   4.151   7.457 -0.0468 -0.4746  0.3502
  967TIP3    H224537   0.158   4.145   7.570 -0.7815 -0.9728 -0.3145
  968TIP3   OH224538   2.636   1.789   8.311  0.1195 -0.8822  0.5294
  968TIP3    H124539   2.605   1.725   8.247  1.1218 -2.6971  1.7831
  968TIP3    H224540   2.723   1.815   8.279 -0.6864  0.7299 -0.5276
  969TIP3   OH224541   3.595   5.057   7.323  0.3728  0.0445  0.7238
  969TIP3    H124542   3.570   5.136   7.275  4.0146  1.5054  0.9120
  969TIP3    H224543   3.619   4.994   7.256 -0.2408 -0.0413  0.5854
  970TIP3   OH224544   0.569   2.992   0.677 -0.3679 -0.3752 -0.6841
  970TIP3    H124545   0.621   2.963   0.752  0.2078 -0.8888 -1.2676
  970TIP3    H224546   0.545   2.911   0.632 -0.4659 -0.0566 -1.2160
  971TIP3   OH224547   2.057   3.681   8.398  0.3665 -0.5094  0.3366
  971TIP3    H124548   2.106   3.602   8.375 -0.2681 -1.3395  1.6984
  971TIP3    H224549   2.110   3.724   8.465  0.5079 -0.0069 -0.1000
  972TIP3   OH224550   4.113   1.504   7.035 -0.1773  0.3538  0.1875
  972TIP3    H124551   4.069   1.511   6.950  1.0093 -0.5609 -0.5328
  972TIP3    H224552   4.103   1.412   7.059  0.9401  0.2384  0.2224
  973TIP3   OH224553   0.896   2.956   6.294 -0.1101  0.0576 -0.0127
  973TIP3    H124554   0.879   3.050   6.305 -0.5715 -0.1928  1.7251
  973TIP3    H224555   0.843   2.914   6.362  3.1352 -1.1613  2.0232
  974TIP3   OH224556   5.895   4.437   0.028  0.4735  0.1058  0.2431
  974TIP3    H124557   5.841   4.494   0.084 -0.1789  0.1321 -0.3930
  974TIP3    H224558   5.832   4.377  -0.013  1.0345 -0.4069  0.1247
  975TIP3   OH224559   4.873   6.534   7.970 -0.0879 -0.9632  0.2851
  975TIP3    H124560   4.933   6.608   7.974  0.3583 -1.3488  0.8978
  975TIP3    H224561   4.896   6.489   7.888  0.5827 -1.2035  0.5984
  976TIP3   OH224562   6.640   3.749   7.056 -0.1495 -0.4441  0.9295
  976TIP3    H124563   6.693   3.800   6.995  0.4060 -0.8919  1.0267
  976TIP3    H224564   6.551   3.783   7.045  0.1372  0.2343  0.6772
  977TIP3   OH224565   2.375   1.539   1.390 -0.4396  0.1059 -0.2385
  977TIP3    H124566   2.421   1.493   1.460 -0.3464 -2.0041 -1.6183
  977TIP3    H224567   2.287   1.553   1.424 -0.1169 -0.0024  0.6581
  978TIP3   OH224568   5.538   3.637   6.649  0.7565 -0.0990 -0.3706
  978TIP3    H124569   5.600   3.709   6.660  0.4376  0.0952  0.2196
  978TIP3    H224570   5.562   3.596   6.566  1.3528  0.2854 -0.3893
  979TIP3   OH224571   2.225   1.167   7.547  0.8017  0.7621 -1.3198
  979TIP3    H124572   2.291   1.104   7.517  1.4977  1.9067 -2.2783
  979TIP3    H224573   2.267   1.214   7.619 -0.4398 -1.1567  0.8199
  980TIP3   OH224574   2.420   3.768   2.225  0.4570 -0.3104 -0.4948
  980TIP3    H124575   2.447   3.779   2.134  2.8565 -0.0098  0.1924
  980TIP3    H224576   2.500   3.741   2.271 -1.0297 -1.9794  1.2799
  981TIP3   OH224577   3.435   4.560   2.097  0.1892 -0.4499  0.2077
  981TIP3    H124578   3.352   4.602   2.117 -0.1361 -1.2992  0.6660
  981TIP3    H224579   3.467   4.528   2.181  1.4306  0.6382  0.1994
  982TIP3   OH224580   2.669   3.755   0.883 -0.0361  0.0391  0.1982
  982TIP3    H124581   2.716   3.753   0.966  0.2170 -0.1142  0.0484
  982TIP3    H224582   2.627   3.669   0.876 -0.4646  0.2272  0.4037
  983TIP3   OH224583   4.397   6.404   7.158 -0.2808  0.6335 -0.3654
  983TIP3    H124584   4.330   6.472   7.165 -2.2805 -1.3034  0.4244
  983TIP3    H224585   4.478   6.452   7.139 -1.4479  3.2695  0.8408
  984TIP3   OH224586   2.560   5.640   6.451 -0.0381  0.2953  0.2201
  984TIP3    H124587   2.538   5.560   6.404 -0.8863  0.2128  0.7174
  984TIP3    H224588   2.618   5.611   6.522 -0.5446  0.0729  0.5501
  985TIP3   OH224589   1.612   0.131   8.386 -0.3496  0.2429 -0.4259
  985TIP3    H124590   1.605   0.067   8.456  0.7631  0.8594  0.2820
  985TIP3    H224591   1.595   0.082   8.305 -0.7090 -0.6674  0.1948
  986TIP3   OH224592   4.499   1.516   8.557  0.0968 -0.4768 -0.0609
  986TIP3    H124593   4.586   1.554   8.549 -0.8403  1.4046 -3.1432
  986TIP3    H224594   4.446   1.585   8.597 -0.1508 -1.3944  1.2626
  987TIP3   OH224595   0.324   0.951   0.366 -0.0550  0.4635  0.0070
  987TIP3    H124596   0.367   1.002   0.297 -0.5122 -0.1919 -0.7749
  987TIP3    H224597   0.396   0.916   0.418  0.4353 -0.9489 -1.5112
  988TIP3   OH224598   6.057   6.060   1.142  0.4542 -0.0157  0.2167
  988TIP3    H124599   6.119   6.071   1.070  1.2131 -0.8511  0.7130
  988TIP3    H224600   6.021   6.148   1.157  0.3692  0.1851 -1.0875
  989TIP3   OH224601   3.506   1.648   1.122  0.2302  0.0054 -0.6841
  989TIP3    H124602   3.592   1.636   1.080  1.3368  2.3732  0.6461
  989TIP3    H224603   3.503   1.742   1.141 -2.6557 -0.0373 -0.5921
  990TIP3   OH224604   0.055   3.571   0.685 -0.9623 -0.0202  0.1812
  990TIP3    H124605   0.088   3.536   0.602 -1.2482 -0.0942  0.0977
  990TIP3    H224606   0.134   3.596   0.733 -0.7757 -0.3617  0.0565
  991TIP3   OH224607   4.525   5.788   0.365  0.1015 -0.1434  0.5870
  991TIP3    H124608   4.600   5.729   0.356 -1.1478 -1.5344 -1.9891
  991TIP3    H224609   4.536   5.851   0.294 -1.2601 -0.5276  0.0057
  992TIP3   OH224610   4.145   4.884   1.349 -0.7093  0.2335 -0.2778
  992TIP3    H124611   4.162   4.790   1.345 -0.8380  0.2538 -1.5809
  992TIP3    H224612   4.078   4.893   1.418  0.7708 -0.3738  1.3105
  993TIP3   OH224613   1.337   0.958   6.519 -0.3253 -0.4579 -0.0664
  993TIP3    H124614   1.275   0.978   6.589 -1.9269  0.9552 -1.7974
  993TIP3    H224615   1.413   1.013   6.539 -1.4048  1.1814 -0.2479
  994TIP3   OH224616   6.323   2.583   0.686 -0.4025  0.2069  0.3321
  994TIP3    H124617   6.403   2.633   0.700 -0.8931  1.2682 -0.4587
  994TIP3    H224618   6.351   2.492   0.688  0.4849  0.4772  2.0475
  995TIP3   OH224619   3.808   2.277   0.542  0.1043  0.0658  0.1451
  995TIP3    H124620   3.896   2.311   0.522  0.1201 -0.4082 -0.6208
  995TIP3    H224621   3.821   2.183   0.552 -0.2715  0.0345  0.3442
  996TIP3   OH224622   5.721   1.889   2.689  0.3043 -0.0552 -0.0197
  996TIP3    H124623   5.646   1.932   2.729  1.3458  0.7719  1.1047
  996TIP3    H224624   5.747   1.947   2.618 -0.6185 -0.7756 -0.9817
  997TIP3   OH224625   0.639   2.002   7.578 -0.1727  0.6156 -0.3098
  997TIP3    H124626   0.723   1.964   7.550 -1.1778 -0.1606 -2.4912
  997TIP3    H224627   0.644   2.003   7.674  0.4280 -4.0296 -0.0713
  998TIP3   OH224628   4.724   4.817   0.088  0.3417 -0.3714  0.2286
  998TIP3    H124629   4.762   4.811   0.000 -1.4954  1.1105 -0.7461
  998TIP3    H224630   4.783   4.767   0.143  1.5008 -1.4505 -1.8693
  999TIP3   OH224631   2.274   5.567   1.286 -0.0548 -0.3430 -0.2956
  999TIP3    H124632   2.281   5.482   1.331 -2.5733  0.1098  1.2102
  999TIP3    H224633   2.263   5.630   1.357  0.5044  1.0823 -1.4391
 1000TIP3   OH224634   1.389   5.662   8.379 -0.3956 -0.0403 -0.5892
 1000TIP3    H124635   1.424   5.580   8.413  0.1066 -0.1766 -1.4088
 1000TIP3    H224636   1.437   5.730   8.426 -0.3915 -0.2202 -0.3346
 1001TIP3   OH224637   4.045   0.098   8.385 -0.3696 -0.4861 -0.1162
 1001TIP3    H124638   3.986   0.136   8.319 -0.9965 -1.7364 -0.3170
 1001TIP3    H224639   4.124   0.075   8.336 -0.3733 -0.3317 -0.1946
 1002TIP3   OH224640   0.578   2.955   2.170 -0.4738 -0.5623 -0.5397
 1002TIP3    H124641   0.599   3.042   2.203 -0.8427 -0.8614  0.5314
 1002TIP3    H224642   0.658   2.927   2.125  0.4484 -0.5029  0.9504
 1003TIP3   OH224643   3.907   2.894   7.434 -0.4407  0.5805  0.2798
 1003TIP3    H124644   3.850   2.842   7.491 -1.0633  3.0017  2.0152
 1003TIP3    H224645   3.989   2.846   7.433 -0.3369  0.4731  3.4570
 1004TIP3   OH224646   6.748   2.470   7.811  0.5388  0.0089 -0.2662
 1004TIP3    H124647   6.724   2.435   7.896  1.4917  0.0166  0.0185
 1004TIP3    H224648   6.781   2.558   7.829 -0.2243  0.4208 -0.7765
 1005TIP3   OH224649   0.362   3.239   8.240 -0.2154 -0.1788  0.0062
 1005TIP3    H124650   0.413   3.165   8.273 -0.9356  1.0542  4.7154
 1005TIP3    H224651   0.426   3.300   8.204  0.6277 -1.9491 -1.6199
 1006TIP3   OH224652   5.329   0.980   7.186 -0.4313 -1.1366  0.4453
 1006TIP3    H124653   5.299   1.003   7.099 -1.2595 -2.4840  0.3529
 1006TIP3    H224654   5.318   1.060   7.237  0.3869 -0.2391 -0.7494
 1007TIP3   OH224655   2.153   5.649   8.124 -0.0912  0.3990 -0.4180
 1007TIP3    H124656   2.159   5.745   8.131  1.9976  0.1995  1.7986
 1007TIP3    H224657   2.076   5.626   8.176 -1.7199  0.9045 -2.4544
 1008TIP3   OH224658   0.155   2.345   2.350  0.5518  0.2339 -0.3542
 1008TIP3    H124659   0.160   2.436   2.377  1.2483  0.4164 -1.0450
 1008TIP3    H224660   0.201   2.343   2.266 -0.2976 -0.5725 -0.8091
 1009TIP3   OH224661   5.899   5.452   0.127 -0.5207  0.4430 -0.0164
 1009TIP3    H124662   5.953   5.473   0.051 -1.3938 -0.2924 -0.8605
 1009TIP3    H224663   5.832   5.519   0.129 -0.0623  0.8940  0.5608
 1010TIP3   OH224664   6.546   2.668   0.387  0.8635 -0.3281 -0.5964
 1010TIP3    H124665   6.493   2.702   0.460  0.8485  1.1191 -1.2498
 1010TIP3    H224666   6.482   2.647   0.319  0.9663 -0.6237 -0.6023
 1011TIP3   OH224667   0.369   3.994   8.460  0.5688  0.3626 -0.2391
 1011TIP3    H124668   0.319   4.062   8.415  0.4338 -0.0015 -0.6443
 1011TIP3    H224669   0.321   3.978   8.541 -0.0922 -0.1241 -0.7123
 1012TIP3   OH224670   6.699   0.923   2.426 -0.1055  0.4530  0.0334
 1012TIP3    H124671   6.674   0.843   2.473  0.4524  0.0082 -0.4056
 1012TIP3    H224672   6.618   0.973   2.418 -0.3821  0.1115  0.6653
 1013TIP3   OH224673   2.940   5.182   7.483  0.1640  0.5774  0.5322
 1013TIP3    H124674   2.944   5.096   7.525  0.9537  1.0786  1.5149
 1013TIP3    H224675   2.851   5.212   7.500 -0.2003 -0.1335 -0.0279
 1014TIP3   OH224676   1.934   6.583   7.181 -0.0514  0.1964 -0.1166
 1014TIP3    H124677   1.849   6.623   7.202  0.6429  1.8785 -0.3549
 1014TIP3    H224678   1.918   6.489   7.188 -1.4596  0.5075  1.6482
 1015TIP3   OH224679   0.670   0.694   1.295 -0.2366  0.1172  0.4174
 1015TIP3    H124680   0.706   0.720   1.209  2.0893 -0.0342  1.2676
 1015TIP3    H224681   0.602   0.758   1.313  0.0383  0.8587 -1.0198
 1016TIP3   OH224682   3.495   3.891   2.283  0.5326  0.0084  0.2181
 1016TIP3    H124683   3.424   3.841   2.322 -0.0935  0.2831 -0.5409
 1016TIP3    H224684   3.478   3.888   2.189  1.3410  0.3584  0.0515
 1017TIP3   OH224685   1.365   2.218   7.465 -0.6796 -0.8316 -1.3399
 1017TIP3    H124686   1.355   2.138   7.413 -0.1362 -1.1986 -0.8948
 1017TIP3    H224687   1.451   2.210   7.505 -0.6831 -0.0853 -1.1696
 1018TIP3   OH224688   1.981   4.251   0.293  0.3003 -0.0866 -0.1263
 1018TIP3    H124689   1.969   4.210   0.207 -1.1287 -1.0886  0.5049
 1018TIP3    H224690   2.012   4.339   0.273  0.8179 -0.5764 -1.6375
 1019TIP3   OH224691   1.869   4.017   6.964 -0.3161  0.0768 -0.5429
 1019TIP3    H124692   1.922   3.981   7.035  0.9319  1.4702 -0.7328
 1019TIP3    H224693   1.779   3.998   6.990  0.1827 -0.8748  0.6067
 1020TIP3   OH224694   0.837   6.849   0.007 -1.0739  0.1358 -0.2886
 1020TIP3    H124695   0.745   6.857  -0.016 -1.0525 -0.3947 -0.5534
 1020TIP3    H224696   0.882   6.909  -0.052 -1.4066  1.6910  0.9576
 1021TIP3   OH224697   1.467   6.267   7.133 -0.2683  0.0068 -0.5096
 1021TIP3    H124698   1.372   6.263   7.124 -0.4108  0.8901  0.4398
 1021TIP3    H224699   1.488   6.360   7.122  0.3120  0.0407  0.7372
 1022TIP3   OH224700   5.863   5.344   1.882  0.0797  0.0290  0.4644
 1022TIP3    H124701   5.874   5.288   1.958  0.9653  0.3500  0.5940
 1022TIP3    H224702   5.799   5.410   1.908 -0.9876 -0.9293  0.2981
 1023TIP3   OH224703   1.311   0.929   7.184 -0.0047 -0.8187 -0.2446
 1023TIP3    H124704   1.374   0.860   7.205  1.3438  0.2857 -0.4544
 1023TIP3    H224705   1.359   1.010   7.201 -1.2119  0.0701 -0.9210
 1024TIP3   OH224706   1.172   2.596   0.678 -0.2750  0.0008  1.0219
 1024TIP3    H124707   1.245   2.639   0.721  1.6452 -1.4103 -0.6555
 1024TIP3    H224708   1.112   2.573   0.750 -0.0641  2.8424  2.2331
 1025TIP3   OH224709   2.433   2.628   6.578  0.9008  0.8121 -0.2225
 1025TIP3    H124710   2.436   2.723   6.587  0.7290  0.6360  2.5204
 1025TIP3    H224711   2.524   2.601   6.578  0.9306  0.9122 -0.0311
 1026TIP3   OH224712   5.842   3.900   1.645  0.0925 -0.3661  0.2021
 1026TIP3    H124713   5.794   3.982   1.634  2.6680  1.3393  0.7728
 1026TIP3    H224714   5.849   3.865   1.556 -1.3138 -0.1442 -0.0113
 1027TIP3   OH224715   2.724   0.085   7.818 -0.3398  0.3930  0.1418
 1027TIP3    H124716   2.696   0.157   7.760  0.1393 -1.2877 -2.3510
 1027TIP3    H224717   2.642   0.040   7.840 -0.6960  1.8268  2.0612
 1028TIP3   OH224718   2.335   5.511   2.110  0.8306  0.8276  0.2006
 1028TIP3    H124719   2.350   5.572   2.182 -0.8709 -0.2735  1.5863
 1028TIP3    H224720   2.338   5.424   2.151 -0.8109  0.2033 -0.9049
 1029TIP3   OH224721   2.967   6.938   8.360 -0.2631  0.0228  0.4649
 1029TIP3    H124722   3.059   6.936   8.336 -0.4096  0.7349 -0.2029
 1029TIP3    H224723   2.933   7.018   8.319 -1.2183 -0.3249  0.5400
 1030TIP3   OH224724   4.019   5.159   7.541 -0.2545  0.4674 -0.3058
 1030TIP3    H124725   3.943   5.135   7.488 -0.1565 -0.6987  0.0609
 1030TIP3    H224726   4.066   5.077   7.554  0.4330  0.9728  0.4747
 1031TIP3   OH224727   2.777   1.366   7.401 -0.2304 -0.0467 -0.3870
 1031TIP3    H124728   2.785   1.274   7.426  1.2791  0.3952  1.0110
 1031TIP3    H224729   2.712   1.402   7.462 -1.7500 -0.4100 -1.7391
 1032TIP3   OH224730   5.384   1.431   7.571  0.5391  0.0718  0.0778
 1032TIP3    H124731   5.374   1.356   7.513  1.8521 -0.8222  0.9473
 1032TIP3    H224732   5.307   1.430   7.627  0.0673 -0.0203 -0.5603
 1033TIP3   OH224733   6.797   0.211   7.796 -0.0305 -0.2404 -0.8305
 1033TIP3    H124734   6.781   0.297   7.757 -0.1357 -0.4199 -1.1908
 1033TIP3    H224735   6.791   0.225   7.890  0.9496  0.3559 -0.8403
 1034TIP3   OH224736   4.306   6.772   8.351  0.9487  0.0753  0.1242
 1034TIP3    H124737   4.276   6.814   8.270 -0.0090  0.6992  0.7832
 1034TIP3    H224738   4.390   6.734   8.328  0.8771  0.5842 -1.0643
 1035TIP3   OH224739   6.651   1.501   0.765  0.1374  0.1160 -0.2814
 1035TIP3    H124740   6.733   1.483   0.810  0.4134 -0.0542 -0.8471
 1035TIP3    H224741   6.655   1.594   0.742 -0.0860  0.2498  0.2002
 1036TIP3   OH224742   5.445   3.375   0.137 -0.2658  0.0623  0.0154
 1036TIP3    H124743   5.360   3.420   0.128 -0.5371 -0.0792  1.6635
 1036TIP3    H224744   5.434   3.295   0.086 -1.8581 -0.9141  1.7809
 1037TIP3   OH224745   6.889   3.790   7.495  0.4503 -0.2568 -0.9534
 1037TIP3    H124746   6.884   3.739   7.414 -1.5612  0.3512 -1.2745
 1037TIP3    H224747   6.867   3.727   7.564  1.0876 -0.5253 -0.9902
 1038TIP3   OH224748   5.399   0.510   6.489 -0.2913  0.3664  0.1944
 1038TIP3    H124749   5.324   0.522   6.431 -0.2096 -0.5437 -0.1332
 1038TIP3    H224750   5.377   0.432   6.540  0.1872  0.4221  0.4887
 1039TIP3   OH224751   3.117   2.617   2.626  0.4192  0.4929  0.6789
 1039TIP3    H124752   3.067   2.654   2.553  0.8010  1.5122  0.9145
 1039TIP3    H224753   3.208   2.621   2.597  0.5700  0.8650  1.1808
 1040TIP3   OH224754   4.201   6.634   7.450 -0.1784  0.2500  0.0542
 1040TIP3    H124755   4.119   6.665   7.487 -1.3578 -0.9675 -1.4231
 1040TIP3    H224756   4.220   6.554   7.498 -0.4205 -0.0302 -0.3134
 1041TIP3   OH224757   6.940   5.524   8.395  0.2166 -0.6665 -0.1092
 1041TIP3    H124758   6.890   5.465   8.452  0.1146 -1.4599 -0.9971
 1041TIP3    H224759   7.028   5.524   8.433 -0.0066 -0.6886  0.4134
 1042TIP3   OH224760   3.845   6.589   0.356 -0.0771 -0.1450 -0.2325
 1042TIP3    H124761   3.823   6.511   0.407  0.4713 -0.3339 -0.2791
 1042TIP3    H224762   3.867   6.555   0.269 -0.7626  0.1522 -0.5283
 1043TIP3   OH224763   6.291   0.965   0.135 -0.4042  0.4051  0.0605
 1043TIP3    H124764   6.283   1.044   0.188 -0.0115  1.2734 -1.1454
 1043TIP3    H224765   6.263   0.894   0.194 -1.8096  1.5426  0.8226
 1044TIP3   OH224766   3.342   0.115   7.470  0.3873  0.7390 -0.2278
 1044TIP3    H124767   3.425   0.109   7.517  1.6882  1.4597 -2.2880
 1044TIP3    H224768   3.366   0.151   7.385 -1.8704 -0.3728 -1.4043
 1045TIP3   OH224769   0.804   2.946   2.034  0.5741 -0.4927 -0.3021
 1045TIP3    H124770   0.858   2.898   1.971  0.6567 -0.0141 -0.6012
 1045TIP3    H224771   0.858   2.952   2.112  0.5255 -0.9687 -0.2283
 1046TIP3   OH224772   6.265   6.803   0.264  0.2741 -0.1991 -0.5171
 1046TIP3    H124773   6.342   6.753   0.288  0.8312  1.5762  1.7532
 1046TIP3    H224774   6.290   6.894   0.278 -2.0070  0.4717 -0.3909
 1047TIP3   OH224775   1.580   1.084   0.992  0.0646 -0.8583  0.5755
 1047TIP3    H124776   1.499   1.041   0.961 -0.0016 -1.7737  1.9190
 1047TIP3    H224777   1.649   1.021   0.971  0.4121 -0.1883 -0.3345
 1048TIP3   OH224778   6.257   5.707   1.530  0.7609 -0.1359  0.2299
 1048TIP3    H124779   6.307   5.710   1.449 -0.3891 -1.5376 -0.5746
 1048TIP3    H224780   6.165   5.709   1.502  0.3020 -2.3974  1.3376
 1049TIP3   OH224781   6.279   4.137   7.775 -0.2245 -0.9378 -0.0280
 1049TIP3    H124782   6.349   4.077   7.752 -0.3286 -1.2811  0.5326
 1049TIP3    H224783   6.240   4.162   7.691  0.3468 -1.0073 -0.3163
 1050TIP3   OH224784   2.530   2.198   7.268  0.2075 -0.6025  0.1075
 1050TIP3    H124785   2.516   2.251   7.347 -1.9030  0.6460 -1.0336
 1050TIP3    H224786   2.562   2.260   7.203 -0.6939 -1.0354 -0.7709
 1051TIP3   OH224787   5.091   3.286   0.261 -0.8596  0.1887 -0.4048
 1051TIP3    H124788   5.032   3.304   0.188  1.8532  0.8060 -2.5920
 1051TIP3    H224789   5.142   3.366   0.272  2.2336 -1.5268 -1.2977
 1052TIP3   OH224790   3.203   0.218   7.143  0.5295 -0.2068 -0.3511
 1052TIP3    H124791   3.212   0.143   7.085  2.0229 -0.8163  0.6042
 1052TIP3    H224792   3.293   0.251   7.154  0.3000 -0.1192  1.5954
 1053TIP3   OH224793   3.493   3.515   8.029  0.1907  0.8438  0.3967
 1053TIP3    H124794   3.513   3.489   8.119 -0.6498  0.7781  0.5740
 1053TIP3    H224795   3.574   3.499   7.980  0.2981 -0.2219  0.9019
 1054TIP3   OH224796   3.920   5.057   1.216  0.0072  0.5220  0.3728
 1054TIP3    H124797   3.928   5.020   1.304  0.2046 -0.5951 -0.1068
 1054TIP3    H224798   3.940   5.150   1.228 -0.7519  0.5380  1.6322
 1055TIP3   OH224799   2.789   0.525   0.088 -0.5654  0.8233  0.1898
 1055TIP3    H124800   2.839   0.480   0.019 -0.9776 -0.1274  0.4872
 1055TIP3    H224801   2.698   0.509   0.066 -0.6999  0.1492  1.1627
 1056TIP3   OH224802   3.037   3.739   7.365 -0.6091 -0.1277  0.1482
 1056TIP3    H124803   2.965   3.702   7.312  0.8188 -0.4702 -1.6636
 1056TIP3    H224804   3.103   3.764   7.301  2.3451 -2.8719  1.8456
 1057TIP3   OH224805   6.098   5.439   1.131 -0.1899  0.2167 -0.0725
 1057TIP3    H124806   6.100   5.528   1.096  0.5899  0.6507  1.0010
 1057TIP3    H224807   6.186   5.405   1.114 -0.5317 -0.4166 -0.6190
 1058TIP3   OH224808   1.714   1.358   0.993  0.0854 -0.0982 -0.0553
 1058TIP3    H124809   1.683   1.267   0.994 -0.4208  0.0686  0.9938
 1058TIP3    H224810   1.675   1.395   0.914  1.8990 -1.2926 -1.6008
 1059TIP3   OH224811   4.766   5.024   7.806 -0.5854 -0.1360  0.0290
 1059TIP3    H124812   4.860   5.037   7.821  0.0658 -3.2787 -0.6075
 1059TIP3    H224813   4.747   5.073   7.726  0.9425 -0.8280 -0.8013
 1060TIP3   OH224814   4.592   2.686   6.998 -0.5377  0.2756  0.1233
 1060TIP3    H124815   4.634   2.771   7.004 -0.9956  0.4349  1.3595
 1060TIP3    H224816   4.505   2.699   7.035 -1.1780 -0.3850 -1.0716
 1061TIP3   OH224817   6.703   2.481   6.676 -0.0597  0.5638 -0.4816
 1061TIP3    H124818   6.621   2.519   6.708 -0.1931  0.4574 -0.6962
 1061TIP3    H224819   6.771   2.529   6.724 -0.2597  0.3016  0.0706
 1062TIP3   OH224820   2.540   0.311   1.128 -0.6925 -0.0617 -0.4674
 1062TIP3    H124821   2.459   0.311   1.078 -0.6555 -0.5399 -0.5279
 1062TIP3    H224822   2.513   0.330   1.218 -0.4871  4.0275 -1.0542
 1063TIP3   OH224823   0.692   1.790   8.068 -0.1487 -0.0533  0.1047
 1063TIP3    H124824   0.629   1.760   8.002 -1.1416 -0.3743  1.1790
 1063TIP3    H224825   0.651   1.770   8.152  1.2570  0.0152  0.8356
 1064TIP3   OH224826   4.509   5.541   1.526  0.1386  0.4033 -0.5099
 1064TIP3    H124827   4.503   5.549   1.430  0.2350  0.4364 -0.5133
 1064TIP3    H224828   4.587   5.487   1.540  1.0092  1.6453 -0.3971
 1065TIP3   OH224829   3.272   6.920   7.008  0.0315 -0.2928  1.0487
 1065TIP3    H124830   3.279   6.828   7.035 -0.0853 -0.9367 -0.9846
 1065TIP3    H224831   3.357   6.940   6.968 -0.7066 -0.2194 -0.5244
 1066TIP3   OH224832   1.692   2.024   1.384 -0.0947  0.3893  0.0945
 1066TIP3    H124833   1.718   2.016   1.292 -0.5252 -1.2125  0.0834
 1066TIP3    H224834   1.631   2.098   1.385 -0.5198  0.0787 -1.0225
 1067TIP3   OH224835   1.212   3.767   0.299 -0.1722 -0.1357 -0.3596
 1067TIP3    H124836   1.147   3.705   0.330 -0.9628  1.0462  0.4062
 1067TIP3    H224837   1.278   3.770   0.368  0.8854 -1.5408 -1.2566
 1068TIP3   OH224838   5.952   1.419   1.605 -0.2004 -0.1664  0.5593
 1068TIP3    H124839   6.040   1.454   1.596 -0.0203 -0.7265  0.1210
 1068TIP3    H224840   5.958   1.329   1.574 -0.7645 -0.4492  1.2419
 1069TIP3   OH224841   3.112   1.376   7.560  0.6361 -0.0624 -0.4280
 1069TIP3    H124842   3.169   1.396   7.633 -0.0071 -0.7798  0.2859
 1069TIP3    H224843   3.167   1.327   7.499  0.6321 -1.3351  0.5556
 1070TIP3   OH224844   4.514   2.735   7.749  0.0985 -0.4576  0.0707
 1070TIP3    H124845   4.487   2.664   7.807 -0.3634  0.2656  0.7607
 1070TIP3    H224846   4.447   2.738   7.681 -1.1494  0.7574  1.2896
 1071TIP3   OH224847   3.109   4.492   7.254 -0.2334  0.4079  0.2171
 1071TIP3    H124848   3.195   4.527   7.274 -0.5569  1.9397 -0.9353
 1071TIP3    H224849   3.048   4.545   7.305 -0.5515 -0.3952  0.7051
 1072TIP3   OH224850   0.834   6.557   0.090 -0.7051  0.2396 -1.2209
 1072TIP3    H124851   0.868   6.565   0.001  1.0503  3.6761 -0.3907
 1072TIP3    H224852   0.759   6.616   0.093 -0.8484  0.0338 -0.4647
 1073TIP3   OH224853   1.689   6.882   6.476 -0.4343 -0.6840 -0.5177
 1073TIP3    H124854   1.780   6.865   6.501 -0.4480 -0.3248 -0.2128
 1073TIP3    H224855   1.668   6.966   6.517  0.0810  0.7995 -3.0276
 1074TIP3   OH224856   6.918   6.113   1.661  0.0023  0.5246 -0.0936
 1074TIP3    H124857   6.962   6.113   1.746  1.7455 -1.9973 -0.8794
 1074TIP3    H224858   6.858   6.040   1.664  0.3227  0.2011 -1.1191
 1075TIP3   OH224859   1.362   1.865   7.094 -0.1568  0.4214  0.1640
 1075TIP3    H124860   1.455   1.866   7.073 -0.3970 -0.6077 -1.1444
 1075TIP3    H224861   1.328   1.789   7.047 -1.5299  0.3554  1.2039
 1076TIP3   OH224862   1.041   0.268   1.639 -0.2592  0.4306 -0.3471
 1076TIP3    H124863   1.012   0.332   1.575  0.7324 -0.4081 -1.6888
 1076TIP3    H224864   0.967   0.207   1.648  0.6882 -1.3175 -3.2302
 1077TIP3   OH224865   2.928   3.887   0.614 -0.2419 -0.3444 -0.6295
 1077TIP3    H124866   2.833   3.897   0.625 -0.2851 -2.3422  2.0058
 1077TIP3    H224867   2.951   3.815   0.673  2.8794 -0.2204 -1.5126
 1078TIP3   OH224868   2.479   5.778   8.272 -0.6370  0.4121  0.2275
 1078TIP3    H124869   2.446   5.825   8.195 -0.3867  1.8691  0.9694
 1078TIP3    H224870   2.478   5.686   8.246 -1.8912  0.7389 -1.0211
 1079TIP3   OH224871   6.516   4.465   1.193  0.0395 -0.1430 -0.1118
 1079TIP3    H124872   6.570   4.395   1.156  0.2451  0.2080 -0.4836
 1079TIP3    H224873   6.438   4.467   1.137  0.6602  0.8550 -1.0001
 1080TIP3   OH224874   6.003   3.152   0.216  0.0456  0.4211  0.2795
 1080TIP3    H124875   6.005   3.232   0.268  1.2583  0.7106 -0.1642
 1080TIP3    H224876   6.065   3.168   0.145 -0.2391 -0.6403 -0.2397
 1081TIP3   OH224877   2.232   2.787   7.212  0.5983 -0.3354  0.0848
 1081TIP3    H124878   2.205   2.713   7.157  3.1035 -0.6837 -0.8056
 1081TIP3    H224879   2.305   2.827   7.164 -0.3688  2.5066  0.7546
 1082TIP3   OH224880   1.247   0.311   1.045  0.5443 -0.1203 -0.0477
 1082TIP3    H124881   1.213   0.221   1.045  3.3306 -1.3512  2.3802
 1082TIP3    H224882   1.342   0.300   1.038  0.9403  2.6778 -0.0283
 1083TIP3   OH224883   4.644   2.974   7.016  0.1377 -0.0313 -0.1445
 1083TIP3    H124884   4.737   2.982   7.033  0.4087 -1.2323 -0.9645
 1083TIP3    H224885   4.628   3.029   6.939  0.1720  0.1536 -0.0189
 1084TIP3   OH224886   5.880   2.454   2.182  0.3449 -0.3240 -0.6742
 1084TIP3    H124887   5.828   2.374   2.176 -1.4722  0.8353 -0.8797
 1084TIP3    H224888   5.850   2.497   2.262  1.7695 -0.1143 -0.2100
 1085TIP3   OH224889   4.076   3.449   2.074 -0.0632 -0.1870 -0.4403
 1085TIP3    H124890   4.127   3.488   2.145  0.4878 -1.5687 -0.0371
 1085TIP3    H224891   4.001   3.409   2.117  0.5161 -1.4416 -0.5482
 1086TIP3   OH224892   4.530   6.894   1.585  0.7951  0.0132  0.2014
 1086TIP3    H124893   4.600   6.842   1.627  1.0101 -0.1425 -0.3365
 1086TIP3    H224894   4.486   6.938   1.657 -0.0225 -1.6849  0.7829
 1087TIP3   OH224895   4.250   0.317   1.547  0.3928  0.1462  0.6123
 1087TIP3    H124896   4.338   0.342   1.519  1.1599 -2.8382  0.0430
 1087TIP3    H224897   4.253   0.322   1.643  1.1561  0.1429  0.5971
 1088TIP3   OH224898   2.674   0.241   7.568  0.2060  0.8409 -0.1784
 1088TIP3    H124899   2.601   0.284   7.524 -0.1625  0.8666  0.4497
 1088TIP3    H224900   2.725   0.313   7.606 -0.0223  0.7721  0.2702
 1089TIP3   OH224901   0.760   1.516   0.595 -0.4492 -0.1940 -0.1458
 1089TIP3    H124902   0.791   1.436   0.637  0.3793  0.3210  0.2549
 1089TIP3    H224903   0.774   1.584   0.661 -0.2081  0.4422 -0.8403
 1090TIP3   OH224904   6.917   2.175   8.064  0.2441  0.2353 -0.0317
 1090TIP3    H124905   6.910   2.257   8.114  3.2409 -0.8422  2.4605
 1090TIP3    H224906   6.990   2.189   8.005  1.8548 -1.0759  1.5582
 1091TIP3   OH224907   4.417   5.099   1.529  0.9376  0.1912 -0.4600
 1091TIP3    H124908   4.416   5.006   1.554  2.2815  0.5885  1.2145
 1091TIP3    H224909   4.366   5.102   1.448 -0.2114 -1.8045  0.1186
 1092TIP3   OH224910   4.302   5.681   7.697 -0.5016 -0.8190 -0.2102
 1092TIP3    H124911   4.274   5.772   7.690 -3.1830 -1.6742 -1.6018
 1092TIP3    H224912   4.298   5.662   7.791  0.8273  0.6462  0.1879
 1093TIP3   OH224913   1.917   1.212   0.094 -0.7486 -0.2991 -0.0447
 1093TIP3    H124914   1.958   1.129   0.118 -0.5408 -0.6901 -1.5942
 1093TIP3    H224915   1.978   1.279   0.125 -0.3326 -0.7693  0.1724
 1094TIP3   OH224916   4.472   3.226   0.642  0.2498  0.3862 -0.6118
 1094TIP3    H124917   4.430   3.168   0.706  0.3128  2.9631  1.9882
 1094TIP3    H224918   4.562   3.194   0.636  0.1104 -0.1942  0.2389
 1095TIP3   OH224919   1.059   0.607   6.678  0.0203  0.3471 -0.3619
 1095TIP3    H124920   1.143   0.625   6.636  0.3765 -0.1525  0.1165
 1095TIP3    H224921   1.073   0.524   6.723 -0.9109 -0.0290 -0.7518
 1096TIP3   OH224922   0.762   4.516   0.648  0.1294 -0.1916 -0.2782
 1096TIP3    H124923   0.788   4.553   0.732 -1.7020  0.8535 -0.1048
 1096TIP3    H224924   0.667   4.527   0.646  0.2388  1.0871 -3.0346
 1097TIP3   OH224925   0.733   1.088   0.036  0.4013 -0.0436  0.4052
 1097TIP3    H124926   0.724   1.157  -0.031  0.8952 -1.0926 -0.7863
 1097TIP3    H224927   0.783   1.130   0.106  2.5243  0.2683 -1.1822
 1098TIP3   OH224928   2.342   6.740   1.761  0.2779  0.1918  0.7971
 1098TIP3    H124929   2.330   6.817   1.816  1.1204  1.7910 -1.1341
 1098TIP3    H224930   2.360   6.775   1.674 -0.8238 -2.2253 -0.5004
 1099TIP3   OH224931   3.231   4.235   7.012 -0.4036 -0.4908 -0.3639
 1099TIP3    H124932   3.137   4.232   6.994 -0.2815  0.5835 -1.3143
 1099TIP3    H224933   3.237   4.274   7.099 -0.8179  0.3699 -0.7088
 1100TIP3   OH224934   2.010   2.666   8.546  0.1180  0.4783 -0.3118
 1100TIP3    H124935   2.016   2.586   8.494 -0.1396 -0.1526  0.6127
 1100TIP3    H224936   1.919   2.695   8.534 -1.1367 -1.7368  2.7018
 1101TIP3   OH224937   5.057   3.781   6.742 -0.2747 -0.0776 -0.2264
 1101TIP3    H124938   5.152   3.794   6.737 -0.2448  0.3648  1.0215
 1101TIP3    H224939   5.041   3.701   6.693  1.1703 -1.9428  2.1244
 1102TIP3   OH224940   6.458   5.101   8.435 -0.1199  0.2609  0.5240
 1102TIP3    H124941   6.457   5.132   8.344  1.7132  2.9338  1.2878
 1102TIP3    H224942   6.519   5.028   8.434 -0.6155 -0.1678 -0.4779
 1103TIP3   OH224943   6.919   0.104   1.592  0.3215 -0.1003  0.4393
 1103TIP3    H124944   6.873   0.140   1.668 -0.2749 -0.3974  0.2257
 1103TIP3    H224945   6.849   0.078   1.532  0.7356 -1.7884  0.6518
 1104TIP3   OH224946   1.905   5.763   1.508 -0.2975 -0.7317 -0.4023
 1104TIP3    H124947   1.958   5.706   1.564 -1.2287 -0.5670  0.6916
 1104TIP3    H224948   1.818   5.723   1.510 -0.0462 -1.6308 -3.0595
 1105TIP3   OH224949   3.986   6.291   6.956 -0.3535 -0.2187  0.7356
 1105TIP3    H124950   3.898   6.320   6.978 -0.6071 -0.9426  0.6776
 1105TIP3    H224951   3.977   6.247   6.872  0.0511 -0.3826  0.7767
 1106TIP3   OH224952   0.962   2.058   8.260 -0.3146  0.2905 -0.0765
 1106TIP3    H124953   1.052   2.035   8.279 -0.5451  0.2085  0.9848
 1106TIP3    H224954   0.960   2.074   8.166  0.3277 -1.8572 -0.4982
 1107TIP3   OH224955   3.593   1.465   1.350  0.1720  0.1196  0.0082
 1107TIP3    H124956   3.593   1.418   1.434  0.1608 -0.4179 -0.2902
 1107TIP3    H224957   3.558   1.551   1.372 -0.2607 -0.1659  0.4747
 1108TIP3   OH224958   3.977   5.544   2.179  0.2502  0.2045 -0.2414
 1108TIP3    H124959   3.892   5.559   2.221  0.6371 -2.7412  1.9720
 1108TIP3    H224960   4.037   5.603   2.225 -0.0524 -0.1439  0.6341
 1109TIP3   OH224961   1.551   2.024   0.965 -0.3120 -0.3915 -0.2060
 1109TIP3    H124962   1.629   2.003   1.017 -0.5209  1.2539  0.8415
 1109TIP3    H224963   1.543   2.119   0.971 -4.9059 -0.6302  3.6333
 1110TIP3   OH224964   0.992   3.770   7.556  0.1705  0.0116  0.0245
 1110TIP3    H124965   0.972   3.689   7.603  1.7893 -1.4683 -1.6966
 1110TIP3    H224966   0.949   3.838   7.608 -1.0600 -1.8840  1.6679
 1111TIP3   OH224967   5.451   2.449   7.447  0.4161 -0.0067 -0.4066
 1111TIP3    H124968   5.523   2.412   7.498  0.5215  1.0584  0.2559
 1111TIP3    H224969   5.493   2.486   7.370  0.5691  0.4956 -0.0865
 1112TIP3   OH224970   1.987   5.149   7.007 -0.0918  0.0900  0.0391
 1112TIP3    H124971   1.924   5.219   7.018  0.6919  0.5635  1.7348
 1112TIP3    H224972   2.060   5.190   6.960 -1.0580 -0.5116 -2.1230
 1113TIP3   OH224973   6.688   1.816   7.382  0.1399  0.0371  0.4042
 1113TIP3    H124974   6.756   1.791   7.443 -1.0920 -0.7853  1.4961
 1113TIP3    H224975   6.683   1.744   7.319 -0.2201 -0.2454  0.7575
 1114TIP3   OH224976   6.440   2.145   1.939  0.5080 -0.2645  0.2242
 1114TIP3    H124977   6.437   2.194   1.856 -1.5373  1.0246  0.9554
 1114TIP3    H224978   6.358   2.096   1.940  0.2607  0.1309  1.6737
 1115TIP3   OH224979   3.578   6.594   1.183 -0.1654 -0.7446 -0.0560
 1115TIP3    H124980   3.649   6.580   1.120  0.1465  0.6087 -0.0419
 1115TIP3    H224981   3.569   6.510   1.229  1.0326 -1.1021 -0.4453
 1116TIP3   OH224982   0.927   0.598   1.839  0.5023 -0.5102  0.0318
 1116TIP3    H124983   0.924   0.514   1.884  1.0053 -0.1619  0.7217
 1116TIP3    H224984   0.894   0.579   1.751 -0.4672 -1.1961  0.5280
 1117TIP3   OH224985   2.176   0.194   1.622  0.1864  0.0048 -0.4484
 1117TIP3    H124986   2.134   0.188   1.708  1.8163 -0.1291  0.3728
 1117TIP3    H224987   2.249   0.254   1.635  1.9970 -1.9303 -1.0727
 1118TIP3   OH224988   0.034   1.549   1.330  0.0110  0.9667 -0.3700
 1118TIP3    H124989  -0.018   1.544   1.410  0.2982  1.8258 -0.1258
 1118TIP3    H224990   0.118   1.508   1.353 -1.5127 -3.5656 -1.6619
 1119TIP3   OH224991   6.858   6.685   1.184 -0.1371 -0.3739 -0.3259
 1119TIP3    H124992   6.848   6.670   1.089  0.0931  1.0675 -0.6036
 1119TIP3    H224993   6.911   6.764   1.190 -0.0585 -0.5123  1.0297
 1120TIP3   OH224994   2.999   4.169   0.059  0.1983  0.2259 -0.2646
 1120TIP3    H124995   3.049   4.245   0.089 -0.1480  0.9786 -1.5299
 1120TIP3    H224996   2.947   4.143   0.135 -0.0460  1.5647  0.0512
 1121TIP3   OH224997   5.238   0.263   2.283  0.1441  0.3166  0.1121
 1121TIP3    H124998   5.214   0.316   2.207  0.4728  0.9560  0.4417
 1121TIP3    H224999   5.188   0.182   2.273 -0.4536  0.7323 -0.3471
 1122TIP3   OH225000   3.287   0.891   6.576  0.0859 -0.2617 -0.2597
 1122TIP3    H125001   3.307   0.801   6.550 -2.0368 -1.1264  0.9182
 1122TIP3    H225002   3.192   0.898   6.570 -0.0460  1.0905  2.1160
 1123TIP3   OH225003   5.373   1.482   2.473 -0.1250 -0.2063 -0.0261
 1123TIP3    H125004   5.342   1.563   2.514 -1.2287 -0.8965  0.5707
 1123TIP3    H225005   5.293   1.439   2.442  0.2306 -1.9021  1.2532
 1124TIP3   OH225006   6.910   1.684   6.743  0.2042 -0.1079  0.0046
 1124TIP3    H125007   6.919   1.595   6.708  0.9905 -1.6075  3.5047
 1124TIP3    H225008   6.826   1.684   6.788  0.0059  1.0944 -0.3412
 1125TIP3   OH225009   2.351   1.065   0.543 -0.0555  0.2910 -0.1971
 1125TIP3    H125010   2.399   1.060   0.625  1.7773  0.4689 -1.2111
 1125TIP3    H225011   2.354   0.976   0.507 -1.0606  0.1559  0.0129
 1126TIP3   OH225012   2.013   0.255   1.833 -0.7583 -0.1536 -0.8870
 1126TIP3    H125013   1.969   0.239   1.916  3.0931 -0.0540  1.4562
 1126TIP3    H225014   2.017   0.351   1.826 -0.3484 -0.1558 -0.7189
 1127TIP3   OH225015   3.315   5.227   2.017 -0.1447  0.3452 -0.0802
 1127TIP3    H125016   3.282   5.142   2.045  2.7079 -1.0540 -0.6554
 1127TIP3    H225017   3.381   5.251   2.082 -1.5924  2.6928  0.6523
 1128TIP3   OH225018   1.171   3.175   7.574 -0.3880  0.4010  0.1624
 1128TIP3    H125019   1.182   3.212   7.487 -2.2889  1.7678  0.4387
 1128TIP3    H225020   1.150   3.083   7.559  1.6919  0.0206 -0.6675
 1129TIP3   OH225021   4.959   5.508   7.829 -0.2386 -0.6577 -0.8065
 1129TIP3    H125022   4.886   5.542   7.880  0.0235  0.2328 -1.0021
 1129TIP3    H225023   4.998   5.586   7.789 -0.1516 -1.2834 -1.9812
 1130TIP3   OH225024   1.245   5.567   7.256  0.0865 -0.3799  0.5612
 1130TIP3    H125025   1.254   5.554   7.162 -0.9604  2.3072 -0.0089
 1130TIP3    H225026   1.150   5.576   7.270  0.3053  0.4718  1.6618
 1131TIP3   OH225027   4.362   0.760   0.433 -0.2155 -0.0515 -0.8463
 1131TIP3    H125028   4.282   0.719   0.467  0.0266 -0.4136 -0.7012
 1131TIP3    H225029   4.417   0.686   0.406  1.6764 -0.0915  2.5710
 1132TIP3   OH225030   6.399   3.934   7.618  0.2541 -0.0074  0.1207
 1132TIP3    H125031   6.323   3.878   7.605 -0.4308  0.4149  1.9758
 1132TIP3    H225032   6.408   3.983   7.536 -0.2217 -1.5025 -0.8642
 1133TIP3   OH225033   6.257   3.723   8.166 -0.3660 -0.4517  0.6891
 1133TIP3    H125034   6.239   3.707   8.073  0.6554  0.2642  0.3486
 1133TIP3    H225035   6.352   3.715   8.174 -0.2940  0.8213  1.3980
 1134TIP3   OH225036   5.293   0.245   8.391 -0.2231 -0.2059 -0.2803
 1134TIP3    H125037   5.208   0.204   8.376  0.4014 -1.2516 -1.1029
 1134TIP3    H225038   5.289   0.277   8.482 -1.5676 -0.0094 -0.3919
 1135TIP3   OH225039   1.387   3.780   1.414 -0.0616 -0.1702  0.6676
 1135TIP3    H125040   1.361   3.776   1.322  1.6829  1.6601  0.0188
 1135TIP3    H225041   1.479   3.756   1.414  0.1739  0.6621  1.8080
 1136TIP3   OH225042   3.454   5.324   1.438  0.1372  0.1709 -0.3251
 1136TIP3    H125043   3.472   5.327   1.345  1.2529 -0.1894 -0.1306
 1136TIP3    H225044   3.393   5.251   1.449 -0.5856  0.6787 -0.8475
 1137TIP3   OH225045   2.738   6.258   7.335 -0.0152 -0.6956  0.1385
 1137TIP3    H125046   2.753   6.343   7.377 -2.1301  0.1223 -0.6502
 1137TIP3    H225047   2.810   6.203   7.367  1.7442  1.5055  0.2496
 1138TIP3   OH225048   4.432   1.959   0.535 -0.2670  0.3396 -0.0790
 1138TIP3    H125049   4.527   1.948   0.526 -0.3149  0.3553 -0.6214
 1138TIP3    H225050   4.413   1.927   0.623  0.5451  2.3839  0.8880
 1139TIP3   OH225051   4.705   5.695   7.127 -0.2506  0.5520 -0.1241
 1139TIP3    H125052   4.663   5.682   7.212 -0.8998 -0.8329 -0.6445
 1139TIP3    H225053   4.767   5.622   7.119  0.5504  1.2377 -0.4159
 1140TIP3   OH225054   5.694   0.267   0.204 -0.3020  0.4908  1.0043
 1140TIP3    H125055   5.632   0.305   0.141  0.8540  1.2081  0.2435
 1140TIP3    H225056   5.656   0.286   0.290 -0.8511  1.4251  0.5751
 1141TIP3   OH225057   5.868   6.539   7.631  0.2396 -0.1093 -0.3510
 1141TIP3    H125058   5.897   6.473   7.567 -1.1667  0.0931 -1.2377
 1141TIP3    H225059   5.830   6.608   7.577 -1.0391  0.0386  0.7190
 1142TIP3   OH225060   3.953   2.997   7.024 -0.5219 -0.3656 -0.4677
 1142TIP3    H125061   3.916   2.916   7.058  0.1270 -0.3822  0.2483
 1142TIP3    H225062   3.878   3.052   7.004 -0.9792 -0.0529  1.7817
 1143TIP3   OH225063   5.212   6.598   0.575 -0.6420 -0.1463  0.2950
 1143TIP3    H125064   5.183   6.687   0.595 -1.6720 -0.1780 -0.9580
 1143TIP3    H225065   5.228   6.599   0.481  0.2049 -1.0643  0.4164
 1144TIP3   OH225066   2.736   5.630   7.034  0.4064 -0.2519  0.1342
 1144TIP3    H125067   2.688   5.711   7.048  3.1452  1.1507  2.3892
 1144TIP3    H225068   2.710   5.573   7.107  2.4100  0.7222  1.6880
 1145TIP3   OH225069   2.817   2.210   0.612  0.3088 -0.0131  0.2060
 1145TIP3    H125070   2.895   2.171   0.651  1.9969  0.2440 -2.6641
 1145TIP3    H225071   2.830   2.304   0.620 -1.1415  0.1020  2.1755
 1146TIP3   OH225072   1.509   3.986   2.219 -0.2219 -0.1691  0.2389
 1146TIP3    H125073   1.427   4.010   2.261  0.3486 -0.9185  1.8547
 1146TIP3    H225074   1.527   4.058   2.157 -0.5485  1.5649  2.0588
 1147TIP3   OH225075   2.292   3.178   7.830 -0.3341  0.2843 -0.3170
 1147TIP3    H125076   2.282   3.125   7.751  0.3820 -1.4199  0.6691
 1147TIP3    H225077   2.386   3.177   7.847 -0.5974 -0.4868  1.2462
 1148TIP3   OH225078   6.809   5.999   1.053  0.4767  0.0525 -0.2691
 1148TIP3    H125079   6.826   6.059   1.126 -0.5063 -0.6245  0.5484
 1148TIP3    H225080   6.895   5.985   1.013  0.8194  1.5011 -0.0993
 1149TIP3   OH225081   5.082   1.401   1.194  0.0648 -0.4210  0.2573
 1149TIP3    H125082   5.060   1.412   1.286  2.1997  0.0339  0.7672
 1149TIP3    H225083   5.143   1.328   1.192  0.1160 -0.3688 -0.7858
 1150TIP3   OH225084   6.516   5.802   0.402  0.2399 -0.0333 -0.1181
 1150TIP3    H125085   6.561   5.718   0.399  3.3206  1.4702 -0.1822
 1150TIP3    H225086   6.483   5.808   0.492  1.7440 -0.5106  0.4991
 1151TIP3   OH225087   1.679   3.586   2.246 -0.0112  0.5293  0.3626
 1151TIP3    H125088   1.597   3.598   2.200  0.3815 -2.1989 -1.2623
 1151TIP3    H225089   1.660   3.518   2.311  1.0354 -0.5759 -0.4390
 1152TIP3   OH225090   1.080   2.218   1.490  0.2891  0.2041  0.2574
 1152TIP3    H125091   1.080   2.313   1.475  0.2730  0.2262  0.3961
 1152TIP3    H225092   1.021   2.184   1.423 -0.2458  0.3619  0.6338
 1153TIP3   OH225093   0.995   5.982   8.071 -0.0564  0.4076  0.2097
 1153TIP3    H125094   1.082   6.023   8.074 -0.1740  0.8491 -1.4392
 1153TIP3    H225095   1.008   5.903   8.018 -0.4421 -0.1314  0.9041
 1154TIP3   OH225096   1.527   0.783   7.974 -0.0137  0.1942  0.3199
 1154TIP3    H125097   1.579   0.716   7.931  1.2950 -0.5742  2.9444
 1154TIP3    H225098   1.513   0.849   7.906  1.3437 -1.2388 -1.4515
 1155TIP3   OH225099   2.240   0.014   1.928  0.0860  0.0286 -0.5139
 1155TIP3    H125100   2.194   0.035   2.008  0.6858  1.8468 -0.5954
 1155TIP3    H225101   2.308   0.081   1.920  1.4208 -1.3280 -1.4574
 1156TIP3   OH225102   3.235   4.923   2.004  0.6196  0.4397  0.2384
 1156TIP3    H125103   3.150   4.942   2.045  0.9343  3.5068 -0.3375
 1156TIP3    H225104   3.213   4.890   1.917  0.0506 -0.6789  0.7729
 1157TIP3   OH225105   0.346   4.859   7.373 -0.3194 -0.0811  0.0977
 1157TIP3    H125106   0.345   4.851   7.278  1.0073 -1.6950  0.1847
 1157TIP3    H225107   0.272   4.806   7.403  0.3678 -1.0839  0.0393
 1158TIP3   OH225108   0.116   6.686   7.646 -0.5094  1.0773 -0.7442
 1158TIP3    H125109   0.037   6.693   7.701 -0.9431 -0.1389 -1.1854
 1158TIP3    H225110   0.113   6.597   7.612  2.6230 -0.0769  1.5404
 1159TIP3   OH225111   2.159   2.980   0.451 -0.9840 -0.2940  0.5689
 1159TIP3    H125112   2.153   2.935   0.366  1.7863 -0.4795  0.3921
 1159TIP3    H225113   2.118   2.919   0.513 -0.8959 -1.2460 -0.2792
 1160TIP3   OH225114   0.156   3.505   6.921 -0.1738  0.2703  0.7804
 1160TIP3    H125115   0.186   3.576   6.977  0.8447 -0.2055  0.8692
 1160TIP3    H225116   0.201   3.519   6.838 -1.6772  0.9706  0.0552
 1161TIP3   OH225117   4.293   5.636   2.290  0.3423  0.0602  0.5562
 1161TIP3    H125118   4.240   5.715   2.284  0.0537 -0.1286  0.6174
 1161TIP3    H225119   4.382   5.665   2.266  0.5636  0.7413  2.0580
 1162TIP3   OH225120   1.919   5.952   0.154 -0.3504  0.1195  0.3185
 1162TIP3    H125121   2.014   5.964   0.153  0.2776 -3.3502 -2.2996
 1162TIP3    H225122   1.899   5.926   0.244  1.4668 -0.5916  0.5656
 1163TIP3   OH225123   1.341   2.830   8.256 -0.2181  0.0718 -0.2468
 1163TIP3    H125124   1.285   2.820   8.179 -0.9819 -1.8762  0.4920
 1163TIP3    H225125   1.286   2.803   8.329  1.5076 -1.4592  0.5658
 1164TIP3   OH225126   5.853   0.477   1.635 -0.7148  0.6499 -0.3560
 1164TIP3    H125127   5.840   0.563   1.597 -0.4940  1.4463  1.2583
 1164TIP3    H225128   5.930   0.441   1.590 -0.6516  1.4107 -0.8563
 1165TIP3   OH225129   2.703   4.032   7.666 -0.7788 -0.0856  0.0307
 1165TIP3    H125130   2.715   4.089   7.590 -0.3173  0.5202  0.5551
 1165TIP3    H225131   2.789   4.025   7.706 -0.4221 -2.5389 -0.9588
 1166TIP3   OH225132   2.788   1.978   7.036  0.3812  0.1780 -0.3833
 1166TIP3    H125133   2.873   1.949   7.003  0.7535 -0.7050  1.1946
 1166TIP3    H225134   2.725   1.919   6.994  0.8160 -0.7855  0.2666
 1167TIP3   OH225135   4.362   2.909   1.852  0.4064 -0.1489  0.1288
 1167TIP3    H125136   4.429   2.886   1.916 -0.1096  0.1041  0.7778
 1167TIP3    H225137   4.385   2.998   1.823  0.4389 -0.1235  0.2326
 1168TIP3   OH225138   1.275   1.659   2.257  0.3847 -0.2874 -0.0616
 1168TIP3    H125139   1.337   1.728   2.282  0.5438 -0.2414 -0.5700
 1168TIP3    H225140   1.200   1.706   2.220  1.1297 -0.4032 -1.8527
 1169TIP3   OH225141   1.724   5.230   0.812  0.3506 -0.2479 -0.2360
 1169TIP3    H125142   1.762   5.145   0.787 -1.3347 -1.2617  0.5079
 1169TIP3    H225143   1.657   5.246   0.746 -0.3692 -0.2441  0.4877
 1170TIP3   OH225144   1.629   2.203   2.556  0.1242  0.6383  0.2617
 1170TIP3    H125145   1.598   2.135   2.495 -1.0810  2.7803 -1.6971
 1170TIP3    H225146   1.698   2.248   2.508  0.9444  0.7875  1.5537
 1171TIP3   OH225147   6.518   3.835   6.406  0.0284 -0.2181  0.1233
 1171TIP3    H125148   6.577   3.910   6.406  0.3107 -0.4348 -0.0175
 1171TIP3    H225149   6.431   3.872   6.395 -0.1990  0.3259  3.0153
 1172TIP3   OH225150   6.136   2.843   6.948 -0.1164  0.5234  0.2058
 1172TIP3    H125151   6.045   2.814   6.941  0.1670 -0.4030  0.1914
 1172TIP3    H225152   6.187   2.771   6.910  0.4981  2.1829 -2.3349
 1173TIP3   OH225153   4.784   0.236   1.827  0.5828 -0.1999 -0.1281
 1173TIP3    H125154   4.798   0.283   1.909  2.4306  2.2033 -1.6421
 1173TIP3    H225155   4.689   0.239   1.813  0.2706 -0.4018  1.7344
 1174TIP3   OH225156   5.793   2.117   7.368 -0.3780 -0.4214  0.3698
 1174TIP3    H125157   5.886   2.096   7.364 -0.3636 -0.2396 -0.6947
 1174TIP3    H225158   5.751   2.036   7.397 -0.2498 -1.8668 -2.9794
 1175TIP3   OH225159   5.247   5.846   8.165  0.3456 -0.0999  0.0615
 1175TIP3    H125160   5.302   5.768   8.166 -0.0406 -0.3729  0.3396
 1175TIP3    H225161   5.184   5.832   8.236 -1.3315 -0.6956 -1.4606
 1176TIP3   OH225162   2.342   5.890   1.216  0.1951 -0.1509 -0.0581
 1176TIP3    H125163   2.263   5.857   1.174 -0.3783  0.2584  0.6640
 1176TIP3    H225164   2.378   5.814   1.261 -0.2578 -0.1559  0.3053
 1177TIP3   OH225165   5.081   5.757   1.149 -0.2323  0.2167  0.3151
 1177TIP3    H125166   5.122   5.684   1.102  1.6245  1.7018 -0.5049
 1177TIP3    H225167   5.030   5.802   1.082 -1.4174 -0.3350  0.8324
 1178TIP3   OH225168   5.847   1.764   1.279 -0.1708  0.0456  0.1611
 1178TIP3    H125169   5.838   1.859   1.274  1.0499  0.1512 -0.3063
 1178TIP3    H225170   5.833   1.744   1.372  0.3774  0.7781  0.4133
 1179TIP3   OH225171   2.682   4.337   0.736 -0.1167 -0.2483 -0.0987
 1179TIP3    H125172   2.759   4.280   0.738 -0.1669 -0.2865  1.0295
 1179TIP3    H225173   2.625   4.304   0.806 -0.3986  0.8331  0.1945
 1180TIP3   OH225174   0.271   1.672   7.097 -0.2012  0.3600 -0.3286
 1180TIP3    H125175   0.197   1.726   7.070  0.8988  1.3437 -1.4914
 1180TIP3    H225176   0.237   1.618   7.168 -1.9286  1.0296 -0.6133
 1181TIP3   OH225177   3.106   6.197   0.070 -0.6619 -0.4027  0.0485
 1181TIP3    H125178   3.100   6.101   0.073 -2.2090 -0.3681 -0.7953
 1181TIP3    H225179   3.017   6.226   0.047  0.1486  1.1389 -1.3855
 1182TIP3   OH225180   1.510   1.326   0.720 -1.0421 -0.4866 -0.4656
 1182TIP3    H125181   1.568   1.251   0.708 -0.0733  0.3845 -1.3694
 1182TIP3    H225182   1.422   1.288   0.728 -0.4110 -1.8031  0.6201
 1183TIP3   OH225183   4.160   2.177   0.961 -0.1542  0.0061  1.3887
 1183TIP3    H125184   4.085   2.175   0.902  0.1133  0.7751  1.0108
 1183TIP3    H225185   4.219   2.109   0.928 -0.0020  0.4372  0.7549
 1184TIP3   OH225186   2.595   6.936   7.559  0.1524  0.0698  0.0938
 1184TIP3    H125187   2.597   6.917   7.466  2.9092  0.4670 -0.0024
 1184TIP3    H225188   2.630   7.025   7.567  0.1299 -0.0149  1.5225
 1185TIP3   OH225189   3.515   3.868   6.645 -0.2752  0.0318  0.2361
 1185TIP3    H125190   3.433   3.878   6.692 -1.1437 -0.3285 -1.1426
 1185TIP3    H225191   3.491   3.873   6.552  1.2738  0.0541 -0.2000
 1186TIP3   OH225192   5.464   5.785   8.361  0.1574  0.2244  0.1186
 1186TIP3    H125193   5.456   5.750   8.450 -1.7474 -1.6399 -0.6833
 1186TIP3    H225194   5.412   5.865   8.361  2.6922  2.0162  1.3929
 1187TIP3   OH225195   0.932   0.006   0.490 -1.0126  0.5973 -0.2782
 1187TIP3    H125196   0.893   0.011   0.577 -1.9768  1.9105 -0.7375
 1187TIP3    H225197   0.930   0.097   0.458  0.3386  0.3229 -1.2397
 1188TIP3   OH225198   0.684   5.549   7.239  0.4227  0.5447 -0.4671
 1188TIP3    H125199   0.712   5.464   7.273  1.3044  0.4726 -1.3132
 1188TIP3    H225200   0.607   5.529   7.186  0.9745  0.1550 -1.1544
 1189TIP3   OH225201   4.203   0.539   1.010  0.3831  0.3796  0.5861
 1189TIP3    H125202   4.206   0.524   1.104 -2.1241 -0.3261  0.6163
 1189TIP3    H225203   4.111   0.526   0.986  1.2184 -1.1101 -2.2386
 1190TIP3   OH225204   0.320   0.944   6.914 -0.0581 -0.5380 -0.4135
 1190TIP3    H125205   0.344   0.890   6.989  0.6021  1.3761  0.8151
 1190TIP3    H225206   0.400   0.989   6.889 -0.6599  0.1582 -1.1612
 1191TIP3   OH225207   5.545   6.765   7.882 -0.3903 -0.0927 -0.2686
 1191TIP3    H125208   5.564   6.851   7.845  0.3610 -0.9303 -1.9072
 1191TIP3    H225209   5.607   6.756   7.954 -0.6187  0.7973  0.0621
 1192TIP3   OH225210   4.495   0.377   1.374 -1.1227 -0.2073  0.6939
 1192TIP3    H125211   4.588   0.386   1.395 -1.5020  0.0162  2.4571
 1192TIP3    H225212   4.493   0.326   1.294  0.5006 -0.8882  1.0529
 1193TIP3   OH225213   3.857   2.095   0.326 -0.0340 -0.2948  0.0645
 1193TIP3    H125214   3.913   2.022   0.353 -1.1717 -1.0984  0.3411
 1193TIP3    H225215   3.768   2.059   0.328 -0.6236  1.0959  0.1695
 1194TIP3   OH225216   3.622   1.133   0.478  0.0638  0.1744  0.0741
 1194TIP3    H125217   3.545   1.087   0.511 -0.5805  0.1310 -1.3993
 1194TIP3    H225218   3.692   1.068   0.483 -0.6256 -0.7066 -1.0812
 1195TIP3   OH225219   3.621   2.901   0.101  0.3806  0.6213  0.7870
 1195TIP3    H125220   3.607   2.933   0.190  0.7793  1.8767  0.4148
 1195TIP3    H225221   3.542   2.924   0.054  0.8601  1.5392  0.3987
 1196TIP3   OH225222   0.712   5.285   8.424 -0.6459  0.2846 -0.4041
 1196TIP3    H125223   0.654   5.213   8.399 -2.5340  0.8137  2.0321
 1196TIP3    H225224   0.673   5.320   8.505  4.0215 -0.4179  2.4895
 1197TIP3   OH225225   0.313   4.872   1.627  0.4100 -0.4393 -0.1839
 1197TIP3    H125226   0.290   4.780   1.635  1.1245 -0.5917  0.2792
 1197TIP3    H225227   0.381   4.885   1.693  0.9495  0.2084 -0.8510
 1198TIP3   OH225228   0.582   2.741   2.486  0.2707  0.1127 -0.1319
 1198TIP3    H125229   0.631   2.819   2.511 -0.7863  0.3053  1.5330
 1198TIP3    H225230   0.492   2.760   2.511 -0.4199 -0.7689 -1.8289
 1199TIP3   OH225231   4.832   6.727   0.869 -0.6598  0.0331 -0.4040
 1199TIP3    H125232   4.895   6.799   0.873 -0.5548 -0.1144  1.0422
 1199TIP3    H225233   4.764   6.759   0.809  0.2343  0.6232 -1.1359
 1200TIP3   OH225234   2.297   1.406   1.026  0.7831 -0.3415 -0.0131
 1200TIP3    H125235   2.215   1.428   1.071  0.3210 -1.2615 -0.3729
 1200TIP3    H225236   2.294   1.459   0.946 -1.1508 -2.8293 -1.7220
 1201TIP3   OH225237   0.924   5.249   8.154 -0.2934 -0.0934  1.1471
 1201TIP3    H125238   0.846   5.207   8.118  0.2721 -0.4836  0.3669
 1201TIP3    H225239   0.911   5.343   8.136  0.1869 -0.3162 -0.5219
 1202TIP3   OH225240   6.542   5.084   2.333  0.2923  0.1129  0.5052
 1202TIP3    H125241   6.476   5.148   2.358  1.0200  1.0778  0.0469
 1202TIP3    H225242   6.625   5.128   2.349  0.8074 -0.4254 -0.5396
 1203TIP3   OH225243   3.735   4.616   8.525  0.1592 -0.0697 -0.3358
 1203TIP3    H125244   3.768   4.663   8.449 -1.5184 -1.2638 -1.8760
 1203TIP3    H225245   3.671   4.676   8.564  0.2658  0.1353 -0.4723
 1204TIP3   OH225246   4.265   1.303   7.525 -0.7152  0.2206  0.2855
 1204TIP3    H125247   4.352   1.297   7.485 -0.6318 -0.1947  0.5259
 1204TIP3    H225248   4.209   1.336   7.454 -0.0208  2.3093  0.6284
 1205TIP3   OH225249   4.368   5.614   6.862  0.6026  0.0990  0.0340
 1205TIP3    H125250   4.322   5.565   6.794 -0.0534  1.6639 -0.7016
 1205TIP3    H225251   4.451   5.639   6.821 -0.1265  1.7247 -0.5212
 1206TIP3   OH225252   5.000   6.797   6.617  0.2887  0.0265 -0.4702
 1206TIP3    H125253   5.030   6.876   6.663  1.1018 -0.6806  0.2399
 1206TIP3    H225254   4.913   6.781   6.653  0.8671 -0.4485  0.7845
 1207TIP3   OH225255   4.852   0.694   0.485 -0.1517  0.0209  0.0400
 1207TIP3    H125256   4.856   0.681   0.391  2.9923  0.3957  0.0096
 1207TIP3    H225257   4.930   0.745   0.506  0.2139 -1.4976  3.0168
 1208TIP3   OH225258   3.476   0.519   6.613  0.2102 -0.0450 -0.0453
 1208TIP3    H125259   3.522   0.441   6.582  0.3753 -0.6365  1.5987
 1208TIP3    H225260   3.546   0.582   6.631  0.0243  0.9990 -2.5135
 1209TIP3   OH225261   3.948   1.282   2.108  0.1920  0.1288  0.2377
 1209TIP3    H125262   3.905   1.279   2.194 -0.1588 -0.3204  0.0564
 1209TIP3    H225263   3.895   1.224   2.053  0.0631  0.8675 -0.4429
 1210TIP3   OH225264   6.538   5.610   8.304  0.1623  0.3773 -0.0064
 1210TIP3    H125265   6.476   5.682   8.314 -0.3231  0.1821 -1.4247
 1210TIP3    H225266   6.484   5.534   8.282  0.8530  0.0865 -0.7555
 1211TIP3   OH225267   4.458   6.073   1.246 -0.5606 -0.8176 -0.0830
 1211TIP3    H125268   4.539   6.034   1.210 -0.5257 -0.7491 -0.0786
 1211TIP3    H225269   4.435   6.141   1.184 -1.1717 -1.4967 -0.6191
 1212TIP3   OH225270   6.124   5.770   7.646 -0.0931  0.0470 -0.1336
 1212TIP3    H125271   6.036   5.798   7.621  0.0274  0.7727  0.2150
 1212TIP3    H225272   6.169   5.757   7.563 -0.3009  0.4318 -0.3102
 1213TIP3   OH225273   5.638   2.982   7.341 -0.3203  0.5109 -0.5880
 1213TIP3    H125274   5.712   3.034   7.310  0.6573  0.3719  1.3415
 1213TIP3    H225275   5.616   3.020   7.426 -0.2375 -1.5755  0.4302
 1214TIP3   OH225276   6.611   5.535   0.713  0.0395 -0.7600 -0.1628
 1214TIP3    H125277   6.607   5.630   0.720 -2.1670 -0.8632  0.8571
 1214TIP3    H225278   6.687   5.510   0.766 -0.6350  0.3243  1.3773
 1215TIP3   OH225279   2.206   0.621   8.091  0.1414  0.6174 -0.5205
 1215TIP3    H125280   2.132   0.616   8.152 -0.0044  0.1991 -0.7217
 1215TIP3    H225281   2.217   0.714   8.074 -0.2498  0.6939 -0.3741
 1216TIP3   OH225282   0.086   0.922   1.119  0.0777  0.3928 -0.1069
 1216TIP3    H125283   0.105   0.952   1.031  0.4049 -0.4309 -0.3302
 1216TIP3    H225284   0.167   0.940   1.168  1.0534 -1.8912 -0.7326
 1217TIP3   OH225285   4.277   1.414   0.107 -0.6572 -0.0605 -0.2931
 1217TIP3    H125286   4.256   1.321   0.107 -0.2611 -0.1688  0.8960
 1217TIP3    H225287   4.351   1.422   0.046 -1.0033 -0.4396 -0.7666
 1218TIP3   OH225288   5.303   3.385   2.587 -0.4743  0.2479  0.2670
 1218TIP3    H125289   5.235   3.448   2.562 -0.1105  1.0212  1.1215
 1218TIP3    H225290   5.383   3.438   2.596  0.9582 -1.0321 -3.3375
 1219TIP3   OH225291   3.797   3.341   6.903  0.0728  0.0422 -0.8798
 1219TIP3    H125292   3.743   3.265   6.880  0.6850 -0.1253 -1.7999
 1219TIP3    H225293   3.884   3.320   6.870  0.5485  0.6141 -0.0261
 1220TIP3   OH225294   3.360   5.633   1.706 -0.0003  0.7755  0.0922
 1220TIP3    H125295   3.285   5.586   1.743  0.3272  1.0227  1.0982
 1220TIP3    H225296   3.435   5.602   1.757  0.3360  1.7581  0.2086
 1221TIP3   OH225297   6.344   0.469   1.009  0.5360  0.3609  0.7219
 1221TIP3    H125298   6.387   0.465   0.923  1.3391 -0.8914  1.1628
 1221TIP3    H225299   6.399   0.529   1.060  0.8018  0.0965  0.7519
 1222TIP3   OH225300   0.620   3.458   7.212  0.0424 -0.0958 -0.0093
 1222TIP3    H125301   0.572   3.375   7.206 -0.3344  0.1566 -0.5489
 1222TIP3    H225302   0.698   3.444   7.158  0.4851 -0.4301  0.6923
 1223TIP3   OH225303   1.862   4.355   6.933  0.1890  0.1230  0.3026
 1223TIP3    H125304   1.901   4.281   6.885  0.3376 -0.0833  0.7328
 1223TIP3    H225305   1.916   4.430   6.909 -1.0994  0.5071 -1.6457
 1224TIP3   OH225306   2.671   1.080   0.355 -0.0197  0.6722 -0.2395
 1224TIP3    H125307   2.603   1.145   0.372  0.5357  0.8603  1.3968
 1224TIP3    H225308   2.666   1.065   0.261 -2.0226  1.0009 -0.2323
 1225TIP3   OH225309   2.300   4.411   0.305 -0.0873 -0.4701 -0.1134
 1225TIP3    H125310   2.207   4.410   0.286  0.0281  2.9276 -1.6309
 1225TIP3    H225311   2.342   4.369   0.230 -0.3287 -0.4926 -0.2341
 1226TIP3   OH225312   0.962   6.084   6.081 -0.4089 -0.1450  0.1346
 1226TIP3    H125313   1.053   6.090   6.053 -0.1918 -1.6123  0.4468
 1226TIP3    H225314   0.944   6.169   6.121  0.4752  0.5569 -0.8792
 1227TIP3   OH225315   2.373   6.313   2.540 -0.2266  0.4926 -0.2885
 1227TIP3    H125316   2.462   6.279   2.542 -0.6990 -1.0827 -2.6671
 1227TIP3    H225317   2.343   6.306   2.631  0.4199 -3.7160 -0.2051
 1228TIP3   OH225318   4.070   0.258   1.112 -0.6046  0.1136 -0.5231
 1228TIP3    H125319   4.136   0.304   1.165  0.9051  0.3441 -2.4983
 1228TIP3    H225320   3.991   0.311   1.122  0.0808  1.0430  0.2304
 1229TIP3   OH225321   2.180   1.428   1.543 -0.4444  0.3883 -0.4431
 1229TIP3    H125322   2.159   1.479   1.621 -1.8127  0.7924 -1.0566
 1229TIP3    H225323   2.097   1.389   1.515  0.4291 -1.7163 -0.3586
 1230TIP3   OH225324   0.587   3.918   1.063  0.0525 -0.3553 -0.5050
 1230TIP3    H125325   0.661   3.871   1.024  0.1935  0.0348 -0.7203
 1230TIP3    H225326   0.574   3.994   1.006  0.3032  0.2601  0.2281
 1231TIP3   OH225327   5.815   2.642   1.930 -0.0591 -0.6521  0.0742
 1231TIP3    H125328   5.855   2.722   1.965 -1.0924  0.0580 -0.3120
 1231TIP3    H225329   5.854   2.571   1.980 -0.5420  0.2311  1.7654
 1232TIP3   OH225330   5.267   4.429   1.799 -0.1347 -0.4868 -0.3564
 1232TIP3    H125331   5.348   4.439   1.849 -0.0776 -0.9377 -0.3586
 1232TIP3    H225332   5.218   4.362   1.845 -1.7533  1.6616  1.2588
 1233TIP3   OH225333   4.710   6.325   0.576 -0.3215 -0.3318  0.1389
 1233TIP3    H125334   4.652   6.349   0.647  0.6711  1.4316  0.4207
 1233TIP3    H225335   4.782   6.388   0.581  0.5066 -1.0605 -1.5391
 1234TIP3   OH225336   0.392   0.762   7.968  0.2713 -0.1359 -0.2391
 1234TIP3    H125337   0.396   0.848   7.927  2.0979 -0.2121 -0.3228
 1234TIP3    H225338   0.300   0.749   7.989  0.2562  3.1481  2.5416
 1235TIP3   OH225339   3.118   6.204   8.369 -0.0625  0.7212  0.0049
 1235TIP3    H125340   3.130   6.180   8.461 -0.0464 -0.1850 -0.2247
 1235TIP3    H225341   3.150   6.129   8.320 -2.0265  0.2773 -0.7148
 1236TIP3   OH225342   0.492   3.812   7.750 -0.0659 -0.0746 -0.0189
 1236TIP3    H125343   0.561   3.755   7.719  1.4387  2.6353 -2.0779
 1236TIP3    H225344   0.424   3.808   7.682 -0.0973  0.3160 -0.0167
 1237TIP3   OH225345   0.787   6.222   8.073  0.0661  0.2628 -0.3114
 1237TIP3    H125346   0.696   6.193   8.079  0.0377  0.1839 -1.0324
 1237TIP3    H225347   0.835   6.144   8.044  0.1128  0.7129 -1.4940
 1238TIP3   OH225348   5.345   6.639   0.087  0.7007  0.3020 -0.7200
 1238TIP3    H125349   5.355   6.576   0.015  1.2141 -0.4958  0.0438
 1238TIP3    H225350   5.397   6.714   0.060  0.5685  0.1700 -1.3660
 1239TIP3   OH225351   1.786   2.043   6.732 -0.0664 -0.4701  0.3909
 1239TIP3    H125352   1.810   2.096   6.656  1.9756 -1.3943  0.3414
 1239TIP3    H225353   1.698   2.011   6.711 -0.1932  0.5858 -0.8429
 1240TIP3   OH225354   5.091   4.546   0.602 -0.6281 -0.9882 -0.2788
 1240TIP3    H125355   5.073   4.462   0.645  1.3188 -1.7812 -0.8957
 1240TIP3    H225356   5.186   4.555   0.606 -0.7428  0.8548 -0.8757
 1241TIP3   OH225357   1.927   3.316   1.085 -0.1487  0.3380 -0.6103
 1241TIP3    H125358   1.840   3.354   1.082 -0.4600 -0.2131  0.7107
 1241TIP3    H225359   1.976   3.372   1.146  0.8693  1.4638 -2.3702
 1242TIP3   OH225360   1.713   0.551   1.731  0.1074  0.4414 -0.2235
 1242TIP3    H125361   1.793   0.558   1.783 -0.4651  2.0296  0.4983
 1242TIP3    H225362   1.715   0.462   1.695  2.4046  0.6026 -0.5907
 1243TIP3   OH225363   1.916   3.688   6.584 -0.0643  0.4404  0.0375
 1243TIP3    H125364   1.827   3.689   6.619 -0.5243  1.3603 -1.1038
 1243TIP3    H225365   1.960   3.762   6.625  0.0324  0.2683  0.2451
 1244TIP3   OH225366   4.187   3.131   0.280 -0.0211  0.1897 -0.0747
 1244TIP3    H125367   4.099   3.111   0.312 -0.0690  0.5526  0.0234
 1244TIP3    H225368   4.213   3.210   0.329  1.0086 -0.8338  1.1247
 1245TIP3   OH225369   3.161   5.054   6.745  0.0292  0.1065  0.0040
 1245TIP3    H125370   3.225   5.077   6.812 -0.8388 -1.0458  1.2959
 1245TIP3    H225371   3.088   5.114   6.760  0.7511  1.3874 -1.4326
 1246TIP3   OH225372   5.876   5.589   0.580 -0.1206 -0.3079 -0.1145
 1246TIP3    H125373   5.884   5.503   0.541 -2.1670  0.3861 -2.3064
 1246TIP3    H225374   5.785   5.616   0.562  0.4605  2.3189  0.3826
 1247TIP3   OH225375   0.305   1.308   7.241  0.0934  0.4313  0.4012
 1247TIP3    H125376   0.257   1.260   7.173 -1.2596  0.3014  1.4092
 1247TIP3    H225377   0.392   1.322   7.203  0.1310 -1.6942 -0.4094
 1248TIP3   OH225378   0.920   0.727   7.548 -0.1094  0.1059 -0.1038
 1248TIP3    H125379   0.891   0.714   7.638  2.9926 -1.4802  0.8170
 1248TIP3    H225380   0.969   0.809   7.550  0.5981 -0.2986 -0.0929
 1249TIP3   OH225381   0.532   4.702   0.331  0.2171 -0.1882  0.1496
 1249TIP3    H125382   0.554   4.753   0.408  0.8630 -0.6208  0.2620
 1249TIP3    H225383   0.571   4.751   0.258  1.4592 -0.8654  0.3307
 1250TIP3   OH225384   1.804   5.155   1.999 -0.0177  0.2461  0.4474
 1250TIP3    H125385   1.747   5.079   1.990 -0.5288  0.8096 -1.8905
 1250TIP3    H225386   1.893   5.119   1.998 -0.1482 -0.3291 -2.8339
 1251TIP3   OH225387   5.709   4.469   1.278 -0.1187 -0.8345 -0.0834
 1251TIP3    H125388   5.744   4.381   1.267 -0.1764 -0.7451 -1.0746
 1251TIP3    H225389   5.673   4.491   1.192 -1.5394 -0.4620  0.5742
 1252TIP3   OH225390   4.207   0.499   7.916 -0.1023 -0.0104 -0.0186
 1252TIP3    H125391   4.146   0.468   7.983 -0.3226  0.5264  0.0306
 1252TIP3    H225392   4.178   0.588   7.895 -1.8924 -1.1325 -2.9800
 1253TIP3   OH225393   4.196   1.473   1.043 -0.5980  0.6629  0.1604
 1253TIP3    H125394   4.179   1.561   1.077  1.8917  1.4650 -0.4327
 1253TIP3    H225395   4.201   1.485   0.948  0.5563  0.0553  0.1296
 1254TIP3   OH225396   2.894   3.600   2.191  0.2918 -0.1047 -0.3947
 1254TIP3    H125397   2.958   3.536   2.222  0.3094 -0.7392 -1.6363
 1254TIP3    H225398   2.946   3.668   2.149  0.2400  0.3925  0.3388
 1255TIP3   OH225399   3.226   6.481   8.129 -0.3132 -0.1469  0.0191
 1255TIP3    H125400   3.182   6.418   8.072 -2.2613  0.1015  1.1500
 1255TIP3    H225401   3.195   6.567   8.100  1.4436  0.2514 -0.7846
 1256TIP3   OH225402   4.841   0.967   0.086 -0.0085  0.7057  0.0098
 1256TIP3    H125403   4.858   1.000   0.175 -0.6214 -1.1196  0.8644
 1256TIP3    H225404   4.748   0.981   0.072 -0.0208  0.5079 -0.1187
 1257TIP3   OH225405   5.664   0.743   7.713  0.0159 -0.1776  0.0781
 1257TIP3    H125406   5.712   0.719   7.793 -1.3381 -0.4653  0.8462
 1257TIP3    H225407   5.721   0.806   7.669  0.7180  0.1441  1.3819
 1258TIP3   OH225408   6.701   6.492   0.346  0.0927 -0.5003  0.3631
 1258TIP3    H125409   6.779   6.506   0.293  0.3348 -2.1187  0.2502
 1258TIP3    H225410   6.734   6.482   0.435 -0.1455  0.3574  0.5584
 1259TIP3   OH225411   4.993   3.064   2.513 -0.5801  0.3132 -0.4161
 1259TIP3    H125412   5.011   2.989   2.571  0.0208  0.0837 -0.8910
 1259TIP3    H225413   5.080   3.094   2.486 -0.8670 -0.1092 -1.8776
 1260TIP3   OH225414   4.502   5.421   1.221  0.0755 -0.0228  0.0067
 1260TIP3    H125415   4.524   5.346   1.277 -0.4971 -0.8556 -0.8557
 1260TIP3    H225416   4.467   5.382   1.141  0.8084  1.1457 -0.9217
 1261TIP3   OH225417   2.859   0.761   0.008  0.1950 -0.2082  0.3803
 1261TIP3    H125418   2.780   0.766  -0.045  0.5889 -0.9735 -0.3112
 1261TIP3    H225419   2.858   0.672   0.044  0.8278 -0.2936  0.2073
 1262TIP3   OH225420   0.474   0.051   8.227  0.7694 -0.1462  0.4688
 1262TIP3    H125421   0.520   0.128   8.196 -0.6535  1.4767  2.1728
 1262TIP3    H225422   0.382   0.067   8.203  0.4005 -1.1584  1.1366
 1263TIP3   OH225423   4.809   2.492   7.025  0.3632 -0.0859  0.4698
 1263TIP3    H125424   4.767   2.411   6.996 -0.6008  0.6749 -0.3640
 1263TIP3    H225425   4.742   2.559   7.013  0.7348  0.6691  2.2754
 1264TIP3   OH225426   2.346   5.207   2.307 -0.1534  0.2535  0.0836
 1264TIP3    H125427   2.332   5.135   2.245 -0.9770  0.6770 -0.2287
 1264TIP3    H225428   2.266   5.209   2.360 -0.2256  1.0716 -0.0490
 1265TIP3   OH225429   0.324   5.801   7.810 -0.1343  0.1501 -0.6475
 1265TIP3    H125430   0.288   5.844   7.733 -0.1948  1.4064  0.0478
 1265TIP3    H225431   0.418   5.806   7.799 -0.1229 -1.8074 -1.7555
 1266TIP3   OH225432   4.542   3.927   0.590  0.1256  0.3792  0.6563
 1266TIP3    H125433   4.519   4.008   0.635 -0.9358  0.4974 -0.0596
 1266TIP3    H225434   4.458   3.886   0.570  0.6493 -1.3904  1.8528
 1267TIP3   OH225435   5.577   2.826   1.643 -0.1011  0.1793  0.0792
 1267TIP3    H125436   5.600   2.919   1.653  2.8077 -0.4105 -0.3451
 1267TIP3    H225437   5.643   2.779   1.693  0.2561 -1.7759 -2.0586
 1268TIP3   OH225438   4.590   6.003   8.121  0.1771 -0.4060  0.3196
 1268TIP3    H125439   4.595   6.095   8.098 -3.8345 -0.3543 -0.9642
 1268TIP3    H225440   4.656   5.961   8.065  0.3698  1.3723 -0.8841
 1269TIP3   OH225441   1.478   3.661   1.114  0.1451 -0.2521 -0.1535
 1269TIP3    H125442   1.456   3.599   1.044  0.7401  0.6365 -1.1709
 1269TIP3    H225443   1.397   3.710   1.129 -0.4890 -1.6300  1.0599
 1270TIP3   OH225444   0.395   3.120   7.874 -0.3051  0.0330  0.1367
 1270TIP3    H125445   0.434   3.039   7.908  0.2459 -1.4802 -3.5798
 1270TIP3    H225446   0.464   3.185   7.881 -0.7664  0.3627  3.2177
 1271TIP3   OH225447   4.108   4.810   6.498  0.8767 -0.3857 -0.1243
 1271TIP3    H125448   4.047   4.834   6.428  0.9286 -1.6674 -0.6363
 1271TIP3    H225449   4.111   4.715   6.495  1.7334 -0.4068  0.9156
 1272TIP3   OH225450   4.282   0.730   7.110 -0.5477 -0.2135  0.3580
 1272TIP3    H125451   4.279   0.809   7.057 -0.3339 -0.0806  0.5412
 1272TIP3    H225452   4.190   0.704   7.121 -0.5345 -0.9979 -1.1837
 1273TIP3   OH225453   3.651   3.779   0.245  0.1147  0.2661 -0.5818
 1273TIP3    H125454   3.582   3.818   0.191 -0.3534  1.9200  1.1156
 1273TIP3    H225455   3.699   3.854   0.280  0.4604 -0.7407  1.1967
 1274TIP3   OH225456   4.276   2.594   1.491 -0.1961  0.1009 -0.3622
 1274TIP3    H125457   4.183   2.617   1.501 -0.1456 -0.1429  0.9155
 1274TIP3    H225458   4.298   2.550   1.574  0.3003 -2.5119 -1.7723
 1275TIP3   OH225459   4.701   4.651   7.174  0.1215  0.8535 -0.2648
 1275TIP3    H125460   4.767   4.668   7.108 -0.0166 -0.2563 -0.7083
 1275TIP3    H225461   4.739   4.583   7.230 -0.8984 -0.3482 -0.9679
 1276TIP3   OH225462   3.358   4.846   8.462 -0.7485 -0.1936 -0.2501
 1276TIP3    H125463   3.421   4.867   8.393 -1.5341  1.1190 -0.6017
 1276TIP3    H225464   3.277   4.824   8.415 -0.5837 -1.9062  0.1920
 1277TIP3   OH225465   3.431   6.564   6.322  0.8461 -0.3582 -0.1464
 1277TIP3    H125466   3.354   6.590   6.271 -0.1582 -1.2493  0.8416
 1277TIP3    H225467   3.504   6.607   6.279 -0.1294  0.0455 -1.4819
 1278TIP3   OH225468   0.063   2.101   1.279 -0.1903 -0.3041 -0.1847
 1278TIP3    H125469   0.001   2.111   1.206 -0.3085 -2.1010 -0.3753
 1278TIP3    H225470   0.015   2.132   1.355 -0.7541 -0.1732 -0.5868
 1279TIP3   OH225471   3.745   2.394   7.154 -0.5687 -0.6426  0.1824
 1279TIP3    H125472   3.682   2.465   7.141  1.9870  1.8104  0.2997
 1279TIP3    H225473   3.710   2.343   7.227 -1.5776  1.6641  1.3981
 1280TIP3   OH225474   5.205   2.433   1.351 -0.2939 -0.0892  0.4432
 1280TIP3    H125475   5.287   2.392   1.378  0.9739  1.1653 -1.2296
 1280TIP3    H225476   5.187   2.498   1.419  0.9151  0.6121  0.1188
 1281TIP3   OH225477   6.590   3.160   1.326  0.1058  0.1446 -0.5323
 1281TIP3    H125478   6.632   3.131   1.407 -1.1625  2.4026  1.0306
 1281TIP3    H225479   6.633   3.108   1.258  2.9818 -0.1197  1.2821
 1282TIP3   OH225480   3.998   3.645   1.863 -0.3615 -0.2666 -0.2499
 1282TIP3    H125481   4.028   3.580   1.927 -0.5966  0.1569  0.2901
 1282TIP3    H225482   3.973   3.592   1.787 -2.6330 -1.0251  0.9517
 1283TIP3   OH225483   3.548   3.896   0.945  0.3505  0.0592  0.1339
 1283TIP3    H125484   3.586   3.879   1.032  1.2692 -0.1603 -0.2909
 1283TIP3    H225485   3.623   3.891   0.886 -0.0505  1.5005 -0.5307
 1284TIP3   OH225486   6.366   2.320   6.840 -0.2871  0.4376 -0.7588
 1284TIP3    H125487   6.417   2.343   6.918  1.7638  0.3016 -1.9612
 1284TIP3    H225488   6.404   2.237   6.811  0.6964  1.6238 -3.1861
 1285TIP3   OH225489   2.009   4.897   8.071 -1.0740  0.0182 -0.4099
 1285TIP3    H125490   1.992   4.872   7.980 -1.2323 -1.9600  0.1337
 1285TIP3    H225491   2.091   4.853   8.094 -0.5467  1.2389  0.1464
 1286TIP3   OH225492   4.018   2.719   1.490 -0.1986 -0.2347 -0.1373
 1286TIP3    H125493   3.982   2.755   1.409  0.2134 -0.6755 -0.5217
 1286TIP3    H225494   4.033   2.795   1.546 -1.5026 -0.0163 -0.0536
 1287TIP3   OH225495   5.325   0.433   0.797 -0.4918  0.0588  0.3460
 1287TIP3    H125496   5.420   0.439   0.784 -0.3987  0.0853  0.9911
 1287TIP3    H225497   5.301   0.517   0.836 -0.8784  0.2806 -0.3597
 1288TIP3   OH225498   3.507   0.903   8.354  0.3245 -0.2200 -0.0775
 1288TIP3    H125499   3.603   0.906   8.364  0.3624 -0.9752 -0.1855
 1288TIP3    H225500   3.493   0.855   8.272 -0.1417  0.2826 -0.3010
 1289TIP3   OH225501   4.229   1.077   0.781 -0.5505  0.1157  0.4970
 1289TIP3    H125502   4.190   1.058   0.866  0.7166 -2.2116  0.6539
 1289TIP3    H225503   4.162   1.053   0.717 -1.4728  1.7873  0.7874
 1290TIP3   OH225504   4.925   4.647   1.500  0.0646 -0.4478 -0.2691
 1290TIP3    H125505   4.862   4.590   1.543  0.8487 -2.1728 -1.3202
 1290TIP3    H225506   5.010   4.608   1.519  0.6974  0.7935 -0.4264
 1291TIP3   OH225507   4.759   4.660   2.107 -0.3531 -0.1990  0.0641
 1291TIP3    H125508   4.708   4.646   2.027  0.2164  0.2546 -0.3819
 1291TIP3    H225509   4.730   4.745   2.139  0.1464  0.0809 -0.2148
 1292TIP3   OH225510   5.215   6.670   7.268 -0.4025 -0.0655  0.0314
 1292TIP3    H125511   5.270   6.693   7.193 -0.3140  0.0590  0.1347
 1292TIP3    H225512   5.184   6.582   7.249  2.0612 -1.2948  1.2763
 1293TIP3   OH225513   3.426   0.211   8.397 -0.1333 -0.3536  0.7465
 1293TIP3    H125514   3.442   0.117   8.407  1.2968 -0.1675  0.4208
 1293TIP3    H225515   3.386   0.238   8.480  0.3478 -1.0727  1.2205
 1294TIP3   OH225516   2.659   5.871   1.646  0.4425  0.1233 -0.4432
 1294TIP3    H125517   2.648   5.794   1.701 -0.2754  1.4262  1.3335
 1294TIP3    H225518   2.692   5.837   1.563 -0.0483 -2.0949  0.2134
 1295TIP3   OH225519   1.793   2.041   1.104 -0.1059  0.4424  0.1580
 1295TIP3    H125520   1.809   2.128   1.066 -0.1660 -0.1661 -1.3327
 1295TIP3    H225521   1.879   2.000   1.107 -0.0590  0.6019  0.9849
 1296TIP3   OH225522   0.710   6.927   8.120 -0.2268 -0.0947  0.9048
 1296TIP3    H125523   0.649   6.964   8.184  1.5051  2.7090  1.1115
 1296TIP3    H225524   0.670   6.945   8.035 -1.4772 -1.8343  1.0730
 1297TIP3   OH225525   4.855   4.808   8.414 -0.3412  0.0241  0.6235
 1297TIP3    H125526   4.855   4.867   8.339 -0.9213 -0.0038  0.6016
 1297TIP3    H225527   4.829   4.723   8.377 -2.2783  0.3626  1.1280
 1298TIP3   OH225528   4.090   0.052   0.452  0.3215  0.4412  0.0971
 1298TIP3    H125529   4.036  -0.026   0.447 -0.6987  0.5810  4.4525
 1298TIP3    H225530   4.046   0.116   0.396  1.5255 -1.9911 -4.0604
 1299TIP3   OH225531   2.913   6.320   7.697  0.1439 -0.2556 -0.2311
 1299TIP3    H125532   2.895   6.395   7.640 -1.9601 -1.2559 -0.9920
 1299TIP3    H225533   2.991   6.345   7.745 -1.3175  3.1065  0.6894
 1300TIP3   OH225534   4.306   5.340   1.595 -0.4712  0.6422  0.8934
 1300TIP3    H125535   4.361   5.263   1.583 -0.7746  0.6569 -0.7683
 1300TIP3    H225536   4.362   5.414   1.570  0.0720  1.0912  3.2025
 1301TIP3   OH225537   2.302   0.051   6.135  0.1224  0.1302  0.4848
 1301TIP3    H125538   2.279  -0.037   6.165  2.1320 -0.2669  1.0239
 1301TIP3    H225539   2.219   0.090   6.109 -0.7841 -2.0604 -0.1589
 1302TIP3   OH225540   2.031   3.861   2.349  0.2565  0.0292  0.4477
 1302TIP3    H125541   1.937   3.872   2.362  0.1823  1.9716 -1.2001
 1302TIP3    H225542   2.047   3.768   2.367 -2.3578 -0.8775 -1.2306
 1303TIP3   OH225543   1.755   2.995   8.549 -0.1260  0.0013 -0.1584
 1303TIP3    H125544   1.712   2.995   8.464 -0.2124 -0.5181 -0.1162
 1303TIP3    H225545   1.831   3.051   8.538 -0.3951  0.3128 -0.4451
 1304TIP3   OH225546   1.752   1.248   7.209  0.4856  0.5454  0.1360
 1304TIP3    H125547   1.722   1.339   7.219 -0.0288  0.2980  0.8779
 1304TIP3    H225548   1.757   1.235   7.114  0.4680  1.3125  0.0214
 1305TIP3   OH225549   2.759   5.349   2.451  0.0679  0.8310 -0.3114
 1305TIP3    H125550   2.836   5.334   2.397 -0.7267  0.0532 -1.2574
 1305TIP3    H225551   2.745   5.266   2.497 -1.2441  0.3513 -1.5222
 1306TIP3   OH225552   1.192   2.701   2.188 -0.2313  0.1617  0.3322
 1306TIP3    H125553   1.117   2.693   2.129 -0.8704 -0.5035  1.1997
 1306TIP3    H225554   1.155   2.686   2.275  0.9306 -0.2768  0.7640
 1307TIP3   OH225555   1.847   1.539   0.056 -0.0878 -0.0033 -0.1747
 1307TIP3    H125556   1.932   1.540   0.011  0.0936 -2.0827  0.0037
 1307TIP3    H225557   1.785   1.572  -0.009  0.2865 -2.2468 -1.7949
 1308TIP3   OH225558   5.076   0.222   8.044 -0.2938  0.5421  0.7826
 1308TIP3    H125559   5.107   0.256   8.128 -0.2252 -1.9588  1.8590
 1308TIP3    H225560   5.039   0.137   8.066 -4.1166  1.5179 -1.1033
 1309TIP3   OH225561   3.595   1.791   6.974 -0.0792 -0.0060  0.1694
 1309TIP3    H125562   3.669   1.824   7.025  1.3372  0.7710 -2.2023
 1309TIP3    H225563   3.604   1.833   6.888 -0.2925 -3.7323 -1.9260
 1310TIP3   OH225564   0.931   2.082   6.553  0.1432  0.3552  0.0260
 1310TIP3    H125565   1.015   2.083   6.598 -0.2338 -0.8324  0.8125
 1310TIP3    H225566   0.912   1.989   6.539 -1.0301  0.5947 -0.1168
 1311TIP3   OH225567   2.957   4.972   0.597 -0.0590 -0.7629 -0.2396
 1311TIP3    H125568   3.037   5.012   0.632  0.8634 -2.1515 -0.6738
 1311TIP3    H225569   2.918   4.926   0.671 -0.5822  0.0810  0.0206
 1312TIP3   OH225570   4.629   0.587   8.149 -0.5193  0.0255  0.2554
 1312TIP3    H125571   4.590   0.674   8.156 -0.1032  0.3200 -0.9476
 1312TIP3    H225572   4.564   0.534   8.104 -0.5973 -0.1895  0.6100
 1313TIP3   OH225573   4.915   5.996   7.944 -0.1281 -0.3509 -0.0557
 1313TIP3    H125574   4.952   6.032   7.863  1.9754 -3.4355 -0.6560
 1313TIP3    H225575   4.982   6.014   8.011 -0.3758 -0.5933  0.2637
 1314TIP3   OH225576   6.314   0.704   0.688 -0.0177 -0.1658 -0.1087
 1314TIP3    H125577   6.323   0.609   0.685 -0.6840 -0.2500  0.3209
 1314TIP3    H225578   6.404   0.737   0.683  0.1885 -0.7979 -0.6633
 1315TIP3   OH225579   0.887   5.858   6.251 -0.6137  0.0373 -0.1572
 1315TIP3    H125580   0.896   5.933   6.192  0.5088 -0.6255 -0.8648
 1315TIP3    H225581   0.829   5.889   6.320  1.5735  2.3342  0.7928
 1316TIP3   OH225582   3.110   6.529   1.857 -0.0670  0.3466 -0.5174
 1316TIP3    H125583   3.205   6.518   1.862 -0.0596  0.2534 -0.8186
 1316TIP3    H225584   3.075   6.450   1.897 -0.0142 -0.0160 -1.1761
 1317TIP3   OH225585   2.672   6.730   1.189 -0.3900 -0.8742  0.0981
 1317TIP3    H125586   2.758   6.712   1.152 -0.7811  1.1907 -2.0425
 1317TIP3    H225587   2.610   6.707   1.120 -1.4970 -0.9588  1.0713
 1318TIP3   OH225588   3.977   1.705   7.228  0.0237  0.2592  0.1792
 1318TIP3    H125589   3.892   1.664   7.214 -0.5645  1.5083  0.0391
 1318TIP3    H225590   4.003   1.737   7.141  1.2374 -1.2014 -0.0427
 1319TIP3   OH225591   1.888   5.083   1.023  0.2632  0.1548  0.2468
 1319TIP3    H125592   1.839   5.086   0.941  1.7267  0.7158 -0.6616
 1319TIP3    H225593   1.824   5.105   1.091 -1.2256 -1.3368 -0.6029
 1320TIP3   OH225594   3.873   5.079   8.293 -0.6314  0.2119  0.4982
 1320TIP3    H125595   3.877   5.044   8.381 -0.7469 -0.4814  0.2310
 1320TIP3    H225596   3.895   5.172   8.303 -0.4262  0.0896  1.2195
 1321TIP3   OH225597   0.470   6.208   8.189 -0.5236  0.5297  0.1804
 1321TIP3    H125598   0.392   6.223   8.244  0.0439  0.2287  1.0923
 1321TIP3    H225599   0.518   6.139   8.235 -1.0447 -1.2654 -1.7750
 1322TIP3   OH225600   1.914   3.421   0.090  0.4752 -0.3125  0.1037
 1322TIP3    H125601   1.841   3.391   0.035  0.1856 -1.4168  1.0657
 1322TIP3    H225602   1.907   3.517   0.088 -0.3963 -0.3760 -0.6220
 1323TIP3   OH225603   3.016   3.607   1.023  0.3713 -0.0646  0.3546
 1323TIP3    H125604   2.929   3.609   1.064  1.0889  1.1381  1.9212
 1323TIP3    H225605   3.000   3.630   0.932 -1.1547 -1.6592  0.1601
 1324TIP3   OH225606   5.344   5.901   7.865  0.2572 -0.1051 -0.1951
 1324TIP3    H125607   5.402   5.826   7.874  0.3658  0.0323  0.3077
 1324TIP3    H225608   5.276   5.887   7.931  2.1709  1.9461  2.4386
 1325TIP3   OH225609   2.370   0.938   7.439  0.0990 -0.5858 -0.1656
 1325TIP3    H125610   2.426   0.866   7.411 -0.4243 -1.4300  0.8614
 1325TIP3    H225611   2.321   0.903   7.514  0.4059  1.0851  0.8776
 1326TIP3   OH225612   5.660   3.893   7.059  0.4069 -0.0144  0.0962
 1326TIP3    H125613   5.733   3.951   7.037  0.7968 -1.1963 -2.0041
 1326TIP3    H225614   5.582   3.941   7.032  0.6822 -0.1688 -1.0342
 1327TIP3   OH225615   6.337   5.368   6.720 -0.0988  0.1429  0.0127
 1327TIP3    H125616   6.319   5.277   6.701  0.6243  0.0175 -0.0813
 1327TIP3    H225617   6.275   5.417   6.666  3.4578 -0.0524 -4.8484
 1328TIP3   OH225618   3.951   0.485   8.057  0.3714  0.1107 -0.0618
 1328TIP3    H125619   3.971   0.514   8.146  0.4891 -0.3376  0.0608
 1328TIP3    H225620   3.885   0.417   8.069  0.7325 -0.2840 -0.2797
 1329TIP3   OH225621   1.068   4.638   8.106 -0.2152  0.0240  0.4240
 1329TIP3    H125622   1.087   4.646   8.200 -0.2400 -0.9686  0.5154
 1329TIP3    H225623   1.147   4.670   8.064  0.4247 -1.0267  0.7970
 1330TIP3   OH225624   0.923   2.299   2.262  0.1424 -0.0691  0.1251
 1330TIP3    H125625   0.950   2.208   2.274 -0.4573 -0.1812  0.7037
 1330TIP3    H225626   0.929   2.338   2.349  0.2110  0.3899 -0.0831
 1331TIP3   OH225627   3.964   2.055   1.231  0.0247 -0.2764  0.0815
 1331TIP3    H125628   3.888   2.004   1.203  0.1353 -0.7323  0.5982
 1331TIP3    H225629   3.960   2.135   1.178  0.7681 -1.5136 -1.9791
 1332TIP3   OH225630   1.281   5.661   7.779 -0.0414 -0.6447 -0.3005
 1332TIP3    H125631   1.225   5.697   7.710  0.1371 -0.1163 -0.1725
 1332TIP3    H225632   1.251   5.571   7.789 -0.6057 -0.4859 -0.5107
 1333TIP3   OH225633   4.107   2.033   1.994  0.0092  0.3511 -0.3771
 1333TIP3    H125634   4.021   2.014   1.957  1.0137 -1.8928 -1.7669
 1333TIP3    H225635   4.104   1.996   2.082 -0.5741  0.7638 -0.2090
 1334TIP3   OH225636   6.815   1.222   1.322  0.2110  0.1709 -0.1078
 1334TIP3    H125637   6.768   1.296   1.361  3.5518  2.7594 -0.4652
 1334TIP3    H225638   6.811   1.153   1.388 -0.6669  1.6960  1.5213
 1335TIP3   OH225639   3.436   4.740   7.772 -0.1421  0.3986 -0.3034
 1335TIP3    H125640   3.391   4.744   7.857  0.8182 -0.4409  0.2683
 1335TIP3    H225641   3.501   4.810   7.775  1.2048 -0.8212  0.4748
 1336TIP3   OH225642   0.487   1.256   1.364  0.0220  0.2168  0.1602
 1336TIP3    H125643   0.565   1.200   1.370 -1.1850 -1.5164  0.3805
 1336TIP3    H225644   0.477   1.273   1.270  1.3061  1.4418  0.2180
 1337TIP3   OH225645   6.698   3.851   8.038  0.4632 -0.2682  0.3856
 1337TIP3    H125646   6.776   3.906   8.046  0.6377 -0.1311 -1.5619
 1337TIP3    H225647   6.655   3.882   7.958 -1.7931 -0.1368  1.5623
 1338TIP3   OH225648   1.425   4.700   6.613 -0.0194 -0.7300 -0.2556
 1338TIP3    H125649   1.342   4.696   6.566 -0.1528 -0.3855 -0.0487
 1338TIP3    H225650   1.491   4.686   6.545 -0.0953  1.7270 -0.9067
 1339TIP3   OH225651   6.469   6.555   1.911 -0.4449  0.5137 -0.2336
 1339TIP3    H125652   6.496   6.534   2.000  1.3925 -0.0951 -0.8823
 1339TIP3    H225653   6.548   6.592   1.870 -2.0957  3.8616 -0.7111
 1340TIP3   OH225654   2.040   0.094   6.597 -0.3556 -0.3999  0.1843
 1340TIP3    H125655   1.964   0.141   6.632  1.0074  1.4518  0.7936
 1340TIP3    H225656   2.003   0.015   6.559 -2.5641  0.3134  0.6892
 1341TIP3   OH225657   6.243   6.111   6.264 -0.2986  1.0021  0.4173
 1341TIP3    H125658   6.325   6.062   6.259  0.1801  1.9052 -1.1613
 1341TIP3    H225659   6.269   6.200   6.285 -0.9269  1.1896  0.4089
 1342TIP3   OH225660   4.297   1.548   1.499 -0.0106 -0.4468  0.0780
 1342TIP3    H125661   4.359   1.529   1.428 -1.3330 -0.3025 -1.1652
 1342TIP3    H225662   4.325   1.633   1.533  1.6156 -1.2437  0.8665
 1343TIP3   OH225663   3.301   1.875   8.440 -0.4343  0.5613 -0.2556
 1343TIP3    H125664   3.310   1.790   8.396  0.3896 -1.1381  2.8627
 1343TIP3    H225665   3.381   1.922   8.417  1.2580 -1.3384  1.3540
 1344TIP3   OH225666   5.123   1.401   2.378 -0.2248 -0.2366 -0.1516
 1344TIP3    H125667   5.119   1.313   2.415  0.9599  0.5999  2.1921
 1344TIP3    H225668   5.048   1.447   2.415 -0.0729  0.1225 -0.2834
 1345TIP3   OH225669   0.453   0.109   8.490 -0.1157 -0.3548 -0.3188
 1345TIP3    H125670   0.503   0.046   8.542  0.7007  1.2188  0.8542
 1345TIP3    H225671   0.453   0.072   8.402  2.9298 -0.5667 -0.3376
 1346TIP3   OH225672   2.456   3.614   1.109 -0.4775 -0.6363 -0.0293
 1346TIP3    H125673   2.513   3.538   1.109 -1.0897 -1.1139 -0.9232
 1346TIP3    H225674   2.484   3.666   1.033 -0.5695 -0.3645  0.1191
 1347TIP3   OH225675   0.492   4.270   6.830 -0.4885 -0.4356  0.4174
 1347TIP3    H125676   0.409   4.231   6.858 -0.8399  0.4738  0.6819
 1347TIP3    H225677   0.468   4.324   6.754 -0.5590  1.5291  1.7619
 1348TIP3   OH225678   3.044   6.639   0.813 -0.5319 -0.2936  0.3103
 1348TIP3    H125679   3.052   6.603   0.725  1.5730  0.1648  0.2560
 1348TIP3    H225680   3.042   6.562   0.870 -0.9985 -0.5746 -0.0788
 1349TIP3   OH225681   0.722   4.129   1.857  0.4606 -0.6170  0.7138
 1349TIP3    H125682   0.666   4.061   1.820 -1.2743 -0.1031  2.2610
 1349TIP3    H225683   0.810   4.108   1.823 -0.9543  0.4446 -4.5074
 1350TIP3   OH225684   4.459   3.253   6.551 -0.4623 -0.3902  0.0368
 1350TIP3    H125685   4.391   3.303   6.507  0.1198 -0.2473 -0.7280
 1350TIP3    H225686   4.435   3.162   6.537 -0.4847 -0.3403 -0.2496
 1351TIP3   OH225687   4.883   2.211   0.918  0.0651  0.2378 -0.3320
 1351TIP3    H125688   4.949   2.234   0.853 -1.4592  1.2538 -1.6298
 1351TIP3    H225689   4.842   2.131   0.884 -1.5500  1.4253 -1.3731
 1352TIP3   OH225690   2.388   4.479   7.283 -0.0714  0.2205 -0.2392
 1352TIP3    H125691   2.436   4.412   7.235 -0.6176 -0.3178 -0.0456
 1352TIP3    H225692   2.296   4.465   7.261 -0.1955  0.9255 -0.2188
 1353TIP3   OH225693   6.773   2.287   7.601  0.5180 -0.1591  0.0641
 1353TIP3    H125694   6.744   2.217   7.660  1.9817  0.2282  1.3077
 1353TIP3    H225695   6.771   2.366   7.654  1.3516  0.3049 -0.5668
 1354TIP3   OH225696   3.638   5.152   2.002  0.1726 -0.4566 -0.2587
 1354TIP3    H125697   3.708   5.136   1.938  0.3367  0.0893 -0.2263
 1354TIP3    H225698   3.595   5.068   2.013  0.1261 -0.5550 -1.1184
 1355TIP3   OH225699   4.970   2.667   1.546 -0.4492  0.4063 -0.0020
 1355TIP3    H125700   4.887   2.682   1.500 -0.2244 -1.2221 -1.0210
 1355TIP3    H225701   4.969   2.574   1.568 -0.1124  0.9067  2.5186
 1356TIP3   OH225702   4.851   6.563   0.614  0.4316 -0.6668 -0.1756
 1356TIP3    H125703   4.833   6.645   0.567 -0.8264 -1.1054 -0.4959
 1356TIP3    H225704   4.922   6.585   0.674  0.7311  0.4247 -0.9033
 1357TIP3   OH225705   0.161   0.637   7.323  0.0484 -0.3476  0.8747
 1357TIP3    H125706   0.077   0.593   7.336  0.7999 -2.5404 -0.9176
 1357TIP3    H225707   0.225   0.574   7.356  1.0764  0.4591  0.4504
 1358TIP3   OH225708   1.671   0.079   1.958  0.0861 -1.3119  0.1485
 1358TIP3    H125709   1.615   0.067   2.035  0.2669  0.1371  0.5354
 1358TIP3    H225710   1.750   0.029   1.977 -0.4872 -2.1973  0.2305
 1359TIP3   OH225711   4.431   2.532   7.921  0.0310 -0.1764  0.0462
 1359TIP3    H125712   4.473   2.466   7.976 -0.2385  0.0351  0.5107
 1359TIP3    H225713   4.345   2.494   7.900  0.6536 -0.8894 -1.4202
 1360TIP3   OH225714   6.766   4.343   2.603 -0.2860 -0.3556  0.1213
 1360TIP3    H125715   6.732   4.271   2.551  0.0451 -0.5638  0.1938
 1360TIP3    H225716   6.705   4.415   2.586 -0.7218 -0.7027  0.1939
 1361TIP3   OH225717   6.734   2.842   7.591  0.3018  0.2125  0.0722
 1361TIP3    H125718   6.692   2.781   7.531  2.0408  0.6598 -1.6993
 1361TIP3    H225719   6.698   2.928   7.569  1.1015  0.4083 -0.5286
 1362TIP3   OH225720   2.677   6.008   0.315 -0.0307 -0.0085  0.2227
 1362TIP3    H125721   2.734   6.084   0.302 -0.3721  0.0786 -0.8377
 1362TIP3    H225722   2.721   5.956   0.382 -0.2318  1.5651  1.6618
 1363TIP3   OH225723   5.159   5.150   0.180 -0.6926  0.2429 -0.6592
 1363TIP3    H125724   5.178   5.058   0.165 -0.6975  0.1834 -0.2992
 1363TIP3    H225725   5.207   5.196   0.110 -1.9838 -0.1245 -1.8202
 1364TIP3   OH225726   6.423   6.490   6.901 -0.0484 -0.5000  0.2232
 1364TIP3    H125727   6.480   6.550   6.852  1.5111 -0.4104  2.0203
 1364TIP3    H225728   6.413   6.414   6.843  2.1352 -0.6175 -0.0920
 1365TIP3   OH225729   3.473   5.773   0.019  0.0132  0.8009  0.1064
 1365TIP3    H125730   3.502   5.822  -0.058  2.6115 -0.5096  0.1142
 1365TIP3    H225731   3.489   5.832   0.093 -0.4476  1.2909 -0.1860
 1366TIP3   OH225732   5.364   1.337   0.161 -0.4699 -0.5111 -0.0408
 1366TIP3    H125733   5.413   1.294   0.091 -0.5344  0.7536 -0.8893
 1366TIP3    H225734   5.335   1.265   0.217 -1.6774 -1.7415 -2.1037
 1367TIP3   OH225735   5.304   3.767   1.644 -0.5241 -0.4243  0.5693
 1367TIP3    H125736   5.225   3.714   1.649 -1.6983  1.1994  0.1664
 1367TIP3    H225737   5.278   3.853   1.678  1.2761 -0.0396  1.1298
 1368TIP3   OH225738   0.629   6.004   1.814 -0.3164  0.0272 -0.4573
 1368TIP3    H125739   0.662   6.010   1.904  1.6092  0.4479 -1.1574
 1368TIP3    H225740   0.610   6.095   1.790 -0.6655 -0.0682 -0.5434
 1369TIP3   OH225741   0.514   1.247   0.444  0.3016  0.3359 -0.0009
 1369TIP3    H125742   0.499   1.342   0.440 -2.1126  0.0673  1.1747
 1369TIP3    H225743   0.470   1.213   0.366 -1.4067 -0.0567  1.1030
 1370TIP3   OH225744   6.739   2.028   1.982  0.2801  0.6443  0.2196
 1370TIP3    H125745   6.684   1.977   1.922  0.2893  0.4728  0.3569
 1370TIP3    H225746   6.828   2.004   1.957  0.2793  0.2783  0.5541
 1371TIP3   OH225747   2.014   2.701   6.639  0.0198 -0.2961  0.1522
 1371TIP3    H125748   1.962   2.738   6.568 -0.7198 -3.2532 -1.0120
 1371TIP3    H225749   1.954   2.641   6.684  0.5203  1.3765  3.2813
 1372TIP3   OH225750   0.951   4.991   1.752 -0.5380  0.1418 -0.4759
 1372TIP3    H125751   0.958   4.913   1.807 -0.2729  1.2737  1.1901
 1372TIP3    H225752   0.933   4.958   1.664  0.7771 -1.8499 -0.0619
 1373TIP3   OH225753   1.762   5.578   7.270  0.1654 -0.1830  0.0088
 1373TIP3    H125754   1.705   5.599   7.196 -1.5277 -0.0559  1.2810
 1373TIP3    H225755   1.809   5.659   7.288 -0.5407  0.2405 -0.0024
 1374TIP3   OH225756   2.248   0.790   1.635 -0.2009  0.5999  0.2481
 1374TIP3    H125757   2.225   0.766   1.545  0.1196 -0.8830  0.5499
 1374TIP3    H225758   2.318   0.856   1.624 -0.8999  1.2400 -0.5819
 1375TIP3   OH225759   3.986   2.466   8.520  0.4772 -0.5704 -0.5017
 1375TIP3    H125760   4.043   2.542   8.507 -0.0193 -0.3719 -1.5761
 1375TIP3    H225761   3.956   2.474   8.611  1.4203 -0.1817 -0.2099
 1376TIP3   OH225762   5.869   5.703   8.368 -0.2279  0.7531 -0.4952
 1376TIP3    H125763   5.815   5.643   8.317 -0.1726 -0.7406  1.1310
 1376TIP3    H225764   5.884   5.778   8.310 -3.1372  0.7427 -1.3760
 1377TIP3   OH225765   6.786   2.794   0.263 -0.2543 -0.1120  0.8605
 1377TIP3    H125766   6.709   2.783   0.319  0.2186 -0.1653  1.5118
 1377TIP3    H225767   6.751   2.817   0.178 -0.9941 -0.1359  1.1554
 1378TIP3   OH225768   0.266   6.090   1.206 -0.1434  0.2012  0.4923
 1378TIP3    H125769   0.300   6.004   1.183  0.1484  0.5588 -0.4469
 1378TIP3    H225770   0.213   6.117   1.130 -1.0212  0.4442  1.1642
 1379TIP3   OH225771   2.827   3.449   8.189 -0.7633  0.2843 -0.1686
 1379TIP3    H125772   2.840   3.355   8.199 -1.8282  0.0920 -0.5894
 1379TIP3    H225773   2.878   3.472   8.111  0.6274  0.3155  0.7164
 1380TIP3   OH225774   3.780   1.308   2.314  0.0711  0.3354 -0.4692
 1380TIP3    H125775   3.695   1.350   2.304  0.9305  2.1044 -0.6611
 1380TIP3    H225776   3.770   1.254   2.393 -1.1698  0.6331 -0.3922
 1381TIP3   OH225777   1.186   3.611   0.627  0.3014  0.0333  0.0091
 1381TIP3    H125778   1.130   3.536   0.646 -0.0193 -0.1556 -1.5228
 1381TIP3    H225779   1.265   3.573   0.589 -0.1683  0.4840 -1.4721
 1382TIP3   OH225780   3.275   5.848   6.134 -0.3970 -0.2256 -0.1444
 1382TIP3    H125781   3.265   5.753   6.136  0.2962 -0.2940  1.6580
 1382TIP3    H225782   3.368   5.862   6.117 -0.7176  0.1845 -1.7426
 1383TIP3   OH225783   6.530   5.318   7.565  0.4800  0.1307  0.0357
 1383TIP3    H125784   6.495   5.386   7.622  0.1534  0.1087 -0.1346
 1383TIP3    H225785   6.545   5.244   7.623 -0.4134 -0.0926 -0.0003
 1384TIP3   OH225786   6.787   2.981   7.997 -0.3440  0.0418  0.1350
 1384TIP3    H125787   6.733   2.997   7.920 -0.5532  0.4119  0.3584
 1384TIP3    H225788   6.877   2.983   7.964 -0.4775 -1.3612 -0.3817
 1385TIP3   OH225789   0.174   6.185   6.981 -0.4013  0.6678 -0.0609
 1385TIP3    H125790   0.123   6.209   6.904 -0.6711  0.1098 -0.0612
 1385TIP3    H225791   0.263   6.214   6.961 -0.4209  0.3085 -0.6846
 1386TIP3   OH225792   2.400   1.787   7.666 -0.0573 -0.0482  0.0656
 1386TIP3    H125793   2.436   1.731   7.735  0.3433  1.3204  0.9937
 1386TIP3    H225794   2.323   1.828   7.706  0.6657  1.4179  0.0103
 1387TIP3   OH225795   4.928   2.653   1.030 -0.6157 -0.2255  0.0923
 1387TIP3    H125796   5.013   2.692   1.052 -0.7230  0.3526 -0.4839
 1387TIP3    H225797   4.905   2.692   0.946 -2.3779  1.1745  1.1509
 1388TIP3   OH225798   0.685   5.430   0.701 -0.2106  0.1505  0.1053
 1388TIP3    H125799   0.758   5.379   0.738 -0.6985 -1.0438 -0.5137
 1388TIP3    H225800   0.638   5.464   0.777 -0.1078 -0.6831  0.5572
 1389TIP3   OH225801   5.303   1.473   0.724 -0.3890  0.5982  0.3197
 1389TIP3    H125802   5.356   1.398   0.697 -1.1081  0.7163 -1.4964
 1389TIP3    H225803   5.241   1.487   0.653 -2.0825  1.2478  1.8350
 1390TIP3   OH225804   3.395   3.302   7.523 -0.1289  0.3458 -0.4230
 1390TIP3    H125805   3.420   3.278   7.612 -0.1343 -1.7292 -0.9266
 1390TIP3    H225806   3.467   3.272   7.468 -1.1474 -0.5288 -1.3299
 1391TIP3   OH225807   4.471   4.819   7.119 -0.6919 -0.6099 -0.0800
 1391TIP3    H125808   4.490   4.735   7.076 -3.9288 -0.9755 -1.0772
 1391TIP3    H225809   4.488   4.885   7.051 -0.4490 -0.6872 -0.0940
 1392TIP3   OH225810   2.678   2.170   1.522  0.3453  0.3684  0.3830
 1392TIP3    H125811   2.609   2.236   1.511 -0.3478 -0.2671  0.7702
 1392TIP3    H225812   2.681   2.155   1.616 -0.4915 -1.1424  0.2054
 1393TIP3   OH225813   3.991   2.980   7.971 -0.6926  0.4275  0.1298
 1393TIP3    H125814   3.935   2.904   7.990 -2.5663  1.9472  0.9542
 1393TIP3    H225815   4.011   2.971   7.877 -0.5837 -1.2344  0.2731
 1394TIP3   OH225816   2.456   0.247   0.586 -0.2177 -0.6175 -0.1582
 1394TIP3    H125817   2.505   0.258   0.505 -1.6586 -0.8894 -1.0893
 1394TIP3    H225818   2.366   0.270   0.564 -0.7605 -1.2889  1.2128
 1395TIP3   OH225819   4.184   2.387   7.535  0.1303  0.2957 -0.1093
 1395TIP3    H125820   4.123   2.314   7.525  0.7553 -0.3593  0.7457
 1395TIP3    H225821   4.210   2.409   7.445 -1.4232  0.6722 -0.5068
 1396TIP3   OH225822   4.234   0.146   1.999 -0.8296 -0.5633  0.4122
 1396TIP3    H125823   4.274   0.209   2.059 -0.4023  0.2951 -0.7511
 1396TIP3    H225824   4.255   0.061   2.038  2.0492 -0.1790 -0.0274
 1397TIP3   OH225825   1.320   4.571   1.906  0.5608  0.1175 -0.3038
 1397TIP3    H125826   1.369   4.653   1.907 -0.6068  0.8646  1.6777
 1397TIP3    H225827   1.239   4.591   1.952 -0.1369 -1.9443 -0.5313
 1398TIP3   OH225828   4.232   1.614   1.924 -0.0076  0.5370 -0.1606
 1398TIP3    H125829   4.147   1.569   1.918 -0.0804  0.5328  0.7379
 1398TIP3    H225830   4.233   1.651   2.013 -0.0435  2.4995 -0.9185
 1399TIP3   OH225831   6.449   3.279   0.578  0.5951  1.1115 -0.5343
 1399TIP3    H125832   6.526   3.235   0.614  0.4327  1.4137  0.2127
 1399TIP3    H225833   6.430   3.233   0.497  0.2430 -0.4075  0.3810
 1400TIP3   OH225834   1.163   2.368   1.726 -0.2776 -0.3121 -0.1094
 1400TIP3    H125835   1.195   2.278   1.725  0.3717 -0.0857 -0.3063
 1400TIP3    H225836   1.111   2.376   1.646 -0.6746 -0.6341  0.1198
 1401TIP3   OH225837   1.754   0.005   1.622  0.0950 -0.5403  0.0085
 1401TIP3    H125838   1.837  -0.004   1.669  0.1394 -0.3260 -0.0270
 1401TIP3    H225839   1.690   0.026   1.690  0.2823  0.4388 -0.1067
 1402TIP3   OH225840   1.476   0.490   0.393 -0.6921 -0.3923  0.3219
 1402TIP3    H125841   1.420   0.535   0.457 -2.0185 -1.4515 -0.0481
 1402TIP3    H225842   1.483   0.551   0.320  0.3044  0.5665  1.1821
 1403TIP3   OH225843   4.302   3.700   1.068  0.4996  0.0239 -0.1050
 1403TIP3    H125844   4.361   3.655   1.128 -0.5149 -0.9992  0.1497
 1403TIP3    H225845   4.259   3.766   1.123 -0.1396 -0.6471  0.2000
 1404TIP3   OH225846   4.435   5.822   1.890  0.5375  0.3296 -0.7173
 1404TIP3    H125847   4.491   5.745   1.884 -0.8087 -0.6737 -0.9367
 1404TIP3    H225848   4.483   5.881   1.948  1.7410 -0.5381 -0.7728
 1405TIP3   OH225849   4.641   5.387   7.908 -0.0713 -0.0370  0.7147
 1405TIP3    H125850   4.559   5.359   7.948  0.2434 -1.7987  0.2171
 1405TIP3    H225851   4.614   5.436   7.830 -0.6440  0.6433  1.3243
 1406TIP3   OH225852   4.549   3.208   7.952  0.4555 -0.8717  0.3275
 1406TIP3    H125853   4.569   3.116   7.934  0.7819 -1.1510  2.0095
 1406TIP3    H225854   4.459   3.207   7.984  0.9764 -0.8281  1.8536
 1407TIP3   OH225855   5.345   6.165   1.112 -0.2761 -0.1615  0.3270
 1407TIP3    H125856   5.384   6.078   1.106  2.1531  0.9136 -1.0869
 1407TIP3    H225857   5.366   6.206   1.028 -0.2598  2.1990  1.4132
 1408TIP3   OH225858   0.816   1.346   1.015  0.3617 -0.3160 -0.0570
 1408TIP3    H125859   0.815   1.272   1.076  1.8383  1.1254  1.8159
 1408TIP3    H225860   0.866   1.314   0.940 -1.2657 -2.0434 -0.4993
 1409TIP3   OH225861   6.314   1.612   8.083  0.5261 -0.5152  0.4636
 1409TIP3    H125862   6.307   1.522   8.116 -0.7832 -1.3057 -1.7942
 1409TIP3    H225863   6.225   1.637   8.062  1.0000  0.9635  0.0916
 1410TIP3   OH225864   6.521   4.616   8.027  0.1419  0.0060 -0.5231
 1410TIP3    H125865   6.590   4.575   7.975 -0.1931 -1.0253 -0.1806
 1410TIP3    H225866   6.442   4.566   8.007  0.0005 -0.4189  0.9315
 1411TIP3   OH225867   6.558   4.148   0.332 -0.9703  0.2155 -0.4018
 1411TIP3    H125868   6.644   4.151   0.291 -1.5768  0.6113 -1.6962
 1411TIP3    H225869   6.573   4.174   0.423  0.5693 -1.6553 -0.0461
 1412TIP3   OH225870   3.777   3.611   8.128  0.1739  0.2486 -0.2574
 1412TIP3    H125871   3.726   3.549   8.180 -1.7621  0.5169 -1.7644
 1412TIP3    H225872   3.781   3.572   8.041  3.5427 -0.2884 -0.0125
 1413TIP3   OH225873   4.812   6.007   6.733 -0.3009  0.1269 -0.2359
 1413TIP3    H125874   4.883   5.943   6.728 -2.5182 -2.4352 -1.5375
 1413TIP3    H225875   4.764   5.984   6.813 -0.6128  0.7387 -0.2426
 1414TIP3   OH225876   3.210   6.380   7.309 -0.0498  0.3683  0.3543
 1414TIP3    H125877   3.285   6.383   7.368  0.0991  1.4069  0.1266
 1414TIP3    H225878   3.174   6.292   7.321  1.5653 -0.3861 -0.0017
 1415TIP3   OH225879   5.588   0.844   7.183  0.0528  0.4270 -0.2853
 1415TIP3    H125880   5.510   0.897   7.201 -0.2123  0.0397 -0.2902
 1415TIP3    H225881   5.659   0.891   7.226  0.0168  1.4055 -1.2460
 1416TIP3   OH225882   6.239   1.050   6.529  0.3473  0.2315  0.0398
 1416TIP3    H125883   6.152   1.025   6.560  0.7204 -0.7976  0.2821
 1416TIP3    H225884   6.230   1.142   6.505 -0.8391  0.1052 -0.0520
 1417TIP3   OH225885   5.156   4.038   6.924 -0.2578 -0.3795 -0.2914
 1417TIP3    H125886   5.067   4.020   6.953 -0.4855  2.0578  0.8084
 1417TIP3    H225887   5.148   4.058   6.831 -0.5834 -1.6598 -0.5572
 1418TIP3   OH225888   2.047   1.684   0.497  0.1835 -0.6019  0.3229
 1418TIP3    H125889   2.038   1.718   0.408  0.7876  0.9490  0.8362
 1418TIP3    H225890   2.142   1.682   0.512  0.2555 -3.3640  0.0258
 1419TIP3   OH225891   0.593   3.079   8.292 -0.3246  0.4227 -0.4250
 1419TIP3    H125892   0.625   3.000   8.334 -0.2644  0.2633 -0.7688
 1419TIP3    H225893   0.656   3.096   8.222  1.0434  2.1189  1.1168
 1420TIP3   OH225894   6.498   4.222   1.360 -0.1004 -0.2100 -0.5910
 1420TIP3    H125895   6.422   4.213   1.302  0.0574 -0.9173 -0.6904
 1420TIP3    H225896   6.464   4.271   1.435  0.0584  2.1278 -1.9476
 1421TIP3   OH225897   1.040   0.933   7.218  0.0723  0.3803  0.4018
 1421TIP3    H125898   0.980   0.990   7.170 -0.5238 -2.0184 -1.9382
 1421TIP3    H225899   1.126   0.948   7.178 -0.1495 -0.5177 -0.4675
 1422TIP3   OH225900   3.972   3.232   1.072 -0.2868 -0.1399 -0.4851
 1422TIP3    H125901   4.067   3.238   1.068 -0.2748 -0.4159 -0.6181
 1422TIP3    H225902   3.952   3.144   1.040 -0.4719 -0.7179  1.1140
 1423TIP3   OH225903   3.502   2.659   2.138  0.0533 -0.7870  0.0112
 1423TIP3    H125904   3.487   2.752   2.124  1.1992 -0.5093  0.5205
 1423TIP3    H225905   3.513   2.623   2.050  2.1562  0.0381 -0.1170
 1424TIP3   OH225906   2.599   1.913   0.393  0.5974 -0.0363  0.2875
 1424TIP3    H125907   2.550   1.832   0.380  2.1102 -0.6210 -2.6817
 1424TIP3    H225908   2.551   1.979   0.342  0.9895  0.2124  0.2331
 1425TIP3   OH225909   0.160   3.154   0.825 -0.2045  0.6006  0.5454
 1425TIP3    H125910   0.183   3.215   0.894  0.7966 -1.0167  1.7078
 1425TIP3    H225911   0.064   3.152   0.825 -0.2221  1.1128  1.4375
 1426TIP3   OH225912   2.566   0.847   1.438 -0.2651  0.1755 -0.1069
 1426TIP3    H125913   2.617   0.768   1.453  0.2560  0.9498  2.7865
 1426TIP3    H225914   2.630   0.913   1.412 -0.1871  0.4249  0.6846
 1427TIP3   OH225915   3.050   5.118   1.802  0.1480 -0.2132 -0.0196
 1427TIP3    H125916   3.060   5.088   1.892 -0.9509  0.4205  0.3234
 1427TIP3    H225917   3.130   5.169   1.785 -0.7762  1.8547  1.4932
 1428TIP3   OH225918   5.904   6.406   7.896  0.3598  0.2129  0.1529
 1428TIP3    H125919   5.951   6.322   7.891  1.7523  1.0205 -0.8043
 1428TIP3    H225920   5.907   6.441   7.807 -0.8592  0.9474  0.3879
 1429TIP3   OH225921   0.724   6.218   0.614 -0.4474 -0.3473 -0.3720
 1429TIP3    H125922   0.696   6.264   0.536  0.3188 -0.5877 -0.7998
 1429TIP3    H225923   0.767   6.285   0.668 -1.8750  0.0377  0.3209
 1430TIP3   OH225924   5.527   4.578   0.076  0.5570  0.4649 -0.1756
 1430TIP3    H125925   5.533   4.489   0.041 -1.1025  0.1443  0.2642
 1430TIP3    H225926   5.607   4.588   0.129  0.6006 -0.8955  0.0594
 1431TIP3   OH225927   5.103   1.511   0.234 -0.5226 -0.4378 -0.0848
 1431TIP3    H125928   5.087   1.597   0.197 -0.2531 -0.6198 -0.6295
 1431TIP3    H225929   5.179   1.478   0.186 -0.2449 -0.7271  0.5393
 1432TIP3   OH225930   3.074   0.956   7.854  0.0389 -0.0242 -0.4817
 1432TIP3    H125931   3.006   0.999   7.906  0.7529 -0.6125  1.0196
 1432TIP3    H225932   3.050   0.864   7.854 -0.4885  0.0855 -2.1002
 1433TIP3   OH225933   6.777   3.451   8.401 -0.4800  0.3959  0.3962
 1433TIP3    H125934   6.816   3.403   8.475  0.3676 -0.1658 -0.3938
 1433TIP3    H225935   6.716   3.388   8.362 -0.2534  0.3804  0.0705
 1434TIP3   OH225936   1.027   3.949   0.861 -0.5465 -0.0755  0.3819
 1434TIP3    H125937   1.014   3.902   0.779 -0.5777  0.0182  0.3335
 1434TIP3    H225938   0.970   3.903   0.924 -0.7995  0.0802  0.2663
 1435TIP3   OH225939   5.025   3.149   0.933 -0.4788 -0.3319  0.2693
 1435TIP3    H125940   5.075   3.169   1.012 -0.7737  1.6575  0.0004
 1435TIP3    H225941   5.085   3.098   0.879  0.3668 -0.1614  1.0189
 1436TIP3   OH225942   1.868   6.141   7.470 -0.0412  0.1068 -0.5867
 1436TIP3    H125943   1.797   6.129   7.408  0.0725 -1.2343 -0.4759
 1436TIP3    H225944   1.943   6.166   7.416 -0.7260  2.3351 -0.6348
 1437TIP3   OH225945   5.994   3.089   1.726  0.7987  0.1918  0.5372
 1437TIP3    H125946   5.935   3.124   1.660  1.4683 -2.4759 -1.6627
 1437TIP3    H225947   5.945   3.096   1.808 -1.0144  1.5013 -0.5996
 1438TIP3   OH225948   2.986   5.916   1.383 -0.4589 -0.4312 -0.5303
 1438TIP3    H125949   3.046   5.842   1.373 -0.8460 -0.6371 -1.4617
 1438TIP3    H225950   3.036   5.992   1.354 -0.7713 -0.6703 -1.7676
 1439TIP3   OH225951   6.823   1.252   0.129 -0.5113  0.3500 -0.4450
 1439TIP3    H125952   6.894   1.297   0.173  0.4063  0.1178 -1.6194
 1439TIP3    H225953   6.745   1.276   0.178  0.3533  0.6878  0.8241
 1440TIP3   OH225954   3.334   5.045   0.252 -0.1705 -0.2241  0.1668
 1440TIP3    H125955   3.298   4.958   0.266 -0.1232 -0.1568  0.7686
 1440TIP3    H225956   3.424   5.040   0.285  0.2273 -0.2627 -0.8876
 1441TIP3   OH225957   2.726   3.516   8.438  0.4603  0.3981 -0.1607
 1441TIP3    H125958   2.697   3.440   8.487 -0.9184  0.6302 -0.5817
 1441TIP3    H225959   2.754   3.481   8.353 -0.3522  0.3700 -0.4229
 1442TIP3   OH225960   0.157   0.855   7.615  0.2825  0.0843 -0.5647
 1442TIP3    H125961   0.217   0.926   7.592 -0.1435  1.3032  1.8084
 1442TIP3    H225962   0.186   0.781   7.561  1.9666  1.4951 -1.6976
 1443TIP3   OH225963   1.297   2.343   0.656 -0.1621 -0.4686  0.1505
 1443TIP3    H125964   1.267   2.335   0.746 -1.6529  1.5055 -0.0926
 1443TIP3    H225965   1.243   2.413   0.619  1.4038 -0.2129 -1.8495
 1444TIP3   OH225966   2.540   4.116   8.406 -0.1142  0.3014 -0.6765
 1444TIP3    H125967   2.502   4.040   8.363 -0.3257 -0.6489  1.1089
 1444TIP3    H225968   2.632   4.092   8.420  0.0194  0.7073 -0.8642
 1445TIP3   OH225969   1.868   1.615   1.423 -0.3744  0.1963  0.1445
 1445TIP3    H125970   1.807   1.582   1.357 -0.6779  0.6349  0.1944
 1445TIP3    H225971   1.954   1.590   1.391 -0.3915  1.6699 -1.1991
 1446TIP3   OH225972   6.519   4.828   8.421  0.3208  0.3020  0.2723
 1446TIP3    H125973   6.488   4.775   8.495 -1.0747  1.1347  0.3016
 1446TIP3    H225974   6.470   4.795   8.346 -0.3640  1.3683  0.2437
 1447TIP3   OH225975   1.646   2.027   2.272 -0.2653 -0.0330 -0.3620
 1447TIP3    H125976   1.643   2.122   2.258 -1.4696 -0.0592 -0.3723
 1447TIP3    H225977   1.722   1.998   2.221  0.3737  0.9703 -0.0204
 1448TIP3   OH225978   3.563   4.255   6.991 -0.2170  0.2469  0.0846
 1448TIP3    H125979   3.552   4.325   7.055 -1.7028 -1.4608  1.8203
 1448TIP3    H225980   3.643   4.210   7.019 -0.5522 -0.1527  0.4092
 1449TIP3   OH225981   4.773   1.477   1.618 -0.6564  0.0196  0.1848
 1449TIP3    H125982   4.810   1.419   1.552 -1.7190  0.4071 -0.7934
 1449TIP3    H225983   4.786   1.432   1.701  1.1137 -0.2758 -0.2268
 1450TIP3   OH225984   5.634   6.494   1.414  0.6083  0.5461 -0.0268
 1450TIP3    H125985   5.565   6.529   1.358 -0.6557 -0.6577  0.7074
 1450TIP3    H225986   5.608   6.518   1.502  0.4189 -0.9872  0.3758
 1451TIP3   OH225987   0.852   4.877   8.206  0.3632 -0.1087 -0.3670
 1451TIP3    H125988   0.877   4.950   8.262 -0.8471  1.6067 -1.9554
 1451TIP3    H225989   0.760   4.860   8.229 -0.5692  1.4726 -2.5841
 1452TIP3   OH225990   2.519   6.274   8.469  0.4401 -0.7079  0.3043
 1452TIP3    H125991   2.560   6.346   8.517 -0.8236 -0.2714  0.7644
 1452TIP3    H225992   2.435   6.261   8.512 -0.3655 -0.8774 -1.2451
 1453TIP3   OH225993   0.350   2.025   6.831  0.4820  0.2192  0.4475
 1453TIP3    H125994   0.399   1.972   6.768 -0.5341  1.0770 -1.1397
 1453TIP3    H225995   0.378   2.114   6.813 -0.8858  0.6159  0.2042
 1454TIP3   OH225996   0.955   2.942   0.697 -0.4358  0.2716 -0.2893
 1454TIP3    H125997   0.978   2.916   0.786 -0.3935 -0.7901 -0.5914
 1454TIP3    H225998   1.036   2.978   0.661 -0.2546  0.0301 -0.1313
 1455TIP3   OH225999   2.129   6.452   0.810  0.0527 -0.0406  0.7393
 1455TIP3    H126000   2.175   6.369   0.800  0.2430  0.0577  0.7876
 1455TIP3    H226001   2.138   6.473   0.903  1.1464  0.6847  0.4913
 1456TIP3   OH226002   4.120   5.283   1.160 -0.0559 -0.2085  0.0116
 1456TIP3    H126003   4.157   5.364   1.127  1.8469 -0.6988  0.8048
 1456TIP3    H226004   4.033   5.307   1.193 -0.1096  1.1781 -1.0856
 1457TIP3   OH226005   6.098   6.053   0.663 -0.2923  0.6174  0.0088
 1457TIP3    H126006   6.029   5.993   0.637 -0.8001  1.0022  0.4421
 1457TIP3    H226007   6.178   6.014   0.630 -0.9936  1.6807 -3.2909
 1458TIP3   OH226008   6.250   3.225   7.733 -0.0496 -0.2345 -0.2103
 1458TIP3    H126009   6.233   3.278   7.810 -2.2028 -0.0446 -0.7429
 1458TIP3    H226010   6.257   3.135   7.767  0.9090  0.0515  0.3853
 1459TIP3   OH226011   3.473   0.162   7.229  0.1659  0.1014  0.0062
 1459TIP3    H126012   3.522   0.241   7.209 -0.0961  0.5630  1.1677
 1459TIP3    H226013   3.526   0.091   7.190 -0.6311  0.9561 -2.9103
 1460TIP3   OH226014   3.376   4.237   6.013  0.4936  0.1987  0.0306
 1460TIP3    H126015   3.437   4.285   6.069  0.7892  1.3430 -1.2161
 1460TIP3    H226016   3.353   4.159   6.064 -0.1568  1.7187  2.2080
 1461TIP3   OH226017   6.209   1.276   7.539 -0.3833 -0.1004  0.0970
 1461TIP3    H126018   6.292   1.304   7.579  0.7028 -1.5570 -1.0091
 1461TIP3    H226019   6.200   1.185   7.564 -1.1537 -0.2254 -0.6024
 1462TIP3   OH226020   2.157   2.332   0.332 -0.0291  0.1226  0.1964
 1462TIP3    H126021   2.197   2.307   0.249 -0.4215 -2.4538  0.7071
 1462TIP3    H226022   2.205   2.283   0.398 -2.0581 -0.7644  1.0986
 1463TIP3   OH226023   6.111   0.296   8.313  0.0642 -0.2952 -0.2588
 1463TIP3    H126024   6.106   0.377   8.263 -2.0076  0.4596  1.0721
 1463TIP3    H226025   6.039   0.242   8.280  0.7409 -1.1619 -0.3637
 1464TIP3   OH226026   3.367   4.118   7.973  0.2933  0.1571  0.4029
 1464TIP3    H126027   3.316   4.052   7.926  0.2426 -0.2224  0.9791
 1464TIP3    H226028   3.430   4.150   7.908  1.5417 -1.7468  0.5803
 1465TIP3   OH226029   1.954   2.729   7.110  0.0170  0.0335  0.1253
 1465TIP3    H126030   1.894   2.696   7.043 -1.1654  1.3475  0.5000
 1465TIP3    H226031   1.925   2.688   7.191 -1.7261  2.1938  0.6680
 1466TIP3   OH226032   4.019   3.683   8.280 -0.1868 -0.3014 -0.4711
 1466TIP3    H126033   3.993   3.715   8.367  2.7072 -1.9429  1.1379
 1466TIP3    H226034   3.938   3.686   8.229 -2.0530  0.6259  2.2915
 1467TIP3   OH226035   0.815   2.284   1.937 -0.1724  0.4662 -0.4720
 1467TIP3    H126036   0.774   2.224   1.875 -1.5979 -1.2233  1.9175
 1467TIP3    H226037   0.884   2.232   1.978 -0.2715  0.9913  0.3946
 1468TIP3   OH226038   2.831   0.619   2.606 -0.7312  0.3749  0.4473
 1468TIP3    H126039   2.873   0.540   2.640  0.3325  0.8809  0.3861
 1468TIP3    H226040   2.902   0.684   2.604 -1.2085  0.8831 -0.9828
 1469TIP3   OH226041   5.741   2.161   8.059  0.1914  0.2414  0.0297
 1469TIP3    H126042   5.798   2.181   7.985 -1.4312  0.9999 -1.0741
 1469TIP3    H226043   5.793   2.183   8.136  1.6580  0.1414 -0.8819
 1470TIP3   OH226044   3.731   0.940   2.693  0.0837 -0.2793  0.5208
 1470TIP3    H126045   3.694   0.980   2.771  0.3556 -1.8210  1.4862
 1470TIP3    H226046   3.663   0.881   2.661  0.4898 -0.7088  0.4283
 1471TIP3   OH226047   2.058   2.086   1.768  0.2785 -1.1863 -0.0925
 1471TIP3    H126048   2.137   2.038   1.742  0.0992 -1.3626 -0.3229
 1471TIP3    H226049   2.011   2.100   1.686  1.6256  1.7843 -0.4682
 1472TIP3   OH226050   1.869   1.626   8.138 -0.3542  0.0968  0.3707
 1472TIP3    H126051   1.873   1.561   8.208 -0.4447 -0.8264 -0.4727
 1472TIP3    H226052   1.799   1.686   8.166  0.4162  0.4486  1.6434
 1473TIP3   OH226053   6.100   4.192   6.894 -0.2902 -0.0522 -0.5645
 1473TIP3    H126054   6.100   4.231   6.807 -1.1357  1.7347  0.1682
 1473TIP3    H226055   6.158   4.248   6.945 -0.3834 -0.6246  0.1885
 1474TIP3   OH226056   5.772   2.405   0.997 -0.0148 -0.2229  0.0105
 1474TIP3    H126057   5.730   2.434   0.916 -1.0581  0.7313  0.8613
 1474TIP3    H226058   5.726   2.325   1.020 -0.0745 -0.2110 -0.0657
 1475TIP3   OH226059   3.389   0.488   0.250 -0.4483  0.4965  0.1136
 1475TIP3    H126060   3.388   0.399   0.215 -2.1308  1.4812 -2.6329
 1475TIP3    H226061   3.376   0.544   0.174 -1.1170  3.0285  1.9636
 1476TIP3   OH226062   1.191   0.493   2.251  0.6232 -0.4938 -0.2540
 1476TIP3    H126063   1.286   0.479   2.253  0.4530 -1.8759 -0.2186
 1476TIP3    H226064   1.166   0.499   2.343  0.7567  0.5795 -0.2819
 1477TIP3   OH226065   0.585   2.548   7.563  0.4889 -0.0848  0.2368
 1477TIP3    H126066   0.499   2.510   7.545 -1.6737  3.7736  1.2713
 1477TIP3    H226067   0.621   2.568   7.477 -0.5378 -0.0819 -0.2139
 1478TIP3   OH226068   2.519   4.862   1.789 -0.5640  0.1157  0.6460
 1478TIP3    H126069   2.540   4.952   1.815  0.9110 -0.2064  0.6221
 1478TIP3    H226070   2.603   4.822   1.769 -1.2986 -0.9083 -0.5720
 1479TIP3   OH226071   4.195   6.010   0.394 -0.1303  0.0553  0.4546
 1479TIP3    H126072   4.251   5.979   0.466 -1.2581 -0.2386  1.2224
 1479TIP3    H226073   4.106   6.001   0.427 -0.6809 -0.0961 -0.9920
 1480TIP3   OH226074   5.594   2.263   2.125  0.0308 -0.2089  0.1914
 1480TIP3    H126075   5.587   2.199   2.196 -1.9156 -0.9625 -0.5980
 1480TIP3    H226076   5.643   2.217   2.056  0.2967 -0.1624  0.3516
 1481TIP3   OH226077   3.771   4.097   6.721  0.0575  0.1610  0.3179
 1481TIP3    H126078   3.763   4.026   6.785 -0.1686 -0.4021 -0.3149
 1481TIP3    H226079   3.862   4.091   6.690  0.2883  0.6983  0.8809
 1482TIP3   OH226080   1.763   1.516   7.920  0.3564 -0.4717  0.8327
 1482TIP3    H126081   1.812   1.567   7.984  0.4362  0.6248 -0.0712
 1482TIP3    H226082   1.826   1.455   7.883  0.6292 -0.2077  0.8630
 1483TIP3   OH226083   1.209   2.485   0.196  0.2485 -0.1211  0.5327
 1483TIP3    H126084   1.158   2.531   0.129  1.1044  0.3690  0.2037
 1483TIP3    H226085   1.184   2.527   0.278  1.3025  1.2363  0.1962
 1484TIP3   OH226086   0.032   2.542   0.407 -0.1866 -0.0982  0.0391
 1484TIP3    H126087   0.078   2.595   0.343  3.4188  0.4563  2.7559
 1484TIP3    H226088   0.100   2.489   0.448 -2.5107 -1.5949  2.3046
 1485TIP3   OH226089   1.212   1.490   1.533  0.3135 -0.2666  0.3617
 1485TIP3    H126090   1.298   1.470   1.498 -0.0883  0.2009 -0.9553
 1485TIP3    H226091   1.208   1.442   1.616  1.3294 -1.3481 -0.1829
 1486TIP3   OH226092   0.960   5.596   7.266  0.3995  0.1025 -0.0027
 1486TIP3    H126093   0.948   5.583   7.360 -0.2493  1.4113  0.1242
 1486TIP3    H226094   0.875   5.626   7.234  0.6849 -0.0660 -0.9556
 1487TIP3   OH226095   3.690   5.742   7.554 -0.3313  0.1384  0.5951
 1487TIP3    H126096   3.641   5.663   7.531 -2.3348  1.1386  1.1694
 1487TIP3    H226097   3.659   5.808   7.492  3.2030 -0.0058 -1.6284
 1488TIP3   OH226098   1.720   0.964   0.375 -0.3384  0.3675  0.0126
 1488TIP3    H126099   1.648   0.904   0.394 -0.3816  0.2471 -0.5011
 1488TIP3    H226100   1.715   0.978   0.280  0.2362  0.4588 -0.0092
 1489TIP3   OH226101   4.186   5.754   1.827  0.0557  0.1232 -0.7634
 1489TIP3    H126102   4.273   5.762   1.867 -0.4808  0.0291  0.4717
 1489TIP3    H226103   4.179   5.662   1.803 -0.4480 -0.3148  0.9636
 1490TIP3   OH226104   0.358   4.381   1.194  0.1999  0.0632  0.3519
 1490TIP3    H126105   0.273   4.376   1.150 -0.9347  3.5092  1.8539
 1490TIP3    H226106   0.340   4.356   1.285  0.8412  0.4736  0.6015
 1491TIP3   OH226107   1.348   0.568   0.629  0.1841 -0.1371  0.1713
 1491TIP3    H126108   1.276   0.613   0.673  0.0153 -1.3107  1.1173
 1491TIP3    H226109   1.383   0.508   0.694  0.9935 -0.7254 -0.7795
 1492TIP3   OH226110   4.762   3.568   8.316 -0.1268 -0.6121 -0.2556
 1492TIP3    H126111   4.718   3.603   8.239  0.4626  0.9933  0.1114
 1492TIP3    H226112   4.838   3.624   8.328  0.2914 -1.4086  0.9594
 1493TIP3   OH226113   6.754   5.934   0.289  0.8291  0.3390 -0.6317
 1493TIP3    H126114   6.675   5.922   0.342  1.3329  0.5010  0.1686
 1493TIP3    H226115   6.759   6.029   0.275 -0.0636  0.1900 -2.1748
 1494TIP3   OH226116   5.229   6.471   7.592 -0.2503 -0.0832  0.4978
 1494TIP3    H126117   5.312   6.498   7.554 -0.6331  0.7605  0.2357
 1494TIP3    H226118   5.202   6.396   7.540 -0.6832  0.9485 -0.8283
 1495TIP3   OH226119   4.804   4.771   7.599 -0.2838  0.4475 -0.2108
 1495TIP3    H126120   4.859   4.804   7.670  1.1274  0.9470 -1.4665
 1495TIP3    H226121   4.752   4.847   7.572 -0.3050  0.4466 -0.1732
 1496TIP3   OH226122   5.130   0.933   0.902  0.1052 -0.4635  0.3673
 1496TIP3    H126123   5.188   0.985   0.846 -0.5356  0.7668  0.7897
 1496TIP3    H226124   5.048   0.925   0.852 -0.0986 -0.2929  0.6668
 1497TIP3   OH226125   6.290   0.420   0.707  0.2466  0.5616 -0.2343
 1497TIP3    H126126   6.205   0.410   0.750 -0.2872  0.3626 -1.2835
 1497TIP3    H226127   6.347   0.356   0.750  0.4846  2.1100  1.9107
 1498TIP3   OH226128   5.746   6.290   1.672 -0.3123  0.2908  0.1599
 1498TIP3    H126129   5.706   6.377   1.666  0.6142  0.6958 -0.3557
 1498TIP3    H226130   5.796   6.281   1.590 -1.1588 -1.1226 -0.2339
 1499TIP3   OH226131   2.307   4.632   1.395  0.2939  0.1078 -0.4935
 1499TIP3    H126132   2.213   4.648   1.390 -0.0287 -1.6118 -0.5448
 1499TIP3    H226133   2.322   4.560   1.334  1.6082  0.2018 -0.3040
 1500TIP3   OH226134   2.678   2.915   1.056  0.1350 -0.1877  0.2773
 1500TIP3    H126135   2.759   2.876   1.090  0.4552 -0.5160 -0.8047
 1500TIP3    H226136   2.706   2.998   1.018 -0.4604  0.8833  2.0910
 1501TIP3   OH226137   3.380   3.508   0.249 -0.4148 -0.0588  0.2198
 1501TIP3    H126138   3.355   3.597   0.223 -2.7549 -0.7343 -0.1118
 1501TIP3    H226139   3.466   3.518   0.290 -0.4005  2.2707 -0.2244
 1502TIP3   OH226140   5.707   0.883   6.695 -0.0138  0.7008 -0.1301
 1502TIP3    H126141   5.646   0.811   6.680  0.7269  0.4337 -2.1484
 1502TIP3    H226142   5.653   0.952   6.734 -1.4220  0.1248 -0.9535
 1503TIP3   OH226143   2.722   0.958   2.076 -0.4778  0.3373 -0.0510
 1503TIP3    H126144   2.684   0.871   2.066 -0.4029  0.3112 -0.1077
 1503TIP3    H226145   2.775   0.952   2.155  1.8093 -0.4952 -1.5388
 1504TIP3   OH226146   5.251   0.387   0.091 -0.4074  0.4396 -0.6061
 1504TIP3    H126147   5.233   0.442   0.014  1.0185  1.2308 -0.4122
 1504TIP3    H226148   5.252   0.449   0.164  2.3129  0.4118 -0.5219
 1505TIP3   OH226149   5.662   3.503   6.426 -0.7059  0.2813 -0.2207
 1505TIP3    H126150   5.754   3.514   6.448 -1.0312 -0.2346  1.5226
 1505TIP3    H226151   5.662   3.484   6.332  1.0834 -1.2430  0.0259
 1506TIP3   OH226152   2.232   5.154   7.466 -0.3665  0.0573 -0.3255
 1506TIP3    H126153   2.196   5.138   7.379  0.3229  1.0073 -0.7966
 1506TIP3    H226154   2.291   5.080   7.482  0.9792  0.8259 -1.4876
 1507TIP3   OH226155   5.733   5.711   7.155  0.5724  0.3058  0.4576
 1507TIP3    H126156   5.784   5.719   7.074  0.2569  1.9090  0.3909
 1507TIP3    H226157   5.797   5.722   7.225  0.7431 -0.4621  0.4360
 1508TIP3   OH226158   2.651   3.468   7.482 -0.3256  0.2778  0.1431
 1508TIP3    H126159   2.591   3.463   7.557  0.9757 -0.1263  1.1931
 1508TIP3    H226160   2.603   3.519   7.417 -2.3724 -1.2230  0.3838
 1509TIP3   OH226161   2.230   0.738   0.037 -0.3400  0.7869 -0.1592
 1509TIP3    H126162   2.278   0.714   0.117  1.3334  2.8668 -0.4449
 1509TIP3    H226163   2.143   0.700   0.050 -0.0890  0.8929  2.5716
 1510TIP3   OH226164   4.143   0.242   0.643  0.5242 -0.0466  0.1129
 1510TIP3    H126165   4.227   0.235   0.599  1.0749  0.8081  0.9953
 1510TIP3    H226166   4.085   0.184   0.593  1.3348  0.2330 -1.1953
 1511TIP3   OH226167   2.626   0.353   0.375  0.0815 -0.1949 -0.0293
 1511TIP3    H126168   2.685   0.284   0.406 -1.2570 -0.0296  3.2851
 1511TIP3    H226169   2.653   0.431   0.422 -2.0587  0.1194  0.7799
 1512TIP3   OH226170   4.050   6.931   7.241 -0.2060  0.0761 -0.4030
 1512TIP3    H126171   4.107   6.920   7.318 -0.7554 -0.1548 -0.0243
 1512TIP3    H226172   3.983   6.863   7.251  0.1712 -0.4656 -1.5049
 1513TIP3   OH226173   3.400   4.943   7.983  0.5549 -0.1306 -0.0564
 1513TIP3    H126174   3.441   5.020   7.944 -1.9889 -0.0465 -2.8809
 1513TIP3    H226175   3.307   4.966   7.991 -0.0378 -2.3821  0.3399
 1514TIP3   OH226176   5.525   0.149   1.820  0.5609  0.0075 -0.0234
 1514TIP3    H126177   5.470   0.103   1.884  1.2315 -0.2444  0.3774
 1514TIP3    H226178   5.564   0.221   1.869  1.5406 -0.5327  0.0208
 1515TIP3   OH226179   4.375   2.891   1.032 -0.0805 -0.0747  0.3355
 1515TIP3    H126180   4.452   2.838   1.050  0.0801 -0.1515 -0.5345
 1515TIP3    H226181   4.309   2.860   1.095  0.9655  0.8728  1.9655
 1516TIP3   OH226182   2.976   0.696   8.258 -0.2668 -0.2280 -0.2858
 1516TIP3    H126183   3.053   0.640   8.274  1.4435  2.1123  0.2385
 1516TIP3    H226184   3.007   0.759   8.193 -1.9708  0.4205 -0.4912
 1517TIP3   OH226185   4.257   4.150   7.589  0.1128  0.2572  0.0258
 1517TIP3    H126186   4.210   4.155   7.506  1.2129  0.0951 -0.6274
 1517TIP3    H226187   4.298   4.236   7.598  0.0287  0.2596  0.3688
 1518TIP3   OH226188   3.019   5.317   0.835 -0.4122 -0.0812 -0.1104
 1518TIP3    H126189   3.065   5.240   0.869 -0.1631  0.1674  0.1250
 1518TIP3    H226190   2.931   5.311   0.873 -0.5827 -0.5572 -0.5592
 1519TIP3   OH226191   0.320   4.671   8.314 -0.2021 -0.3235 -0.8221
 1519TIP3    H126192   0.356   4.658   8.402  0.1055  1.3040 -0.6651
 1519TIP3    H226193   0.344   4.592   8.266  1.2813 -0.4433  0.0421
 1520TIP3   OH226194   1.232   1.023   1.668  0.2209 -0.8531 -0.3524
 1520TIP3    H126195   1.309   1.028   1.612  0.4244 -0.3329 -0.0346
 1520TIP3    H226196   1.188   0.942   1.641 -0.8969  0.4820 -2.8432
 1521TIP3   OH226197   4.357   6.665   6.884 -0.5819 -0.5367  0.2192
 1521TIP3    H126198   4.290   6.629   6.942 -1.4880 -0.6424 -0.8463
 1521TIP3    H226199   4.307   6.709   6.815  0.4508 -0.5856 -0.5785
 1522TIP3   OH226200   2.255   2.500   6.742 -0.4200  0.1614 -0.0759
 1522TIP3    H126201   2.173   2.548   6.733 -1.0647 -0.8324  0.3647
 1522TIP3    H226202   2.314   2.541   6.678 -1.0922  1.2116 -0.0427
 1523TIP3   OH226203   6.812   4.438   1.730 -0.5987  0.8062  0.0896
 1523TIP3    H126204   6.763   4.511   1.693  0.2348  0.8468 -0.9744
 1523TIP3    H226205   6.840   4.469   1.816 -0.1371  1.8015 -0.4080
 1524TIP3   OH226206   2.925   4.970   1.606  0.1512  0.3383 -0.1812
 1524TIP3    H126207   2.960   5.012   1.685  1.0803  1.2406 -1.0524
 1524TIP3    H226208   3.002   4.947   1.555 -0.4583  0.3347 -1.1188
 1525TIP3   OH226209   3.846   4.856   6.330  0.2923  0.4937 -0.4212
 1525TIP3    H126210   3.818   4.945   6.307 -1.3985 -0.1473 -0.9631
 1525TIP3    H226211   3.784   4.799   6.285  0.4384 -0.9410  1.1190
 1526TIP3   OH226212   1.498   5.852   1.549  0.5503  0.4081 -0.2673
 1526TIP3    H126213   1.462   5.825   1.633 -0.2981  1.9474 -0.0933
 1526TIP3    H226214   1.422   5.883   1.499  1.0470 -0.3916 -1.5777
 1527TIP3   OH226215   3.231   3.158   7.284 -0.1486 -0.3793  0.7266
 1527TIP3    H126216   3.210   3.245   7.317  1.0768 -0.3679  1.5813
 1527TIP3    H226217   3.307   3.131   7.336  0.3298 -1.3996 -0.4464
 1528TIP3   OH226218   4.936   6.402   8.215  0.0338 -0.0487  0.1494
 1528TIP3    H126219   4.890   6.446   8.143  0.2850 -0.1467 -0.0749
 1528TIP3    H226220   4.946   6.312   8.185  1.4741  0.2535 -0.3644
 1529TIP3   OH226221   2.225   2.657   2.502 -0.0317 -0.4605 -0.5378
 1529TIP3    H126222   2.185   2.729   2.454  1.5752 -0.3350 -1.7731
 1529TIP3    H226223   2.161   2.587   2.499 -1.3508  0.6744  0.1145
 1530TIP3   OH226224   6.636   2.806   1.307  0.1786  0.0958 -0.0996
 1530TIP3    H126225   6.693   2.882   1.299  1.5551 -0.8927 -0.0656
 1530TIP3    H226226   6.597   2.814   1.394  1.6879 -0.1397  0.6238
 1531TIP3   OH226227   4.756   5.917   1.958 -0.4716 -0.0967 -0.3207
 1531TIP3    H126228   4.725   6.006   1.942  2.2794  0.9903 -0.1888
 1531TIP3    H226229   4.708   5.888   2.036 -1.6156  1.1475 -0.5402
 1532TIP3   OH226230   4.216   5.716   0.343  0.8626 -0.4735 -0.2806
 1532TIP3    H126231   4.178   5.782   0.285  0.3797  0.6680  1.2455
 1532TIP3    H226232   4.291   5.760   0.383 -0.0453 -0.4373  1.5045
 1533TIP3   OH226233   1.183   0.317   2.008 -0.2560 -0.1026 -0.0369
 1533TIP3    H126234   1.235   0.240   2.034 -0.5339 -0.2321  0.1400
 1533TIP3    H226235   1.242   0.391   2.020  0.6278 -0.4364 -1.8882
 1534TIP3   OH226236   5.071   6.387   0.080 -0.0170 -0.9485 -0.5989
 1534TIP3    H126237   5.154   6.347   0.106 -0.5388 -1.9189 -0.3800
 1534TIP3    H226238   5.083   6.408  -0.013  1.7697  2.3074  0.2328
 1535TIP3   OH226239   2.237   6.674   1.319  0.0097 -0.0504  0.2480
 1535TIP3    H126240   2.258   6.618   1.244 -1.0386 -0.0668 -0.0523
 1535TIP3    H226241   2.319   6.681   1.368  1.0825  1.0130 -1.5741
 1536TIP3   OH226242   2.221   0.918   2.415 -0.3633 -0.0011  0.0915
 1536TIP3    H126243   2.227   0.833   2.459  0.4825  0.9557  1.8932
 1536TIP3    H226244   2.238   0.898   2.323  1.4522 -1.5823  0.7038
 1537TIP3   OH226245   4.042   0.219   7.784  0.2208  0.1991 -0.1065
 1537TIP3    H126246   4.074   0.199   7.871  0.3540  1.7102  0.2142
 1537TIP3    H226247   4.117   0.255   7.738 -0.1044  0.3564 -0.5251
 1538TIP3   OH226248   1.315   4.148   7.913  0.0123  0.3573 -0.1647
 1538TIP3    H126249   1.275   4.235   7.920  1.4202  0.9228  3.6153
 1538TIP3    H226250   1.281   4.100   7.989  0.6608 -1.8090 -1.1641
 1539TIP3   OH226251   0.482   0.308   7.225  0.2311  0.1799 -0.0467
 1539TIP3    H126252   0.538   0.383   7.204  0.8707 -0.1750  0.3666
 1539TIP3    H226253   0.452   0.277   7.140  1.6953 -0.4045 -0.3710
 1540TIP3   OH226254   6.425   6.516   6.544  0.3217  0.4989  0.1627
 1540TIP3    H126255   6.369   6.583   6.505 -0.3711 -1.1600 -1.8585
 1540TIP3    H226256   6.514   6.549   6.530  0.0407  0.5383 -1.8166
 1541TIP3   OH226257   2.840   4.401   1.319 -0.4011  0.5437  0.6416
 1541TIP3    H126258   2.850   4.417   1.225  1.5293  4.9032  1.3409
 1541TIP3    H226259   2.752   4.434   1.339 -0.4847  0.4011  0.5136
 1542TIP3   OH226260   6.887   6.669   0.241  0.1913  0.3382  0.6251
 1542TIP3    H126261   6.923   6.730   0.177 -0.8226 -0.4328 -0.7151
 1542TIP3    H226262   6.958   6.607   0.257  1.3512  1.9776  2.2527
 1543TIP3   OH226263   2.234   1.387   8.302  0.3816  0.7257  0.2618
 1543TIP3    H126264   2.233   1.341   8.386 -0.7759 -1.2951 -0.7592
 1543TIP3    H226265   2.249   1.317   8.237  0.0035  2.0163 -1.2835
 1544TIP3   OH226266   3.991   1.822   6.820  0.0974  0.1405 -0.0752
 1544TIP3    H126267   4.011   1.909   6.785 -2.3410  0.3901 -1.1082
 1544TIP3    H226268   3.987   1.835   6.915  0.5962  0.9476 -0.1530
 1545TIP3   OH226269   5.941   2.863   0.154  0.9081 -0.2963  0.2340
 1545TIP3    H126270   5.970   2.954   0.153  0.4814 -0.1630 -0.0820
 1545TIP3    H226271   5.876   2.858   0.084  0.8397 -0.8153  0.3333
 1546TIP3   OH226272   1.660   4.440   1.609  1.0147 -0.2379 -0.3120
 1546TIP3    H126273   1.609   4.497   1.553  0.9377  0.2462  0.2439
 1546TIP3    H226274   1.597   4.407   1.673  0.0406 -4.2187 -2.9512
 1547TIP3   OH226275   4.796   4.968   6.916  0.3120 -0.3792  0.7129
 1547TIP3    H126276   4.841   4.883   6.923  0.2509 -0.3456  1.6901
 1547TIP3    H226277   4.719   4.950   6.862  2.1161 -0.1555 -2.1668
 1548TIP3   OH226278   1.638   1.771   8.173  0.2165  0.3068  0.2437
 1548TIP3    H126279   1.564   1.714   8.153 -0.8998  0.7275  2.8077
 1548TIP3    H226280   1.600   1.859   8.174  1.4596  0.9243 -1.4605
 1549TIP3   OH226281   4.354   2.750   6.891  0.2794 -0.6998 -0.6522
 1549TIP3    H126282   4.440   2.763   6.853  0.6521  2.4334  0.9196
 1549TIP3    H226283   4.293   2.763   6.818  1.0665 -1.0872 -1.3948
 1550TIP3   OH226284   3.078   3.405   7.261  0.3337 -0.2036  0.0500
 1550TIP3    H126285   3.112   3.413   7.172  3.0319  3.5393  1.1940
 1550TIP3    H226286   3.001   3.462   7.264 -0.3186 -1.0537 -0.0581
 1551TIP3   OH226287   0.045   1.519   1.066 -0.3064 -0.2205  0.1693
 1551TIP3    H126288   0.013   1.602   1.032 -0.5041 -0.6241 -0.6522
 1551TIP3    H226289   0.046   1.531   1.161 -0.2660  0.7372  0.0606
 1552TIP3   OH226290   2.035   0.686   8.355  0.1863 -0.5365 -0.4343
 1552TIP3    H126291   2.082   0.769   8.361 -0.2265 -0.3771  1.0795
 1552TIP3    H226292   1.958   0.706   8.302  0.5784 -0.1938 -0.8789
 1553TIP3   OH226293   1.548   3.208   1.830 -0.2379  0.8535  0.2405
 1553TIP3    H126294   1.636   3.213   1.867  0.4876 -0.7857 -1.1349
 1553TIP3    H226295   1.549   3.272   1.758 -0.0085  0.5271 -0.0514
 1554TIP3   OH226296   2.245   6.626   7.469 -0.0685 -0.1503 -0.2186
 1554TIP3    H126297   2.306   6.652   7.539  1.1160 -0.6626 -1.0242
 1554TIP3    H226298   2.160   6.659   7.498  0.3383 -0.6032  1.5940
 1555TIP3   OH226299   1.397   6.184   1.528  0.4889  0.0780 -0.5755
 1555TIP3    H126300   1.394   6.131   1.607  0.0141 -0.7954 -1.1513
 1555TIP3    H226301   1.314   6.232   1.527 -0.0578 -0.8371 -1.1321
 1556TIP3   OH226302   3.823   5.234   0.319 -0.3027  0.9248 -0.6648
 1556TIP3    H126303   3.901   5.265   0.275 -1.0240  0.3073 -2.4533
 1556TIP3    H226304   3.758   5.223   0.249 -0.5137 -3.2937 -0.0556
 1557TIP3   OH226305   5.307   1.854   0.132 -0.6179 -0.1861  0.2229
 1557TIP3    H126306   5.369   1.923   0.106  1.0615 -0.5139  2.9546
 1557TIP3    H226307   5.351   1.772   0.110 -1.6406 -0.4642 -0.9392
 1558TIP3   OH226308   3.674   1.984   8.282  0.1986 -0.1120 -0.1867
 1558TIP3    H126309   3.724   1.937   8.349 -0.3545  0.1042  0.3934
 1558TIP3    H226310   3.644   2.064   8.327  1.1563  0.8289 -1.1587
 1559TIP3   OH226311   0.887   3.557   0.864 -0.0756 -0.7426  0.0312
 1559TIP3    H126312   0.827   3.575   0.791 -1.3379 -1.3496  0.8761
 1559TIP3    H226313   0.846   3.601   0.939  0.8031 -0.7712  0.5340
 1560TIP3   OH226314   5.425   1.751   6.897  0.1767 -0.3720 -0.2777
 1560TIP3    H126315   5.344   1.738   6.848 -0.2015  3.0265 -0.7427
 1560TIP3    H226316   5.398   1.743   6.989 -0.2786 -1.1189 -0.4657
 1561TIP3   OH226317   0.063   6.460   6.824 -0.0431  0.3792 -0.5797
 1561TIP3    H126318   0.145   6.469   6.872  0.2144  2.1386 -1.2566
 1561TIP3    H226319   0.070   6.524   6.753 -2.9521  2.3461  0.7325
 1562TIP3   OH226320   6.098   0.147   7.931 -0.8596 -0.3053  0.0047
 1562TIP3    H126321   6.025   0.090   7.955 -1.5211 -1.1252 -3.4606
 1562TIP3    H226322   6.072   0.233   7.962 -1.7008 -1.1575  1.8146
 1563TIP3   OH226323   3.295   5.554   1.251  0.5324 -0.3798  0.0835
 1563TIP3    H126324   3.273   5.620   1.186 -1.4422 -0.1820  0.8992
 1563TIP3    H226325   3.332   5.604   1.325 -1.4301 -0.0650  0.9082
 1564TIP3   OH226326   2.880   2.370   6.876  0.1080 -0.2311 -0.2422
 1564TIP3    H126327   2.902   2.422   6.798 -1.6583 -1.3371 -1.5377
 1564TIP3    H226328   2.962   2.326   6.899  1.0545  1.3127 -0.4987
 1565TIP3   OH226329   0.451   4.409   8.201 -0.9595  0.5449  0.7530
 1565TIP3    H126330   0.381   4.346   8.185 -1.1092  0.9710 -0.4054
 1565TIP3    H226331   0.474   4.398   8.293  0.3495 -2.5695  0.1653
 1566TIP3   OH226332   4.470   0.992   1.204  0.6090  0.3434  0.0310
 1566TIP3    H126333   4.510   1.054   1.143  2.3766 -0.4055  0.3825
 1566TIP3    H226334   4.432   0.924   1.147  0.3992  0.7203 -0.2856
 1567TIP3   OH226335   6.769   4.948   8.382 -0.2018 -0.1540  0.0693
 1567TIP3    H126336   6.724   4.999   8.314 -0.6214  0.1079  0.5425
 1567TIP3    H226337   6.703   4.885   8.412 -0.4192  0.5485  1.1025
 1568TIP3   OH226338   3.553   5.944   8.419  0.3872  0.2133 -0.1568
 1568TIP3    H126339   3.637   5.977   8.450  1.2370 -0.7885 -1.3154
 1568TIP3    H226340   3.574   5.891   8.343 -1.2082 -0.8575  0.0939
 1569TIP3   OH226341   3.342   5.763   8.046 -0.3987 -0.1737 -0.8102
 1569TIP3    H126342   3.259   5.810   8.055 -0.6039 -0.6947  0.0582
 1569TIP3    H226343   3.321   5.688   7.990 -0.8583 -1.0922  0.5519
 1570TIP3   OH226344   0.260   4.830   2.268 -0.3244  0.2321 -0.0593
 1570TIP3    H126345   0.231   4.921   2.272 -1.7940 -0.2595  1.1673
 1570TIP3    H226346   0.269   4.804   2.359  0.1955 -0.8300 -0.4054
 1571TIP3   OH226347   5.498   6.405   7.459  0.3325  0.4484 -0.1037
 1571TIP3    H126348   5.566   6.446   7.406  0.4579  1.1701  0.5877
 1571TIP3    H226349   5.447   6.352   7.398  1.1215  0.4204 -0.7396
 1572TIP3   OH226350   1.383   2.000   1.235 -0.4649 -0.1283  0.5012
 1572TIP3    H126351   1.353   1.970   1.149 -0.2006 -0.9002  0.6688
 1572TIP3    H226352   1.371   2.094   1.233 -0.6168 -0.1568 -0.3273
 1573TIP3   OH226353   6.877   0.419   0.938 -1.0512 -0.0613  0.8547
 1573TIP3    H126354   6.814   0.470   0.887 -1.3134 -3.0593 -2.0700
 1573TIP3    H226355   6.963   0.448   0.906 -0.9797  1.3304  2.1618
 1574TIP3   OH226356   3.638   0.622   2.016  0.2345  0.7173  0.1224
 1574TIP3    H126357   3.709   0.559   2.030  0.6745  1.1870  0.0521
 1574TIP3    H226358   3.564   0.569   1.985  0.7125  0.2868 -0.2938
 1575TIP3   OH226359   5.568   2.661   7.972  0.0288 -0.0131  0.1323
 1575TIP3    H126360   5.598   2.612   8.049  1.1367 -0.4541 -0.5473
 1575TIP3    H226361   5.648   2.698   7.935 -0.5043  0.2949 -0.7410
 1576TIP3   OH226362   1.093   0.630   7.347  0.1399 -0.4204 -0.7074
 1576TIP3    H126363   1.062   0.685   7.275 -1.6729  1.3578  1.2965
 1576TIP3    H226364   1.021   0.630   7.410  1.3668 -2.4864  0.8259
 1577TIP3   OH226365   1.342   6.732   1.435 -0.4810 -0.1671 -0.2793
 1577TIP3    H126366   1.290   6.654   1.415  1.0925 -2.2877  2.9291
 1577TIP3    H226367   1.368   6.720   1.527  4.2733  1.4348 -1.1040
 1578TIP3   OH226368   5.891   3.727   0.942  0.1679  0.0453 -0.7885
 1578TIP3    H126369   5.942   3.763   1.015  0.7910 -2.4076  0.0985
 1578TIP3    H226370   5.945   3.742   0.865  0.7647  0.3196 -0.3263
 1579TIP3   OH226371   1.833   0.300   1.631  0.2833  0.3296 -0.2969
 1579TIP3    H126372   1.870   0.318   1.544  0.9097 -0.4276 -0.1977
 1579TIP3    H226373   1.909   0.277   1.685 -0.1652  0.2756  0.3199
 1580TIP3   OH226374   0.748   1.930   0.132  0.5413 -0.2987 -0.1736
 1580TIP3    H126375   0.763   2.012   0.086 -0.1300 -0.7126 -1.1559
 1580TIP3    H226376   0.826   1.878   0.115  0.7948 -0.0205  0.1235
 1581TIP3   OH226377   0.371   1.668   1.239  0.7849  0.1733 -0.6287
 1581TIP3    H126378   0.355   1.608   1.167  2.1522  1.8465 -2.4559
 1581TIP3    H226379   0.428   1.619   1.299  1.3590 -0.5654 -1.7478
 1582TIP3   OH226380   5.540   5.503   0.296 -0.0271  0.1339 -0.6261
 1582TIP3    H126381   5.461   5.453   0.274 -0.0511  0.8615 -2.3884
 1582TIP3    H226382   5.533   5.519   0.390 -0.9149 -1.6041 -0.3577
 1583TIP3   OH226383   0.966   4.286   8.210 -0.0124  0.3526 -0.1987
 1583TIP3    H126384   0.950   4.237   8.290  0.4828  1.0718  0.3477
 1583TIP3    H226385   0.885   4.334   8.194 -0.7001 -1.0223 -1.0326
 1584TIP3   OH226386   5.701   3.880   1.155  0.6325 -0.6561  0.7633
 1584TIP3    H126387   5.674   3.871   1.064  0.9927  3.6944 -0.0122
 1584TIP3    H226388   5.797   3.874   1.153  0.6115 -1.0876  0.9581
 1585TIP3   OH226389   4.380   5.315   6.887  0.0417  0.1005  0.0474
 1585TIP3    H126390   4.439   5.390   6.899  0.7669 -0.3307 -0.7196
 1585TIP3    H226391   4.302   5.338   6.937  1.1379  0.3531  1.7238
 1586TIP3   OH226392   6.132   1.011   0.854 -0.3842  0.0099  0.1038
 1586TIP3    H126393   6.201   1.075   0.870 -0.5023  0.1741 -0.0419
 1586TIP3    H226394   6.109   0.978   0.941  0.2775 -0.4678  0.1109
 1587TIP3   OH226395   5.787   1.658   2.519  0.0487  0.1255 -0.9754
 1587TIP3    H126396   5.877   1.634   2.542 -0.7431 -1.2221  0.9869
 1587TIP3    H226397   5.762   1.723   2.584 -0.1626  1.1324 -2.0272
 1588TIP3   OH226398   2.663   2.810   8.029 -0.3472  0.3823  0.1897
 1588TIP3    H126399   2.600   2.882   8.039  0.8675  1.4811  0.1574
 1588TIP3    H226400   2.690   2.790   8.119 -1.1639 -0.5000  0.2532
 1589TIP3   OH226401   6.725   5.947   1.398 -0.0128 -0.1694  0.7929
 1589TIP3    H126402   6.769   6.026   1.368  0.8158 -0.6281  0.7647
 1589TIP3    H226403   6.729   5.952   1.493  1.6700 -1.0391  0.7971
 1590TIP3   OH226404   5.709   4.876   7.288 -0.4729 -0.3687 -0.0175
 1590TIP3    H126405   5.711   4.804   7.225  1.8369 -0.2283 -0.1909
 1590TIP3    H226406   5.740   4.837   7.369 -0.7206  0.0954  0.3015
 1591TIP3   OH226407   5.288   5.399   0.023 -0.0229 -0.0094  0.1340
 1591TIP3    H126408   5.233   5.466   0.062  1.2624  1.0410  0.2067
 1591TIP3    H226409   5.299   5.427  -0.068  1.6448  0.6854  0.5030
 1592TIP3   OH226410   1.724   0.561   7.506 -0.3701 -0.0311 -0.4330
 1592TIP3    H126411   1.749   0.653   7.499 -1.6355  0.3407 -0.3087
 1592TIP3    H226412   1.782   0.525   7.574 -1.2663  1.2153  1.0608
 1593TIP3   OH226413   5.972   2.752   8.231  0.3918  0.1024 -0.8098
 1593TIP3    H126414   5.924   2.672   8.252 -0.7707  0.9198 -0.1769
 1593TIP3    H226415   6.052   2.746   8.283  0.3150 -0.6537 -0.7680
 1594TIP3   OH226416   3.137   4.133   7.540  0.0964  0.7723 -0.3927
 1594TIP3    H126417   3.126   4.085   7.622 -1.9419  0.7985 -0.6066
 1594TIP3    H226418   3.151   4.223   7.567  0.5721  0.6052 -0.0652
 1595TIP3   OH226419   4.916   2.919   0.822  0.0760  0.0969 -0.4425
 1595TIP3    H126420   4.940   3.007   0.849 -0.0588  0.5855 -1.8319
 1595TIP3    H226421   4.974   2.899   0.749 -0.0417 -0.8827 -0.2827
 1596TIP3   OH226422   2.085   6.141   7.326  0.3200  0.6041  0.6110
 1596TIP3    H126423   2.147   6.079   7.366  0.0586 -0.3435 -0.4009
 1596TIP3    H226424   2.133   6.224   7.322 -0.0231  1.1051  3.9236
 1597TIP3   OH226425   2.936   5.078   0.272  0.2717 -0.4509  0.2665
 1597TIP3    H126426   2.986   5.091   0.191 -0.9578 -0.4942 -0.5324
 1597TIP3    H226427   2.885   5.158   0.281 -0.4742 -0.9261  0.3477
 1598TIP3   OH226428   2.408   5.494   1.823 -0.5106  0.6028  0.1374
 1598TIP3    H126429   2.399   5.515   1.916 -2.0252  0.9628 -0.0764
 1598TIP3    H226430   2.392   5.400   1.817 -0.8135  0.6528  0.1827
 1599TIP3   OH226431   5.239   0.221   0.659 -0.7666 -0.2957  0.3430
 1599TIP3    H126432   5.296   0.227   0.583 -0.0035 -1.1132  0.8332
 1599TIP3    H226433   5.258   0.301   0.709 -0.4477 -0.3017  0.2361
 1600TIP3   OH226434   4.142   4.749   6.902  0.3222  0.5075  0.3359
 1600TIP3    H126435   4.105   4.729   6.816  0.6563  0.3182  0.2321
 1600TIP3    H226436   4.174   4.664   6.934 -2.0045  0.0896  1.7375
 1601TIP3   OH226437   1.599   3.202   0.099  0.4789 -0.6915 -0.1012
 1601TIP3    H126438   1.600   3.245   0.013  2.7884 -0.3672  0.0308
 1601TIP3    H226439   1.596   3.109   0.079 -1.2042 -0.5928 -0.4559
 1602TIP3   OH226440   3.500   2.373   8.124  0.4134  0.6463  0.1625
 1602TIP3    H126441   3.425   2.337   8.077  1.1609 -0.1226 -0.4899
 1602TIP3    H226442   3.475   2.369   8.216  0.0080 -0.4960  0.0238
 1603TIP3   OH226443   4.640   5.810   1.201  0.0270 -0.1731  0.1349
 1603TIP3    H126444   4.575   5.762   1.151 -0.4856  0.5641  0.0891
 1603TIP3    H226445   4.721   5.760   1.188 -0.1999 -0.2740 -1.0115
 1604TIP3   OH226446   2.561   1.565   0.387  0.0296  0.2271 -0.0616
 1604TIP3    H126447   2.582   1.472   0.392 -0.0998  0.1828 -0.3555
 1604TIP3    H226448   2.590   1.592   0.300 -3.0057 -0.3074 -1.3678
 1605TIP3   OH226449   4.188   5.536   7.954  0.4547  0.2994 -0.6579
 1605TIP3    H126450   4.169   5.537   8.048  1.1743 -0.1494 -0.4978
 1605TIP3    H226451   4.195   5.443   7.932  0.4773  0.4082 -1.1191
 1606TIP3   OH226452   3.624   0.413   1.022  0.0895 -0.0586 -0.4350
 1606TIP3    H126453   3.611   0.350   0.951  0.1680 -0.2316 -0.2953
 1606TIP3    H226454   3.536   0.440   1.047  0.0337 -0.4739 -0.1706
 1607TIP3   OH226455   1.969   1.101   7.589  0.0042  0.0288 -0.2111
 1607TIP3    H126456   1.936   1.099   7.500 -0.9752  0.1121  0.1369
 1607TIP3    H226457   2.058   1.136   7.581 -0.3637  0.8096 -1.0594
 1608TIP3   OH226458   6.033   4.257   2.588 -0.0332  0.7450  1.1513
 1608TIP3    H126459   6.107   4.200   2.609  0.7806  1.3630  0.0264
 1608TIP3    H226460   6.006   4.230   2.500  2.2892  3.9538 -0.7719
 1609TIP3   OH226461   1.108   2.124   0.049 -0.0806  0.1341  0.4869
 1609TIP3    H126462   1.057   2.202   0.029  2.6074  2.6150  2.4721
 1609TIP3    H226463   1.192   2.138   0.004  0.3632 -1.7865  0.6292
 1610TIP3   OH226464   1.885   2.874   1.811  0.0776 -0.8645 -0.1544
 1610TIP3    H126465   1.817   2.826   1.764  0.0566 -1.3977  0.4118
 1610TIP3    H226466   1.868   2.856   1.904 -0.2484  0.6571  0.1091
 1611TIP3   OH226467   4.105   1.442   7.316  0.9846 -0.4211 -0.3869
 1611TIP3    H126468   4.172   1.507   7.295  0.0988  0.2981 -1.0720
 1611TIP3    H226469   4.051   1.436   7.237 -0.4319 -0.1433  0.5192
 1612TIP3   OH226470   4.960   1.095   0.292 -0.0709  0.1663  0.2126
 1612TIP3    H126471   5.030   1.156   0.317 -0.6847  0.1881  2.0081
 1612TIP3    H226472   4.882   1.151   0.282 -0.2311 -0.0842  0.0404
 1613TIP3   OH226473   3.712   0.857   7.708  0.0329  0.1971  0.7012
 1613TIP3    H126474   3.770   0.787   7.738  0.0074  1.0796  2.9735
 1613TIP3    H226475   3.679   0.897   7.788 -2.6151  0.6699 -0.5375
 1614TIP3   OH226476   4.019   2.747   8.383 -0.4386  0.2854  0.3992
 1614TIP3    H126477   4.001   2.819   8.443 -1.3083 -1.4161  2.3054
 1614TIP3    H226478   4.075   2.785   8.315  0.2057  2.4201  2.0216
 1615TIP3   OH226479   4.330   1.633   6.982 -0.0340 -0.5527 -0.0193
 1615TIP3    H126480   4.248   1.591   7.009  0.2615 -0.5088  0.9892
 1615TIP3    H226481   4.396   1.598   7.043  0.3364  0.8844  0.4473
 1616TIP3   OH226482   6.856   3.597   7.708  0.4078  0.3210 -0.0047
 1616TIP3    H126483   6.944   3.563   7.694  0.5127  0.1267  1.0609
 1616TIP3    H226484   6.845   3.600   7.803 -0.9593 -0.2583 -0.1109
 1617TIP3   OH226485   0.210   5.555   0.315 -0.6323 -0.6246  0.1159
 1617TIP3    H126486   0.141   5.622   0.316  0.3445  0.5364 -2.4827
 1617TIP3    H226487   0.178   5.489   0.254  0.1002 -0.5540 -0.3551
 1618TIP3   OH226488   0.259   3.576   1.308  0.0880 -0.4609  0.5125
 1618TIP3    H126489   0.194   3.509   1.286 -0.2674  0.6672 -2.4067
 1618TIP3    H226490   0.206   3.653   1.329  0.4796 -0.2522  0.7330
 1619TIP3   OH226491   5.876   1.159   1.173 -0.4367  0.0632  0.7167
 1619TIP3    H126492   5.948   1.097   1.167 -1.6390 -1.3847  0.5235
 1619TIP3    H226493   5.895   1.225   1.105  0.1477 -0.8987 -0.0848
 1620TIP3   OH226494   3.797   6.053   0.949 -0.8139  0.1996  0.4787
 1620TIP3    H126495   3.878   6.011   0.921 -0.2187  1.3746  0.3967
 1620TIP3    H226496   3.727   5.996   0.916 -0.0766  0.1903 -1.1435
 1621TIP3   OH226497   0.774   5.360   6.941  0.3111 -0.3143  0.0817
 1621TIP3    H126498   0.681   5.355   6.965  0.0748 -0.5750 -0.8426
 1621TIP3    H226499   0.775   5.404   6.856  0.9033 -1.5379 -0.5835
 1622TIP3   OH226500   0.431   6.654   2.207  0.4232  0.1988 -0.4374
 1622TIP3    H126501   0.424   6.570   2.251  0.3525  1.6997  2.6923
 1622TIP3    H226502   0.346   6.666   2.164  0.0527 -0.8554 -0.0259
 1623TIP3   OH226503   5.513   5.378   7.223 -0.0027 -0.2437 -0.1025
 1623TIP3    H126504   5.602   5.354   7.198  0.2098 -0.1551  0.5628
 1623TIP3    H226505   5.503   5.468   7.192  0.3358 -0.0596  0.3008
 1624TIP3   OH226506   3.822   6.495   7.877  0.0605  0.2178  0.0099
 1624TIP3    H126507   3.767   6.417   7.884  0.6256 -0.1649  0.2508
 1624TIP3    H226508   3.877   6.492   7.955  0.8632  0.2503 -0.5440
 1625TIP3   OH226509   5.683   5.409   7.823  0.2643 -0.1143  0.3037
 1625TIP3    H126510   5.678   5.315   7.808 -2.6994 -0.0302  0.0132
 1625TIP3    H226511   5.732   5.443   7.749  0.5817 -1.3552 -0.0694
 1626TIP3   OH226512   1.308   5.746   0.643 -0.4096 -0.5857 -0.2810
 1626TIP3    H126513   1.261   5.678   0.691  0.5030 -0.0407  1.4539
 1626TIP3    H226514   1.343   5.804   0.711  2.3435 -0.6773 -1.4874
 1627TIP3   OH226515   4.846   0.579   1.894 -0.5651 -0.2205 -0.2644
 1627TIP3    H126516   4.763   0.569   1.848 -0.0633 -0.0174 -1.2535
 1627TIP3    H226517   4.911   0.540   1.835 -0.1034 -1.5236  1.0611
 1628TIP3   OH226518   3.829   0.645   7.898  0.7810  0.2385 -0.5327
 1628TIP3    H126519   3.861   0.576   7.955  1.5635 -0.0378 -1.2859
 1628TIP3    H226520   3.903   0.706   7.890  0.7339  0.2026 -1.3520
 1629TIP3   OH226521   4.709   1.182   0.795 -0.3711  0.1117 -0.6269
 1629TIP3    H126522   4.630   1.192   0.742  0.1793  2.1235 -1.1823
 1629TIP3    H226523   4.682   1.209   0.883 -0.0605  2.1296 -1.0952
 1630TIP3   OH226524   5.174   2.996   7.811 -0.3432 -0.2028  0.5339
 1630TIP3    H126525   5.127   3.057   7.868 -0.6869 -0.4266  0.4903
 1630TIP3    H226526   5.257   2.981   7.856 -0.3186  0.1804  0.6197
 1631TIP3   OH226527   5.624   2.760   8.249  0.3228 -0.1451  0.4042
 1631TIP3    H126528   5.577   2.741   8.331  0.9397  0.2503  0.8571
 1631TIP3    H226529   5.647   2.673   8.214 -1.8757 -0.4158 -0.5228
 1632TIP3   OH226530   2.677   4.193   6.910 -0.6332  0.0818 -0.0081
 1632TIP3    H126531   2.655   4.101   6.897 -0.2412 -0.3222  1.9188
 1632TIP3    H226532   2.644   4.237   6.831 -1.1023 -1.6425 -0.8180
 1633TIP3   OH226533   5.872   3.927   0.719  0.3566  0.4951 -0.2515
 1633TIP3    H126534   5.804   3.860   0.731  0.7501  0.0679 -0.4013
 1633TIP3    H226535   5.886   3.930   0.625 -0.3158  1.4501 -0.3368
 1634TIP3   OH226536   0.565   1.635   7.692 -0.1281 -0.1839 -0.5325
 1634TIP3    H126537   0.491   1.577   7.679  0.5023 -1.5150  1.2768
 1634TIP3    H226538   0.640   1.576   7.701  0.7249  0.9720  0.2523
 1635TIP3   OH226539   6.754   0.480   1.841 -0.2431  0.5910 -0.6530
 1635TIP3    H126540   6.758   0.399   1.790  0.3693  1.7121 -2.4716
 1635TIP3    H226541   6.826   0.533   1.808 -1.7021  2.5962 -0.7589
 1636TIP3   OH226542   4.045   5.747   8.306 -0.0472  0.3271  0.3167
 1636TIP3    H126543   4.114   5.810   8.323  0.9348 -0.6276  0.0145
 1636TIP3    H226544   4.086   5.680   8.251 -1.5523  0.3636 -0.9458
 1637TIP3   OH226545   0.877   1.277   7.891 -0.1084  0.4202 -0.5050
 1637TIP3    H126546   0.883   1.238   7.978  1.4344  0.4682 -0.5695
 1637TIP3    H226547   0.959   1.252   7.848  0.4005  2.7224 -0.9688
 1638TIP3   OH226548   0.201   3.257   6.758 -0.8362  0.8208 -0.2354
 1638TIP3    H126549   0.142   3.300   6.820  0.0706  2.1402 -0.2469
 1638TIP3    H226550   0.284   3.250   6.805 -0.8880 -0.7138 -0.3347
 1639TIP3   OH226551   1.587   0.964   7.042  0.1310  0.3705  0.6018
 1639TIP3    H126552   1.654   1.017   6.998  2.4068 -3.1907 -0.6790
 1639TIP3    H226553   1.632   0.929   7.120 -0.2311 -1.8767 -0.1354
 1640TIP3   OH226554   5.291   3.453   8.128  0.3299 -0.1775 -0.4198
 1640TIP3    H126555   5.324   3.394   8.061  1.8683 -1.7458  1.5844
 1640TIP3    H226556   5.320   3.540   8.101 -0.2876 -0.5396 -2.4274
 1641TIP3   OH226557   0.167   0.550   0.919  0.2583 -0.3241  0.3012
 1641TIP3    H126558   0.195   0.556   0.828 -0.3793  1.8595  0.1872
 1641TIP3    H226559   0.231   0.603   0.967  1.3539 -2.4877  1.3884
 1642TIP3   OH226560   0.219   4.609   2.110 -0.3547  0.1389  0.2250
 1642TIP3    H126561   0.127   4.597   2.134  0.1310 -1.6932  1.3412
 1642TIP3    H226562   0.254   4.667   2.178 -0.6194  0.6745 -0.0880
 1643TIP3   OH226563   5.975   3.703   0.295 -0.1049  0.4799  0.1657
 1643TIP3    H126564   6.012   3.769   0.353 -1.4993  2.5690 -1.1847
 1643TIP3    H226565   6.039   3.693   0.225 -0.8029  2.0559 -0.7428
 1644TIP3   OH226566   0.990   0.396   1.125 -0.4524  0.0702 -0.3691
 1644TIP3    H126567   0.953   0.312   1.100 -1.1988  0.1425  0.4251
 1644TIP3    H226568   1.084   0.383   1.121 -0.5566 -0.8694 -0.0746
 1645TIP3   OH226569   5.489   3.466   1.541 -0.0692  0.7142 -0.5539
 1645TIP3    H126570   5.580   3.439   1.540 -0.5902 -1.1672 -1.5464
 1645TIP3    H226571   5.466   3.470   1.634  1.0266  1.2905 -0.2988
 1646TIP3   OH226572   2.452   5.577   7.714  0.0857 -0.4173 -0.0954
 1646TIP3    H126573   2.376   5.635   7.704 -0.1253 -0.9451 -1.8145
 1646TIP3    H226574   2.418   5.489   7.697  0.7939 -0.8521  0.6362
 1647TIP3   OH226575   3.721   4.962   2.541 -0.4424  0.0256  0.3446
 1647TIP3    H126576   3.809   4.969   2.578 -0.9078 -1.1984  1.7396
 1647TIP3    H226577   3.716   4.873   2.506 -0.8060  0.4138 -0.6501
 1648TIP3   OH226578   6.693   0.830   7.960  0.2254 -0.7048 -0.1344
 1648TIP3    H126579   6.700   0.911   7.909 -1.0724 -0.1343  0.5397
 1648TIP3    H226580   6.778   0.821   8.003 -0.0509  1.1003  0.8943
 1649TIP3   OH226581   3.450   3.777   7.798 -0.3318  0.3528  0.0175
 1649TIP3    H126582   3.483   3.852   7.849  0.3187 -0.1508  0.3428
 1649TIP3    H226583   3.355   3.791   7.796 -0.2280  1.1637  0.1117
 1650TIP3   OH226584   5.608   1.485   1.409 -0.1608 -0.0054  0.4045
 1650TIP3    H126585   5.569   1.523   1.331 -0.2154 -2.6357 -0.9614
 1650TIP3    H226586   5.699   1.514   1.407 -0.8324  2.3916  1.0949
 1651TIP3   OH226587   2.398   1.628   8.255  0.2159 -0.0592  0.5304
 1651TIP3    H126588   2.423   1.613   8.164 -0.2285 -0.4422  0.4717
 1651TIP3    H226589   2.365   1.544   8.285  0.3603  0.0684  1.0483
 1652TIP3   OH226590   0.692   3.621   1.063 -0.3123  0.3536 -0.7343
 1652TIP3    H126591   0.646   3.538   1.051 -0.4631  0.3114  0.0804
 1652TIP3    H226592   0.643   3.665   1.133  1.2393  0.0468  0.5854
 1653TIP3   OH226593   0.277   5.118   7.787 -0.6071 -0.3683 -0.1215
 1653TIP3    H126594   0.330   5.081   7.717 -0.1023 -1.1811  0.6591
 1653TIP3    H226595   0.278   5.212   7.772  0.2618 -0.4596 -0.6723
 1654TIP3   OH226596   1.754   1.178   6.955  0.2660 -0.0516  0.2993
 1654TIP3    H126597   1.820   1.129   6.906  1.3900  0.9684  0.7454
 1654TIP3    H226598   1.706   1.227   6.888  1.8547  1.4104  0.1635
 1655TIP3   OH226599   3.832   5.864   1.423 -0.4798  0.2015 -0.3461
 1655TIP3    H126600   3.800   5.912   1.500  1.5605 -0.1729  0.7855
 1655TIP3    H226601   3.927   5.862   1.433 -0.1523  0.0608 -2.8614
 1656TIP3   OH226602   6.285   4.672   7.563 -0.0178  0.3594 -0.2058
 1656TIP3    H126603   6.285   4.633   7.476 -0.4510  3.1248 -1.5730
 1656TIP3    H226604   6.193   4.674   7.589 -0.0190  0.6070 -0.2264
 1657TIP3   OH226605   5.742   2.750   1.186 -0.3341  0.0187  0.1984
 1657TIP3    H126606   5.676   2.758   1.117 -1.2571  0.3341  1.0963
 1657TIP3    H226607   5.823   2.728   1.139 -0.5722  1.7867 -1.1556
 1658TIP3   OH226608   1.944   4.079   8.399  0.1730  0.6366 -0.0292
 1658TIP3    H126609   2.019   4.025   8.422 -0.9267 -0.3355  1.5207
 1658TIP3    H226610   1.970   4.125   8.320  2.6765  0.9348  0.8925
 1659TIP3   OH226611   3.690   5.933   1.197 -0.1786 -0.3796 -0.4665
 1659TIP3    H126612   3.748   5.973   1.131  0.3978 -1.5078 -0.6720
 1659TIP3    H226613   3.748   5.912   1.270 -0.8223  0.9000  0.4529
 1660TIP3   OH226614   5.008   4.428   2.079  0.0962 -0.3564  0.4953
 1660TIP3    H126615   4.974   4.423   2.168  1.2560 -0.2158  0.9673
 1660TIP3    H226616   5.054   4.345   2.067 -3.4625 -2.3001 -1.5025
 1661TIP3   OH226617   2.275   3.171   8.421 -0.3557 -0.0697  0.0732
 1661TIP3    H126618   2.277   3.109   8.494 -1.3325  0.5718  0.6660
 1661TIP3    H226619   2.236   3.121   8.349 -1.4442 -0.0677  0.6408
 1662TIP3   OH226620   4.229   5.610   0.738  0.3869  0.1757  0.7461
 1662TIP3    H126621   4.163   5.599   0.806 -0.6724  3.0251  0.3178
 1662TIP3    H226622   4.183   5.588   0.657 -0.3752  2.7143  0.3807
 1663TIP3   OH226623   4.457   2.456   1.292 -0.3530 -0.4208  0.5166
 1663TIP3    H126624   4.506   2.381   1.326 -0.5136 -0.4643  0.6545
 1663TIP3    H226625   4.455   2.518   1.365  0.3111 -0.0226  0.2009
 1664TIP3   OH226626   5.822   2.509   6.751 -0.5789  0.1549 -0.2949
 1664TIP3    H126627   5.839   2.603   6.752 -1.2251  0.2843 -1.1122
 1664TIP3    H226628   5.889   2.473   6.693 -0.9154  0.2337 -0.7372
 1665TIP3   OH226629   2.537   3.100   1.727 -0.3064  0.4243 -0.2076
 1665TIP3    H126630   2.565   3.022   1.680  0.6732 -0.2415  1.3930
 1665TIP3    H226631   2.564   3.173   1.672  2.2517 -0.2787 -0.0048
 1666TIP3   OH226632   1.693   3.743   7.617 -0.5662 -0.3844  0.1854
 1666TIP3    H126633   1.769   3.697   7.651  0.4881  0.8575 -0.4186
 1666TIP3    H226634   1.661   3.794   7.691  0.5843  0.8517 -0.1390
 1667TIP3   OH226635   0.620   6.516   6.991  0.4592  0.2390 -0.0047
 1667TIP3    H126636   0.542   6.519   6.935  0.5415  1.9209 -0.0869
 1667TIP3    H226637   0.658   6.430   6.974 -1.4806 -0.7268  0.2119
 1668TIP3   OH226638   1.878   5.792   0.780 -1.2399  0.4005 -0.4284
 1668TIP3    H126639   1.819   5.719   0.799 -1.2870  0.2177 -1.2612
 1668TIP3    H226640   1.962   5.766   0.820 -1.2447 -0.1307 -0.7623
 1669TIP3   OH226641   4.177   6.617   1.167  0.0641  0.6126  0.2011
 1669TIP3    H126642   4.160   6.653   1.080 -0.0048  0.7480  0.2705
 1669TIP3    H226643   4.259   6.569   1.157 -0.2927  0.0488 -0.1100
 1670TIP3   OH226644   1.956   5.101   6.427 -0.0529  0.0855 -1.1570
 1670TIP3    H126645   1.973   5.191   6.400  0.5885  0.2753 -0.1765
 1670TIP3    H226646   2.042   5.058   6.422  0.4243  0.5110  1.8874
 1671TIP3   OH226647   3.447   2.078   2.262 -0.6831 -0.0635  0.1897
 1671TIP3    H126648   3.409   2.166   2.259  0.1350  0.2841 -0.2473
 1671TIP3    H226649   3.373   2.020   2.244 -1.2946  0.5105  0.7983
 1672TIP3   OH226650   5.530   1.191   0.436  0.5535 -0.5057 -0.4592
 1672TIP3    H126651   5.616   1.183   0.394  0.3973  0.9211 -1.1101
 1672TIP3    H226652   5.473   1.135   0.384  1.0268 -1.2316 -0.2021
 1673TIP3   OH226653   2.181   0.268   8.107 -0.8205 -0.2930 -0.5552
 1673TIP3    H126654   2.160   0.335   8.042 -0.0353 -0.3547 -0.8832
 1673TIP3    H226655   2.258   0.223   8.072 -1.0850 -1.0936 -0.1349
 1674TIP3   OH226656   5.772   3.073   6.865 -0.1957  0.0047  0.3055
 1674TIP3    H126657   5.784   3.000   6.926  0.5198  1.0604  1.4664
 1674TIP3    H226658   5.785   3.151   6.918 -0.3393  0.9795 -1.0507
 1675TIP3   OH226659   6.472   2.348   6.444  0.5228  0.1909 -0.0688
 1675TIP3    H126660   6.567   2.350   6.446  0.5894 -0.1805 -1.6988
 1675TIP3    H226661   6.450   2.268   6.397 -0.5514  1.0444 -1.0854
 1676TIP3   OH226662   3.501   4.491   1.060  0.0581 -0.0482 -0.0541
 1676TIP3    H126663   3.462   4.467   1.144 -0.2835 -1.6270 -0.6465
 1676TIP3    H226664   3.489   4.586   1.055 -1.2530 -0.1278  1.0047
 1677TIP3   OH226665   4.570   6.256   8.001 -0.1190 -0.4538 -0.3626
 1677TIP3    H126666   4.481   6.229   7.976 -0.4550  1.2424 -1.1335
 1677TIP3    H226667   4.562   6.348   8.024  1.2097 -0.6301  0.9406
 1678TIP3   OH226668   3.866   0.677   8.498 -0.0100  0.0585  0.6165
 1678TIP3    H126669   3.779   0.660   8.534 -0.1287  0.0316  0.3254
 1678TIP3    H226670   3.890   0.763   8.531 -0.5498  0.4785 -0.0620
 1679TIP3   OH226671   6.559   3.517   1.960  0.2515  1.7177 -0.1865
 1679TIP3    H126672   6.551   3.588   2.024  1.4633  2.0874 -0.4245
 1679TIP3    H226673   6.645   3.480   1.976 -0.3253  0.3391 -0.1309
 1680TIP3   OH226674   5.505   5.191   2.422  0.6761  0.2423  0.5480
 1680TIP3    H126675   5.450   5.167   2.496  0.4409 -1.3900 -0.1081
 1680TIP3    H226676   5.449   5.177   2.345  1.1665  1.1329  0.0144
 1681TIP3   OH226677   2.933   4.080   6.351  0.0556 -0.2594 -0.0369
 1681TIP3    H126678   2.852   4.034   6.374  0.5643 -0.3315  1.8115
 1681TIP3    H226679   2.941   4.148   6.417  1.6071 -0.3928 -0.0533
 1682TIP3   OH226680   5.240   3.158   2.438  0.3642 -0.1876 -0.4699
 1682TIP3    H126681   5.324   3.134   2.400  0.0745 -1.4664 -0.3580
 1682TIP3    H226682   5.262   3.210   2.515  0.9852  1.1477 -1.5116
 1683TIP3   OH226683   4.280   5.268   0.016  0.1765 -0.3548 -0.3362
 1683TIP3    H126684   4.370   5.265   0.048  0.7060 -0.8537 -1.7937
 1683TIP3    H226685   4.279   5.205  -0.057 -0.9066  0.8696 -1.4269
 1684TIP3   OH226686   1.372   1.486   0.499 -0.1336 -0.2693  0.1657
 1684TIP3    H126687   1.435   1.505   0.429 -1.3470 -0.3335 -0.9702
 1684TIP3    H226688   1.427   1.464   0.575  1.2136 -0.3044 -0.7838
 1685TIP3   OH226689   1.763   2.714   8.078 -0.8277  0.6440 -0.2478
 1685TIP3    H126690   1.699   2.725   8.008 -1.0274 -1.8048 -0.5407
 1685TIP3    H226691   1.712   2.683   8.153 -0.1034 -0.5856 -0.2475
 1686TIP3   OH226692   3.112   0.497   7.206 -0.2542  0.0638  0.2903
 1686TIP3    H126693   3.146   0.408   7.210  1.9892  0.8737  0.6379
 1686TIP3    H226694   3.106   0.516   7.112 -0.5944 -0.3961  0.2180
 1687TIP3   OH226695   6.473   0.200   1.647  0.1596  0.2595 -0.5333
 1687TIP3    H126696   6.433   0.227   1.564 -0.9326  1.1577  0.2519
 1687TIP3    H226697   6.405   0.215   1.712  1.1941  0.1160  0.6149
 1688TIP3   OH226698   3.344   4.189   0.988 -0.1787  0.0507  0.0615
 1688TIP3    H126699   3.358   4.253   0.919 -0.8187 -0.6943 -0.7752
 1688TIP3    H226700   3.340   4.105   0.943  0.3336 -0.5647  1.1033
 1689TIP3   OH226701   5.574   2.029   7.620  0.0759 -0.2091  0.1497
 1689TIP3    H126702   5.658   2.046   7.663  1.3747  2.3860 -3.0257
 1689TIP3    H226703   5.518   2.102   7.648 -0.2839 -0.5062  0.2182
 1690TIP3   OH226704   5.445   6.206   8.201 -0.2966 -0.1650 -0.1800
 1690TIP3    H126705   5.538   6.188   8.190  0.0979  0.6685  1.4459
 1690TIP3    H226706   5.439   6.302   8.207 -1.3145 -0.1819 -0.6748
 1691TIP3   OH226707   4.661   1.451   8.251 -0.1421  1.3194  0.7897
 1691TIP3    H126708   4.680   1.474   8.341 -1.2242  0.8480  1.1637
 1691TIP3    H226709   4.721   1.379   8.231 -0.6762  0.6526  1.5316
 1692TIP3   OH226710   4.177   5.249   7.846  0.1187  0.1741  0.2290
 1692TIP3    H126711   4.099   5.200   7.871 -0.0766  0.3095 -0.1043
 1692TIP3    H226712   4.245   5.183   7.837  0.3707  0.1974  1.7835
 1693TIP3   OH226713   5.685   6.126   0.661 -0.2803 -0.3170 -0.6959
 1693TIP3    H126714   5.750   6.130   0.732  0.3099 -1.2447 -1.1789
 1693TIP3    H226715   5.604   6.100   0.705  0.1599 -1.2178 -0.4079
 1694TIP3   OH226716   0.480   6.252   7.847  0.2094  0.3999  0.1126
 1694TIP3    H126717   0.399   6.284   7.885 -0.7811  1.3124 -2.5212
 1694TIP3    H226718   0.466   6.158   7.835 -1.3483  0.8350 -2.0957
 1695TIP3   OH226719   1.125   1.675   1.037 -0.3040 -0.7357 -0.0651
 1695TIP3    H126720   1.195   1.729   1.073 -0.2193 -1.7859  1.4355
 1695TIP3    H226721   1.168   1.596   1.006 -0.8098 -1.4893  1.0757
 1696TIP3   OH226722   2.880   5.432   8.010 -0.5812  0.3321 -0.9196
 1696TIP3    H126723   2.804   5.485   7.983  0.2319  1.0669 -1.8862
 1696TIP3    H226724   2.942   5.496   8.045 -0.1697 -0.1740 -0.7152
 1697TIP3   OH226725   5.956   0.694   8.126 -0.6625 -0.2354  0.0698
 1697TIP3    H126726   6.039   0.646   8.116  0.7463  1.9706  0.3991
 1697TIP3    H226727   5.905   0.641   8.187  1.8139 -0.1369  2.4153
 1698TIP3   OH226728   5.341   1.109   2.437  0.0707 -0.4941  0.7833
 1698TIP3    H126729   5.395   1.071   2.368 -0.9629  0.8586 -0.8495
 1698TIP3    H226730   5.400   1.170   2.482 -0.0363  1.1126 -1.1046
 1699TIP3   OH226731   1.421   2.136   6.752  0.5355  0.3632  0.1465
 1699TIP3    H126732   1.431   2.214   6.698 -0.3218 -0.6325 -1.5313
 1699TIP3    H226733   1.469   2.068   6.705  0.9032 -0.2423  1.3541
 1700TIP3   OH226734   0.798   2.666   7.092  0.1764  0.5720  0.3488
 1700TIP3    H126735   0.726   2.726   7.071  1.5062  1.3371 -2.6747
 1700TIP3    H226736   0.877   2.714   7.066  1.4913 -1.5882  0.1070
 1701TIP3   OH226737   3.632   2.551   7.625 -0.0658  0.2135 -0.0471
 1701TIP3    H126738   3.554   2.562   7.680 -0.1477  1.7464 -0.4327
 1701TIP3    H226739   3.599   2.553   7.536  0.2984 -0.2918 -0.1993
 1702TIP3   OH226740   1.459   6.593   0.887 -0.1608  0.3784  0.4094
 1702TIP3    H126741   1.393   6.571   0.821 -0.3756  0.1117  0.7127
 1702TIP3    H226742   1.537   6.615   0.835 -0.2166 -0.1917  0.0660
 1703TIP3   OH226743   5.203   3.496   1.296  0.2472 -0.3558  0.3278
 1703TIP3    H126744   5.123   3.503   1.348 -0.5595  0.8184 -1.0133
 1703TIP3    H226745   5.264   3.557   1.338 -0.2069  0.1676  0.2427
 1704TIP3   OH226746   4.549   3.591   7.591 -0.4463  0.0475 -0.0067
 1704TIP3    H126747   4.459   3.565   7.571 -1.1180  1.5564  0.8689
 1704TIP3    H226748   4.560   3.568   7.683  0.3535 -0.8344 -0.3070
 1705TIP3   OH226749   3.696   1.534   2.009  0.4702 -0.2454 -0.3271
 1705TIP3    H126750   3.714   1.614   2.057  1.1319 -0.7726  0.3287
 1705TIP3    H226751   3.770   1.477   2.029 -0.6705 -1.5474  0.3569
 1706TIP3   OH226752   6.213   3.109   2.472  0.4133  0.7814 -0.4138
 1706TIP3    H126753   6.284   3.173   2.472 -0.1492  1.4362 -1.6873
 1706TIP3    H226754   6.136   3.158   2.501 -0.1195  0.8264 -1.8399
 1707TIP3   OH226755   3.294   2.717   1.571  0.1725 -0.2577  0.4294
 1707TIP3    H126756   3.282   2.700   1.665  0.6139 -1.2089  0.3238
 1707TIP3    H226757   3.241   2.795   1.554 -0.4768 -0.4829  1.3287
 1708TIP3   OH226758   3.643   5.049   1.505 -0.0608 -0.5730 -0.1048
 1708TIP3    H126759   3.579   5.097   1.556 -0.7375 -0.8291 -0.6996
 1708TIP3    H226760   3.615   5.059   1.414  0.2701 -1.3638 -0.3065
 1709TIP3   OH226761   2.078   4.087   6.324 -0.1174 -0.2163 -0.0071
 1709TIP3    H126762   2.055   4.180   6.311  0.8125 -0.1954 -1.8745
 1709TIP3    H226763   2.015   4.039   6.270  1.2700 -0.4364 -1.5084
 1710TIP3   OH226764   2.315   2.598   0.735 -0.2116 -0.3467 -0.4642
 1710TIP3    H126765   2.388   2.590   0.673  1.0515 -2.4805  1.1911
 1710TIP3    H226766   2.344   2.664   0.798  0.5852 -1.5876  0.5070
 1711TIP3   OH226767   2.542   3.469   0.523 -0.6375  0.0006 -0.1108
 1711TIP3    H126768   2.485   3.499   0.452 -2.0287  0.3755  1.1138
 1711TIP3    H226769   2.629   3.501   0.500 -1.2626  1.0214 -1.1218
 1712TIP3   OH226770   2.905   0.790   0.728  0.4297 -0.0041  0.3886
 1712TIP3    H126771   2.978   0.819   0.783  0.0436 -1.4074  1.7083
 1712TIP3    H226772   2.843   0.862   0.729  0.2972 -0.1122  2.0730
 1713TIP3   OH226773   6.579   3.244   0.135  0.2411 -0.7284  0.2501
 1713TIP3    H126774   6.660   3.234   0.184  0.4884 -1.4220 -0.2809
 1713TIP3    H226775   6.517   3.279   0.198  0.7639 -0.8654  0.8515
 1714TIP3   OH226776   1.381   1.913   2.229  0.2915 -0.0371 -0.0317
 1714TIP3    H126777   1.331   1.986   2.264  0.4013  1.0215 -1.9588
 1714TIP3    H226778   1.472   1.934   2.250  0.3385  0.4752 -0.7419
 1715TIP3   OH226779   1.660   6.709   0.710  0.3886 -0.6522 -0.0736
 1715TIP3    H126780   1.721   6.713   0.783 -1.8315  0.9177  1.8391
 1715TIP3    H226781   1.656   6.798   0.675 -1.2741 -0.5366  0.3116
 1716TIP3   OH226782   6.064   5.336   2.336 -0.5069 -0.3315  0.3885
 1716TIP3    H126783   6.064   5.400   2.265  0.9851 -2.2482 -1.4874
 1716TIP3    H226784   5.973   5.307   2.344 -0.6469 -0.2986 -0.9856
 1717TIP3   OH226785   2.212   1.518   7.470 -0.1825  0.3782  0.2556
 1717TIP3    H126786   2.293   1.478   7.502  0.0892  0.0934 -0.7660
 1717TIP3    H226787   2.159   1.445   7.440 -1.2003  0.4845  1.6914
 1718TIP3   OH226788   1.599   1.693   6.951 -0.1712 -0.2771 -0.4752
 1718TIP3    H126789   1.661   1.762   6.976 -2.7611  1.3831  1.8712
 1718TIP3    H226790   1.541   1.735   6.888  0.9659 -1.8524 -2.7362
 1719TIP3   OH226791   5.371   5.878   1.096 -0.6998  0.2943  0.2783
 1719TIP3    H126792   5.421   5.801   1.069 -0.9071  0.3839 -0.3767
 1719TIP3    H226793   5.280   5.849   1.095 -0.9808  1.0807 -1.9683
 1720TIP3   OH226794   1.565   5.659   6.775  0.1359  0.2305 -0.2592
 1720TIP3    H126795   1.474   5.671   6.748  0.0919 -0.7436 -0.5973
 1720TIP3    H226796   1.613   5.651   6.692  0.2983 -0.7527 -0.0843
 1721TIP3   OH226797   4.541   4.667   8.284  0.1198  0.2889 -0.3578
 1721TIP3    H126798   4.496   4.584   8.298  1.0413 -0.3421 -1.0400
 1721TIP3    H226799   4.634   4.645   8.290  0.3738  1.4885  0.6186
 1722TIP3   OH226800   4.256   3.042   8.399  0.5416 -0.1270  0.5155
 1722TIP3    H126801   4.239   2.996   8.481 -0.7263 -1.2637 -0.3639
 1722TIP3    H226802   4.174   3.085   8.378  0.2579 -1.3907 -1.1092
 1723TIP3   OH226803   1.698   1.510   7.149 -0.3325 -0.4199  0.2803
 1723TIP3    H126804   1.653   1.558   7.079 -0.6492  1.0370  1.4278
 1723TIP3    H226805   1.777   1.560   7.165  0.0829 -1.1409  0.5136
 1724TIP3   OH226806   3.956   1.281   0.030 -0.2478  0.9601  0.5981
 1724TIP3    H126807   4.026   1.323  -0.018 -1.1892  1.7551 -0.1259
 1724TIP3    H226808   3.907   1.353   0.069  0.3324  0.3543  2.5797
 1725TIP3   OH226809   2.706   2.600   0.904  0.8312  0.4000 -0.2616
 1725TIP3    H126810   2.765   2.575   0.975 -0.8591 -0.6752  0.8525
 1725TIP3    H226811   2.703   2.523   0.847  2.0678  1.2047 -1.4899
 1726TIP3   OH226812   3.402   0.559   1.050  0.1251 -0.1315 -0.4598
 1726TIP3    H126813   3.328   0.501   1.031  1.9018 -2.8541  0.2778
 1726TIP3    H226814   3.374   0.611   1.125 -1.3164 -0.4801 -0.7253
 1727TIP3   OH226815   1.990   3.747   0.211 -0.0383 -0.5461 -0.2626
 1727TIP3    H126816   1.899   3.728   0.189  0.1236 -0.6269 -0.8951
 1727TIP3    H226817   2.008   3.830   0.167 -0.3262  0.4187  1.3341
 1728TIP3   OH226818   5.374   5.239   6.662  0.4543  0.9861 -0.0734
 1728TIP3    H126819   5.366   5.155   6.616  1.0107  1.0836 -0.3582
 1728TIP3    H226820   5.468   5.247   6.680  0.2279  0.9092  1.1707
 1729TIP3   OH226821   0.886   2.455   0.564  0.1856 -0.1568 -0.0319
 1729TIP3    H126822   0.866   2.539   0.523 -0.3976 -0.7368 -0.9719
 1729TIP3    H226823   0.936   2.478   0.642  0.4465  1.0360 -0.5272
 1730TIP3   OH226824   4.733   5.539   0.011  0.1116 -0.2186  0.0206
 1730TIP3    H126825   4.690   5.600  -0.048  2.3190  0.8600 -0.5984
 1730TIP3    H226826   4.790   5.487  -0.045  0.8699 -0.4496  0.9715
 1731TIP3   OH226827   0.331   2.628   2.163  0.1242 -0.6653 -0.3746
 1731TIP3    H126828   0.426   2.631   2.172  0.0851  0.7065 -0.1020
 1731TIP3    H226829   0.299   2.611   2.252  0.1228 -1.8095 -0.5847
 1732TIP3   OH226830   6.594   6.229   7.342 -0.1528  0.1674 -0.1721
 1732TIP3    H126831   6.688   6.212   7.340 -0.3684 -1.0010 -0.8611
 1732TIP3    H226832   6.573   6.262   7.255 -0.4128  0.2861 -0.0671
 1733TIP3   OH226833   4.192   6.949   6.990  0.4294 -0.2120 -0.1842
 1733TIP3    H126834   4.267   6.912   7.037  0.6493 -2.0635 -1.8904
 1733TIP3    H226835   4.128   6.968   7.058  1.9175  0.1680  1.1747
 1734TIP3   OH226836   0.931   0.202   7.680  0.0973 -0.3393 -0.4033
 1734TIP3    H126837   0.939   0.221   7.774  1.8389 -0.4224 -0.4999
 1734TIP3    H226838   0.927   0.289   7.639 -1.4690 -0.3042 -0.2214
 1735TIP3   OH226839   1.807   5.350   7.071  0.1066 -0.8340  0.2767
 1735TIP3    H126840   1.803   5.414   7.000  0.2677  0.1718  1.1466
 1735TIP3    H226841   1.830   5.402   7.148 -0.6930 -1.8035  1.1922
 1736TIP3   OH226842   5.989   3.241   0.695  0.3419  0.3264 -0.0496
 1736TIP3    H126843   5.955   3.314   0.644  0.7964  0.5431 -0.0476
 1736TIP3    H226844   5.976   3.267   0.786 -0.2226  0.0558 -0.0469
 1737TIP3   OH226845   5.970   0.286   0.123 -0.0316  0.7112 -0.1498
 1737TIP3    H126846   6.008   0.225   0.060 -0.3582  1.9257 -1.5553
 1737TIP3    H226847   5.882   0.303   0.090 -0.8043  0.1800  1.4999
 1738TIP3   OH226848   5.146   0.816   8.220 -0.5914  0.3935  0.4663
 1738TIP3    H126849   5.056   0.841   8.200 -0.2017  1.0524 -0.5507
 1738TIP3    H226850   5.181   0.890   8.268  0.0726  1.1632 -1.1285
 1739TIP3   OH226851   6.553   3.273   0.893  0.4476 -0.0011  0.5397
 1739TIP3    H126852   6.485   3.206   0.897  1.4108 -1.0998 -0.4154
 1739TIP3    H226853   6.526   3.331   0.822  0.9575 -1.0025 -0.5044
 1740TIP3   OH226854   2.299   2.932   1.139  0.3624 -0.5964 -0.5234
 1740TIP3    H126855   2.328   2.862   1.197  1.1085  1.0075  1.1573
 1740TIP3    H226856   2.227   2.975   1.187 -0.0169 -0.1469 -1.4641
 1741TIP3   OH226857   4.736   0.431   8.556  0.4133  0.6120 -0.4640
 1741TIP3    H126858   4.800   0.416   8.625  0.8668 -0.7681 -1.1511
 1741TIP3    H226859   4.758   0.518   8.522 -0.3280  1.6930  1.6053
 1742TIP3   OH226860   0.922   0.785   1.396  0.1661  0.0188 -0.2921
 1742TIP3    H126861   0.939   0.745   1.311 -0.6944 -0.0665 -0.4328
 1742TIP3    H226862   0.900   0.876   1.376 -4.1540 -0.9079 -0.6371
 1743TIP3   OH226863   3.549   0.005   6.713 -0.1586 -0.3614 -0.1667
 1743TIP3    H126864   3.477   0.055   6.751 -1.1546 -1.3293 -0.7106
 1743TIP3    H226865   3.543   0.023   6.619 -0.1881 -1.0672 -0.3030
 1744TIP3   OH226866   3.976   4.554   0.084 -0.2364  0.4765  0.6328
 1744TIP3    H126867   3.891   4.559   0.041  0.0873  2.6594  0.0926
 1744TIP3    H226868   4.038   4.581   0.016  0.4854  2.1866  1.8930
 1745TIP3   OH226869   5.348   6.698   6.427 -0.3585 -1.1702 -0.0684
 1745TIP3    H126870   5.400   6.777   6.437  0.1502 -1.2789 -1.5308
 1745TIP3    H226871   5.373   6.642   6.500 -0.9521  0.1153  1.1627
 1746TIP3   OH226872   4.198   2.262   1.881 -1.0865  0.0378  0.1009
 1746TIP3    H126873   4.269   2.222   1.831 -1.7676 -0.8017 -0.2236
 1746TIP3    H226874   4.165   2.192   1.937 -1.9784  0.2693 -0.1070
 1747TIP3   OH226875   5.173   3.006   1.932  0.2099 -0.1033 -0.0457
 1747TIP3    H126876   5.149   3.004   2.025  1.2308 -0.1820  0.2255
 1747TIP3    H226877   5.092   2.985   1.886 -1.1281  2.9269  0.6572
 1748TIP3   OH226878   2.178   2.246   0.061 -0.5245  0.1930  0.5296
 1748TIP3    H126879   2.171   2.332   0.021  2.0582  0.0769 -0.2957
 1748TIP3    H226880   2.155   2.184  -0.009 -1.8644  0.1543  0.9756
 1749TIP3   OH226881   6.507   3.641   1.696 -0.1166 -0.2667 -0.1795
 1749TIP3    H126882   6.536   3.620   1.608  1.1022 -0.7127  0.3088
 1749TIP3    H226883   6.547   3.574   1.752 -1.2666 -0.2907  0.6625
 1750TIP3   OH226884   1.693   2.720   0.250 -0.3877  0.0445  0.1230
 1750TIP3    H126885   1.602   2.708   0.276 -0.1838  0.9288  1.3803
 1750TIP3    H226886   1.742   2.707   0.332  0.5135  0.6155 -0.3173
 1751TIP3   OH226887   6.015   5.627   1.620 -0.3352 -0.3860 -0.4582
 1751TIP3    H126888   5.975   5.659   1.701 -0.8356  1.5568 -1.3968
 1751TIP3    H226889   6.095   5.583   1.649 -0.4079  0.4011  1.0817
 1752TIP3   OH226890   6.044   6.481   1.102 -0.2650  0.4023 -0.6083
 1752TIP3    H126891   5.993   6.413   1.146 -1.4420 -0.2600 -2.8571
 1752TIP3    H226892   6.099   6.433   1.040  1.3938  1.3066  0.0880
 1753TIP3   OH226893   1.561   1.268   1.265  0.0088  0.3565  0.0490
 1753TIP3    H126894   1.629   1.299   1.205 -0.2393  0.9215  0.0569
 1753TIP3    H226895   1.549   1.176   1.241 -0.1439  0.5910 -0.8174
 1754TIP3   OH226896   4.818   1.784   0.147 -0.5446  0.0538  0.5383
 1754TIP3    H126897   4.909   1.802   0.124 -0.5359 -0.7906 -0.1491
 1754TIP3    H226898   4.821   1.754   0.238 -0.1452  0.1171  0.5453
 1755TIP3   OH226899   5.793   3.059   7.849  0.0695 -0.7309 -0.3091
 1755TIP3    H126900   5.888   3.058   7.840  0.4012  3.1156  0.8271
 1755TIP3    H226901   5.775   3.004   7.925  1.3968 -1.2566 -0.3548
 1756TIP3   OH226902   3.338   2.712   6.639  0.6832  0.0117  0.5387
 1756TIP3    H126903   3.286   2.632   6.651  1.4394 -0.7643 -1.0687
 1756TIP3    H226904   3.301   2.774   6.702 -2.4754 -0.3457 -0.7728
 1757TIP3   OH226905   6.808   2.317   1.939 -0.0513 -0.1369  0.2450
 1757TIP3    H126906   6.782   2.399   1.896 -4.9652 -1.4747  0.0204
 1757TIP3    H226907   6.881   2.285   1.887  0.4315  2.8575 -1.1679
 1758TIP3   OH226908   4.163   4.578   1.420 -0.1345  0.1897 -0.2550
 1758TIP3    H126909   4.163   4.482   1.416 -1.1946  0.1893 -0.3991
 1758TIP3    H226910   4.117   4.599   1.501 -1.2697  0.5855 -0.9798
 1759TIP3   OH226911   2.705   5.898   1.361 -0.1536  0.6306 -0.0037
 1759TIP3    H126912   2.797   5.907   1.382  0.3420 -1.5676 -0.9333
 1759TIP3    H226913   2.689   5.963   1.292  0.2447  2.1567  1.3040
 1760TIP3   OH226914   6.719   4.524   7.868 -0.1252  0.4086 -0.2272
 1760TIP3    H126915   6.778   4.448   7.862  0.8187  1.1856 -1.0226
 1760TIP3    H226916   6.774   4.599   7.848 -0.7064  1.5015  1.9352
 1761TIP3   OH226917   1.929   5.147   8.165 -0.6291  0.0453 -0.5607
 1761TIP3    H126918   1.935   5.059   8.128 -1.6401  0.1273 -0.9493
 1761TIP3    H226919   2.015   5.164   8.202 -0.7001 -1.4938  0.3708
 1762TIP3   OH226920   3.297   3.978   8.237 -0.3388 -0.6340 -0.0881
 1762TIP3    H126921   3.276   4.058   8.286 -1.3443  0.1491 -1.7322
 1762TIP3    H226922   3.322   4.009   8.150  0.7401 -2.0363 -0.3099
 1763TIP3   OH226923   1.723   5.198   1.242  0.0992 -0.1063  0.0255
 1763TIP3    H126924   1.651   5.251   1.208  0.4783  0.7010  0.4680
 1763TIP3    H226925   1.798   5.256   1.243  0.7430 -0.9175 -0.3319
 1764TIP3   OH226926   2.411   2.073   8.569  0.1997 -0.2385 -0.3473
 1764TIP3    H126927   2.372   1.998   8.523  1.4269 -1.7752  0.9738
 1764TIP3    H226928   2.348   2.094   8.638 -0.2503  0.1046 -0.8564
 1765TIP3   OH226929   2.753   0.653   0.309 -0.1943  0.0868 -0.3543
 1765TIP3    H126930   2.795   0.611   0.235  0.8759 -0.1045  0.3419
 1765TIP3    H226931   2.791   0.740   0.314  0.0667 -0.0537  0.2266
 1766TIP3   OH226932   4.635   0.366   7.288 -0.4629 -0.2950  0.1289
 1766TIP3    H126933   4.726   0.388   7.310 -0.1435 -1.4008 -0.0421
 1766TIP3    H226934   4.607   0.439   7.233  0.2493  0.1662  0.3501
 1767TIP3   OH226935   0.873   4.319   7.768  0.0299  0.3881  0.1237
 1767TIP3    H126936   0.844   4.249   7.826  1.4143 -1.0008 -0.7873
 1767TIP3    H226937   0.879   4.396   7.824  1.4564 -0.9293  1.9016
 1768TIP3   OH226938   0.243   4.150   6.858 -0.6734 -0.4086  0.5387
 1768TIP3    H126939   0.159   4.178   6.823 -0.1781  3.1134  1.7816
 1768TIP3    H226940   0.222   4.104   6.939 -1.4231 -1.8403 -0.4153
 1769TIP3   OH226941   2.266   6.931   7.343  0.5068  0.5131 -0.3274
 1769TIP3    H126942   2.241   6.913   7.434  1.1241  0.8604 -0.0814
 1769TIP3    H226943   2.213   6.870   7.291  0.2891  0.1745  0.2775
 1770TIP3   OH226944   0.729   2.990   2.513  0.2216 -0.6472 -1.0150
 1770TIP3    H126945   0.722   3.032   2.426 -0.1550 -2.6538 -2.0059
 1770TIP3    H226946   0.816   3.013   2.543  0.3965  0.0223 -1.9723
 1771TIP3   OH226947   1.224   1.324   1.225 -0.2464 -0.8318 -0.4571
 1771TIP3    H126948   1.303   1.354   1.270 -1.2512  1.1528  0.1233
 1771TIP3    H226949   1.245   1.333   1.132  0.8080 -2.0816 -0.3717
 1772TIP3   OH226950   1.272   5.895   1.406  0.3774 -0.4073  0.1798
 1772TIP3    H126951   1.261   5.978   1.360  0.6007  0.4388  1.5863
 1772TIP3    H226952   1.225   5.906   1.488 -0.5304 -2.0951 -0.0608
 1773TIP3   OH226953   5.016   6.147   1.681 -0.4948  0.0781 -0.4024
 1773TIP3    H126954   4.990   6.207   1.751  1.3580  0.1644  0.2876
 1773TIP3    H226955   5.070   6.081   1.726 -0.7939 -0.9255 -1.4767
 1774TIP3   OH226956   0.877   0.267   8.093  0.0750  0.2816  0.0460
 1774TIP3    H126957   0.917   0.303   8.172 -1.3142  1.4176  0.2699
 1774TIP3    H226958   0.937   0.292   8.022  1.2167 -0.5563  0.6698
 1775TIP3   OH226959   0.675   1.042   1.407  0.2015 -0.7171 -0.0261
 1775TIP3    H126960   0.707   1.041   1.497  0.7785  0.4072 -0.2020
 1775TIP3    H226961   0.600   0.982   1.408  1.7921 -2.8535  0.5598
 1776TIP3   OH226962   0.155   2.873   1.769  0.5101 -0.4999  0.6123
 1776TIP3    H126963   0.183   2.954   1.726  0.7656 -1.4948 -1.1911
 1776TIP3    H226964   0.205   2.870   1.850  1.8878  0.2411 -0.1699
 1777TIP3   OH226965   2.993   5.465   1.317 -0.3142  0.1852  0.2156
 1777TIP3    H126966   3.070   5.477   1.373  1.1318 -3.9972 -0.5647
 1777TIP3    H226967   3.020   5.500   1.232  0.8694 -1.3900 -0.0972
 1778TIP3   OH226968   0.784   5.901   5.865 -0.2870  0.4019  0.0873
 1778TIP3    H126969   0.807   5.832   5.926 -1.0825 -1.3549 -1.4875
 1778TIP3    H226970   0.854   5.966   5.873  1.3584 -1.3455  0.4776
 1779TIP3   OH226971   5.422   5.630   6.422  0.1951  0.3389 -0.7553
 1779TIP3    H126972   5.355   5.682   6.377  0.9468  1.3272 -0.7763
 1779TIP3    H226973   5.491   5.618   6.356 -1.3094 -3.6127 -1.9122
 1780TIP3   OH226974   5.627   2.136   1.010  0.0258  0.5407 -0.1779
 1780TIP3    H126975   5.649   2.043   1.020 -1.1592  0.4181  2.2008
 1780TIP3    H226976   5.538   2.136   0.974  0.0020  0.7235 -0.1231
 1781TIP3   OH226977   6.022   1.513   2.622 -0.0231  0.5062  0.0361
 1781TIP3    H126978   6.097   1.571   2.615 -0.0677  0.4873 -0.7241
 1781TIP3    H226979   6.059   1.427   2.641  0.2870  0.1908 -1.8124
 1782TIP3   OH226980   5.347   0.938   0.445 -0.2153 -0.2689 -0.0809
 1782TIP3    H126981   5.414   0.955   0.379  0.3541  2.3241  1.0660
 1782TIP3    H226982   5.395   0.898   0.518 -0.8067 -2.9180 -1.0266
 1783TIP3   OH226983   3.231   3.086   0.915 -0.1392  0.0410 -0.1264
 1783TIP3    H126984   3.208   3.023   0.847 -3.0013  0.8187  0.0111
 1783TIP3    H226985   3.233   3.171   0.870 -1.0188  0.4262  0.5410
 1784TIP3   OH226986   0.563   2.868   1.833  0.3243  0.0371  0.2003
 1784TIP3    H126987   0.631   2.922   1.873 -0.1273  0.7788 -0.0052
 1784TIP3    H226988   0.533   2.920   1.758 -1.0186  0.0799  0.7455
 1785TIP3   OH226989   0.453   3.018   1.598  0.0676  0.1273 -0.0141
 1785TIP3    H126990   0.382   3.057   1.648  0.6460 -0.8067  1.6395
 1785TIP3    H226991   0.410   2.964   1.531 -0.8308 -1.0533  1.4590
 1786TIP3   OH226992   6.701   6.667   6.582 -0.1807  0.3330  0.5653
 1786TIP3    H126993   6.723   6.759   6.599  1.7368 -0.0460  0.3825
 1786TIP3    H226994   6.766   6.639   6.517  1.3279 -1.9984  2.9091
 1787TIP3   OH226995   1.171   1.985   1.843  0.4094 -0.1185 -0.2897
 1787TIP3    H126996   1.092   2.003   1.894 -0.4986 -2.1409 -0.8503
 1787TIP3    H226997   1.183   1.890   1.852  1.5308 -0.1757 -1.9896
 1788TIP3   OH226998   4.680   1.296   7.444 -0.9024  0.2529 -0.1856
 1788TIP3    H126999   4.666   1.382   7.404 -0.8469 -0.2822 -1.3865
 1788TIP3    H227000   4.613   1.240   7.404 -1.4552 -0.0960  1.1689
 1789TIP3   OH227001   1.884   2.190   0.687 -0.3603 -0.5299 -0.0274
 1789TIP3    H127002   1.901   2.271   0.638  0.2513  0.3622  1.5622
 1789TIP3    H227003   1.820   2.216   0.754  0.7576 -1.0084  1.2874
 1790TIP3   OH227004   2.883   3.717   1.401  0.6043  0.1469  0.6219
 1790TIP3    H127005   2.871   3.773   1.477 -1.1628 -0.8044  1.0960
 1790TIP3    H227006   2.939   3.646   1.432 -0.9585 -0.8047  1.4033
 1791TIP3   OH227007   4.494   5.961   7.393 -0.0233  0.0982  0.0075
 1791TIP3    H127008   4.547   5.882   7.383  0.1090 -0.0033  1.3246
 1791TIP3    H227009   4.543   6.014   7.456 -1.7311 -0.2318  1.6867
 1792TIP3   OH227010   0.089   6.138   7.542  0.1599 -0.0078 -0.4259
 1792TIP3    H127011   0.145   6.097   7.476 -1.8342 -2.3273 -0.8114
 1792TIP3    H227012   0.105   6.089   7.622  0.7541  1.2031  0.2248
 1793TIP3   OH227013   2.293   4.299   0.552 -0.1311  0.6409  1.0816
 1793TIP3    H127014   2.275   4.373   0.611 -0.4505  2.2550 -0.9134
 1793TIP3    H227015   2.300   4.339   0.465  1.2476 -1.5120  0.1158
 1794TIP3   OH227016   4.846   2.609   7.389  0.4233 -0.2030 -0.0411
 1794TIP3    H127017   4.759   2.601   7.429  0.8340 -0.3000  0.8703
 1794TIP3    H227018   4.847   2.697   7.352  0.0325 -0.1055  0.1727
 1795TIP3   OH227019   5.870   4.104   0.358 -0.0770  0.1311 -0.1996
 1795TIP3    H127020   5.821   4.183   0.337 -2.0440 -0.6973  1.0218
 1795TIP3    H227021   5.843   4.040   0.292 -0.3393 -0.2091  0.2321
 1796TIP3   OH227022   5.127   4.368   7.530 -0.0776  0.3626  0.0416
 1796TIP3    H127023   5.046   4.402   7.569 -0.3867 -0.8035  0.4748
 1796TIP3    H227024   5.181   4.344   7.605 -1.1196 -2.9529 -0.0912
 1797TIP3   OH227025   0.462   3.239   7.225 -0.0236 -0.1531  0.0068
 1797TIP3    H127026   0.390   3.209   7.280  0.6680 -2.7724 -0.3784
 1797TIP3    H227027   0.506   3.159   7.198  0.8407  1.1308 -2.7618
 1798TIP3   OH227028   4.439   2.170   1.757 -0.3644  0.3097  0.1959
 1798TIP3    H127029   4.476   2.257   1.745 -0.9164  0.3609 -1.4108
 1798TIP3    H227030   4.478   2.118   1.687 -0.9578 -0.4190  0.3960
 1799TIP3   OH227031   4.985   6.002   0.978 -0.0052  0.2768 -0.4557
 1799TIP3    H127032   4.968   6.049   1.060 -1.1665 -0.1014 -0.4652
 1799TIP3    H227033   5.017   6.069   0.918  1.9600  0.3762  0.5966
 1800TIP3   OH227034   2.426   5.331   0.748  0.0596 -0.3501 -0.0008
 1800TIP3    H127035   2.402   5.305   0.659  0.7496  4.3608 -1.8301
 1800TIP3    H227036   2.505   5.282   0.767 -1.5735 -3.5331 -0.6841
 1801TIP3   OH227037   3.859   2.762   1.796  0.2688  0.0451 -0.4480
 1801TIP3    H127038   3.768   2.775   1.820  0.6169 -0.2917  1.2087
 1801TIP3    H227039   3.893   2.850   1.780 -0.6528  0.0957 -2.5182
 1802TIP3   OH227040   2.977   4.541   7.565 -0.7592 -0.2416  0.0381
 1802TIP3    H127041   2.899   4.543   7.619  0.6801  2.2716  2.2333
 1802TIP3    H227042   2.956   4.597   7.490 -0.4155  2.3275  1.7585
 1803TIP3   OH227043   1.200   0.917   0.179 -0.6693 -0.6508 -0.0605
 1803TIP3    H127044   1.131   0.890   0.118 -0.5798  1.3223 -1.1368
 1803TIP3    H227045   1.158   0.983   0.235 -0.4269 -1.5874  1.2757
 1804TIP3   OH227046   0.860   5.040   8.567 -0.1258  0.4903 -0.1183
 1804TIP3    H127047   0.846   5.104   8.637 -0.2396  1.1989 -0.7806
 1804TIP3    H227048   0.784   5.049   8.510  0.2025  0.2673 -0.5988
 1805TIP3   OH227049   0.663   0.012   1.187  0.1495 -0.9045 -0.4000
 1805TIP3    H127050   0.573   0.044   1.177  0.6032  0.8308  0.7598
 1805TIP3    H227051   0.653  -0.074   1.228 -0.9746 -0.6338 -0.0610
 1806TIP3   OH227052   4.130   4.495   7.510 -0.8308 -0.0435  0.3159
 1806TIP3    H127053   4.203   4.525   7.564 -1.3689  0.8468  0.5606
 1806TIP3    H227054   4.132   4.552   7.433 -0.8894 -0.4327  0.0202
 1807TIP3   OH227055   2.392   6.403   7.686 -0.2310  0.8033 -0.3575
 1807TIP3    H127056   2.341   6.370   7.760  0.5205  0.0055 -0.1774
 1807TIP3    H227057   2.342   6.478   7.654 -1.2862  0.3074  0.0810
 1808TIP3   OH227058   5.048   0.968   7.328  0.0211  0.4839 -0.1088
 1808TIP3    H127059   5.060   0.970   7.423 -0.2031 -1.2864 -0.0132
 1808TIP3    H227060   4.964   0.923   7.315 -0.6035  1.8808 -1.1243
 1809TIP3   OH227061   0.356   0.999   7.825 -0.4068 -0.4548  0.2756
 1809TIP3    H127062   0.280   1.056   7.821 -1.8566 -2.1958  1.2036
 1809TIP3    H227063   0.391   0.999   7.736 -0.5326  1.5841  0.1902
 1810TIP3   OH227064   1.080   1.183   2.237 -0.5026 -0.3179 -0.2645
 1810TIP3    H127065   1.061   1.093   2.262 -1.0685  0.2702  1.6190
 1810TIP3    H227066   1.030   1.236   2.300  0.4057  1.3067 -0.8520
 1811TIP3   OH227067   0.913   3.954   6.398 -0.2402  0.8602 -0.0282
 1811TIP3    H127068   0.968   3.886   6.437 -2.2653  0.8472  3.1510
 1811TIP3    H227069   0.833   3.909   6.371 -0.7850  1.6504  0.2219
 1812TIP3   OH227070   5.137   6.238   2.125 -0.0340 -0.2852 -0.7493
 1812TIP3    H127071   5.069   6.171   2.135 -0.8567  0.7991  1.6650
 1812TIP3    H227072   5.089   6.317   2.103  0.6038  0.1757 -0.4995
 1813TIP3   OH227073   0.154   2.850   8.554 -0.1000 -0.0884  0.4185
 1813TIP3    H127074   0.084   2.915   8.554 -0.2190 -0.1701 -1.0553
 1813TIP3    H227075   0.235   2.901   8.545 -0.0229 -0.0466  1.2524
 1814TIP3   OH227076   6.918   5.679   8.187  0.3537  0.3188 -0.5952
 1814TIP3    H127077   6.937   5.734   8.263  0.4008  0.5013 -0.7392
 1814TIP3    H227078   6.886   5.597   8.225  0.3446  0.4208 -0.3790
 1815TIP3   OH227079   4.235   5.957   8.301  0.1072 -0.2236  0.2757
 1815TIP3    H127080   4.283   6.039   8.313  1.1492 -0.6947 -0.5273
 1815TIP3    H227081   4.253   5.932   8.210 -1.9124 -0.2730 -0.1485
 1816TIP3   OH227082   1.910   5.437   8.098 -0.2455 -0.4466 -0.4582
 1816TIP3    H127083   1.934   5.483   8.178  0.6180  1.5596 -1.7705
 1816TIP3    H227084   1.924   5.345   8.117 -1.7617 -0.2138  2.2361
 1817TIP3   OH227085   3.924   4.781   6.702 -0.2703  0.0055 -0.8891
 1817TIP3    H127086   3.910   4.868   6.740 -2.1063 -0.5824 -0.0798
 1817TIP3    H227087   4.006   4.789   6.653  0.2269  1.8506  0.1351
 1818TIP3   OH227088   5.839   6.079   1.879 -0.2667 -0.3719 -0.0354
 1818TIP3    H127089   5.834   6.138   1.803 -0.7627 -0.7532 -0.3012
 1818TIP3    H227090   5.766   6.106   1.935 -0.5810 -0.8234 -0.2250
 1819TIP3   OH227091   5.659   2.822   2.207 -0.3195  0.2587  0.2205
 1819TIP3    H127092   5.583   2.867   2.171 -0.3912  0.4375  0.5950
 1819TIP3    H227093   5.732   2.852   2.152 -0.2364  1.4460  0.9338
 1820TIP3   OH227094   5.795   2.103   0.804  0.6900 -0.3312  0.1883
 1820TIP3    H127095   5.742   2.134   0.878  0.5519 -1.0714  0.4047
 1820TIP3    H227096   5.782   2.169   0.736 -0.6560 -0.5990  0.1732
 1821TIP3   OH227097   0.576   3.263   0.830  0.1469  0.2894  0.2204
 1821TIP3    H127098   0.572   3.310   0.747 -0.5667  0.6548  0.4506
 1821TIP3    H227099   0.659   3.215   0.826  0.1082  0.2679 -0.7164
 1822TIP3   OH227100   0.180   3.003   6.645 -0.0443 -0.6784  0.0896
 1822TIP3    H127101   0.085   2.990   6.649 -0.0677 -0.1276  2.4058
 1822TIP3    H227102   0.192   3.096   6.662  0.9689 -0.9215  0.7434
 1823TIP3   OH227103   3.356   6.412   1.995 -0.5172 -0.5545 -0.0106
 1823TIP3    H127104   3.365   6.338   2.056  2.6241  0.8917  1.5510
 1823TIP3    H227105   3.421   6.475   2.026 -2.2927  2.4282 -1.9396
 1824TIP3   OH227106   2.064   1.292   2.508 -0.0145  0.3008 -0.2123
 1824TIP3    H127107   1.996   1.357   2.490 -0.5125 -0.8912 -3.2050
 1824TIP3    H227108   2.021   1.208   2.495  1.2496 -0.5927  1.1278
 1825TIP3   OH227109   6.334   6.593   7.169 -0.3654  0.6658  0.2306
 1825TIP3    H127110   6.373   6.554   7.091 -0.8790  0.2444  0.1801
 1825TIP3    H227111   6.405   6.644   7.208  0.6731 -1.1595  0.8895
 1826TIP3   OH227112   4.770   6.204   7.786  0.0710 -0.8236 -0.5721
 1826TIP3    H127113   4.864   6.207   7.806  0.0974 -0.8491 -0.6904
 1826TIP3    H227114   4.728   6.244   7.862  0.3195  1.1687 -1.4292
 1827TIP3   OH227115   0.332   3.874   1.555 -0.0045  0.0575  0.3378
 1827TIP3    H127116   0.244   3.910   1.570  0.0361  0.0979  0.4808
 1827TIP3    H227117   0.371   3.932   1.489 -0.3483 -0.3848 -0.2684
 1828TIP3   OH227118   2.773   1.850   7.552 -0.0772  0.1294  0.4470
 1828TIP3    H127119   2.764   1.919   7.619  1.2769  0.2320  0.5482
 1828TIP3    H227120   2.759   1.895   7.469 -2.3452 -0.1039  0.6395
 1829TIP3   OH227121   3.333   3.241   8.185  0.2382 -0.0242 -0.1358
 1829TIP3    H127122   3.412   3.186   8.185 -1.3904 -2.5937 -1.4241
 1829TIP3    H227123   3.326   3.271   8.094 -1.2166 -1.4193 -0.5255
 1830TIP3   OH227124   2.434   1.057   2.722  0.0514  0.4638  0.1530
 1830TIP3    H127125   2.486   1.099   2.790  2.4767  2.2134 -2.5545
 1830TIP3    H227126   2.343   1.077   2.745  0.6831  0.3027  3.1757
 1831TIP3   OH227127   2.935   6.260   2.619  0.3526 -0.4727  0.2937
 1831TIP3    H127128   3.017   6.310   2.612  0.5607 -0.7115  0.9015
 1831TIP3    H227129   2.961   6.169   2.607  0.4020 -0.6811  1.8029
 1832TIP3   OH227130   6.599   4.861   0.823  0.5060 -0.0558 -0.2310
 1832TIP3    H127131   6.656   4.926   0.781 -1.1394  1.3091 -0.4413
 1832TIP3    H227132   6.587   4.895   0.912  0.9797 -0.9892  0.2023
 1833TIP3   OH227133   3.663   5.227   0.612  0.0777  0.7736 -0.6408
 1833TIP3    H127134   3.599   5.292   0.583 -0.0155  1.0968  0.2831
 1833TIP3    H227135   3.621   5.143   0.593 -0.2521  0.9792 -0.8407
 1834TIP3   OH227136   5.875   5.419   1.272  0.5105  0.3225 -0.3320
 1834TIP3    H127137   5.955   5.420   1.219 -0.0702 -1.1045 -1.2890
 1834TIP3    H227138   5.805   5.437   1.210 -0.0516  0.0842  0.2216
 1835TIP3   OH227139   6.061   1.635   8.011 -0.0341  0.5036  0.1063
 1835TIP3    H127140   6.012   1.675   7.939 -1.3900  1.9950  1.7636
 1835TIP3    H227141   6.015   1.553   8.028  0.5423 -0.0627 -0.9448
 1836TIP3   OH227142   3.758   4.344   8.564 -0.7853 -1.1484  0.2473
 1836TIP3    H127143   3.785   4.337   8.656 -0.5526 -0.2383  0.2544
 1836TIP3    H227144   3.758   4.438   8.545 -1.6077 -1.2738 -0.4630
 1837TIP3   OH227145   1.929   2.286   0.981  0.3600  0.0193  0.3244
 1837TIP3    H127146   1.973   2.333   0.910 -2.3060 -0.6994 -1.9982
 1837TIP3    H227147   1.913   2.353   1.048  1.4930  1.1260 -0.4660
 1838TIP3   OH227148   2.510   0.724   7.339  0.7893 -0.5976  0.4641
 1838TIP3    H127149   2.495   0.690   7.427  2.6285  1.6925  1.8032
 1838TIP3    H227150   2.588   0.677   7.308  2.2527  0.9782  1.5758
 1839TIP3   OH227151   5.515   2.317   7.850 -0.3737  0.1703 -0.3013
 1839TIP3    H127152   5.463   2.238   7.834  0.2875 -0.4433  0.4842
 1839TIP3    H227153   5.605   2.285   7.853 -0.2107  0.7370  1.4080
 1840TIP3   OH227154   4.448   3.124   0.144 -0.1321  0.0264  0.4479
 1840TIP3    H127155   4.360   3.121   0.180  0.0134  0.3889  0.8454
 1840TIP3    H227156   4.504   3.147   0.218  0.4391 -1.2715  0.4496
 1841TIP3   OH227157   2.330   0.145   6.511  0.2643 -0.7570 -0.5835
 1841TIP3    H127158   2.358   0.063   6.471 -1.5564 -1.4977 -0.4460
 1841TIP3    H227159   2.243   0.127   6.546  0.6828  0.6281  1.3846
 1842TIP3   OH227160   6.251   1.541   2.259 -0.3932 -0.2385  0.5291
 1842TIP3    H127161   6.205   1.477   2.206 -0.2793 -1.5107  1.8953
 1842TIP3    H227162   6.291   1.490   2.329  0.4635  1.2226  1.1596
 1843TIP3   OH227163   4.034   4.887   7.177  1.2010  0.3051 -0.5965
 1843TIP3    H127164   4.016   4.930   7.260 -1.0479 -2.4682  0.5438
 1843TIP3    H227165   4.117   4.925   7.147  1.7108  1.9684  2.5126
 1844TIP3   OH227166   0.123   3.161   8.340  0.7024 -0.0912  0.3752
 1844TIP3    H127167   0.093   3.105   8.268  0.3020  2.7505 -1.8466
 1844TIP3    H227168   0.216   3.175   8.323  0.7607  0.0672  0.7983
 1845TIP3   OH227169   2.360   6.838   6.428  0.1613  0.3044  0.1180
 1845TIP3    H127170   2.358   6.790   6.345 -0.5535  0.9059 -0.2197
 1845TIP3    H227171   2.303   6.787   6.486 -1.5512  1.3422 -0.5904
 1846TIP3   OH227172   4.174   0.472   7.462 -0.1689 -0.6611 -0.0531
 1846TIP3    H127173   4.117   0.426   7.401 -2.9947  1.0667  1.0995
 1846TIP3    H227174   4.236   0.519   7.406 -0.3251 -1.9514 -1.3891
 1847TIP3   OH227175   6.082   1.415   8.323  0.7767 -0.2622  0.0949
 1847TIP3    H127176   6.000   1.374   8.294  1.9745 -1.7285 -1.3801
 1847TIP3    H227177   6.150   1.376   8.268  2.4227  1.3738  0.8420
 1848TIP3   OH227178   6.876   6.753   7.814 -0.0096  0.3639 -0.0833
 1848TIP3    H127179   6.872   6.691   7.887 -0.7065  0.7901  0.2460
 1848TIP3    H227180   6.785   6.758   7.782  0.2035  0.5427 -0.6718
 1849TIP3   OH227181   0.688   4.364   2.001 -0.1438 -0.2514  0.2510
 1849TIP3    H127182   0.771   4.379   1.956  0.6711 -1.1436  1.3714
 1849TIP3    H227183   0.661   4.277   1.972 -0.2871 -0.2816  0.4707
 1850TIP3   OH227184   2.681   3.255   1.379 -0.2414 -0.1869 -0.1662
 1850TIP3    H127185   2.701   3.304   1.459 -2.5000  0.0272  0.3307
 1850TIP3    H227186   2.766   3.221   1.350  0.8228  0.8120  1.5906
 1851TIP3   OH227187   0.335   5.025   8.468  0.3472 -0.2153 -0.4614
 1851TIP3    H127188   0.309   5.003   8.378 -0.5821  1.4643 -0.6533
 1851TIP3    H227189   0.294   4.958   8.522 -1.4563  0.3168 -1.0937
 1852TIP3   OH227190   2.629   5.221   1.527 -0.4220 -0.3799  0.5254
 1852TIP3    H127191   2.712   5.237   1.572 -1.1163  1.0822  1.3573
 1852TIP3    H227192   2.595   5.308   1.507 -0.8277 -0.9667 -1.6187
 1853TIP3   OH227193   4.835   0.863   0.926  0.7629  0.0109  0.4919
 1853TIP3    H127194   4.800   0.899   0.844 -0.0527  3.4071  2.1526
 1853TIP3    H227195   4.830   0.768   0.915 -4.0648  0.2168 -1.5206
 1854TIP3   OH227196   4.412   1.869   8.063  0.4825  0.1383  0.0560
 1854TIP3    H127197   4.432   1.780   8.090 -1.2646  0.0169  1.1582
 1854TIP3    H227198   4.338   1.859   8.003  0.1664  0.8350  0.3153
 1855TIP3   OH227199   1.706   6.012   1.432  0.6988  0.8750  0.0123
 1855TIP3    H127200   1.742   6.001   1.344 -0.5648  1.3213 -0.5875
 1855TIP3    H227201   1.619   5.971   1.427  0.9206  0.2153  1.2794
 1856TIP3   OH227202   0.120   3.892   0.667  0.3180 -0.2767 -0.0523
 1856TIP3    H127203   0.188   3.841   0.711 -0.1963 -0.3819  0.6386
 1856TIP3    H227204   0.038   3.862   0.706 -0.0708  0.3465 -0.3693
 1857TIP3   OH227205   3.761   5.646   0.959 -0.3042  0.5815 -0.4848
 1857TIP3    H127206   3.676   5.690   0.953 -0.8421 -0.1913  0.9690
 1857TIP3    H227207   3.740   5.554   0.973  0.7407  0.5210  0.8677
 1858TIP3   OH227208   2.691   4.486   0.302 -0.2360  0.2378  0.0645
 1858TIP3    H127209   2.765   4.447   0.349 -1.2001 -0.2579  1.2154
 1858TIP3    H227210   2.639   4.411   0.273 -0.2593  0.5839 -0.8181
 1859TIP3   OH227211   6.176   1.317   6.942 -0.5088  0.2219 -0.1267
 1859TIP3    H127212   6.103   1.377   6.955 -1.6576 -1.1075 -0.1369
 1859TIP3    H227213   6.235   1.363   6.882  0.0558  2.4394  1.9709
 1860TIP3   OH227214   3.421   4.435   0.811 -0.1860 -0.3721 -0.3856
 1860TIP3    H127215   3.450   4.445   0.902  1.9778 -0.2744 -1.0376
 1860TIP3    H227216   3.458   4.510   0.766 -1.9419  0.0314 -1.2382
 1861TIP3   OH227217   1.583   5.819   7.526 -0.3757  0.3412 -0.2385
 1861TIP3    H127218   1.531   5.892   7.493 -0.0366  0.1259 -1.2824
 1861TIP3    H227219   1.543   5.741   7.487 -0.2577  0.0384  0.2385
 1862TIP3   OH227220   4.671   4.112   8.563  0.6776 -0.1146  0.2712
 1862TIP3    H127221   4.719   4.082   8.641 -1.6990 -0.5512  1.6736
 1862TIP3    H227222   4.588   4.144   8.598  0.5134  2.0783 -1.8730
 1863TIP3   OH227223   3.148   2.507   0.017  0.5333  0.9150 -0.1650
 1863TIP3    H127224   3.118   2.432   0.069 -1.8649  1.1748 -1.0495
 1863TIP3    H227225   3.122   2.584   0.068  0.6878  1.1594 -0.4515
 1864TIP3   OH227226   4.941   5.758   7.317  0.2133 -0.2306  0.8706
 1864TIP3    H127227   4.880   5.730   7.384  0.5883  0.3231  1.4526
 1864TIP3    H227228   5.023   5.775   7.364  0.1949  1.1798  0.4622
 1865TIP3   OH227229   5.326   1.172   7.780 -0.1271  0.3465 -0.0292
 1865TIP3    H127230   5.266   1.246   7.771 -1.8581 -0.8753  0.9190
 1865TIP3    H227231   5.367   1.164   7.695 -3.0693 -0.2164 -1.5238
 1866TIP3   OH227232   2.709   3.990   7.199  0.5885 -0.1728  0.2432
 1866TIP3    H127233   2.665   3.979   7.115  1.4401 -0.1266 -0.2266
 1866TIP3    H227234   2.802   3.998   7.176  0.6946  1.3141  1.0780
 1867TIP3   OH227235   4.590   2.844   0.502 -0.2543 -0.1652  0.1263
 1867TIP3    H127236   4.620   2.824   0.413  1.5161  1.2810  0.3264
 1867TIP3    H227237   4.498   2.868   0.491  0.5145  2.4936 -1.8270
 1868TIP3   OH227238   4.404   3.518   8.077  0.3381  0.6106 -0.1927
 1868TIP3    H127239   4.377   3.598   8.121  0.4959  1.1647 -1.0870
 1868TIP3    H227240   4.414   3.454   8.148 -2.9256  0.4425  0.2658
 1869TIP3   OH227241   5.887   6.653   0.791 -0.2880 -0.3097 -0.4678
 1869TIP3    H127242   5.863   6.643   0.699  1.5202 -0.6022 -0.9328
 1869TIP3    H227243   5.804   6.677   0.834 -1.4613 -1.5581 -1.9052
 1870TIP3   OH227244   1.973   0.328   0.459 -0.0186 -0.0652  0.0644
 1870TIP3    H127245   1.878   0.333   0.468 -0.2852 -0.9058 -1.8143
 1870TIP3    H227246   1.990   0.236   0.437  1.0806  0.3564 -0.9291
 1871TIP3   OH227247   6.584   5.214   0.443  0.4587  0.1313 -0.6449
 1871TIP3    H127248   6.629   5.296   0.421  2.4092 -0.3815  1.0820
 1871TIP3    H227249   6.609   5.153   0.373  2.1516 -0.0041  0.0239
 1872TIP3   OH227250   2.496   3.242   8.262 -0.0630 -0.3096 -0.1795
 1872TIP3    H127251   2.426   3.255   8.326  0.3083 -0.7526  0.3235
 1872TIP3    H227252   2.569   3.205   8.312  0.9188  1.1352 -0.4783
 1873TIP3   OH227253   2.017   4.008   0.107 -0.0769 -0.1693  0.4680
 1873TIP3    H127254   1.968   4.043   0.181 -1.5232 -2.1764  0.5590
 1873TIP3    H227255   1.968   4.037   0.030 -0.9349 -1.3659  0.5220
 1874TIP3   OH227256   2.840   1.581   6.754  0.3044 -0.2725  0.2016
 1874TIP3    H127257   2.915   1.638   6.739  1.1754 -1.6897 -1.1393
 1874TIP3    H227258   2.790   1.583   6.672  0.8825 -2.1085 -0.2597
 1875TIP3   OH227259   0.087   5.715   7.910  0.9140  0.2607  0.0922
 1875TIP3    H127260   0.167   5.767   7.920  0.1998  1.2792  0.7531
 1875TIP3    H227261   0.028   5.749   7.978 -0.1343 -0.3680 -0.4759
 1876TIP3   OH227262   2.855   6.638   7.148 -0.2689 -0.2321  0.3995
 1876TIP3    H127263   2.878   6.551   7.115  0.2316  0.7482 -2.0621
 1876TIP3    H227264   2.770   6.626   7.190  1.1553 -2.4808  2.9374
 1877TIP3   OH227265   3.145   3.824   1.145 -0.7253  0.1631  0.2237
 1877TIP3    H127266   3.203   3.843   1.072 -0.1514 -0.6045  0.4740
 1877TIP3    H227267   3.095   3.747   1.118 -2.2153  1.2684 -0.3136
 1878TIP3   OH227268   3.335   0.485   1.520  0.2483 -0.3631  0.3593
 1878TIP3    H127269   3.378   0.429   1.585  1.4748  0.1526  0.0235
 1878TIP3    H227270   3.385   0.567   1.522 -0.2748 -0.0075 -0.5741
 1879TIP3   OH227271   4.498   6.082   7.141 -0.0700 -0.5614 -0.1048
 1879TIP3    H127272   4.470   6.047   7.226  0.6663 -1.4011 -0.1864
 1879TIP3    H227273   4.455   6.167   7.134  0.0917 -0.3532  1.2358
 1880TIP3   OH227274   0.262   2.293   2.098 -0.1306 -0.1197  0.2351
 1880TIP3    H127275   0.352   2.292   2.066  0.0761 -0.8273  0.8087
 1880TIP3    H227276   0.208   2.285   2.020  0.3696 -3.1676  0.0855
 1881TIP3   OH227277   0.099   6.009   7.791  0.3610 -0.1326 -0.1661
 1881TIP3    H127278   0.087   5.959   7.872 -0.3981  0.9038  0.3907
 1881TIP3    H227279   0.108   6.100   7.821  1.3507  0.1195 -1.1691
 1882TIP3   OH227280   2.385   4.242   7.836  0.0347 -0.0119 -1.0010
 1882TIP3    H127281   2.470   4.276   7.864  0.8402 -0.9810 -2.1745
 1882TIP3    H227282   2.391   4.148   7.851 -0.8472 -0.0941 -1.1067
 1883TIP3   OH227283   1.707   4.872   7.180  0.3056 -0.6198  0.0576
 1883TIP3    H127284   1.700   4.880   7.085 -0.9310  1.2504  0.2699
 1883TIP3    H227285   1.738   4.782   7.193  1.5229 -0.6087 -2.1271
 1884TIP3   OH227286   5.396   3.513   7.430  0.0926 -0.0316 -0.4724
 1884TIP3    H127287   5.416   3.605   7.419 -0.1914 -0.0541 -1.1955
 1884TIP3    H227288   5.301   3.508   7.421  0.0499 -0.3232  0.0917
 1885TIP3   OH227289   6.512   2.107   2.239 -0.0976 -0.1178  0.3389
 1885TIP3    H127290   6.451   2.125   2.311 -0.6547  0.3698 -0.2488
 1885TIP3    H227291   6.518   2.011   2.236 -3.2094 -0.3688 -1.5277
 1886TIP3   OH227292   4.547   1.691   2.101  0.1897 -0.0333 -0.3994
 1886TIP3    H127293   4.452   1.699   2.104  0.1565 -0.2186 -0.8906
 1886TIP3    H227294   4.578   1.740   2.177 -0.2116  1.3538 -1.0988
 1887TIP3   OH227295   5.135   6.859   0.588  0.6844 -0.5756 -0.0077
 1887TIP3    H127296   5.056   6.884   0.541  0.6222  1.8799  1.2727
 1887TIP3    H227297   5.190   6.937   0.587  0.4805 -0.1516  4.2657
 1888TIP3   OH227298   1.044   4.396   0.203  0.3252  0.4122  0.1734
 1888TIP3    H127299   0.980   4.460   0.172  0.0804  0.1224  0.0729
 1888TIP3    H227300   1.063   4.422   0.293 -0.2688  0.2411  0.3551
 1889TIP3   OH227301   1.821   2.622   0.483  0.1209  0.0276 -0.2394
 1889TIP3    H127302   1.756   2.553   0.495 -0.5377  0.1778 -2.4294
 1889TIP3    H227303   1.904   2.575   0.475 -0.2684 -0.5147 -1.3259
 1890TIP3   OH227304   6.251   4.254   6.352  0.0613 -0.1520  0.2677
 1890TIP3    H127305   6.299   4.204   6.285  0.4925  0.7720 -0.1241
 1890TIP3    H227306   6.294   4.339   6.354 -0.1479 -0.0551  1.5129
 1891TIP3   OH227307   5.801   0.594   1.906 -0.1065 -0.9130 -0.1671
 1891TIP3    H127308   5.835   0.556   1.986  1.3097  1.2040  0.3455
 1891TIP3    H227309   5.823   0.531   1.838 -0.6434 -2.3904  0.9907
 1892TIP3   OH227310   5.073   2.607   2.867 -0.0873  0.1340 -0.4011
 1892TIP3    H127311   5.163   2.638   2.858 -0.7436  2.5296  0.5427
 1892TIP3    H227312   5.055   2.559   2.786  1.7889  0.2427 -0.9159
 1893TIP3   OH227313   6.834   0.092   7.518  0.2039  0.3704 -0.4225
 1893TIP3    H127314   6.929   0.101   7.518  0.2518  0.3103 -2.7350
 1893TIP3    H227315   6.809   0.103   7.610  2.4302  0.3250  0.2374
 1894TIP3   OH227316   5.072   3.698   7.791  0.1488 -0.0010 -0.8328
 1894TIP3    H127317   4.978   3.711   7.807  0.1678  0.2640 -0.9342
 1894TIP3    H227318   5.095   3.765   7.726  0.7629  1.0004  0.3766
 1895TIP3   OH227319   0.320   3.620   6.733 -0.3701  0.1855  0.8410
 1895TIP3    H127320   0.285   3.674   6.662  1.1010 -0.8960 -0.7848
 1895TIP3    H227321   0.374   3.680   6.784 -1.5533  1.0089  1.1646
 1896TIP3   OH227322   2.402   0.343   0.879  0.3991  0.3726  0.4181
 1896TIP3    H127323   2.475   0.296   0.838  0.1509 -0.0876  0.4912
 1896TIP3    H227324   2.345   0.367   0.806  1.0548  1.5047  0.2705
 1897TIP3   OH227325   4.587   3.875   8.403  0.3539  0.0175 -0.0709
 1897TIP3    H127326   4.603   3.813   8.474  2.3749  0.3725 -0.1623
 1897TIP3    H227327   4.604   3.961   8.441  2.5635  0.1517 -1.1889
 1898TIP3   OH227328   0.410   1.178   0.838  0.4386  0.4731  0.8652
 1898TIP3    H127329   0.357   1.223   0.772  1.6200 -1.2060 -1.3508
 1898TIP3    H227330   0.500   1.200   0.816  0.8824 -0.5785  1.5365
 1899TIP3   OH227331   5.288   1.575   7.126  0.0195  0.0208 -0.0658
 1899TIP3    H127332   5.327   1.488   7.139 -1.2378 -0.6867 -0.8071
 1899TIP3    H227333   5.194   1.559   7.130 -0.2804  0.9967 -2.2748
 1900TIP3   OH227334   4.085   1.874   0.291  0.1195  0.1254 -0.0528
 1900TIP3    H127335   4.096   1.794   0.239  4.3768 -2.0056  3.4357
 1900TIP3    H227336   4.138   1.939   0.247  0.0353 -0.2278 -0.6924
 1901TIP3   OH227337   2.595   1.019   6.684 -0.2850  0.4124 -0.7902
 1901TIP3    H127338   2.502   0.998   6.679 -0.1976 -0.5333  0.9415
 1901TIP3    H227339   2.636   0.962   6.619 -0.7328 -0.4093 -0.3687
 1902TIP3   OH227340   2.217   3.536   0.717  0.1625  0.1698 -0.0570
 1902TIP3    H127341   2.147   3.506   0.775  1.3109  0.0442  1.2945
 1902TIP3    H227342   2.187   3.511   0.629 -2.0414  1.2072  0.3462
 1903TIP3   OH227343   0.664   5.608   6.419  0.6560 -0.3156 -0.2827
 1903TIP3    H127344   0.747   5.601   6.371  1.1239  0.7060  0.3450
 1903TIP3    H227345   0.641   5.701   6.413  1.3369  0.0982  2.4188
 1904TIP3   OH227346   2.460   5.108   1.915 -0.6152  0.4534  0.5763
 1904TIP3    H127347   2.511   5.188   1.925 -1.7635  1.9645 -3.6757
 1904TIP3    H227348   2.415   5.097   1.999  0.3216  3.7180  1.6273
 1905TIP3   OH227349   2.234   2.003   2.798  0.3380  0.5111 -0.1676
 1905TIP3    H127350   2.233   1.918   2.841  1.9092  0.0087 -1.0415
 1905TIP3    H227351   2.178   2.058   2.853  0.9293 -0.5295  1.5638
 1906TIP3   OH227352   2.909   3.380   0.105 -0.2305  0.3542  0.8308
 1906TIP3    H127353   2.865   3.315   0.161 -1.6614  0.2843 -0.3181
 1906TIP3    H227354   2.925   3.455   0.163  1.0696 -0.8281  2.0694
 1907TIP3   OH227355   3.180   0.701   8.476  0.1138 -0.0142 -0.3470
 1907TIP3    H127356   3.126   0.689   8.554 -0.2744 -0.4668 -0.6829
 1907TIP3    H227357   3.142   0.643   8.411  0.6141  0.1445 -0.7889
 1908TIP3   OH227358   0.001   6.027   0.630 -0.0325 -0.5220  0.0742
 1908TIP3    H127359  -0.070   6.072   0.584 -1.0584 -1.3600  0.7938
 1908TIP3    H227360  -0.043   5.958   0.680  1.3691 -1.5572 -0.0671
 1909TIP3   OH227361   3.008   6.948   2.465 -0.3017  0.0212  0.0578
 1909TIP3    H127362   2.932   6.900   2.500 -0.4019 -0.7216 -1.1276
 1909TIP3    H227363   2.970   7.011   2.403  0.1247 -1.8285 -2.2127
 1910TIP3   OH227364   0.725   3.145   8.063 -0.1756  0.5266  0.5173
 1910TIP3    H127365   0.677   3.081   8.011  1.5241 -0.7785  0.4680
 1910TIP3    H227366   0.712   3.228   8.017  1.3009 -0.5745 -2.1157
 1911TIP3   OH227367   1.285   1.754   1.940 -0.3542  0.0729  0.9428
 1911TIP3    H127368   1.216   1.751   2.006 -0.8066 -1.0485  0.4354
 1911TIP3    H227369   1.355   1.698   1.975  0.3560  1.2603  1.4894
 1912TIP3   OH227370   3.608   3.990   1.356  0.2611 -0.0676 -0.0235
 1912TIP3    H127371   3.639   4.077   1.334  0.6274 -0.2960 -0.4203
 1912TIP3    H227372   3.512   3.998   1.355  0.2938  0.3693  0.1273
 1913TIP3   OH227373   2.740   6.737   7.737  0.4221  0.2605 -0.0471
 1913TIP3    H127374   2.683   6.682   7.791  0.1906 -0.6707 -1.2094
 1913TIP3    H227375   2.679   6.793   7.689  0.5749  0.4070 -0.0687
 1914TIP3   OH227376   0.228   2.768   1.151  0.6896  0.3813 -0.1617
 1914TIP3    H127377   0.206   2.675   1.144  1.1844  0.1302  1.2570
 1914TIP3    H227378   0.272   2.789   1.068 -0.6613 -0.2807 -1.0697
 1915TIP3   OH227379   2.645   2.750   2.091  0.2492  0.0727 -0.8459
 1915TIP3    H127380   2.615   2.839   2.072  0.9943  0.3797 -0.6044
 1915TIP3    H227381   2.660   2.750   2.185  0.4213 -0.2641 -0.8745
 1916TIP3   OH227382   6.328   0.067   7.584  0.0987  0.2015 -0.1535
 1916TIP3    H127383   6.391   0.116   7.531 -1.1190  1.0381 -0.8683
 1916TIP3    H227384   6.340   0.100   7.673  1.4503 -0.4824 -0.0603
 1917TIP3   OH227385   1.750   4.181   0.076  0.4993  0.0024  0.2271
 1917TIP3    H127386   1.724   4.267   0.108  1.1429 -0.1016  1.0727
 1917TIP3    H227387   1.741   4.186  -0.019  0.4711  0.9795  0.2777
 1918TIP3   OH227388   1.647   2.756   7.281 -0.2208 -0.5448 -0.4377
 1918TIP3    H127389   1.730   2.709   7.292 -0.8913 -1.8753 -0.9191
 1918TIP3    H227390   1.657   2.803   7.198 -0.7279 -2.4306 -1.6093
 1919TIP3   OH227391   3.391   1.051   0.653 -0.1905  0.0453  0.7268
 1919TIP3    H127392   3.433   1.038   0.737 -0.1253  0.0756  0.6987
 1919TIP3    H227393   3.309   1.096   0.674  0.3462  1.0766  0.6754
 1920TIP3   OH227394   5.026   4.651   7.111  0.1936 -0.3502 -0.1552
 1920TIP3    H127395   4.953   4.681   7.057  0.3009  0.5793  0.2057
 1920TIP3    H227396   5.101   4.650   7.051  0.9025  3.1572  0.4772
 1921TIP3   OH227397   5.515   4.392   0.754 -0.2464  0.6340 -0.8324
 1921TIP3    H127398   5.474   4.424   0.834 -0.8691 -1.1119 -0.4265
 1921TIP3    H227399   5.590   4.451   0.740  2.2463 -1.1754  3.1455
 1922TIP3   OH227400   3.994   0.451   0.113  0.4800 -0.0099  0.0152
 1922TIP3    H127401   4.043   0.444   0.031  1.2934  0.2152  0.4714
 1922TIP3    H227402   3.903   0.438   0.087  0.8063 -0.8853 -0.7986
 1923TIP3   OH227403   3.629   3.430   7.130  0.0984  0.1858 -0.0988
 1923TIP3    H127404   3.590   3.347   7.156 -0.7758  0.5442 -0.2467
 1923TIP3    H227405   3.710   3.405   7.084  0.7574 -0.5051  1.3818
 1924TIP3   OH227406   5.241   5.416   6.407  0.1266  0.0452  0.4301
 1924TIP3    H127407   5.262   5.333   6.450  0.4264 -1.1890 -1.8990
 1924TIP3    H227408   5.307   5.478   6.440  1.5165 -1.3237  0.3440
 1925TIP3   OH227409   3.127   0.608   1.414  0.7208  0.0407  0.1945
 1925TIP3    H127410   3.079   0.635   1.492 -0.6169  0.0335 -0.5788
 1925TIP3    H227411   3.200   0.556   1.447 -1.3396 -2.3080  1.3961
 1926TIP3   OH227412   2.461   3.533   6.703  0.2726  0.0038 -0.2283
 1926TIP3    H127413   2.429   3.447   6.731 -0.0630  0.0520 -0.4630
 1926TIP3    H227414   2.554   3.532   6.724 -0.2005  0.5572  2.2560
 1927TIP3   OH227415   1.777   5.482   0.547 -0.1212  0.6953 -0.0749
 1927TIP3    H127416   1.720   5.557   0.563 -1.1957  0.4656 -2.3869
 1927TIP3    H227417   1.721   5.405   0.559  0.8390  0.2263  1.7773
 1928TIP3   OH227418   6.728   0.230   8.072  0.6519 -0.0810 -0.0156
 1928TIP3    H127419   6.686   0.278   8.143 -0.7031  0.6239 -1.2216
 1928TIP3    H227420   6.705   0.138   8.089 -2.6550  0.3581 -1.2716
 1929TIP3   OH227421   4.723   3.070   0.578 -0.5856 -0.2792  0.3081
 1929TIP3    H127422   4.798   3.063   0.518  1.7286  1.0619  2.8078
 1929TIP3    H227423   4.681   2.984   0.574  1.1468 -1.1411 -1.1091
 1930TIP3   OH227424   3.412   3.529   6.964  0.1920 -0.2501  0.0189
 1930TIP3    H127425   3.404   3.464   6.894 -0.2627  1.4871 -1.6217
 1930TIP3    H227426   3.473   3.490   7.026  0.9215 -1.7016 -1.5308
 1931TIP3   OH227427   0.714   6.611   1.594 -0.5779  0.1704  0.0082
 1931TIP3    H127428   0.725   6.705   1.581 -0.1909  0.0229 -0.8154
 1931TIP3    H227429   0.620   6.600   1.611 -0.4537  0.8145  1.2683
 1932TIP3   OH227430   4.013   0.661   0.318  0.3842  0.1067 -0.1175
 1932TIP3    H127431   4.007   0.577   0.271  1.3110  0.8633 -1.6711
 1932TIP3    H227432   4.083   0.648   0.381  0.8038 -0.1732 -0.6334
 1933TIP3   OH227433   3.958   3.491   1.648 -0.7495  0.7854  0.1046
 1933TIP3    H127434   3.921   3.466   1.563  0.0231 -0.2790  0.0591
 1933TIP3    H227435   4.005   3.413   1.677  0.3008  1.6475  0.7859
 1934TIP3   OH227436   4.465   0.857   2.306  0.4067 -0.0452 -0.2366
 1934TIP3    H127437   4.412   0.905   2.370  0.7594 -1.4969  1.2008
 1934TIP3    H227438   4.403   0.804   2.258  0.2789  0.1317 -0.2688
 1935TIP3   OH227439   4.759   3.104   0.036 -0.1265 -0.4391  0.7093
 1935TIP3    H127440   4.819   3.177   0.053  1.2158 -1.2939 -0.2080
 1935TIP3    H227441   4.694   3.141  -0.024  1.6047 -0.3961 -1.2961
 1936TIP3   OH227442   4.986   2.738   0.539 -0.3817 -0.3292  0.2058
 1936TIP3    H127443   5.072   2.741   0.581 -0.0271 -3.0425 -0.1538
 1936TIP3    H227444   5.000   2.778   0.453  1.1445 -2.6895 -0.7203
 1937TIP3   OH227445   1.629   0.931   1.844 -0.6029  0.1047 -0.3574
 1937TIP3    H127446   1.563   0.866   1.819 -1.1332  1.0501 -1.5452
 1937TIP3    H227447   1.702   0.915   1.784 -0.2839 -0.1130  0.0912
 1938TIP3   OH227448   3.212   3.672   8.017 -0.2358 -0.7866  0.3303
 1938TIP3    H127449   3.288   3.617   8.034  0.7745  0.1804 -0.8202
 1938TIP3    H227450   3.197   3.718   8.100  2.3043  1.1584 -0.1395
 1939TIP3   OH227451   5.671   3.753   0.721 -0.2118  0.1593 -0.0102
 1939TIP3    H127452   5.623   3.684   0.675 -0.7342 -0.0633  0.8519
 1939TIP3    H227453   5.733   3.706   0.777  2.0446  0.4362 -2.0923
 1940TIP3   OH227454   1.340   6.883   0.711  0.3405  0.4597  0.9971
 1940TIP3    H127455   1.304   6.828   0.641 -0.2368  1.1130  0.7692
 1940TIP3    H227456   1.425   6.912   0.677  1.0089 -0.9042  1.4425
 1941TIP3   OH227457   5.240   0.888   1.190  0.0673  0.1897 -0.2789
 1941TIP3    H127458   5.211   0.801   1.217 -1.2921  0.9529  0.9311
 1941TIP3    H227459   5.173   0.917   1.128 -0.8742  1.2745  1.1729
 1942TIP3   OH227460   5.247   1.818   7.343 -0.0139  0.2055 -0.1586
 1942TIP3    H127461   5.264   1.726   7.322  2.6292  0.5018  0.3046
 1942TIP3    H227462   5.253   1.863   7.258  0.6699  0.1715 -0.1348
 1943TIP3   OH227463   6.950   2.887   7.732  0.8252  0.2547  0.0700
 1943TIP3    H127464   7.010   2.840   7.675  1.7567  1.1673  0.2714
 1943TIP3    H227465   6.863   2.866   7.698  1.2754 -0.7535 -0.4805
 1944TIP3   OH227466   3.660   6.904   7.122 -0.4353  0.1105  0.1547
 1944TIP3    H127467   3.635   6.834   7.182  0.1140 -0.0165  0.2404
 1944TIP3    H227468   3.725   6.864   7.064 -0.5893  0.3725 -0.2025
 1945TIP3   OH227469   6.718   4.212   1.636  0.0416  0.2464  0.0317
 1945TIP3    H127470   6.750   4.287   1.687  2.6706 -0.4494 -0.4525
 1945TIP3    H227471   6.708   4.246   1.547 -0.3189  0.3814  0.1193
 1946TIP3   OH227472   5.144   2.117   8.499 -0.2368  0.3821 -0.0521
 1946TIP3    H127473   5.062   2.144   8.458 -0.1307 -0.4848 -0.8643
 1946TIP3    H227474   5.149   2.023   8.484 -1.0096 -0.3390  3.4162
 1947TIP3   OH227475   1.006   3.191   8.264 -0.0742 -0.2634 -0.2815
 1947TIP3    H127476   1.079   3.251   8.277 -1.3807  1.2718  0.3113
 1947TIP3    H227477   0.928   3.245   8.275 -1.3182 -1.9737 -0.2392
 1948TIP3   OH227478   1.002   0.897   8.138 -0.1020  0.1893 -0.4867
 1948TIP3    H127479   1.022   0.841   8.213 -1.5066  1.6265  1.0855
 1948TIP3    H227480   1.047   0.857   8.064  1.7832 -1.0216  1.2179
 1949TIP3   OH227481   6.884   1.361   2.043 -0.1175 -0.1644  0.2023
 1949TIP3    H127482   6.814   1.346   2.106 -0.4576  0.4178 -0.0247
 1949TIP3    H227483   6.917   1.274   2.021 -1.7951 -0.5779 -0.8539
 1950TIP3   OH227484   2.115   1.365   1.872  0.1657 -0.6085 -0.1669
 1950TIP3    H127485   2.112   1.280   1.916  1.6056 -0.2239  0.7314
 1950TIP3    H227486   2.039   1.413   1.907  0.2462 -0.9637  0.5126
 1951TIP3   OH227487   3.742   6.891   8.373  0.4301  0.7217 -0.3856
 1951TIP3    H127488   3.762   6.926   8.286 -1.6740  1.8215 -0.4902
 1951TIP3    H227489   3.772   6.800   8.369 -1.2370  0.1579 -2.9515
 1952TIP3   OH227490   5.255   4.686   6.939 -0.0065  0.1489 -0.4773
 1952TIP3    H127491   5.305   4.686   7.021  0.3992  1.3940 -0.6919
 1952TIP3    H227492   5.278   4.770   6.898  0.6355 -0.8982 -2.3813
 1953TIP3   OH227493   2.266   1.112   8.146  0.3609 -0.2771  0.5338
 1953TIP3    H127494   2.239   1.042   8.205 -1.0082 -1.1986 -1.1034
 1953TIP3    H227495   2.362   1.110   8.150  0.3121 -0.5541  2.3977
 1954TIP3   OH227496   5.556   0.554   2.226  0.1482  0.4339 -0.2072
 1954TIP3    H127497   5.569   0.461   2.208  0.9631  0.6571 -0.8628
 1954TIP3    H227498   5.464   0.570   2.204  0.5346  0.2112 -2.2177
 1955TIP3   OH227499   1.913   5.998   8.389  0.0995  0.5744 -0.4394
 1955TIP3    H127500   1.907   5.904   8.376  1.0845  0.6084 -1.3190
 1955TIP3    H227501   2.004   6.013   8.415  0.5865  1.4844 -2.4556
 1956TIP3   OH227502   0.152   5.142   1.166  0.0596  0.8617  0.4202
 1956TIP3    H127503   0.113   5.083   1.231  0.7632 -0.0845  0.0031
 1956TIP3    H227504   0.145   5.095   1.083  0.9426  1.2100  0.1299
 1957TIP3   OH227505   2.835   5.468   7.504  0.4156  0.9733 -0.0545
 1957TIP3    H127506   2.906   5.409   7.528 -0.1587 -0.2854 -1.3824
 1957TIP3    H227507   2.856   5.497   7.415  0.1580  1.9953  0.1976
 1958TIP3   OH227508   5.422   0.287   7.968 -0.2328 -0.2496  0.2235
 1958TIP3    H127509   5.431   0.363   8.025 -1.8280 -0.3112  0.6021
 1958TIP3    H227510   5.427   0.212   8.028 -2.1490 -0.3078  0.3717
 1959TIP3   OH227511   5.996   2.877   1.354  0.8741  0.6736 -0.1303
 1959TIP3    H127512   5.954   2.915   1.277 -1.9114  0.0772  0.9973
 1959TIP3    H227513   5.999   2.948   1.418 -1.2799 -0.0302  0.8250
 1960TIP3   OH227514   2.689   6.469   1.515 -0.5056 -0.5817  0.0691
 1960TIP3    H127515   2.733   6.554   1.506 -1.7816  0.1443  0.4314
 1960TIP3    H227516   2.726   6.431   1.595 -0.0486 -0.3037 -0.0044
 1961TIP3   OH227517   5.756   0.021   0.072  0.1272 -0.0919  0.3474
 1961TIP3    H127518   5.764   0.092   0.135  0.6242 -1.5643  2.0379
 1961TIP3    H227519   5.843  -0.019   0.069 -0.6835 -2.0758  1.2986
 1962TIP3   OH227520   4.947   3.342   1.484  0.4268 -0.2575  0.2033
 1962TIP3    H127521   5.020   3.302   1.531  0.7213 -0.4937 -0.4453
 1962TIP3    H227522   4.870   3.293   1.512 -0.0357  1.9891  3.3699
 1963TIP3   OH227523   2.548   0.376   0.128  0.2945  0.0878  0.2313
 1963TIP3    H127524   2.529   0.287   0.098  0.2736  0.3460 -0.5279
 1963TIP3    H227525   2.577   0.365   0.219 -0.9850 -0.5750  0.5936
 1964TIP3   OH227526   6.281   0.962   7.548  0.1210 -0.0145 -0.0623
 1964TIP3    H127527   6.310   0.963   7.456 -1.4963 -0.5907 -0.6099
 1964TIP3    H227528   6.358   0.992   7.597  1.5934 -1.3198 -1.4316
 1965TIP3   OH227529   4.086   1.155   1.267  0.2813 -0.5896 -0.2980
 1965TIP3    H127530   4.004   1.106   1.266  0.3102 -0.7361  1.1959
 1965TIP3    H227531   4.107   1.164   1.360  0.4781  1.9307 -0.5096
 1966TIP3   OH227532   1.091   3.231   6.684 -0.5817  0.2498 -0.0326
 1966TIP3    H127533   1.067   3.237   6.776  1.4842 -0.5065  0.6248
 1966TIP3    H227534   1.047   3.152   6.653  0.0779 -0.4700  0.8081
 1967TIP3   OH227535   1.367   3.173   1.000 -0.7274 -0.2184  0.7684
 1967TIP3    H127536   1.458   3.166   1.029 -0.2074 -0.3949 -0.8483
 1967TIP3    H227537   1.323   3.101   1.046 -0.7949  1.6698  3.9988
 1968TIP3   OH227538   5.711   2.515   8.152 -0.1391  0.1119  0.2898
 1968TIP3    H127539   5.753   2.503   8.237 -1.7304 -0.0133  1.1031
 1968TIP3    H227540   5.746   2.444   8.097  0.7414  0.0632  0.8916
 1969TIP3   OH227541   4.141   0.780   6.544  0.3970  0.2818 -0.0638
 1969TIP3    H127542   4.202   0.717   6.582  0.6721  1.0532  0.8103
 1969TIP3    H227543   4.142   0.760   6.450  3.0716  1.1226 -0.3066
 1970TIP3   OH227544   2.601   5.238   1.124 -0.0585  0.0083  0.2158
 1970TIP3    H127545   2.602   5.151   1.085 -0.8961 -0.2720  0.7808
 1970TIP3    H227546   2.517   5.242   1.171  1.3405 -0.0848  2.8954
 1971TIP3   OH227547   1.601   1.589   6.632 -0.2073  0.4684  0.0538
 1971TIP3    H127548   1.675   1.646   6.651 -0.9445  1.3896  0.2390
 1971TIP3    H227549   1.528   1.625   6.683 -0.6587 -0.7456  0.3192
 1972TIP3   OH227550   0.924   0.670   7.096  0.1657 -0.4758 -0.0480
 1972TIP3    H127551   0.916   0.753   7.141  1.7232  1.5209 -3.1078
 1972TIP3    H227552   0.852   0.670   7.032  2.6763  0.8523 -3.1691
 1973TIP3   OH227553   3.254   6.442   1.325 -0.5173  0.0782  0.4308
 1973TIP3    H127554   3.256   6.530   1.363 -1.5852  1.1400 -1.8236
 1973TIP3    H227555   3.257   6.456   1.231 -0.5550 -2.3343  0.0067
 1974TIP3   OH227556   6.305   2.599   8.073  0.4524  0.6090  0.2203
 1974TIP3    H127557   6.266   2.627   8.155  0.7327  0.2073  0.4953
 1974TIP3    H227558   6.290   2.671   8.012 -2.4655 -0.2793 -0.2542
 1975TIP3   OH227559   1.143   4.768   1.654 -0.0990 -0.0415  0.1360
 1975TIP3    H127560   1.077   4.816   1.603 -0.5396  0.6645  1.3223
 1975TIP3    H227561   1.105   4.761   1.742  0.7780 -0.9375  0.4657
 1976TIP3   OH227562   4.106   2.845   7.751  0.2956 -0.3577 -0.3544
 1976TIP3    H127563   4.130   2.893   7.672  0.3344 -0.5774 -0.4776
 1976TIP3    H227564   4.179   2.785   7.765  0.3780 -0.1863 -0.0432
 1977TIP3   OH227565   0.317   4.538   0.096 -0.1056  0.4241 -0.2014
 1977TIP3    H127566   0.409   4.564   0.092 -0.2746  0.9733 -0.6741
 1977TIP3    H227567   0.269   4.615   0.065 -1.0029  1.5090  3.3931
 1978TIP3   OH227568   5.667   2.510   6.986 -0.1077 -0.2451 -0.2511
 1978TIP3    H127569   5.753   2.522   6.947  0.0947  2.0314  0.7188
 1978TIP3    H227570   5.609   2.566   6.935 -1.0590 -1.6732 -0.8292
 1979TIP3   OH227571   0.513   2.241   8.123 -0.7397 -0.1363 -0.0967
 1979TIP3    H127572   0.540   2.174   8.186 -0.6456 -0.1119 -0.1118
 1979TIP3    H227573   0.448   2.197   8.068 -0.0445 -0.4783 -0.6591
 1980TIP3   OH227574   3.710   0.239   0.655  0.2785 -0.6265  0.4439
 1980TIP3    H127575   3.764   0.202   0.725 -0.1536 -2.7689 -0.2726
 1980TIP3    H227576   3.707   0.333   0.673 -0.8011 -1.2215  3.9945
 1981TIP3   OH227577   2.269   2.558   8.131  0.0459  0.0212 -0.6692
 1981TIP3    H127578   2.187   2.566   8.083  1.0601  0.4998 -2.3982
 1981TIP3    H227579   2.280   2.644   8.173 -0.9965 -0.5002  0.7851
 1982TIP3   OH227580   3.519   3.530   1.334  0.2264 -0.1682  0.3166
 1982TIP3    H127581   3.485   3.569   1.414  0.9009  0.2797  0.3879
 1982TIP3    H227582   3.478   3.444   1.330 -0.7434  0.2726  0.5157
 1983TIP3   OH227583   2.010   1.667   1.096  0.2156  0.0695  0.4846
 1983TIP3    H127584   2.048   1.755   1.099  1.3002 -0.4083  1.6047
 1983TIP3    H227585   1.916   1.682   1.093  0.3953  1.2994 -2.5587
 1984TIP3   OH227586   2.795   4.343   8.456  0.1004 -0.2516 -0.4248
 1984TIP3    H127587   2.798   4.247   8.450  0.3665 -0.2207 -0.7413
 1984TIP3    H227588   2.709   4.361   8.495  0.1358 -0.6286 -0.1657
 1985TIP3   OH227589   6.025   6.559   8.560 -0.1515  0.5196  0.1652
 1985TIP3    H127590   6.006   6.647   8.591  3.2475  1.7708 -0.8330
 1985TIP3    H227591   6.067   6.516   8.636  0.8802  0.8157 -0.2247
 1986TIP3   OH227592   2.812   2.691   8.585  0.0301 -0.0853 -0.4780
 1986TIP3    H127593   2.870   2.675   8.659 -1.5646  1.2758  1.1497
 1986TIP3    H227594   2.831   2.619   8.524  1.8182 -0.9073  0.9540
 1987TIP3   OH227595   3.984   5.954   6.925 -0.4140  0.2402 -0.0059
 1987TIP3    H127596   3.890   5.970   6.926 -0.1995  1.6885 -0.6229
 1987TIP3    H227597   4.021   6.029   6.877  1.3242  1.1649  2.5401
 1988TIP3   OH227598   5.542   0.339   0.447  0.5095 -0.1515  0.3072
 1988TIP3    H127599   5.450   0.311   0.450  0.5248 -0.1947  3.2456
 1988TIP3    H227600   5.586   0.284   0.511  2.1842  1.1916  0.3811
 1989TIP3   OH227601   3.508   6.197   1.621 -0.4052  0.3107  0.5540
 1989TIP3    H127602   3.505   6.102   1.610  0.5338  0.2656  0.5674
 1989TIP3    H227603   3.420   6.227   1.601 -0.6381 -0.5355  0.2831
 1990TIP3   OH227604   1.185   6.310   7.453 -0.3985  0.1341  0.0911
 1990TIP3    H127605   1.103   6.352   7.429  1.0517  1.8876 -2.1576
 1990TIP3    H227606   1.238   6.380   7.492  0.9235 -0.3142 -0.8222
 1991TIP3   OH227607   3.258   0.553   7.988 -0.0579 -0.1137 -0.0885
 1991TIP3    H127608   3.222   0.506   7.912 -0.5864 -0.4132  0.3392
 1991TIP3    H227609   3.318   0.491   8.029 -1.4968 -0.8114  1.0438
 1992TIP3   OH227610   4.528   3.186   7.495 -0.1661  0.2911  0.7271
 1992TIP3    H127611   4.532   3.253   7.426 -0.0821 -1.3536 -0.9251
 1992TIP3    H227612   4.613   3.191   7.538  0.3914  0.2848 -0.3363
 1993TIP3   OH227613   3.760   1.613   8.393 -0.6100 -0.3602 -0.1969
 1993TIP3    H127614   3.848   1.650   8.401 -0.9830  0.4268  0.3890
 1993TIP3    H227615   3.709   1.657   8.460 -1.9712  0.7344 -1.8790
 1994TIP3   OH227616   3.646   1.402   1.620  0.0802  0.5127  0.3021
 1994TIP3    H127617   3.701   1.465   1.665 -0.7815  0.8016  0.9959
 1994TIP3    H227618   3.699   1.322   1.615  0.1972  0.4528  1.9078
 1995TIP3   OH227619   1.617   2.135   7.558  0.2831 -0.6930 -0.1150
 1995TIP3    H127620   1.592   2.078   7.631 -0.9270 -0.7539 -0.5473
 1995TIP3    H227621   1.644   2.074   7.488 -0.4126 -0.7294 -0.3630
 1996TIP3   OH227622   5.734   3.819   6.709  0.4677  0.5516  0.1270
 1996TIP3    H127623   5.802   3.753   6.699  0.1028  0.1528  0.2164
 1996TIP3    H227624   5.781   3.901   6.719  0.9489  0.2204  0.6581
 1997TIP3   OH227625   0.393   5.885   1.666  0.6182  0.2754  0.1576
 1997TIP3    H127626   0.478   5.914   1.701 -0.1971  2.8764  0.2277
 1997TIP3    H227627   0.407   5.881   1.571  1.0079 -0.0667  0.2247
 1998TIP3   OH227628   4.205   5.058   2.077  0.0944  0.4364  0.2722
 1998TIP3    H127629   4.239   5.012   2.154  1.8826  0.7955 -0.2736
 1998TIP3    H227630   4.114   5.079   2.100  1.4312  3.5144  3.7095
 1999TIP3   OH227631   1.772   6.694   2.500 -0.6849  0.1490 -0.2001
 1999TIP3    H127632   1.700   6.701   2.562 -0.0232  1.5101  0.4837
 1999TIP3    H227633   1.735   6.724   2.417 -0.8702  1.0513  0.1932
 2000TIP3   OH227634   1.216   5.516   6.348  0.3106  0.3273  0.5978
 2000TIP3    H127635   1.196   5.456   6.275  2.1536  1.0485 -0.5675
 2000TIP3    H227636   1.179   5.600   6.321 -1.2952  0.0459  1.7359
 2001TIP3   OH227637   1.589   2.662   8.317 -0.0592  0.8418  0.5674
 2001TIP3    H127638   1.501   2.700   8.322 -0.9480 -1.1454  1.4114
 2001TIP3    H227639   1.635   2.698   8.393 -0.4688  1.1413  0.6782
 2002TIP3   OH227640   5.810   2.501   0.749  0.1353 -0.2270  0.6695
 2002TIP3    H127641   5.887   2.527   0.799  0.2406 -1.5209  1.2226
 2002TIP3    H227642   5.790   2.577   0.695  1.0353  0.5896  1.4425
 2003TIP3   OH227643   1.206   4.026   1.049 -0.2286 -0.0523  0.3778
 2003TIP3    H127644   1.245   4.099   1.002  0.4757  0.0528  1.1016
 2003TIP3    H227645   1.143   3.988   0.988 -1.5016  1.8943  0.3946
 2004TIP3   OH227646   1.228   2.953   1.125 -0.7174 -0.0761 -0.3671
 2004TIP3    H127647   1.163   3.019   1.147 -2.5648 -2.1379  0.8081
 2004TIP3    H227648   1.238   2.902   1.206  2.0165 -0.1550 -0.6743
 2005TIP3   OH227649   2.600   3.685   7.965 -0.1744 -0.3698  0.0771
 2005TIP3    H127650   2.582   3.600   7.925 -0.1870 -0.8842  1.1494
 2005TIP3    H227651   2.515   3.718   7.992 -0.3952  0.7749 -1.8015
 2006TIP3   OH227652   4.960   3.812   2.432  0.5848 -0.1814  0.2622
 2006TIP3    H127653   4.929   3.756   2.360  0.0069 -0.9195  1.0643
 2006TIP3    H227654   4.899   3.794   2.504  0.9375  0.8210  0.8221
 2007TIP3   OH227655   4.498   1.588   7.580  0.2152 -0.6801  0.3765
 2007TIP3    H127656   4.496   1.549   7.667 -0.4218 -1.0561  0.1935
 2007TIP3    H227657   4.586   1.569   7.547  1.0424  0.8354  1.5466
 2008TIP3   OH227658   1.527   6.092   0.573  0.5557  0.1675  0.4270
 2008TIP3    H127659   1.502   6.069   0.662 -1.2186 -1.8495 -0.5108
 2008TIP3    H227660   1.606   6.040   0.555  1.2949  1.0608  0.9865
 2009TIP3   OH227661   3.820   1.339   7.577  0.0026  0.5779 -0.4525
 2009TIP3    H127662   3.809   1.434   7.570 -0.2672  0.6406  0.6491
 2009TIP3    H227663   3.861   1.326   7.662 -2.2490 -0.4396  0.5678
 2010TIP3   OH227664   4.724   6.128   1.047  0.2228  0.5348 -0.6822
 2010TIP3    H127665   4.635   6.120   1.012 -0.2326  2.0389  0.0333
 2010TIP3    H227666   4.760   6.204   1.002  0.9852  0.2290 -0.6017
 2011TIP3   OH227667   4.018   3.043   1.917  0.5290 -0.3820 -0.0805
 2011TIP3    H127668   3.946   3.088   1.960  1.1146 -0.6441  1.2514
 2011TIP3    H227669   4.091   3.051   1.980  1.5309 -0.4708 -1.2023
 2012TIP3   OH227670   2.323   5.002   0.923  0.4802  0.5534  0.0489
 2012TIP3    H127671   2.375   4.923   0.910  0.1457 -0.1311  2.3078
 2012TIP3    H227672   2.245   4.989   0.869 -0.5595 -1.7359  1.8974
 2013TIP3   OH227673   5.106   2.421   0.136  0.3912 -0.1164 -0.2748
 2013TIP3    H127674   5.161   2.498   0.149 -1.2413  0.6864  2.6688
 2013TIP3    H227675   5.019   2.457   0.120 -0.1436 -1.3811 -0.2860
 2014TIP3   OH227676   6.443   1.066   1.687  0.1698 -0.3798  0.3681
 2014TIP3    H127677   6.421   1.136   1.625  1.1687  0.3680  0.8277
 2014TIP3    H227678   6.381   1.078   1.759  0.9094  0.6374  0.8689
 2015TIP3   OH227679   5.064   1.742   0.085 -0.2820 -0.7386 -0.6482
 2015TIP3    H127680   5.089   1.700   0.002  1.0000 -2.4149  0.5265
 2015TIP3    H227681   5.131   1.809   0.099 -0.9604  0.1039 -1.3388
 2016TIP3   OH227682   2.954   5.298   2.288 -0.7132  0.3889  0.6832
 2016TIP3    H127683   3.046   5.325   2.292  0.0113 -1.7586 -0.1514
 2016TIP3    H227684   2.948   5.248   2.207 -2.5763  0.2532  0.8728
 2017TIP3   OH227685   0.727   0.236   1.326  0.5225  0.4094 -1.0160
 2017TIP3    H127686   0.721   0.158   1.271  1.4177  0.0220 -0.5822
 2017TIP3    H227687   0.636   0.258   1.346  0.2639 -0.6411 -0.9947
 2018TIP3   OH227688   1.833   0.592   1.332  0.0950  0.4668 -0.2343
 2018TIP3    H127689   1.862   0.671   1.286  0.7175  0.9566  0.9565
 2018TIP3    H227690   1.767   0.623   1.394  0.8058  0.1504  0.6885
 2019TIP3   OH227691   5.463   4.723   7.488  0.2637  0.7158  0.4977
 2019TIP3    H127692   5.462   4.682   7.575  0.8212  1.9082  1.1000
 2019TIP3    H227693   5.553   4.714   7.458 -0.4858 -2.1168 -1.2225
 2020TIP3   OH227694   3.591   0.072   0.477 -0.1818 -0.5787  0.1104
 2020TIP3    H127695   3.614   0.122   0.555 -0.8924  1.0708 -0.6855
 2020TIP3    H227696   3.663   0.010   0.466  1.8968  1.7308 -0.0726
 2021TIP3   OH227697   3.293   5.930   1.755  0.6494  0.1383 -0.3634
 2021TIP3    H127698   3.241   5.851   1.771 -0.6025  1.2004  1.1193
 2021TIP3    H227699   3.349   5.907   1.681 -1.3658 -1.3514 -1.5433
 2022TIP3   OH227700   2.593   4.136   1.480  0.1915 -0.2627 -0.1664
 2022TIP3    H127701   2.651   4.066   1.452 -1.4943 -2.0661  0.6188
 2022TIP3    H227702   2.631   4.167   1.562  1.5174  0.5346 -1.0312
 2023TIP3   OH227703   5.618   5.158   1.699 -0.0589  0.4377 -0.5066
 2023TIP3    H127704   5.630   5.239   1.650  0.3604  0.5979 -0.1473
 2023TIP3    H227705   5.523   5.151   1.711 -0.2532 -0.0601 -2.0744
 2024TIP3   OH227706   4.481   2.821   7.229 -0.1576  0.1509  0.0410
 2024TIP3    H127707   4.459   2.862   7.145 -1.1592  0.1652  0.2872
 2024TIP3    H227708   4.456   2.887   7.295  2.4607  0.9656  0.3353
 2025TIP3   OH227709   0.526   3.403   1.139 -0.6192 -0.1695  0.4806
 2025TIP3    H127710   0.509   3.342   1.211 -1.2089 -1.8576 -1.0189
 2025TIP3    H227711   0.536   3.348   1.062  0.3090  1.5661 -0.7134
 2026TIP3   OH227712   6.705   2.028   8.363 -0.7858  0.1336  0.4788
 2026TIP3    H127713   6.674   2.001   8.450 -2.1610 -0.9661 -0.3166
 2026TIP3    H227714   6.785   1.977   8.349 -1.0783 -0.3877  0.7063
 2027TIP3   OH227715   3.637   5.198   8.542 -0.2031  0.3273  0.4333
 2027TIP3    H127716   3.586   5.276   8.564 -1.2145 -0.2604  0.2519
 2027TIP3    H227717   3.594   5.163   8.464 -0.1930 -0.7817  0.9043
 2028TIP3   OH227718   5.177   2.508   6.259  0.2091 -0.7712  0.3337
 2028TIP3    H127719   5.150   2.570   6.191 -0.5740 -0.7099  0.6851
 2028TIP3    H227720   5.272   2.512   6.258  0.1841  0.0618  0.0031
 2029TIP3   OH227721   5.364   5.160   7.118 -0.0617  0.2910  0.2216
 2029TIP3    H127722   5.437   5.100   7.103 -0.0852  0.1426  0.6717
 2029TIP3    H227723   5.406   5.242   7.146 -0.0719  0.1596  0.6259
 2030TIP3   OH227724   0.324   3.474   8.479 -0.0480 -0.7183  0.3208
 2030TIP3    H127725   0.236   3.483   8.443 -1.1692 -0.0893  2.9541
 2030TIP3    H227726   0.339   3.379   8.483 -1.0210 -0.8632  0.7377
 2031TIP3   OH227727   4.351   4.895   7.385  0.3670  0.3450 -0.2797
 2031TIP3    H127728   4.391   4.849   7.311 -0.3516 -0.2541 -0.3105
 2031TIP3    H227729   4.328   4.981   7.351 -0.3999 -0.0940 -0.9155
 2032TIP3   OH227730   2.498   5.825   7.917  0.2483  0.2306  0.0024
 2032TIP3    H127731   2.441   5.770   7.863  1.1971 -1.3154  0.5188
 2032TIP3    H227732   2.524   5.897   7.859 -1.2584  0.3221 -0.5967
 2033TIP3   OH227733   2.872   3.604   7.204  0.1563  0.2449 -0.4655
 2033TIP3    H127734   2.786   3.617   7.244  0.8442 -0.3822  1.3669
 2033TIP3    H227735   2.865   3.641   7.117 -1.4217  1.8681  0.2999
 2034TIP3   OH227736   4.796   1.253   8.138 -0.4328  0.4472 -0.1542
 2034TIP3    H127737   4.806   1.225   8.047  1.2413 -1.8257  0.6103
 2034TIP3    H227738   4.885   1.249   8.174 -1.0328  1.3760  1.5680
 2035TIP3   OH227739   6.082   2.943   0.420  0.0855 -0.4685  0.0016
 2035TIP3    H127740   6.069   3.018   0.361  1.0751 -0.1306  0.1983
 2035TIP3    H227741   6.035   2.968   0.500 -1.2244 -0.9098 -0.5936
 2036TIP3   OH227742   2.850   5.028   1.321 -0.2581  0.3469  0.0905
 2036TIP3    H127743   2.901   5.066   1.392 -1.1314  2.3111 -0.2590
 2036TIP3    H227744   2.760   5.027   1.354 -0.3052 -1.1572 -0.0473
 2037TIP3   OH227745   0.907   1.800   7.865 -0.4158  0.3043 -0.4473
 2037TIP3    H127746   0.843   1.801   7.936 -1.3727  0.2777 -1.2885
 2037TIP3    H227747   0.947   1.886   7.867  1.4899 -0.5287  1.7926
 2038TIP3   OH227748   6.113   6.426   8.075 -0.1219  0.1741 -0.1850
 2038TIP3    H127749   6.076   6.467   8.153  1.6700  0.7573  0.4045
 2038TIP3    H227750   6.047   6.440   8.007 -1.5968 -0.1028  1.1432
 2039TIP3   OH227751   2.720   4.989   7.924 -0.1015  0.0262  0.5199
 2039TIP3    H127752   2.774   5.043   7.982 -0.4894 -0.1474  1.0507
 2039TIP3    H227753   2.637   5.036   7.918 -0.1563 -0.0952  0.3176
 2040TIP3   OH227754   4.304   3.065   7.400 -0.3239  0.6925 -0.3394
 2040TIP3    H127755   4.371   3.116   7.446 -0.4236  0.1102  0.4750
 2040TIP3    H227756   4.256   3.130   7.348  0.7930  1.1366 -0.8596
 2041TIP3   OH227757   3.597   1.740   7.306  0.3086 -0.3948 -0.2850
 2041TIP3    H127758   3.609   1.737   7.401  1.5842 -0.1629 -0.4204
 2041TIP3    H227759   3.652   1.669   7.272  0.7844  0.2678 -0.9253
 2042TIP3   OH227760   6.822   5.270   8.469 -0.3997 -0.1283 -0.0157
 2042TIP3    H127761   6.893   5.233   8.416 -0.3802 -1.1367  0.6891
 2042TIP3    H227762   6.762   5.309   8.406 -0.7579 -1.9368 -0.8614
 2043TIP3   OH227763   3.014   0.299   1.869 -0.8296 -0.3612 -0.2300
 2043TIP3    H127764   3.067   0.339   1.938 -0.9546 -1.4061  0.5007
 2043TIP3    H227765   3.041   0.344   1.789 -1.5969  1.7863  0.6441
 2044TIP3   OH227766   1.192   3.253   7.058  0.0762 -0.7354 -0.7170
 2044TIP3    H127767   1.120   3.291   7.008  0.2929  1.8429  0.7540
 2044TIP3    H227768   1.197   3.162   7.027 -1.2538  0.0563 -3.6380
 2045TIP3   OH227769   1.075   5.489   0.535 -0.4549 -0.0113 -0.1591
 2045TIP3    H127770   1.065   5.421   0.469  2.4814 -0.8092  0.0613
 2045TIP3    H227771   1.059   5.571   0.489  1.3123 -0.5642 -1.8724
 2046TIP3   OH227772   4.826   1.374   2.194 -0.8001  0.2490  0.1970
 2046TIP3    H127773   4.839   1.279   2.191  1.6945  0.4061  2.1587
 2046TIP3    H227774   4.734   1.385   2.216 -0.4998 -1.9214  3.3516
 2047TIP3   OH227775   0.075   0.050   7.859 -0.5949 -0.1557 -0.5438
 2047TIP3    H127776   0.010   0.105   7.816  0.1657 -0.4196 -2.0859
 2047TIP3    H227777   0.040  -0.039   7.852  0.8628 -0.6035 -3.3511
 2048TIP3   OH227778   0.549   6.482   8.418 -0.0362  0.2480 -0.1228
 2048TIP3    H127779   0.468   6.516   8.455 -0.7376 -0.6514 -0.7946
 2048TIP3    H227780   0.539   6.491   8.323  1.1118  1.1253 -0.1918
 2049TIP3   OH227781   3.434   5.349   7.731 -0.0811 -0.6976  0.3867
 2049TIP3    H127782   3.460   5.439   7.754 -1.5027  0.6001 -2.5133
 2049TIP3    H227783   3.472   5.295   7.800  1.0666  2.0834  2.1364
 2050TIP3   OH227784   3.407   2.287   1.841 -0.3520  0.0011 -0.5624
 2050TIP3    H127785   3.457   2.209   1.863 -2.5805 -1.1583  0.7684
 2050TIP3    H227786   3.411   2.291   1.745 -0.7148 -2.1963 -0.7420
 2051TIP3   OH227787   4.797   2.948   7.990 -0.2305  0.5643  0.2330
 2051TIP3    H127788   4.702   2.961   7.991 -0.5809 -1.6638  1.0593
 2051TIP3    H227789   4.828   2.984   8.073 -0.1693  2.1711 -0.4482
 2052TIP3   OH227790   5.160   3.180   1.593  0.2271  0.4556  0.0409
 2052TIP3    H127791   5.245   3.207   1.558  1.2458 -1.4865  0.9006
 2052TIP3    H227792   5.147   3.092   1.558 -1.2241  0.5309  0.3339
 2053TIP3   OH227793   5.897   6.460   1.474 -0.4589 -0.0521  0.0898
 2053TIP3    H127794   5.814   6.477   1.429 -0.0099 -1.1708 -1.2474
 2053TIP3    H227795   5.942   6.544   1.474 -1.3955  0.4584  0.4087
 2054TIP3   OH227796   6.692   0.007   1.444  0.4918 -0.5112 -0.1749
 2054TIP3    H127797   6.612   0.056   1.462  0.3152  0.0890 -2.2949
 2054TIP3    H227798   6.662  -0.084   1.432  0.4201 -0.6435  0.9364
 2055TIP3   OH227799   2.800   5.981   7.000 -0.8391  0.1714 -0.2131
 2055TIP3    H127800   2.726   5.997   7.058 -0.9761 -0.9967 -0.0455
 2055TIP3    H227801   2.768   5.916   6.938  0.1850 -0.6974  0.1414
 2056TIP3   OH227802   4.153   3.004   6.821  0.5334  0.0415 -0.2557
 2056TIP3    H127803   4.091   2.968   6.757 -0.4133  1.3417 -0.0946
 2056TIP3    H227804   4.106   3.001   6.904  1.0126  0.2510  0.0265
 2057TIP3   OH227805   0.439   0.719   1.626 -0.0582  0.2925 -0.0650
 2057TIP3    H127806   0.445   0.701   1.532 -0.7650  0.7413 -0.2002
 2057TIP3    H227807   0.447   0.633   1.667  0.4362  0.1128 -0.5222
 2058TIP3   OH227808   3.112   1.390   0.513  0.2969  0.5865  0.5243
 2058TIP3    H127809   3.141   1.481   0.504 -1.2846  1.0167 -0.5756
 2058TIP3    H227810   3.142   1.347   0.432 -0.0352  0.4387  0.4779
 2059TIP3   OH227811   1.148   6.227   8.078 -0.4424  0.0893 -0.2658
 2059TIP3    H127812   1.091   6.231   8.154  0.0363  2.0257  0.0392
 2059TIP3    H227813   1.170   6.318   8.059  1.6638 -0.5137 -1.0417
 2060TIP3   OH227814   6.822   5.492   0.120 -0.0162  0.4528  0.6144
 2060TIP3    H127815   6.903   5.448   0.143 -0.8962 -1.1208  0.8670
 2060TIP3    H227816   6.772   5.495   0.201 -0.2858  1.2214  0.4243
 2061TIP3   OH227817   0.213   0.141   1.729  0.4289 -0.1638  0.6452
 2061TIP3    H127818   0.214   0.176   1.640  1.9633 -1.7157 -0.0140
 2061TIP3    H227819   0.134   0.087   1.733 -0.7367  1.4924  0.9386
 2062TIP3   OH227820   1.696   4.542   0.452  0.3930 -0.0780  0.0297
 2062TIP3    H127821   1.647   4.580   0.378  0.5521 -0.9771 -0.5587
 2062TIP3    H227822   1.651   4.459   0.470  0.3658  0.1302  0.9429
 2063TIP3   OH227823   3.210   0.022   8.275  0.1889 -0.1759  0.6506
 2063TIP3    H127824   3.245   0.087   8.213  0.8787 -0.6421  0.5416
 2063TIP3    H227825   3.273   0.022   8.347  0.5581 -1.2079  0.3406
 2064TIP3   OH227826   4.674   3.273   7.047 -0.0196  0.3018  0.3657
 2064TIP3    H127827   4.720   3.311   6.973  0.9314 -1.6478 -0.1063
 2064TIP3    H227828   4.743   3.254   7.111 -0.7561  1.4299  1.5691
 2065TIP3   OH227829   3.968   6.299   1.088 -0.2220  0.0916 -0.1306
 2065TIP3    H127830   3.973   6.251   1.171 -0.6921 -1.1359 -0.7892
 2065TIP3    H227831   4.018   6.246   1.026 -0.1490  0.8319 -0.7238
 2066TIP3   OH227832   5.465   3.136   0.345 -0.3244  0.0262  0.2549
 2066TIP3    H127833   5.432   3.150   0.256 -0.9317  1.9920  0.7373
 2066TIP3    H227834   5.547   3.185   0.349 -0.0572 -0.4450  0.6316
 2067TIP3   OH227835   4.982   1.114   1.665  0.1951  0.0627 -0.2493
 2067TIP3    H127836   5.048   1.114   1.596  1.0088 -0.2151  0.5082
 2067TIP3    H227837   4.914   1.174   1.634  0.3820 -0.3216 -1.4357
 2068TIP3   OH227838   3.792   6.337   8.251 -0.1591  0.4752 -0.2922
 2068TIP3    H127839   3.796   6.250   8.213  0.2586 -0.3077  1.4512
 2068TIP3    H227840   3.740   6.388   8.189 -1.1619 -1.2368 -0.9348
 2069TIP3   OH227841   6.067   3.812   1.830  0.0896 -0.0817 -0.2553
 2069TIP3    H127842   6.005   3.860   1.775 -2.7027 -3.3898 -0.3066
 2069TIP3    H227843   6.040   3.832   1.920  1.1313  0.9896 -0.1478
 2070TIP3   OH227844   0.451   0.491   8.024 -0.2022 -0.6887 -0.3650
 2070TIP3    H127845   0.452   0.477   8.119 -1.3044 -1.1441 -0.3952
 2070TIP3    H227846   0.450   0.586   8.013  3.5863 -0.4645 -0.0477
 2071TIP3   OH227847   4.934   3.086   0.400 -0.9602 -0.7379  0.8666
 2071TIP3    H127848   5.017   3.039   0.388 -1.4589 -2.0273  2.2115
 2071TIP3    H227849   4.959   3.178   0.410  0.1788 -0.9245 -0.0428
 2072TIP3   OH227850   2.050   2.002   0.567 -0.2952 -0.0906 -0.3573
 2072TIP3    H127851   1.992   2.061   0.615 -1.0303 -0.6359 -0.5499
 2072TIP3    H227852   2.025   2.013   0.475  0.9401  0.7704 -0.6127
 2073TIP3   OH227853   6.577   4.429   7.130  0.1327  0.6118  0.6725
 2073TIP3    H127854   6.511   4.492   7.160 -0.9479  0.0076 -0.3163
 2073TIP3    H227855   6.600   4.458   7.042 -0.0978 -0.1374  0.3516
 2074TIP3   OH227856   2.406   0.292   8.465 -0.0270 -0.2882 -0.3647
 2074TIP3    H127857   2.369   0.381   8.465  0.9699  0.1333 -1.0176
 2074TIP3    H227858   2.334   0.237   8.497 -0.3352  0.8809  1.0986
 2075TIP3   OH227859   6.697   3.041   1.560 -0.2224 -0.2311  0.2636
 2075TIP3    H127860   6.659   2.954   1.560 -1.0044  0.0618  2.1726
 2075TIP3    H227861   6.784   3.029   1.599  0.2381 -0.3395 -0.7561
 2076TIP3   OH227862   2.787   6.460   0.346  0.2271 -0.3482 -0.0023
 2076TIP3    H127863   2.711   6.450   0.403  2.2734 -0.0900  2.9591
 2076TIP3    H227864   2.786   6.553   0.322 -0.6819 -0.4716 -0.5011
 2077TIP3   OH227865   1.862   0.823   0.697 -0.2644 -0.2326 -0.1806
 2077TIP3    H127866   1.770   0.803   0.715 -0.0866  1.0086  2.5920
 2077TIP3    H227867   1.865   0.918   0.693  0.7350 -0.2886 -1.6990
 2078TIP3   OH227868   1.748   3.913   2.366 -0.2400  0.5743 -0.6159
 2078TIP3    H127869   1.736   3.979   2.298  0.4972  0.3866 -0.9366
 2078TIP3    H227870   1.665   3.866   2.370 -0.3226  0.6591 -1.3153
 2079TIP3   OH227871   6.691   2.100   0.332  0.2385  0.4590  0.4398
 2079TIP3    H127872   6.621   2.034   0.329  1.3384 -0.7400  0.2391
 2079TIP3    H227873   6.691   2.138   0.245  0.5269 -0.3017  0.0947
 2080TIP3   OH227874   2.691   5.416   1.302 -0.5008  0.0695 -0.3805
 2080TIP3    H127875   2.782   5.404   1.326 -0.9153  0.0914  1.3373
 2080TIP3    H227876   2.671   5.344   1.242  0.2427 -0.7650  0.3729
 2081TIP3   OH227877   3.935   4.840   1.909 -0.0912 -0.1637  0.1710
 2081TIP3    H127878   4.030   4.831   1.913  0.0027  0.9266  0.6275
 2081TIP3    H227879   3.916   4.918   1.961 -1.0038  1.0736 -1.9202
 2082TIP3   OH227880   4.458   1.811   6.823 -0.1553  0.4238  0.1624
 2082TIP3    H127881   4.404   1.741   6.859 -0.4609 -0.1278 -1.2708
 2082TIP3    H227882   4.529   1.766   6.778 -1.1498  0.9018 -2.0354
 2083TIP3   OH227883   1.651   4.470   0.190 -0.5384 -0.1193 -0.0485
 2083TIP3    H127884   1.584   4.515   0.139 -1.3273 -2.8510 -1.6514
 2083TIP3    H227885   1.732   4.487   0.143 -1.2330 -2.4780 -2.3700
 2084TIP3   OH227886   6.420   6.529   0.527  0.6551 -0.1947 -0.0662
 2084TIP3    H127887   6.420   6.623   0.546  1.9411 -0.4637  1.5361
 2084TIP3    H227888   6.432   6.524   0.433 -0.3334  1.2445 -0.3131
 2085TIP3   OH227889   3.004   1.375   0.151 -0.5685 -0.1122 -0.0391
 2085TIP3    H127890   3.047   1.414   0.075 -0.3201  1.0928  0.6842
 2085TIP3    H227891   2.914   1.408   0.147 -0.4997  0.1219  0.2905
 2086TIP3   OH227892   6.899   4.783   0.715  0.2760  0.0693 -0.5412
 2086TIP3    H127893   6.892   4.688   0.712  0.0477  0.0575  0.1676
 2086TIP3    H227894   6.828   4.814   0.659 -1.3661 -0.1517  1.3212
 2087TIP3   OH227895   4.322   0.770   7.736 -0.0074 -0.0681  0.9364
 2087TIP3    H127896   4.403   0.764   7.786  0.6208 -2.3028 -0.1896
 2087TIP3    H227897   4.341   0.832   7.666 -1.0105  3.3705  3.4637
 2088TIP3   OH227898   2.738   4.745   0.654 -0.1707 -0.7465  0.4866
 2088TIP3    H127899   2.758   4.804   0.726 -0.6642 -0.0147  0.0337
 2088TIP3    H227900   2.666   4.691   0.685  1.8084 -2.8044  1.8066
 2089TIP3   OH227901   3.209   4.390   6.158 -1.1972 -0.0425 -0.1875
 2089TIP3    H127902   3.229   4.300   6.132 -0.7657 -0.7280  2.2331
 2089TIP3    H227903   3.118   4.404   6.132 -1.0106 -0.8837 -1.3152
 2090TIP3   OH227904   2.007   5.055   1.736 -0.1255  0.3179  0.0554
 2090TIP3    H127905   2.045   5.059   1.824  0.4178  0.9620 -0.2017
 2090TIP3    H227906   1.963   5.139   1.725 -0.8313 -0.0544 -0.0112
 2091TIP3   OH227907   5.172   0.797   7.806 -0.0779  0.3716  0.3801
 2091TIP3    H127908   5.149   0.705   7.793  0.0760  0.1107  1.7987
 2091TIP3    H227909   5.087   0.842   7.807 -0.1746  0.2053  0.0204
 2092TIP3   OH227910   2.528   2.432   7.856  0.0834  0.1675 -0.1549
 2092TIP3    H127911   2.505   2.404   7.945  1.0685 -1.5098 -0.3819
 2092TIP3    H227912   2.447   2.470   7.822 -0.1476  1.4341  1.6400
 2093TIP3   OH227913   0.533   1.554   0.450 -0.3016 -0.0983  0.4221
 2093TIP3    H127914   0.545   1.628   0.391 -2.9680  3.2688  3.5417
 2093TIP3    H227915   0.620   1.536   0.484  0.4900  1.4882 -0.6271
 2094TIP3   OH227916   5.791   1.372   2.495  0.8020  0.1036 -0.3780
 2094TIP3    H127917   5.850   1.350   2.424 -0.1962  0.2236 -1.2768
 2094TIP3    H227918   5.826   1.453   2.532  0.7125  0.6640 -1.4827
 2095TIP3   OH227919   3.268   2.977   7.080 -0.3501 -0.1538 -0.6079
 2095TIP3    H127920   3.210   3.018   7.016 -0.6016 -0.9773 -0.9177
 2095TIP3    H227921   3.271   3.039   7.153 -1.7276 -0.1556 -0.5303
 2096TIP3   OH227922   2.680   0.515   7.288  0.1891 -0.4281  0.3280
 2096TIP3    H127923   2.757   0.482   7.334  0.4708 -0.3899 -0.1005
 2096TIP3    H227924   2.619   0.441   7.286  1.5013 -1.5654 -2.1489
 2097TIP3   OH227925   3.724   1.801   1.792 -0.1147 -0.3395 -0.4520
 2097TIP3    H127926   3.656   1.800   1.860 -0.7599 -0.0452 -1.0859
 2097TIP3    H227927   3.742   1.708   1.776 -0.3211 -0.4200 -0.2359
 2098TIP3   OH227928   2.467   1.275   0.378  0.2606  0.2834 -0.0747
 2098TIP3    H127929   2.422   1.246   0.458  1.1960 -0.2675  0.2621
 2098TIP3    H227930   2.396   1.298   0.318 -0.4556  0.5920  0.8687
 2099TIP3   OH227931   2.154   4.132   1.327  0.1803  1.0654  0.1024
 2099TIP3    H127932   2.117   4.048   1.354  1.0513  1.0035  1.1457
 2099TIP3    H227933   2.105   4.155   1.248 -1.1735  0.3600  0.7039
 2100TIP3   OH227934   1.822   4.907   6.593 -0.0077  0.0479 -0.6815
 2100TIP3    H127935   1.874   4.968   6.541  0.5762 -0.4462 -0.6949
 2100TIP3    H227936   1.743   4.891   6.541 -0.4747  1.2739 -0.3856
 2101TIP3   OH227937   0.797   4.753   1.288  0.5599 -0.0323 -0.0326
 2101TIP3    H127938   0.703   4.746   1.269  0.8163 -0.3234 -1.2121
 2101TIP3    H227939   0.834   4.669   1.261  0.9299 -0.5888  1.9873
 2102TIP3   OH227940   5.782   4.657   2.692 -0.2140 -0.3528 -0.9731
 2102TIP3    H127941   5.776   4.568   2.728  0.8003 -0.5416 -1.2482
 2102TIP3    H227942   5.730   4.653   2.612 -0.3204 -0.6541 -0.8931
 2103TIP3   OH227943   4.878   4.525   2.647  0.1426 -0.0895 -0.2693
 2103TIP3    H127944   4.918   4.498   2.730 -0.3120 -2.6510 -0.8005
 2103TIP3    H227945   4.913   4.612   2.631  0.2868  0.4823  2.5815
 2104TIP3   OH227946   0.990   0.247   2.342 -0.3254  0.3596 -0.2250
 2104TIP3    H127947   0.975   0.190   2.266 -0.0677  1.2149 -0.9282
 2104TIP3    H227948   1.011   0.332   2.304  0.9411  0.5185  0.7900
 2105TIP3   OH227949   5.925   5.552   0.872 -0.0625  0.1522 -0.2540
 2105TIP3    H127950   5.917   5.544   0.777 -1.9295 -1.9689  0.0019
 2105TIP3    H227951   6.018   5.540   0.889  0.1829 -0.3236 -1.7529
 2106TIP3   OH227952   2.509   1.428   1.197  0.1191 -0.0353 -0.5979
 2106TIP3    H127953   2.445   1.431   1.126 -0.2962 -0.4270 -0.2470
 2106TIP3    H227954   2.466   1.474   1.270  0.1292 -0.5297 -0.2771
 2107TIP3   OH227955   0.586   4.289   7.095 -0.6472 -0.0977 -0.6320
 2107TIP3    H127956   0.561   4.301   7.003 -1.8030  0.5152 -0.2691
 2107TIP3    H227957   0.607   4.377   7.126 -0.6109 -0.2484 -0.2183
 2108TIP3   OH227958   3.299   5.422   0.711 -0.3566 -0.4027 -0.6241
 2108TIP3    H127959   3.331   5.386   0.628  2.5477 -0.5630  0.4706
 2108TIP3    H227960   3.326   5.358   0.777 -0.6649  0.7716  0.6721
 2109TIP3   OH227961   6.575   5.354   0.182  0.3766  0.0030 -0.1469
 2109TIP3    H127962   6.648   5.342   0.121 -0.1176  0.3256 -0.8147
 2109TIP3    H227963   6.497   5.347   0.128 -0.1384 -1.2571  0.7131
 2110TIP3   OH227964   0.914   3.556   7.698 -0.3880  0.3409  0.4914
 2110TIP3    H127965   0.894   3.519   7.784  3.1003 -0.8011  0.9594
 2110TIP3    H227966   0.981   3.498   7.662  1.3265  3.1443 -1.1622
 2111TIP3   OH227967   5.793   2.989   0.403 -0.1078 -0.3049  0.3271
 2111TIP3    H127968   5.867   2.948   0.358 -0.8092 -1.2534 -0.0171
 2111TIP3    H227969   5.809   2.973   0.496 -1.1002 -2.7987  0.1588
 2112TIP3   OH227970   6.934   5.725   0.402 -0.6418  0.1684  0.0900
 2112TIP3    H127971   7.010   5.779   0.382  0.0501 -0.6334  0.4855
 2112TIP3    H227972   6.859   5.779   0.377  0.0301  1.2151  0.2729
 2113TIP3   OH227973   1.190   2.336   7.255 -0.1513 -0.7542 -0.3139
 2113TIP3    H127974   1.212   2.302   7.342  1.2516 -1.1774 -0.8078
 2113TIP3    H227975   1.247   2.412   7.244  0.2054 -1.1390 -1.1572
 2114TIP3   OH227976   4.478   3.193   1.766  0.0322 -0.0562  0.2901
 2114TIP3    H127977   4.507   3.275   1.727 -0.5797 -0.1061 -0.2959
 2114TIP3    H227978   4.480   3.209   1.860  0.3989  0.4631  0.1980
 2115TIP3   OH227979   0.485   6.481   0.625 -0.3537 -0.1842 -0.1981
 2115TIP3    H127980   0.527   6.500   0.709 -0.5638  1.1972 -0.3763
 2115TIP3    H227981   0.490   6.564   0.577 -1.3929 -0.5889 -1.0431
 2116TIP3   OH227982   6.252   5.447   7.592 -0.5413 -0.6358 -0.2634
 2116TIP3    H127983   6.171   5.473   7.637 -0.4141  1.1707 -0.9895
 2116TIP3    H227984   6.319   5.506   7.626 -0.1445 -0.2002 -1.6970
 2117TIP3   OH227985   5.202   1.604   6.756  0.1623 -0.1817 -0.1940
 2117TIP3    H127986   5.134   1.661   6.719 -0.8141 -0.0360  1.7126
 2117TIP3    H227987   5.188   1.608   6.850  2.0525 -1.1578  0.1686
 2118TIP3   OH227988   4.985   3.779   8.062  0.0403 -0.5195 -0.6085
 2118TIP3    H127989   5.010   3.714   7.996  0.6714 -0.2554 -0.6315
 2118TIP3    H227990   5.030   3.859   8.036 -1.4475  0.1937 -1.0901
 2119TIP3   OH227991   4.364   0.845   6.817 -0.3332  0.4222 -0.7036
 2119TIP3    H127992   4.359   0.912   6.749 -3.1970  1.3331  0.2729
 2119TIP3    H227993   4.334   0.765   6.774  0.5189  0.3545 -1.1864
 2120TIP3   OH227994   2.686   4.193   1.018 -0.7521 -0.0834 -0.1405
 2120TIP3    H127995   2.629   4.213   1.092  0.1068 -1.1684  0.8523
 2120TIP3    H227996   2.771   4.231   1.043 -0.7191  0.4782 -1.0588
 2121TIP3   OH227997   6.177   1.477   8.567 -0.5715  0.1726  0.0418
 2121TIP3    H127998   6.162   1.400   8.621  2.0651 -0.8501 -0.4981
 2121TIP3    H227999   6.148   1.450   8.480 -0.6014  0.1504  0.0586
 2122TIP3   OH228000   1.035   0.228   0.819 -0.4923 -0.0331 -0.6861
 2122TIP3    H128001   1.042   0.324   0.819  1.1070 -0.1201 -0.6192
 2122TIP3    H228002   0.966   0.209   0.882  0.9369  0.9997  1.2969
 2123TIP3   OH228003   3.648   2.131   6.807 -0.3021  0.2723 -0.2724
 2123TIP3    H128004   3.699   2.075   6.866  0.8737 -2.5891 -3.6329
 2123TIP3    H228005   3.560   2.131   6.844  0.6107 -0.3342  2.0805
 2124TIP3   OH228006   2.245   5.928   7.417 -0.3064 -0.1783 -0.3806
 2124TIP3    H128007   2.293   5.876   7.481  0.2756 -0.2669 -0.8812
 2124TIP3    H228008   2.199   5.864   7.363 -0.7191 -0.1066 -0.1258
 2125TIP3   OH228009   2.908   5.123   1.051 -0.3004 -0.3228  0.1923
 2125TIP3    H128010   2.860   5.205   1.054  0.3118  0.0258  0.5467
 2125TIP3    H228011   2.908   5.092   1.142  1.3259  0.3801  0.4626
 2126TIP3   OH228012   6.086   5.919   7.992  0.5984 -0.1815 -0.3939
 2126TIP3    H128013   6.166   5.962   8.021  0.4535  0.2106 -0.5771
 2126TIP3    H228014   6.101   5.826   8.010 -0.0675  0.1441  2.4617
 2127TIP3   OH228015   4.840   2.543   0.463  0.2156 -0.0634  0.5636
 2127TIP3    H128016   4.877   2.611   0.518 -1.3499  2.0812 -0.8931
 2127TIP3    H228017   4.869   2.563   0.375 -2.0366  0.0832 -0.2201
 2128TIP3   OH228018   4.801   4.143   8.300  0.9155  0.0679 -0.0924
 2128TIP3    H128019   4.735   4.132   8.368  0.6605  0.0402 -0.3441
 2128TIP3    H228020   4.871   4.194   8.343  1.3208 -0.9987  0.5513
 2129TIP3   OH228021   4.917   2.427   1.794 -0.5207  0.4508 -0.2753
 2129TIP3    H128022   4.985   2.495   1.802 -0.3438  0.1708  0.7999
 2129TIP3    H228023   4.956   2.362   1.735 -1.0732  1.7023 -2.1135
 2130TIP3   OH228024   5.620   2.541   0.407  0.0821 -0.6711  0.3052
 2130TIP3    H128025   5.539   2.546   0.357  0.4415 -0.2041 -0.2385
 2130TIP3    H228026   5.689   2.560   0.343  0.4532  1.5457  1.2849
 2131TIP3   OH228027   0.278   4.850   7.096  1.3815  0.0719 -0.0193
 2131TIP3    H128028   0.196   4.812   7.065  2.0576 -0.9040 -0.7068
 2131TIP3    H228029   0.267   4.944   7.086  0.2904 -0.0407  0.0587
 2132TIP3   OH228030   4.654   3.980   6.308  0.0025  0.0226  0.1603
 2132TIP3    H128031   4.719   4.048   6.289 -0.6201 -0.0742 -2.9482
 2132TIP3    H228032   4.703   3.898   6.298 -0.0855 -0.0265  0.1321
 2133TIP3   OH228033   3.059   4.747   0.924 -0.3422 -0.5868  0.2559
 2133TIP3    H128034   3.051   4.775   1.015 -0.0529  0.0844  0.0862
 2133TIP3    H228035   3.074   4.653   0.929 -1.9886 -0.8562  0.8263
 2134TIP3   OH228036   5.051   4.210   8.382 -0.2619 -0.3067 -0.3529
 2134TIP3    H128037   5.113   4.146   8.415  0.4927  0.6377  0.1317
 2134TIP3    H228038   5.101   4.261   8.317 -0.4871  0.4989  0.0849
 2135TIP3   OH228039   4.449   4.820   2.067  0.0834 -0.5725  0.3461
 2135TIP3    H128040   4.524   4.855   2.115  1.9298 -0.2779 -2.5503
 2135TIP3    H228041   4.438   4.732   2.102  0.0276  0.2654  2.6437
 2136TIP3   OH228042   5.503   6.377   0.381 -0.0331  0.3614 -0.5284
 2136TIP3    H128043   5.587   6.376   0.426 -1.3139  2.2427  2.1970
 2136TIP3    H228044   5.513   6.441   0.311  1.0182 -0.0411 -0.7556
 2137TIP3   OH228045   0.403   2.635   0.015 -0.2872  0.2858 -0.1745
 2137TIP3    H128046   0.384   2.723   0.049 -1.1669 -0.0894  0.3545
 2137TIP3    H228047   0.463   2.598   0.080 -1.9744 -0.4333  1.0475
 2138TIP3   OH228048   6.603   6.872   1.115 -0.2819 -0.1768  0.0426
 2138TIP3    H128049   6.521   6.921   1.106 -1.2988 -1.8439 -0.1955
 2138TIP3    H228050   6.586   6.811   1.187  0.7118 -0.6068 -0.0725
 2139TIP3   OH228051   4.439   5.350   8.087  1.2065  0.3780  0.3783
 2139TIP3    H128052   4.381   5.351   8.163  0.7665  2.8731  0.0757
 2139TIP3    H228053   4.452   5.257   8.068 -0.6492 -0.2683  1.9878
 2140TIP3   OH228054   0.428   5.546   7.616 -0.0674 -0.0910 -0.1058
 2140TIP3    H128055   0.501   5.593   7.657  2.0694 -0.6816 -2.8962
 2140TIP3    H228056   0.361   5.612   7.602  0.4789  0.7936  1.2787
 2141TIP3   OH228057   4.167   1.630   8.242 -0.3999 -0.1122 -0.6143
 2141TIP3    H128058   4.104   1.564   8.212  0.0035 -0.5240 -0.5753
 2141TIP3    H228059   4.217   1.653   8.164  0.4004 -0.9071 -0.3567
 2142TIP3   OH228060   0.933   2.535   0.237  0.2550 -0.0598  0.4991
 2142TIP3    H128061   0.837   2.533   0.247  0.3486 -1.7571  1.2816
 2142TIP3    H228062   0.958   2.620   0.274 -0.8842  0.0932  0.9752
 2143TIP3   OH228063   0.297   5.242   0.040  0.2625 -0.0909 -1.0687
 2143TIP3    H128064   0.270   5.164  -0.008 -2.3338  0.9725 -1.4724
 2143TIP3    H228065   0.314   5.210   0.129  2.0092 -1.5292 -1.8490
 2144TIP3   OH228066   4.587   0.167   8.178  0.1314 -0.3801  0.0538
 2144TIP3    H128067   4.626   0.123   8.254  1.7854  0.6439 -0.1375
 2144TIP3    H228068   4.647   0.240   8.161 -0.8132  0.0420 -1.5698
 2145TIP3   OH228069   5.727   0.714   2.357  0.0011 -0.0087  0.5406
 2145TIP3    H128070   5.679   0.641   2.320 -1.9714  0.1917  2.5205
 2145TIP3    H228071   5.660   0.778   2.380  1.6672  2.9190 -1.9092
 2146TIP3   OH228072   5.993   2.382   7.611  0.2895  0.0036 -0.0601
 2146TIP3    H128073   6.042   2.434   7.548  1.3646 -0.6777  0.1948
 2146TIP3    H228074   6.050   2.307   7.631 -0.9696 -0.9869 -0.0004
 2147TIP3   OH228075   2.982   2.679   1.830 -0.4366 -0.0279  0.3527
 2147TIP3    H128076   2.954   2.588   1.843 -3.0868  0.6568  0.0842
 2147TIP3    H228077   2.995   2.714   1.918 -0.3409 -0.4018  0.4882
 2148TIP3   OH228078   0.484   0.137   7.451 -0.8821  0.1477 -0.2345
 2148TIP3    H128079   0.390   0.143   7.438 -0.7726  0.0378 -1.0960
 2148TIP3    H228080   0.523   0.181   7.376 -0.2429  1.5115  0.8474
 2149TIP3   OH228081   3.733   4.407   8.261 -0.4144  0.7555  0.0534
 2149TIP3    H128082   3.795   4.337   8.281 -0.0184  0.3018 -2.4094
 2149TIP3    H228083   3.653   4.361   8.233 -0.8145  1.3131  0.2484
 2150TIP3   OH228084   3.359   2.034   7.516 -0.0776 -0.2872 -0.4737
 2150TIP3    H128085   3.278   2.026   7.567 -1.4653  2.0485 -2.0870
 2150TIP3    H228086   3.341   1.985   7.436  1.2851 -2.1728  0.3055
 2151TIP3   OH228087   5.289   4.907   7.604 -0.4196 -0.0829 -0.5424
 2151TIP3    H128088   5.212   4.879   7.554 -0.6440 -1.8662  0.6696
 2151TIP3    H228089   5.363   4.880   7.551 -0.6271 -3.2724  0.5356
 2152TIP3   OH228090   5.296   6.374   6.155 -0.1932  0.0058  0.2907
 2152TIP3    H128091   5.364   6.326   6.202 -0.3524  0.9316  1.5064
 2152TIP3    H228092   5.217   6.321   6.166 -0.1444  0.0256  0.7570
 2153TIP3   OH228093   6.790   0.745   7.586  0.1406  0.4246  0.0722
 2153TIP3    H128094   6.840   0.766   7.665 -1.6549 -0.2541  1.4650
 2153TIP3    H228095   6.842   0.781   7.514  1.5996  1.4977  1.5898
 2154TIP3   OH228096   3.418   5.241   0.880 -0.1415  0.2363  0.4853
 2154TIP3    H128097   3.364   5.244   0.959 -0.5496  1.6018  0.1799
 2154TIP3    H228098   3.475   5.165   0.893 -1.7088 -0.8849  1.0799
 2155TIP3   OH228099   3.185   0.308   1.336  0.1583 -0.2245 -0.2565
 2155TIP3    H128100   3.165   0.383   1.392  0.2417  0.4208 -1.0795
 2155TIP3    H228101   3.281   0.306   1.332  0.3536 -2.2864  2.2913
 2156TIP3   OH228102   5.063   3.474   6.989  0.0592 -0.2149 -0.2242
 2156TIP3    H128103   5.124   3.548   6.992 -0.3821  0.1621 -0.4805
 2156TIP3    H228104   5.035   3.469   6.898  1.2767 -1.6882 -0.5596
 2157TIP3   OH228105   4.616   1.956   7.896 -0.1941 -0.1681  0.2728
 2157TIP3    H128106   4.574   2.032   7.856 -0.2172 -0.6396 -0.6141
 2157TIP3    H228107   4.555   1.930   7.965  0.3014  1.2190  1.2880
 2158TIP3   OH228108   5.861   5.290   0.375 -0.3150  0.2466  0.4787
 2158TIP3    H128109   5.773   5.303   0.338  0.1729  0.6358 -0.5962
 2158TIP3    H228110   5.918   5.282   0.298  0.8746  1.9357  1.1230
 2159TIP3   OH228111   5.384   4.105   0.209 -0.6705  0.4842  0.5559
 2159TIP3    H128112   5.345   4.173   0.154  0.5989  0.0241 -0.9944
 2159TIP3    H228113   5.392   4.029   0.151 -0.1170 -0.3248  1.6467
 2160TIP3   OH228114   2.795   3.585   1.782 -0.2231 -0.5208  0.0919
 2160TIP3    H128115   2.752   3.553   1.861 -0.1435 -0.7787  0.0326
 2160TIP3    H228116   2.743   3.660   1.755 -0.7053 -0.9005 -0.0447
 2161TIP3   OH228117   1.829   5.523   6.520 -0.6484 -0.0982  0.5526
 2161TIP3    H128118   1.915   5.565   6.515 -0.3412 -0.6496  1.0422
 2161TIP3    H228119   1.769   5.595   6.538 -0.2564  0.2644  0.4320
 2162TIP3   OH228120   4.963   1.747   7.312  0.4428 -0.0458 -0.3164
 2162TIP3    H128121   5.059   1.747   7.313  0.4481  1.0780 -0.2827
 2162TIP3    H228122   4.941   1.668   7.262  1.3821 -0.2733 -0.4041
 2163TIP3   OH228123   3.072   5.953   7.356  0.3975  0.1149 -0.2548
 2163TIP3    H128124   3.065   6.007   7.278 -0.4847  1.3276  0.6247
 2163TIP3    H228125   2.996   5.894   7.351 -0.0760  0.6896  0.0372
 2164TIP3   OH228126   6.404   6.925   2.071 -1.1025  0.1210  0.1165
 2164TIP3    H128127   6.401   6.999   2.010 -2.7451  0.5639  0.6972
 2164TIP3    H228128   6.479   6.945   2.128 -0.9497  0.8603 -0.3214
 2165TIP3   OH228129   5.757   0.073   7.774 -0.6586  0.1007 -0.5908
 2165TIP3    H128130   5.803   0.116   7.702 -0.1863  0.1623 -0.2592
 2165TIP3    H228131   5.802  -0.010   7.786 -1.1577 -0.2042 -0.8007
 2166TIP3   OH228132   0.275   1.725   2.196 -0.1115 -0.7454 -0.3468
 2166TIP3    H128133   0.260   1.631   2.195 -3.0499 -0.3631 -1.0412
 2166TIP3    H228134   0.263   1.751   2.288  2.5940 -1.1949  0.2259
 2167TIP3   OH228135   1.020   3.511   6.599 -0.1877  0.1100  0.1936
 2167TIP3    H128136   1.051   3.421   6.610  0.0887  0.2371  0.4629
 2167TIP3    H228137   0.950   3.520   6.664  0.5964  0.4647  1.0040
 2168TIP3   OH228138   5.538   4.239   8.245  0.3785 -0.5986  0.3393
 2168TIP3    H128139   5.534   4.291   8.164 -0.2866 -0.9772  0.1237
 2168TIP3    H228140   5.623   4.194   8.240  1.2726  0.9567  0.8479
 2169TIP3   OH228141   4.486   5.469   0.090 -0.4122  0.1648 -0.3509
 2169TIP3    H128142   4.451   5.533   0.028  0.8084  2.0778  0.8350
 2169TIP3    H228143   4.581   5.470   0.075 -0.2521 -0.4416  0.5359
 2170TIP3   OH228144   6.718   1.231   1.699 -0.1009  0.3210  0.6496
 2170TIP3    H128145   6.780   1.159   1.693  0.4872  0.8900 -0.4528
 2170TIP3    H228146   6.632   1.190   1.695  0.2228 -0.2693 -1.2816
 2171TIP3   OH228147   1.114   5.764   6.415 -0.4265  0.2243 -0.6865
 2171TIP3    H128148   1.153   5.851   6.408 -1.7451  0.8927 -0.0029
 2171TIP3    H228149   1.043   5.764   6.350 -0.4298 -0.3534 -0.6873
 2172TIP3   OH228150   3.322   4.468   6.883 -0.8054  0.3442 -0.5756
 2172TIP3    H128151   3.342   4.377   6.907 -2.1763  0.6577  2.0928
 2172TIP3    H228152   3.407   4.512   6.883 -0.4937 -0.0173  2.7085
 2173TIP3   OH228153   5.909   5.646   1.885 -0.8345 -0.2541  0.3079
 2173TIP3    H128154   5.840   5.603   1.936 -0.2279 -1.2915  0.2978
 2173TIP3    H228155   5.990   5.613   1.923 -0.3427  0.5864  0.0135
 2174TIP3   OH228156   1.223   3.998   8.145  0.0096 -0.5952  0.9619
 2174TIP3    H128157   1.230   4.055   8.222  0.8114  1.8671 -0.8095
 2174TIP3    H228158   1.143   3.947   8.160 -3.1877  3.8719  0.9574
 2175TIP3   OH228159   2.903   6.649   1.537  0.5756 -0.2955  0.2973
 2175TIP3    H128160   2.928   6.705   1.463 -0.2979 -0.0281  0.1979
 2175TIP3    H228161   2.971   6.665   1.603  0.5055  0.6437  0.1511
 2176TIP3   OH228162   5.242   3.572   1.849 -0.0311 -0.0584 -0.4627
 2176TIP3    H128163   5.152   3.552   1.823 -0.8705  2.0309  0.5539
 2176TIP3    H228164   5.245   3.668   1.853  2.6315 -0.0077 -1.6897
 2177TIP3   OH228165   4.572   1.642   1.500 -0.6529 -0.2836  0.3966
 2177TIP3    H128166   4.530   1.632   1.586 -0.4338  2.5482  0.9093
 2177TIP3    H228167   4.659   1.604   1.511 -0.0917  1.3461  1.9154
 2178TIP3   OH228168   5.792   1.980   0.198 -0.2893  0.1873  0.3513
 2178TIP3    H128169   5.778   1.972   0.292 -0.3497 -2.6048  0.1918
 2178TIP3    H228170   5.869   1.927   0.181  1.2637  2.6791 -0.9024
 2179TIP3   OH228171   1.917   1.951   2.666  0.2301  0.1976 -0.1433
 2179TIP3    H128172   1.856   1.928   2.596  0.5214  0.3141 -0.4422
 2179TIP3    H228173   1.865   2.006   2.725  0.0254  0.2444 -0.3610
 2180TIP3   OH228174   5.174   4.318   6.468  0.0110  0.0467  0.0928
 2180TIP3    H128175   5.196   4.261   6.394  0.9905  0.2435  0.2255
 2180TIP3    H228176   5.152   4.402   6.427 -2.5450 -0.6695 -0.1974
 2181TIP3   OH228177   2.063   3.430   1.278  0.1687 -0.0694  0.0975
 2181TIP3    H128178   2.048   3.432   1.373  2.7691  0.8194  0.5773
 2181TIP3    H228179   2.142   3.378   1.268  0.3708  0.5077 -1.5012
 2182TIP3   OH228180   3.331   6.635   7.101 -0.5298 -0.2435  0.0144
 2182TIP3    H128181   3.418   6.670   7.120 -0.2449 -1.2484  0.5977
 2182TIP3    H228182   3.317   6.567   7.166 -3.2754  2.2446  2.3731
 2183TIP3   OH228183   1.757   3.862   7.364  0.3435 -0.2403  0.0170
 2183TIP3    H128184   1.823   3.930   7.377 -1.2147  0.9185  2.4371
 2183TIP3    H228185   1.752   3.817   7.448 -2.5196  0.2927  0.2171
 2184TIP3   OH228186   4.583   1.186   1.043  0.6609 -0.4018  0.4302
 2184TIP3    H128187   4.523   1.238   1.097  0.2371 -1.5782  1.1489
 2184TIP3    H228188   4.670   1.221   1.062  0.3656  0.1852  0.7154
 2185TIP3   OH228189   0.478   4.547   2.451  0.1989 -0.1276  0.1179
 2185TIP3    H128190   0.479   4.643   2.454 -1.5221 -0.0540 -0.9403
 2185TIP3    H228191   0.523   4.526   2.369 -0.1172 -0.1881 -0.0411
 2186TIP3   OH228192   0.608   5.722   7.730  0.7193  0.0394 -0.4490
 2186TIP3    H128193   0.669   5.653   7.757  1.4050  1.2613  1.3647
 2186TIP3    H228194   0.634   5.744   7.641  1.8803 -0.5971 -0.2863
 2187TIP3   OH228195   4.088   1.902   1.430  0.1721 -0.1720 -0.1046
 2187TIP3    H128196   4.069   1.972   1.368 -0.0465 -0.3407 -0.2285
 2187TIP3    H228197   4.024   1.913   1.500  0.3794 -0.0186  0.0609
 2188TIP3   OH228198   0.142   4.423   1.830 -0.0450  0.1508 -0.1138
 2188TIP3    H128199   0.098   4.355   1.882 -1.3016 -0.6234 -2.0891
 2188TIP3    H228200   0.234   4.399   1.833 -0.1445 -0.1459  1.3281
 2189TIP3   OH228201   6.321   5.983   8.092 -0.3370  0.7236 -0.2214
 2189TIP3    H128202   6.302   6.077   8.086  1.1027  1.0400 -0.1114
 2189TIP3    H228203   6.416   5.978   8.095 -0.4229 -0.6674  1.2504
 2190TIP3   OH228204   1.764   3.010   7.874  0.1079 -0.0234 -0.1997
 2190TIP3    H128205   1.774   3.102   7.899 -0.0730 -0.0771  0.0701
 2190TIP3    H228206   1.669   2.997   7.870  0.1350 -0.1325 -0.4810
 2191TIP3   OH228207   5.447   0.836   0.675 -0.0829  0.0745  0.2879
 2191TIP3    H128208   5.531   0.811   0.714 -0.5642  0.0526  1.3505
 2191TIP3    H228209   5.411   0.901   0.736 -0.4589  0.7100 -0.5968
 2192TIP3   OH228210   0.553   4.743   1.747 -0.3729  0.4437 -0.4578
 2192TIP3    H128211   0.544   4.695   1.830  0.2936  0.1615 -0.5380
 2192TIP3    H228212   0.562   4.674   1.682 -0.7621  0.6696 -0.7536
 2193TIP3   OH228213   2.923   2.927   8.191  0.2986 -0.3506 -0.7406
 2193TIP3    H128214   2.934   2.936   8.096 -1.2708 -1.0055 -1.0248
 2193TIP3    H228215   2.871   2.848   8.201  3.5223 -2.4475  0.9301
 2194TIP3   OH228216   6.329   1.774   8.336  0.6066  0.4478  0.1527
 2194TIP3    H128217   6.331   1.731   8.250 -0.9974  3.3822 -1.5266
 2194TIP3    H228218   6.350   1.704   8.398  0.3390 -2.1827 -2.4756
 2195TIP3   OH228219   0.618   5.300   1.121 -0.2136 -0.0426  0.2390
 2195TIP3    H128220   0.561   5.331   1.051  1.9035 -0.7130 -1.9319
 2195TIP3    H228221   0.567   5.234   1.167 -1.5641  0.1640 -0.9168
 2196TIP3   OH228222   6.216   2.239   2.092 -0.2219  0.8507  0.1101
 2196TIP3    H128223   6.184   2.310   2.036 -0.4714 -0.1168 -1.0127
 2196TIP3    H228224   6.311   2.251   2.094  0.1707 -0.7670 -3.0082
 2197TIP3   OH228225   4.328   5.043   7.729 -0.0361 -0.0105 -0.3619
 2197TIP3    H128226   4.324   5.060   7.635  0.3993 -1.2105 -0.6174
 2197TIP3    H228227   4.394   4.974   7.738  0.2701  0.4227  0.8755
 2198TIP3   OH228228   5.842   2.919   2.653 -0.3893  0.1786  0.0856
 2198TIP3    H128229   5.895   2.993   2.683  0.1471 -0.2989  0.3325
 2198TIP3    H228230   5.891   2.883   2.579  0.7455 -1.5363  1.5773
 2199TIP3   OH228231   6.939   1.324   0.383  0.4746  0.3157 -0.1158
 2199TIP3    H128232   6.926   1.264   0.457  0.5259 -0.5703 -0.8128
 2199TIP3    H228233   6.930   1.411   0.421  0.2097 -0.1362  0.8813
 2200TIP3   OH228234   3.662   3.968   7.936 -0.7046 -0.1237 -0.2358
 2200TIP3    H128235   3.752   3.942   7.917 -1.3893 -2.2411 -0.8080
 2200TIP3    H228236   3.637   4.025   7.864  0.2863  0.8095  0.1381
 2201TIP3   OH228237   6.679   1.685   1.610 -0.3651  0.2413 -0.0538
 2201TIP3    H128238   6.736   1.734   1.551 -1.6923 -0.3505 -1.9152
 2201TIP3    H228239   6.679   1.736   1.692 -0.5414  2.5610 -1.4063
 2202TIP3   OH228240   6.740   3.771   8.434 -0.4775 -0.4016 -0.0610
 2202TIP3    H128241   6.834   3.755   8.437 -0.6093 -1.3865 -0.7463
 2202TIP3    H228242   6.705   3.698   8.384 -1.5918  0.0499  0.0338
 2203TIP3   OH228243   5.980   3.579   8.056 -0.0923 -0.2686  0.3499
 2203TIP3    H128244   5.906   3.635   8.034 -0.3789 -0.8448 -0.2019
 2203TIP3    H228245   6.041   3.591   7.983  0.3928  0.2593  0.8384
 2204TIP3   OH228246   1.532   3.459   7.621  0.3118  0.0740  0.4128
 2204TIP3    H128247   1.602   3.464   7.555  0.2305 -0.2526  0.2994
 2204TIP3    H228248   1.510   3.550   7.639  2.1300  0.2942  1.8993
 2205TIP3   OH228249   5.695   0.277   2.004  0.2515  0.0796 -0.1962
 2205TIP3    H128250   5.755   0.334   2.052 -1.0076  0.2709  1.1987
 2205TIP3    H228251   5.630   0.250   2.068 -0.4808 -1.1045 -1.3828
 2206TIP3   OH228252   6.621   3.928   7.772  0.0614 -0.0010  0.1148
 2206TIP3    H128253   6.547   3.933   7.711 -0.5806  1.6368  0.9568
 2206TIP3    H228254   6.645   4.019   7.787  1.5729 -0.4761  0.6978
 2207TIP3   OH228255   6.230   4.083   1.578  0.2852 -0.1622  0.0572
 2207TIP3    H128256   6.291   4.157   1.576  2.5552 -1.9067  0.6576
 2207TIP3    H228257   6.161   4.111   1.639  0.4421  1.8706 -0.6116
 2208TIP3   OH228258   4.954   4.380   7.066  0.0639 -0.3763  0.4416
 2208TIP3    H128259   4.984   4.457   7.018 -0.2452  0.3971  1.4785
 2208TIP3    H228260   4.866   4.364   7.033 -0.2827  0.3642  0.9850
 2209TIP3   OH228261   5.829   6.490   7.106 -0.2618  0.0811 -0.3072
 2209TIP3    H128262   5.903   6.481   7.046  0.6881  0.0903  0.8242
 2209TIP3    H228263   5.783   6.568   7.076  0.2827  0.1672 -0.9350
 2210TIP3   OH228264   6.054   0.456   7.057  0.3999  0.3629  0.0263
 2210TIP3    H128265   6.117   0.476   6.988 -0.0489  0.8547 -0.2499
 2210TIP3    H228266   6.089   0.500   7.135  1.1399 -0.5614  0.2429
 2211TIP3   OH228267   1.955   0.953   7.992 -0.5026  0.9152  0.3559
 2211TIP3    H128268   2.016   1.019   7.961  1.8366 -1.5377 -0.6118
 2211TIP3    H228269   1.933   0.901   7.915 -2.7086  0.8282  0.9722
 2212TIP3   OH228270   3.542   5.960   1.901 -0.5991 -0.2972 -0.1002
 2212TIP3    H128271   3.523   5.941   1.993 -1.9215  1.8581  0.1462
 2212TIP3    H228272   3.457   5.954   1.857 -0.1817 -0.1665 -0.9565
 2213TIP3   OH228273   1.873   6.932   0.665 -0.7408 -0.4087  0.2256
 2213TIP3    H128274   1.898   6.857   0.610 -1.3327  0.5799 -1.4442
 2213TIP3    H228275   1.956   6.974   0.686 -0.5473 -0.4663 -0.3996
 2214TIP3   OH228276   1.483   3.166   1.446 -0.3472 -0.4475 -0.5570
 2214TIP3    H128277   1.449   3.245   1.488 -0.6209 -1.0774  0.4539
 2214TIP3    H228278   1.464   3.178   1.353 -1.5611  0.1123 -0.2606
 2215TIP3   OH228279   5.638   3.262   8.526  0.4221  0.2379  0.1774
 2215TIP3    H128280   5.651   3.308   8.609 -2.7863 -1.8843  2.1205
 2215TIP3    H228281   5.567   3.310   8.483  1.3988  0.7451 -0.9108
 2216TIP3   OH228282   5.762   1.667   0.842  0.1921 -0.1742  0.9270
 2216TIP3    H128283   5.811   1.585   0.849 -0.3431 -0.6793 -0.7205
 2216TIP3    H228284   5.731   1.684   0.930 -0.1413 -2.0404  1.2155
 2217TIP3   OH228285   4.913   0.258   1.567 -0.0931 -0.4909  0.3352
 2217TIP3    H128286   4.885   0.217   1.649 -1.6151 -0.2944 -0.0566
 2217TIP3    H228287   4.873   0.204   1.499  1.0744 -0.5883 -0.2880
 2218TIP3   OH228288   2.268   6.686   7.917 -0.3114  0.2820  0.2629
 2218TIP3    H128289   2.198   6.689   7.982 -1.6945 -2.2341 -0.9421
 2218TIP3    H228290   2.291   6.593   7.910  1.2663  0.7188 -1.3190
 2219TIP3   OH228291   6.220   2.945   7.742  0.2829  0.1999 -0.1537
 2219TIP3    H128292   6.200   2.886   7.669  1.6242  0.7603 -1.0007
 2219TIP3    H228293   6.204   2.892   7.820 -0.6647 -0.5783 -0.8527
 2220TIP3   OH228294   1.449   2.698   1.681  0.6822 -0.0054 -0.0898
 2220TIP3    H128295   1.373   2.642   1.698  1.9428 -1.5375  0.7838
 2220TIP3    H228296   1.413   2.786   1.677 -1.1687 -0.6970  0.0801
 2221TIP3   OH228297   2.136   2.153   1.318 -0.2371 -0.2884 -0.0164
 2221TIP3    H128298   2.152   2.162   1.224  1.1311  0.5216  0.2569
 2221TIP3    H228299   2.223   2.134   1.355 -0.6119  0.1865  1.1626
 2222TIP3   OH228300   6.001   3.509   8.567  0.5169 -0.2527 -0.3418
 2222TIP3    H128301   6.037   3.593   8.539  2.2570 -0.5793  0.7714
 2222TIP3    H228302   5.965   3.470   8.487  1.1175  0.8568 -1.1803
 2223TIP3   OH228303   0.137   6.420   7.613 -0.2324  0.1793  0.7854
 2223TIP3    H128304   0.047   6.417   7.645 -0.6385  0.1754 -0.3330
 2223TIP3    H228305   0.148   6.338   7.565  0.1861  0.4483  0.4262
 2224TIP3   OH228306   4.081   6.854   6.718 -0.2856  0.6680  0.1517
 2224TIP3    H128307   4.161   6.819   6.678 -1.0350 -1.0722  0.0787
 2224TIP3    H228308   4.109   6.888   6.803  0.7886  1.5473 -0.5372
 2225TIP3   OH228309   2.455   0.907   8.309 -0.1518 -0.1787  0.1494
 2225TIP3    H128310   2.486   0.996   8.296  0.2593 -0.4812 -1.1539
 2225TIP3    H228311   2.533   0.858   8.335 -0.7114  0.1478  2.6391
 2226TIP3   OH228312   5.027   2.998   8.276  0.5976  0.5309  0.1641
 2226TIP3    H128313   5.109   2.968   8.237  0.0064  0.5957 -1.1827
 2226TIP3    H228314   5.007   2.932   8.342  2.0514  0.8621  0.9732
 2227TIP3   OH228315   6.841   4.890   8.021  0.0623 -0.2766 -0.8680
 2227TIP3    H128316   6.897   4.955   7.978  1.3520 -0.7587  0.0308
 2227TIP3    H228317   6.789   4.940   8.084  0.8799 -0.0830 -0.3440
 2228TIP3   OH228318   0.078   0.217   7.060  0.1334  0.2435 -0.4384
 2228TIP3    H128319   0.045   0.173   7.139  1.3439  1.3509  0.7349
 2228TIP3    H228320   0.044   0.164   6.988 -3.0070  0.5018  0.6821
 2229TIP3   OH228321   3.982   0.601   1.438 -0.4387  0.6121  0.1338
 2229TIP3    H128322   3.924   0.582   1.365  0.3941  0.2207 -0.4397
 2229TIP3    H228323   3.960   0.536   1.504  1.0655 -1.2263 -1.0659
 2230TIP3   OH228324   3.775   4.631   7.061  0.7384 -0.2289 -0.4929
 2230TIP3    H128325   3.828   4.611   7.138  2.3934  0.7504 -1.3008
 2230TIP3    H228326   3.776   4.727   7.056 -0.9388 -0.1908 -0.6911
 2231TIP3   OH228327   6.641   5.675   8.575 -0.4648  0.3518  0.3224
 2231TIP3    H128328   6.704   5.623   8.626  0.5021  1.2132  0.0431
 2231TIP3    H228329   6.645   5.638   8.487  2.4257  2.5965 -0.6761
 2232TIP3   OH228330   4.325   4.954   6.370 -0.0680 -0.2142  0.3991
 2232TIP3    H128331   4.322   4.921   6.280 -2.7664 -2.7995  1.2823
 2232TIP3    H228332   4.251   4.913   6.413  1.3367  0.6440  3.9651
 2233TIP3   OH228333   4.411   1.094   8.367  0.1550 -0.2020 -0.3913
 2233TIP3    H128334   4.416   1.175   8.317 -0.2578 -0.1819 -0.4047
 2233TIP3    H228335   4.329   1.053   8.337 -0.9500  0.5744  1.4356
 2234TIP3   OH228336   0.611   4.535   7.630  0.1485 -0.2725 -0.2044
 2234TIP3    H128337   0.635   4.527   7.723 -0.3416 -1.2246 -0.1428
 2234TIP3    H228338   0.656   4.462   7.588  0.8304  0.4901 -0.8262
 2235TIP3   OH228339   6.879   4.692   1.535  0.7488 -0.6520 -0.4530
 2235TIP3    H128340   6.810   4.754   1.512 -0.5857 -1.3068  1.5351
 2235TIP3    H228341   6.875   4.625   1.468 -0.3815 -0.5399 -0.5124
 2236TIP3   OH228342   6.418   6.103   8.365 -0.0810  1.0134 -0.5464
 2236TIP3    H128343   6.491   6.057   8.407 -0.1857 -0.8130 -2.2197
 2236TIP3    H228344   6.426   6.194   8.395  1.9022  0.5165  0.5875
 2237TIP3   OH228345   0.688   4.852   7.559  0.2908 -0.5077 -0.1450
 2237TIP3    H128346   0.654   4.766   7.533 -1.2343  0.1629 -0.5043
 2237TIP3    H228347   0.769   4.861   7.509  0.4378 -1.6943 -0.1639
 2238TIP3   OH228348   4.812   6.385   0.911 -0.1965  0.1308  0.1443
 2238TIP3    H128349   4.824   6.439   0.833 -1.4465  1.0901  0.5644
 2238TIP3    H228350   4.901   6.369   0.944  0.2935  0.3611 -1.0347
 2239TIP3   OH228351   4.589   3.485   7.851 -0.5024 -0.1486  0.3046
 2239TIP3    H128352   4.526   3.517   7.916 -1.5461 -0.7317 -0.4010
 2239TIP3    H228353   4.604   3.394   7.874 -0.7851 -0.3245 -0.1928
 2240TIP3   OH228354   1.395   2.646   7.727 -0.0426  0.2832  0.1104
 2240TIP3    H128355   1.331   2.614   7.791  0.4810  0.8292  0.9393
 2240TIP3    H228356   1.354   2.632   7.642 -0.4896 -1.0721  0.5278
 2241TIP3   OH228357   5.151   5.823   7.452  0.4005  0.2820 -0.0495
 2241TIP3    H128358   5.226   5.792   7.503 -0.2557  0.2817  0.9525
 2241TIP3    H228359   5.182   5.902   7.408  0.3273  1.7207  2.2920
 2242TIP3   OH228360   5.257   3.681   6.982  0.2267  0.4830 -0.4535
 2242TIP3    H128361   5.293   3.747   6.922  0.4834  0.2326 -0.5782
 2242TIP3    H228362   5.333   3.649   7.030  0.5357 -1.4680 -2.0938
 2243TIP3   OH228363   2.531   3.104   0.793  0.1767 -0.2127  0.1368
 2243TIP3    H128364   2.488   3.019   0.797  0.6440 -0.4163  0.8750
 2243TIP3    H228365   2.460   3.165   0.771 -0.1730 -0.7756 -0.3296
 2244TIP3   OH228366   6.595   0.230   0.116  0.7743 -0.5240  0.4570
 2244TIP3    H128367   6.505   0.205   0.134  0.4878 -0.5936 -0.9503
 2244TIP3    H228368   6.607   0.211   0.023  0.9063  3.3979 -0.5159
 2245TIP3   OH228369   3.668   1.806   8.587 -0.0052  0.4257  0.2261
 2245TIP3    H128370   3.628   1.764   8.663  0.8099 -1.0500 -0.1283
 2245TIP3    H228371   3.713   1.883   8.623  0.0403 -0.0333  1.1712
 2246TIP3   OH228372   6.942   1.904   1.821 -0.0551 -0.4231  0.1958
 2246TIP3    H128373   6.916   1.856   1.742  1.0242 -0.4764 -0.1395
 2246TIP3    H228374   7.034   1.925   1.808  0.4090 -1.2442  1.8567
 2247TIP3   OH228375   6.524   6.797   0.605 -0.9162 -0.1199 -0.3752
 2247TIP3    H128376   6.428   6.795   0.607 -0.9666 -0.0227 -1.7989
 2247TIP3    H228377   6.546   6.835   0.520  0.3966  0.7805  0.3277
 2248TIP3   OH228378   4.609   6.064   0.651  0.2896  0.8618 -0.5700
 2248TIP3    H128379   4.677   6.001   0.627  0.4624  0.9356 -0.2877
 2248TIP3    H228380   4.640   6.147   0.615  0.4043  0.9152 -0.3555
 2249TIP3   OH228381   0.059   1.249   1.112 -0.0777  0.4353  0.1314
 2249TIP3    H128382   0.049   1.344   1.110 -0.6266  0.4102  1.0780
 2249TIP3    H228383   0.008   1.221   1.188 -2.9690 -0.9790 -2.1558
 2250TIP3   OH228384   0.263   6.040   8.084  0.0483 -0.2462 -0.5682
 2250TIP3    H128385   0.292   5.968   8.028 -0.5023 -0.1905 -0.9236
 2250TIP3    H228386   0.344   6.088   8.105  0.5819 -1.5522  0.5216
 2251TIP3   OH228387   2.170   5.074   1.516  0.0373  0.5366 -0.2910
 2251TIP3    H128388   2.118   5.034   1.586  1.7667  1.1365  1.4377
 2251TIP3    H228389   2.237   5.008   1.496  0.7882  1.1489  0.1216
 2252TIP3   OH228390   0.076   3.769   8.365  0.2077 -0.1297 -0.3373
 2252TIP3    H128391   0.112   3.681   8.355 -1.2703 -0.6572 -1.2501
 2252TIP3    H228392   0.075   3.805   8.276 -1.3661 -0.0948 -0.3338
 2253TIP3   OH228393   3.457   6.086   6.043 -0.5918  0.1248  0.1989
 2253TIP3    H128394   3.505   6.005   6.023  0.9381  0.7215  1.2653
 2253TIP3    H228395   3.441   6.081   6.137  0.2768  1.4204  0.4457
 2254TIP3   OH228396   1.996   2.393   1.259 -0.1066 -0.1567 -0.3228
 2254TIP3    H128397   2.018   2.301   1.246  0.3367 -0.0577 -0.2834
 2254TIP3    H228398   2.080   2.438   1.261  0.0841 -0.2697  3.7792
 2255TIP3   OH228399   3.250   0.363   0.954  0.1046  0.2277 -0.3335
 2255TIP3    H128400   3.271   0.341   0.863  0.1154 -0.0843 -0.2576
 2255TIP3    H228401   3.224   0.280   0.994 -2.0294  0.7043 -0.6081
 2256TIP3   OH228402   3.702   6.084   7.611 -0.5126 -0.5453  0.2387
 2256TIP3    H128403   3.661   6.033   7.540  0.7344 -1.7655  0.3542
 2256TIP3    H228404   3.644   6.070   7.686  0.1598 -2.4379  0.4595
 2257TIP3   OH228405   6.733   5.444   7.413 -0.1423 -0.0088  0.5219
 2257TIP3    H128406   6.663   5.425   7.351 -0.6716  0.9884  0.7874
 2257TIP3    H228407   6.714   5.387   7.488  1.4526 -2.4815 -0.8143
 2258TIP3   OH228408   4.163   0.385   7.076  0.1501 -0.0740  0.2487
 2258TIP3    H128409   4.231   0.417   7.018  1.7799 -0.5901  1.7862
 2258TIP3    H228410   4.122   0.464   7.111  0.4768  0.2529 -0.0966
 2259TIP3   OH228411   1.048   6.294   2.263  0.0426 -0.1262  0.2004
 2259TIP3    H128412   1.031   6.370   2.207 -2.3689  0.3914  1.4931
 2259TIP3    H228413   1.138   6.308   2.295  0.3714  1.1043 -1.1344
 2260TIP3   OH228414   2.044   4.538   7.851 -0.2938  0.0977 -0.2419
 2260TIP3    H128415   1.954   4.566   7.866 -1.1980 -1.2954 -2.6061
 2260TIP3    H228416   2.065   4.484   7.927 -0.7632  1.8479  1.2103
 2261TIP3   OH228417   0.197   2.042   7.092  0.0032  0.2423  0.7762
 2261TIP3    H128418   0.203   2.137   7.107  0.8021  0.6272 -1.6371
 2261TIP3    H228419   0.252   2.026   7.015 -3.3205 -1.5471 -1.4511
 2262TIP3   OH228420   1.346   3.656   6.961  0.2416  0.2688  0.1062
 2262TIP3    H128421   1.256   3.672   6.935 -0.8283  0.7741  3.6668
 2262TIP3    H228422   1.398   3.712   6.904 -1.7737  0.8834 -1.2085
 2263TIP3   OH228423   5.808   1.175   0.420 -0.2835 -0.1111 -0.6482
 2263TIP3    H128424   5.817   1.097   0.475  1.2767  0.0606 -0.6322
 2263TIP3    H228425   5.853   1.153   0.339 -1.7093  0.0080 -1.5064
 2264TIP3   OH228426   0.731   6.929   1.557  0.4914 -0.8571 -0.3248
 2264TIP3    H128427   0.637   6.923   1.577  0.2898 -1.6234 -1.3978
 2264TIP3    H228428   0.754   7.019   1.578 -0.6427 -0.4732 -0.6374
 2265TIP3   OH228429   5.250   6.073   0.202 -0.0717 -0.6445 -0.2625
 2265TIP3    H128430   5.328   6.023   0.226 -0.5191 -1.5937 -0.7180
 2265TIP3    H228431   5.284   6.155   0.167  0.7708 -1.3872 -1.2631
 2266TIP3   OH228432   6.916   4.301   8.221  0.3148 -0.2983  0.1983
 2266TIP3    H128433   6.824   4.299   8.198  0.8750  0.3959 -2.3381
 2266TIP3    H228434   6.922   4.366   8.291 -1.1141 -0.5197  0.5546
 2267TIP3   OH228435   1.012   3.972   0.415  0.2567  0.2039  0.0651
 2267TIP3    H128436   0.917   3.983   0.407 -0.0048 -1.3229  0.6158
 2267TIP3    H228437   1.025   3.948   0.507  0.6935 -3.3023 -0.7722
 2268TIP3   OH228438   4.921   3.587   0.201 -0.4863 -0.2148  0.0683
 2268TIP3    H128439   4.853   3.528   0.233 -0.4829  0.2554  0.9723
 2268TIP3    H228440   4.958   3.627   0.279  0.2027  0.2395 -0.4663
 2269TIP3   OH228441   0.605   6.700   1.213  0.9331  0.3096 -0.8697
 2269TIP3    H128442   0.613   6.614   1.252  2.9347  1.0158  0.3968
 2269TIP3    H228443   0.586   6.683   1.121  1.2821 -1.4544 -0.6446
 2270TIP3   OH228444   5.808   6.779   7.070  0.1104 -0.4450 -0.1837
 2270TIP3    H128445   5.836   6.814   7.154 -0.4745 -0.5970  0.0784
 2270TIP3    H228446   5.742   6.840   7.039  0.4319 -0.3057 -0.6098
 2271TIP3   OH228447   0.891   6.467   8.138 -0.3665 -0.0785 -0.2606
 2271TIP3    H128448   0.861   6.538   8.081 -0.2330  0.5045  0.3811
 2271TIP3    H228449   0.837   6.392   8.113 -0.3896  0.1947 -1.0673
 2272TIP3   OH228450   0.920   6.206   6.360 -0.1595  0.4527  0.0056
 2272TIP3    H128451   0.940   6.252   6.442 -0.8291 -0.6036  0.7996
 2272TIP3    H228452   0.840   6.158   6.379 -0.3773  0.2586 -1.3196
 2273TIP3   OH228453   5.855   1.545   8.238 -0.0424 -0.1043  0.0485
 2273TIP3    H128454   5.941   1.542   8.279  0.3696 -2.1736 -0.8344
 2273TIP3    H228455   5.854   1.470   8.178 -1.9280  0.7119 -1.0475
 2274TIP3   OH228456   6.755   0.471   7.741  0.2656  0.0861  0.4603
 2274TIP3    H128457   6.721   0.556   7.714  0.6537 -0.1676 -0.8573
 2274TIP3    H228458   6.848   0.486   7.758  0.0741  0.1949  1.5256
 2275TIP3   OH228459   2.615   4.762   7.477 -0.0514  0.1512  0.5322
 2275TIP3    H128460   2.554   4.704   7.523 -2.1147  1.7832  0.0082
 2275TIP3    H228461   2.580   4.767   7.388  1.9355 -0.2696 -0.3258
 2276TIP3   OH228462   6.843   3.805   6.436 -0.0976  0.2101 -0.2270
 2276TIP3    H128463   6.874   3.742   6.370 -0.1125  1.7784 -1.8139
 2276TIP3    H228464   6.752   3.781   6.451  0.9290 -2.7753  2.4779
 2277TIP3   OH228465   3.661   1.518   0.484 -0.3682 -0.1416 -0.2521
 2277TIP3    H128466   3.641   1.448   0.421 -3.6252  2.3129 -2.2637
 2277TIP3    H228467   3.745   1.553   0.455 -0.1735 -1.2527 -1.1091
 2278TIP3   OH228468   5.599   0.429   0.773  0.8673  0.1309  0.5080
 2278TIP3    H128469   5.671   0.375   0.807 -0.3706 -0.9639  1.4804
 2278TIP3    H228470   5.637   0.516   0.766  2.0195 -0.1967  2.0179
 2279TIP3   OH228471   2.228   3.229   8.122  0.0282 -0.0804 -0.1470
 2279TIP3    H128472   2.260   3.187   8.042  0.7921 -0.3531  0.2914
 2279TIP3    H228473   2.135   3.210   8.123  0.3871 -2.0920  0.2020
 2280TIP3   OH228474   2.293   3.265   7.186  0.0319  0.1256  0.5743
 2280TIP3    H128475   2.299   3.195   7.251  0.5794  1.2587  1.7880
 2280TIP3    H228476   2.205   3.255   7.149  0.2160 -1.3960  0.4510
 2281TIP3   OH228477   1.023   5.435   0.916  0.3237  0.0926 -0.1150
 2281TIP3    H128478   1.022   5.341   0.934  0.9701 -0.0363 -0.6769
 2281TIP3    H228479   1.009   5.441   0.822 -0.3110  0.5945  0.0100
 2282TIP3   OH228480   2.161   2.061   8.424  0.1394  0.4285 -0.3938
 2282TIP3    H128481   2.104   1.988   8.450  0.0414  0.5710 -0.2100
 2282TIP3    H228482   2.173   2.049   8.330  0.6048 -0.1688 -0.2655
 2283TIP3   OH228483   5.853   1.181   6.995 -0.3591 -0.0249 -0.6113
 2283TIP3    H128484   5.787   1.209   6.931 -0.3285  0.3304 -0.4908
 2283TIP3    H228485   5.824   1.095   7.024 -1.0785  0.3713 -0.1387
 2284TIP3   OH228486   6.191   5.608   1.946 -0.3222 -0.4818 -0.3349
 2284TIP3    H128487   6.236   5.689   1.922 -1.5880  0.3970  0.1788
 2284TIP3    H228488   6.196   5.606   2.042  1.0858 -1.8567 -0.3866
 2285TIP3   OH228489   1.193   0.553   2.519  0.0914 -0.2107 -0.5681
 2285TIP3    H128490   1.244   0.479   2.551  0.6417  0.4303  0.0816
 2285TIP3    H228491   1.180   0.608   2.596 -1.4884 -0.2912 -0.7436
 2286TIP3   OH228492   0.121   4.341   8.565 -0.0996 -0.4628 -0.0688
 2286TIP3    H128493   0.194   4.400   8.583 -0.1296  1.2735 -4.4788
 2286TIP3    H228494   0.162   4.264   8.526 -0.4778  0.3351 -2.1513
 2287TIP3   OH228495   5.859   1.026   8.426 -0.4780  0.4283  0.0786
 2287TIP3    H128496   5.888   0.946   8.381 -1.8017 -0.6539  1.0739
 2287TIP3    H228497   5.878   1.096   8.364  0.5655 -0.6633 -0.8975
 2288TIP3   OH228498   1.976   0.797   1.201  0.1189 -0.2565 -0.0144
 2288TIP3    H128499   1.953   0.874   1.149 -0.9419  0.2578  1.1589
 2288TIP3    H228500   2.047   0.756   1.153 -0.9437  0.0701 -1.9865
 2289TIP3   OH228501   3.250   2.599   1.829  0.3396 -0.8002  0.1671
 2289TIP3    H128502   3.244   2.550   1.911 -1.7145 -1.3159 -0.2342
 2289TIP3    H228503   3.159   2.622   1.808  0.9903  0.9012 -1.0349
 2290TIP3   OH228504   4.763   2.417   7.753  0.6854 -0.1332  0.0932
 2290TIP3    H128505   4.693   2.353   7.736  0.9274 -0.7342  1.2529
 2290TIP3    H228506   4.777   2.413   7.847  2.1708  0.1138 -0.0898
 2291TIP3   OH228507   4.514   5.993   2.158 -0.1728  0.5458 -0.4425
 2291TIP3    H128508   4.421   6.009   2.174 -0.3712  1.7449 -2.4569
 2291TIP3    H228509   4.559   6.067   2.199 -0.3135  1.2009 -1.4466
 2292TIP3   OH228510   5.686   0.115   0.991  0.0710 -1.0999 -0.1318
 2292TIP3    H128511   5.635   0.183   0.947  1.4801 -0.5810 -1.0095
 2292TIP3    H228512   5.629   0.085   1.062 -1.5247 -0.6862 -1.1873
 2293TIP3   OH228513   0.876   2.675   2.361  0.4107 -0.1953  0.0901
 2293TIP3    H128514   0.955   2.653   2.410  0.7055  0.1914 -0.2040
 2293TIP3    H228515   0.804   2.656   2.422  0.6548 -1.6203 -0.0250
 2294TIP3   OH228516   6.426   1.848   2.251  0.2595  0.4454 -0.5829
 2294TIP3    H128517   6.474   1.795   2.315 -0.3915  0.0646 -0.4011
 2294TIP3    H228518   6.338   1.857   2.288  0.0421  0.7015 -1.1534
 2295TIP3   OH228519   2.199   3.908   2.587  0.0852  0.4552  0.0286
 2295TIP3    H128520   2.135   3.910   2.658 -0.9897 -0.6347 -0.8784
 2295TIP3    H228521   2.147   3.917   2.508  1.1025 -0.1102 -0.7221
 2296TIP3   OH228522   5.353   4.402   0.340 -0.7123 -0.0825  0.1931
 2296TIP3    H128523   5.313   4.453   0.270  0.0261  0.4800  0.1715
 2296TIP3    H228524   5.295   4.326   0.351 -1.3248  0.2945 -0.3925
 2297TIP3   OH228525   5.917   3.573   1.756  0.0456 -0.0392  0.1880
 2297TIP3    H128526   5.925   3.529   1.672 -1.2966 -1.5983  0.8165
 2297TIP3    H228527   5.956   3.660   1.742 -0.4461 -0.1280 -2.1089
 2298TIP3   OH228528   1.395   5.580   2.060 -0.1520  0.2198  0.6122
 2298TIP3    H128529   1.485   5.567   2.091 -0.1651 -1.3830  0.0501
 2298TIP3    H228530   1.343   5.517   2.108 -1.0923  1.4394  1.2574
 2299TIP3   OH228531   6.446   4.041   8.509 -0.3627  0.0100 -0.9321
 2299TIP3    H128532   6.431   4.118   8.454  1.4903 -0.1949 -1.8157
 2299TIP3    H228533   6.541   4.031   8.510 -0.4428 -1.0231  0.9444
 2300TIP3   OH228534   2.366   0.549   1.223  0.1327 -0.1876 -0.1232
 2300TIP3    H128535   2.423   0.569   1.297  1.5087 -0.6054 -1.0424
 2300TIP3    H228536   2.317   0.472   1.251 -1.5984  1.3822  1.4949
 2301TIP3   OH228537   0.197   2.829   6.855  1.3603  0.1182  0.6509
 2301TIP3    H128538   0.196   2.903   6.794  0.8432 -0.8228 -0.5342
 2301TIP3    H228539   0.246   2.761   6.809  1.8156 -0.2936  1.7144
 2302TIP3   OH228540   3.165   3.843   0.479 -0.3097  0.0553 -0.3451
 2302TIP3    H128541   3.086   3.881   0.516  0.3607 -0.8156  2.1102
 2302TIP3    H228542   3.162   3.750   0.501  1.5686  0.0715  0.2055
 2303TIP3   OH228543   5.050   0.549   7.372 -0.1665 -0.0259 -0.8026
 2303TIP3    H128544   4.997   0.626   7.353 -1.7405 -1.3966 -2.2737
 2303TIP3    H228545   5.140   0.578   7.358 -0.6268  1.8216 -0.2072
 2304TIP3   OH228546   5.899   6.329   2.216  0.7020  0.2450  0.2087
 2304TIP3    H128547   5.980   6.358   2.258 -0.3798  1.6609  1.4469
 2304TIP3    H228548   5.856   6.410   2.189  0.5978 -0.5668 -2.2425
 2305TIP3   OH228549   1.315   4.769   0.505  0.1603  0.4882  0.4807
 2305TIP3    H128550   1.347   4.714   0.434  0.8328  0.8071  0.5314
 2305TIP3    H228551   1.382   4.762   0.573 -1.4171 -1.4477  1.9629
 2306TIP3   OH228552   0.302   1.112   1.525 -0.1583  0.4818  0.0653
 2306TIP3    H128553   0.361   1.081   1.594  0.0604  0.4313 -0.1440
 2306TIP3    H228554   0.359   1.132   1.451 -0.4040  0.4129 -0.1469
 2307TIP3   OH228555   0.208   3.509   0.458  0.6330  0.1188  0.0298
 2307TIP3    H128556   0.238   3.539   0.372  0.4891 -0.7225 -0.3198
 2307TIP3    H228557   0.211   3.414   0.453 -0.1579  0.0471  0.6804
 2308TIP3   OH228558   6.373   0.352   8.331  0.0423 -0.0094 -0.1468
 2308TIP3    H128559   6.428   0.277   8.354 -0.3033 -0.4958 -0.8929
 2308TIP3    H228560   6.283   0.319   8.336 -0.1557  0.5595  0.2484
 2309TIP3   OH228561   1.000   2.236   7.469  0.3192  0.0807 -0.1258
 2309TIP3    H128562   1.044   2.262   7.550 -0.0721  1.4920 -0.3444
 2309TIP3    H228563   1.025   2.145   7.456 -0.6861 -0.6263  2.3050
 2310TIP3   OH228564   0.243   2.017   2.208 -0.4855  0.0044  0.7897
 2310TIP3    H128565   0.247   2.021   2.112 -2.0764 -0.5978  0.6641
 2310TIP3    H228566   0.228   1.924   2.228  0.3549  0.0411  1.6574
 2311TIP3   OH228567   1.090   4.560   7.123 -0.0075 -0.2492  0.0224
 2311TIP3    H128568   1.038   4.640   7.119 -1.1787 -1.0206 -1.0804
 2311TIP3    H228569   1.152   4.574   7.195 -0.2848  1.5674 -0.0549
 2312TIP3   OH228570   4.280   3.493   1.461  0.5641 -0.3143 -0.9756
 2312TIP3    H128571   4.280   3.406   1.501 -2.6900  0.5563  1.3514
 2312TIP3    H228572   4.274   3.553   1.535 -1.2616  1.6899 -2.6243
 2313TIP3   OH228573   3.975   2.912   1.015 -0.2776 -0.4445  0.0907
 2313TIP3    H128574   3.944   2.950   0.933 -3.4635 -2.6627  0.0476
 2313TIP3    H228575   4.028   2.837   0.988  1.4284  0.6899  0.1544
 2314TIP3   OH228576   3.823   1.090   8.234 -0.6759  0.4619  0.1045
 2314TIP3    H128577   3.849   0.998   8.232 -0.3882  0.5497 -0.1917
 2314TIP3    H228578   3.794   1.104   8.324 -0.9945  0.0066  0.0768
 2315TIP3   OH228579   3.393   6.664   8.289  0.1935 -0.0472 -0.5082
 2315TIP3    H128580   3.369   6.614   8.367  0.9066  1.1142  0.4874
 2315TIP3    H228581   3.311   6.671   8.239 -0.7902  0.9761  1.1650
 2316TIP3   OH228582   0.346   2.482   0.987 -0.2194 -0.6902 -0.1644
 2316TIP3    H128583   0.256   2.512   0.997 -0.4826 -0.3795 -2.7177
 2316TIP3    H228584   0.388   2.501   1.071 -1.7177  2.0538  0.0684
 2317TIP3   OH228585   4.539   5.380   1.901  0.3773  0.1969  0.0276
 2317TIP3    H128586   4.476   5.394   1.971 -0.2866 -3.2364  0.2479
 2317TIP3    H228587   4.539   5.463   1.853 -2.0854  1.3128  1.7415
 2318TIP3   OH228588   1.622   4.021   8.330 -0.1882 -0.6206  0.0593
 2318TIP3    H128589   1.623   3.945   8.388 -0.1502  0.0882  0.9992
 2318TIP3    H228590   1.587   4.092   8.383 -0.0976  0.0617 -0.7670
 2319TIP3   OH228591   2.306   0.195   6.878  0.0660  0.3728 -0.2042
 2319TIP3    H128592   2.277   0.224   6.965  0.5017  0.9887 -0.2516
 2319TIP3    H228593   2.355   0.270   6.844 -0.0356  0.1027 -0.9510
 2320TIP3   OH228594   2.810   1.929   0.852 -0.0342 -0.3145 -0.3005
 2320TIP3    H128595   2.746   1.887   0.794 -0.0844  1.0435 -1.2681
 2320TIP3    H228596   2.883   1.952   0.795 -0.5891  2.1374 -0.1352
 2321TIP3   OH228597   3.390   0.973   7.544 -1.0314  0.8617 -0.3498
 2321TIP3    H128598   3.330   0.928   7.604  1.0379 -1.3719  0.2152
 2321TIP3    H228599   3.447   1.024   7.601  0.0205 -0.1077 -0.5049
 2322TIP3   OH228600   4.819   1.054   7.531  0.2718 -0.2134  0.1586
 2322TIP3    H128601   4.780   1.141   7.525  0.9881  0.0788 -0.3680
 2322TIP3    H228602   4.781   1.005   7.458  0.4584 -0.1017 -0.0138
 2323TIP3   OH228603   3.972   3.637   7.777 -0.1492  0.0102 -0.1647
 2323TIP3    H128604   4.058   3.598   7.794 -0.1374 -0.0504 -0.3579
 2323TIP3    H228605   3.912   3.591   7.836  0.0538  0.4887  0.4256
 2324TIP3   OH228606   1.358   1.966   7.359  0.2528  0.5249  0.0287
 2324TIP3    H128607   1.376   1.945   7.267 -0.4152  1.8190 -0.4340
 2324TIP3    H228608   1.355   1.881   7.403  1.4836 -0.0656 -0.9619
 2325TIP3   OH228609   2.330   6.550   6.687 -0.0302 -0.0465 -0.6353
 2325TIP3    H128610   2.268   6.591   6.626 -0.5889 -0.4716 -0.3556
 2325TIP3    H228611   2.414   6.594   6.668 -0.6658  1.4535 -0.1242
 2326TIP3   OH228612   5.958   4.425   1.063 -0.3919  0.5183 -0.3251
 2326TIP3    H128613   5.969   4.506   1.014 -1.0591  0.6874 -0.2042
 2326TIP3    H228614   5.901   4.371   1.007 -0.7221  0.5046  0.0220
 2327TIP3   OH228615   1.027   4.200   2.301  0.8196  0.0368  0.3722
 2327TIP3    H128616   1.011   4.294   2.310  0.7838  0.3321 -2.1504
 2327TIP3    H228617   0.942   4.159   2.318  0.1285  0.7032 -1.3387
 2328TIP3   OH228618   2.056   3.892   7.151 -0.0432 -0.2728 -0.2097
 2328TIP3    H128619   2.067   3.978   7.191  1.0587  0.0946 -1.2503
 2328TIP3    H228620   2.040   3.833   7.225  0.6649  0.5852  0.6526
 2329TIP3   OH228621   6.868   2.174   1.060 -0.0839  0.0795  0.5476
 2329TIP3    H128622   6.852   2.132   0.975  0.8674  0.3690  0.2084
 2329TIP3    H228623   6.783   2.213   1.084  0.1557  2.0384 -1.4298
 2330TIP3   OH228624   1.588   2.005   7.793 -0.0511 -0.2004 -0.4346
 2330TIP3    H128625   1.507   1.967   7.826 -0.2607  0.3529 -0.3025
 2330TIP3    H228626   1.646   1.930   7.781  1.0334 -0.3287  3.8230
 2331TIP3   OH228627   2.094   4.958   6.724  0.3837 -0.1294 -0.2905
 2331TIP3    H128628   2.006   4.926   6.703  0.2254  0.9677 -1.4076
 2331TIP3    H228629   2.094   5.048   6.693  2.7923 -0.8966 -2.9085
 2332TIP3   OH228630   3.309   2.141   1.607 -0.1100 -0.4296 -0.0448
 2332TIP3    H128631   3.244   2.119   1.673  0.6645  2.0515  1.6868
 2332TIP3    H228632   3.279   2.224   1.570  0.3613 -0.9311 -1.6327
 2333TIP3   OH228633   0.951   0.043   7.362  0.3681  0.3317  0.3508
 2333TIP3    H128634   0.937   0.094   7.442  1.2602  0.3447  0.5073
 2333TIP3    H228635   0.986   0.106   7.299 -0.4909  0.3576 -0.1040
 2334TIP3   OH228636   0.188   0.532   7.730  0.0218 -0.3880  0.4731
 2334TIP3    H128637   0.169   0.454   7.677  3.0325 -0.3083 -0.9268
 2334TIP3    H228638   0.279   0.520   7.758 -0.2255  1.5084  2.3236
 2335TIP3   OH228639   4.826   6.796   7.046 -0.1968 -0.4095 -0.1670
 2335TIP3    H128640   4.906   6.828   7.003  0.2278 -3.0525 -1.5214
 2335TIP3    H228641   4.850   6.787   7.138  0.5109  0.4449 -0.2579
 2336TIP3   OH228642   0.417   2.183   0.402  0.6337  0.0411  0.9071
 2336TIP3    H128643   0.350   2.248   0.383  1.4591  0.4070 -0.9886
 2336TIP3    H228644   0.404   2.114   0.337  0.4185 -1.2542  2.2415
 2337TIP3   OH228645   5.430   6.008   0.698 -0.3699 -0.2992 -0.3137
 2337TIP3    H128646   5.411   5.914   0.689 -2.3819 -0.3326  2.7759
 2337TIP3    H228647   5.354   6.051   0.659 -1.2914 -0.1183  1.5817
 2338TIP3   OH228648   5.958   2.689   1.057  0.1165  0.1971 -0.7937
 2338TIP3    H128649   6.043   2.732   1.064 -0.4111  1.0576  0.7654
 2338TIP3    H228650   5.979   2.595   1.055  1.0406  0.2954  1.6914
 2339TIP3   OH228651   6.424   4.006   7.085  0.4574  1.0016  0.0400
 2339TIP3    H128652   6.514   4.034   7.102  0.7009  1.3301 -1.6684
 2339TIP3    H228653   6.408   3.938   7.151  2.1997  0.4149 -0.0713
 2340TIP3   OH228654   3.269   6.368   0.693  0.0869 -0.3439  0.4386
 2340TIP3    H128655   3.281   6.274   0.701  1.0743 -0.2640  0.1163
 2340TIP3    H228656   3.259   6.399   0.783  0.8774 -0.6314  0.6333
 2341TIP3   OH228657   1.266   0.656   1.105 -0.6133 -0.0490  0.0332
 2341TIP3    H128658   1.303   0.716   1.170 -1.8709 -0.4581  1.1772
 2341TIP3    H228659   1.337   0.595   1.085 -0.6412 -0.9438  2.3121
 2342TIP3   OH228660   1.112   3.440   8.090 -0.2464 -0.6249  0.3102
 2342TIP3    H128661   1.159   3.371   8.137  1.3555  0.1722 -0.0218
 2342TIP3    H228662   1.174   3.513   8.087 -0.8296 -0.1416 -1.7747
 2343TIP3   OH228663   5.931   0.542   0.219 -0.1302  0.2829 -0.3161
 2343TIP3    H128664   5.886   0.504   0.295 -0.5805  0.0504 -0.6949
 2343TIP3    H228665   5.979   0.469   0.181  0.1200  0.4069 -0.2377
 2344TIP3   OH228666   6.864   0.992   1.429 -0.1600  0.8677  0.0774
 2344TIP3    H128667   6.926   0.947   1.486 -1.2616 -0.8945 -0.0534
 2344TIP3    H228668   6.877   0.951   1.343 -1.8768  0.0326  0.1758
 2345TIP3   OH228669   0.523   6.051   0.713  0.1782 -0.3913 -0.7606
 2345TIP3    H128670   0.445   6.098   0.682 -1.7335 -0.5296  3.1502
 2345TIP3    H228671   0.597   6.105   0.685 -1.7227  3.3328  0.6895
 2346TIP3   OH228672   0.223   2.872   0.877  0.1358 -0.1829 -0.2322
 2346TIP3    H128673   0.271   2.880   0.795 -0.2931  3.3010 -0.3178
 2346TIP3    H228674   0.153   2.937   0.869 -1.7558 -1.8434  1.7377
 2347TIP3   OH228675   6.794   4.352   0.529 -0.7638 -0.2988  0.2069
 2347TIP3    H128676   6.704   4.347   0.559 -0.5875 -0.9552  0.6438
 2347TIP3    H228677   6.845   4.371   0.609 -0.2621 -2.2913  0.4102
 2348TIP3   OH228678   5.169   4.979   1.124 -0.6614  0.4360  0.0339
 2348TIP3    H128679   5.135   5.065   1.150  1.3691  1.1710  0.3799
 2348TIP3    H228680   5.254   4.973   1.166  0.3013 -0.7100 -1.9478
 2349TIP3   OH228681   3.895   5.221   7.148  0.2149  0.8494  0.2306
 2349TIP3    H128682   3.883   5.297   7.206  0.4494  0.3930  0.8955
 2349TIP3    H228683   3.861   5.147   7.199 -1.7979  0.7557 -1.1518
 2350TIP3   OH228684   6.360   3.838   0.239  0.3694  0.2105 -0.3252
 2350TIP3    H128685   6.454   3.855   0.242  0.3613  0.2902 -0.5419
 2350TIP3    H228686   6.321   3.907   0.292  0.4915 -0.2569  0.3830
 2351TIP3   OH228687   0.157   0.561   2.299  0.1336  0.0588  0.3970
 2351TIP3    H128688   0.234   0.618   2.307  1.9756 -2.4961  2.4379
 2351TIP3    H228689   0.086   0.613   2.336  1.0254  2.1647 -0.6846
 2352TIP3   OH228690   4.793   5.878   0.605 -0.8016 -0.0101  0.3517
 2352TIP3    H128691   4.762   5.790   0.586  0.9813 -0.7250  0.5824
 2352TIP3    H228692   4.869   5.866   0.662 -0.4704  1.6589  0.3334
 2353TIP3   OH228693   0.370   5.585   0.553  0.3662  0.3492  0.6508
 2353TIP3    H128694   0.303   5.578   0.484  0.0310  1.6237  0.8092
 2353TIP3    H228695   0.432   5.515   0.533  0.2292  0.6178 -0.9021
 2354TIP3   OH228696   1.782   2.115   2.012 -0.3281 -0.0755 -0.0599
 2354TIP3    H128697   1.718   2.115   1.942  0.5579  0.1279 -0.8975
 2354TIP3    H228698   1.763   2.194   2.063 -1.4571 -0.6302  0.3997
 2355TIP3   OH228699   3.052   2.081   8.438 -0.2706  0.0864  0.2964
 2355TIP3    H128700   3.068   2.156   8.381 -0.5039 -0.8065 -1.0131
 2355TIP3    H228701   3.129   2.076   8.495  1.6692 -0.9186 -2.1980
 2356TIP3   OH228702   6.564   6.698   2.158  0.1009  0.0051 -0.6841
 2356TIP3    H128703   6.480   6.733   2.187  1.0336  1.8888 -0.1041
 2356TIP3    H228704   6.569   6.611   2.199 -1.5830 -0.2010 -0.8429
 2357TIP3   OH228705   0.922   3.058   6.579  0.1247  0.5948  0.0670
 2357TIP3    H128706   0.894   2.970   6.552  0.0744  0.8774 -0.8320
 2357TIP3    H228707   0.866   3.117   6.529  2.3069  1.1797 -1.8673
 2358TIP3   OH228708   4.261   2.042   1.193  0.0171  0.4606 -0.1254
 2358TIP3    H128709   4.314   2.098   1.250 -0.0279  1.3777 -0.9640
 2358TIP3    H228710   4.172   2.076   1.201 -0.3334 -0.5948  0.6873
 2359TIP3   OH228711   4.187   5.558   1.147 -0.2193  0.1390 -0.4788
 2359TIP3    H128712   4.126   5.561   1.220  0.3551 -0.0090  0.0078
 2359TIP3    H228713   4.269   5.594   1.181 -0.2186  0.9873 -1.3170
 2360TIP3   OH228714   5.528   0.158   8.499  0.1140  0.0133  0.3397
 2360TIP3    H128715   5.454   0.168   8.438  0.6712 -2.0932 -0.7777
 2360TIP3    H228716   5.510   0.075   8.544  0.6660  0.6237  1.7267
 2361TIP3   OH228717   5.561   4.636   1.046  0.2826 -0.2446  0.0450
 2361TIP3    H128718   5.554   4.705   0.981  0.1552 -0.1067  0.2061
 2361TIP3    H228719   5.562   4.681   1.130 -1.7580 -0.5228  0.2623
 2362TIP3   OH228720   4.132   6.111   0.978  0.4255 -0.2544  0.0061
 2362TIP3    H128721   4.083   6.055   0.918  0.3833 -0.0304 -0.1717
 2362TIP3    H228722   4.189   6.052   1.027 -0.3595 -0.5860  0.5464
 2363TIP3   OH228723   2.054   2.348   6.623 -0.1574 -0.2588  0.0389
 2363TIP3    H128724   2.136   2.376   6.664  0.1249  1.0595 -1.3684
 2363TIP3    H228725   1.987   2.398   6.669 -0.2731 -1.6568  1.4924
 2364TIP3   OH228726   6.279   6.747   2.290 -0.0558  0.3952 -0.6174
 2364TIP3    H128727   6.306   6.819   2.234 -1.0467  0.4754 -1.0144
 2364TIP3    H228728   6.259   6.676   2.229  0.3164 -0.0208 -0.2655
 2365TIP3   OH228729   5.272   2.352   8.435 -0.1144 -1.0791  0.1461
 2365TIP3    H128730   5.283   2.361   8.340  0.8711 -1.1695  0.2364
 2365TIP3    H228731   5.242   2.262   8.447  1.1475 -1.5448 -0.0006
 2366TIP3   OH228732   5.122   2.111   2.448  0.2094  0.4372  0.2120
 2366TIP3    H128733   5.096   2.201   2.468  0.1253  0.5850 -0.5307
 2366TIP3    H228734   5.203   2.097   2.497 -0.0724  0.7297  0.7657
 2367TIP3   OH228735   2.222   2.548   1.266 -0.2263  0.1059 -0.3317
 2367TIP3    H128736   2.205   2.642   1.264  0.6910  0.3906  2.1095
 2367TIP3    H228737   2.302   2.539   1.318 -0.9045 -2.0978  0.4304
 2368TIP3   OH228738   1.926   5.989   2.046  0.3094  0.1232  0.6533
 2368TIP3    H128739   1.882   5.915   2.005 -0.3343  0.8574 -0.0121
 2368TIP3    H228740   1.925   5.968   2.140  0.1996 -0.7369  0.4710
 2369TIP3   OH228741   0.342   1.330   1.138 -0.3520  0.2096 -0.9309
 2369TIP3    H128742   0.350   1.380   1.057 -4.2682  2.2743 -0.3359
 2369TIP3    H228743   0.267   1.272   1.123  0.6951 -1.5463  0.2779
 2370TIP3   OH228744   3.555   4.099   0.165 -0.0864  0.2524 -0.0646
 2370TIP3    H128745   3.590   4.138   0.085  0.7425  1.1023  0.6742
 2370TIP3    H228746   3.465   4.077   0.144  0.2109  0.1551 -1.3274
 2371TIP3   OH228747   0.862   1.153   8.127  0.4565 -0.1344  0.6008
 2371TIP3    H128748   0.920   1.161   8.202  2.1593 -0.5023 -0.6114
 2371TIP3    H228749   0.865   1.060   8.103 -0.5793 -0.1452  0.4568
 2372TIP3   OH228750   4.119   1.185   8.077  0.1186 -0.0651 -0.0365
 2372TIP3    H128751   4.076   1.210   8.159  0.5139 -2.0176  0.8276
 2372TIP3    H228752   4.192   1.247   8.069 -2.3035  2.8759 -1.1975
 2373TIP3   OH228753   1.571   1.233   7.568 -0.3126 -0.4036  0.0780
 2373TIP3    H128754   1.649   1.284   7.590  0.3526 -0.9115 -0.9595
 2373TIP3    H228755   1.606   1.149   7.537 -1.2901 -0.7309 -0.1825
 2374TIP3   OH228756   5.335   3.925   0.638 -0.2905  0.2253 -0.2165
 2374TIP3    H128757   5.248   3.947   0.669  0.0112  0.1742  0.7129
 2374TIP3    H228758   5.382   4.009   0.638  0.2309 -0.0193  1.2567
 2375TIP3   OH228759   5.785   1.133   6.410 -0.0787  0.0675 -0.0785
 2375TIP3    H128760   5.755   1.065   6.350 -2.3772  0.2698  0.7428
 2375TIP3    H228761   5.835   1.085   6.476  0.5996 -0.4410 -0.9396
 2376TIP3   OH228762   4.560   2.963   1.455  0.3473 -0.1912 -0.0481
 2376TIP3    H128763   4.500   2.894   1.428 -0.8071  0.0853  1.6573
 2376TIP3    H228764   4.557   3.027   1.383  0.5815 -1.3562 -1.1276
 2377TIP3   OH228765   3.362   5.806   7.702 -0.4570  0.2064  0.3007
 2377TIP3    H128766   3.271   5.805   7.731 -0.2595  0.2231  0.9329
 2377TIP3    H228767   3.356   5.802   7.606 -1.0732 -1.9896  0.3729
 2378TIP3   OH228768   3.984   4.656   1.597  0.0556 -0.1670  0.5693
 2378TIP3    H128769   4.023   4.740   1.620 -1.5533  0.7216  0.1754
 2378TIP3    H228770   3.889   4.670   1.603 -0.2741 -1.6862 -0.4323
 2379TIP3   OH228771   3.801   3.084   8.213  0.2494  0.0150 -0.0370
 2379TIP3    H128772   3.728   3.031   8.178  0.6131 -0.5928  0.1033
 2379TIP3    H228773   3.799   3.066   8.307  1.0329 -0.5895 -0.1268
 2380TIP3   OH228774   0.070   6.470   8.277 -0.2818 -0.0423 -0.3573
 2380TIP3    H128775   0.126   6.537   8.238 -0.0258 -0.6229 -1.0058
 2380TIP3    H228776   0.118   6.440   8.354  1.1094 -1.6700 -1.7749
 2381TIP3   OH228777   3.235   5.983   8.244  0.2685  0.2511 -0.0688
 2381TIP3    H128778   3.184   5.980   8.162 -0.9066  0.5686  0.6274
 2381TIP3    H228779   3.217   5.900   8.286  1.5464 -0.2674 -0.4985
 2382TIP3   OH228780   5.690   6.730   1.561  0.4977  0.1823 -0.5328
 2382TIP3    H128781   5.769   6.725   1.506  1.2711 -0.1637  0.5645
 2382TIP3    H228782   5.644   6.807   1.530  1.3488  0.4723 -1.1191
 2383TIP3   OH228783   1.392   0.941   0.854 -0.2412  0.0618 -0.0280
 2383TIP3    H128784   1.324   0.916   0.917  0.4595  0.9841  1.1531
 2383TIP3    H228785   1.345   0.975   0.778 -1.1038 -0.1680  0.3975
 2384TIP3   OH228786   2.810   1.068   7.370 -0.3419  0.6250  0.1313
 2384TIP3    H128787   2.736   1.032   7.322 -0.7803  0.0113  1.2383
 2384TIP3    H228788   2.887   1.033   7.325 -0.7257  0.5782 -0.5038
 2385TIP3   OH228789   3.303   2.743   0.383 -0.4401  0.0114 -0.6911
 2385TIP3    H128790   3.208   2.758   0.384 -0.5172 -0.4466 -0.9915
 2385TIP3    H228791   3.340   2.830   0.364 -0.8682 -0.0586 -1.9753
 2386TIP3   OH228792   6.736   4.504   0.209  0.3987 -0.2596 -0.0254
 2386TIP3    H128793   6.809   4.448   0.237 -0.8552 -1.6325  0.6179
 2386TIP3    H228794   6.694   4.455   0.139 -1.0158 -0.3897  0.8744
 2387TIP3   OH228795   6.688   5.060   0.227 -0.5492 -0.5674 -0.0819
 2387TIP3    H128796   6.752   5.052   0.156 -1.2139  0.4870 -0.8415
 2387TIP3    H228797   6.657   4.971   0.242  1.2916 -1.1612  0.5300
 2388TIP3   OH228798   5.519   4.128   1.349  0.7450 -0.1815  0.4639
 2388TIP3    H128799   5.523   4.144   1.255 -0.4140  1.1063  0.6126
 2388TIP3    H228800   5.531   4.214   1.389  0.2868 -0.5623  1.4666
 2389TIP3   OH228801   1.866   0.557   7.119  0.1479  0.2470  0.1719
 2389TIP3    H128802   1.922   0.539   7.043  1.2353 -0.1363  1.0453
 2389TIP3    H228803   1.859   0.473   7.164 -2.7942 -0.2320 -0.9529
 2390TIP3   OH228804   0.515   3.783   6.870 -0.4525  0.1773  0.0205
 2390TIP3    H128805   0.470   3.861   6.837 -0.0400  0.0218 -0.9631
 2390TIP3    H228806   0.608   3.799   6.852 -0.3862 -0.6525 -0.4928
 2391TIP3   OH228807   1.464   6.735   6.361 -0.3026  0.2020  0.1653
 2391TIP3    H128808   1.539   6.763   6.414  0.0638  0.9276 -0.7116
 2391TIP3    H228809   1.394   6.795   6.386 -1.0521 -1.3082  1.9821
 2392TIP3   OH228810   1.295   3.924   1.624 -0.5418 -0.1698 -0.3919
 2392TIP3    H128811   1.328   3.866   1.555 -0.5831 -1.2647  0.4969
 2392TIP3    H228812   1.265   3.866   1.693 -1.7294  0.8703  0.0254
 2393TIP3   OH228813   0.776   5.921   1.102 -0.0491  0.1889  0.3781
 2393TIP3    H128814   0.867   5.930   1.072 -0.5824 -0.8318 -1.6353
 2393TIP3    H228815   0.738   5.855   1.045 -1.5723 -0.7738  2.4014
 2394TIP3   OH228816   6.599   1.698   6.295  0.0591  0.2158 -0.2793
 2394TIP3    H128817   6.588   1.783   6.253 -0.7361  0.1844 -0.1498
 2394TIP3    H228818   6.663   1.713   6.364  0.1385  0.6413 -0.4454
 2395TIP3   OH228819   5.276   5.393   2.569 -0.1294  0.0572 -0.3143
 2395TIP3    H128820   5.283   5.303   2.601 -0.0641  0.6967  1.6243
 2395TIP3    H228821   5.285   5.447   2.648  0.8230  1.8103 -1.5512
 2396TIP3   OH228822   1.734   2.078   0.198  0.3524 -0.5518  0.4248
 2396TIP3    H128823   1.713   2.168   0.175  3.0996  0.0998  0.0994
 2396TIP3    H228824   1.818   2.084   0.244  1.6253 -3.1016 -1.3285
 2397TIP3   OH228825   5.803   4.191   7.234  0.0470  0.0343  0.0884
 2397TIP3    H128826   5.840   4.128   7.172 -1.7363  0.0069 -1.0161
 2397TIP3    H228827   5.874   4.210   7.295  0.6978 -2.8664  0.3302
 2398TIP3   OH228828   0.160   5.121   6.817 -0.0323  0.0397 -0.3133
 2398TIP3    H128829   0.129   5.202   6.776  1.0489  0.5017 -0.2640
 2398TIP3    H228830   0.118   5.051   6.767 -2.2395  0.5989  0.6196
 2399TIP3   OH228831   2.404   6.748   7.649 -0.3473 -0.1525  0.2179
 2399TIP3    H128832   2.410   6.771   7.742  0.4558 -0.1597  0.1681
 2399TIP3    H228833   2.438   6.824   7.603 -0.0062 -0.4640 -0.0432
 2400TIP3   OH228834   3.074   4.027   7.246  0.2624  0.1113  0.0487
 2400TIP3    H128835   3.065   4.111   7.201  1.3918 -0.4734 -1.3389
 2400TIP3    H228836   3.127   4.046   7.324 -0.6465  0.9055  0.4918
 2401TIP3   OH228837   0.211   1.960   7.740 -0.3184 -0.0043 -0.1546
 2401TIP3    H128838   0.208   1.893   7.808 -0.3065 -0.5393 -0.6819
 2401TIP3    H228839   0.141   1.937   7.679  3.0451 -2.7989 -3.3523
 2402TIP3   OH228840   1.731   4.257   8.210 -0.1311 -0.1310  0.0633
 2402TIP3    H128841   1.651   4.291   8.169 -0.7593 -0.9414  0.5955
 2402TIP3    H228842   1.708   4.170   8.240  0.6740 -0.0153  1.0904
 2403TIP3   OH228843   5.775   5.329   7.147 -0.6353 -0.1523 -0.8023
 2403TIP3    H128844   5.796   5.249   7.194 -0.2271  1.0507  1.1902
 2403TIP3    H228845   5.850   5.345   7.089  0.9908  0.6068  1.3892
 2404TIP3   OH228846   0.621   1.774   1.717 -0.3926  0.4239 -0.0578
 2404TIP3    H128847   0.688   1.733   1.662 -1.9895 -0.9753 -1.0741
 2404TIP3    H228848   0.670   1.813   1.789  1.6074  0.5536 -1.3892
 2405TIP3   OH228849   0.647   6.109   7.270  0.4025  0.1157  0.8134
 2405TIP3    H128850   0.689   6.139   7.351 -1.3233  0.8733  1.4871
 2405TIP3    H228851   0.577   6.051   7.300  0.7291 -0.8573 -0.2476
 2406TIP3   OH228852   6.676   4.010   1.384 -0.2249  0.0477 -0.6495
 2406TIP3    H128853   6.595   3.968   1.416  0.0590 -0.4489 -0.5730
 2406TIP3    H228854   6.647   4.094   1.349 -0.7603 -0.0683 -0.4945
 2407TIP3   OH228855   5.218   3.087   0.747 -0.3337 -0.6065  0.0096
 2407TIP3    H128856   5.273   3.115   0.674  0.3871  0.0038  0.7712
 2407TIP3    H228857   5.216   2.992   0.740  1.2180 -0.6744  0.2412
 2408TIP3   OH228858   4.308   1.833   1.555  0.2802 -0.4297 -0.4764
 2408TIP3    H128859   4.222   1.844   1.515 -0.2926 -1.6173  0.3517
 2408TIP3    H228860   4.291   1.838   1.649  0.7247 -2.9376 -0.2109
 2409TIP3   OH228861   6.697   6.360   0.787  0.3457  0.3938 -0.4176
 2409TIP3    H128862   6.607   6.338   0.813  1.1009 -2.5138  0.0772
 2409TIP3    H228863   6.741   6.382   0.869  0.5873 -0.3027 -0.3514
 2410TIP3   OH228864   3.872   4.612   0.942  0.2898 -0.2106  0.2833
 2410TIP3    H128865   3.914   4.569   0.867  0.4016 -0.2243  0.3538
 2410TIP3    H228866   3.866   4.544   1.009 -0.9778 -0.5629 -0.1573
 2411TIP3   OH228867   3.663   3.862   2.001  0.1857 -0.3748 -0.0336
 2411TIP3    H128868   3.757   3.867   2.020 -0.2047 -3.0622  3.6773
 2411TIP3    H228869   3.634   3.953   1.997  2.5064  0.5209  1.5550
 2412TIP3   OH228870   0.542   2.347   1.511  0.5648 -0.0616 -0.1365
 2412TIP3    H128871   0.447   2.342   1.501  0.5606 -0.3775  0.0391
 2412TIP3    H228872   0.577   2.298   1.437  0.6010  0.4566 -0.4634
 2413TIP3   OH228873   2.940   2.338   1.236 -0.2646 -0.0097  0.2079
 2413TIP3    H128874   2.976   2.249   1.233 -0.0056  0.0808  0.5757
 2413TIP3    H228875   2.963   2.371   1.322 -1.6116 -0.1025  0.6348
 2414TIP3   OH228876   0.851   6.346   1.813  0.1318  0.5702  0.3897
 2414TIP3    H128877   0.851   6.288   1.888 -0.7853  0.2133  0.1251
 2414TIP3    H228878   0.920   6.313   1.756 -0.1612 -0.0628  0.3970
 2415TIP3   OH228879   6.342   6.397   0.774  0.0223  0.5235  0.0613
 2415TIP3    H128880   6.378   6.324   0.724  2.2680  0.9976  0.8940
 2415TIP3    H228881   6.364   6.475   0.722 -0.8165  0.7667  0.0488
 2416TIP3   OH228882   5.596   2.868   0.254 -0.1932  0.5265 -0.1523
 2416TIP3    H128883   5.619   2.912   0.172  2.2497 -2.2620 -1.1903
 2416TIP3    H228884   5.637   2.921   0.322  0.3443  1.2881 -1.0414
 2417TIP3   OH228885   5.182   5.196   7.444 -0.3682 -0.4518  0.1404
 2417TIP3    H128886   5.161   5.194   7.538 -1.3030 -0.5984 -0.0650
 2417TIP3    H228887   5.275   5.219   7.441 -0.4520  0.0659  1.0886
 2418TIP3   OH228888   5.168   1.391   7.742 -0.2371 -0.2216  0.5389
 2418TIP3    H128889   5.105   1.449   7.786 -0.4347 -0.0208 -0.0007
 2418TIP3    H228890   5.113   1.328   7.696 -0.1937  1.4726 -2.0812
 2419TIP3   OH228891   0.073   5.367   0.690  0.2783  0.4951  0.0587
 2419TIP3    H128892   0.007   5.392   0.754  1.6874  1.7835  1.0699
 2419TIP3    H228893   0.031   5.380   0.605 -1.6088 -1.2201  0.6670
 2420TIP3   OH228894   0.934   2.552   2.085 -0.3643  0.3775  0.2827
 2420TIP3    H128895   0.908   2.586   2.171 -0.1929 -0.4927  0.6948
 2420TIP3    H228896   0.910   2.459   2.088 -1.0448  0.4914 -0.8978
 2421TIP3   OH228897   0.616   4.862   7.847 -0.3698 -0.5224  0.6592
 2421TIP3    H128898   0.524   4.838   7.850 -0.8147  0.9996 -0.0076
 2421TIP3    H228899   0.637   4.866   7.754  1.0032 -2.9529  0.7495
 2422TIP3   OH228900   0.799   4.083   2.331  0.1862 -0.0255 -1.2128
 2422TIP3    H128901   0.743   4.136   2.389 -0.4777 -0.9791 -0.9533
 2422TIP3    H228902   0.787   3.993   2.362  0.9329 -0.3885 -1.9379
 2423TIP3   OH228903   4.187   2.393   0.179  0.1032  0.3028  0.0472
 2423TIP3    H128904   4.099   2.354   0.181 -0.5454  1.6501 -0.5595
 2423TIP3    H228905   4.183   2.463   0.245  0.2169  1.3144 -0.9795
 2424TIP3   OH228906   4.601   5.536   6.695 -0.4266 -0.7909 -0.3397
 2424TIP3    H128907   4.583   5.603   6.629  0.5255 -0.6423 -0.4554
 2424TIP3    H228908   4.661   5.578   6.756  0.1794 -1.5372 -0.4100
 2425TIP3   OH228909   1.238   3.729   1.145  0.9499 -0.1923  0.4564
 2425TIP3    H128910   1.199   3.815   1.132  0.2234 -0.2188  2.1167
 2425TIP3    H228911   1.162   3.671   1.156  1.4229 -0.5359  2.1062
 2426TIP3   OH228912   5.364   2.266   0.413 -0.2789  0.0520 -0.5557
 2426TIP3    H128913   5.390   2.304   0.497  2.0571  0.2789 -1.3091
 2426TIP3    H228914   5.286   2.214   0.434 -0.4718  1.0415  1.5027
 2427TIP3   OH228915   4.219   4.531   6.710 -0.6273  0.6514 -0.0715
 2427TIP3    H128916   4.176   4.543   6.626 -0.3746  3.7837  0.1279
 2427TIP3    H228917   4.311   4.550   6.693 -0.5331  1.0896  0.8569
 2428TIP3   OH228918   4.381   2.792   1.339 -0.2151  0.2927 -0.2497
 2428TIP3    H128919   4.300   2.838   1.319 -0.3143 -0.7048 -2.4861
 2428TIP3    H228920   4.354   2.720   1.396 -0.4391  1.4882  1.2058
 2429TIP3   OH228921   4.651   2.765   1.039 -0.2323 -0.0773 -0.0072
 2429TIP3    H128922   4.710   2.832   1.073  0.1141 -0.5659  0.3764
 2429TIP3    H228923   4.673   2.756   0.947  1.3604 -1.3207  0.4443
 2430TIP3   OH228924   6.248   0.825   8.146  0.6161 -0.0908 -0.7521
 2430TIP3    H128925   6.270   0.750   8.201  0.1913  0.2502 -0.1003
 2430TIP3    H228926   6.195   0.881   8.203 -0.4434 -0.0689 -1.7329
 2431TIP3   OH228927   2.837   4.465   1.022  0.1930 -0.4675 -0.0690
 2431TIP3    H128928   2.926   4.501   1.022  0.7141 -1.6563  1.2063
 2431TIP3    H228929   2.837   4.401   0.950  1.2153 -2.2678  1.4271
 2432TIP3   OH228930   2.441   5.485   8.581  0.1378  0.3138  0.2445
 2432TIP3    H128931   2.505   5.550   8.552  0.6186  0.8009  2.2412
 2432TIP3    H228932   2.487   5.435   8.649 -0.5835 -1.4385 -0.4998
 2433TIP3   OH228933   5.860   4.757   0.480 -0.1224 -0.5471 -0.1738
 2433TIP3    H128934   5.939   4.740   0.531  1.9607  1.3979 -2.4381
 2433TIP3    H228935   5.823   4.837   0.519 -0.0263 -0.5293 -0.1189
 2434TIP3   OH228936   5.385   3.315   7.900  0.4103 -0.2232  0.0249
 2434TIP3    H128937   5.469   3.340   7.940 -0.3666  1.3846  0.7269
 2434TIP3    H228938   5.371   3.380   7.832  0.0989 -0.9737 -0.6415
 2435TIP3   OH228939   4.089   3.016   0.594 -0.2305  0.4226 -0.2917
 2435TIP3    H128940   4.104   3.095   0.645 -1.5089  0.7068 -0.3244
 2435TIP3    H228941   4.049   3.047   0.512  0.1446 -0.1783 -0.7103
 2436TIP3   OH228942   1.029   6.304   0.861  0.3089 -0.4800 -0.1103
 2436TIP3    H128943   1.110   6.333   0.817  0.0505 -1.8630 -1.5991
 2436TIP3    H228944   0.960   6.350   0.814  0.1172 -0.7993 -0.1413
 2437TIP3   OH228945   1.946   4.439   0.541 -0.1524 -0.5631 -0.7480
 2437TIP3    H128946   1.975   4.359   0.497 -1.1589 -1.1497 -0.3846
 2437TIP3    H228947   1.864   4.462   0.497 -0.7444 -0.6933  0.2662
 2438TIP3   OH228948   1.423   0.760   1.738  0.1392 -0.3678 -0.5630
 2438TIP3    H128949   1.388   0.745   1.650 -1.4779 -1.3284  0.1945
 2438TIP3    H228950   1.428   0.673   1.777 -0.0162  0.1258  0.5894
 2439TIP3   OH228951   5.365   0.732   8.060  0.6923  0.4920  0.5124
 2439TIP3    H128952   5.399   0.811   8.017  0.0821 -0.1572 -1.2863
 2439TIP3    H228953   5.281   0.758   8.097  1.4932  1.2159  1.8660
 2440TIP3   OH228954   6.220   5.721   0.700  0.2087  0.1213  0.0103
 2440TIP3    H128955   6.221   5.626   0.697  1.1614  0.1023  0.6194
 2440TIP3    H228956   6.162   5.747   0.628 -1.5212 -0.9540  0.9356
 2441TIP3   OH228957   0.499   5.251   6.514  0.0986 -0.5576  0.0206
 2441TIP3    H128958   0.561   5.293   6.454 -0.4662  0.7187  0.2962
 2441TIP3    H228959   0.425   5.312   6.518  0.2036 -0.5119  2.1638
 2442TIP3   OH228960   3.062   0.973   7.219 -0.3053  0.1124 -0.3588
 2442TIP3    H128961   3.098   1.024   7.291 -0.6481  0.8882 -0.7272
 2442TIP3    H228962   3.099   0.886   7.230 -1.3643 -0.1506  1.5080
 2443TIP3   OH228963   0.545   0.266   0.414  0.4165  0.2963 -0.3582
 2443TIP3    H128964   0.576   0.342   0.462 -1.3186  1.2255 -0.6247
 2443TIP3    H228965   0.534   0.297   0.324 -1.2598  0.0510 -0.2684
 2444TIP3   OH228966   4.607   4.101   8.057  0.1577 -0.3667 -0.6212
 2444TIP3    H128967   4.674   4.112   8.125 -0.9870 -0.1718  0.5192
 2444TIP3    H228968   4.656   4.076   7.979  1.4737 -1.0951  0.3968
 2445TIP3   OH228969   1.862   2.253   8.085  0.0493  0.1088  0.0707
 2445TIP3    H128970   1.777   2.271   8.126  0.4090 -0.2484  0.9987
 2445TIP3    H228971   1.873   2.322   8.020 -0.9994  0.0993 -0.1350
 2446TIP3   OH228972   6.137   6.111   8.367  1.0794  0.0417 -0.3265
 2446TIP3    H128973   6.228   6.100   8.339  1.3057 -0.0324  0.4295
 2446TIP3    H228974   6.132   6.202   8.396  1.0936 -0.1475  0.2827
 2447TIP3   OH228975   3.077   2.691   8.019 -0.4071 -0.3272 -0.0385
 2447TIP3    H128976   3.022   2.766   7.997  1.1206  1.4083  1.7336
 2447TIP3    H228977   3.156   2.729   8.056  1.0998 -2.8060 -0.4878
 2448TIP3   OH228978   4.690   5.431   0.944 -0.2259 -0.0593 -0.2429
 2448TIP3    H128979   4.756   5.379   0.897  2.6512 -0.9699  4.2814
 2448TIP3    H228980   4.615   5.372   0.951  0.1102 -0.7025 -1.6729
 2449TIP3   OH228981   4.684   4.520   1.665  0.4395 -0.5481 -0.3513
 2449TIP3    H128982   4.610   4.579   1.681 -0.0906 -1.4514  0.6455
 2449TIP3    H228983   4.699   4.477   1.749  2.2341 -0.2673 -0.4801
 2450TIP3   OH228984   3.544   4.348   6.214  0.0080 -0.0318 -0.7908
 2450TIP3    H128985   3.561   4.423   6.271  1.8565  0.7945 -2.3110
 2450TIP3    H228986   3.519   4.277   6.274  0.4815  1.1702  0.8933
 2451TIP3   OH228987   6.186   5.624   2.212  0.0954 -0.3117  0.2907
 2451TIP3    H128988   6.230   5.611   2.296  0.8938 -0.6862 -0.1862
 2451TIP3    H228989   6.106   5.672   2.235 -0.2305 -1.3415  1.3924
 2452TIP3   OH228990   2.642   1.863   0.652  0.6124  0.2878 -0.1724
 2452TIP3    H128991   2.637   1.768   0.647 -0.6507  0.2908  0.4422
 2452TIP3    H228992   2.626   1.894   0.563 -0.6442 -0.0553 -0.0836
 2453TIP3   OH228993   5.072   4.045   2.313 -0.0580 -0.2110  0.4008
 2453TIP3    H128994   5.165   4.048   2.290  0.4534 -1.7549  2.0501
 2453TIP3    H228995   5.058   3.957   2.347 -1.7378  0.5128  1.7750
 2454TIP3   OH228996   5.254   1.331   8.470  0.1654  0.2586  0.3353
 2454TIP3    H128997   5.208   1.256   8.507  0.2648 -0.3935 -0.8160
 2454TIP3    H228998   5.185   1.387   8.435  0.2156 -0.9648 -1.8486
 2455TIP3   OH228999   2.147   4.126   6.909  0.3580  0.3282  0.0440
 2455TIP3    H129000   2.157   4.186   6.835  1.6457 -0.2568 -0.2959
 2455TIP3    H229001   2.057   4.096   6.904  0.5752 -0.1342 -1.6451
 2456TIP3   OH229002   1.518   1.483   8.059 -0.4795  0.2715  0.3445
 2456TIP3    H129003   1.596   1.481   8.004  0.1838  0.2592  1.2709
 2456TIP3    H229004   1.531   1.414   8.123 -1.5804 -0.2006  0.0963
 2457TIP3   OH229005   1.454   0.986   7.782 -0.2483  0.3895  0.5279
 2457TIP3    H129006   1.474   1.010   7.691 -2.3999 -0.7282 -0.3018
 2457TIP3    H229007   1.439   1.069   7.826 -2.8526  0.8982 -1.1034
 2458TIP3   OH229008   3.719   3.094   6.866 -0.3130  0.1652  0.7909
 2458TIP3    H129009   3.625   3.079   6.859 -0.3579  0.4723  0.7060
 2458TIP3    H229010   3.753   3.076   6.778 -0.4255  0.9352  0.5779
 2459TIP3   OH229011   3.489   1.131   7.965 -0.6102  0.3041 -0.1186
 2459TIP3    H129012   3.556   1.067   7.988 -1.1086 -0.6083 -1.1443
 2459TIP3    H229013   3.420   1.118   8.031 -0.0092  0.9386  0.6660
 2460TIP3   OH229014   3.904   1.267   0.857  0.0678  0.5838  0.1833
 2460TIP3    H129015   3.822   1.314   0.843 -0.0123  0.1393 -0.9076
 2460TIP3    H229016   3.972   1.326   0.824  0.2469  1.0883  1.3765
 2461TIP3   OH229017   1.947   2.800   7.485 -0.0288  0.1890 -0.3161
 2461TIP3    H129018   2.031   2.756   7.479 -0.5473 -1.0377  0.8109
 2461TIP3    H229019   1.934   2.812   7.579 -1.5752 -0.6121 -0.3979
 2462TIP3   OH229020   3.054   4.812   0.389  0.5355 -0.1330  0.0919
 2462TIP3    H129021   3.005   4.873   0.335  1.1479 -0.5254 -0.9304
 2462TIP3    H229022   3.034   4.838   0.479 -1.2200 -0.0411 -0.2930
 2463TIP3   OH229023   3.250   4.387   7.917  0.1823 -0.1141  0.2202
 2463TIP3    H129024   3.292   4.336   7.987 -0.9419  0.3295  1.2659
 2463TIP3    H229025   3.293   4.358   7.837  2.1106 -0.0394  1.1623
 2464TIP3   OH229026   5.976   4.066   1.445 -0.1784  0.3738 -0.2584
 2464TIP3    H129027   6.049   4.056   1.506  0.0364 -2.2055 -0.7868
 2464TIP3    H229028   6.005   4.019   1.366 -1.7690  0.6955 -1.0778
 2465TIP3   OH229029   6.425   5.584   0.121 -0.1189 -0.5911 -0.1191
 2465TIP3    H129030   6.433   5.497   0.081  0.8382 -0.2824 -0.6315
 2465TIP3    H229031   6.497   5.634   0.083  0.9113 -0.3162  2.0862
 2466TIP3   OH229032   2.155   5.566   0.919  0.2362 -0.0986 -0.4218
 2466TIP3    H129033   2.077   5.511   0.906  0.0776 -0.2695  1.1020
 2466TIP3    H229034   2.146   5.600   1.008  2.2487 -0.6748  0.0484
 2467TIP3   OH229035   0.709   1.890   1.184  0.0528 -0.3410  0.0573
 2467TIP3    H129036   0.642   1.855   1.126  0.3510 -0.8724  0.0306
 2467TIP3    H229037   0.766   1.816   1.204  1.5206  0.4004 -1.1162
 2468TIP3   OH229038   3.210   3.394   7.711  0.2535 -1.0528  0.0869
 2468TIP3    H129039   3.117   3.415   7.696 -0.3389 -1.3296  2.7430
 2468TIP3    H229040   3.257   3.443   7.644 -1.6591  1.6193  0.5258
 2469TIP3   OH229041   2.606   0.089   8.471  0.2311 -0.1482 -0.0875
 2469TIP3    H129042   2.679   0.145   8.445  1.3425 -1.2902  0.5003
 2469TIP3    H229043   2.532   0.150   8.480  1.5804  1.4022  1.3399
 2470TIP3   OH229044   1.445   4.550   1.480  0.7162 -0.0024 -0.1960
 2470TIP3    H129045   1.427   4.611   1.551  0.2406 -0.2858 -0.0715
 2470TIP3    H229046   1.473   4.605   1.407 -0.2367  0.4096 -0.2585
 2471TIP3   OH229047   2.615   3.576   7.034 -0.1524 -0.0995 -0.2302
 2471TIP3    H129048   2.549   3.645   7.025  0.0802  0.2326  0.5978
 2471TIP3    H229049   2.633   3.549   6.944 -0.8156  0.3776 -0.5135
 2472TIP3   OH229050   5.849   6.184   6.684 -0.2230  0.3039  0.1702
 2472TIP3    H129051   5.782   6.243   6.647 -1.2853 -1.0679 -0.1675
 2472TIP3    H229052   5.930   6.211   6.642 -0.3230  2.6986  1.3515
 2473TIP3   OH229053   5.973   5.944   8.237  0.8308 -0.5715 -0.0838
 2473TIP3    H129054   6.028   6.016   8.270 -2.2067  2.4230 -0.9848
 2473TIP3    H229055   5.989   5.943   8.143  1.7263 -1.9998  0.0488
 2474TIP3   OH229056   2.973   0.336   1.555 -0.0698  0.2512  0.4255
 2474TIP3    H129057   2.977   0.367   1.464 -2.9179 -1.7879 -0.5522
 2474TIP3    H229058   2.907   0.392   1.596 -1.9179 -1.4573 -0.0710
 2475TIP3   OH229059   2.289   5.280   0.522 -0.4577  0.2515  0.6133
 2475TIP3    H129060   2.199   5.302   0.499 -0.2922 -1.4467 -2.0642
 2475TIP3    H229061   2.302   5.192   0.487  2.9693  1.4086 -1.4709
 2476TIP3   OH229062   0.541   6.951   0.333 -0.5123 -0.4995  0.3121
 2476TIP3    H129063   0.547   7.030   0.387  1.2288 -0.7754  0.5927
 2476TIP3    H229064   0.632   6.928   0.314 -0.9815 -2.3654  0.1203
 2477TIP3   OH229065   2.484   2.424   8.527  0.7017 -0.2043 -0.4523
 2477TIP3    H129066   2.420   2.491   8.548 -0.4976 -1.5323  0.3455
 2477TIP3    H229067   2.439   2.367   8.464  1.5732 -0.4316 -0.8806
 2478TIP3   OH229068   0.815   5.003   7.185  0.0927  0.4529 -0.3038
 2478TIP3    H129069   0.788   5.031   7.097  0.1252  2.7136  0.3303
 2478TIP3    H229070   0.742   4.951   7.218  0.1178 -0.5037 -1.6828
 2479TIP3   OH229071   3.285   5.567   6.211 -0.2529  0.5978 -0.4260
 2479TIP3    H129072   3.301   5.511   6.287  0.8839  1.1335 -0.2393
 2479TIP3    H229073   3.287   5.508   6.136  1.2272  0.4080 -0.2615
 2480TIP3   OH229074   0.429   5.046   1.065 -0.5825 -0.1742  0.0686
 2480TIP3    H129075   0.410   5.108   1.134 -0.6085 -0.1336  0.0250
 2480TIP3    H229076   0.415   5.095   0.984 -1.3272 -0.4518  0.0252
 2481TIP3   OH229077   4.819   6.166   1.292 -0.0708 -0.7647 -0.1556
 2481TIP3    H129078   4.907   6.198   1.276 -0.8369  1.7736  0.3058
 2481TIP3    H229079   4.779   6.159   1.205 -0.2303  0.7025 -0.2237
 2482TIP3   OH229080   0.887   4.126   8.483 -0.6226  0.3854 -0.0193
 2482TIP3    H129081   0.953   4.136   8.551 -1.2131  2.0771  0.3559
 2482TIP3    H229082   0.888   4.033   8.462  1.0693  0.1898  0.7737
 2483TIP3   OH229083   4.469   1.916   1.065  0.3058  0.1399 -0.5258
 2483TIP3    H129084   4.400   1.977   1.091 -0.3945  0.0524 -2.0603
 2483TIP3    H229085   4.477   1.857   1.140 -1.0354  0.3739 -0.1533
 2484TIP3   OH229086   2.085   6.810   7.135 -0.4798 -0.4577 -0.0914
 2484TIP3    H129087   2.125   6.772   7.057  0.1630 -0.9418  0.4515
 2484TIP3    H229088   2.037   6.737   7.175  1.0675 -0.8475  1.1622
 2485TIP3   OH229089   1.155   3.739   1.850 -0.1627 -0.1510  0.2426
 2485TIP3    H129090   1.143   3.732   1.944  0.6387 -0.1031  0.3524
 2485TIP3    H229091   1.157   3.649   1.818  0.6249 -0.1976  0.4128
 2486TIP3   OH229092   4.958   0.070   0.911  0.5088 -0.2667  0.2412
 2486TIP3    H129093   5.022   0.126   0.954 -0.1677  0.5669  0.1974
 2486TIP3    H229094   4.879   0.077   0.966 -0.6186  1.3980 -1.4637
 2487TIP3   OH229095   0.989   1.902   1.382  0.2926 -0.0714 -0.1164
 2487TIP3    H129096   1.080   1.874   1.389  0.2661  0.0074  0.6827
 2487TIP3    H229097   0.973   1.912   1.288  1.2097  0.2545 -0.2385
 2488TIP3   OH229098   6.169   1.209   7.202  0.3997  0.0158  0.4305
 2488TIP3    H129099   6.168   1.218   7.107  1.2074  0.0025  0.4162
 2488TIP3    H229100   6.256   1.239   7.228 -0.6854  2.6479  1.4353
 2489TIP3   OH229101   5.376   3.224   6.298 -0.0560 -0.0934  0.2021
 2489TIP3    H129102   5.451   3.178   6.262 -0.0868 -0.9252  1.1567
 2489TIP3    H229103   5.390   3.316   6.274  0.1469 -0.5400 -1.4780
 2490TIP3   OH229104   1.110   1.363   8.465 -0.0373  0.1861 -0.0270
 2490TIP3    H129105   1.157   1.404   8.392 -0.5180  1.2711  0.2482
 2490TIP3    H229106   1.057   1.434   8.501 -1.9522 -1.0301 -0.3672
 2491TIP3   OH229107   0.063   6.753   1.586 -0.8908  0.6809 -0.3865
 2491TIP3    H129108   0.045   6.668   1.624  1.5464  0.4312  0.3923
 2491TIP3    H229109   0.084   6.809   1.660  1.5040  0.8376 -1.1010
 2492TIP3   OH229110   1.345   6.856   2.738 -0.4751  0.1859  0.3734
 2492TIP3    H129111   1.320   6.870   2.647  1.7325  0.9988 -0.1877
 2492TIP3    H229112   1.352   6.944   2.775  0.2535 -0.0443  0.8189
 2493TIP3   OH229113   0.805   2.612   8.521  0.0506 -0.0462 -0.0731
 2493TIP3    H129114   0.873   2.570   8.468 -0.1770 -0.7975  0.2201
 2493TIP3    H229115   0.853   2.660   8.588  0.3384  0.8383 -0.8937
 2494TIP3   OH229116   2.310   2.242   0.575 -0.3906 -0.4206  0.0307
 2494TIP3    H129117   2.369   2.175   0.609 -0.7056  0.1823  1.8359
 2494TIP3    H229118   2.244   2.254   0.643 -0.0846  2.0349  0.0029
 2495TIP3   OH229119   0.141   4.726   6.526 -0.0555  0.1699  0.1307
 2495TIP3    H129120   0.093   4.647   6.502 -0.0513  0.2238 -0.0564
 2495TIP3    H229121   0.231   4.697   6.539 -0.2425 -0.0480  1.0898
 2496TIP3   OH229122   2.034   2.806   1.211 -0.2191 -0.7545 -0.1249
 2496TIP3    H129123   2.044   2.795   1.306 -2.5715 -1.5928  0.1005
 2496TIP3    H229124   1.995   2.893   1.201 -2.1168 -1.5583 -0.0852
 2497TIP3   OH229125   5.825   4.908   0.820 -0.0673 -1.1429  0.1457
 2497TIP3    H129126   5.918   4.908   0.797  0.1687 -0.7379  1.0755
 2497TIP3    H229127   5.781   4.934   0.739  0.5545 -2.1723 -0.5483
 2498TIP3   OH229128   6.639   6.161   7.878  0.1664  0.2788  0.6517
 2498TIP3    H129129   6.629   6.217   7.802 -0.0882  1.9743  1.8688
 2498TIP3    H229130   6.596   6.079   7.854 -1.4696  1.3942 -0.4145
 2499TIP3   OH229131   1.902   3.529   7.732 -0.5657  0.2300 -0.0608
 2499TIP3    H129132   1.946   3.452   7.767 -0.3699 -0.1333 -1.0788
 2499TIP3    H229133   1.973   3.591   7.714 -0.4672 -0.2266 -1.3775
 2500TIP3   OH229134   4.915   3.002   6.263 -0.4499 -0.5586 -0.0586
 2500TIP3    H129135   4.897   3.014   6.170 -0.6200 -1.4173 -0.1393
 2500TIP3    H229136   5.008   2.979   6.266 -0.7404 -1.8243 -0.1435
 2501TIP3   OH229137   5.203   2.794   0.715  0.0617 -0.0030  0.4314
 2501TIP3    H129138   5.284   2.758   0.678 -0.3909 -0.7661  0.1627
 2501TIP3    H229139   5.204   2.767   0.807 -0.0070 -0.2262  0.3666
 2502TIP3   OH229140   4.003   2.348   1.147 -0.1028 -0.0816  0.1865
 2502TIP3    H129141   4.094   2.333   1.174 -0.2410 -1.0680  0.1367
 2502TIP3    H229142   4.009   2.372   1.054  0.0364 -1.1889 -0.0998
 2503TIP3   OH229143   5.256   6.509   2.209  0.1309 -0.4180  0.6027
 2503TIP3    H129144   5.208   6.426   2.203  1.4679 -1.1099 -1.7603
 2503TIP3    H229145   5.190   6.576   2.191 -0.6197 -1.0759  0.8328
 2504TIP3   OH229146   4.623   0.063   7.558 -0.1573  0.0484 -0.6499
 2504TIP3    H129147   4.658   0.152   7.564 -0.5287  0.1185  0.7877
 2504TIP3    H229148   4.674   0.022   7.488 -0.2797  1.5155 -1.6224
 2505TIP3   OH229149   1.271   6.271   6.833 -0.0134 -0.2676 -0.3575
 2505TIP3    H129150   1.324   6.244   6.758  2.0836  0.0694  0.8851
 2505TIP3    H229151   1.262   6.192   6.886  1.2746  0.1401  0.5342
 2506TIP3   OH229152   1.542   2.795   7.903 -0.9650  0.6592  0.7391
 2506TIP3    H129153   1.491   2.750   7.836 -1.0510  3.0994 -0.9505
 2506TIP3    H229154   1.511   2.885   7.900  2.8511  2.1113  0.1915
 2507TIP3   OH229155   2.329   0.551   8.418  0.5261 -0.4373  0.1131
 2507TIP3    H129156   2.309   0.614   8.487  0.2822 -0.2575 -0.1179
 2507TIP3    H229157   2.253   0.553   8.361  0.3656 -1.2037  0.2874
 2508TIP3   OH229158   1.333   5.368   0.493 -0.3545 -0.4511  0.1066
 2508TIP3    H129159   1.341   5.367   0.398  0.3355 -0.9163  0.1646
 2508TIP3    H229160   1.270   5.438   0.511  0.1812  0.2538 -0.6479
 2509TIP3   OH229161   1.553   0.411   8.207 -1.0863  0.4718 -0.6364
 2509TIP3    H129162   1.562   0.430   8.113 -1.4425  1.7931 -0.4299
 2509TIP3    H229163   1.574   0.318   8.215 -1.1093  0.3224 -2.0370
 2510TIP3   OH229164   3.709   2.438   0.942  0.8991  0.2205  0.1161
 2510TIP3    H129165   3.696   2.424   0.848  1.7739  1.5458 -0.2311
 2510TIP3    H229166   3.762   2.517   0.947 -1.4637  1.8352  1.8309
 2511TIP3   OH229167   3.774   3.109   7.876 -0.0554 -0.5578  0.2414
 2511TIP3    H129168   3.852   3.096   7.929 -0.4558  0.6554  1.1805
 2511TIP3    H229169   3.701   3.082   7.933 -0.3528 -1.3949 -0.5128
 2512TIP3   OH229170   4.438   4.881   0.720  0.1914  0.2081 -0.2597
 2512TIP3    H129171   4.474   4.938   0.653  0.5677  0.8330  0.4681
 2512TIP3    H229172   4.511   4.825   0.747  0.6846  1.5131  1.2532
 2513TIP3   OH229173   6.380   1.288   8.413 -0.6545  0.0076  0.0239
 2513TIP3    H129174   6.433   1.366   8.428 -1.1012  0.4132 -0.4971
 2513TIP3    H229175   6.423   1.219   8.465 -1.4673  1.0700  2.2560
 2514TIP3   OH229176   1.179   6.216   7.180 -0.6131 -0.3177 -0.1391
 2514TIP3    H129177   1.085   6.234   7.187 -0.2443  1.1508  2.2076
 2514TIP3    H229178   1.217   6.257   7.258  2.1169  0.0245 -1.5280
 2515TIP3   OH229179   1.352   2.838   0.515 -0.5593 -0.1977 -0.4290
 2515TIP3    H129180   1.385   2.899   0.450 -0.0317  0.8107  0.7343
 2515TIP3    H229181   1.428   2.821   0.572 -1.1649 -0.5486  0.2908
 2516TIP3   OH229182   2.883   1.435   7.711  0.1150 -0.2013 -0.6756
 2516TIP3    H129183   2.824   1.485   7.655 -0.0217  1.1201  0.6030
 2516TIP3    H229184   2.949   1.399   7.651 -1.5502 -1.1229 -2.0284
 2517TIP3   OH229185   6.458   0.203   2.365 -0.0947  0.8057  0.1144
 2517TIP3    H129186   6.404   0.127   2.386  0.7665  0.0875 -0.2104
 2517TIP3    H229187   6.508   0.177   2.288 -0.6044  2.1147 -0.6773
 2518TIP3   OH229188   2.552   0.792   0.024  0.8461  0.6031  0.1118
 2518TIP3    H129189   2.533   0.735   0.099  2.5305 -0.8479 -0.4959
 2518TIP3    H229190   2.487   0.769  -0.041  0.5571  0.4900  0.4371
 2519TIP3   OH229191   4.458   0.520   7.098 -0.4189 -0.0046 -0.6317
 2519TIP3    H129192   4.416   0.603   7.119 -0.3093 -0.3898  1.2922
 2519TIP3    H229193   4.400   0.480   7.033 -2.0306  0.3254  0.5480
 2520TIP3   OH229194   0.934   3.215   1.474  0.3050  0.0899 -0.3560
 2520TIP3    H129195   0.976   3.176   1.397 -1.2933 -0.8728 -0.7900
 2520TIP3    H229196   0.890   3.293   1.441  0.2469  0.0899 -0.2791
 2521TIP3   OH229197   2.666   2.545   6.692  0.1552  0.0532 -0.3146
 2521TIP3    H129198   2.750   2.499   6.695  0.1471 -0.0238 -1.1655
 2521TIP3    H229199   2.684   2.625   6.642 -0.0306  0.5872  0.4387
 2522TIP3   OH229200   1.845   6.325   1.204 -0.6895 -0.7987  0.3818
 2522TIP3    H129201   1.850   6.420   1.202  1.7788 -0.8470 -1.6882
 2522TIP3    H229202   1.885   6.300   1.287 -1.1072 -0.0491  0.8182
 2523TIP3   OH229203   3.502   3.077   0.785  0.5601 -0.3087 -0.0759
 2523TIP3    H129204   3.428   3.073   0.845 -0.3337  1.6568 -0.9858
 2523TIP3    H229205   3.557   3.148   0.818  0.5080  0.2072 -1.0538
 2524TIP3   OH229206   2.701   4.841   8.216 -0.6989 -0.1067 -0.1956
 2524TIP3    H129207   2.654   4.815   8.137 -0.7826  0.2152 -0.2535
 2524TIP3    H229208   2.696   4.764   8.273 -1.3025 -0.0768 -0.1968
 2525TIP3   OH229209   5.033   5.810   8.335 -0.1883  0.0784 -0.1370
 2525TIP3    H129210   4.969   5.741   8.316  0.7516 -1.0216  0.5773
 2525TIP3    H229211   5.038   5.814   8.430 -0.3538  1.2726 -0.1643
 2526TIP3   OH229212   4.539   4.878   7.757 -0.5139 -0.2544  0.2390
 2526TIP3    H129213   4.570   4.804   7.810  1.3158  0.3521  0.0595
 2526TIP3    H229214   4.607   4.944   7.766 -1.3726  0.8137 -0.8892
 2527TIP3   OH229215   2.825   0.638   0.961 -0.2363 -0.2242  0.2286
 2527TIP3    H129216   2.875   0.678   0.889  0.8928 -2.4541 -0.3228
 2527TIP3    H229217   2.887   0.581   1.004 -1.1289  0.4519  2.5499
 2528TIP3   OH229218   1.626   6.361   6.166 -0.5988  0.2583  0.0396
 2528TIP3    H129219   1.682   6.308   6.223 -2.1216 -1.6870 -0.1975
 2528TIP3    H229220   1.674   6.444   6.157  0.8820 -0.2926  2.0746
 2529TIP3   OH229221   0.428   5.238   7.186 -0.1833  0.0731  0.0404
 2529TIP3    H129222   0.349   5.201   7.146  0.0013 -1.6541  1.1654
 2529TIP3    H229223   0.397   5.279   7.267 -0.1473  0.9026 -0.3605
 2530TIP3   OH229224   3.502   1.872   6.728  0.2882 -0.1574  0.7325
 2530TIP3    H129225   3.415   1.850   6.762 -0.0078 -0.7948 -0.3906
 2530TIP3    H229226   3.490   1.958   6.687 -0.2011 -0.8976 -0.7314
 2531TIP3   OH229227   5.755   4.488   7.697 -0.3715  0.5476  0.0746
 2531TIP3    H129228   5.666   4.518   7.717  0.6035  2.6643  1.6168
 2531TIP3    H229229   5.749   4.393   7.702 -2.4694  0.6448  0.5125
 2532TIP3   OH229230   3.583   4.208   1.674  0.1010 -0.1721  0.4241
 2532TIP3    H129231   3.636   4.218   1.752 -0.4910 -1.3449  1.0022
 2532TIP3    H229232   3.535   4.291   1.667 -0.9829 -0.5994  2.1886
 2533TIP3   OH229233   2.850   0.252   7.232 -0.0267 -0.6825  0.1390
 2533TIP3    H129234   2.856   0.159   7.212 -0.9733 -1.3859  2.7557
 2533TIP3    H229235   2.909   0.265   7.307 -0.7242  0.5839  0.5100
 2534TIP3   OH229236   3.848   3.360   1.439  0.3690  0.3809 -0.0708
 2534TIP3    H129237   3.795   3.369   1.360 -2.6094  0.6871  1.8179
 2534TIP3    H229238   3.890   3.274   1.429 -0.8894 -0.1220 -1.4664
 2535TIP3   OH229239   3.521   5.594   7.233 -0.6342  0.2950  0.8467
 2535TIP3    H129240   3.536   5.552   7.148  0.5418  2.1280  0.0873
 2535TIP3    H229241   3.477   5.676   7.212  1.4983  1.7671  1.7140
 2536TIP3   OH229242   1.381   1.703   7.467  0.3282  0.5901 -0.3123
 2536TIP3    H129243   1.450   1.641   7.443 -0.2264  0.7899 -2.7570
 2536TIP3    H229244   1.309   1.647   7.496  0.8905  0.2878  0.5334
 2537TIP3   OH229245   6.720   4.041   8.432  0.8813  0.0228  0.2158
 2537TIP3    H129246   6.724   3.947   8.417  1.9221  0.2190 -0.9382
 2537TIP3    H229247   6.791   4.058   8.494  0.7094  0.0439  0.4051
 2538TIP3   OH229248   4.841   5.244   0.149  0.2255 -0.1706 -0.1126
 2538TIP3    H129249   4.877   5.157   0.134 -2.0367 -1.3357  0.6556
 2538TIP3    H229250   4.827   5.279   0.061 -1.0431 -1.6109 -0.5355
 2539TIP3   OH229251   1.850   6.506   0.823 -0.1201 -0.6215 -0.2640
 2539TIP3    H129252   1.859   6.583   0.879 -0.0966 -1.1749  0.5135
 2539TIP3    H229253   1.937   6.467   0.821 -0.1724 -0.7314 -0.5096
 2540TIP3   OH229254   4.217   1.286   1.527  0.5516  0.1098 -0.0372
 2540TIP3    H129255   4.289   1.226   1.546 -0.0115 -0.0821  1.6524
 2540TIP3    H229256   4.260   1.370   1.508  1.3266 -0.6924 -2.1466
 2541TIP3   OH229257   2.854   2.563   7.612  0.4492  0.8436  0.1051
 2541TIP3    H129258   2.796   2.556   7.688  0.5703 -0.7102  0.0804
 2541TIP3    H229259   2.929   2.614   7.643  0.6736 -0.0974  1.1527
 2542TIP3   OH229260   6.752   3.812   1.194  0.1649  0.0090  0.1615
 2542TIP3    H129261   6.697   3.738   1.171  0.5845  0.0199 -0.9115
 2542TIP3    H229262   6.700   3.863   1.256  0.4110 -1.9063  2.0589
 2543TIP3   OH229263   4.501   6.010   0.889  0.5216 -0.6608  0.2929
 2543TIP3    H129264   4.479   5.918   0.872 -0.4855 -0.2548 -0.7467
 2543TIP3    H229265   4.536   6.041   0.805  0.6470 -0.0403  0.5734
 2544TIP3   OH229266   0.650   6.439   0.986  0.3403  0.4187 -0.0594
 2544TIP3    H129267   0.628   6.517   0.935 -1.6504 -0.4497 -0.6293
 2544TIP3    H229268   0.569   6.417   1.032  1.6750  0.3242  2.3715
 2545TIP3   OH229269   1.204   5.158   1.229 -0.3314  0.0690  0.0931
 2545TIP3    H129270   1.176   5.211   1.303  0.6022 -1.7598  1.8659
 2545TIP3    H229271   1.134   5.093   1.217 -0.4044  0.2518 -0.5488
 2546TIP3   OH229272   0.247   6.646   8.147  0.0411  0.3801  0.1630
 2546TIP3    H129273   0.254   6.659   8.053 -0.0454  0.2868  0.1448
 2546TIP3    H229274   0.338   6.649   8.178  0.0592  0.5604  0.0967
 2547TIP3   OH229275   3.168   5.073   8.041 -0.0805  0.1179 -0.5954
 2547TIP3    H129276   3.152   5.105   8.129 -0.2349 -1.8948  0.1607
 2547TIP3    H229277   3.129   5.139   7.984 -0.1793  1.3485  0.8342
 2548TIP3   OH229278   1.782   0.300   7.288  0.0970 -0.1043 -0.1563
 2548TIP3    H129279   1.717   0.260   7.346  1.9217 -0.7852  1.5485
 2548TIP3    H229280   1.816   0.228   7.236  0.7510 -0.1207  0.2746
 2549TIP3   OH229281   5.607   2.763   0.935  0.4841  0.3993  0.4413
 2549TIP3    H129282   5.555   2.830   0.891  0.2909  0.0778  0.1675
 2549TIP3    H229283   5.671   2.735   0.870  1.3457  1.1607  0.9508
 2550TIP3   OH229284   1.127   4.542   0.432  0.0039 -0.0964  0.0949
 2550TIP3    H129285   1.136   4.582   0.519 -1.2200  3.4083 -1.2265
 2550TIP3    H229286   1.169   4.604   0.372 -1.5548 -1.0441 -2.1137
 2551TIP3   OH229287   5.972   0.172   6.955 -0.0325  0.8624 -0.6046
 2551TIP3    H129288   6.061   0.147   6.982 -0.4780  1.0640  1.2039
 2551TIP3    H229289   5.944   0.235   7.021 -1.1400  1.6233 -1.7596
 2552TIP3   OH229290   1.945   0.462   8.474 -0.2050 -0.0634  0.0434
 2552TIP3    H129291   1.998   0.397   8.429 -0.9258 -0.3757 -0.3650
 2552TIP3    H229292   1.973   0.546   8.437  0.8479 -0.1129  0.6940
 2553TIP3   OH229293   5.300   0.236   0.366  0.0097 -0.4467  0.1227
 2553TIP3    H129294   5.265   0.267   0.283  0.2318 -0.0331  0.1782
 2553TIP3    H229295   5.313   0.142   0.353 -2.1470 -0.8495  0.4735
 2554TIP3   OH229296   2.912   4.665   1.498 -0.2026  0.2360 -0.2084
 2554TIP3    H129297   2.868   4.683   1.415  1.1383 -1.0211 -1.2511
 2554TIP3    H229298   2.998   4.705   1.488  0.6876 -1.5654 -0.2607
 2555TIP3   OH229299   6.626   3.493   6.788  0.3331 -0.9302  0.1408
 2555TIP3    H129300   6.721   3.501   6.780  0.3699 -0.8062  0.6748
 2555TIP3    H229301   6.592   3.580   6.767  0.4073 -0.6978  0.9499
 2556TIP3   OH229302   2.320   4.895   7.570 -0.0136  0.1478 -0.5114
 2556TIP3    H129303   2.255   4.830   7.597 -0.5371  1.7111  2.3936
 2556TIP3    H229304   2.391   4.885   7.633  1.0857  0.7151 -1.6148
 2557TIP3   OH229305   5.028   6.665   1.107 -0.1796  0.2798 -0.3779
 2557TIP3    H129306   5.112   6.693   1.070  0.5022  0.2235  1.0370
 2557TIP3    H229307   4.963   6.687   1.040  1.0599 -0.6066 -1.9461
 2558TIP3   OH229308   0.085   3.373   1.282  0.0544 -0.3735  0.2032
 2558TIP3    H129309   0.087   3.296   1.339  0.8221 -1.3629 -1.1020
 2558TIP3    H229310   0.003   3.417   1.304  0.2381 -0.8150  1.9212
 2559TIP3   OH229311   3.239   1.669   7.546  0.2141 -1.2396  0.1714
 2559TIP3    H129312   3.193   1.667   7.630 -1.6762 -1.8727 -0.8211
 2559TIP3    H229313   3.321   1.623   7.562  0.6009  0.0108  2.0360
 2560TIP3   OH229314   0.174   1.507   1.850  0.0511  0.1168 -0.5539
 2560TIP3    H129315   0.166   1.463   1.766  0.5615 -0.8436 -0.1189
 2560TIP3    H229316   0.184   1.436   1.914 -0.0612  0.8343  0.2843
 2561TIP3   OH229317   3.943   6.708   8.352  0.0003 -0.1989  0.3832
 2561TIP3    H129318   4.006   6.728   8.421 -0.2878 -1.7420  1.1616
 2561TIP3    H229319   3.905   6.624   8.379 -0.5555 -0.5493 -1.3584
 2562TIP3   OH229320   1.731   6.722   7.666 -0.0385 -0.0569 -0.3399
 2562TIP3    H129321   1.637   6.729   7.677  0.0057 -2.2324  2.7442
 2562TIP3    H229322   1.766   6.804   7.700 -0.7694  0.3533 -0.5745
 2563TIP3   OH229323   0.080   4.263   1.102 -0.0010  1.0280 -0.4980
 2563TIP3    H129324   0.115   4.269   1.013 -1.1997 -1.4906 -1.2337
 2563TIP3    H229325   0.006   4.203   1.095 -0.6389  1.3724  2.0840
 2564TIP3   OH229326   6.601   5.805   7.613  0.1958 -0.1917 -0.1533
 2564TIP3    H129327   6.631   5.759   7.535  2.4301 -2.0778  1.6718
 2564TIP3    H229328   6.678   5.853   7.644 -0.7665  0.8772  0.6964
 2565TIP3   OH229329   5.854   1.955   2.363 -0.1863 -0.6096 -0.0431
 2565TIP3    H129330   5.916   1.996   2.302 -0.8747 -1.3396 -1.2723
 2565TIP3    H229331   5.850   1.863   2.335 -0.7466 -0.9002  0.9311
 2566TIP3   OH229332   0.434   1.144   0.209  0.4448 -0.1806 -0.5133
 2566TIP3    H129333   0.456   1.122   0.119 -0.1298 -1.5761 -0.3277
 2566TIP3    H229334   0.358   1.202   0.202  1.8787  1.7901 -0.9909
 2567TIP3   OH229335   0.877   2.216   8.037 -0.0924 -0.1636  0.7153
 2567TIP3    H129336   0.912   2.291   7.990 -1.4093 -0.1972 -0.3963
 2567TIP3    H229337   0.823   2.254   8.106  0.4106 -0.1092  1.0848
 2568TIP3   OH229338   3.735   4.330   7.657 -0.3066  0.8041  0.1687
 2568TIP3    H129339   3.830   4.336   7.647 -0.3968  0.5905 -1.0715
 2568TIP3    H229340   3.709   4.412   7.699  0.4094  0.9377  0.3504
 2569TIP3   OH229341   4.754   4.910   7.256 -0.4112  0.3654 -0.2672
 2569TIP3    H129342   4.708   4.940   7.334 -0.7187  1.5745 -0.8854
 2569TIP3    H229343   4.704   4.834   7.226 -2.0122  1.5879 -0.8711
 2570TIP3   OH229344   6.843   2.987   8.295 -0.1532 -0.3308  0.3012
 2570TIP3    H129345   6.852   2.892   8.302 -1.0501 -0.3799  1.1004
 2570TIP3    H229346   6.809   3.002   8.207  0.1898 -0.7276  0.0994
 2571TIP3   OH229347   2.638   5.639   1.804  0.3158 -0.0453  0.2152
 2571TIP3    H129348   2.549   5.606   1.806  0.5723 -0.7355  0.9590
 2571TIP3    H229349   2.653   5.674   1.892  0.2754  1.4957 -0.3471
 2572TIP3   OH229350   4.575   4.983   6.470  0.0156  0.1336  0.2609
 2572TIP3    H129351   4.487   4.979   6.431  0.0653  0.6876  0.0852
 2572TIP3    H229352   4.609   5.068   6.443  0.6494 -0.1242  0.2461
 2573TIP3   OH229353   0.848   3.417   7.378 -0.5653 -0.0514  0.6818
 2573TIP3    H129354   0.897   3.499   7.375 -1.6079  0.5690 -1.1843
 2573TIP3    H229355   0.761   3.440   7.346 -0.1661 -2.3137 -2.4715
 2574TIP3   OH229356   5.532   1.328   8.215 -0.9444  0.5555  0.1720
 2574TIP3    H129357   5.498   1.243   8.186 -1.3139  0.8746 -0.3722
 2574TIP3    H229358   5.536   1.322   8.310 -2.4667  0.4581  0.2603
 2575TIP3   OH229359   4.709   1.258   0.281 -0.0238 -0.0226  0.0901
 2575TIP3    H129360   4.627   1.242   0.235 -0.2774  0.0579  0.5119
 2575TIP3    H229361   4.683   1.289   0.368  0.4511 -0.1642  0.2885
 2576TIP3   OH229362   2.888   2.522   2.790  0.3745  0.3899 -0.2739
 2576TIP3    H129363   2.915   2.611   2.810 -0.3532  0.8260 -1.1601
 2576TIP3    H229364   2.962   2.483   2.744  1.0503  0.2172  0.9162
 2577TIP3   OH229365   2.051   1.361   1.150 -0.2592 -0.4861  0.2610
 2577TIP3    H129366   2.012   1.318   1.225 -1.3282 -0.8453 -0.4790
 2577TIP3    H229367   1.993   1.436   1.133  0.4841  0.1236  0.3371
 2578TIP3   OH229368   5.076   5.889   7.028  0.3403 -0.1569  0.1556
 2578TIP3    H129369   5.095   5.798   7.049  0.6845  0.0046  0.5634
 2578TIP3    H229370   5.005   5.913   7.087 -0.4622 -0.4548 -0.6590
 2579TIP3   OH229371   2.347   2.055   0.343  0.5771  0.0280 -0.6132
 2579TIP3    H129372   2.324   2.035   0.434  0.2793  0.4351 -0.5928
 2579TIP3    H229373   2.283   2.006   0.291  0.3620  0.2773 -0.5857
 2580TIP3   OH229374   1.703   1.527   1.203 -0.6846 -0.3400  0.5011
 2580TIP3    H129375   1.709   1.450   1.146  1.6948 -2.0637  2.8111
 2580TIP3    H229376   1.695   1.601   1.142 -0.1630 -2.1720 -1.9798
 2581TIP3   OH229377   2.668   6.004   8.225  0.0615 -0.0125  0.7249
 2581TIP3    H129378   2.652   5.910   8.236 -1.1202  0.2760  1.6874
 2581TIP3    H229379   2.738   6.024   8.287  0.6775 -0.3350  0.1490
 2582TIP3   OH229380   2.817   3.174   8.150  0.1939  0.3376  0.2187
 2582TIP3    H129381   2.788   3.170   8.059 -1.1015  1.0469  0.5818
 2582TIP3    H229382   2.858   3.089   8.166  2.9046  1.1147 -1.7963
 2583TIP3   OH229383   1.037   1.553   0.171  0.0021 -0.3338  0.0679
 2583TIP3    H129384   1.130   1.539   0.187 -0.0940 -1.5906 -0.3997
 2583TIP3    H229385   1.033   1.591   0.083  0.1959  1.9904  0.9801
 2584TIP3   OH229386   4.596   3.297   1.026 -0.3094 -0.2203  0.4653
 2584TIP3    H129387   4.522   3.310   0.968 -0.4792 -0.9360  0.5121
 2584TIP3    H229388   4.673   3.303   0.969 -0.5145 -1.8304 -0.0080
 2585TIP3   OH229389   1.645   4.651   6.761  0.3302 -0.2510  0.4856
 2585TIP3    H129390   1.577   4.686   6.703  0.1073 -1.3186  0.0677
 2585TIP3    H229391   1.702   4.725   6.779 -1.0635  0.7294  1.0296
 2586TIP3   OH229392   2.092   5.077   8.532  0.2085  0.2461  0.1714
 2586TIP3    H129393   2.160   5.025   8.489  1.2079  1.6030  0.0371
 2586TIP3    H229394   2.123   5.085   8.623  0.6305  1.4959 -0.0729
 2587TIP3   OH229395   4.259   3.363   0.384  0.4965 -0.5529  0.1535
 2587TIP3    H129396   4.265   3.411   0.467 -0.7186 -0.2370  0.0737
 2587TIP3    H229397   4.214   3.422   0.325 -0.3812 -1.5001 -0.1583
 2588TIP3   OH229398   2.037   5.169   0.414  0.1964  0.0273 -0.2926
 2588TIP3    H129399   2.060   5.143   0.503 -0.4610 -0.8875 -0.3819
 2588TIP3    H229400   1.995   5.255   0.424  0.9183  0.3329  0.1782
 2589TIP3   OH229401   4.390   6.724   1.426  0.1819  0.0876  0.3387
 2589TIP3    H129402   4.429   6.778   1.495  1.3704  1.4559 -1.3420
 2589TIP3    H229403   4.419   6.635   1.447 -0.1766  0.3330  2.0538
 2590TIP3   OH229404   5.954   6.779   1.106  0.3711 -0.2372 -0.5889
 2590TIP3    H129405   5.956   6.684   1.107 -0.9318 -0.2819 -0.1617
 2590TIP3    H229406   5.989   6.803   1.020 -0.2220 -1.1347 -1.0918
 2591TIP3   OH229407   3.979   3.581   6.449  0.4110 -0.0028 -0.6570
 2591TIP3    H129408   4.053   3.641   6.463 -0.8059  0.9834  2.1987
 2591TIP3    H229409   3.904   3.639   6.433 -0.4254 -0.8135  0.2122
 2592TIP3   OH229410   4.525   0.207   1.890  0.0239  0.1127  0.0150
 2592TIP3    H129411   4.451   0.157   1.855 -0.3991 -0.8482  2.1475
 2592TIP3    H229412   4.486   0.267   1.954  1.1447 -1.3182  2.1524
 2593TIP3   OH229413   3.443   5.477   8.562 -0.5747 -0.5811 -0.2839
 2593TIP3    H129414   3.411   5.456   8.474  2.7221 -0.4169 -1.6515
 2593TIP3    H229415   3.460   5.571   8.560 -0.2975 -0.6103  0.4609
 2594TIP3   OH229416   5.304   5.056   8.551 -0.5817 -0.3633 -0.3374
 2594TIP3    H129417   5.312   4.978   8.606  0.1100 -1.3662 -1.7998
 2594TIP3    H229418   5.394   5.086   8.539 -0.9480  2.1518  2.1540
 2595TIP3   OH229419   0.206   5.203   0.459 -0.0548 -0.8129 -0.2739
 2595TIP3    H129420   0.299   5.190   0.474  0.5342  1.7303 -1.3415
 2595TIP3    H229421   0.179   5.266   0.525 -0.7944 -0.7960 -0.5776
 2596TIP3   OH229422   6.846   6.944   1.872  0.2990  0.1493  0.4335
 2596TIP3    H129423   6.869   6.997   1.948  0.6187  0.5290  0.0801
 2596TIP3    H229424   6.929   6.909   1.840  0.1001 -0.4998  0.6099
 2597TIP3   OH229425   1.610   6.791   1.346  0.0980  0.6034  0.2422
 2597TIP3    H129426   1.661   6.782   1.426  0.6713  0.9201 -0.0861
 2597TIP3    H229427   1.519   6.801   1.377  0.3586  1.1296  0.8718
 2598TIP3   OH229428   0.238   5.483   8.510  0.5868  0.6081 -0.3948
 2598TIP3    H129429   0.254   5.396   8.546 -1.0700  0.7673  0.8641
 2598TIP3    H229430   0.324   5.525   8.507  1.2013 -0.5688  0.3333
 2599TIP3   OH229431   1.126   3.753   6.458  0.7985  0.1986  0.3921
 2599TIP3    H129432   1.106   3.662   6.482  1.6013  0.2654  1.3445
 2599TIP3    H229433   1.164   3.791   6.536 -0.6292  1.7336  0.4059
 2600TIP3   OH229434   3.383   3.018   0.043  0.1097  0.5699 -0.1112
 2600TIP3    H129435   3.355   3.017  -0.049 -2.7508  0.1989  0.6763
 2600TIP3    H229436   3.400   3.110   0.062  0.3742  0.6932 -0.9186
 2601TIP3   OH229437   1.304   4.180   0.860 -0.9228 -0.2771 -0.0997
 2601TIP3    H129438   1.366   4.208   0.793  0.8795  0.0745  1.6357
 2601TIP3    H229439   1.237   4.248   0.861  0.0873  0.7348 -0.2011
 2602TIP3   OH229440   5.972   4.321   2.246 -0.8575 -0.0173  0.0339
 2602TIP3    H129441   5.885   4.357   2.265 -0.7132  0.6617 -0.5315
 2602TIP3    H229442   5.968   4.231   2.277 -1.3429  0.3845  1.1916
 2603TIP3   OH229443   1.580   6.950   7.579 -0.1948 -0.9776  0.5489
 2603TIP3    H129444   1.611   7.037   7.553  1.1031 -1.4131  0.5560
 2603TIP3    H229445   1.518   6.967   7.649  2.7080 -0.1327  3.1531
 2604TIP3   OH229446   1.841   3.986   6.208 -0.0425 -0.2078 -0.5791
 2604TIP3    H129447   1.817   4.072   6.173  0.0736  0.2096  0.3411
 2604TIP3    H229448   1.773   3.927   6.173 -1.9348  0.7940  1.2078
 2605TIP3   OH229449   0.163   4.347   6.488  0.4068 -0.2521  0.2613
 2605TIP3    H129450   0.150   4.255   6.512  0.6380 -0.3364  0.0680
 2605TIP3    H229451   0.144   4.350   6.395 -1.9740  0.3560  0.7072
 2606TIP3   OH229452   2.876   6.853   0.707 -0.2270  0.1459  0.6613
 2606TIP3    H129453   2.788   6.838   0.740 -0.0479 -1.1594  0.6392
 2606TIP3    H229454   2.931   6.791   0.757  0.4609  0.0261 -0.2091
 2607TIP3   OH229455   2.992   0.323   0.762  0.0134 -0.4225  0.4839
 2607TIP3    H129456   3.062   0.282   0.710 -1.7297 -0.9870 -1.5980
 2607TIP3    H229457   2.962   0.395   0.707 -1.5627 -0.7160  0.9111
 2608TIP3   OH229458   0.881   2.405   2.708  0.3039  0.7734  0.6299
 2608TIP3    H129459   0.908   2.331   2.763  1.0607  1.7210  1.5817
 2608TIP3    H229460   0.941   2.404   2.634  0.0061  0.1633  0.3897
 2609TIP3   OH229461   6.190   4.654   0.359  0.2433  0.5986  0.1852
 2609TIP3    H129462   6.141   4.598   0.299  0.5594  0.4891  0.0237
 2609TIP3    H229463   6.212   4.731   0.306 -0.6156  1.1037  0.5507
 2610TIP3   OH229464   1.096   5.111   7.633 -0.6238  0.4147  0.3920
 2610TIP3    H129465   1.073   5.031   7.679 -1.9247 -0.8681 -2.2277
 2610TIP3    H229466   1.184   5.094   7.599 -0.7361  0.2411  0.1817
 2611TIP3   OH229467   5.347   5.132   1.664  0.0689  0.0422 -0.0147
 2611TIP3    H129468   5.303   5.122   1.749 -0.7173 -1.1640 -0.5301
 2611TIP3    H229469   5.327   5.051   1.618  0.0334  0.9029 -1.5674
 2612TIP3   OH229470   2.523   2.696   0.539  0.8850  0.2076 -0.5542
 2612TIP3    H129471   2.531   2.731   0.627  1.7647 -1.1095 -0.0812
 2612TIP3    H229472   2.602   2.644   0.526 -0.2806 -1.4682 -1.2625
 2613TIP3   OH229473   2.406   0.889   2.159  0.0880  0.1645  0.4170
 2613TIP3    H129474   2.372   0.926   2.078 -1.9605 -0.1708  1.0682
 2613TIP3    H229475   2.398   0.959   2.224 -3.7828 -1.1655  1.6483
 2614TIP3   OH229476   2.944   5.680   8.213 -0.5673  0.2187 -0.8544
 2614TIP3    H129477   2.902   5.626   8.280  1.8312 -1.7366 -0.8006
 2614TIP3    H229478   2.871   5.714   8.161 -2.3032 -1.2312  0.5037
 2615TIP3   OH229479   4.840   2.094   0.303 -0.1553 -0.1500  0.3960
 2615TIP3    H129480   4.794   2.177   0.317 -0.5276 -0.4392  0.9418
 2615TIP3    H229481   4.925   2.119   0.267 -0.0440  0.5097  1.0781
 2616TIP3   OH229482   4.583   2.316   8.023 -0.3076 -0.1229 -0.5202
 2616TIP3    H129483   4.672   2.282   8.021 -0.7537 -1.3050 -1.9322
 2616TIP3    H229484   4.541   2.279   7.946 -2.0691  0.3125  0.1684
 2617TIP3   OH229485   6.248   0.015   2.530  0.4235 -0.4447  0.1598
 2617TIP3    H129486   6.218   0.100   2.564  0.3199 -0.6432  0.5687
 2617TIP3    H229487   6.169  -0.039   2.528  0.0905  0.0226 -1.8722
 2618TIP3   OH229488   6.365   3.526   1.041 -0.0989 -0.2374  0.0802
 2618TIP3    H129489   6.344   3.617   1.023  1.7989  0.4100  0.9538
 2618TIP3    H229490   6.320   3.477   0.972 -1.7663  1.2646  0.0368
 2619TIP3   OH229491   4.631   2.795   1.701  0.5081  0.5855  0.3893
 2619TIP3    H129492   4.540   2.791   1.730 -0.6042  1.0431 -2.6733
 2619TIP3    H229493   4.635   2.872   1.644  2.1839 -0.7367 -1.4240
 2620TIP3   OH229494   6.456   0.280   0.862 -0.4388 -0.1354  0.1381
 2620TIP3    H129495   6.536   0.235   0.836 -0.2968  0.9384 -1.3676
 2620TIP3    H229496   6.432   0.238   0.945  2.2350  0.2059  1.2052
 2621TIP3   OH229497   0.129   4.025   0.441 -0.1319  0.2478  0.5552
 2621TIP3    H129498   0.201   3.987   0.391  0.0750  1.2159  0.0923
 2621TIP3    H229499   0.117   3.965   0.514 -0.4836 -1.2393 -0.6699
 2622TIP3   OH229500   0.694   4.921   2.693 -0.6407 -0.5421  0.2078
 2622TIP3    H129501   0.678   5.015   2.681 -1.9452 -0.8500 -0.6918
 2622TIP3    H229502   0.787   4.915   2.715  0.1551  0.7651 -2.4028
 2623TIP3   OH229503   2.218   0.458   0.343  0.2622  0.5892  0.0264
 2623TIP3    H129504   2.216   0.374   0.297 -1.2766  1.5838 -1.9005
 2623TIP3    H229505   2.298   0.500   0.312 -0.0722  0.6884 -0.7428
 2624TIP3   OH229506   3.495   2.550   7.400 -0.3315  0.0315 -0.2322
 2624TIP3    H129507   3.503   2.577   7.308 -0.6596 -0.6831 -0.4773
 2624TIP3    H229508   3.474   2.456   7.395 -1.5496  0.2566  0.5478
 2625TIP3   OH229509   5.799   0.901   7.001  0.5803  0.0399  0.8202
 2625TIP3    H129510   5.891   0.899   7.026  1.3503 -0.6369 -1.7429
 2625TIP3    H229511   5.770   0.810   7.009  0.2233  0.1894  1.2701
 2626TIP3   OH229512   0.359   1.609   0.044 -0.7602  0.0084 -0.1995
 2626TIP3    H129513   0.423   1.680   0.048 -0.8897  0.1233  2.9292
 2626TIP3    H229514   0.407   1.534   0.010  0.4606  0.6595  0.0556
 2627TIP3   OH229515   5.555   2.617   1.968  0.4218 -0.7495 -0.0041
 2627TIP3    H129516   5.533   2.585   2.055 -0.2030 -0.8453 -0.1912
 2627TIP3    H229517   5.649   2.636   1.972  0.4772 -1.1203  0.5709
 2628TIP3   OH229518   6.588   5.363   1.668  0.1593 -0.2462  0.4846
 2628TIP3    H129519   6.664   5.414   1.696  0.8502 -0.9654 -0.0519
 2628TIP3    H229520   6.527   5.428   1.633  1.6114  0.1218 -1.5148
 2629TIP3   OH229521   4.886   6.807   0.133 -0.0990  0.2059 -0.1553
 2629TIP3    H129522   4.961   6.771   0.181 -1.2400  2.2411  3.5872
 2629TIP3    H229523   4.826   6.733   0.126  1.0038 -0.7009 -0.4840
 2630TIP3   OH229524   5.404   4.020   7.018 -0.1927 -0.3616  0.3736
 2630TIP3    H129525   5.314   4.006   6.988 -0.3442 -0.0207  0.6649
 2630TIP3    H229526   5.451   4.048   6.940 -0.4294 -0.1578  0.3032
 2631TIP3   OH229527   3.546   4.603   6.855  0.1380  0.1580  0.6030
 2631TIP3    H129528   3.637   4.617   6.880 -0.0509  0.2251  1.2629
 2631TIP3    H229529   3.551   4.554   6.773  0.7661 -3.1385  2.4458
 2632TIP3   OH229530   0.025   2.433   1.396 -0.4845 -0.2656  0.1028
 2632TIP3    H129531   0.025   2.461   1.487  1.6601 -1.3002  0.4866
 2632TIP3    H229532  -0.066   2.415   1.376 -1.0350  0.3167  1.9364
 2633TIP3   OH229533   1.210   5.306   0.029 -0.6949  0.2444  0.1375
 2633TIP3    H129534   1.159   5.344  -0.043  1.4526 -1.3379 -2.4491
 2633TIP3    H229535   1.234   5.380   0.084 -1.9838  1.6240 -1.0813
 2634TIP3   OH229536   1.193   0.768   0.420  0.6830 -0.1615  0.5007
 2634TIP3    H129537   1.132   0.811   0.479  0.6937 -0.5343  0.7893
 2634TIP3    H229538   1.188   0.818   0.339 -3.1041 -2.5116 -0.9849
 2635TIP3   OH229539   5.245   0.869   0.107 -0.0035  0.1334 -0.7608
 2635TIP3    H129540   5.205   0.865   0.194 -1.9870  4.0099 -1.2744
 2635TIP3    H229541   5.180   0.830   0.049 -0.6457  1.4595 -0.9577
 2636TIP3   OH229542   4.916   0.310   7.356  0.1048  0.3848  0.3754
 2636TIP3    H129543   4.972   0.388   7.362 -0.3287  0.6576  0.9146
 2636TIP3    H229544   4.955   0.248   7.417 -0.2562  0.6271  0.8587
 2637TIP3   OH229545   1.191   2.354   7.631  0.6597 -0.4007 -0.2253
 2637TIP3    H129546   1.188   2.437   7.583 -2.1082 -0.8932 -1.0981
 2637TIP3    H229547   1.259   2.303   7.587  0.3480  0.3264 -1.6064
 2638TIP3   OH229548   0.521   4.676   1.104 -0.2262  0.1905 -0.6267
 2638TIP3    H129549   0.439   4.702   1.146 -0.5438  0.6933 -1.5433
 2638TIP3    H229550   0.526   4.581   1.118  0.4508  0.5126  1.8725
 2639TIP3   OH229551   6.495   2.265   7.736 -0.4380 -0.1202  0.0607
 2639TIP3    H129552   6.507   2.268   7.641 -2.2570 -0.9209 -0.2277
 2639TIP3    H229553   6.505   2.173   7.759 -1.7829 -0.2089  0.3624
 2640TIP3   OH229554   0.459   0.030   1.638  0.6688  0.4187 -0.0952
 2640TIP3    H129555   0.377  -0.012   1.662  0.3796  0.6438 -0.6746
 2640TIP3    H229556   0.433   0.110   1.593  1.2105  0.8712  0.3654
 2641TIP3   OH229557   1.291   1.779   8.095  0.8695 -0.3917 -0.3895
 2641TIP3    H129558   1.264   1.841   8.163 -0.8437 -0.0491 -1.3193
 2641TIP3    H229559   1.221   1.713   8.095  2.0753 -1.7224 -0.2115
 2642TIP3   OH229560   1.586   6.554   1.141 -0.1901  0.4074  0.1298
 2642TIP3    H129561   1.555   6.578   1.054  1.7976  1.8847 -0.2450
 2642TIP3    H229562   1.551   6.622   1.199 -1.2926 -0.4280  0.4788
 2643TIP3   OH229563   5.197   4.140   0.411  0.7944  0.2829  0.4076
 2643TIP3    H129564   5.275   4.111   0.365 -0.0933 -1.4474 -0.1016
 2643TIP3    H229565   5.146   4.060   0.425 -1.9101  1.5497 -1.2443
 2644TIP3   OH229566   4.004   5.041   2.658  0.3802 -0.1766 -0.0332
 2644TIP3    H129567   4.030   5.082   2.575  0.4907 -0.8330 -0.3222
 2644TIP3    H229568   4.061   4.966   2.667  2.5796  1.6152  2.2137
 2645TIP3   OH229569   5.569   6.661   7.279  0.0663 -0.1841  0.2074
 2645TIP3    H129570   5.500   6.618   7.228  1.7898 -1.7616 -0.9246
 2645TIP3    H229571   5.635   6.685   7.214 -0.0767  2.8905  1.0111
 2646TIP3   OH229572   2.545   0.241   2.121  0.6098  0.2602 -0.0008
 2646TIP3    H129573   2.537   0.322   2.172 -0.4486  0.6575 -0.7445
 2646TIP3    H229574   2.491   0.178   2.168 -0.0591  0.5208 -0.3963
 2647TIP3   OH229575   2.626   1.206   2.879 -0.4146  0.5474  0.3003
 2647TIP3    H129576   2.620   1.280   2.819 -1.2356 -1.1251 -1.8160
 2647TIP3    H229577   2.720   1.192   2.891 -0.1251 -0.4383 -2.4906
 2648TIP3   OH229578   5.369   6.332   1.333  0.4294 -0.4075 -0.2111
 2648TIP3    H129579   5.319   6.271   1.388  0.6170 -1.1080 -0.8001
 2648TIP3    H229580   5.422   6.275   1.277 -0.7717  0.2344 -2.0871
 2649TIP3   OH229581   1.174   0.885   6.948 -0.0216  0.5333  0.1014
 2649TIP3    H129582   1.237   0.921   7.010  0.9684  0.3489 -0.7710
 2649TIP3    H229583   1.171   0.792   6.968  2.1423  0.0203 -1.6418
 2650TIP3   OH229584   0.945   1.902   7.232  0.4953  0.3703 -0.8156
 2650TIP3    H129585   0.948   1.807   7.248  3.8905  0.2711 -1.2411
 2650TIP3    H229586   0.861   1.916   7.189 -2.7647 -1.4620  4.0644
 2651TIP3   OH229587   0.758   6.834   7.748 -0.5199 -0.2858 -0.2851
 2651TIP3    H129588   0.684   6.890   7.773 -1.1416 -1.2862  0.1730
 2651TIP3    H229589   0.722   6.774   7.683  0.1815 -0.0652 -0.8822
 2652TIP3   OH229590   5.367   2.397   6.968  0.0976 -0.0166 -0.0540
 2652TIP3    H129591   5.301   2.370   7.033  0.9741  0.0903  0.8992
 2652TIP3    H229592   5.378   2.491   6.982  0.0503  0.0713 -0.5929
 2653TIP3   OH229593   1.742   2.583   7.757  0.3963 -0.0433  0.1341
 2653TIP3    H129594   1.800   2.659   7.758  0.9787 -0.4836  1.3470
 2653TIP3    H229595   1.655   2.620   7.776  0.3719  0.5309 -1.0279
 2654TIP3   OH229596   2.254   4.450   8.221  0.5015  0.1381 -0.4434
 2654TIP3    H129597   2.208   4.372   8.252  1.3543  0.1736  1.0326
 2654TIP3    H229598   2.233   4.455   8.128  1.0198 -2.3016 -0.7810
 2655TIP3   OH229599   4.373   0.595   1.504 -0.0491 -0.3236 -0.3431
 2655TIP3    H129600   4.350   0.647   1.427 -0.0292  0.6057  0.2625
 2655TIP3    H229601   4.429   0.526   1.469  2.3109  1.6723 -0.8455
 2656TIP3   OH229602   2.891   5.385   8.398  0.3505  0.0082  0.0497
 2656TIP3    H129603   2.922   5.458   8.453  0.2908 -1.0332  1.5422
 2656TIP3    H229604   2.798   5.403   8.386  0.1709 -0.1594  1.0318
 2657TIP3   OH229605   4.164   2.497   6.513  0.3503 -0.1679 -0.2028
 2657TIP3    H129606   4.095   2.492   6.447  0.5550  0.9426 -0.5169
 2657TIP3    H229607   4.153   2.417   6.565 -1.1446 -0.0421 -0.2734
 2658TIP3   OH229608   4.787   0.441   6.904 -0.1421 -0.1256  0.3705
 2658TIP3    H129609   4.792   0.501   6.829 -0.5723 -0.2864  0.2076
 2658TIP3    H229610   4.767   0.497   6.978  2.4836  0.3613  0.8124
 2659TIP3   OH229611   4.942   1.377   6.869 -0.6989 -0.3837 -0.0076
 2659TIP3    H129612   4.993   1.296   6.860 -1.3161 -0.6565 -1.3282
 2659TIP3    H229613   4.987   1.427   6.937  1.5223 -0.4559 -1.3522
 2660TIP3   OH229614   3.431   5.499   6.988  0.0161 -0.3899  0.1183
 2660TIP3    H129615   3.349   5.530   6.950  1.7667  3.1109 -1.2296
 2660TIP3    H229616   3.473   5.450   6.916  0.8936  1.4731 -0.6893
 2661TIP3   OH229617   2.502   5.660   1.179  0.0562  0.2084  0.0328
 2661TIP3    H129618   2.420   5.618   1.205  0.2693 -0.2295 -0.0057
 2661TIP3    H229619   2.526   5.617   1.097  1.2042 -0.8594  0.8915
 2662TIP3   OH229620   0.544   4.649   8.541  0.7291  0.1396 -0.0262
 2662TIP3    H129621   0.565   4.728   8.591  0.2680 -1.6932  3.3628
 2662TIP3    H229622   0.629   4.615   8.514  1.5441 -1.0496  3.4520
 2663TIP3   OH229623   2.151   3.045   7.295 -0.0388 -0.3537 -0.3401
 2663TIP3    H129624   2.171   2.970   7.238 -0.8482  0.5598 -1.8878
 2663TIP3    H229625   2.057   3.040   7.308 -0.1292  0.5278 -0.6452
 2664TIP3   OH229626   5.701   1.152   0.945  0.3868  0.5592 -0.4062
 2664TIP3    H129627   5.702   1.126   1.037 -2.5553  2.2865  0.2678
 2664TIP3    H229628   5.711   1.247   0.947 -1.3257  0.8168 -1.6777
 2665TIP3   OH229629   5.004   6.768   7.912  0.0937 -0.2948  0.3694
 2665TIP3    H129630   4.959   6.821   7.846  0.1392 -0.0246  0.5555
 2665TIP3    H229631   5.086   6.744   7.871  0.0089 -0.3432  0.2285
 2666TIP3   OH229632   0.760   0.197   8.406  0.0132 -0.0234 -0.2171
 2666TIP3    H129633   0.851   0.201   8.377  0.2697 -0.7181  0.4483
 2666TIP3    H229634   0.709   0.223   8.329  0.7282 -0.5077 -0.8728
 2667TIP3   OH229635   1.779   3.049   1.565  0.7098  0.0696  0.1376
 2667TIP3    H129636   1.809   2.975   1.618 -0.3205  0.2736  1.0398
 2667TIP3    H229637   1.746   3.113   1.629  0.7420  0.9222 -0.6747
 2668TIP3   OH229638   5.464   2.629   0.628  0.2619  0.4942  0.0789
 2668TIP3    H129639   5.498   2.577   0.701  0.6593 -0.8717 -1.0294
 2668TIP3    H229640   5.493   2.581   0.550 -1.9955  0.7013 -0.9613
 2669TIP3   OH229641   2.582   0.167   7.250 -0.5789  0.1789  0.2141
 2669TIP3    H129642   2.663   0.210   7.277 -1.6198  1.4673  1.3920
 2669TIP3    H229643   2.599   0.074   7.264  0.8145  0.3919  0.0794
 2670TIP3   OH229644   1.072   6.062   7.610  0.3285 -0.4361 -0.3464
 2670TIP3    H129645   1.072   6.104   7.696 -0.0202  0.7021 -0.8920
 2670TIP3    H229646   1.120   6.122   7.554  0.0056 -0.8692 -1.0991
 2671TIP3   OH229647   2.206   5.258   0.912  0.0010  0.3581 -0.2634
 2671TIP3    H129648   2.261   5.336   0.905 -1.3522  1.3896  0.1942
 2671TIP3    H229649   2.266   5.185   0.896  2.0753  1.2404  2.6283
 2672TIP3   OH229650   4.770   3.177   1.579 -0.4466 -0.2950  0.8468
 2672TIP3    H129651   4.689   3.228   1.571 -0.1294  0.2789  1.2322
 2672TIP3    H229652   4.743   3.087   1.562 -0.8312  0.1165 -0.8150
 2673TIP3   OH229653   5.009   5.146   0.433 -0.2847  0.1042  0.1234
 2673TIP3    H129654   5.080   5.142   0.368  0.3379 -0.5406  0.8126
 2673TIP3    H229655   4.942   5.087   0.398  1.2483 -2.6108  1.3841
 2674TIP3   OH229656   6.218   5.712   8.535  0.1086  0.4910 -0.1233
 2674TIP3    H129657   6.290   5.679   8.588  1.0071  1.2479 -0.8476
 2674TIP3    H229658   6.259   5.745   8.456 -1.1793 -0.3521 -1.1909
 2675TIP3   OH229659   6.503   4.687   1.342 -0.4260  0.1526  0.2103
 2675TIP3    H129660   6.486   4.601   1.305 -1.3207  0.9367 -1.3092
 2675TIP3    H229661   6.421   4.711   1.385 -0.3791  0.4816  0.1186
 2676TIP3   OH229662   3.307   5.121   1.505  0.1167 -0.1385  0.1326
 2676TIP3    H129663   3.278   5.034   1.479  1.0632 -0.2417 -0.6770
 2676TIP3    H229664   3.306   5.119   1.601 -0.3503 -0.8680  0.1219
 2677TIP3   OH229665   1.810   5.564   7.650  0.2522 -0.0685 -0.7389
 2677TIP3    H129666   1.809   5.628   7.579 -1.1825 -0.3402 -0.9780
 2677TIP3    H229667   1.765   5.487   7.615 -2.1170  0.4162  1.0008
 2678TIP3   OH229668   6.532   3.423   8.012  0.4133 -0.5249  0.2194
 2678TIP3    H129669   6.542   3.374   7.931  1.1659 -0.5964  0.3477
 2678TIP3    H229670   6.521   3.514   7.984  0.0015 -0.6333  0.0193
 2679TIP3   OH229671   4.394   6.678   7.913  0.5162 -0.2578  0.5541
 2679TIP3    H129672   4.360   6.592   7.889 -0.7904  0.4020 -0.0431
 2679TIP3    H229673   4.442   6.707   7.835  0.4567 -0.1918  0.5422
 2680TIP3   OH229674   2.497   2.417   7.426 -0.2935 -0.3455 -0.1026
 2680TIP3    H129675   2.503   2.501   7.381 -1.6275 -1.1849 -1.9617
 2680TIP3    H229676   2.588   2.386   7.431  0.0574  0.5661 -0.6126
 2681TIP3   OH229677   5.867   4.329   1.550 -0.2606  0.4002 -0.1081
 2681TIP3    H129678   5.915   4.288   1.478  0.0350 -2.1958  1.4636
 2681TIP3    H229679   5.792   4.272   1.565 -0.2469  0.7970  1.6922
 2682TIP3   OH229680   2.489   4.736   7.195 -0.0418  0.0973  0.4583
 2682TIP3    H129681   2.416   4.789   7.226 -0.8254 -0.9473  0.4912
 2682TIP3    H229682   2.460   4.645   7.210 -0.0619 -0.4440 -2.3856
 2683TIP3   OH229683   1.580   4.689   6.383  0.0398  0.5652  0.1944
 2683TIP3    H129684   1.504   4.659   6.333  0.0849  0.2560  0.3146
 2683TIP3    H229685   1.617   4.610   6.422  0.6132  0.6722 -0.1209
 2684TIP3   OH229686   1.938   4.976   1.379 -0.1014 -0.2028  0.2371
 2684TIP3    H129687   2.019   5.023   1.359 -0.6276  0.9517  0.7435
 2684TIP3    H229688   1.963   4.884   1.377  0.7737  0.0301 -1.5740
 2685TIP3   OH229689   1.660   4.066   1.662  0.3459 -0.6026 -0.0715
 2685TIP3    H129690   1.605   4.005   1.711  1.4981 -2.3211 -0.8312
 2685TIP3    H229691   1.698   4.123   1.729  1.1044 -2.2675  0.9692
 2686TIP3   OH229692   1.979   0.652   0.098  0.5912  0.0157 -0.2416
 2686TIP3    H129693   1.960   0.586   0.032 -0.1315 -0.5599  0.5227
 2686TIP3    H229694   1.935   0.621   0.177  2.2537  0.1809  0.7933
 2687TIP3   OH229695   1.601   5.797   1.120 -0.0821  0.4988 -0.3127
 2687TIP3    H129696   1.637   5.758   1.199 -1.9902 -0.8562 -0.0405
 2687TIP3    H229697   1.507   5.788   1.129 -0.5115  3.0359 -1.4162
 2688TIP3   OH229698   0.335   6.801   6.714 -0.1060  0.3054 -0.0613
 2688TIP3    H129699   0.426   6.771   6.721 -0.9811 -2.4760  0.9437
 2688TIP3    H229700   0.320   6.851   6.794  0.3539  0.2368  0.0714
 2689TIP3   OH229701   1.526   5.867   8.510  0.4678 -0.0598  0.1283
 2689TIP3    H129702   1.555   5.930   8.576  0.9454  0.9678 -1.0144
 2689TIP3    H229703   1.545   5.910   8.427  1.0829 -1.8342 -0.7053
 2690TIP3   OH229704   2.914   0.339   8.499 -0.6915  0.0558 -0.2016
 2690TIP3    H129705   2.976   0.271   8.528 -0.4601  0.2648 -0.1999
 2690TIP3    H229706   2.867   0.299   8.426 -0.4630 -0.0629 -0.2873
 2691TIP3   OH229707   0.962   1.813   6.578 -0.0924  0.0618  0.3565
 2691TIP3    H129708   0.985   1.764   6.499  0.4763  1.4292 -0.3667
 2691TIP3    H229709   1.043   1.817   6.629  1.2997  4.0328 -1.7315
 2692TIP3   OH229710   1.165   5.394   2.128 -0.2869 -0.1994  0.2315
 2692TIP3    H129711   1.096   5.415   2.192 -0.8662 -1.5832  0.1047
 2692TIP3    H229712   1.140   5.308   2.094  2.4781 -1.6719  1.5361
 2693TIP3   OH229713   1.562   2.148   1.842  0.1402 -0.0234  0.1873
 2693TIP3    H129714   1.535   2.056   1.842 -1.1383  0.3263  0.7687
 2693TIP3    H229715   1.519   2.186   1.766 -0.4137  0.3737  0.6883
 2694TIP3   OH229716   4.495   0.089   7.950 -0.1423 -0.0886  1.1610
 2694TIP3    H129717   4.536   0.101   8.036  2.6656 -0.2501 -0.0342
 2694TIP3    H229718   4.552   0.137   7.889 -1.4573 -0.8125 -0.7519
 2695TIP3   OH229719   4.223   2.178   8.096  0.5599  0.2351 -0.7505
 2695TIP3    H129720   4.210   2.165   8.002 -1.1129 -0.1813 -0.4932
 2695TIP3    H229721   4.140   2.215   8.126  1.0342  0.2364  0.5943
 2696TIP3   OH229722   1.096   5.662   5.983 -0.4578 -0.4293  0.7033
 2696TIP3    H129723   1.082   5.583   6.035  0.3495 -2.3513 -1.8121
 2696TIP3    H229724   1.182   5.693   6.009 -1.0542  0.1044  2.1903
 2697TIP3   OH229725   2.595   4.510   1.401 -0.2424 -0.4069  0.6323
 2697TIP3    H129726   2.513   4.491   1.448 -1.2975  1.0766 -0.5160
 2697TIP3    H229727   2.585   4.600   1.371  1.5834 -0.3973 -0.0585
 2698TIP3   OH229728   6.172   4.463   1.461  0.4305 -0.6064 -0.7633
 2698TIP3    H129729   6.147   4.544   1.417 -0.9236 -0.5085  0.1214
 2698TIP3    H229730   6.171   4.397   1.392 -0.9177 -0.3160 -1.0496
 2699TIP3   OH229731   6.648   0.062   0.777 -0.2290  0.0535  0.5371
 2699TIP3    H129732   6.726   0.102   0.740 -0.6122  0.1465 -0.1844
 2699TIP3    H229733   6.605   0.019   0.703 -2.3904  2.4176  0.3001
 2700TIP3   OH229734   2.412   1.175   2.194  0.5072 -0.1944  0.8847
 2700TIP3    H129735   2.317   1.186   2.193  0.6431  1.3995 -0.8280
 2700TIP3    H229736   2.434   1.160   2.285 -1.3798 -0.4657  1.3237
 2701TIP3   OH229737   3.547   1.105   7.304 -0.3693  0.2390 -0.1150
 2701TIP3    H129738   3.507   1.019   7.295 -0.8605  0.2298  1.7611
 2701TIP3    H229739   3.481   1.166   7.271 -0.5689 -0.0073 -0.1683
 2702TIP3   OH229740   3.976   5.884   7.202 -0.1284  0.0478  0.7025
 2702TIP3    H129741   3.976   5.934   7.120  1.6638  1.6266  1.5824
 2702TIP3    H229742   3.893   5.907   7.244  0.1701  1.4537  0.5708
 2703TIP3   OH229743   3.143   1.990   7.676 -0.5485 -0.1800  0.2881
 2703TIP3    H129744   3.081   2.025   7.740  0.7619  0.5225  1.2173
 2703TIP3    H229745   3.184   1.915   7.720  0.9760  0.8232  0.6710
 2704TIP3   OH229746   0.058   1.070   7.877 -0.3141 -0.3775  0.7944
 2704TIP3    H129747   0.039   1.039   7.965  1.8345 -3.1911  0.4093
 2704TIP3    H229748  -0.017   1.043   7.825 -0.0639 -1.8206  1.1526
 2705TIP3   OH229749   1.760   1.048   1.443 -0.6613 -0.2435 -0.1961
 2705TIP3    H129750   1.749   0.953   1.444  0.7218 -0.4348 -0.5590
 2705TIP3    H229751   1.792   1.067   1.354  1.6135  0.2049  0.6433
 2706TIP3   OH229752   3.530   3.380   0.609  0.0321 -0.0258 -0.1995
 2706TIP3    H129753   3.516   3.467   0.572  0.4032 -0.2338 -0.8384
 2706TIP3    H229754   3.503   3.320   0.540 -0.2215 -0.4202  0.2389
 2707TIP3   OH229755   4.853   6.555   1.553 -0.0400  0.4233  0.1715
 2707TIP3    H129756   4.823   6.546   1.462 -0.1995 -3.0085  0.4153
 2707TIP3    H229757   4.927   6.494   1.560 -1.2450 -0.9101  2.7567
 2708TIP3   OH229758   1.537   0.966   7.512 -0.4784  0.0065 -0.1414
 2708TIP3    H129759   1.567   0.875   7.519  1.1423  0.6348  2.0304
 2708TIP3    H229760   1.463   0.961   7.451 -2.3512 -3.2808  2.0272
 2709TIP3   OH229761   4.333   5.464   2.089  0.0083  0.2536  0.2040
 2709TIP3    H129762   4.252   5.422   2.062 -0.9009  2.3930 -0.6792
 2709TIP3    H229763   4.305   5.539   2.142  1.3643  1.1898 -0.3173
 2710TIP3   OH229764   0.258   3.607   0.145 -0.0969 -0.0395 -0.1965
 2710TIP3    H129765   0.298   3.573   0.065  0.5516 -2.5486  1.0988
 2710TIP3    H229766   0.171   3.566   0.147 -0.3223  0.4479  0.1242
 2711TIP3   OH229767   5.188   5.344   7.210 -0.0991  0.1558  0.4014
 2711TIP3    H129768   5.247   5.404   7.255 -1.0159  0.4443  1.2614
 2711TIP3    H229769   5.116   5.400   7.181  0.4618 -0.0199 -1.4744
 2712TIP3   OH229770   2.010   5.635   0.264  0.2345  0.6998 -0.1246
 2712TIP3    H129771   2.045   5.630   0.175  3.0118  3.0605  0.6749
 2712TIP3    H229772   2.068   5.579   0.316 -1.8986 -1.3794  0.1745
 2713TIP3   OH229773   1.024   1.653   8.098 -0.5070  0.0868  0.0949
 2713TIP3    H129774   0.962   1.655   8.025  0.5847 -1.4808 -0.9409
 2713TIP3    H229775   1.055   1.562   8.100  4.5134  1.4332 -1.8997
 2714TIP3   OH229776   4.782   5.550   1.176  0.2030 -0.2148  0.5819
 2714TIP3    H129777   4.702   5.507   1.208 -0.0735  0.1215  0.3395
 2714TIP3    H229778   4.792   5.519   1.086 -0.4399  0.8408  0.1311
 2715TIP3   OH229779   4.244   4.792   1.661  0.6866  0.6550  0.4491
 2715TIP3    H129780   4.246   4.883   1.691 -0.5605  1.4055 -1.5208
 2715TIP3    H229781   4.303   4.791   1.586 -1.9294  0.8205 -1.7829
 2716TIP3   OH229782   5.887   2.518   8.362 -0.0798  0.5213  0.2752
 2716TIP3    H129783   5.826   2.468   8.415  0.0148 -1.0480 -1.0027
 2716TIP3    H229784   5.972   2.505   8.405 -0.1072 -0.1937  0.1288
 2717TIP3   OH229785   6.362   4.787   8.202  0.3091 -0.2970 -0.2078
 2717TIP3    H129786   6.310   4.721   8.157  0.2378  0.0640 -0.6581
 2717TIP3    H229787   6.445   4.788   8.156 -0.5208  1.6451 -1.8105
 2718TIP3   OH229788   1.128   2.014   7.798  0.1850  0.1655  0.0986
 2718TIP3    H129789   1.079   2.008   7.716 -0.4663 -0.3830  0.5147
 2718TIP3    H229790   1.110   2.103   7.831  0.1298  0.2485 -0.1567
 2719TIP3   OH229791   1.183   6.113   1.137  0.0623  0.5416 -0.1599
 2719TIP3    H129792   1.140   6.030   1.114 -0.3670  0.6323  0.3092
 2719TIP3    H229793   1.121   6.157   1.195  1.2140  0.2288  1.3516
 2720TIP3   OH229794   3.487   3.895   8.483  0.1207 -0.2994 -0.3282
 2720TIP3    H129795   3.530   3.860   8.405 -1.4653 -2.1857 -0.4411
 2720TIP3    H229796   3.517   3.986   8.488  1.9602 -0.7541 -1.8703
 2721TIP3   OH229797   3.529   0.940   6.709 -0.0204  0.0182  0.2471
 2721TIP3    H129798   3.436   0.925   6.693 -0.3994 -1.5013  3.2086
 2721TIP3    H229799   3.572   0.860   6.679 -0.2529 -1.0626  2.5683
 2722TIP3   OH229800   1.553   6.690   2.687 -0.4535 -0.3453 -0.0264
 2722TIP3    H129801   1.498   6.749   2.739 -1.0529 -2.5043  1.9175
 2722TIP3    H229802   1.492   6.630   2.645  0.2639 -0.7497 -0.5150
 2723TIP3   OH229803   4.252   2.727   2.266 -0.6058  0.3375  0.4033
 2723TIP3    H129804   4.181   2.785   2.294 -0.6622  0.1161  0.7257
 2723TIP3    H229805   4.274   2.676   2.345 -0.5398 -0.0589  0.1287
 2724TIP3   OH229806   5.215   1.130   8.023  0.5455 -0.4074  0.1884
 2724TIP3    H129807   5.146   1.070   7.994  0.2719 -0.0819  0.1644
 2724TIP3    H229808   5.274   1.137   7.948  1.5511 -2.0334  0.7720
 2725TIP3   OH229809   5.172   2.017   2.199 -0.0063  0.0811  0.0749
 2725TIP3    H129810   5.229   1.966   2.257  0.3174  1.3851  0.9474
 2725TIP3    H229811   5.119   2.070   2.259 -0.3951  0.6953 -0.8073
 2726TIP3   OH229812   3.832   6.797   1.845  0.5762 -0.0547 -0.5313
 2726TIP3    H129813   3.919   6.773   1.878 -0.1666  1.9801  3.6107
 2726TIP3    H229814   3.782   6.716   1.850  1.3712 -0.5182  0.5856
 2727TIP3   OH229815   3.662   0.082   0.157  1.0163  0.2736  0.0689
 2727TIP3    H129816   3.572   0.049   0.152  1.4107 -0.6188 -2.3074
 2727TIP3    H229817   3.706   0.022   0.218  0.4092 -0.3236 -0.0681
 2728TIP3   OH229818   2.546   4.831   8.537  0.3560 -0.3610  0.0963
 2728TIP3    H129819   2.574   4.907   8.587 -0.8880  0.4914 -0.4503
 2728TIP3    H229820   2.627   4.784   8.516  1.0655  0.3844  1.1019
 2729TIP3   OH229821   4.592   3.873   0.932 -0.3275  0.0483  0.2791
 2729TIP3    H129822   4.535   3.798   0.913 -2.4419  1.1856  1.7502
 2729TIP3    H229823   4.606   3.869   1.026  2.2274 -0.2343 -0.0249
 2730TIP3   OH229824   4.667   6.578   1.945  0.5868  0.3791 -0.3928
 2730TIP3    H129825   4.581   6.539   1.961  0.0920  1.1143 -1.1951
 2730TIP3    H229826   4.694   6.612   2.031  0.3368 -0.3302 -0.0178
 2731TIP3   OH229827   4.435   4.815   1.478 -0.1955 -0.0006 -0.5036
 2731TIP3    H129828   4.414   4.803   1.385 -0.1812  0.8146 -0.6243
 2731TIP3    H229829   4.528   4.841   1.478  0.0258 -0.7563 -0.1949
 2732TIP3   OH229830   2.704   5.703   8.066  0.3731  0.3006  0.0321
 2732TIP3    H129831   2.663   5.748   7.992  0.6433  2.0867  0.9059
 2732TIP3    H229832   2.663   5.617   8.068 -1.9934  1.3527 -0.2603
 2733TIP3   OH229833   5.422   3.278   0.803  0.4586 -0.1581  0.1965
 2733TIP3    H129834   5.358   3.285   0.874  0.4563  0.0433  0.1748
 2733TIP3    H229835   5.392   3.341   0.737  0.8247  0.1208  0.2980
 2734TIP3   OH229836   4.882   0.931   8.292  0.1084 -0.3611  0.8609
 2734TIP3    H129837   4.895   1.026   8.296 -2.1143  0.2129 -2.1526
 2734TIP3    H229838   4.789   0.920   8.312 -0.4983 -1.4469 -2.1509
 2735TIP3   OH229839   6.717   6.684   1.922  0.5776 -0.6050 -0.0533
 2735TIP3    H129840   6.709   6.778   1.906  0.5784 -0.8413 -1.6392
 2735TIP3    H229841   6.677   6.670   2.008 -1.9715  0.4552 -0.9602
 2736TIP3   OH229842   6.480   6.317   1.705  0.2437  0.4770 -0.4792
 2736TIP3    H129843   6.566   6.290   1.738 -0.2055  0.8666  1.0628
 2736TIP3    H229844   6.498   6.392   1.649  0.7754  1.6686  1.2197
 2737TIP3   OH229845   2.326   0.038   1.106  0.4780 -0.4381 -0.1883
 2737TIP3    H129846   2.259  -0.003   1.052  1.4570  0.4583 -2.1909
 2737TIP3    H229847   2.406   0.032   1.054  2.0829 -1.7111  2.2349
 2738TIP3   OH229848   2.100   6.377   7.619 -0.4274 -0.1241 -0.1886
 2738TIP3    H129849   2.137   6.296   7.652 -0.1470  0.5977  1.3692
 2738TIP3    H229850   2.040   6.350   7.549 -2.1356 -1.8852  1.8016
 2739TIP3   OH229851   3.794   4.078   6.407  0.8221 -0.5581  0.1251
 2739TIP3    H129852   3.818   4.109   6.319  1.4018  1.3039  0.8853
 2739TIP3    H229853   3.700   4.095   6.413  1.0556  0.7713  0.3769
 2740TIP3   OH229854   0.561   0.847   0.160 -0.0846  0.5752  0.3586
 2740TIP3    H129855   0.557   0.932   0.117 -0.3886  1.8930  2.7794
 2740TIP3    H229856   0.520   0.787   0.099  1.0208  1.9569 -1.8486
 2741TIP3   OH229857   3.182   5.988   6.989  0.0009  0.0748  0.0665
 2741TIP3    H129858   3.129   6.054   7.033  0.3613  0.7680 -0.5221
 2741TIP3    H229859   3.222   5.938   7.061 -2.3640 -1.2594  0.5494
 2742TIP3   OH229860   1.065   4.292   7.019 -0.3658  0.5207 -0.2076
 2742TIP3    H129861   1.068   4.382   7.051 -0.2635  0.5220 -0.2238
 2742TIP3    H229862   0.974   4.280   6.990 -0.1562  0.8954 -1.0247
 2743TIP3   OH229863   1.544   2.195   0.712  0.4083  0.4973 -0.0569
 2743TIP3    H129864   1.451   2.197   0.688  0.1239 -1.0621  0.7551
 2743TIP3    H229865   1.580   2.123   0.659  0.1858 -1.7378  2.5781
 2744TIP3   OH229866   1.461   6.789   6.633 -0.0962  0.3468 -0.4746
 2744TIP3    H129867   1.415   6.872   6.622  0.1323  0.5289 -0.0725
 2744TIP3    H229868   1.543   6.812   6.675 -0.9713 -0.3043  1.7329
 2745TIP3   OH229869   0.950   4.618   7.870 -0.4339 -0.3585 -0.0664
 2745TIP3    H129870   1.006   4.608   7.946 -0.3971  0.1466 -0.0197
 2745TIP3    H229871   0.919   4.709   7.875  0.2444 -0.0509 -1.1056
 2746TIP3   OH229872   5.154   3.107   1.195  0.4685 -0.8889 -0.5905
 2746TIP3    H129873   5.083   3.167   1.219  0.5576 -0.6743 -0.8571
 2746TIP3    H229874   5.136   3.027   1.245  0.6515 -0.4540  0.1977
 2747TIP3   OH229875   0.660   5.186   2.635 -0.5202  0.1079 -0.4759
 2747TIP3    H129876   0.629   5.260   2.686 -1.3747 -1.7202  1.8258
 2747TIP3    H229877   0.624   5.201   2.547 -1.0077  2.1585  0.0106
 2748TIP3   OH229878   5.342   2.761   0.238  0.0636 -0.2499  0.0586
 2748TIP3    H129879   5.423   2.812   0.242 -1.2686  2.0047  0.1302
 2748TIP3    H229880   5.370   2.675   0.209  2.5139  0.3699  0.3031
 2749TIP3   OH229881   5.993   6.342   7.491 -0.0749 -0.0784  0.0993
 2749TIP3    H129882   6.065   6.362   7.551  0.5919  0.9183 -0.9905
 2749TIP3    H229883   6.035   6.298   7.418 -0.8031 -0.7800  0.0890
 2750TIP3   OH229884   3.141   2.877   0.688  0.4669 -1.0361  0.6081
 2750TIP3    H129885   3.173   2.788   0.673 -0.5272 -1.1101 -1.4009
 2750TIP3    H229886   3.072   2.867   0.754  1.0721 -1.5960  1.1703
 2751TIP3   OH229887   3.609   4.763   1.311 -0.0193 -0.0951 -0.3427
 2751TIP3    H129888   3.550   4.835   1.291  1.1180  0.7532 -0.7767
 2751TIP3    H229889   3.685   4.777   1.254  0.9213 -0.7251  0.6998
 2752TIP3   OH229890   6.726   5.114   8.134 -0.1597  0.3833  0.1952
 2752TIP3    H129891   6.631   5.101   8.134 -0.0488 -0.6812  1.8173
 2752TIP3    H229892   6.737   5.209   8.140 -1.0563  0.8486 -3.2186
 2753TIP3   OH229893   0.280   2.472   8.244 -0.4465  0.0162  0.0559
 2753TIP3    H129894   0.210   2.411   8.222  0.9522 -1.6537  0.0348
 2753TIP3    H229895   0.352   2.447   8.186  0.2234  1.6451  0.1255
 2754TIP3   OH229896   3.634   2.690   8.502 -0.6711  0.0471 -0.6377
 2754TIP3    H129897   3.631   2.730   8.589  1.1732 -1.9911  0.4708
 2754TIP3    H229898   3.578   2.612   8.510 -0.1981 -0.3550 -1.1373
 2755TIP3   OH229899   4.866   6.010   7.144 -0.0140 -0.4554 -0.4633
 2755TIP3    H129900   4.799   6.009   7.076  1.0088  1.9792 -1.6534
 2755TIP3    H229901   4.835   5.949   7.211 -2.2540 -1.0974 -2.0091
 2756TIP3   OH229902   3.394   3.281   7.905  0.2359 -0.7885  0.3173
 2756TIP3    H129903   3.437   3.367   7.910  0.7103 -1.0907  2.1402
 2756TIP3    H229904   3.307   3.299   7.871  1.0660  0.1144 -1.4638
 2757TIP3   OH229905   3.826   3.628   7.266  0.1357 -0.1311 -0.0593
 2757TIP3    H129906   3.760   3.576   7.220 -0.4160 -0.6742  1.2710
 2757TIP3    H229907   3.871   3.564   7.323  2.1822  0.1205 -1.2866
 2758TIP3   OH229908   5.302   1.706   1.417 -0.3915  0.6496  0.0355
 2758TIP3    H129909   5.314   1.718   1.511 -2.1329  0.9907  0.2454
 2758TIP3    H229910   5.363   1.769   1.377  1.3727 -0.4423  0.8509
 2759TIP3   OH229911   6.160   6.194   7.321  0.1384  0.4004  0.4441
 2759TIP3    H129912   6.233   6.166   7.377  0.0325 -1.2210 -0.1516
 2759TIP3    H229913   6.199   6.203   7.234 -0.4732 -1.2945 -0.0529
 2760TIP3   OH229914   6.735   2.333   0.819 -0.2207  0.5976  0.9556
 2760TIP3    H129915   6.762   2.249   0.780 -1.0588  1.0238 -0.6646
 2760TIP3    H229916   6.689   2.308   0.899 -2.8306 -0.8026 -0.7900
 2761TIP3   OH229917   6.633   5.549   0.383 -0.2473  0.0866  0.1776
 2761TIP3    H129918   6.564   5.512   0.329 -0.9944  2.6943 -0.8177
 2761TIP3    H229919   6.608   5.528   0.473 -0.1842 -2.3476 -0.3009
 2762TIP3   OH229920   2.153   1.445   0.122 -0.0132 -0.2863  0.3323
 2762TIP3    H129921   2.151   1.405   0.209  0.9678 -0.6290  0.2058
 2762TIP3    H229922   2.218   1.515   0.129  0.0817 -0.3263 -0.1296
 2763TIP3   OH229923   2.503   4.141   1.917  0.5774 -0.5158 -0.2776
 2763TIP3    H129924   2.418   4.101   1.900 -0.3316  0.7359  1.0498
 2763TIP3    H229925   2.495   4.180   2.005  2.0924  0.6938 -0.6157
 2764TIP3   OH229926   6.304   3.266   1.153  0.8894 -0.4524 -0.3324
 2764TIP3    H129927   6.330   3.352   1.122  0.3046 -0.0603  0.2251
 2764TIP3    H229928   6.346   3.258   1.239 -0.0183 -0.2193  0.1407
 2765TIP3   OH229929   4.270   5.311   7.197  0.1740 -0.2919  0.3163
 2765TIP3    H129930   4.177   5.335   7.197  0.2652  0.0734 -0.1524
 2765TIP3    H229931   4.316   5.392   7.178  0.6728 -0.2096  1.7392
 2766TIP3   OH229932   3.350   0.161   6.778  0.1341 -0.1937  0.2875
 2766TIP3    H129933   3.317   0.232   6.723  1.8314  0.8993  0.6110
 2766TIP3    H229934   3.277   0.142   6.838 -0.7841  0.4118 -0.5925
 2767TIP3   OH229935   2.746   2.566   0.468  0.5999 -0.1186  0.5066
 2767TIP3    H129936   2.662   2.521   0.473  0.4939  0.0750  0.4908
 2767TIP3    H229937   2.801   2.523   0.533  0.7595 -0.8199 -0.0782
 2768TIP3   OH229938   0.892   1.226   0.223 -0.1112  0.0152 -0.2352
 2768TIP3    H129939   0.937   1.146   0.251 -2.2295 -1.5574 -1.0292
 2768TIP3    H229940   0.905   1.287   0.296  2.6647 -0.5363 -0.1639
 2769TIP3   OH229941   3.990   6.121   1.653 -0.1874 -0.1363 -0.0834
 2769TIP3    H129942   4.029   6.057   1.593  1.3368 -0.0579  0.7602
 2769TIP3    H229943   3.963   6.069   1.729  0.7770  0.1523  0.4743
 2770TIP3   OH229944   0.767   6.185   7.488 -0.6603  0.0555 -0.2673
 2770TIP3    H129945   0.819   6.142   7.555 -2.4210 -0.8144  0.5954
 2770TIP3    H229946   0.714   6.249   7.535 -1.0378  0.3020 -1.0000
 2771TIP3   OH229947   0.693   0.716   6.777 -0.3325 -0.0987  0.4345
 2771TIP3    H129948   0.660   0.705   6.866  1.6399 -0.4400  1.1828
 2771TIP3    H229949   0.772   0.769   6.787  1.4604 -2.3504 -0.7119
 2772TIP3   OH229950   2.310   2.377   7.607 -0.7473  0.0611 -0.2265
 2772TIP3    H129951   2.387   2.393   7.553 -0.5209 -0.2396  0.0063
 2772TIP3    H229952   2.307   2.282   7.617 -0.2373  0.1636  1.0743
 2773TIP3   OH229953   2.700   4.357   7.524  0.5796  0.2842  0.0545
 2773TIP3    H129954   2.718   4.412   7.600  0.2067  0.0226  0.3370
 2773TIP3    H229955   2.779   4.303   7.515  0.1297 -0.5888  1.0568
 2774TIP3   OH229956   3.337   4.036   1.403 -0.0068  0.0242 -0.3171
 2774TIP3    H129957   3.337   4.117   1.452 -0.2443  0.0396 -0.3436
 2774TIP3    H229958   3.247   4.003   1.408 -0.1887  0.3397 -1.2470
 2775TIP3   OH229959   1.110   0.466   0.117  0.0866  0.0358  0.2009
 2775TIP3    H129960   1.071   0.514   0.190  1.8738  0.2189  1.0992
 2775TIP3    H229961   1.129   0.380   0.154  2.0859  0.5032  0.3739
 2776TIP3   OH229962   0.882   1.386   7.183 -0.0367  0.1391 -0.4610
 2776TIP3    H129963   0.817   1.335   7.231  0.4216  0.5107  0.5928
 2776TIP3    H229964   0.878   1.353   7.094 -0.3537 -1.1340  0.0089
 2777TIP3   OH229965   4.549   6.238   8.550 -0.3359  0.6456  0.0625
 2777TIP3    H129966   4.603   6.236   8.629 -0.3907 -1.3715  0.1029
 2777TIP3    H229967   4.495   6.316   8.560  0.7400  1.2755  1.2646
 2778TIP3   OH229968   0.916   0.385   2.025 -0.5589 -0.1808 -0.1138
 2778TIP3    H129969   1.002   0.343   2.024 -0.6083 -0.3497  0.9786
 2778TIP3    H229970   0.855   0.314   2.047 -0.9538 -0.0147 -0.6511
 2779TIP3   OH229971   1.155   1.074   6.761  0.6652 -0.0230  0.7450
 2779TIP3    H129972   1.131   1.028   6.841 -0.1425 -0.5195  0.2233
 2779TIP3    H229973   1.242   1.110   6.780  0.2914  0.2772  2.0120
 2780TIP3   OH229974   4.761   4.390   1.951 -0.0634  0.0863 -0.1971
 2780TIP3    H129975   4.849   4.424   1.967  1.3311 -2.0863 -2.3971
 2780TIP3    H229976   4.748   4.323   2.019  0.1637  0.1618 -0.0779
 2781TIP3   OH229977   3.066   0.759   2.559  0.0709 -0.3224  0.0604
 2781TIP3    H129978   3.132   0.826   2.543 -1.5101  1.2096 -0.4339
 2781TIP3    H229979   3.105   0.678   2.525  0.9401  0.8881 -2.0301
 2782TIP3   OH229980   5.136   5.957   1.817  0.6824  0.0587 -0.3775
 2782TIP3    H129981   5.148   5.990   1.906 -0.4163  0.0714 -0.2194
 2782TIP3    H229982   5.097   5.870   1.828  0.2284  0.1963 -0.8394
 2783TIP3   OH229983   6.761   3.220   0.335  0.2509  0.0998 -0.0985
 2783TIP3    H129984   6.782   3.288   0.399  2.1592  0.0371 -0.6018
 2783TIP3    H229985   6.780   3.138   0.381 -1.4984 -0.1136  0.3137
 2784TIP3   OH229986   1.401   1.210   7.907  0.3823 -0.1928 -0.0542
 2784TIP3    H129987   1.398   1.304   7.929  1.3476 -0.7885  3.1743
 2784TIP3    H229988   1.363   1.167   7.983  1.0180 -2.4994 -0.9707
 2785TIP3   OH229989   6.467   5.979   7.326 -0.8826  0.0244  0.0957
 2785TIP3    H129990   6.541   5.923   7.348 -2.3552 -1.9281  0.3068
 2785TIP3    H229991   6.500   6.068   7.338  1.1717 -0.7966  0.9511
 2786TIP3   OH229992   2.219   3.959   8.394 -0.3553 -0.3935  0.9419
 2786TIP3    H129993   2.250   3.896   8.459  1.1166 -1.2526 -0.5161
 2786TIP3    H229994   2.271   3.941   8.316 -1.1905  1.4283 -0.1095
 2787TIP3   OH229995   3.212   1.441   2.397  0.2471 -0.2450 -0.0271
 2787TIP3    H129996   3.178   1.355   2.372 -0.2569  0.6190 -2.6505
 2787TIP3    H229997   3.166   1.463   2.478 -0.6808 -1.8446 -0.0823
 2788TIP3   OH229998   2.321   4.085   0.890  0.0970  0.3302  0.3742
 2788TIP3    H129999   2.339   4.051   0.978 -0.2121  0.8513  0.6405
 2788TIP3    H230000   2.404   4.075   0.843 -0.4314 -2.4658 -0.1218
 2789TIP3   OH230001   0.043   2.462   1.655  1.0988 -0.1750 -0.0381
 2789TIP3    H130002  -0.033   2.495   1.703  2.2009  2.7119 -0.0749
 2789TIP3    H230003   0.065   2.380   1.699 -0.6044  0.1305  1.5016
 2790TIP3   OH230004   2.703   0.204   0.758  0.6164  0.0720  0.4467
 2790TIP3    H130005   2.790   0.209   0.718  0.2769  1.0762 -0.1971
 2790TIP3    H230006   2.648   0.165   0.690  0.1178  1.4357  0.0428
 2791TIP3   OH230007   5.201   2.303   7.175  1.0114 -0.3813  0.0769
 2791TIP3    H130008   5.127   2.357   7.201  0.6997 -1.4733  1.5251
 2791TIP3    H230009   5.162   2.219   7.148  1.6357 -0.5722 -0.2621
 2792TIP3   OH230010   3.042   6.258   1.193  0.1336 -0.2232 -0.1500
 2792TIP3    H130011   3.103   6.185   1.207  0.3657 -0.7584 -3.1405
 2792TIP3    H230012   3.024   6.292   1.280  1.7546 -2.4581  1.1603
 2793TIP3   OH230013   1.780   6.686   1.584 -0.1150 -0.4038  0.3002
 2793TIP3    H130014   1.871   6.687   1.554 -0.7463 -0.7687 -1.7824
 2793TIP3    H230015   1.759   6.778   1.600 -0.0809 -0.0295 -1.5890
 2794TIP3   OH230016   0.151   3.566   1.809 -0.0100  0.0443 -0.1302
 2794TIP3    H130017   0.074   3.623   1.819  0.4965  0.8530 -0.7834
 2794TIP3    H230018   0.221   3.624   1.782 -0.0618 -1.2068 -3.3447
 2795TIP3   OH230019   5.235   2.991   0.413 -0.0040 -0.0730 -0.3789
 2795TIP3    H130020   5.304   3.055   0.395  1.9932 -1.0860  2.8662
 2795TIP3    H230021   5.255   2.917   0.356 -0.5316  0.9293 -1.9358
 2796TIP3   OH230022   0.294   6.339   0.496  0.1636  0.3133 -0.3172
 2796TIP3    H130023   0.214   6.387   0.518 -0.5614 -1.0393  0.0999
 2796TIP3    H230024   0.364   6.392   0.535 -0.6769  0.5849  0.9091
 2797TIP3   OH230025   6.215   1.503   1.596 -0.0719 -0.3071 -0.2752
 2797TIP3    H130026   6.236   1.595   1.577  0.7490 -0.7883 -1.8886
 2797TIP3    H230027   6.292   1.470   1.643 -0.2078 -0.2578 -0.0200
 2798TIP3   OH230028   4.993   4.845   7.825  0.1337  0.2451 -0.2003
 2798TIP3    H130029   5.067   4.813   7.878 -0.4187  0.2329  0.5819
 2798TIP3    H230030   5.034   4.890   7.752  0.9240  0.5592  0.4183
 2799TIP3   OH230031   5.163   3.542   0.109 -0.2807 -0.0469  0.0193
 2799TIP3    H130032   5.075   3.570   0.135 -0.0328  0.9483 -0.1688
 2799TIP3    H230033   5.166   3.558   0.015  0.4763  1.0219  0.2065
 2800TIP3   OH230034   4.682   3.522   6.535  0.2835  0.1835 -0.2363
 2800TIP3    H130035   4.619   3.475   6.590 -2.0990  1.4866 -1.6920
 2800TIP3    H230036   4.683   3.611   6.570  0.9125  0.3074 -0.5572
 2801TIP3   OH230037   5.894   0.053   1.572 -0.3647  0.1506  0.2349
 2801TIP3    H130038   5.822   0.004   1.612 -0.7645  0.4487 -0.1055
 2801TIP3    H230039   5.897   0.135   1.621 -2.0401  1.3018 -1.4313
 2802TIP3   OH230040   4.717   6.836   0.652  0.5626 -0.1520  0.4513
 2802TIP3    H130041   4.751   6.875   0.571 -1.0740  0.4457  0.0052
 2802TIP3    H230042   4.660   6.766   0.623  0.9928 -0.8059  1.1525
 2803TIP3   OH230043   5.394   6.816   1.388 -0.3956  0.2063 -0.2662
 2803TIP3    H130044   5.430   6.863   1.463  0.8408  0.0239 -0.7222
 2803TIP3    H230045   5.319   6.869   1.360 -0.4269  0.6583  0.6382
 2804TIP3   OH230046   3.536   6.421   6.817  0.1541 -0.0838 -0.6486
 2804TIP3    H130047   3.583   6.487   6.766 -0.3596 -0.2751 -1.3773
 2804TIP3    H230048   3.455   6.406   6.768 -0.9075  0.5810  0.8104
 2805TIP3   OH230049   6.901   3.576   1.605  0.1942 -0.0619 -0.0790
 2805TIP3    H130050   6.859   3.656   1.637  0.7197  0.0150  0.4373
 2805TIP3    H230051   6.984   3.571   1.653  0.3526 -0.7042 -0.4003
 2806TIP3   OH230052   0.707   2.244   0.537  0.3559 -0.2991  0.2643
 2806TIP3    H130053   0.761   2.323   0.522  2.6972 -1.7903  0.2833
 2806TIP3    H230054   0.697   2.241   0.632 -0.0805  0.1731  0.2384
 2807TIP3   OH230055   1.841   4.837   7.866 -0.4133 -0.5654 -0.6506
 2807TIP3    H130056   1.795   4.754   7.854  0.1617 -1.0300  0.2221
 2807TIP3    H230057   1.772   4.902   7.879 -0.8727 -0.8808 -1.4714
 2808TIP3   OH230058   4.907   3.260   1.223  0.0987 -0.1001  0.1645
 2808TIP3    H130059   4.907   3.327   1.291 -0.6322 -0.5348  0.6114
 2808TIP3    H230060   4.860   3.300   1.150 -0.3267 -0.1156  0.4249
 2809TIP3   OH230061   6.652   1.698   6.854 -0.3407  0.8458 -0.6212
 2809TIP3    H130062   6.589   1.626   6.861  0.9450 -0.6288 -2.8751
 2809TIP3    H230063   6.610   1.761   6.795 -0.6707  1.0091 -0.2132
 2810TIP3   OH230064   1.457   4.547   0.015 -0.7014  0.0057 -0.2426
 2810TIP3    H130065   1.399   4.487  -0.031 -1.8595 -0.2674  1.4525
 2810TIP3    H230066   1.473   4.618  -0.047 -0.4323 -1.3646 -1.7850
 2811TIP3   OH230067   1.967   6.786   8.376  0.8016  0.0298 -0.2103
 2811TIP3    H130068   1.946   6.875   8.404  0.6757  0.6077 -1.9819
 2811TIP3    H230069   2.037   6.758   8.435  0.4527  1.0817  0.7311
 2812TIP3   OH230070   1.786   4.606   7.186 -0.1571  0.1663 -0.6783
 2812TIP3    H130071   1.867   4.657   7.183  0.2114 -0.3681  0.1333
 2812TIP3    H230072   1.812   4.520   7.217 -1.1638  0.2636  0.5471
 2813TIP3   OH230073   3.821   5.427   7.302 -0.2829  0.3452 -0.1051
 2813TIP3    H130074   3.766   5.462   7.372  1.2177  1.1397  0.7362
 2813TIP3    H230075   3.910   5.441   7.333  0.4048 -1.2495 -1.2531
 2814TIP3   OH230076   6.157   1.825   0.609 -0.3789 -0.0526  0.0556
 2814TIP3    H130077   6.063   1.823   0.628 -1.0924  1.7240 -2.6491
 2814TIP3    H230078   6.167   1.898   0.548  2.8056 -0.1693  0.2745
 2815TIP3   OH230079   3.736   2.433   1.668  0.1005 -0.5664  0.7959
 2815TIP3    H130080   3.656   2.399   1.630  0.4062  0.3923 -0.7832
 2815TIP3    H230081   3.784   2.356   1.698  1.1468 -1.7881 -3.3689
 2816TIP3   OH230082   6.248   0.194   6.833  0.3817  0.3099  0.1510
 2816TIP3    H130083   6.193   0.167   6.760 -0.2798 -0.4322  0.9091
 2816TIP3    H230084   6.248   0.290   6.829 -0.4934  0.3013 -0.1975
 2817TIP3   OH230085   3.724   3.252   0.323  0.1835 -0.2508 -0.2789
 2817TIP3    H130086   3.637   3.225   0.352  0.9891  0.3159  3.0540
 2817TIP3    H230087   3.719   3.348   0.320  1.3385  0.0143  2.7932
 2818TIP3   OH230088   6.531   1.018   6.522 -0.1477 -0.2299  0.1105
 2818TIP3    H130089   6.587   0.981   6.454  1.2540 -0.0157  1.1068
 2818TIP3    H230090   6.446   0.976   6.509 -0.0592  0.1536 -2.0519
 2819TIP3   OH230091   5.072   3.974   0.699 -0.4032 -0.2393 -0.3572
 2819TIP3    H130092   5.048   3.919   0.774 -0.2348  0.7736  0.4506
 2819TIP3    H230093   5.029   3.932   0.625  1.2620 -2.5938 -0.1169
 2820TIP3   OH230094   0.806   3.677   0.457  0.0117 -0.4473 -0.4744
 2820TIP3    H130095   0.752   3.731   0.399  1.1201 -0.5459 -1.6454
 2820TIP3    H230096   0.834   3.604   0.402  0.0981 -1.2155  0.5482
 2821TIP3   OH230097   2.472   6.229   7.964  0.3393  0.6047 -0.1564
 2821TIP3    H130098   2.566   6.247   7.960  0.4748 -0.2336 -1.2488
 2821TIP3    H230099   2.466   6.140   7.998  0.1408 -0.5655 -2.9746
 2822TIP3   OH230100   4.351   5.739   1.313 -0.3796 -0.5039  0.3664
 2822TIP3    H130101   4.321   5.759   1.401  1.0039 -0.1221  0.7779
 2822TIP3    H230102   4.447   5.741   1.319 -0.2321  1.3763 -1.5452
 2823TIP3   OH230103   5.742   6.757   7.533 -0.3853  0.6098  0.0871
 2823TIP3    H130104   5.758   6.842   7.492  2.4787 -1.0450 -2.6783
 2823TIP3    H230105   5.685   6.711   7.471  1.7723 -0.9574 -0.8927
 2824TIP3   OH230106   5.910   0.805   7.612  0.1839 -0.0757  0.6234
 2824TIP3    H130107   5.983   0.776   7.558  0.6512 -0.7661  1.5886
 2824TIP3    H230108   5.947   0.811   7.700 -1.6796 -4.0264  1.9204
 2825TIP3   OH230109   0.181   5.101   7.084  0.5271  0.4972 -0.2510
 2825TIP3    H130110   0.167   5.122   6.991 -0.1645  1.6263  0.0946
 2825TIP3    H230111   0.101   5.055   7.110  1.7659 -2.1746 -0.8356
 2826TIP3   OH230112   0.630   0.380   2.230  0.1370  0.2965  0.3573
 2826TIP3    H130113   0.677   0.298   2.216 -0.2660  0.2379 -0.7442
 2826TIP3    H230114   0.599   0.375   2.321  1.6835  0.0636  0.9097
 2827TIP3   OH230115   4.264   0.330   7.676  0.1995 -0.8160  0.1413
 2827TIP3    H130116   4.278   0.384   7.754 -1.4816  0.3549 -0.3094
 2827TIP3    H230117   4.227   0.389   7.611 -2.1893 -2.5488 -0.2253
 2828TIP3   OH230118   2.106   3.652   7.615  0.4430  0.0718 -0.4028
 2828TIP3    H130119   2.188   3.620   7.579 -0.1816 -1.8293 -0.2521
 2828TIP3    H230120   2.130   3.729   7.666  2.2352 -0.8713  0.2497
 2829TIP3   OH230121   0.195   6.620   0.321  0.1249  0.4553 -0.0265
 2829TIP3    H130122   0.220   6.632   0.412 -0.5292  1.8773 -0.0068
 2829TIP3    H230123   0.183   6.708   0.287 -1.7830 -0.0660 -0.8693
 2830TIP3   OH230124   5.459   6.372   1.961  0.5936  0.1538 -0.8737
 2830TIP3    H130125   5.385   6.427   1.936  0.7023  0.5501 -0.3394
 2830TIP3    H230126   5.528   6.434   1.986  0.5657 -0.2222  0.1714
 2831TIP3   OH230127   1.685   5.937   7.774 -0.1898 -0.5402 -0.2861
 2831TIP3    H130128   1.691   5.862   7.832 -0.3250  0.4743  1.0882
 2831TIP3    H230129   1.619   5.913   7.710 -2.0389 -0.6875  1.5774
 2832TIP3   OH230130   4.646   0.677   7.493  0.6410 -0.3440 -0.2128
 2832TIP3    H130131   4.609   0.663   7.581  0.5090 -0.5026 -0.2921
 2832TIP3    H230132   4.586   0.630   7.435  0.4655  0.1520 -0.4373
 2833TIP3   OH230133   4.996   4.296   2.369  0.1287 -0.1432  0.6539
 2833TIP3    H130134   5.023   4.204   2.373  1.5607  0.2930  1.8775
 2833TIP3    H230135   5.074   4.343   2.337 -1.8701  0.2366 -4.6448
 2834TIP3   OH230136   4.914   2.694   0.239 -0.3356 -0.2548 -0.0652
 2834TIP3    H130137   4.966   2.722   0.163 -0.3980  0.2583  0.0818
 2834TIP3    H230138   4.831   2.740   0.230  0.4470  1.6166  1.5058
 2835TIP3   OH230139   3.274   1.445   0.796  0.0580  0.2034  0.0052
 2835TIP3    H130140   3.252   1.474   0.708 -2.2925 -0.1935  0.3917
 2835TIP3    H230141   3.297   1.353   0.787  2.3063  0.7544 -0.4827
 2836TIP3   OH230142   6.406   3.607   1.319  0.5225  0.1315 -0.3098
 2836TIP3    H130143   6.310   3.605   1.312  0.3478  3.2846 -0.2342
 2836TIP3    H230144   6.436   3.589   1.230 -0.1149 -1.1086 -0.2912
 2837TIP3   OH230145   6.461   6.771   2.486 -0.0879  0.0946  0.0300
 2837TIP3    H130146   6.418   6.725   2.414  0.1936  1.2257 -0.8988
 2837TIP3    H230147   6.393   6.829   2.521  0.3163  0.9959 -0.6445
 2838TIP3   OH230148   5.544   2.064   0.443 -0.0504 -0.1996  0.5366
 2838TIP3    H130149   5.511   2.012   0.517  2.0537 -0.4010  1.3890
 2838TIP3    H230150   5.477   2.131   0.430 -1.3094 -1.2029  1.4571
 2839TIP3   OH230151   6.667   3.057   7.768  0.2213 -0.1199 -0.6399
 2839TIP3    H130152   6.617   3.137   7.779  0.1167 -0.4320  1.8043
 2839TIP3    H230153   6.741   3.082   7.713 -0.9905  1.0586 -1.8157
 2840TIP3   OH230154   3.511   5.586   7.874  0.3168  0.1328 -0.2190
 2840TIP3    H130155   3.471   5.665   7.840  2.5523  1.7000  0.5622
 2840TIP3    H230156   3.604   5.606   7.880  1.0654 -2.7288 -0.4154
 2841TIP3   OH230157   0.181   3.866   7.854  0.9662  0.3188  0.3956
 2841TIP3    H130158   0.250   3.804   7.830 -0.0074 -1.7480  2.5835
 2841TIP3    H230159   0.179   3.864   7.950 -1.5504  0.9906  0.4179
 2842TIP3   OH230160   4.544   4.382   8.142 -0.3468  0.6244 -0.0248
 2842TIP3    H130161   4.520   4.378   8.234  1.6110 -1.6946  0.4957
 2842TIP3    H230162   4.523   4.294   8.108 -0.4440  1.2362 -1.6306
 2843TIP3   OH230163   6.812   4.485   2.004 -0.4388  0.0972  0.5361
 2843TIP3    H130164   6.863   4.405   1.992 -1.2037 -0.4240  0.6919
 2843TIP3    H230165   6.825   4.509   2.095  0.2435  0.4716  0.3442
 2844TIP3   OH230166   4.376   6.137   0.196  0.0030 -0.2644  0.0576
 2844TIP3    H130167   4.321   6.093   0.261 -0.6517  1.3277  0.6304
 2844TIP3    H230168   4.423   6.066   0.153 -1.1983 -1.5385  0.7571
 2845TIP3   OH230169   5.919   5.004   2.625 -0.0541  0.1602  0.5067
 2845TIP3    H130170   5.829   4.981   2.601 -0.3262  1.5029  0.1178
 2845TIP3    H230171   5.917   5.010   2.721 -0.5073  0.5866  0.4796
 2846TIP3   OH230172   4.578   2.346   8.328  0.8431  0.3318 -0.1399
 2846TIP3    H130173   4.554   2.257   8.302 -2.5516  0.8612  0.6894
 2846TIP3    H230174   4.592   2.340   8.423 -2.5049  1.0869  0.5191
 2847TIP3   OH230175   2.532   5.178   7.898 -0.6123  0.2389 -0.6013
 2847TIP3    H130176   2.601   5.233   7.936 -1.5574  1.4656 -0.6240
 2847TIP3    H230177   2.455   5.196   7.952 -1.0388 -0.7958 -0.8477
 2848TIP3   OH230178   6.589   0.958   6.798 -0.4152  0.0163  0.2435
 2848TIP3    H130179   6.641   1.034   6.824  2.1280 -1.1993 -0.9524
 2848TIP3    H230180   6.559   0.979   6.710  1.9910 -1.0450 -0.9279
 2849TIP3   OH230181   1.074   1.928   0.263 -0.4608 -0.3727 -0.1574
 2849TIP3    H130182   1.090   1.996   0.197  0.9527 -2.1408 -1.7213
 2849TIP3    H230183   0.987   1.950   0.298 -0.3565  1.8273 -1.0751
 2850TIP3   OH230184   3.717   6.338   7.005  0.0193  0.5083 -0.6884
 2850TIP3    H130185   3.756   6.425   7.000 -0.8317  0.9180 -0.2587
 2850TIP3    H230186   3.628   6.349   6.973 -0.8798  0.2942  1.5413
 2851TIP3   OH230187   6.864   0.131   0.230 -0.3246 -0.4790  0.2445
 2851TIP3    H130188   6.939   0.182   0.261  0.1744 -0.1940 -1.3370
 2851TIP3    H230189   6.794   0.195   0.218 -0.5539 -0.6072  0.8691
 2852TIP3   OH230190   5.423   3.399   1.935  0.4484 -0.9072 -0.1435
 2852TIP3    H130191   5.506   3.408   1.889  0.5606 -1.8882 -0.1691
 2852TIP3    H230192   5.369   3.470   1.902  1.2670 -0.2678 -0.1409
 2853TIP3   OH230193   3.436   1.531   7.724  0.1631 -0.1073  0.2000
 2853TIP3    H130194   3.488   1.464   7.769  3.0823  0.6624 -1.7709
 2853TIP3    H230195   3.422   1.598   7.791  2.9696  0.2672  0.5471
 2854TIP3   OH230196   5.351   2.164   1.945  0.1077 -0.3439  0.0018
 2854TIP3    H130197   5.419   2.231   1.949 -1.0592  0.8763  0.1696
 2854TIP3    H230198   5.394   2.083   1.972  1.2153  0.6116  1.1967
 2855TIP3   OH230199   6.126   3.787   0.772 -0.4888  0.0890 -0.5304
 2855TIP3    H130200   6.119   3.728   0.697  1.1074  1.3807 -1.7747
 2855TIP3    H230201   6.091   3.871   0.741  0.9023  0.8545 -0.1256
 2856TIP3   OH230202   6.678   6.929   6.930  0.0955 -0.0985 -0.6681
 2856TIP3    H130203   6.644   6.970   6.850 -0.0014 -0.1138 -0.6348
 2856TIP3    H230204   6.708   7.003   6.984  0.5798 -0.1119 -0.9073
 2857TIP3   OH230205   2.839   4.156   2.206  0.3290 -0.0569  0.0686
 2857TIP3    H130206   2.887   4.152   2.288  2.4096 -0.4643 -1.0915
 2857TIP3    H230207   2.878   4.229   2.158 -2.2549  1.5301  0.1954
 2858TIP3   OH230208   3.226   6.440   6.939  0.1309  0.4638 -0.1500
 2858TIP3    H130209   3.284   6.507   6.975  0.0158 -0.4613  1.8699
 2858TIP3    H230210   3.232   6.367   7.000  1.7264 -2.2548 -3.2407
 2859TIP3   OH230211   1.399   4.098   0.107 -0.1170 -0.3283 -0.1944
 2859TIP3    H130212   1.360   4.151   0.176  1.3342  0.7524 -0.1556
 2859TIP3    H230213   1.324   4.060   0.060 -1.1532  0.5445  0.7048
 2860TIP3   OH230214   0.509   0.360   1.057 -0.0942 -0.2723  0.1565
 2860TIP3    H130215   0.423   0.386   1.024 -0.1458  0.2484  0.6684
 2860TIP3    H230216   0.493   0.281   1.108 -0.4232  0.3069  0.9725
 2861TIP3   OH230217   1.191   1.022   1.042  0.6022 -0.5625  0.4639
 2861TIP3    H130218   1.215   1.114   1.040  1.5121 -0.7888 -1.7761
 2861TIP3    H230219   1.237   0.986   1.118  2.1135  0.3681  0.0209
 2862TIP3   OH230220   0.267   2.350   1.476  0.0496  0.0057  0.2953
 2862TIP3    H130221   0.184   2.373   1.434 -0.7864 -0.5004  1.6150
 2862TIP3    H230222   0.289   2.427   1.529  1.2234  0.7379 -1.1872
 2863TIP3   OH230223   2.207   6.135   0.017  0.3800 -0.2075 -0.0655
 2863TIP3    H130224   2.254   6.192   0.077 -0.3081 -1.0355  1.2957
 2863TIP3    H230225   2.215   6.048   0.055  0.0697 -0.7801 -1.2657
 2864TIP3   OH230226   1.471   3.413   1.601  0.0366 -0.5489  0.5195
 2864TIP3    H130227   1.462   3.435   1.509  0.3535 -1.0339  0.3701
 2864TIP3    H230228   1.381   3.404   1.632 -0.1218  1.1274  0.6425
 2865TIP3   OH230229   4.397   4.081   0.333 -0.7030  0.3452 -0.0705
 2865TIP3    H130230   4.386   4.130   0.252  0.8038  0.2858 -0.3340
 2865TIP3    H230231   4.378   3.990   0.308 -0.4280  0.3538 -0.3177
 2866TIP3   OH230232   3.361   3.566   0.914 -0.1502 -0.1663 -0.1869
 2866TIP3    H130233   3.336   3.540   1.002 -0.6822  1.2897  0.1203
 2866TIP3    H230234   3.313   3.648   0.898 -1.4994 -1.2837 -2.4925
 2867TIP3   OH230235   4.249   4.510   0.687 -0.5898 -0.2685  0.3922
 2867TIP3    H130236   4.318   4.458   0.727 -0.8237 -1.0684 -0.1992
 2867TIP3    H230237   4.285   4.599   0.682  0.4955 -0.7141 -0.1200
 2868TIP3   OH230238   0.776   0.308   2.502  0.4829 -0.4051 -0.1243
 2868TIP3    H130239   0.826   0.259   2.438 -0.1435  2.3514 -2.9893
 2868TIP3    H230240   0.806   0.399   2.491 -2.3174  0.7373  0.8374
 2869TIP3   OH230241   1.037   4.837   7.190 -0.0519 -0.2808 -0.3405
 2869TIP3    H130242   1.031   4.784   7.270 -0.2382 -1.6027 -1.1941
 2869TIP3    H230243   0.953   4.882   7.185 -0.3697 -0.8451 -0.2173
 2870TIP3   OH230244   4.174   0.457   1.286  0.2170 -0.4229 -0.0282
 2870TIP3    H130245   4.118   0.512   1.340 -1.5647 -2.2178  0.0846
 2870TIP3    H230246   4.233   0.414   1.349 -0.4276 -0.8968  0.2709
 2871TIP3   OH230247   3.699   5.730   7.074  0.1257  0.1705 -0.0629
 2871TIP3    H130248   3.610   5.753   7.100 -0.3414  0.4261 -1.7936
 2871TIP3    H230249   3.723   5.796   7.008  0.9621 -0.8746 -0.8362
 2872TIP3   OH230250   4.844   1.294   1.064  0.6535 -0.3137 -0.1618
 2872TIP3    H130251   4.923   1.328   1.106 -1.5896  2.0363  2.5987
 2872TIP3    H230252   4.816   1.364   1.005  0.3499 -0.9307 -0.7660
 2873TIP3   OH230253   4.250   6.217   1.952 -0.9071 -0.1633  0.1063
 2873TIP3    H130254   4.225   6.139   2.002 -1.4240  0.2179  0.4437
 2873TIP3    H230255   4.292   6.182   1.874  1.1509 -0.7652  1.4060
 2874TIP3   OH230256   3.850   1.183   1.617  0.6629 -0.3766 -0.1732
 2874TIP3    H130257   3.881   1.220   1.534 -0.2859 -1.1937 -0.9193
 2874TIP3    H230258   3.922   1.199   1.678  0.0170  3.4847 -0.1475
 2875TIP3   OH230259   5.209   6.027   7.268 -0.4679  0.0054 -0.0873
 2875TIP3    H130260   5.271   6.082   7.220 -2.0387  2.1503  0.1976
 2875TIP3    H230261   5.160   5.981   7.200  1.0739 -1.3718 -0.3221
 2876TIP3   OH230262   5.259   2.993   7.337  0.5509 -0.7158  0.0554
 2876TIP3    H130263   5.245   3.037   7.421 -0.1322 -0.7514 -0.0316
 2876TIP3    H230264   5.171   2.972   7.306  0.8425 -1.8427 -0.0670
 2877TIP3   OH230265   4.900   1.782   8.009  0.3664 -0.9358 -0.2780
 2877TIP3    H130266   4.937   1.862   8.045  2.4520 -2.0424  0.1892
 2877TIP3    H230267   4.823   1.811   7.960  1.9576  1.5731 -1.5200
 2878TIP3   OH230268   1.039   0.189   7.128 -0.0991  0.5725  0.0349
 2878TIP3    H130269   1.099   0.260   7.149  1.2520 -0.4259 -0.2911
 2878TIP3    H230270   1.068   0.158   7.042  0.2471 -1.2402  0.7603
 2879TIP3   OH230271   2.928   2.089   1.391 -0.0362 -0.6187 -0.1593
 2879TIP3    H130272   2.857   2.154   1.397 -0.3329 -0.8914 -0.6008
 2879TIP3    H230273   2.886   2.013   1.351  0.4339 -0.9011 -0.1126
 2880TIP3   OH230274   2.160   0.899   0.827  0.3737 -0.2147 -0.2042
 2880TIP3    H130275   2.247   0.938   0.840 -0.0255  0.6169  0.0274
 2880TIP3    H230276   2.143   0.909   0.733  0.1817  0.3902 -0.1118
 2881TIP3   OH230277   2.628   3.690   7.295  0.1340 -0.1018 -0.5561
 2881TIP3    H130278   2.593   3.671   7.208  0.0132  0.1706 -0.5695
 2881TIP3    H230279   2.579   3.767   7.323  0.2222 -0.1485 -0.2754
 2882TIP3   OH230280   5.018   0.816   8.512 -0.2237 -0.3664  0.2967
 2882TIP3    H130281   4.977   0.838   8.428  0.3336  1.0071  0.3667
 2882TIP3    H230282   4.957   0.849   8.577 -0.5163 -1.1778  0.4484
 2883TIP3   OH230283   2.784   3.732   7.673 -0.4577  0.0959  0.2156
 2883TIP3    H130284   2.762   3.786   7.749 -0.8788  0.0252  0.1467
 2883TIP3    H230285   2.732   3.770   7.602  0.3595  0.5179 -0.1695
 2884TIP3   OH230286   5.488   2.989   1.137 -0.0623 -0.2665 -0.1285
 2884TIP3    H130287   5.404   2.979   1.182  0.2790 -0.0530  0.5655
 2884TIP3    H230288   5.549   2.935   1.187  0.4826  0.5545  0.0949
 2885TIP3   OH230289   2.044   0.117   0.824 -0.1359 -0.6364 -0.2433
 2885TIP3    H130290   2.096   0.040   0.847  1.4252 -0.1301 -1.8718
 2885TIP3    H230291   1.983   0.128   0.898  0.5323 -2.5848  0.6632
 2886TIP3   OH230292   6.681   3.025   0.698  0.0888  0.1091 -0.2011
 2886TIP3    H130293   6.720   3.100   0.743  0.6091 -0.2157 -0.1101
 2886TIP3    H230294   6.755   2.970   0.673 -0.3448 -1.0385  0.9051
 2887TIP3   OH230295   4.947   4.995   8.170 -0.0146  0.2302 -0.1876
 2887TIP3    H130296   4.932   4.957   8.083 -2.6950 -0.6394  0.5349
 2887TIP3    H230297   4.900   5.079   8.168 -1.3067 -0.4185  0.7619
 2888TIP3   OH230298   3.837   3.893   6.874  0.3912  0.2319 -0.1020
 2888TIP3    H130299   3.814   3.911   6.965  2.2252  1.7805  0.1201
 2888TIP3    H230300   3.873   3.804   6.875  0.3637  0.2262  0.6839
 2889TIP3   OH230301   4.181   4.079   2.355  0.0898  0.8144  0.5686
 2889TIP3    H130302   4.263   4.069   2.403  0.3336  1.4847  0.3111
 2889TIP3    H230303   4.116   4.033   2.408  0.6448  0.1968  0.7268
 2890TIP3   OH230304   3.169   2.500   0.439  0.0068  0.5843 -0.4304
 2890TIP3    H130305   3.121   2.582   0.453 -0.0692  0.3279  0.9800
 2890TIP3    H230306   3.256   2.528   0.412 -0.3957  1.0935 -1.2457
 2891TIP3   OH230307   1.891   1.085   0.758 -0.3096  0.5983  0.1391
 2891TIP3    H130308   1.904   1.130   0.675  0.1763  1.6205  0.7467
 2891TIP3    H230309   1.954   1.126   0.817  0.6324 -1.3251  0.5649
 2892TIP3   OH230310   4.396   6.174   8.317 -0.1362  0.2554 -0.2261
 2892TIP3    H130311   4.416   6.254   8.269 -1.5574 -0.3745 -1.9632
 2892TIP3    H230312   4.470   6.163   8.377  0.8765  1.9825 -1.0777
 2893TIP3   OH230313   1.770   3.751   0.390 -1.1243 -0.1378 -0.2725
 2893TIP3    H130314   1.860   3.763   0.422 -1.1378 -0.7755  0.0056
 2893TIP3    H230315   1.751   3.833   0.343 -0.9699  0.6509  0.9980
 2894TIP3   OH230316   6.156   4.648   8.077 -0.4674 -0.3751  0.3191
 2894TIP3    H130317   6.062   4.640   8.061 -0.7672  1.4979  0.8602
 2894TIP3    H230318   6.193   4.668   7.991 -0.5757 -0.9569  0.1339
 2895TIP3   OH230319   3.651   2.884   1.274 -0.0825  0.1321 -0.2081
 2895TIP3    H130320   3.631   2.894   1.181  2.6093  0.2762 -0.8609
 2895TIP3    H230321   3.611   2.961   1.316  0.5062  1.2512 -1.6078
 2896TIP3   OH230322   5.680   4.293   8.502 -0.3794  0.1690 -0.4243
 2896TIP3    H130323   5.680   4.200   8.525 -0.5307  0.3265  0.2316
 2896TIP3    H230324   5.641   4.296   8.415  1.1957 -0.5496 -1.1920
 2897TIP3   OH230325   6.801   2.599   2.416  0.6282  0.0870  0.5425
 2897TIP3    H130326   6.888   2.638   2.419  1.4130 -0.7411 -4.2762
 2897TIP3    H230327   6.741   2.674   2.417  1.5986  0.8797  0.2665
 2898TIP3   OH230328   2.109   4.299   0.037 -0.1163 -0.6794 -0.3098
 2898TIP3    H130329   2.203   4.282   0.025  0.3004  1.0962  0.1719
 2898TIP3    H230330   2.098   4.391   0.011 -1.4492 -0.4385  1.0113
 2899TIP3   OH230331   2.349   5.233   1.700  0.0694 -0.4022 -0.1929
 2899TIP3    H130332   2.359   5.165   1.768  0.5004 -0.8078 -0.6578
 2899TIP3    H230333   2.369   5.188   1.618 -0.8826 -0.0237 -0.6451
 2900TIP3   OH230334   3.441   5.665   1.445 -0.1025  0.0611  0.3302
 2900TIP3    H130335   3.425   5.642   1.537 -1.7120 -1.7896 -0.3321
 2900TIP3    H230336   3.525   5.623   1.424 -0.7029 -1.2850  0.4606
 2901TIP3   OH230337   6.039   6.192   1.468  0.1420 -0.4728 -0.1460
 2901TIP3    H130338   5.995   6.266   1.426  0.8162 -0.9840 -1.8471
 2901TIP3    H230339   5.981   6.117   1.452  0.3884 -0.6689 -0.1227
 2902TIP3   OH230340   4.398   3.442   0.865  0.1156  0.8127 -0.4171
 2902TIP3    H130341   4.478   3.493   0.860 -0.3291  1.4136 -1.7910
 2902TIP3    H230342   4.329   3.506   0.881 -0.0479  0.2321  1.4952
 2903TIP3   OH230343   3.479   4.792   0.386 -0.3893  0.6481 -0.6939
 2903TIP3    H130344   3.540   4.730   0.348  0.4479  2.0767 -1.7764
 2903TIP3    H230345   3.392   4.758   0.365 -0.2127 -2.5807  2.6726
 2904TIP3   OH230346   0.965   5.747   1.645 -0.3623  0.3799  0.4435
 2904TIP3    H130347   1.019   5.826   1.648 -0.6588  0.6209 -0.2562
 2904TIP3    H230348   0.876   5.780   1.635 -0.4996 -0.0426  0.2604
 2905TIP3   OH230349   2.562   4.258   6.181  0.3092  0.4417  0.6860
 2905TIP3    H130350   2.509   4.243   6.102  0.1830  1.7191  0.4969
 2905TIP3    H230351   2.552   4.178   6.232 -1.6566  0.5493  0.5710
 2906TIP3   OH230352   6.346   0.020   8.423 -0.3215 -0.4338 -0.5992
 2906TIP3    H130353   6.410  -0.007   8.489 -0.0180 -1.2646 -1.2258
 2906TIP3    H230354   6.391   0.011   8.340  0.1663  2.9632 -0.8715
 2907TIP3   OH230355   4.822   4.626   0.271 -0.6692 -0.4823  0.2985
 2907TIP3    H130356   4.827   4.652   0.363 -1.6649  0.0043  0.2180
 2907TIP3    H230357   4.893   4.562   0.261  1.8297  2.0338  0.5321
 2908TIP3   OH230358   5.625   0.546   7.948 -0.2310 -0.3345  0.1004
 2908TIP3    H130359   5.534   0.520   7.938  0.2989 -2.2833 -0.1617
 2908TIP3    H230360   5.628   0.594   8.031 -1.7393  1.1443 -0.6653
 2909TIP3   OH230361   2.967   6.383   7.162  0.0008  0.4056  0.2125
 2909TIP3    H130362   3.052   6.409   7.197 -0.0672  1.7647 -0.5415
 2909TIP3    H230363   2.909   6.381   7.238  0.5449  0.1672  0.6274
 2910TIP3   OH230364   3.590   3.594   6.140  0.4985  0.0276 -0.4619
 2910TIP3    H130365   3.593   3.543   6.221 -1.5813  0.8397  0.1949
 2910TIP3    H230366   3.596   3.685   6.169  0.0797  0.3112 -1.2393
 2911TIP3   OH230367   3.743   3.333   1.198 -0.3060 -0.0870 -0.1786
 2911TIP3    H130368   3.821   3.302   1.153  0.8725  0.5728  1.2984
 2911TIP3    H230369   3.699   3.390   1.135  0.5094 -0.3118 -0.9661
 2912TIP3   OH230370   2.572   4.437   8.580 -0.0312 -0.6137  0.3450
 2912TIP3    H130371   2.517   4.365   8.611 -0.3070  0.0897  1.5959
 2912TIP3    H230372   2.520   4.516   8.599  0.1605 -0.0855 -1.1977
 2913TIP3   OH230373   4.750   0.521   1.624 -0.5698 -0.1576 -0.1432
 2913TIP3    H130374   4.818   0.454   1.634  0.3721  0.9603  1.2565
 2913TIP3    H230375   4.678   0.491   1.680 -0.2866 -0.1568  0.2205
 2914TIP3   OH230376   1.028   1.659   8.511 -0.1690 -0.4501  0.1724
 2914TIP3    H130377   1.119   1.688   8.510 -0.5380  1.1569  3.1370
 2914TIP3    H230378   0.984   1.716   8.448  0.2639  1.2537  1.3687
 2915TIP3   OH230379   4.028   3.991   0.114 -0.2278 -0.2258  0.0822
 2915TIP3    H130380   3.987   3.927   0.173 -0.9291 -1.3637 -1.5735
 2915TIP3    H230381   4.090   4.038   0.170  1.1332 -3.0837  1.1763
 2916TIP3   OH230382   2.903   3.064   1.613  0.0439  0.3592  0.0214
 2916TIP3    H130383   2.923   2.974   1.586 -1.0646 -0.2395  1.1187
 2916TIP3    H230384   2.989   3.105   1.621  0.5552 -0.4963 -0.8261
 2917TIP3   OH230385   4.107   5.882   7.458 -0.1015  0.2056 -0.2011
 2917TIP3    H130386   4.182   5.826   7.437  0.8608  1.9319 -1.6869
 2917TIP3    H230387   4.057   5.886   7.377 -1.3016 -0.1132  0.4928
 2918TIP3   OH230388   2.178   3.476   6.940  0.2217  0.4480  0.4456
 2918TIP3    H130389   2.244   3.421   6.898 -0.4896  0.0691 -0.1970
 2918TIP3    H230390   2.127   3.512   6.868  0.7974  2.1625  0.8314
 2919TIP3   OH230391   0.016   6.374   0.277  0.0757 -0.6578  0.3037
 2919TIP3    H130392   0.076   6.307   0.243 -0.2565 -1.8427  1.9073
 2919TIP3    H230393   0.058   6.404   0.358 -1.1214 -1.0010  1.0834
 2920TIP3   OH230394   6.527   1.132   0.006  0.1851 -0.4273 -1.0030
 2920TIP3    H130395   6.457   1.106   0.066  1.4513  1.2637  1.3816
 2920TIP3    H230396   6.566   1.049  -0.022 -0.4967 -1.3027  0.5125
 2921TIP3   OH230397   4.285   3.353   8.301  0.2689 -0.3978 -0.3969
 2921TIP3    H130398   4.287   3.427   8.362  0.8577 -1.0684  0.4117
 2921TIP3    H230399   4.192   3.329   8.296  0.1485  0.0125 -0.2001
 2922TIP3   OH230400   3.558   3.070   8.028  0.4579  0.3479 -0.4679
 2922TIP3    H130401   3.517   3.132   7.968 -0.5925 -0.3447 -0.4974
 2922TIP3    H230402   3.486   3.015   8.059  1.2248 -0.3001  0.2301
 2923TIP3   OH230403   0.602   3.474   8.518  0.1741  0.0967  0.1114
 2923TIP3    H130404   0.607   3.537   8.590 -2.1791  0.6343 -0.0988
 2923TIP3    H230405   0.511   3.478   8.489  0.2121 -2.5598 -0.6952
 2924TIP3   OH230406   5.624   4.432   0.346 -0.1246 -0.6090 -0.2212
 2924TIP3    H130407   5.615   4.337   0.357  0.8973 -0.8573 -1.3774
 2924TIP3    H230408   5.535   4.462   0.329 -0.3299 -1.4938 -0.7881
 2925TIP3   OH230409   5.532   6.896   1.160 -0.1978 -0.2527  0.1898
 2925TIP3    H130410   5.566   6.814   1.124 -0.4191 -0.3573  0.2106
 2925TIP3    H230411   5.523   6.879   1.254 -0.8304 -0.4234  0.1081
 2926TIP3   OH230412   3.588   4.137   1.952  0.4051 -0.1166 -0.1240
 2926TIP3    H130413   3.616   4.224   1.925 -0.1539 -0.2448 -1.1720
 2926TIP3    H230414   3.532   4.152   2.028  0.6382  0.3937 -0.0481
 2927TIP3   OH230415   6.916   2.891   2.724  0.2439 -0.3369  0.1005
 2927TIP3    H130416   6.872   2.824   2.776 -0.0304  0.0088  0.3159
 2927TIP3    H230417   6.955   2.843   2.651  0.2210 -0.7569  0.3640
 2928TIP3   OH230418   5.636   1.441   8.003  0.3761 -0.0417  0.7213
 2928TIP3    H130419   5.559   1.464   7.950  1.3033  0.9363 -0.2466
 2928TIP3    H230420   5.599   1.401   8.082 -1.0495 -1.9211 -0.7953
 2929TIP3   OH230421   5.716   1.656   7.007  0.1740 -0.1291 -0.3426
 2929TIP3    H130422   5.698   1.579   7.062  0.0037 -0.3449 -0.6929
 2929TIP3    H230423   5.786   1.702   7.052 -0.9259  0.4633  0.7996
 2930TIP3   OH230424   1.132   3.301   7.332  0.3831 -0.2906  0.0454
 2930TIP3    H130425   1.141   3.275   7.240 -0.3307 -2.0173  0.4261
 2930TIP3    H230426   1.069   3.374   7.330  1.6946  0.8792 -0.9672
 2931TIP3   OH230427   3.591   1.131   7.621  0.3430 -0.1731  0.3419
 2931TIP3    H130428   3.659   1.197   7.608  0.2260  0.1746  1.3806
 2931TIP3    H230429   3.638   1.051   7.646  0.3845  0.1097  1.2195
 2932TIP3   OH230430   6.823   6.188   1.278  0.3340 -0.2860  0.3386
 2932TIP3    H130431   6.891   6.251   1.299  0.4803  0.0206 -1.0026
 2932TIP3    H230432   6.743   6.224   1.317  0.9479 -0.8114  2.2118
 2933TIP3   OH230433   3.553   3.943   1.628 -0.2448 -0.3796 -0.2620
 2933TIP3    H130434   3.567   3.945   1.533  1.1217 -0.7432 -0.0874
 2933TIP3    H230435   3.579   4.031   1.657  1.9103 -1.0713  0.0699
 2934TIP3   OH230436   4.341   5.203   6.644 -0.0442  0.1285 -0.3331
 2934TIP3    H130437   4.400   5.222   6.717 -1.1206 -0.2836  0.6613
 2934TIP3    H230438   4.384   5.244   6.568  0.4794  1.6398  0.7316
 2935TIP3   OH230439   0.545   4.104   0.841  0.5759 -1.2009 -0.1250
 2935TIP3    H130440   0.509   4.038   0.782 -0.7662 -0.3609 -0.2618
 2935TIP3    H230441   0.589   4.167   0.784  0.2109 -0.9580 -0.1338
 2936TIP3   OH230442   4.790   4.058   1.480 -0.0060  0.2455  0.2804
 2936TIP3    H130443   4.801   4.144   1.521 -0.8067  0.4036  0.1790
 2936TIP3    H230444   4.726   4.072   1.410  3.6619  0.7096 -3.2937
 2937TIP3   OH230445   2.852   1.312   0.446 -0.1804  0.0129  0.3848
 2937TIP3    H130446   2.853   1.226   0.403 -1.4299 -0.3297  0.9821
 2937TIP3    H230447   2.939   1.347   0.431  0.3068 -1.2948 -0.0140
 2938TIP3   OH230448   6.926   2.422   8.268  0.2683 -0.1706  0.5287
 2938TIP3    H130449   6.973   2.477   8.331 -0.3120  2.2778 -1.0355
 2938TIP3    H230450   6.857   2.381   8.320  0.1509  1.3273  1.6314
 2939TIP3   OH230451   3.357   0.121   0.354  0.6696 -0.0754  0.3745
 2939TIP3    H130452   3.447   0.134   0.385  1.1910 -0.4920 -0.8790
 2939TIP3    H230453   3.361   0.041   0.302 -0.4169 -0.0469  0.2239
 2940TIP3   OH230454   1.271   5.032   0.434 -0.3414 -0.0272  0.9057
 2940TIP3    H130455   1.231   5.084   0.503 -1.2724 -1.2292  1.3106
 2940TIP3    H230456   1.262   4.941   0.464 -0.3774 -0.5457 -0.5778
 2941TIP3   OH230457   1.766   3.527   8.019  0.0304  0.2018 -0.3607
 2941TIP3    H130458   1.839   3.587   8.002  2.9921 -2.5256  1.3779
 2941TIP3    H230459   1.729   3.556   8.102 -0.2579  1.0563 -0.7801
 2942TIP3   OH230460   4.087   4.347   1.300  0.2511 -0.1735 -0.0886
 2942TIP3    H130461   4.128   4.334   1.214  3.5371  3.3136  0.6730
 2942TIP3    H230462   4.003   4.387   1.280 -0.0567 -1.5119 -1.6747
 2943TIP3   OH230463   3.945   3.620   6.888 -0.3382  0.1052  0.1599
 2943TIP3    H130464   3.921   3.533   6.920 -0.8042  0.2090  0.0994
 2943TIP3    H230465   4.038   3.628   6.908 -0.6637  0.2684  1.6988
 2944TIP3   OH230466   1.795   1.750   6.716  0.4895 -0.4343 -0.1057
 2944TIP3    H130467   1.825   1.839   6.735 -0.5339 -0.2588  0.7583
 2944TIP3    H230468   1.845   1.694   6.775  0.0292 -0.2654  0.4561
 2945TIP3   OH230469   6.780   0.255   8.452  0.2949  0.3664 -0.1927
 2945TIP3    H130470   6.863   0.214   8.427 -0.6293 -1.9748  0.3084
 2945TIP3    H230471   6.790   0.347   8.428  2.5905 -0.0883 -1.2117
 2946TIP3   OH230472   1.736   0.443   0.503 -0.2119  0.5436 -0.1637
 2946TIP3    H130473   1.649   0.414   0.475  0.1202  0.7713 -1.5131
 2946TIP3    H230474   1.721   0.486   0.588 -1.2321 -0.4034  0.1518
 2947TIP3   OH230475   4.120   4.993   0.662 -0.4715  0.2343 -0.0242
 2947TIP3    H130476   4.055   5.057   0.633 -1.7818 -0.6660  0.8096
 2947TIP3    H230477   4.099   4.914   0.612  0.1534  0.0133  0.0630
 2948TIP3   OH230478   3.898   1.008   8.507  0.7038 -0.0433  0.1132
 2948TIP3    H130479   3.874   0.948   8.578 -0.1601  0.1520  0.0004
 2948TIP3    H230480   3.924   1.089   8.551 -0.0067  0.1392  0.2141
 2949TIP3   OH230481   5.433   0.951   7.896  0.0473  0.2212 -0.4019
 2949TIP3    H130482   5.434   0.893   7.820  0.8444  1.2111 -1.1797
 2949TIP3    H230483   5.393   1.032   7.865 -2.6301 -0.4210  1.1259
 2950TIP3   OH230484   3.264   6.622   1.082 -0.0292  0.3760 -0.1405
 2950TIP3    H130485   3.215   6.704   1.074  0.5439  0.8963  1.2845
 2950TIP3    H230486   3.349   6.649   1.117 -1.0562 -1.1104  3.9814
 2951TIP3   OH230487   2.322   6.609   8.279 -0.0400 -0.1712  0.5186
 2951TIP3    H130488   2.262   6.618   8.353 -2.5539  0.6039 -1.4282
 2951TIP3    H230489   2.292   6.530   8.233  0.7102 -0.0170 -0.2769
 2952TIP3   OH230490   0.318   4.288   0.283 -0.0112  0.2495 -0.2245
 2952TIP3    H130491   0.382   4.289   0.354 -1.0986 -0.5150  0.8053
 2952TIP3    H230492   0.351   4.353   0.221  2.1385 -0.6158 -0.0937
 2953TIP3   OH230493   5.933   4.346   1.894 -0.5310 -0.0304 -0.0351
 2953TIP3    H130494   5.851   4.348   1.943 -0.6211 -0.8048 -0.1484
 2953TIP3    H230495   6.001   4.343   1.962 -0.6488 -0.8389  0.0544
 2954TIP3   OH230496   0.576   2.253   2.077 -0.4899 -0.9617  0.2037
 2954TIP3    H130497   0.650   2.290   2.029 -1.4572  0.5542 -0.1839
 2954TIP3    H230498   0.616   2.198   2.145  0.9509 -0.8830 -0.5591
 2955TIP3   OH230499   4.869   2.785   6.899  0.4631  0.3635  0.3020
 2955TIP3    H130500   4.845   2.875   6.875 -2.2872  0.3799  2.5188
 2955TIP3    H230501   4.816   2.730   6.841  0.0620  0.2501  0.7683
 2956TIP3   OH230502   2.557   3.322   7.142  0.0793  0.2606  0.0248
 2956TIP3    H130503   2.571   3.411   7.108 -0.0353  0.8836  1.5107
 2956TIP3    H230504   2.463   3.309   7.138  0.1378  0.0189 -0.6226
 2957TIP3   OH230505   4.689   1.677   1.856 -0.1343  0.3587 -0.5619
 2957TIP3    H130506   4.653   1.671   1.944  0.9583 -1.7360 -0.1884
 2957TIP3    H230507   4.614   1.665   1.798 -0.8551  1.7191  0.0446
 2958TIP3   OH230508   6.128   1.774   1.393  0.3972 -0.2804 -0.2935
 2958TIP3    H130509   6.048   1.731   1.362  0.8579  0.0632 -2.0582
 2958TIP3    H230510   6.098   1.856   1.431 -0.2964 -1.2260  1.3490
 2959TIP3   OH230511   2.915   2.908   7.932 -0.4755  0.5820  0.2320
 2959TIP3    H130512   2.921   2.959   7.851  1.9494 -1.1107 -0.7377
 2959TIP3    H230513   2.831   2.862   7.924  0.2390 -0.4678 -1.9249
 2960TIP3   OH230514   6.844   1.445   1.560  0.3249 -0.4224  0.5478
 2960TIP3    H130515   6.831   1.366   1.612 -2.2988 -0.1348  0.4861
 2960TIP3    H230516   6.796   1.513   1.607  0.5268  0.5648 -0.6184
 2961TIP3   OH230517   2.909   4.679   7.356 -0.1710  0.0248 -0.1549
 2961TIP3    H130518   2.822   4.668   7.318  0.2949 -1.0542 -0.9667
 2961TIP3    H230519   2.943   4.759   7.315 -0.3600 -0.1534 -0.6720
 2962TIP3   OH230520   0.519   1.808   8.542  0.4867 -0.2407  0.0221
 2962TIP3    H130521   0.614   1.797   8.541  1.0490  3.3862 -0.7521
 2962TIP3    H230522   0.494   1.806   8.450  0.3231  1.6148 -0.0134
 2963TIP3   OH230523   2.311   1.715   2.771 -0.4661  0.2318 -0.1364
 2963TIP3    H130524   2.295   1.621   2.774 -0.3736  0.2393  0.9021
 2963TIP3    H230525   2.294   1.739   2.680 -2.5078 -0.4401 -0.0025
 2964TIP3   OH230526   0.190   6.305   7.879  0.1649  0.4053  0.3151
 2964TIP3    H130527   0.096   6.316   7.892  0.0726  0.3220 -0.2844
 2964TIP3    H230528   0.217   6.381   7.827  0.2077 -0.1974 -0.5565
 2965TIP3   OH230529   3.195   5.652   0.807  0.0045 -0.0719  0.0741
 2965TIP3    H130530   3.203   5.706   0.728  3.1984  1.2700  1.1606
 2965TIP3    H230531   3.220   5.564   0.780 -1.5943 -0.2575 -0.9195
 2966TIP3   OH230532   6.727   2.835   0.011 -0.1144  0.2037  0.6604
 2966TIP3    H130533   6.651   2.887   0.036  0.4945  0.4561  2.0466
 2966TIP3    H230534   6.783   2.896  -0.038 -0.9218 -0.0709 -0.6578
 2967TIP3   OH230535   5.176   1.988   7.542  0.4575  0.0429 -0.2360
 2967TIP3    H130536   5.205   1.939   7.465  0.0986  0.1016 -0.4090
 2967TIP3    H230537   5.165   1.922   7.610  3.3796  0.2641  0.5840
 2968TIP3   OH230538   6.311   3.635   6.945  0.3832  0.4343  0.6700
 2968TIP3    H130539   6.352   3.562   6.990  1.2848 -0.2677 -1.2096
 2968TIP3    H230540   6.364   3.649   6.867 -1.7509  0.8351 -0.7995
 2969TIP3   OH230541   3.664   3.506   1.001  0.1921 -0.3163 -0.1190
 2969TIP3    H130542   3.724   3.581   0.997  0.4901 -0.4455  1.3131
 2969TIP3    H230543   3.584   3.536   0.958  0.2019  0.9373  0.6889
 2970TIP3   OH230544   6.343   3.331   1.404 -0.0191  0.1033 -0.3526
 2970TIP3    H130545   6.360   3.425   1.411 -0.0400  0.0894 -0.0977
 2970TIP3    H230546   6.370   3.296   1.488 -0.5363 -0.0377 -0.2414
 2971TIP3   OH230547   0.301   6.449   1.954 -0.0781 -1.1475 -0.4301
 2971TIP3    H130548   0.326   6.499   2.031  3.3963 -0.6363 -1.7299
 2971TIP3    H230549   0.249   6.376   1.988  1.8382 -1.3101  2.4792
 2972TIP3   OH230550   5.840   6.368   0.903 -0.7829  0.5198 -0.0033
 2972TIP3    H130551   5.848   6.445   0.846 -1.4556  1.1414  0.7271
 2972TIP3    H230552   5.914   6.312   0.877 -1.8267  0.1415 -2.4208
 2973TIP3   OH230553   5.315   4.051   1.744 -0.4443 -0.4033  0.6748
 2973TIP3    H130554   5.259   4.109   1.693 -0.3841 -1.0867 -0.2038
 2973TIP3    H230555   5.312   4.086   1.833 -0.2058  1.0718  0.1204
 2974TIP3   OH230556   5.380   1.851   8.309  0.0314  0.0656  0.1736
 2974TIP3    H130557   5.421   1.873   8.393 -1.0886 -0.8541  0.9886
 2974TIP3    H230558   5.449   1.806   8.260  0.6452  0.4543  0.6714
 2975TIP3   OH230559   2.225   2.090   8.167 -0.2956  0.2854 -0.3110
 2975TIP3    H130560   2.202   2.146   8.093 -0.2189 -0.0494 -0.5922
 2975TIP3    H230561   2.221   2.001   8.132 -0.7519  0.0902  0.2144
 2976TIP3   OH230562   2.872   6.372   2.017  0.4614 -0.1548 -0.4149
 2976TIP3    H130563   2.837   6.310   2.081  1.0483  1.0659  1.1514
 2976TIP3    H230564   2.965   6.350   2.011  1.1494  1.7570  1.7177
 2977TIP3   OH230565   0.362   2.866   8.179 -0.2745 -0.1811  0.4003
 2977TIP3    H130566   0.400   2.826   8.257 -0.0907 -1.4966 -0.3205
 2977TIP3    H230567   0.269   2.844   8.184 -0.4447  0.6030  0.7486
 2978TIP3   OH230568   2.536   6.602   0.988 -0.0976 -0.0863  0.1564
 2978TIP3    H130569   2.573   6.645   0.911 -1.0424  0.3345 -0.0759
 2978TIP3    H230570   2.556   6.509   0.975 -0.3232 -0.0331 -0.6483
 2979TIP3   OH230571   0.055   5.830   6.223  0.2635  0.2275  0.1378
 2979TIP3    H130572   0.040   5.769   6.151 -1.3135 -0.4259  0.9660
 2979TIP3    H230573  -0.014   5.810   6.287 -1.1390  3.6774 -0.0597
 2980TIP3   OH230574   3.038   2.024   1.623  0.3778  0.3388  0.1846
 2980TIP3    H130575   2.996   2.046   1.540 -1.8167 -1.4969  0.6986
 2980TIP3    H230576   3.018   2.097   1.681 -2.5771 -0.5884  0.4998
 2981TIP3   OH230577   5.742   6.357   7.317 -0.1791  0.8283 -0.0193
 2981TIP3    H130578   5.776   6.388   7.233  0.0653  0.3397 -0.1038
 2981TIP3    H230579   5.806   6.388   7.382 -0.3747  1.2169 -0.0089
 2982TIP3   OH230580   6.559   1.320   0.583  0.0549  0.5049 -0.1461
 2982TIP3    H130581   6.611   1.370   0.647 -1.1203  0.6122  0.7604
 2982TIP3    H230582   6.469   1.344   0.602 -0.5649 -1.8694  0.2628
 2983TIP3   OH230583   6.515   2.091   0.745  0.8349 -0.1282  0.2266
 2983TIP3    H130584   6.600   2.104   0.788  0.4140 -1.2957  1.4968
 2983TIP3    H230585   6.529   2.018   0.685  0.9866  0.3899 -0.3808
 2984TIP3   OH230586   2.431   4.771   0.861  0.1802  0.3211 -0.5226
 2984TIP3    H130587   2.491   4.728   0.921 -0.8076  0.1632  0.3814
 2984TIP3    H230588   2.431   4.716   0.783  1.4023  0.4776 -0.6578
 2985TIP3   OH230589   5.251   0.000   1.147  0.2248  0.3766 -0.3292
 2985TIP3    H130590   5.251   0.061   1.073 -0.4266 -1.4254 -1.8762
 2985TIP3    H230591   5.339  -0.036   1.149 -0.1712 -0.6796 -1.2086
 2986TIP3   OH230592   4.655   5.673   7.745 -0.0257  0.2021 -0.6793
 2986TIP3    H130593   4.606   5.751   7.773 -0.8327 -0.8710  1.0895
 2986TIP3    H230594   4.587   5.608   7.726  0.6529 -0.4820 -0.8019
 2987TIP3   OH230595   6.351   1.494   7.137 -0.3683 -0.1914 -0.2213
 2987TIP3    H130596   6.383   1.515   7.049  1.3997 -2.1115 -0.1025
 2987TIP3    H230597   6.255   1.493   7.129 -0.2515  0.3215 -1.9413
 2988TIP3   OH230598   4.909   3.881   1.038  0.1401  0.8561 -0.6827
 2988TIP3    H130599   4.924   3.973   1.059  0.0187  0.9987 -1.2007
 2988TIP3    H230600   4.996   3.847   1.018  0.2421  0.7438 -0.0465
 2989TIP3   OH230601   6.330   1.945   7.653  0.1480 -0.6923  0.2766
 2989TIP3    H130602   6.328   1.915   7.744 -0.4138 -0.2028  0.4288
 2989TIP3    H230603   6.421   1.970   7.639 -0.1431  1.1791  1.3602
 2990TIP3   OH230604   1.342   6.621   7.176 -0.1174 -0.3661 -0.6401
 2990TIP3    H130605   1.347   6.717   7.171  1.0268 -0.4230 -0.9169
 2990TIP3    H230606   1.390   6.591   7.099  1.3464 -1.1614  0.5420
 2991TIP3   OH230607   3.225   3.437   1.141 -0.4250  0.2569 -0.0255
 2991TIP3    H130608   3.157   3.482   1.090 -0.4455  2.1516  1.5388
 2991TIP3    H230609   3.191   3.348   1.153 -0.3745 -0.3121 -3.2545
 2992TIP3   OH230610   6.940   4.368   7.122  0.5995 -0.2828 -0.1447
 2992TIP3    H130611   6.901   4.357   7.209  0.3002 -0.4528 -0.2957
 2992TIP3    H230612   6.977   4.282   7.102  0.9310 -0.1580 -0.0574
 2993TIP3   OH230613   0.367   2.602   1.803  0.3149  0.1528  0.5987
 2993TIP3    H130614   0.436   2.576   1.865 -0.7084 -1.1742  1.2397
 2993TIP3    H230615   0.375   2.697   1.797  1.2600  0.1764  1.7935
 2994TIP3   OH230616   3.299   3.604   7.488 -0.4541 -0.1070  0.3805
 2994TIP3    H130617   3.292   3.531   7.427 -0.3038 -0.8410  1.2321
 2994TIP3    H230618   3.209   3.633   7.501 -1.1512 -2.9838  3.4037
 2995TIP3   OH230619   4.275   0.385   1.814  0.8233 -0.4600  0.2310
 2995TIP3    H130620   4.255   0.457   1.874  0.0167 -1.4135  1.1338
 2995TIP3    H230621   4.263   0.306   1.866  1.3702 -1.2681 -0.8381
 2996TIP3   OH230622   2.915   4.242   7.170  0.2127  0.1345  0.2402
 2996TIP3    H130623   2.850   4.312   7.174  1.0598  0.8739  1.6685
 2996TIP3    H230624   2.924   4.223   7.077  0.0631  2.0285 -0.1977
 2997TIP3   OH230625   1.598   2.709   0.955 -0.2454  0.3634 -0.1420
 2997TIP3    H130626   1.618   2.684   1.045  2.2370 -0.2092 -0.7730
 2997TIP3    H230627   1.649   2.789   0.941 -2.4270  1.8049 -0.3924
 2998TIP3   OH230628   4.804   3.656   7.850  0.1455  0.0444  0.2681
 2998TIP3    H130629   4.779   3.683   7.939 -1.7530 -0.8266  0.0397
 2998TIP3    H230630   4.731   3.602   7.820  1.3210 -0.7148 -1.3698
 2999TIP3   OH230631   6.134   2.429   1.915 -0.1205 -0.4958 -0.1522
 2999TIP3    H130632   6.173   2.490   1.977 -1.0517  0.0856 -0.1289
 2999TIP3    H230633   6.151   2.468   1.829  2.0339 -1.7776 -0.4061
 3000TIP3   OH230634   3.287   4.482   8.185 -0.2137  0.4355  0.2331
 3000TIP3    H130635   3.371   4.529   8.188  0.3505 -0.5378  0.1270
 3000TIP3    H230636   3.239   4.524   8.113  0.8873 -0.1148 -0.8695
 3001TIP3   OH230637   0.840   2.574   1.288  0.2481  0.2134  0.5078
 3001TIP3    H130638   0.804   2.492   1.256 -1.3429  0.4466  1.5716
 3001TIP3    H230639   0.907   2.548   1.352  0.8624 -0.2302 -0.2984
 3002TIP3   OH230640   2.796   0.070   0.157 -0.0512  0.4108 -0.0589
 3002TIP3    H130641   2.891   0.056   0.154  0.0074  0.9262 -1.3111
 3002TIP3    H230642   2.764   0.029   0.077 -1.0784 -0.9394  0.9872
 3003TIP3   OH230643   1.234   0.136   1.758 -0.1911 -0.2966  0.6933
 3003TIP3    H130644   1.317   0.182   1.773  0.1467 -1.2480  1.9945
 3003TIP3    H230645   1.184   0.194   1.702 -0.4658  2.5150  3.5236
 3004TIP3   OH230646   3.505   5.931   1.563  0.0951  0.1108  0.3367
 3004TIP3    H130647   3.504   5.851   1.509 -0.7623 -0.8618  1.7179
 3004TIP3    H230648   3.590   5.929   1.607  1.2211  1.4311 -1.6500
 3005TIP3   OH230649   6.841   4.546   6.288 -0.0932 -0.0238 -0.1285
 3005TIP3    H130650   6.920   4.509   6.249  0.5902 -0.9180  1.9736
 3005TIP3    H230651   6.844   4.517   6.380 -1.0221  2.8386  0.9075
 3006TIP3   OH230652   3.590   6.178   0.647  0.3163  0.0703 -0.2687
 3006TIP3    H130653   3.621   6.247   0.705 -0.4066  0.7156 -0.6461
 3006TIP3    H230654   3.519   6.136   0.695  1.4227 -1.1251  0.4086
 3007TIP3   OH230655   2.232   5.341   1.470  0.4031  0.0307 -0.2730
 3007TIP3    H130656   2.269   5.344   1.558 -1.8808  0.4599  0.7390
 3007TIP3    H230657   2.220   5.248   1.451 -1.2504 -0.0267  0.8795
 3008TIP3   OH230658   6.142   5.071   2.077 -0.0502  0.2291  0.4508
 3008TIP3    H130659   6.058   5.062   2.032 -0.1652  0.3094  0.6420
 3008TIP3    H230660   6.118   5.094   2.167  0.1967  2.3388  0.0328
 3009TIP3   OH230661   1.364   3.590   7.878  0.6585 -0.4201 -0.3973
 3009TIP3    H130662   1.376   3.643   7.957  1.2392 -1.9782  0.5999
 3009TIP3    H230663   1.399   3.504   7.901 -0.0584 -1.1933 -2.0357
 3010TIP3   OH230664   6.067   2.236   0.728  0.2804  0.4344  0.5539
 3010TIP3    H130665   5.991   2.187   0.760  0.8170 -0.9220 -0.1531
 3010TIP3    H230666   6.041   2.268   0.642  0.8336 -0.9395 -0.1581
 3011TIP3   OH230667   1.890   6.450   7.790  1.0825  0.5360 -1.0151
 3011TIP3    H130668   1.838   6.370   7.793  1.1977  0.4631 -0.9070
 3011TIP3    H230669   1.975   6.422   7.756  1.1980  0.5684 -0.7594
 3012TIP3   OH230670   6.739   0.596   0.775  0.1028 -0.5757 -0.0583
 3012TIP3    H130671   6.682   0.648   0.719  1.3734  0.3380 -0.5232
 3012TIP3    H230672   6.812   0.571   0.719 -0.4690 -2.9188  0.1330
 3013TIP3   OH230673   3.363   1.980   7.968 -0.2933 -0.3281  0.0310
 3013TIP3    H130674   3.289   1.959   8.025  0.5929 -1.2458  0.8837
 3013TIP3    H230675   3.407   1.897   7.954  3.0076  0.6476  3.0569
 3014TIP3   OH230676   0.689   3.454   1.591 -0.5942 -0.2370  0.1814
 3014TIP3    H130677   0.600   3.491   1.587  0.3245  2.2011  0.3088
 3014TIP3    H230678   0.729   3.499   1.665  1.2773  0.0019 -0.9313
 3015TIP3   OH230679   2.342   6.283   0.195 -0.5662 -0.4454  0.0532
 3015TIP3    H130680   2.274   6.314   0.255 -0.2806  0.7946 -0.2174
 3015TIP3    H230681   2.419   6.336   0.218 -0.8024  1.0346 -2.2241
 3016TIP3   OH230682   4.575   2.179   0.793 -0.0658 -0.5887  0.0528
 3016TIP3    H130683   4.618   2.095   0.807 -0.3826 -0.8468 -0.4650
 3016TIP3    H230684   4.634   2.227   0.734 -0.2591 -0.7622 -0.2865
 3017TIP3   OH230685   5.290   1.640   1.751 -0.1477 -0.7653 -0.3840
 3017TIP3    H130686   5.355   1.575   1.725  0.9405 -1.7567  4.0202
 3017TIP3    H230687   5.206   1.593   1.746  0.4398 -2.0683  1.2058
 3018TIP3   OH230688   3.307   3.322   0.801  0.2026 -0.0237  0.7611
 3018TIP3    H130689   3.368   3.331   0.728  0.3454 -0.6313  0.7968
 3018TIP3    H230690   3.305   3.409   0.842  0.7054  0.1179  0.4939
 3019TIP3   OH230691   4.042   2.135   7.428  0.0728  0.3131  0.3265
 3019TIP3    H130692   4.020   2.047   7.459  0.0220 -0.0212 -0.6254
 3019TIP3    H230693   3.963   2.167   7.385 -0.2285  1.2285  1.4951
 3020TIP3   OH230694   5.933   5.010   7.915  0.2325  0.3096 -0.1961
 3020TIP3    H130695   5.972   4.989   7.830  1.0708  0.8018  0.0580
 3020TIP3    H230696   5.999   4.983   7.979 -0.5507 -0.4235  0.3310
 3021TIP3   OH230697   4.540   2.549   0.340 -0.5255 -0.4910  0.2731
 3021TIP3    H130698   4.619   2.567   0.391 -1.1019 -0.6340  1.2492
 3021TIP3    H230699   4.536   2.620   0.276  0.8888 -1.0064 -0.4204
 3022TIP3   OH230700   5.501   6.563   0.881  0.3103 -0.5862 -0.0170
 3022TIP3    H130701   5.513   6.583   0.788  0.4171  1.0324  0.3168
 3022TIP3    H230702   5.552   6.630   0.927 -0.7419 -0.5973  1.2240
 3023TIP3   OH230703   0.391   0.368   6.972  0.0097 -0.2909 -0.2803
 3023TIP3    H130704   0.310   0.419   6.985 -1.3146 -2.5467  0.8282
 3023TIP3    H230705   0.389   0.344   6.879 -0.5320 -0.2277 -0.2876
 3024TIP3   OH230706   6.603   5.925   8.451 -0.5587  0.2496  0.1264
 3024TIP3    H130707   6.633   5.843   8.491 -1.3087  0.5944  1.4758
 3024TIP3    H230708   6.682   5.963   8.412 -0.6417 -2.3959 -3.0531
 3025TIP3   OH230709   2.549   0.361   6.801 -0.2938 -0.1510 -0.0299
 3025TIP3    H130710   2.644   0.364   6.818 -0.6692  1.2529  2.2373
 3025TIP3    H230711   2.542   0.374   6.706  1.7671  0.0426 -0.2184
 3026TIP3   OH230712   2.090   5.345   8.478 -0.0557  0.2720  0.5648
 3026TIP3    H130713   2.044   5.261   8.470  1.1322 -0.4580  1.1600
 3026TIP3    H230714   2.099   5.358   8.572  0.1728  0.8497  0.4639
 3027TIP3   OH230715   1.925   3.938   6.693  0.8376  0.1681  0.3553
 3027TIP3    H130716   1.830   3.933   6.683  0.8316  1.4680 -0.4994
 3027TIP3    H230717   1.937   3.962   6.785  0.3176  0.2727  0.4020
 3028TIP3   OH230718   4.193   2.677   7.104  0.4590 -0.2204  0.7480
 3028TIP3    H130719   4.122   2.661   7.042  0.2969  0.4150  0.7695
 3028TIP3    H230720   4.266   2.709   7.050  0.8972 -1.3183  0.6606
 3029TIP3   OH230721   0.652   0.746   7.044 -0.5322  0.3701 -0.0872
 3029TIP3    H130722   0.643   0.831   7.087 -0.4821  0.6834 -0.6780
 3029TIP3    H230723   0.610   0.684   7.103 -1.1244  0.9033  0.0650
 3030TIP3   OH230724   2.859   0.145   2.066 -0.0693  0.5587  0.5600
 3030TIP3    H130725   2.907   0.193   1.998 -0.2596  1.3745  0.9926
 3030TIP3    H230726   2.768   0.146   2.035  0.0117 -0.0363  0.2851
 3031TIP3   OH230727   4.999   4.686   1.959 -0.0018 -0.5044  0.2020
 3031TIP3    H130728   4.934   4.710   2.025 -0.7454 -1.6355 -0.0723
 3031TIP3    H230729   5.032   4.600   1.988 -0.9707 -1.4300 -1.3029
 3032TIP3   OH230730   0.552   1.422   8.529  0.2045 -0.0055  0.7628
 3032TIP3    H130731   0.545   1.454   8.439  0.4067  0.4068  0.8924
 3032TIP3    H230732   0.608   1.344   8.522  1.7005  1.0356  0.7596
 3033TIP3   OH230733   3.978   5.244   6.319 -0.0898 -0.1411  0.5504
 3033TIP3    H130734   4.043   5.266   6.385  0.2714 -0.9475  0.4868
 3033TIP3    H230735   3.931   5.325   6.302  1.0902  0.5234  0.3985
 3034TIP3   OH230736   4.608   0.957   0.465  0.0064 -0.5050 -0.7741
 3034TIP3    H130737   4.592   1.051   0.469  1.1156 -0.3280 -0.1702
 3034TIP3    H230738   4.523   0.917   0.486  0.2392  0.3878  2.3028
 3035TIP3   OH230739   0.953   6.591   1.712 -0.3107 -0.1776  0.2625
 3035TIP3    H130740   0.947   6.512   1.766 -0.4670 -1.0605 -1.0111
 3035TIP3    H230741   0.880   6.585   1.651  0.2397  0.4520 -0.4903
 3036TIP3   OH230742   5.232   2.633   8.431  0.2043  0.0230 -0.2501
 3036TIP3    H130743   5.235   2.540   8.456 -1.2849  0.2216  0.8128
 3036TIP3    H230744   5.155   2.641   8.376  0.5018  0.5799 -0.5937
 3037TIP3   OH230745   1.367   1.342   2.880 -0.3520 -0.5843 -0.4041
 3037TIP3    H130746   1.307   1.384   2.942 -0.1521 -1.8976  0.7478
 3037TIP3    H230747   1.314   1.276   2.836 -0.2223 -0.4118 -0.8198
 3038TIP3   OH230748   6.481   6.623   0.225  0.5319  0.5253  0.4053
 3038TIP3    H130749   6.551   6.590   0.281  1.1771 -1.5164 -1.4400
 3038TIP3    H230750   6.518   6.622   0.137 -1.0895  1.6359 -0.3437
 3039TIP3   OH230751   0.624   0.268   8.161  0.2736 -0.3024  0.3279
 3039TIP3    H130752   0.711   0.258   8.122  1.9845  0.1170  3.6856
 3039TIP3    H230753   0.586   0.344   8.117  2.5204  0.8301  0.1999
 3040TIP3   OH230754   3.712   0.163   0.943  0.6588  0.1951 -0.0543
 3040TIP3    H130755   3.735   0.089   0.999  1.1986  1.3035  1.2483
 3040TIP3    H230756   3.794   0.212   0.934  1.0394 -0.7643 -3.2011
 3041TIP3   OH230757   4.583   3.487   8.498  0.5072 -0.0184  0.3385
 3041TIP3    H130758   4.646   3.502   8.427 -2.1241  0.0158 -2.1814
 3041TIP3    H230759   4.555   3.396   8.486  0.0378 -0.0154  1.3677
 3042TIP3   OH230760   5.046   4.721   0.004 -0.6199  0.0452 -0.1584
 3042TIP3    H130761   5.011   4.635  -0.015  1.5116 -0.5750 -1.7523
 3042TIP3    H230762   5.033   4.771  -0.077 -1.2304  1.0151  0.5193
 3043TIP3   OH230763   4.974   4.453   8.571 -0.0110  0.1890  0.4408
 3043TIP3    H130764   4.949   4.385   8.633  0.2212  0.0941  0.4288
 3043TIP3    H230765   4.964   4.412   8.485  0.7884 -0.0508  0.4549
 3044TIP3   OH230766   2.989   0.130   0.933 -0.0313 -0.0602 -1.0654
 3044TIP3    H130767   2.920   0.146   0.998  0.4320 -0.6056 -0.4354
 3044TIP3    H230768   2.980   0.203   0.872  0.2889  1.1388  0.2581
 3045TIP3   OH230769   2.156   4.097   7.294 -0.4635  0.7110 -0.6424
 3045TIP3    H130770   2.147   4.174   7.238  1.1281  1.0291 -0.4854
 3045TIP3    H230771   2.242   4.061   7.273 -0.6334 -0.2655  0.2379
 3046TIP3   OH230772   0.308   3.602   7.356 -0.1314 -0.2642 -0.4739
 3046TIP3    H130773   0.307   3.585   7.262  1.1043 -0.3769 -0.4831
 3046TIP3    H230774   0.391   3.564   7.387 -0.2532  0.2600  0.5631
 3047TIP3   OH230775   0.887   0.549   2.460  0.3547 -0.5202 -0.1858
 3047TIP3    H130776   0.835   0.628   2.474  1.0729  0.1344 -1.0883
 3047TIP3    H230777   0.963   0.579   2.409  0.9663 -1.6763  0.0174
 3048TIP3   OH230778   3.966   4.574   8.199  0.1775  0.1460  0.2842
 3048TIP3    H130779   3.905   4.531   8.260 -1.0215  1.9046  0.3925
 3048TIP3    H230780   3.959   4.522   8.119 -0.9673 -0.0961  0.5150
 3049TIP3   OH230781   2.848   0.767   7.567  0.0268  0.1545 -0.1453
 3049TIP3    H130782   2.851   0.716   7.486 -0.8962 -0.7324  0.3464
 3049TIP3    H230783   2.931   0.815   7.569  0.9600 -1.3665 -0.6146
 3050TIP3   OH230784   2.896   4.910   6.956 -0.1227 -0.4661 -0.1013
 3050TIP3    H130785   2.936   4.900   7.042 -0.9210  0.0508  0.3371
 3050TIP3    H230786   2.819   4.965   6.971 -0.4186 -0.5873 -1.1001
 3051TIP3   OH230787   2.281   6.649   6.939  0.3246  0.2344  0.8327
 3051TIP3    H130788   2.230   6.573   6.914  1.0006  0.1326 -0.2937
 3051TIP3    H230789   2.263   6.715   6.872  2.4220 -0.1608 -0.2177
 3052TIP3   OH230790   2.609   5.095   0.015 -0.4683  0.1459 -0.1551
 3052TIP3    H130791   2.649   5.100  -0.072 -1.1105 -1.0009 -0.5445
 3052TIP3    H230792   2.670   5.141   0.073 -0.1589  1.1587 -1.2503
 3053TIP3   OH230793   0.796   4.524   8.183  0.4706  0.2395  0.4205
 3053TIP3    H130794   0.743   4.577   8.124 -0.5785 -1.8828 -0.6350
 3053TIP3    H230795   0.885   4.559   8.173 -0.0198  1.1783 -0.9478
 3054TIP3   OH230796   0.389   0.589   1.343  0.7088  0.5662 -0.3776
 3054TIP3    H130797   0.346   0.527   1.285 -0.1150  1.3108 -0.5712
 3054TIP3    H230798   0.483   0.572   1.330  0.5657  1.0289 -2.2741
 3055TIP3   OH230799   1.425   6.143   0.913  0.2936 -0.1164 -0.0975
 3055TIP3    H130800   1.457   6.233   0.913 -2.3205  0.8905 -0.5557
 3055TIP3    H230801   1.359   6.140   0.982 -1.0849 -1.0847 -1.3840
 3056TIP3   OH230802   5.321   2.677   2.831  0.3113  0.3958 -0.1868
 3056TIP3    H130803   5.409   2.688   2.869  1.2488  0.1093 -2.1226
 3056TIP3    H230804   5.317   2.741   2.761 -1.3272  0.8536  0.2826
 3057TIP3   OH230805   2.659   3.078   7.577 -0.2288 -0.2702 -0.0589
 3057TIP3    H130806   2.653   2.989   7.542  1.1025 -0.0654 -0.8894
 3057TIP3    H230807   2.687   3.131   7.502  0.2977  0.6061  0.7379
 3058TIP3   OH230808   6.464   1.239   7.194 -0.4552  0.3994  0.0537
 3058TIP3    H130809   6.554   1.258   7.220  0.0167 -1.2934 -0.2127
 3058TIP3    H230810   6.430   1.322   7.161  1.0504  1.0314  0.0204
 3059TIP3   OH230811   5.814   0.574   8.333 -0.4127  0.1334 -0.4048
 3059TIP3    H130812   5.731   0.591   8.289  0.1743  0.6891 -1.3221
 3059TIP3    H230813   5.806   0.484   8.366 -2.4891  1.0701  2.0549
 3060TIP3   OH230814   5.201   4.139   6.672  0.2674 -0.0743 -0.4380
 3060TIP3    H130815   5.157   4.201   6.615  1.2356  0.8347 -0.2159
 3060TIP3    H230816   5.276   4.108   6.621 -0.5121 -1.5145 -0.7672
 3061TIP3   OH230817   1.475   0.013   0.283  0.0298  0.3542 -0.1924
 3061TIP3    H130818   1.390  -0.020   0.313  0.0950 -2.2320 -2.4410
 3061TIP3    H230819   1.484   0.097   0.326 -2.4665 -0.4323  2.1924
 3062TIP3   OH230820   5.037   1.168   8.552  0.1061  0.2859 -0.3055
 3062TIP3    H130821   5.006   1.254   8.579 -4.1690 -1.0751 -0.2350
 3062TIP3    H230822   4.985   1.106   8.603  3.5770 -2.4973  0.2792
 3063TIP3   OH230823   1.194   0.205   0.187 -0.3227 -0.2618  0.3083
 3063TIP3    H130824   1.263   0.231   0.126  0.3641 -0.5227  0.9583
 3063TIP3    H230825   1.237   0.145   0.248 -1.8130 -2.8851 -1.0664
 3064TIP3   OH230826   6.885   4.642   1.070  0.5197 -0.0507  0.4505
 3064TIP3    H130827   6.973   4.678   1.079 -0.2255  1.4442  2.9382
 3064TIP3    H230828   6.876   4.582   1.144 -0.0966 -1.3498 -0.6304
 3065TIP3   OH230829   4.711   1.264   1.790 -0.4456 -0.1171  0.0863
 3065TIP3    H130830   4.718   1.177   1.829 -0.1669 -0.4171 -0.6085
 3065TIP3    H230831   4.674   1.319   1.859 -0.0666 -0.6531  0.7248
 3066TIP3   OH230832   2.450   3.929   2.490  0.2183 -0.8630  0.1852
 3066TIP3    H130833   2.377   3.948   2.549 -0.5013 -1.5591 -0.4618
 3066TIP3    H230834   2.413   3.871   2.424  0.4706  1.4630 -2.1506
 3067TIP3   OH230835   6.019   3.647   6.956 -0.0596 -0.7196 -0.1891
 3067TIP3    H130836   6.004   3.681   6.868  1.0787  2.6442  0.7596
 3067TIP3    H230837   6.111   3.618   6.956  0.3002  0.3726  0.1527
 3068TIP3   OH230838   5.245   2.078   1.703 -0.5637 -0.5211  0.4419
 3068TIP3    H130839   5.165   2.129   1.686 -1.2247 -0.7721  2.5075
 3068TIP3    H230840   5.289   2.126   1.774  1.7170  0.1848 -1.3285
 3069TIP3   OH230841   5.131   3.586   2.457 -0.1736  0.2599  0.3301
 3069TIP3    H130842   5.201   3.564   2.396  0.8248  1.1021  1.1182
 3069TIP3    H230843   5.108   3.676   2.436 -0.1769  0.3837  0.8397
 3070TIP3   OH230844   0.628   3.660   7.382  0.2354  0.3757  0.0501
 3070TIP3    H130845   0.603   3.593   7.318 -0.1971  0.8120 -0.2446
 3070TIP3    H230846   0.636   3.741   7.330 -0.3537  0.7842  0.5862
 3071TIP3   OH230847   1.121   5.796   7.618 -0.2770  0.0193 -0.5065
 3071TIP3    H130848   1.033   5.794   7.580  0.5190 -0.9234 -2.4431
 3071TIP3    H230849   1.138   5.888   7.635 -2.2498  0.0883  1.5438
 3072TIP3   OH230850   6.914   4.561   2.506  0.1856 -0.1153 -0.1162
 3072TIP3    H130851   6.903   4.468   2.523  1.5909 -0.2349  0.3326
 3072TIP3    H230852   6.849   4.604   2.561  0.2798 -0.7972  0.5461
 3073TIP3   OH230853   3.583   0.863   0.814 -0.7622 -0.2672 -0.7268
 3073TIP3    H130854   3.533   0.800   0.762  1.0092 -0.0096 -2.8618
 3073TIP3    H230855   3.608   0.814   0.893 -0.8344 -1.7070 -1.5659
 3074TIP3   OH230856   4.824   3.281   8.080 -0.1155 -0.0506 -0.4245
 3074TIP3    H130857   4.768   3.269   8.003  1.5567 -1.5841 -1.4839
 3074TIP3    H230858   4.770   3.252   8.154 -1.6155  1.0680 -1.0401
 3075TIP3   OH230859   0.234   2.413   6.863 -0.2510  0.2372 -0.2685
 3075TIP3    H130860   0.297   2.486   6.864  1.7232 -1.3503  1.1315
 3075TIP3    H230861   0.266   2.356   6.793 -0.6342 -0.2072 -0.0796
 3076TIP3   OH230862   1.649   0.670   1.498 -0.2871  0.0456  0.1507
 3076TIP3    H130863   1.647   0.631   1.585  2.1903 -0.1126  0.2052
 3076TIP3    H230864   1.557   0.681   1.474 -1.0273 -1.9100  1.8689
 3077TIP3   OH230865   3.368   1.658   8.283  0.2938  0.0737  0.0866
 3077TIP3    H130866   3.330   1.577   8.251  0.5168  0.6232 -1.6887
 3077TIP3    H230867   3.456   1.660   8.245  0.5845  0.7590  0.7691
 3078TIP3   OH230868   1.470   5.613   7.384 -0.8038  0.1564 -0.6729
 3078TIP3    H130869   1.376   5.595   7.387 -0.5410 -1.3643  1.3287
 3078TIP3    H230870   1.507   5.541   7.332 -0.5318 -0.8399  0.8212
 3079TIP3   OH230871   6.210   2.659   8.329  0.5222 -0.3140 -1.0190
 3079TIP3    H130872   6.272   2.587   8.317  2.0245  0.9192 -1.1261
 3079TIP3    H230873   6.237   2.701   8.411 -1.0194 -0.5110 -0.3868
 3080TIP3   OH230874   2.526   6.828   7.959  0.1181  0.4845  0.2570
 3080TIP3    H130875   2.468   6.752   7.951  0.8833 -0.0704 -0.1075
 3080TIP3    H230876   2.599   6.796   8.012  0.0346  1.2202  0.8309
 3081TIP3   OH230877   6.455   3.318   8.488 -0.0131 -0.3448  0.5498
 3081TIP3    H130878   6.491   3.285   8.570 -0.0254 -0.3211  0.5646
 3081TIP3    H230879   6.492   3.260   8.421 -0.7452 -0.9608  0.6604
 3082TIP3   OH230880   1.754   4.166   2.138  0.5588  0.0926  0.0640
 3082TIP3    H130881   1.706   4.239   2.100 -0.3016 -0.5995 -0.2246
 3082TIP3    H230882   1.844   4.178   2.107  0.2172  0.4593 -0.8460
 3083TIP3   OH230883   2.608   6.232   1.426 -0.3223  0.2493 -0.0721
 3083TIP3    H130884   2.665   6.170   1.472 -0.6246 -0.3559 -0.4934
 3083TIP3    H230885   2.642   6.318   1.450 -0.4782 -0.0436  1.2756
 3084TIP3   OH230886   1.844   3.808   8.515 -0.7103  0.0776 -0.2763
 3084TIP3    H130887   1.843   3.903   8.499 -0.8370  0.5590  2.2760
 3084TIP3    H230888   1.917   3.776   8.461 -0.4137  1.6748 -0.8805
 3085TIP3   OH230889   6.080   2.675   0.585 -0.2188  0.5778  0.4703
 3085TIP3    H130890   6.081   2.770   0.594  0.8978  0.7007 -0.6644
 3085TIP3    H230891   6.166   2.647   0.617 -0.0228  0.1046 -0.4236
 3086TIP3   OH230892   0.987   3.157   7.991 -0.0854 -0.1162 -0.2243
 3086TIP3    H130893   1.029   3.180   8.074 -0.5499  1.4785 -0.4011
 3086TIP3    H230894   0.893   3.162   8.009 -0.2185  1.8747 -1.2193
 3087TIP3   OH230895   1.454   2.351   0.273 -0.3636 -0.3146  0.2220
 3087TIP3    H130896   1.382   2.409   0.247  0.0404 -0.9643 -2.7395
 3087TIP3    H230897   1.411   2.270   0.301 -0.8700 -0.8300 -1.8664
 3088TIP3   OH230898   0.856   6.097   1.586 -0.1931  0.0787  0.4269
 3088TIP3    H130899   0.826   6.162   1.521 -0.6175  1.1308  1.6332
 3088TIP3    H230900   0.776   6.050   1.611  0.3711 -2.3286 -1.8473
 3089TIP3   OH230901   5.815   3.577   7.796  0.1938  0.2290 -0.1675
 3089TIP3    H130902   5.727   3.555   7.765 -0.4156  1.5099  0.6195
 3089TIP3    H230903   5.852   3.493   7.823 -0.6816 -0.3591 -0.7493
 3090TIP3   OH230904   1.950   1.354   7.825  0.3898  0.0016  0.3196
 3090TIP3    H130905   2.020   1.335   7.888  0.8485  0.2004 -0.1232
 3090TIP3    H230906   1.936   1.271   7.779 -0.6292 -0.4190  1.3314
 3091TIP3   OH230907   2.402   2.275   6.866 -0.3043 -0.0551  0.6247
 3091TIP3    H130908   2.347   2.201   6.890 -0.2417 -0.0308  0.8432
 3091TIP3    H230909   2.340   2.342   6.836 -0.3928 -0.0375  0.8470
 3092TIP3   OH230910   3.247   6.809   2.695  0.1980  0.4826 -0.6143
 3092TIP3    H130911   3.340   6.819   2.673  0.6183 -1.8255 -0.1330
 3092TIP3    H230912   3.234   6.870   2.768  1.8236 -0.4216  0.5111
 3093TIP3   OH230913   6.886   5.719   0.683  0.3449  0.1686 -0.1523
 3093TIP3    H130914   6.975   5.731   0.717  0.1696  3.5583 -0.5102
 3093TIP3    H230915   6.897   5.724   0.588 -0.0577 -1.1688 -0.2756
 3094TIP3   OH230916   5.993   5.940   6.567 -0.6276 -0.1294 -0.7193
 3094TIP3    H130917   6.080   5.903   6.551 -0.8714 -0.7921 -0.5630
 3094TIP3    H230918   5.942   5.916   6.490 -0.7496  0.0074 -0.6825
 3095TIP3   OH230919   3.440   4.119   7.505 -0.4303  0.4998 -0.2228
 3095TIP3    H130920   3.447   4.031   7.468  0.3215 -0.1413  1.3441
 3095TIP3    H230921   3.350   4.146   7.485 -1.1317 -1.1916  0.4528
 3096TIP3   OH230922   1.760   4.259   0.962  0.3227  0.0475 -0.5101
 3096TIP3    H130923   1.800   4.289   1.044  1.2346 -1.4850 -0.3565
 3096TIP3    H230924   1.834   4.240   0.905 -0.2094 -1.5453 -0.7144
 3097TIP3   OH230925   4.411   5.060   1.013 -0.1043 -0.0466  0.2143
 3097TIP3    H130926   4.375   5.042   1.099  0.4407 -0.1004  0.4311
 3097TIP3    H230927   4.505   5.062   1.026  0.0621 -1.2262 -0.5849
 3098TIP3   OH230928   5.394   2.685   6.993  0.0642 -0.0992 -0.1800
 3098TIP3    H130929   5.421   2.756   7.051 -0.5492 -0.8331  1.0522
 3098TIP3    H230930   5.300   2.698   6.981 -0.2702 -1.2663  0.9233
 3099TIP3   OH230931   1.179   3.888   0.065  0.3340  0.5354  0.0264
 3099TIP3    H130932   1.184   3.835   0.145 -0.3037  0.9896  0.3759
 3099TIP3    H230933   1.127   3.964   0.090 -0.3820  0.3921 -0.9853
 3100TIP3   OH230934   5.902   1.385   8.028  0.0671  0.5309 -0.2443
 3100TIP3    H130935   5.814   1.409   7.997  0.1351 -0.6776 -1.4835
 3100TIP3    H230936   5.940   1.336   7.955  0.8351 -1.1543  1.2079
 3101TIP3   OH230937   6.365   6.910   1.226  0.2098  0.1416  0.4299
 3101TIP3    H130938   6.319   6.828   1.245 -1.3167  1.5108  3.4074
 3101TIP3    H230939   6.295   6.975   1.218  1.4607  1.5122  0.2235
 3102TIP3   OH230940   6.898   3.247   7.721  0.5296 -0.1362  0.6358
 3102TIP3    H130941   6.902   3.337   7.688 -0.3424  0.0075  0.8917
 3102TIP3    H230942   6.982   3.209   7.697  1.2921  1.0275  1.3271
 3103TIP3   OH230943   6.906   3.166   1.714  0.5734  0.0145 -0.5384
 3103TIP3    H130944   6.901   3.113   1.793  2.3649  0.1658 -0.2649
 3103TIP3    H230945   6.826   3.219   1.714  0.8451  0.5096  1.5383
 3104TIP3   OH230946   3.808   5.652   2.439  0.2683  0.3970 -1.0643
 3104TIP3    H130947   3.753   5.610   2.507  1.3456  0.6310 -0.0110
 3104TIP3    H230948   3.749   5.714   2.396 -0.0439  1.4442  0.7728
 3105TIP3   OH230949   2.208   3.520   6.423 -0.3687  0.0229  0.4710
 3105TIP3    H130950   2.248   3.500   6.338 -0.0462  1.4116  0.2644
 3105TIP3    H230951   2.134   3.576   6.401  0.2659  1.1654  1.1495
 3106TIP3   OH230952   2.201   3.388   1.596 -0.3123  0.0196  0.5691
 3106TIP3    H130953   2.250   3.453   1.546  0.5941 -0.8592  0.2721
 3106TIP3    H230954   2.111   3.421   1.598  0.6406  3.0741  3.3159
 3107TIP3   OH230955   0.990   5.653   6.713  0.1773 -0.0664 -0.3122
 3107TIP3    H130956   1.019   5.655   6.622  0.8935 -2.0492 -0.1778
 3107TIP3    H230957   1.007   5.563   6.742  1.6793  0.9507  2.3360
 3108TIP3   OH230958   0.614   4.191   0.244 -0.5675 -0.1297  0.3530
 3108TIP3    H130959   0.558   4.144   0.306 -2.2587  0.3237 -0.7539
 3108TIP3    H230960   0.597   4.283   0.261 -1.1116 -0.0021 -0.8142
 3109TIP3   OH230961   6.817   2.016   1.535 -0.7321 -1.1234 -0.1305
 3109TIP3    H130962   6.751   1.991   1.470 -0.2471  0.3516 -1.2350
 3109TIP3    H230963   6.888   1.953   1.523 -0.5465 -0.7163 -1.2153
 3110TIP3   OH230964   0.432   6.310   1.098  0.0275 -0.3246 -0.3866
 3110TIP3    H130965   0.420   6.219   1.125  2.8464 -0.8541 -0.6115
 3110TIP3    H230966   0.353   6.332   1.048 -1.2293 -2.2339  0.6561
 3111TIP3   OH230967   3.299   0.794   7.743 -0.3974 -0.4838 -0.0869
 3111TIP3    H130968   3.328   0.728   7.807  0.5002 -0.5283 -0.5333
 3111TIP3    H230969   3.238   0.848   7.792  1.4990  0.4976  1.3363
 3112TIP3   OH230970   3.152   0.721   0.477 -0.3121 -0.0178  0.8754
 3112TIP3    H130971   3.063   0.753   0.462  0.3424  0.6966 -1.9384
 3112TIP3    H230972   3.143   0.626   0.482 -1.3621  0.1137  2.0806
 3113TIP3   OH230973   1.311   1.053   0.625 -0.1097 -0.7036 -0.0079
 3113TIP3    H130974   1.370   1.026   0.554  0.2399  1.1890 -0.5193
 3113TIP3    H230975   1.254   1.119   0.584  0.3818  0.7492  1.5315
 3114TIP3   OH230976   4.167   0.508   0.555  0.7757 -0.2937  0.1498
 3114TIP3    H130977   4.173   0.540   0.645 -1.6263  1.2025 -0.1249
 3114TIP3    H230978   4.136   0.418   0.563  2.5171 -0.8867  0.8021
 3115TIP3   OH230979   6.820   2.375   7.327 -0.1132 -0.5228  0.4431
 3115TIP3    H130980   6.820   2.466   7.354  0.1678 -0.8266  1.5154
 3115TIP3    H230981   6.776   2.328   7.398 -0.2971 -1.2181 -0.1097
 3116TIP3   OH230982   2.165   5.930   0.913  0.5320 -0.1499 -0.5645
 3116TIP3    H130983   2.110   6.002   0.943  0.6317  0.3386 -1.5175
 3116TIP3    H230984   2.150   5.860   0.977 -1.4686 -0.1451 -0.9499
 3117TIP3   OH230985   6.389   3.749   0.596  0.0651 -0.2266 -0.2694
 3117TIP3    H130986   6.371   3.805   0.520 -3.2438 -0.9529 -0.1764
 3117TIP3    H230987   6.383   3.809   0.671  1.4269  0.1414 -0.4369
 3118TIP3   OH230988   4.176   4.386   8.041  0.1254 -0.3687 -0.2006
 3118TIP3    H130989   4.198   4.463   7.988  1.2164 -0.1375  0.5514
 3118TIP3    H230990   4.083   4.371   8.025  0.0962  0.5966 -1.0130
 3119TIP3   OH230991   5.826   3.165   1.514  0.3812 -0.3366 -0.3857
 3119TIP3    H130992   5.787   3.146   1.428 -1.1703  0.0831  0.1920
 3119TIP3    H230993   5.755   3.147   1.576  1.3091 -0.0830  0.7643
 3120TIP3   OH230994   2.395   1.439   1.885  0.3549 -0.4276  0.7068
 3120TIP3    H130995   2.457   1.384   1.933 -0.7591 -1.7817  0.6765
 3120TIP3    H230996   2.309   1.412   1.918 -0.2563  1.0547  0.4091
 3121TIP3   OH230997   0.144   4.080   6.550  0.1336 -0.1954  0.5886
 3121TIP3    H130998   0.051   4.059   6.544 -0.2827  1.1024  1.8814
 3121TIP3    H230999   0.181   4.048   6.468 -1.9671  1.7057 -1.2471
 3122TIP3   OH231000   6.517   2.448   0.012  0.2477 -0.7138  0.3334
 3122TIP3    H131001   6.561   2.494   0.084 -0.5499  0.0704  0.3305
 3122TIP3    H231002   6.494   2.363   0.050 -0.8166 -0.0437  1.2642
 3123TIP3   OH231003   0.151   0.670   8.071  0.2662  0.0025  0.1684
 3123TIP3    H131004   0.119   0.584   8.099 -1.3957  0.8740  1.0544
 3123TIP3    H231005   0.115   0.681   7.983 -0.7148  0.3633  0.5999
 3124TIP3   OH231006   3.290   4.811   0.761 -0.5250  0.4076 -0.3282
 3124TIP3    H131007   3.342   4.800   0.841  0.8064 -2.4093 -1.4484
 3124TIP3    H231008   3.199   4.797   0.789 -0.0531 -0.7892  0.6618
 3125TIP3   OH231009   1.312   2.076   0.573 -0.3825  0.3793  0.0645
 3125TIP3    H131010   1.219   2.058   0.587 -0.4375  0.7377  0.1678
 3125TIP3    H231011   1.320   2.170   0.584  0.2895  0.1541  1.7721
 3126TIP3   OH231012   2.854   4.147   7.427 -0.3341  0.2690 -0.0808
 3126TIP3    H131013   2.940   4.138   7.469 -0.1159 -2.6502 -0.9176
 3126TIP3    H231014   2.873   4.143   7.333 -1.3041  0.7624 -0.3044
 3127TIP3   OH231015   5.723   0.308   8.392  0.5571 -0.2314 -0.6261
 3127TIP3    H131016   5.763   0.230   8.353  1.6131 -0.9803  1.7162
 3127TIP3    H231017   5.653   0.274   8.447 -0.2137  0.6721 -1.0289
 3128TIP3   OH231018   0.513   1.541   1.444 -0.0190  0.4474 -0.3550
 3128TIP3    H131019   0.586   1.601   1.452  1.0588 -0.7687 -0.6780
 3128TIP3    H231020   0.553   1.454   1.439 -1.5728 -0.4822  1.6746
 3129TIP3   OH231021   5.421   0.411   8.210  0.7917  0.8923 -0.1699
 3129TIP3    H131022   5.330   0.439   8.224  0.0317 -0.6220 -1.7511
 3129TIP3    H231023   5.427   0.328   8.257  1.1137  0.5799 -0.7658
 3130TIP3   OH231024   6.141   4.704   6.520  0.6840 -0.0130  0.0620
 3130TIP3    H131025   6.214   4.714   6.581  0.7320  0.8738 -0.1211
 3130TIP3    H231026   6.178   4.662   6.443  0.9836  0.3453  0.0092
 3131TIP3   OH231027   4.911   5.227   2.052 -0.5433  0.8097  0.0933
 3131TIP3    H131028   5.002   5.214   2.079 -1.0251 -0.2428  1.3652
 3131TIP3    H231029   4.881   5.139   2.027 -0.9175  1.3259 -1.3313
 3132TIP3   OH231030   0.328   4.404   7.816  0.2271 -0.1136  0.3115
 3132TIP3    H131031   0.289   4.317   7.806 -0.4009  0.1915  0.0857
 3132TIP3    H231032   0.313   4.447   7.732  1.6454 -0.2130 -0.0267
 3133TIP3   OH231033   1.954   6.673   0.617  0.7081  0.3322  0.6377
 3133TIP3    H131034   2.046   6.649   0.622  0.8378  0.8924  1.0298
 3133TIP3    H231035   1.912   6.622   0.686  0.2085 -2.1062 -1.3235
 3134TIP3   OH231036   5.651   3.635   8.048  0.0862  0.0176 -0.3543
 3134TIP3    H131037   5.671   3.547   8.016 -1.8798 -0.7778  0.4655
 3134TIP3    H231038   5.690   3.693   7.983  0.1435 -1.4708 -1.7195
 3135TIP3   OH231039   6.867   0.406   1.242 -0.6334 -0.2552 -0.3377
 3135TIP3    H131040   6.893   0.433   1.154  0.2916  0.5404  0.1640
 3135TIP3    H231041   6.777   0.436   1.250 -0.8933 -0.7524 -1.1716
 3136TIP3   OH231042   2.157   6.491   0.469 -0.4217  0.4530 -0.3853
 3136TIP3    H131043   2.148   6.399   0.494  0.7290  0.7648  1.3680
 3136TIP3    H231044   2.252   6.505   0.462 -0.6152  1.2321 -1.8031
 3137TIP3   OH231045   1.654   0.023   1.157  0.2280  0.4147 -0.0139
 3137TIP3    H131046   1.657  -0.037   1.231 -0.5981  1.0951  0.5851
 3137TIP3    H231047   1.568   0.008   1.117 -0.3314  1.7205  0.6177
 3138TIP3   OH231048   4.289   4.217   6.801  0.1781  0.2667  0.0715
 3138TIP3    H131049   4.350   4.188   6.869 -1.1620 -0.2930  1.0781
 3138TIP3    H231050   4.250   4.297   6.836 -1.1453 -0.4804  0.3874
 3139TIP3   OH231051   0.918   0.879   0.105  0.1424  0.2704 -0.3830
 3139TIP3    H131052   0.874   0.965   0.108 -0.3012  0.2194 -2.9601
 3139TIP3    H231053   0.857   0.820   0.148  0.4565  1.2153  1.4501
 3140TIP3   OH231054   5.728   1.464   8.502 -0.3156  0.4577  0.0324
 3140TIP3    H131055   5.671   1.391   8.526  0.1352  0.4237  1.0328
 3140TIP3    H231056   5.706   1.482   8.410 -1.3510 -0.0824  0.1548
 3141TIP3   OH231057   4.381   3.102   7.707 -0.3173 -0.9897 -0.4035
 3141TIP3    H131058   4.458   3.118   7.652  0.5491 -1.1018  0.7261
 3141TIP3    H231059   4.405   3.025   7.759 -0.6944 -0.2935  0.8419
 3142TIP3   OH231060   5.556   0.947   0.246  0.1877  0.2227  0.1874
 3142TIP3    H131061   5.639   0.911   0.278  1.4282  0.4394 -2.5294
 3142TIP3    H231062   5.535   0.893   0.170 -0.2486  2.4136 -1.3126
 3143TIP3   OH231063   4.305   4.740   0.244  0.1633 -0.6955 -0.5183
 3143TIP3    H131064   4.335   4.737   0.335 -2.1025 -1.6512  0.2495
 3143TIP3    H231065   4.329   4.828   0.215  1.2259 -0.4814  0.8816
 3144TIP3   OH231066   2.405   6.123   6.622 -0.1394 -0.2435 -0.1597
 3144TIP3    H131067   2.369   6.203   6.661  0.3117 -0.2049  0.1923
 3144TIP3    H231068   2.335   6.089   6.567 -0.0587  0.8439 -0.9790
 3145TIP3   OH231069   0.854   4.581   0.141  0.0020  0.4899 -0.0624
 3145TIP3    H131070   0.852   4.677   0.149 -0.4186  0.4676  0.1245
 3145TIP3    H231071   0.821   4.564   0.053  0.6294  0.5408 -0.3118
 3146TIP3   OH231072   5.197   0.292   1.560  0.3377  0.6710 -0.0248
 3146TIP3    H131073   5.241   0.295   1.475  0.3900 -2.5902 -0.2629
 3146TIP3    H231074   5.135   0.219   1.552  0.1805  0.4028  2.6471
 3147TIP3   OH231075   6.014   1.263   0.693  0.9083 -0.1798  0.1127
 3147TIP3    H131076   5.970   1.270   0.778  0.8250  1.4992 -0.0508
 3147TIP3    H231077   5.985   1.178   0.659 -1.9481  0.6779  0.1856
 3148TIP3   OH231078   0.043   4.409   0.243  0.2724 -0.0812 -0.2319
 3148TIP3    H131079   0.057   4.387   0.151  0.1681  0.6056 -0.4199
 3148TIP3    H231080   0.104   4.352   0.291  1.3831  0.5723 -0.8220
 3149TIP3   OH231081   1.687   0.914   0.100  0.3695 -0.0581  0.6259
 3149TIP3    H131082   1.610   0.970   0.103  0.6302  0.2663  2.1276
 3149TIP3    H231083   1.681   0.868   0.016 -0.9673  0.6277  0.3293
 3150TIP3   OH231084   5.056   5.084   2.374  0.2785  0.2924  0.2891
 3150TIP3    H131085   5.093   5.090   2.286  0.3210 -2.4829  0.0514
 3150TIP3    H231086   4.977   5.032   2.364  1.0825 -1.3873  2.0624
 3151TIP3   OH231087   1.984   3.558   2.389  0.5980 -0.0060 -0.4117
 3151TIP3    H131088   1.932   3.549   2.309  1.0784  2.1059 -1.0370
 3151TIP3    H231089   1.920   3.588   2.454  0.4453 -0.5274 -0.3142
 3152TIP3   OH231090   4.589   5.022   0.550  0.0841  0.0653  0.3024
 3152TIP3    H131091   4.609   5.115   0.549  2.6320 -0.4277 -0.8243
 3152TIP3    H231092   4.519   5.012   0.485  1.1533  0.9454 -1.0222
 3153TIP3   OH231093   3.926   3.725   1.346  0.3872 -0.1536  0.4532
 3153TIP3    H131094   3.874   3.657   1.389  0.2671 -0.9483 -0.8889
 3153TIP3    H231095   3.904   3.806   1.393 -3.1444 -0.1762 -0.8636
 3154TIP3   OH231096   0.454   6.585   7.900 -0.1470  0.3540  0.1980
 3154TIP3    H131097   0.381   6.643   7.922  1.9838  3.2480  0.1999
 3154TIP3    H231098   0.460   6.588   7.805 -1.5973 -2.0873 -0.0579
 3155TIP3   OH231099   4.308   3.581   8.466 -0.6730 -0.8979 -0.3915
 3155TIP3    H131100   4.328   3.650   8.403  0.8112 -0.5486  0.4129
 3155TIP3    H231101   4.393   3.555   8.501 -1.3292 -2.1661  0.3530
 3156TIP3   OH231102   5.469   3.799   0.924 -0.2165  0.3038  0.2636
 3156TIP3    H131103   5.519   3.797   0.842 -0.9119  0.6670 -0.1773
 3156TIP3    H231104   5.439   3.890   0.931 -2.7165 -0.3886 -0.6479
 3157TIP3   OH231105   5.843   6.156   7.042  0.0239 -0.3941 -0.0954
 3157TIP3    H131106   5.884   6.090   7.098 -0.3191 -2.1930 -1.8562
 3157TIP3    H231107   5.914   6.190   6.988 -0.2143 -1.1427 -0.8947
 3158TIP3   OH231108   5.118   6.202   0.829 -0.2113  0.2694  0.2061
 3158TIP3    H131109   5.068   6.277   0.797 -1.9004 -0.2538  1.4866
 3158TIP3    H231110   5.195   6.240   0.870 -0.9606  1.3263  0.6812
 3159TIP3   OH231111   6.885   3.318   0.077 -0.5098  0.0490  0.0804
 3159TIP3    H131112   6.907   3.411   0.080 -2.4578  0.6221 -1.3274
 3159TIP3    H231113   6.852   3.298   0.165 -2.2743  1.3259 -0.2465
 3160TIP3   OH231114   0.824   6.137   8.523  0.2161  0.4161 -0.3047
 3160TIP3    H131115   0.824   6.084   8.443 -1.7302  0.4464 -0.3688
 3160TIP3    H231116   0.888   6.094   8.580  0.7508 -0.3167 -1.4102
 3161TIP3   OH231117   3.079   0.399   2.101  0.1132  0.1075 -0.2625
 3161TIP3    H131118   3.044   0.381   2.189  0.1866 -0.9746 -0.4343
 3161TIP3    H231119   3.054   0.489   2.083 -1.3418 -0.1750  0.2063
 3162TIP3   OH231120   1.955   1.042   2.448 -0.1802 -0.8259  0.5849
 3162TIP3    H131121   2.031   0.996   2.484  0.0361  0.9856  2.6762
 3162TIP3    H231122   1.892   0.973   2.428  0.2838 -2.1098  3.1581
 3163TIP3   OH231123   4.551   1.643   7.882 -0.0359  0.3235 -0.5339
 3163TIP3    H131124   4.522   1.733   7.868  0.3401  0.5464  0.0582
 3163TIP3    H231125   4.580   1.642   7.973 -1.6868 -0.8549  0.0109
 3164TIP3   OH231126   3.306   2.891   8.051  0.2692 -0.1718  0.2501
 3164TIP3    H131127   3.316   2.946   7.974 -0.9747 -2.6693 -1.8806
 3164TIP3    H231128   3.356   2.812   8.030 -0.7885 -1.2648  1.6300
 3165TIP3   OH231129   0.543   3.654   1.313 -0.5760  0.0660  0.0693
 3165TIP3    H131130   0.498   3.735   1.340 -0.8716  1.2611 -3.4980
 3165TIP3    H231131   0.472   3.596   1.285 -0.2288 -0.4553  0.2718
 3166TIP3   OH231132   1.707   4.811   1.304 -0.5979 -0.4027 -0.6236
 3166TIP3    H131133   1.782   4.752   1.310  0.5274  1.0708  0.5217
 3166TIP3    H231134   1.635   4.755   1.273  0.7966 -1.9917 -1.1313
 3167TIP3   OH231135   4.273   5.017   1.811 -0.2144 -0.5575  0.4892
 3167TIP3    H131136   4.368   5.027   1.823 -0.3218 -0.0837  1.0176
 3167TIP3    H231137   4.236   5.033   1.898 -0.8590  0.3915  0.0671
 3168TIP3   OH231138   3.692   5.421   2.101 -0.8336 -0.1839 -0.2993
 3168TIP3    H131139   3.627   5.418   2.171 -0.1523 -2.3879  0.3104
 3168TIP3    H231140   3.670   5.347   2.045  1.9071 -1.9322  0.7167
 3169TIP3   OH231141   2.292   3.350   0.096  0.3995  0.4144  0.6083
 3169TIP3    H131142   2.284   3.255   0.100 -3.1144  0.5699  0.9378
 3169TIP3    H231143   2.225   3.382   0.157  2.3902  3.1450  1.5536
 3170TIP3   OH231144   3.501   4.235   6.739 -0.1699 -0.0177 -0.2208
 3170TIP3    H131145   3.517   4.247   6.832 -1.1844 -1.4588  0.1611
 3170TIP3    H231146   3.479   4.143   6.729  0.9307 -0.1535 -2.0566
 3171TIP3   OH231147   1.469   4.679   1.231  0.3787  0.2950 -0.2438
 3171TIP3    H131148   1.393   4.717   1.186 -0.1388 -0.7588 -0.2910
 3171TIP3    H231149   1.491   4.602   1.180  0.6307 -0.1629  0.5416
 3172TIP3   OH231150   2.038   4.513   0.246  0.6033  0.4788  0.1639
 3172TIP3    H131151   1.975   4.555   0.188  2.0077  1.2133 -0.8983
 3172TIP3    H231152   2.098   4.584   0.272  0.3156  0.0646  2.1261
 3173TIP3   OH231153   5.856   0.730   2.606  0.1225 -0.2566 -0.1857
 3173TIP3    H131154   5.828   0.726   2.514  0.1097  0.0742 -0.1972
 3173TIP3    H231155   5.845   0.821   2.630  1.3191 -0.0751 -0.2368
 3174TIP3   OH231156   4.493   2.914   8.319  0.2245  0.5691  0.6678
 3174TIP3    H131157   4.438   2.849   8.274  1.8535 -1.0938  0.9455
 3174TIP3    H231158   4.431   2.968   8.367 -1.1932 -1.4777  1.3029
 3175TIP3   OH231159   2.193   0.696   1.375  0.3939  0.2605 -0.8582
 3175TIP3    H131160   2.120   0.737   1.328 -0.4619  0.2463  0.4196
 3175TIP3    H231161   2.239   0.646   1.308 -0.7813  0.2631 -1.6942
 3176TIP3   OH231162   1.884   4.316   7.715 -0.3418  0.2760 -0.5318
 3176TIP3    H131163   1.872   4.349   7.804 -0.7363 -0.6409 -0.2424
 3176TIP3    H231164   1.978   4.325   7.699 -0.3911  1.2407 -0.3470
 3177TIP3   OH231165   5.632   3.890   7.719  0.1477 -0.5481  0.2008
 3177TIP3    H131166   5.537   3.892   7.729  0.0318  0.2090 -0.8161
 3177TIP3    H231167   5.650   3.811   7.669 -0.0065 -0.4476 -0.0177
 3178TIP3   OH231168   0.466   3.964   1.310  0.2860 -0.0346 -0.0896
 3178TIP3    H131169   0.515   3.941   1.231  0.6152 -1.5905  0.5098
 3178TIP3    H231170   0.384   4.001   1.278  0.1317 -1.2303 -1.2008
 3179TIP3   OH231171   1.607   0.290   1.205 -0.4697  0.0800 -0.0890
 3179TIP3    H131172   1.624   0.199   1.183 -0.2685  0.2036 -0.4407
 3179TIP3    H231173   1.679   0.315   1.262 -0.9667 -0.2256  0.6935
 3180TIP3   OH231174   2.453   3.909   8.229  0.6019 -0.1216  0.0549
 3180TIP3    H131175   2.506   3.941   8.155 -0.7266 -1.5345 -1.6084
 3180TIP3    H231176   2.447   3.815   8.215 -0.4103 -0.3029  1.5096
 3181TIP3   OH231177   2.956   3.892   8.317  0.2980  0.6912  0.1116
 3181TIP3    H131178   2.895   3.838   8.267  1.3194  1.6229 -2.3082
 3181TIP3    H231179   3.034   3.838   8.327 -0.2354  0.1494  1.6530
 3182TIP3   OH231180   2.940   5.229   6.833  0.7729 -0.2332 -0.3048
 3182TIP3    H131181   2.874   5.191   6.891  0.5194  1.4381  0.5657
 3182TIP3    H231182   2.905   5.315   6.810  1.5455 -0.2910 -1.7977
 3183TIP3   OH231183   4.951   0.312   8.366 -0.6985 -0.2150 -0.2509
 3183TIP3    H131184   4.875   0.284   8.316 -1.4601  1.0027  0.1852
 3183TIP3    H231185   4.915   0.348   8.447  0.3347  0.3707 -0.0310
 3184TIP3   OH231186   1.499   0.322   2.023  0.6653 -0.0879  0.5629
 3184TIP3    H131187   1.532   0.270   1.950 -1.0321 -0.8607  0.2976
 3184TIP3    H231188   1.437   0.264   2.067  0.4684  0.9269  1.6639
 3185TIP3   OH231189   0.317   5.164   1.850 -0.1613  0.0846 -0.4409
 3185TIP3    H131190   0.323   5.253   1.885 -0.1053  0.6623 -1.8378
 3185TIP3    H231191   0.265   5.116   1.914  1.3300  0.6221  1.2647
 3186TIP3   OH231192   1.510   0.728   7.277  0.3398  0.2121 -0.5047
 3186TIP3    H131193   1.486   0.636   7.269 -1.2885  0.7839 -4.0042
 3186TIP3    H231194   1.602   0.731   7.251 -0.0333 -0.3085 -2.0246
 3187TIP3   OH231195   3.738   0.023   2.056  0.7484  0.1906 -0.2472
 3187TIP3    H131196   3.781  -0.020   1.983 -0.7737  0.4151 -1.3249
 3187TIP3    H231197   3.670  -0.038   2.084 -0.0484  0.9706 -0.4187
 3188TIP3   OH231198   0.692   0.882   8.434 -0.2026  0.2353  0.2655
 3188TIP3    H131199   0.721   0.955   8.488 -1.8829  2.4766 -1.6355
 3188TIP3    H231200   0.596   0.892   8.430 -0.3299 -1.1872 -1.2185
 3189TIP3   OH231201   4.051   0.548   8.315 -0.1709 -0.0293  0.0602
 3189TIP3    H131202   4.109   0.508   8.380 -1.2149 -1.3320  0.2178
 3189TIP3    H231203   3.983   0.590   8.366 -0.6927 -0.5869 -0.1677
 3190TIP3   OH231204   0.607   4.477   0.198 -0.1319 -0.2367 -0.2390
 3190TIP3    H131205   0.579   4.550   0.254 -0.5976  0.4885 -1.3905
 3190TIP3    H231206   0.703   4.483   0.197 -0.0643 -0.7602  1.1157
 3191TIP3   OH231207   3.474   4.513   1.627 -0.1989  0.6020  0.1920
 3191TIP3    H131208   3.448   4.580   1.564  1.9741  1.6338  0.3064
 3191TIP3    H231209   3.484   4.560   1.710 -2.1351 -0.5784  1.1930
 3192TIP3   OH231210   2.310   3.772   0.622 -0.0265  0.0329  0.0682
 3192TIP3    H131211   2.258   3.763   0.542 -0.0832 -0.2496  0.1376
 3192TIP3    H231212   2.298   3.689   0.668  0.7842 -0.1818 -0.0914
 3193TIP3   OH231213   4.399   6.074   1.692 -0.1132  0.3042 -0.4380
 3193TIP3    H131214   4.385   5.979   1.694 -1.2314  0.4659  0.6796
 3193TIP3    H231215   4.326   6.108   1.641  0.9228  0.5019 -1.8500
 3194TIP3   OH231216   5.304   2.223   1.168 -1.0914  0.9342  0.2308
 3194TIP3    H131217   5.254   2.272   1.233  0.1869 -0.2657  2.2102
 3194TIP3    H231218   5.392   2.217   1.204  0.0585  1.3625 -2.2764
 3195TIP3   OH231219   2.927   0.663   1.247  0.6576  0.0535 -0.5389
 3195TIP3    H131220   2.997   0.629   1.302 -0.8115 -2.1158  0.0946
 3195TIP3    H231221   2.874   0.587   1.225 -1.6041  1.6227 -0.8795
 3196TIP3   OH231222   0.138   3.480   7.600 -0.6860  0.5152  0.1020
 3196TIP3    H131223   0.146   3.495   7.506  2.4231  1.1656  0.3723
 3196TIP3    H231224   0.220   3.437   7.624 -1.1381  0.9184  2.6099
 3197TIP3   OH231225   5.774   1.410   0.581  0.2537 -0.0323 -0.0950
 3197TIP3    H131226   5.754   1.341   0.518 -0.7405 -0.0564  0.2359
 3197TIP3    H231227   5.867   1.398   0.601  0.3986 -0.4859 -0.9843
 3198TIP3   OH231228   5.426   2.422   0.183 -0.0266  0.5835  0.0801
 3198TIP3    H131229   5.369   2.388   0.252  0.6690  1.0608  0.9125
 3198TIP3    H231230   5.383   2.397   0.101 -0.8884  0.0436  0.6866
 3199TIP3   OH231231   3.220   0.631   2.291 -0.2622 -0.0960 -0.5692
 3199TIP3    H131232   3.157   0.703   2.302 -2.0489 -1.7152  0.3340
 3199TIP3    H231233   3.195   0.568   2.359  0.1579 -2.3348 -2.4050
 3200TIP3   OH231234   2.578   4.221   2.188  0.5768  0.1353 -0.4769
 3200TIP3    H131235   2.559   4.311   2.216  0.9597  0.9323 -2.6084
 3200TIP3    H231236   2.668   4.206   2.218  0.5769  0.5337 -0.2676
 3201TIP3   OH231237   3.417   5.853   6.810  0.3503  0.1265  0.4788
 3201TIP3    H131238   3.330   5.893   6.798  0.6251  0.5779 -0.0713
 3201TIP3    H231239   3.444   5.828   6.722  2.0384  2.6985  0.1390
 3202TIP3   OH231240   5.239   1.006   8.389 -0.3115 -0.3752 -0.1080
 3202TIP3    H131241   5.175   1.077   8.393 -0.2521 -0.3672  2.5936
 3202TIP3    H231242   5.241   0.970   8.478  1.8477 -1.8180 -0.6478
 3203TIP3   OH231243   1.207   4.830   0.122  0.7994  0.9420  0.4762
 3203TIP3    H131244   1.286   4.876   0.093  0.0393  1.6525 -0.5516
 3203TIP3    H231245   1.238   4.744   0.151  1.6644  0.0011 -2.8205
 3204TIP3   OH231246   0.297   2.962   0.345  0.2341  0.2282  1.0215
 3204TIP3    H131247   0.221   2.920   0.305  1.2498  1.6427 -2.7776
 3204TIP3    H231248   0.369   2.900   0.330  0.7455  1.0399  0.0402
 3205TIP3   OH231249   1.485   5.520   0.876  0.1656 -0.2027 -0.3273
 3205TIP3    H131250   1.398   5.559   0.883 -0.5852 -1.7088 -0.8586
 3205TIP3    H231251   1.510   5.531   0.784  1.4729  2.0181  0.2029
 3206TIP3   OH231252   2.554   0.434   1.482  0.0149 -0.7796  0.0952
 3206TIP3    H131253   2.633   0.445   1.428 -1.2067  0.2378 -1.5774
 3206TIP3    H231254   2.520   0.348   1.458  0.0003 -0.7343 -0.0490
 3207TIP3   OH231255   0.527   1.846   6.691 -0.1265 -0.2468  0.1999
 3207TIP3    H131256   0.607   1.814   6.732  0.5244  0.1029 -0.7574
 3207TIP3    H231257   0.545   1.845   6.597 -0.1682  2.5277  0.0691
 3208TIP3   OH231258   6.161   5.159   8.289  0.0148  0.1268 -0.2201
 3208TIP3    H131259   6.168   5.179   8.196 -0.0021  1.9579  0.1330
 3208TIP3    H231260   6.127   5.070   8.292  0.6392 -0.2147 -1.9527
 3209TIP3   OH231261   6.227   2.190   7.045 -0.2987 -0.3872  0.4353
 3209TIP3    H131262   6.138   2.155   7.038 -0.9408  1.2856 -0.2111
 3209TIP3    H231263   6.250   2.216   6.956  0.6081 -0.2415  0.6997
 3210TIP3   OH231264   5.419   1.850   1.627 -0.5910 -0.2714  0.3411
 3210TIP3    H131265   5.369   1.927   1.651 -1.8370 -0.8601 -0.2578
 3210TIP3    H231266   5.390   1.782   1.688 -0.0403 -0.4571  0.4039
 3211TIP3   OH231267   4.537   2.934   7.937  0.2926 -0.6242 -0.3947
 3211TIP3    H131268   4.504   2.894   8.017 -3.0094 -0.8094 -1.6861
 3211TIP3    H231269   4.548   2.860   7.876 -1.1821 -0.1506 -1.2991
 3212TIP3   OH231270   6.396   3.196   7.506  0.3856 -0.6230 -0.1228
 3212TIP3    H131271   6.363   3.128   7.449 -1.7471  2.1492 -2.5027
 3212TIP3    H231272   6.348   3.185   7.588 -1.4784 -0.7903 -1.1913
 3213TIP3   OH231273   0.736   3.157   7.780  0.2392 -0.4213 -0.0643
 3213TIP3    H131274   0.810   3.181   7.724  1.9009 -1.4691  1.5578
 3213TIP3    H231275   0.690   3.089   7.731 -0.0139  0.6240 -1.3352
 3214TIP3   OH231276   4.588   4.427   1.247 -0.3195  0.6880  0.0878
 3214TIP3    H131277   4.522   4.455   1.183 -0.8795  1.0759  0.8228
 3214TIP3    H231278   4.653   4.497   1.246 -1.0552  1.4071  0.9688
 3215TIP3   OH231279   5.653   6.812   0.863  0.1616 -0.3642  0.0320
 3215TIP3    H131280   5.661   6.898   0.904  1.9911  0.0960 -1.1805
 3215TIP3    H231281   5.597   6.828   0.786  1.0509 -0.0842 -0.5724
 3216TIP3   OH231282   6.794   3.405   0.563 -0.1734  0.2004  0.2732
 3216TIP3    H131283   6.850   3.411   0.640  0.2978 -0.0842 -0.0420
 3216TIP3    H231284   6.755   3.492   0.554  1.2534  0.8086 -0.2670
 3217TIP3   OH231285   0.791   3.715   6.961  0.4655 -0.2592  0.2477
 3217TIP3    H131286   0.758   3.736   7.048 -0.0308 -0.5499  0.1366
 3217TIP3    H231287   0.807   3.620   6.963 -0.4583 -0.4407 -0.2592
 3218TIP3   OH231288   2.509   1.344   6.674  0.1241 -0.0864 -0.1234
 3218TIP3    H131289   2.521   1.436   6.699  1.0952 -0.7774  2.1427
 3218TIP3    H231290   2.420   1.341   6.638 -0.7378  1.3405  1.7271
 3219TIP3   OH231291   5.875   3.146   1.226 -0.3402 -0.0772 -0.0662
 3219TIP3    H131292   5.787   3.173   1.200  0.3723  2.0468 -0.4119
 3219TIP3    H231293   5.933   3.215   1.194  1.3933 -1.0577  0.7768
 3220TIP3   OH231294   0.809   3.865   2.511  0.2855  0.5503  0.2336
 3220TIP3    H131295   0.899   3.852   2.541 -0.2513 -1.1435  1.2489
 3220TIP3    H231296   0.763   3.898   2.588  0.1197  1.9468 -0.4337
 3221TIP3   OH231297   0.352   5.127   8.059  0.0632  0.3603 -0.2915
 3221TIP3    H131298   0.330   5.210   8.102 -0.0982  0.4561 -0.5598
 3221TIP3    H231299   0.371   5.151   7.968  1.4241  0.3028 -0.0472
 3222TIP3   OH231300   5.944   5.772   2.231  0.0127  0.0223  0.2114
 3222TIP3    H131301   5.883   5.707   2.197  1.5677 -0.9782 -0.8491
 3222TIP3    H231302   5.900   5.856   2.219 -1.2360 -0.6735 -0.2608
 3223TIP3   OH231303   5.067   0.017   2.180 -0.0079  0.3817  0.5857
 3223TIP3    H131304   5.142  -0.041   2.179 -1.4944 -1.6613  1.0742
 3223TIP3    H231305   4.999  -0.032   2.227 -1.4731  2.3674  0.6862
 3224TIP3   OH231306   3.567   0.111   1.877 -0.7919 -0.3493  0.1045
 3224TIP3    H131307   3.630   0.114   1.950 -0.8441 -1.3605  0.2061
 3224TIP3    H231308   3.618   0.078   1.803 -0.9063  0.0220 -0.1395
 3225TIP3   OH231309   3.167   0.745   7.316  0.6429 -0.1022  0.0996
 3225TIP3    H131310   3.139   0.719   7.404  1.2752 -0.2741  0.2570
 3225TIP3    H231311   3.162   0.664   7.264 -3.3759  0.6606 -1.0605
 3226TIP3   OH231312   4.141   6.563   8.473  0.5690  0.2643  0.1026
 3226TIP3    H131313   4.200   6.618   8.423 -0.4015  0.7013 -0.6073
 3226TIP3    H231314   4.131   6.483   8.421 -1.8428  1.4332 -1.4146
 3227TIP3   OH231315   6.727   3.991   0.592 -0.0342 -0.5747  0.0338
 3227TIP3    H131316   6.765   4.076   0.572 -1.9519  0.3662  0.1636
 3227TIP3    H231317   6.707   3.953   0.506 -0.1125 -0.4489 -0.0028
 3228TIP3   OH231318   3.915   0.110   1.578 -0.0811 -1.0682 -0.1645
 3228TIP3    H131319   3.881   0.051   1.512 -2.6480 -0.0723  0.1755
 3228TIP3    H231320   3.905   0.063   1.661 -1.0447 -0.6334 -0.0226
 3229TIP3   OH231321   6.418   1.743   1.976  0.3988  0.1755 -0.1582
 3229TIP3    H131322   6.374   1.793   2.045 -1.2002 -0.3968 -0.7319
 3229TIP3    H231323   6.363   1.666   1.962  0.5867  0.3352 -2.1577
 3230TIP3   OH231324   0.662   4.047   6.848 -0.0387  0.8178  0.1998
 3230TIP3    H131325   0.648   4.028   6.756  0.0930  0.2759  0.2885
 3230TIP3    H231326   0.610   4.126   6.865  0.2722  1.1649 -0.4348
 3231TIP3   OH231327   1.624   3.203   1.126 -0.6133  0.0158 -0.4873
 3231TIP3    H131328   1.653   3.283   1.081 -1.1734  0.0803 -0.7342
 3231TIP3    H231329   1.694   3.185   1.188  0.1206 -0.0158 -1.3069
 3232TIP3   OH231330   2.656   0.918   0.575 -0.1939  0.0676 -0.6701
 3232TIP3    H131331   2.658   0.972   0.653 -0.1048 -1.4523  0.4299
 3232TIP3    H231332   2.698   0.971   0.507  1.5190  0.6819  0.8068
 3233TIP3   OH231333   6.597   1.887   0.576  0.3751  0.4055  0.1820
 3233TIP3    H131334   6.552   1.809   0.609 -0.0472  0.6499  0.1950
 3233TIP3    H231335   6.588   1.881   0.481  0.3788  0.4162  0.1810
 3234TIP3   OH231336   3.085   5.860   8.043  0.4382 -0.2502  0.3121
 3234TIP3    H131337   3.039   5.810   8.111 -0.3439  3.2638  2.5920
 3234TIP3    H231338   3.029   5.852   7.966 -1.3926 -0.2447  1.5715
 3235TIP3   OH231339   3.693   1.788   2.121  0.3516 -0.1151 -0.6129
 3235TIP3    H131340   3.602   1.801   2.096 -1.1437 -2.2766  2.9783
 3235TIP3    H231341   3.714   1.864   2.175  0.4986  0.0683 -0.9228
 3236TIP3   OH231342   0.055   6.183   8.164  0.0805  0.2517 -0.2850
 3236TIP3    H131343   0.092   6.268   8.186  0.0259 -0.2085  1.7459
 3236TIP3    H231344   0.131   6.131   8.137  0.3060  0.5207 -0.1774
 3237TIP3   OH231345   2.705   4.538   7.741  0.0562  0.5142  0.3403
 3237TIP3    H131346   2.629   4.595   7.729 -2.4113 -3.0014 -3.6335
 3237TIP3    H231347   2.682   4.484   7.817 -0.5333  0.7543  0.3408
 3238TIP3   OH231348   5.312   0.051   0.857  0.1190 -0.2945  0.9822
 3238TIP3    H131349   5.271   0.114   0.797 -1.1396 -1.2235  0.8163
 3238TIP3    H231350   5.364  -0.006   0.800  0.5757  0.0655  1.0323
 3239TIP3   OH231351   4.683   5.090   1.043 -0.3767 -0.5280 -0.0801
 3239TIP3    H131352   4.729   5.139   0.975 -0.1990 -1.1404 -0.4116
 3239TIP3    H231353   4.704   4.998   1.025 -0.3598 -0.7046  0.7825
 3240TIP3   OH231354   2.177   6.126   7.629  0.1569  0.7891  0.1043
 3240TIP3    H131355   2.149   6.047   7.675  0.3062  1.2839  1.0575
 3240TIP3    H231356   2.197   6.095   7.540 -3.8881  0.4916 -0.8919
 3241TIP3   OH231357   2.848   5.168   8.075 -0.3659 -0.2698 -0.5488
 3241TIP3    H131358   2.941   5.176   8.094 -0.6886  1.1802  0.5760
 3241TIP3    H231359   2.824   5.252   8.036 -1.0079 -1.0143 -1.8422
 3242TIP3   OH231360   1.829   1.367   8.279 -0.2545 -0.3751 -0.1502
 3242TIP3    H131361   1.739   1.334   8.285 -0.3788  0.0764  0.5834
 3242TIP3    H231362   1.883   1.288   8.279 -0.6953 -0.7850 -2.7083
 3243TIP3   OH231363   6.011   0.129   0.354 -0.1852  0.3508  0.3065
 3243TIP3    H131364   6.105   0.138   0.366 -0.1213 -0.4145  0.4147
 3243TIP3    H231365   5.990   0.190   0.284  0.1216  1.7287  1.3791
 3244TIP3   OH231366   4.325   3.220   8.070  0.5679 -0.1476  0.1227
 3244TIP3    H131367   4.359   3.143   8.115 -1.5780 -1.2554 -0.0523
 3244TIP3    H231368   4.305   3.281   8.141  1.0641 -0.2363  0.3495
 3245TIP3   OH231369   3.847   4.961   0.825  0.0344 -0.0592 -0.6366
 3245TIP3    H131370   3.818   4.871   0.843  0.1553 -0.1534 -0.9029
 3245TIP3    H231371   3.942   4.953   0.813 -0.0038  0.0462 -1.0143
 3246TIP3   OH231372   0.676   0.576   0.957  0.0227  0.9210  0.2668
 3246TIP3    H131373   0.680   0.540   0.868 -1.3521  1.5768 -0.0944
 3246TIP3    H231374   0.635   0.506   1.008  1.3771  0.3030  0.5395
 3247TIP3   OH231375   6.257   3.537   7.221  0.3585  0.2919 -0.1835
 3247TIP3    H131376   6.338   3.505   7.262  0.8734  1.2676 -0.3994
 3247TIP3    H231377   6.187   3.492   7.268  1.0081 -0.1949  0.3476
 3248TIP3   OH231378   2.063   0.471   7.325  0.4440  0.1561  0.8173
 3248TIP3    H131379   2.043   0.560   7.354  0.9934  0.1692  1.1694
 3248TIP3    H231380   1.993   0.417   7.364  0.5587  0.3261  1.2682
 3249TIP3   OH231381   1.856   0.229   7.023 -0.2171 -0.7634 -0.4296
 3249TIP3    H131382   1.849   0.268   6.936 -0.9334 -1.6154 -0.7676
 3249TIP3    H231383   1.933   0.271   7.062 -0.3417  0.1978 -1.1693
 3250TIP3   OH231384   3.091   1.274   1.108  0.1587  0.0143 -0.1599
 3250TIP3    H131385   3.073   1.223   1.187 -0.2214  0.1413 -0.1652
 3250TIP3    H231386   3.132   1.355   1.141 -1.3933  0.7579  0.0421
 3251TIP3   OH231387   0.997   4.573   1.203 -0.0488 -0.0019 -0.0999
 3251TIP3    H131388   1.079   4.546   1.163 -0.5278 -1.0222 -0.4318
 3251TIP3    H231389   0.930   4.529   1.151 -0.7091 -0.9418  1.4901
 3252TIP3   OH231390   5.942   6.172   0.036  0.5448  0.2962  0.1241
 3252TIP3    H131391   5.985   6.098   0.080  1.9066  2.0629  1.9580
 3252TIP3    H231392   6.012   6.211  -0.017  0.1346  0.9260  0.0455
 3253TIP3   OH231393   3.409   0.441   8.242  0.1634 -0.2063  0.0246
 3253TIP3    H131394   3.404   0.358   8.290  0.6206 -1.6680 -2.2530
 3253TIP3    H231395   3.317   0.464   8.225  0.0381 -0.3875  0.4397
 3254TIP3   OH231396   6.003   3.402   0.321 -0.0136  0.1290 -0.6292
 3254TIP3    H131397   5.970   3.483   0.283  0.7573  0.3109 -0.9270
 3254TIP3    H231398   6.042   3.428   0.405 -0.8463 -0.1256 -0.1503
 3255TIP3   OH231399   4.071   6.729   0.386 -0.5681  0.3091  0.1753
 3255TIP3    H131400   3.997   6.680   0.351 -1.6309  1.2860  0.9700
 3255TIP3    H231401   4.097   6.681   0.464 -1.0684  0.5508  0.4930
 3256TIP3   OH231402   0.838   2.219   0.006 -0.1716 -0.3883  0.4633
 3256TIP3    H131403   0.859   2.269   0.084  1.0474  1.1073 -0.7572
 3256TIP3    H231404   0.746   2.193   0.018  0.1652 -0.7499  2.6320
 3257TIP3   OH231405   0.410   0.806   8.495 -0.3971  0.1209 -0.5281
 3257TIP3    H131406   0.392   0.778   8.405 -2.1546 -2.5001  0.4978
 3257TIP3    H231407   0.385   0.899   8.497 -2.1735 -0.2382 -2.3225
 3258TIP3   OH231408   5.873   1.863   0.699  0.4744 -0.2779  0.3174
 3258TIP3    H131409   5.826   1.781   0.717 -1.7372  0.3579 -2.0685
 3258TIP3    H231410   5.814   1.932   0.728  0.5869  0.5228 -1.2715
 3259TIP3   OH231411   4.773   5.702   6.819 -0.4818 -0.4672 -0.5373
 3259TIP3    H131412   4.783   5.732   6.910  2.0069  1.5047 -1.3395
 3259TIP3    H231413   4.851   5.736   6.774 -0.5944 -3.1017 -2.9956
 3260TIP3   OH231414   4.988   4.798   2.669  0.0309 -0.1072 -0.0818
 3260TIP3    H131415   4.961   4.886   2.645  0.7578 -0.4893 -2.7093
 3260TIP3    H231416   5.084   4.800   2.664  0.0327 -1.2067 -1.0121
 3261TIP3   OH231417   3.798   6.836   0.462  0.1619 -0.3130  0.2628
 3261TIP3    H131418   3.816   6.749   0.428 -1.3680 -0.3270 -0.5937
 3261TIP3    H231419   3.853   6.843   0.540 -0.0595 -2.2258  0.6368
 3262TIP3   OH231420   5.086   2.726   2.317 -0.0001  0.2108  0.4423
 3262TIP3    H131421   5.062   2.687   2.402  3.0831 -0.2161  1.2490
 3262TIP3    H231422   5.116   2.652   2.264  1.8407  0.8707  0.4636
 3263TIP3   OH231423   4.765   4.649   1.271  0.2757 -0.0522  0.1907
 3263TIP3    H131424   4.834   4.710   1.245  1.3724 -1.5004 -0.5123
 3263TIP3    H231425   4.793   4.617   1.357 -0.3134  0.4414  0.5731
 3264TIP3   OH231426   4.685   2.306   0.368  0.3520  0.2685  0.0715
 3264TIP3    H131427   4.606   2.342   0.327 -0.0089  1.1534  1.4920
 3264TIP3    H231428   4.723   2.380   0.415  1.1532 -0.5441  0.7134
 3265TIP3   OH231429   6.513   2.090   8.140  0.3407 -0.0002 -0.4130
 3265TIP3    H131430   6.450   2.158   8.117 -0.8294 -0.7677  0.3817
 3265TIP3    H231431   6.533   2.106   8.232 -0.6435 -1.2070  0.0482
 3266TIP3   OH231432   4.820   5.418   1.611 -0.3815  0.0114  0.8272
 3266TIP3    H131433   4.838   5.442   1.701  0.0658 -1.4783  1.1659
 3266TIP3    H231434   4.835   5.323   1.608  0.3588  0.1417 -0.9761
 3267TIP3   OH231435   0.330   5.843   1.146 -0.4325  0.0192 -0.3544
 3267TIP3    H131436   0.377   5.885   1.073  0.6626 -0.5229  0.0139
 3267TIP3    H231437   0.389   5.773   1.175 -1.1613 -0.2165  0.6057
 3268TIP3   OH231438   1.561   5.034   0.358  0.6557 -0.6067 -0.0284
 3268TIP3    H131439   1.475   5.055   0.395  0.8581  0.1908 -0.0011
 3268TIP3    H231440   1.541   4.991   0.274  0.2291  0.9183 -0.7456
 3269TIP3   OH231441   1.217   6.641   2.421 -0.0033 -0.5031 -0.2248
 3269TIP3    H131442   1.251   6.553   2.401  0.9373 -0.6163  1.6787
 3269TIP3    H231443   1.123   6.628   2.429  0.2341 -1.6055  1.1783
 3270TIP3   OH231444   5.757   4.801   7.577  1.1127  0.0186 -0.0438
 3270TIP3    H131445   5.761   4.707   7.559  2.6112  0.1177 -0.3890
 3270TIP3    H231446   5.741   4.807   7.671 -1.2453 -0.5432 -0.3604
 3271TIP3   OH231447   3.605   2.408   0.701  0.1096  0.2510  0.6944
 3271TIP3    H131448   3.526   2.355   0.686 -0.3219  1.2797 -1.0179
 3271TIP3    H231449   3.662   2.386   0.627 -0.5555  2.9158 -0.7421
 3272TIP3   OH231450   4.888   6.202   0.000 -0.3734  0.8620 -0.1295
 3272TIP3    H131451   4.968   6.256   0.000 -0.1973  0.6120  0.5511
 3272TIP3    H231452   4.839   6.232   0.077  0.2298 -0.6662  0.8939
 3273TIP3   OH231453   2.476   4.611   0.425  0.3583  0.8004  0.3502
 3273TIP3    H131454   2.554   4.583   0.377  0.3488 -1.6063  1.5755
 3273TIP3    H231455   2.408   4.548   0.399 -0.7648  1.9072  0.4873
 3274TIP3   OH231456   4.035   2.218   2.262 -0.0474  0.4462  0.4145
 3274TIP3    H131457   4.093   2.268   2.320 -0.7581 -1.0581  2.5443
 3274TIP3    H231458   3.947   2.236   2.294 -0.5114 -0.0362 -0.5423
 3275TIP3   OH231459   4.247   0.828   1.323  0.3306 -0.8966  0.2870
 3275TIP3    H131460   4.302   0.906   1.334 -1.0911 -0.0296  1.7054
 3275TIP3    H231461   4.254   0.807   1.230  3.0311 -0.8444  0.4042
 3276TIP3   OH231462   1.030   0.899   0.624 -0.1264 -0.3546  0.2693
 3276TIP3    H131463   0.993   0.955   0.693  0.1255 -0.6290  0.6305
 3276TIP3    H231464   1.079   0.832   0.672  0.3528 -0.3354 -0.1877
 3277TIP3   OH231465   6.081   4.674   0.645  0.3006 -0.2657 -0.1630
 3277TIP3    H131466   6.103   4.767   0.647 -1.1333  0.1215 -0.8100
 3277TIP3    H231467   6.126   4.641   0.567 -1.3547  0.5302 -1.5274
 3278TIP3   OH231468   3.250   6.047   0.613  0.2269  0.1701 -0.1647
 3278TIP3    H131469   3.209   6.019   0.531  1.2014  0.3601 -0.7321
 3278TIP3    H231470   3.318   5.981   0.629 -0.0289  0.0725  0.5584
 3279TIP3   OH231471   5.219   5.516   0.546 -0.2457  0.2077  0.3080
 3279TIP3    H131472   5.130   5.483   0.551 -0.2087  0.0701  0.1024
 3279TIP3    H231473   5.256   5.473   0.469  0.6023 -1.1970  1.4477
 3280TIP3   OH231474   0.250   5.379   7.491 -0.2573 -0.0657  0.5984
 3280TIP3    H131475   0.327   5.433   7.510 -1.3501  1.1029  1.9945
 3280TIP3    H231476   0.211   5.361   7.576 -2.0174  0.1516 -0.0999
 3281TIP3   OH231477   5.032   2.223   1.623 -0.5085  0.0899  0.1432
 3281TIP3    H131478   5.047   2.193   1.533  1.3779 -0.5870  0.6291
 3281TIP3    H231479   4.937   2.221   1.634 -1.0025  2.4921 -2.5818
 3282TIP3   OH231480   5.418   3.304   1.324 -0.4567 -0.3641 -0.2125
 3282TIP3    H131481   5.329   3.336   1.330 -1.4582 -3.0556  0.8283
 3282TIP3    H231482   5.461   3.335   1.403 -1.8512 -2.5890  1.5631
 3283TIP3   OH231483   0.570   6.829   0.029  0.1946 -0.4689  0.1995
 3283TIP3    H131484   0.556   6.854   0.120  0.3135 -1.5059  0.5219
 3283TIP3    H231485   0.485   6.797  -0.001 -0.5037  2.1448 -0.8565
 3284TIP3   OH231486   4.262   5.057   7.143 -0.3371  0.5160 -0.0436
 3284TIP3    H131487   4.249   5.151   7.141 -0.5814  0.4788 -0.2133
 3284TIP3    H231488   4.303   5.036   7.059  2.4723  0.8666  1.1424
 3285TIP3   OH231489   0.985   3.439   1.124 -0.5356 -0.2459  0.2374
 3285TIP3    H131490   0.908   3.444   1.180  0.0882 -1.1630  1.2117
 3285TIP3    H231491   0.951   3.452   1.036 -2.1372 -2.7376  0.4023
 3286TIP3   OH231492   1.931   5.770   6.867  0.6671 -0.5195  0.1641
 3286TIP3    H131493   1.980   5.839   6.910 -0.4644  1.5977 -1.7099
 3286TIP3    H231494   1.997   5.721   6.817  1.4316 -0.5788  1.2096
 3287TIP3   OH231495   5.430   0.713   7.579 -0.1211  0.3751  0.5513
 3287TIP3    H131496   5.424   0.630   7.533 -1.1140  0.2331  0.9245
 3287TIP3    H231497   5.521   0.715   7.611  0.1584 -0.1694 -0.1726
 3288TIP3   OH231498   1.240   3.984   1.937 -0.2377  0.0148  0.1849
 3288TIP3    H131499   1.227   3.901   1.982 -1.0207  0.3360  0.5535
 3288TIP3    H231500   1.280   4.041   2.003  0.4691 -0.1125 -0.1203
 3289TIP3   OH231501   1.369   0.507   1.854 -0.0424 -0.5340  0.1141
 3289TIP3    H131502   1.432   0.443   1.890  0.3504 -0.0677  0.2666
 3289TIP3    H231503   1.297   0.453   1.822 -0.0430 -1.0175  0.8946
 3290TIP3   OH231504   2.165   0.356   0.710  0.3591  0.0584 -0.3561
 3290TIP3    H131505   2.137   0.266   0.726 -2.1014  0.7428 -0.2708
 3290TIP3    H231506   2.099   0.409   0.755  0.3355  1.9150 -2.4108
 3291TIP3   OH231507   4.807   2.068   1.177 -0.0225 -0.4193 -0.1415
 3291TIP3    H131508   4.805   1.993   1.119  0.5576 -1.2774  0.9157
 3291TIP3    H231509   4.870   2.045   1.245 -1.2869  0.1936  1.3036
 3292TIP3   OH231510   2.417   5.918   1.764  0.4725  0.4559  0.2752
 3292TIP3    H131511   2.477   5.932   1.691  1.0985 -1.3416  0.4032
 3292TIP3    H231512   2.462   5.955   1.840  0.8158  0.3408  0.1293
 3293TIP3   OH231513   6.861   2.068   0.740 -0.6664  0.0231  0.1543
 3293TIP3    H131514   6.833   2.115   0.662 -1.2564 -0.2529  0.1991
 3293TIP3    H231515   6.956   2.059   0.730 -0.7368  0.0166 -0.5121
 3294TIP3   OH231516   6.521   0.135   6.737  0.4336  1.0346  0.5518
 3294TIP3    H131517   6.517   0.131   6.641  1.6864  0.5161  0.4960
 3294TIP3    H231518   6.432   0.155   6.764 -0.2334 -0.1126 -0.6699
 3295TIP3   OH231519   0.243   1.142   6.636  0.0859  0.1457 -0.8513
 3295TIP3    H131520   0.149   1.129   6.628  0.1546 -0.4303 -0.7964
 3295TIP3    H231521   0.281   1.055   6.620  0.5610  0.2190 -0.1715
 3296TIP3   OH231522   3.008   3.208   0.705  0.4683  0.4560  0.4515
 3296TIP3    H131523   3.066   3.256   0.646 -1.2650  2.2375  0.0932
 3296TIP3    H231524   2.985   3.129   0.656  0.3678  1.1092 -0.5832
 3297TIP3   OH231525   3.966   5.585   7.803  0.0779 -0.0453  0.1457
 3297TIP3    H131526   4.056   5.557   7.818 -0.1243 -1.2830 -0.8220
 3297TIP3    H231527   3.962   5.609   7.711  0.1782  3.1123  0.8554
 3298TIP3   OH231528   5.494   6.376   2.268  0.8936  0.3213  0.2750
 3298TIP3    H131529   5.492   6.375   2.172 -0.4983  0.3177  0.2783
 3298TIP3    H231530   5.436   6.449   2.292  0.5605 -0.2064  1.1209
 3299TIP3   OH231531   6.466   6.201   0.069  0.0664 -0.0898 -0.0316
 3299TIP3    H131532   6.492   6.109   0.075  0.5749  0.0959  1.1323
 3299TIP3    H231533   6.371   6.201   0.080 -0.1421 -0.5878 -1.6850
 3300TIP3   OH231534   3.697   3.566   6.739  0.1772 -0.1056  0.2753
 3300TIP3    H131535   3.773   3.523   6.701  0.4814  1.1578 -0.5868
 3300TIP3    H231536   3.728   3.598   6.824  0.5425  0.2411  0.0091
 3301TIP3   OH231537   6.880   2.973   1.890 -0.6964  0.1255 -0.3544
 3301TIP3    H131538   6.801   2.935   1.928 -0.3556 -0.9329 -0.6683
 3301TIP3    H231539   6.925   2.899   1.849 -0.7117  1.0944 -2.2511
 3302TIP3   OH231540   5.370   1.569   8.214  0.1030 -0.2688  0.0077
 3302TIP3    H131541   5.444   1.509   8.221 -0.0964 -0.3711  2.0292
 3302TIP3    H231542   5.350   1.592   8.305 -0.5896  1.9282 -0.6408
 3303TIP3   OH231543   5.933   1.348   0.960 -0.0067 -0.0124 -0.3565
 3303TIP3    H131544   5.917   1.407   1.034  0.7766 -0.4144  0.1364
 3303TIP3    H231545   6.019   1.374   0.927 -0.0830 -0.2465 -0.7395
 3304TIP3   OH231546   1.681   2.337   0.096  0.0350  0.1473 -0.2545
 3304TIP3    H131547   1.599   2.370   0.134 -0.5378  0.1411 -1.4382
 3304TIP3    H231548   1.741   2.411   0.098  0.3458 -0.1140  1.5183
 3305TIP3   OH231549   0.127   3.839   6.825 -0.3758 -0.4964  0.0202
 3305TIP3    H131550   0.103   3.756   6.783  0.2077 -0.8394  0.3482
 3305TIP3    H231551   0.199   3.873   6.771 -0.7875 -0.0679 -0.2670
 3306TIP3   OH231552   6.575   5.080   1.785  0.2450 -0.6439  0.2202
 3306TIP3    H131553   6.563   5.162   1.736 -2.1985 -1.3037 -0.3917
 3306TIP3    H231554   6.578   5.108   1.876  2.4900  0.3726 -0.0946
 3307TIP3   OH231555   4.977   4.040   2.005 -0.3967  0.3287 -0.4507
 3307TIP3    H131556   4.887   4.044   1.971 -0.7477  1.6198  0.5864
 3307TIP3    H231557   4.968   4.008   2.094  0.3145 -0.7380 -0.7386
 3308TIP3   OH231558   1.270   2.984   0.804 -0.0614  0.5614 -0.0403
 3308TIP3    H131559   1.268   2.957   0.712 -0.5865 -1.0633  0.4180
 3308TIP3    H231560   1.363   2.994   0.824  0.1368 -0.4503 -0.3876
 3309TIP3   OH231561   0.179   4.078   0.118 -0.4431  0.1053  0.1103
 3309TIP3    H131562   0.199   4.152   0.175 -1.7848  0.5146  0.0756
 3309TIP3    H231563   0.197   4.001   0.172 -0.6564  0.4749  0.7247
 3310TIP3   OH231564   2.657   6.847   7.307 -0.1724  0.3020  0.1306
 3310TIP3    H131565   2.605   6.770   7.285  1.8421 -1.2603  0.5959
 3310TIP3    H231566   2.739   6.812   7.343  1.3167  2.6395 -0.7429
 3311TIP3   OH231567   2.178   2.844   0.193 -0.4547  0.1757  0.3731
 3311TIP3    H131568   2.083   2.839   0.179 -0.8756 -1.5036  2.9967
 3311TIP3    H231569   2.200   2.758   0.230  2.5167 -0.2820 -2.1353
 3312TIP3   OH231570   4.776   5.876   7.543  0.2669 -0.3204 -0.3006
 3312TIP3    H131571   4.768   5.823   7.622  0.8851  0.3751  0.2448
 3312TIP3    H231572   4.735   5.959   7.565 -0.2472 -0.3817 -0.9805
 3313TIP3   OH231573   3.293   1.930   0.582 -0.0618 -0.0145 -0.3540
 3313TIP3    H131574   3.383   1.916   0.613  0.0584 -1.4105 -1.2819
 3313TIP3    H231575   3.299   1.924   0.487 -1.4863 -2.4312 -0.3551
 3314TIP3   OH231576   2.604   0.314   8.005 -0.5390 -0.3309  0.1251
 3314TIP3    H131577   2.656   0.266   8.070 -0.9310 -0.7151  0.1635
 3314TIP3    H231578   2.538   0.360   8.056  0.6562  1.3530  0.2087
 3315TIP3   OH231579   3.166   1.305   8.411  0.6537 -0.4226 -0.2157
 3315TIP3    H131580   3.112   1.292   8.333  0.0064 -1.0271  0.3251
 3315TIP3    H231581   3.230   1.234   8.408  0.0724 -0.9805  0.2565
 3316TIP3   OH231582   4.998   3.620   0.454  0.1688  0.2478  0.4075
 3316TIP3    H131583   5.057   3.643   0.526 -2.1435  1.6319  1.9928
 3316TIP3    H231584   4.911   3.620   0.493 -1.1587  0.5868 -2.3013
 3317TIP3   OH231585   6.948   5.509   2.204 -0.2048  0.4273  0.3989
 3317TIP3    H131586   6.990   5.588   2.238 -0.5164  0.9825 -0.4807
 3317TIP3    H231587   7.014   5.440   2.216  1.2794  1.3928 -1.5520
 3318TIP3   OH231588   4.770   2.359   0.656 -0.1517 -0.5320  0.6824
 3318TIP3    H131589   4.849   2.384   0.703  1.7661 -0.8913 -2.1257
 3318TIP3    H231590   4.769   2.415   0.578 -2.5357 -0.7340  0.4963
 3319TIP3   OH231591   0.854   4.862   0.189 -0.7360  0.3929 -0.0143
 3319TIP3    H131592   0.869   4.903   0.104 -2.1390  1.8273  0.3795
 3319TIP3    H231593   0.903   4.916   0.251 -0.4600 -0.1115  0.2222
 3320TIP3   OH231594   6.455   5.956   7.804 -0.1927 -0.0721  0.3030
 3320TIP3    H131595   6.488   5.893   7.740  1.0487  0.6890  0.1569
 3320TIP3    H231596   6.362   5.934   7.814 -0.3084 -0.4910 -1.4156
 3321TIP3   OH231597   2.504   4.489   2.250  0.2034  0.2510  0.4519
 3321TIP3    H131598   2.444   4.501   2.323  0.1504  0.9557  0.2964
 3321TIP3    H231599   2.550   4.573   2.242 -1.4007  1.0312 -1.7849
 3322TIP3   OH231600   5.848   5.030   8.558 -1.0748 -0.0463  0.2729
 3322TIP3    H131601   5.914   5.097   8.539 -0.8299 -0.2010  0.5750
 3322TIP3    H231602   5.777   5.049   8.497 -0.5978 -0.1020 -0.3058
 3323TIP3   OH231603   0.626   0.983   7.183 -0.0349  0.2631  0.0886
 3323TIP3    H131604   0.686   1.037   7.235  1.0639  0.2109 -1.0792
 3323TIP3    H231605   0.552   0.967   7.242  0.6129  1.1985  1.2154
 3324TIP3   OH231606   5.978   3.357   0.941  0.1601  0.4072 -0.1563
 3324TIP3    H131607   5.896   3.307   0.944  0.2136  0.3565  0.4949
 3324TIP3    H231608   5.988   3.392   1.029  1.7051 -0.9699  0.2655
 3325TIP3   OH231609   2.904   6.002   8.382 -0.0749 -0.2838  0.8383
 3325TIP3    H131610   2.952   6.080   8.411  0.4723  0.2124 -1.2188
 3325TIP3    H231611   2.903   5.945   8.459  5.6920 -1.2426  0.6583
 3326TIP3   OH231612   0.746   2.280   7.332 -0.4372  0.0601  0.0362
 3326TIP3    H131613   0.818   2.292   7.394 -1.2587  1.6524  0.7538
 3326TIP3    H231614   0.708   2.196   7.356  0.2055 -0.0625  0.6832
 3327TIP3   OH231615   5.026   5.793   6.754 -0.0408  0.1973 -0.9433
 3327TIP3    H131616   5.110   5.806   6.709  1.5110 -0.6320  1.5157
 3327TIP3    H231617   5.046   5.809   6.846 -2.7654  0.5657 -0.3454
 3328TIP3   OH231618   1.692   2.742   8.573  0.3418 -0.4510  0.2678
 3328TIP3    H131619   1.706   2.728   8.667  1.4443  2.2463  0.6120
 3328TIP3    H231620   1.666   2.834   8.567 -1.9501 -1.1212 -1.9195
 3329TIP3   OH231621   1.787   5.150   7.276  0.0547 -0.1326  0.0139
 3329TIP3    H131622   1.791   5.056   7.261  0.9794 -0.1885  0.5811
 3329TIP3    H231623   1.794   5.189   7.188  0.6585 -0.5720 -0.1364
 3330TIP3   OH231624   2.968   2.404   7.909 -0.1001  0.0668  0.3425
 3330TIP3    H131625   2.904   2.472   7.891 -0.4102  0.1102  1.4784
 3330TIP3    H231626   2.936   2.327   7.861 -2.8082 -0.8523  3.2090
 3331TIP3   OH231627   0.818   3.441   0.291  0.3306  0.5524 -0.0246
 3331TIP3    H131628   0.727   3.420   0.269  0.6856  1.4098 -2.7859
 3331TIP3    H231629   0.865   3.359   0.281  0.2178  0.6073 -1.1921
 3332TIP3   OH231630   1.145   6.796   1.194 -0.3848  0.6468 -0.4877
 3332TIP3    H131631   1.153   6.723   1.256  2.8564  1.7798  0.6417
 3332TIP3    H231632   1.072   6.847   1.227 -1.2064 -0.8238  0.0808
 3333TIP3   OH231633   4.149   0.959   8.392  0.7957 -0.6132  0.0557
 3333TIP3    H131634   4.149   0.940   8.486  0.6620  0.7090  0.3428
 3333TIP3    H231635   4.056   0.962   8.368  0.8187 -0.5243 -0.0217
 3334TIP3   OH231636   4.416   1.247   0.683 -0.0966  0.4801  0.3627
 3334TIP3    H131637   4.340   1.193   0.705  0.4385  0.2008  1.6341
 3334TIP3    H231638   4.428   1.234   0.589 -1.4157  0.2772  0.1944
 3335TIP3   OH231639   3.701   6.600   0.612  0.0897 -0.0342  0.2407
 3335TIP3    H131640   3.757   6.664   0.655 -1.7604  1.7339  0.1539
 3335TIP3    H231641   3.762   6.537   0.572  1.9224  0.8053  1.5959
 3336TIP3   OH231642   4.349   3.954   8.085 -0.1791 -0.3031  0.2307
 3336TIP3    H131643   4.300   4.030   8.117  2.2734  1.2392  0.5543
 3336TIP3    H231644   4.432   3.989   8.054  0.6819 -2.7629 -0.5173
 3337TIP3   OH231645   4.103   6.680   1.501 -0.2661 -0.3403 -0.7595
 3337TIP3    H131646   4.139   6.662   1.588 -0.4891  1.6482 -0.2225
 3337TIP3    H231647   4.076   6.594   1.469 -1.4123 -0.9817  1.6897
 3338TIP3   OH231648   5.157   2.921   1.556  0.2188 -0.3072 -0.1137
 3338TIP3    H131649   5.144   2.827   1.570  1.0261 -0.2054  1.5571
 3338TIP3    H231650   5.252   2.932   1.552  0.1461  0.5072  0.2291
 3339TIP3   OH231651   2.412   0.118   8.022 -0.5182 -0.2640  0.0670
 3339TIP3    H131652   2.469   0.185   7.983 -1.9911  0.1529 -1.5110
 3339TIP3    H231653   2.445   0.035   7.988  1.2697 -0.3893  1.9679
 3340TIP3   OH231654   2.005   3.136   0.002 -0.3359  0.3930  0.9861
 3340TIP3    H131655   2.049   3.219   0.021 -0.2457  0.1176  2.0622
 3340TIP3    H231656   2.077   3.075  -0.017 -0.4419  0.7888 -0.9158
 3341TIP3   OH231657   6.317   0.950   0.528 -0.1645 -0.0836  0.5772
 3341TIP3    H131658   6.244   0.900   0.563 -0.7137  0.8996  0.8544
 3341TIP3    H231659   6.393   0.921   0.579 -0.4424 -0.7269  0.6348
 3342TIP3   OH231660   0.603   4.863   7.260 -0.1048  0.0924 -0.4125
 3342TIP3    H131661   0.597   4.768   7.259 -0.5857  0.1256 -0.5587
 3342TIP3    H231662   0.516   4.893   7.287  0.0320  0.4908 -0.4056
 3343TIP3   OH231663   5.296   4.058   8.336  0.0377  0.5863  0.1825
 3343TIP3    H131664   5.267   3.973   8.369 -1.0092  0.2118 -1.5966
 3343TIP3    H231665   5.328   4.040   8.248  1.3185  1.7920  0.3709
 3344TIP3   OH231666   5.524   3.647   7.037  0.4536 -0.4785 -0.4177
 3344TIP3    H131667   5.611   3.611   7.025  1.0027  0.9902 -1.0998
 3344TIP3    H231668   5.538   3.736   7.068 -0.8717 -0.9698  1.8192
 3345TIP3   OH231669   2.149   5.206   1.204  0.1071 -0.3834 -0.3200
 3345TIP3    H131670   2.152   5.188   1.110  1.8867 -0.3315 -0.2995
 3345TIP3    H231671   2.237   5.184   1.235 -0.4970 -0.5067  1.3579
 3346TIP3   OH231672   3.552   6.633   6.606  0.2399 -0.0428 -0.0082
 3346TIP3    H131673   3.502   6.604   6.529  0.0510 -0.8292  0.4023
 3346TIP3    H231674   3.487   6.679   6.659  0.2191 -0.0562 -0.0211
 3347TIP3   OH231675   1.518   6.807   7.053  0.5104  0.5983  0.1402
 3347TIP3    H131676   1.459   6.866   7.006 -0.6988 -1.6657 -1.3052
 3347TIP3    H231677   1.586   6.865   7.087 -1.3218  3.0056 -0.0269
 3348TIP3   OH231678   5.039   6.326   1.090  0.2066  0.3004 -0.4200
 3348TIP3    H131679   5.129   6.296   1.074 -0.0563 -0.6610 -0.1634
 3348TIP3    H231680   5.049   6.419   1.111  1.0420  0.4413 -1.3336
 3349TIP3   OH231681   3.763   5.631   8.579 -0.6228 -0.3287 -0.3241
 3349TIP3    H131682   3.791   5.721   8.594 -0.7085 -0.0779 -1.5704
 3349TIP3    H231683   3.777   5.616   8.486 -0.8996 -1.5110 -0.2019
 3350TIP3   OH231684   6.018   6.606   8.301 -0.3675 -0.3610  0.5288
 3350TIP3    H131685   6.013   6.589   8.396  1.4487 -1.2916  0.4948
 3350TIP3    H231686   6.092   6.667   8.291 -0.5044 -0.3199 -0.2996
 3351TIP3   OH231687   6.014   4.780   7.439 -0.2983  0.3226  0.1533
 3351TIP3    H131688   6.011   4.734   7.356  1.2255  0.1851  0.1587
 3351TIP3    H231689   5.937   4.748   7.487 -0.7918 -0.1239 -0.9069
 3352TIP3   OH231690   0.446   2.058   0.645 -0.2203 -0.0815  0.0965
 3352TIP3    H131691   0.432   2.116   0.570  1.0197  1.0166  0.6855
 3352TIP3    H231692   0.538   2.033   0.639 -0.3768 -0.8503  0.6706
 3353TIP3   OH231693   0.243   0.406   1.168  0.1960 -0.2415 -0.3173
 3353TIP3    H131694   0.189   0.455   1.105  2.3215  1.3819 -1.0096
 3353TIP3    H231695   0.223   0.315   1.151 -1.5006  0.2758 -1.2890
 3354TIP3   OH231696   6.262   3.785   1.018 -0.1150  0.2171 -0.6105
 3354TIP3    H131697   6.198   3.835   1.069 -0.9110  1.3991 -2.6174
 3354TIP3    H231698   6.227   3.787   0.928  1.5749 -1.1095 -1.3504
 3355TIP3   OH231699   1.257   6.041   7.003 -0.1947 -0.0126 -0.6232
 3355TIP3    H131700   1.312   5.973   7.044  1.1935  1.0993 -0.5437
 3355TIP3    H231701   1.212   6.082   7.077 -0.3004 -0.2238 -0.5694
 3356TIP3   OH231702   2.660   2.178   1.809  0.3213 -0.3193  0.0625
 3356TIP3    H131703   2.565   2.194   1.808  0.3719 -0.0177 -0.2830
 3356TIP3    H231704   2.677   2.140   1.895 -0.0428  0.0733  0.3113
 3357TIP3   OH231705   6.849   5.025   1.268 -0.1740 -0.1724 -0.2518
 3357TIP3    H131706   6.798   5.001   1.346  0.6818  1.4497  0.8644
 3357TIP3    H231707   6.797   5.093   1.225  0.4978  0.6876  0.2767
 3358TIP3   OH231708   1.344   1.326   2.113 -0.5228 -0.4353 -0.5368
 3358TIP3    H131709   1.261   1.280   2.122  0.7537 -2.7414  0.1336
 3358TIP3    H231710   1.354   1.373   2.197 -0.4415 -1.4074  0.0085
 3359TIP3   OH231711   4.533   3.449   6.768 -0.0951  0.2389  0.9369
 3359TIP3    H131712   4.488   3.385   6.822 -1.8471  1.2341  0.7288
 3359TIP3    H231713   4.477   3.527   6.771  0.8044  1.0001 -0.6614
 3360TIP3   OH231714   5.227   4.250   1.131 -0.3300 -0.2880  0.2631
 3360TIP3    H131715   5.262   4.176   1.082  0.2325  0.2091 -0.1058
 3360TIP3    H231716   5.245   4.326   1.076  1.7209  0.5001  1.8830
 3361TIP3   OH231717   4.561   4.708   6.389 -0.1765 -0.0772  0.1090
 3361TIP3    H131718   4.508   4.699   6.309 -0.2276  0.3629  0.0909
 3361TIP3    H231719   4.563   4.802   6.406 -0.4983 -0.1983  0.8535
 3362TIP3   OH231720   3.325   2.438   8.365  0.4669  0.1828 -0.1958
 3362TIP3    H131721   3.328   2.384   8.444 -1.9312 -0.7920 -0.6861
 3362TIP3    H231722   3.301   2.525   8.396 -0.3023 -0.1591  0.1848
 3363TIP3   OH231723   0.131   1.078   0.015 -0.2145  0.3694 -0.1526
 3363TIP3    H131724   0.101   0.999   0.060 -1.6379 -0.3495 -2.2129
 3363TIP3    H231725   0.050   1.119  -0.016  0.6389  1.4723 -0.9710
 3364TIP3   OH231726   2.874   6.824   0.009  0.3422  0.1373  0.2081
 3364TIP3    H131727   2.916   6.851  -0.073 -0.1528 -0.1148 -0.1297
 3364TIP3    H231728   2.881   6.728   0.009 -0.6195  0.0592 -0.0661
 3365TIP3   OH231729   6.258   1.348   0.646 -0.3328  0.2386  0.0131
 3365TIP3    H131730   6.269   1.419   0.708  1.2653 -0.3515  0.4560
 3365TIP3    H231731   6.166   1.323   0.654 -0.4909  1.0991  1.1162
 3366TIP3   OH231732   6.224   5.449   0.691  0.2815 -0.2256  0.8866
 3366TIP3    H131733   6.299   5.417   0.741  1.1649  0.3264 -0.0494
 3366TIP3    H231734   6.175   5.370   0.669  0.4416 -0.5685  1.7057
 3367TIP3   OH231735   6.644   1.396   7.618 -0.3448 -0.1416 -0.1563
 3367TIP3    H131736   6.583   1.465   7.593  1.1118  1.3015  0.1261
 3367TIP3    H231737   6.659   1.347   7.537 -0.1102  0.9124 -0.7636
 3368TIP3   OH231738   2.009   5.894   7.743 -0.0626 -0.5245  0.0535
 3368TIP3    H131739   1.962   5.952   7.802 -1.2820 -1.9379  0.5350
 3368TIP3    H231740   1.969   5.808   7.757  0.4394 -1.1357 -1.9612
 3369TIP3   OH231741   4.266   2.167   0.623 -0.0308  0.0886 -0.3999
 3369TIP3    H131742   4.328   2.116   0.572  3.6102  2.3212  1.4085
 3369TIP3    H231743   4.249   2.113   0.701  0.6287 -0.0265 -0.3344
 3370TIP3   OH231744   2.854   0.345   6.954 -0.4192  0.0870  0.2158
 3370TIP3    H131745   2.894   0.431   6.967 -0.2033 -0.0091  0.1965
 3370TIP3    H231746   2.847   0.309   7.042  0.1777 -0.1791  0.1606
 3371TIP3   OH231747   4.093   2.502   1.735 -0.1963 -0.1000  0.0027
 3371TIP3    H131748   4.173   2.548   1.762 -1.7704  2.1225  1.1367
 3371TIP3    H231749   4.102   2.415   1.775  2.2514 -0.4490 -1.0915
 3372TIP3   OH231750   1.389   1.435   2.362  0.2470  0.1717  0.2547
 3372TIP3    H131751   1.314   1.405   2.413  0.0185 -2.0267 -1.2084
 3372TIP3    H231752   1.357   1.512   2.315 -0.6538  0.0979  0.7363
 3373TIP3   OH231753   2.906   0.852   0.300  0.3790 -0.0769  0.0162
 3373TIP3    H131754   2.955   0.842   0.218  0.0008  1.3931 -0.4224
 3373TIP3    H231755   2.892   0.946   0.307  0.0001 -0.2339  1.5513
 3374TIP3   OH231756   2.791   6.904   1.339  0.6760 -0.3473  0.5896
 3374TIP3    H131757   2.742   6.854   1.274  1.0705 -0.0253  0.0400
 3374TIP3    H231758   2.880   6.872   1.332  1.0081  0.6705 -0.0143
 3375TIP3   OH231759   4.861   2.041   2.356  0.2026  0.8727  0.1776
 3375TIP3    H131760   4.803   2.040   2.432  1.2048  0.5569  0.9550
 3375TIP3    H231761   4.944   2.074   2.389  0.0377  2.9329 -1.2571
 3376TIP3   OH231762   2.357   4.302   1.477 -0.1564  0.0460 -0.3917
 3376TIP3    H131763   2.427   4.237   1.473  0.4209  0.7128 -1.7473
 3376TIP3    H231764   2.287   4.265   1.425 -0.0945  0.1964 -0.5829
 3377TIP3   OH231765   2.115   3.312   2.273  0.1290  0.0354  0.2349
 3377TIP3    H131766   2.081   3.320   2.183 -0.5875  2.2887  0.6330
 3377TIP3    H231767   2.052   3.362   2.326  1.0752 -0.4325  1.8458
 3378TIP3   OH231768   4.600   2.475   1.068 -0.1409 -0.2668 -0.0457
 3378TIP3    H131769   4.566   2.471   1.157 -1.8488 -0.5734 -0.6677
 3378TIP3    H231770   4.601   2.568   1.047  2.7189  0.0439  1.1321
 3379TIP3   OH231771   3.873   5.616   1.670  0.0638 -0.1757  0.1126
 3379TIP3    H131772   3.847   5.708   1.680 -0.3836 -0.2792 -0.1032
 3379TIP3    H231773   3.902   5.590   1.758  1.1605  0.4643 -0.0340
 3380TIP3   OH231774   5.660   6.518   8.564  0.2822  0.4771 -0.3655
 3380TIP3    H131775   5.739   6.483   8.523 -1.4233 -3.4287 -0.8872
 3380TIP3    H231776   5.589   6.489   8.506 -1.6840  2.2659  0.9859
 3381TIP3   OH231777   6.358   5.719   6.949  0.1197 -0.2453 -0.1524
 3381TIP3    H131778   6.428   5.766   6.903  2.2890 -1.4252  1.7768
 3381TIP3    H231779   6.318   5.785   7.005  1.1820 -0.0204  0.3625
 3382TIP3   OH231780   1.307   6.687   0.518 -0.1749 -0.5300 -0.4886
 3382TIP3    H131781   1.370   6.616   0.532  1.9877  1.3295 -0.2253
 3382TIP3    H231782   1.285   6.681   0.425  1.2944 -0.5326 -0.8596
 3383TIP3   OH231783   3.314   4.298   1.483  0.1305 -0.0329 -0.3578
 3383TIP3    H131784   3.249   4.298   1.413 -0.0789  0.3965 -0.1687
 3383TIP3    H231785   3.381   4.360   1.452 -1.0257  1.8948  0.7682
 3384TIP3   OH231786   4.398   4.765   6.161 -0.1042 -0.8641 -0.4740
 3384TIP3    H131787   4.395   4.736   6.070 -0.6405  1.1239 -1.1606
 3384TIP3    H231788   4.307   4.764   6.190 -0.0885 -0.3029 -0.3906
 3385TIP3   OH231789   5.914   6.868   8.012 -0.1032 -0.2350  0.1119
 3385TIP3    H131790   5.867   6.794   8.051  0.1798 -0.1281  0.6711
 3385TIP3    H231791   5.964   6.829   7.941 -3.1132  0.0542 -2.3544
 3386TIP3   OH231792   6.449   5.872   0.653  0.2852  0.3675  0.2346
 3386TIP3    H131793   6.378   5.821   0.692  1.3056 -0.5412  0.9681
 3386TIP3    H231794   6.528   5.843   0.700  1.6129 -0.8006 -2.5011
 3387TIP3   OH231795   2.674   0.652   2.318  0.0302 -1.0726 -0.6251
 3387TIP3    H131796   2.673   0.695   2.404 -0.9858 -1.2361 -0.5403
 3387TIP3    H231797   2.719   0.570   2.333 -2.4472 -2.3633  0.4243
 3388TIP3   OH231798   4.003   1.755   8.423  0.7157 -0.3166  0.0839
 3388TIP3    H131799   4.011   1.840   8.466 -0.2700  0.6189 -1.4874
 3388TIP3    H231800   4.083   1.746   8.372 -0.0035  0.5614 -1.2297
 3389TIP3   OH231801   0.125   6.059   1.427 -0.3073  0.9424  0.2225
 3389TIP3    H131802   0.193   6.083   1.364  1.8930 -2.0689  1.2157
 3389TIP3    H231803   0.054   6.024   1.372  0.8482 -0.0553 -0.6895
 3390TIP3   OH231804   0.641   2.075   7.856  0.1852 -0.1470 -0.4246
 3390TIP3    H131805   0.613   2.032   7.938  1.7664 -2.1969 -0.8799
 3390TIP3    H231806   0.713   2.132   7.882 -0.4700  0.5809 -0.1556
 3391TIP3   OH231807   1.392   4.217   2.027  0.5306  0.6417 -0.0803
 3391TIP3    H131808   1.479   4.258   2.025  0.7243  0.2743  0.6393
 3391TIP3    H231809   1.358   4.238   2.114 -0.0800  0.7310 -0.3397
 3392TIP3   OH231810   1.827   0.891   7.728  0.0992 -0.5461 -0.1547
 3392TIP3    H131811   1.830   0.841   7.647  1.6829 -1.1626  0.2502
 3392TIP3    H231812   1.847   0.981   7.702  2.3114 -1.0184 -0.2936
 3393TIP3   OH231813   1.586   3.162   7.160  0.2794 -0.2100  0.2996
 3393TIP3    H131814   1.570   3.249   7.125 -0.4566 -0.9085 -1.1998
 3393TIP3    H231815   1.681   3.154   7.165  0.3462  0.7359  0.6371
 3394TIP3   OH231816   4.624   2.394   1.754 -0.0990 -0.3116  0.9520
 3394TIP3    H131817   4.706   2.384   1.802 -0.2480  2.4253  1.9685
 3394TIP3    H231818   4.648   2.445   1.677 -0.4913 -1.5702 -0.0339
 3395TIP3   OH231819   6.280   5.045   0.564 -0.7764 -0.2949 -0.1828
 3395TIP3    H131820   6.306   5.134   0.543 -0.6377  0.0061  1.1932
 3395TIP3    H231821   6.351   4.990   0.532 -2.0983 -0.2293 -3.6067
 3396TIP3   OH231822   1.725   0.275   0.218 -0.1536 -0.2542 -0.0955
 3396TIP3    H131823   1.760   0.357   0.253  1.2001 -0.7287 -0.2730
 3396TIP3    H231824   1.706   0.294   0.127 -0.7256  0.1136  0.0962
 3397TIP3   OH231825   1.217   3.898   6.680 -0.2987  0.2421  0.0347
 3397TIP3    H131826   1.198   3.992   6.688  0.9388  0.6330 -1.2386
 3397TIP3    H231827   1.295   3.885   6.733  0.2385  0.1948 -0.7535
 3398TIP3   OH231828   5.674   1.339   7.691  0.1422  0.4203 -0.1959
 3398TIP3    H131829   5.598   1.287   7.666  0.2973  0.1598 -0.1297
 3398TIP3    H231830   5.638   1.412   7.741 -0.1358  0.7461 -0.8659
 3399TIP3   OH231831   1.036   1.504   2.214 -0.3862  0.2512  0.3783
 3399TIP3    H131832   1.125   1.538   2.218 -1.3268  2.9107  0.1646
 3399TIP3    H231833   1.029   1.448   2.292  1.6584 -0.7009 -0.0317
 3400TIP3   OH231834   0.062   4.978   6.612  0.2406 -0.1520  0.3764
 3400TIP3    H131835   0.118   5.036   6.560 -1.1984  0.7857 -0.2147
 3400TIP3    H231836   0.081   4.890   6.578  0.9260  0.2089 -0.2088
 3401TIP3   OH231837   6.937   0.063   6.844 -0.4991 -0.3842  0.0786
 3401TIP3    H131838   6.864   0.012   6.807 -1.7597  0.8814  0.7164
 3401TIP3    H231839   6.985   0.096   6.768 -0.1903 -1.7535 -0.3460
 3402TIP3   OH231840   4.059   1.520   2.770 -0.7535 -0.2161 -0.6409
 3402TIP3    H131841   4.100   1.549   2.689 -2.0599  0.8898 -0.9308
 3402TIP3    H231842   4.075   1.425   2.772  2.2822  0.1980 -0.4271
 3403TIP3   OH231843   2.936   6.179   6.271  0.3514 -0.1182  0.1020
 3403TIP3    H131844   2.859   6.176   6.215 -0.9459 -1.6678  1.8374
 3403TIP3    H231845   3.007   6.147   6.216  0.0397  2.1739 -1.8034
 3404TIP3   OH231846   4.910   2.897   8.509  0.2029 -0.2630 -0.5824
 3404TIP3    H131847   4.993   2.896   8.558 -0.3362 -1.4400  0.3869
 3404TIP3    H231848   4.861   2.970   8.546 -0.2814 -1.2672  0.8588
 3405TIP3   OH231849   5.826   1.098   1.787  0.3192  0.3106 -0.4425
 3405TIP3    H131850   5.870   1.096   1.872 -0.6621  0.0807  0.0750
 3405TIP3    H231851   5.896   1.083   1.724  0.7179 -2.1685  0.4680
 3406TIP3   OH231852   3.274   1.830   1.589  0.2332  0.2055 -0.0762
 3406TIP3    H131853   3.243   1.775   1.517  1.5023 -0.4874 -0.1068
 3406TIP3    H231854   3.207   1.898   1.597 -0.5146 -0.3805 -1.1357
 3407TIP3   OH231855   6.540   6.717   1.549  0.0504  0.1564 -0.1854
 3407TIP3    H131856   6.542   6.632   1.505  0.6007 -0.3363  0.7508
 3407TIP3    H231857   6.607   6.709   1.617 -1.8852  0.3152  1.8078
 3408TIP3   OH231858   6.664   1.287   8.201 -0.8680  0.3068 -0.0793
 3408TIP3    H131859   6.616   1.211   8.169  0.2078 -0.4534  0.0691
 3408TIP3    H231860   6.617   1.312   8.281  0.0240 -1.5842  1.1108
 3409TIP3   OH231861   0.963   4.186   7.390  0.7389 -0.2446 -0.0473
 3409TIP3    H131862   0.971   4.126   7.315  2.3014 -2.3405  1.6876
 3409TIP3    H231863   1.047   4.233   7.393 -0.1655  1.5490 -0.8921
 3410TIP3   OH231864   3.377   5.139   6.916  0.3458 -0.6106  0.2564
 3410TIP3    H131865   3.401   5.216   6.865 -0.3694 -0.2034  0.5281
 3410TIP3    H231866   3.339   5.174   6.996  1.2311 -1.2357  0.9842
 3411TIP3   OH231867   1.284   4.213   8.313 -0.3076  0.3772 -0.1547
 3411TIP3    H131868   1.298   4.257   8.397 -1.3634 -1.3845  0.9945
 3411TIP3    H231869   1.360   4.238   8.260  1.1950  0.2997  1.8696
 3412TIP3   OH231870   5.343   3.908   1.198  0.3152 -0.2687  0.0122
 3412TIP3    H131871   5.372   3.828   1.243 -0.4344 -0.0743  0.8972
 3412TIP3    H231872   5.423   3.958   1.183  1.1896 -2.2729 -2.9070
 3413TIP3   OH231873   4.296   6.421   1.422 -0.0701  0.1624  0.2750
 3413TIP3    H131874   4.385   6.415   1.457  0.1698  1.8968  0.0761
 3413TIP3    H231875   4.308   6.426   1.327 -0.3294  0.9642  0.2794
 3414TIP3   OH231876   6.527   4.895   7.990  0.7514 -0.1093  0.0161
 3414TIP3    H131877   6.615   4.902   7.952  0.3782  0.1772 -0.8054
 3414TIP3    H231878   6.508   4.801   7.987  1.1224 -0.2013  0.4202
 3415TIP3   OH231879   2.276   3.423   1.879  0.5469  0.3151 -0.0336
 3415TIP3    H131880   2.231   3.366   1.817 -0.4620  1.2704 -0.2162
 3415TIP3    H231881   2.316   3.364   1.942  1.1633 -0.6685 -1.2877
 3416TIP3   OH231882   0.149   4.582   0.544  0.3179  0.3954  0.1336
 3416TIP3    H131883   0.172   4.494   0.515  1.5619  0.7166  0.1186
 3416TIP3    H231884   0.197   4.641   0.486 -0.5228  1.0977  0.1239
 3417TIP3   OH231885   4.577   0.638   1.273 -0.3809 -0.0484  0.2457
 3417TIP3    H131886   4.649   0.606   1.218  1.0087  3.1497 -0.0139
 3417TIP3    H231887   4.535   0.559   1.306  0.1754 -2.1248 -3.4841
 3418TIP3   OH231888   5.771   0.474   7.733 -0.0818 -0.2350 -0.4680
 3418TIP3    H131889   5.711   0.519   7.793 -0.2763  0.1596 -0.9504
 3418TIP3    H231890   5.769   0.527   7.654 -2.0683 -2.3109 -1.9168
 3419TIP3   OH231891   6.342   5.355   1.048 -0.0158 -0.1695  0.0464
 3419TIP3    H131892   6.415   5.399   1.093 -0.2538  1.2131 -0.8416
 3419TIP3    H231893   6.383   5.280   1.004  0.6914 -0.0024  0.4010
 3420TIP3   OH231894   5.641   6.117   6.478  0.3049  0.1238  0.0531
 3420TIP3    H131895   5.607   6.126   6.566  2.6191 -1.6663  1.2560
 3420TIP3    H231896   5.689   6.198   6.462 -1.3279  1.0807 -0.2101
 3421TIP3   OH231897   6.196   6.619   0.840  0.0258  0.5669 -0.0759
 3421TIP3    H131898   6.222   6.528   0.830  2.4467  1.1799  0.0989
 3421TIP3    H231899   6.101   6.616   0.853 -0.2602 -1.7644 -2.0946
 3422TIP3   OH231900   1.006   4.934   1.246 -0.7573  0.5270  0.2167
 3422TIP3    H131901   0.946   4.938   1.171 -1.6922 -0.2391  0.8973
 3422TIP3    H231902   0.958   4.883   1.312  0.2367  0.7898  1.1631
 3423TIP3   OH231903   2.309   5.371   6.874 -0.2008  0.4001  0.1615
 3423TIP3    H131904   2.253   5.316   6.819 -0.3453 -1.3281  1.8927
 3423TIP3    H231905   2.376   5.404   6.815 -1.8766  0.8756 -1.5616
 3424TIP3   OH231906   1.259   0.041   1.443  0.0304  0.4016 -0.2602
 3424TIP3    H131907   1.236   0.056   1.534  1.6308  0.2584  0.2009
 3424TIP3    H231908   1.279  -0.052   1.438  0.8919  0.5852 -0.5065
 3425TIP3   OH231909   3.775   5.679   8.310  0.5350 -0.2483 -0.5796
 3425TIP3    H131910   3.727   5.717   8.237 -0.1391  0.3182  0.1331
 3425TIP3    H231911   3.867   5.698   8.291  0.2543  1.5074 -0.4224
 3426TIP3   OH231912   6.757   0.358   0.402  0.0160  0.3159  0.1354
 3426TIP3    H131913   6.767   0.368   0.308 -0.3559 -1.4177 -0.1298
 3426TIP3    H231914   6.701   0.431   0.428 -0.8910  0.1306 -1.1999
 3427TIP3   OH231915   2.089   3.476   6.678 -0.2468 -0.0457  0.7486
 3427TIP3    H131916   2.158   3.479   6.612 -1.3222  0.0483 -0.4118
 3427TIP3    H231917   2.037   3.555   6.663 -0.2437  0.2223  2.0248
 3428TIP3   OH231918   6.869   6.390   1.610  0.3332  0.0219 -0.7620
 3428TIP3    H131919   6.902   6.434   1.689 -1.8831  1.4538 -0.5494
 3428TIP3    H231920   6.902   6.301   1.617  0.1012  0.0695  1.8833
 3429TIP3   OH231921   5.676   2.681   7.573 -0.3956 -0.1205 -0.6084
 3429TIP3    H131922   5.673   2.622   7.498 -2.1301 -4.0903  2.2629
 3429TIP3    H231923   5.586   2.709   7.585 -0.1865  0.2164  0.2093
 3430TIP3   OH231924   3.807   0.339   0.416 -0.1182 -0.3223  0.4466
 3430TIP3    H131925   3.801   0.314   0.508  1.4607  0.6195  0.8387
 3430TIP3    H231926   3.894   0.309   0.389  0.0202  0.7230 -0.3210
 3431TIP3   OH231927   1.817   6.079   0.827  0.6443 -0.1698  0.2359
 3431TIP3    H131928   1.837   5.986   0.814  0.2728 -0.1679 -0.3723
 3431TIP3    H231929   1.822   6.117   0.740  0.8831  0.4038  0.4966
 3432TIP3   OH231930   1.219   1.360   0.728  0.3165  0.5354  0.4662
 3432TIP3    H131931   1.129   1.333   0.708  1.1390 -1.2362 -1.1831
 3432TIP3    H231932   1.224   1.450   0.695 -1.3940  1.4825  2.5384
 3433TIP3   OH231933   0.479   1.720   8.262 -0.7435 -0.3865  0.1589
 3433TIP3    H131934   0.471   1.626   8.275  0.4527 -0.4926  0.2839
 3433TIP3    H231935   0.403   1.744   8.210 -0.3818 -1.6541 -1.0170
 3434TIP3   OH231936   2.710   4.403   7.261  0.0418 -0.1442 -0.3836
 3434TIP3    H131937   2.648   4.337   7.230  0.3188 -0.7106  0.2464
 3434TIP3    H231938   2.723   4.382   7.354  1.5585 -0.3388 -0.6288
 3435TIP3   OH231939   5.672   4.996   1.962  0.0659 -0.2573 -0.3889
 3435TIP3    H131940   5.650   5.079   1.920 -0.8519  0.7144  1.8271
 3435TIP3    H231941   5.608   4.934   1.929 -0.2607  0.3124 -0.8474
 3436TIP3   OH231942   4.373   0.699   7.369 -0.0097  0.3908 -0.0745
 3436TIP3    H131943   4.353   0.734   7.282 -2.9214 -0.6620  0.0286
 3436TIP3    H231944   4.389   0.776   7.423  1.3945  1.0842 -1.3989
 3437TIP3   OH231945   0.029   6.418   0.573 -0.1627 -0.0464 -0.6852
 3437TIP3    H131946  -0.039   6.484   0.585  0.3335  0.3885 -0.2284
 3437TIP3    H231947  -0.017   6.334   0.583 -0.6904  0.2401 -0.7019
 3438TIP3   OH231948   6.074   1.487   7.666 -0.3793  0.5575  0.5036
 3438TIP3    H131949   6.050   1.444   7.748 -1.0848  1.7861  0.9554
 3438TIP3    H231950   6.085   1.415   7.604 -4.1477 -0.2219  0.5313
 3439TIP3   OH231951   1.187   2.647   1.758 -0.0049 -0.2542  0.3565
 3439TIP3    H131952   1.186   2.680   1.847  1.2341  1.3088 -0.1810
 3439TIP3    H231953   1.171   2.553   1.768 -0.8184  0.0293  2.1315
 3440TIP3   OH231954   1.759   0.665   7.851  0.4945 -0.2337  0.6481
 3440TIP3    H131955   1.803   0.599   7.797  0.0947 -1.1282  1.4002
 3440TIP3    H231956   1.796   0.748   7.821  1.8542 -0.8744  0.4777
 3441TIP3   OH231957   3.391   4.903   1.242 -0.0976 -0.2825 -0.3368
 3441TIP3    H131958   3.433   4.989   1.251 -2.3471  1.1898 -2.4464
 3441TIP3    H231959   3.328   4.900   1.314  1.4384 -1.1540  1.0108
 3442TIP3   OH231960   0.481   5.891   0.942 -0.0149 -0.6263  0.5419
 3442TIP3    H131961   0.556   5.842   0.909 -0.2156 -0.6289  0.0773
 3442TIP3    H231962   0.486   5.975   0.896 -0.8032 -0.9605 -0.1869
 3443TIP3   OH231963   6.291   4.463   1.025  0.2085 -0.0195 -0.0924
 3443TIP3    H131964   6.239   4.533   0.985  1.1531  0.2782 -0.8413
 3443TIP3    H231965   6.362   4.447   0.962  0.7914 -0.6894  0.7179
 3444TIP3   OH231966   4.555   3.767   6.624 -0.1174  0.1052  0.5775
 3444TIP3    H131967   4.526   3.826   6.555 -0.2188 -0.7207 -0.1074
 3444TIP3    H231968   4.475   3.721   6.651  0.4356 -2.0578 -1.2003
 3445TIP3   OH231969   1.524   0.938   8.194  0.2474 -0.2178 -0.3693
 3445TIP3    H131970   1.533   0.875   8.123 -1.0438  0.0047 -0.7585
 3445TIP3    H231971   1.609   0.938   8.238  0.2635 -2.2345 -0.3506
 3446TIP3   OH231972   6.689   5.175   0.937 -0.0781  0.1594  0.4649
 3446TIP3    H131973   6.658   5.179   1.028  1.8231  0.9854  1.1266
 3446TIP3    H231974   6.617   5.211   0.886 -0.8375  0.5202  1.7445
 3447TIP3   OH231975   0.774   0.234   7.211 -0.4167 -0.0176 -0.6069
 3447TIP3    H131976   0.864   0.222   7.181 -0.4038 -0.6065 -0.3458
 3447TIP3    H231977   0.729   0.154   7.184 -0.9017  0.3352 -0.8640
 3448TIP3   OH231978   3.918   5.403   1.282  0.0394  0.3836  0.2318
 3448TIP3    H131979   3.823   5.399   1.280 -0.1050  2.6519 -1.1961
 3448TIP3    H231980   3.938   5.485   1.326  1.2664  0.6084 -0.6652
 3449TIP3   OH231981   4.419   1.748   1.307 -0.4238  0.1594 -0.5237
 3449TIP3    H131982   4.393   1.801   1.382 -0.2119 -2.5431  1.6252
 3449TIP3    H231983   4.499   1.704   1.334 -2.2505 -3.7677 -0.6638
 3450TIP3   OH231984   6.878   5.427   0.459  0.0413  0.0666  0.6024
 3450TIP3    H131985   6.833   5.505   0.427 -1.0909 -0.2598  1.3423
 3450TIP3    H231986   6.902   5.379   0.379  0.1717  0.8444  0.1648
 3451TIP3   OH231987   4.530   0.339   7.541 -0.1507  0.1349  0.1958
 3451TIP3    H131988   4.449   0.289   7.531  0.4968 -1.0820  0.8426
 3451TIP3    H231989   4.560   0.353   7.451 -1.1399  0.7284 -0.0617
 3452TIP3   OH231990   0.897   3.265   7.596 -0.2134  0.7639  0.0505
 3452TIP3    H131991   0.983   3.223   7.585 -0.7710 -0.3263 -0.2829
 3452TIP3    H231992   0.892   3.328   7.524 -0.5808 -0.7408 -1.2990
 3453TIP3   OH231993   5.024   3.646   2.707  0.5968  0.0641 -0.1767
 3453TIP3    H131994   5.045   3.630   2.615  0.7325  0.3527 -0.1931
 3453TIP3    H231995   5.099   3.612   2.756  1.0629  1.0131 -0.2311
 3454TIP3   OH231996   5.456   2.585   7.720 -1.1054  0.0477 -0.3479
 3454TIP3    H131997   5.484   2.501   7.756  0.6921  0.7541  0.0131
 3454TIP3    H231998   5.496   2.650   7.778  1.9395  1.2666 -3.4963
 3455TIP3   OH231999   3.426   3.301   1.482 -0.0812  0.4759 -0.5888
 3455TIP3    H132000   3.468   3.373   1.530 -0.9488  1.0752 -0.6940
 3455TIP3    H232001   3.451   3.222   1.530  1.5001  0.7533 -0.8969
 3456TIP3   OH232002   1.886   0.805   1.668  0.4636  0.0872  0.4467
 3456TIP3    H132003   1.861   0.720   1.631  0.4790  0.0284  0.5675
 3456TIP3    H232004   1.958   0.784   1.728  1.3756  0.3721 -0.5258
 3457TIP3   OH232005   5.368   4.423   7.203  0.1755  0.0862  0.7255
 3457TIP3    H132006   5.427   4.352   7.179  0.3003 -0.1147  1.6040
 3457TIP3    H232007   5.281   4.382   7.210  0.1692  0.1072  0.7751
 3458TIP3   OH232008   6.834   3.125   2.579 -0.4810  0.9132  0.6376
 3458TIP3    H132009   6.883   3.117   2.497 -2.1193 -0.1664 -0.3094
 3458TIP3    H232010   6.870   3.056   2.635 -0.3503  0.6713  0.2617
 3459TIP3   OH232011   6.798   5.446   1.920 -0.3055  0.1527 -0.6662
 3459TIP3    H132012   6.792   5.542   1.922  0.1232  0.1680  0.2881
 3459TIP3    H232013   6.873   5.425   1.976 -0.9811 -0.7908 -0.0900
 3460TIP3   OH232014   5.615   5.367   1.099 -0.7084 -0.4570  0.1030
 3460TIP3    H132015   5.597   5.304   1.030 -1.1581  0.3326 -0.5121
 3460TIP3    H232016   5.538   5.362   1.156 -1.7170  0.9910 -1.0684
 3461TIP3   OH232017   6.767   0.892   1.163  0.4061  0.0981  0.2023
 3461TIP3    H132018   6.859   0.907   1.143  0.0355  0.7718 -1.1131
 3461TIP3    H232019   6.726   0.876   1.078 -0.6483 -0.4275  0.7912
 3462TIP3   OH232020   6.592   6.456   7.885 -0.6785 -0.5926  0.4242
 3462TIP3    H132021   6.590   6.437   7.979  0.6973 -0.7760  0.4382
 3462TIP3    H232022   6.504   6.437   7.855 -1.5934  0.8858  1.9402
 3463TIP3   OH232023   6.244   2.280   0.416 -0.7189  0.0034  0.5370
 3463TIP3    H132024   6.185   2.353   0.433 -1.5080 -0.6150  0.5170
 3463TIP3    H232025   6.324   2.301   0.465 -0.0133  2.0058 -1.3312
 3464TIP3   OH232026   1.961   6.910   1.801  0.3170  0.3395 -0.3998
 3464TIP3    H132027   2.045   6.943   1.833  1.7104 -0.2260 -3.2261
 3464TIP3    H232028   1.945   6.831   1.854  1.5434  0.4616  0.1927
 3465TIP3   OH232029   5.071   1.925   0.863  0.0160 -0.8808  0.0573
 3465TIP3    H132030   5.005   1.878   0.914  0.5928 -2.3070 -0.4767
 3465TIP3    H232031   5.151   1.919   0.915  0.0520 -0.3097  0.0740
 3466TIP3   OH232032   5.007   2.949   7.186 -0.2787 -0.4492  0.1399
 3466TIP3    H132033   4.983   2.958   7.094 -0.7474  0.7941  0.3564
 3466TIP3    H232034   4.933   2.903   7.226 -0.6339  0.0880  0.1121
 3467TIP3   OH232035   0.151   5.985   7.173  0.5123  0.5578 -0.0651
 3467TIP3    H132036   0.184   6.070   7.145  1.2100  0.5502  0.6867
 3467TIP3    H232037   0.218   5.953   7.235  0.2708 -0.5328 -0.3502
 3468TIP3   OH232038   5.210   2.479   2.210  0.4152 -0.3652  0.1101
 3468TIP3    H132039   5.139   2.446   2.265  1.2023  1.1168  2.1364
 3468TIP3    H232040   5.257   2.400   2.182 -0.9726 -1.2511  0.1802
 3469TIP3   OH232041   0.286   0.055   0.801 -0.2117  0.1017  0.2169
 3469TIP3    H132042   0.264  -0.025   0.848 -0.8303  0.7518  1.0811
 3469TIP3    H232043   0.377   0.044   0.774 -0.3090 -0.9006  0.2705
 3470TIP3   OH232044   1.986   4.227   0.802 -0.4753 -1.1532  0.4182
 3470TIP3    H132045   1.978   4.217   0.707 -2.5957  0.7089  0.3237
 3470TIP3    H232046   1.987   4.137   0.836  2.1507 -1.9174 -1.3993
 3471TIP3   OH232047   1.353   6.687   6.036  0.0251 -0.6697 -0.1932
 3471TIP3    H132048   1.440   6.727   6.029  0.1507 -1.0964 -1.1627
 3471TIP3    H232049   1.297   6.739   5.979  0.1615 -1.7469 -1.3702
 3472TIP3   OH232050   2.096   5.715   7.354 -0.4381  0.3705 -0.5968
 3472TIP3    H132051   2.018   5.767   7.373  0.8928  2.1561  0.3007
 3472TIP3    H232052   2.094   5.645   7.419 -0.1597  1.7268  0.9500
 3473TIP3   OH232053   1.803   2.487   8.296  0.1952 -0.0228 -0.3854
 3473TIP3    H132054   1.875   2.526   8.246  1.6815  0.6458  2.1190
 3473TIP3    H232055   1.733   2.552   8.292  1.3941  1.4096  0.8380
 3474TIP3   OH232056   5.631   5.901   1.206  0.1525  0.2657  0.5791
 3474TIP3    H132057   5.567   5.926   1.139 -0.3480  1.1831  1.3754
 3474TIP3    H232058   5.666   5.985   1.237  2.8436 -0.2260 -0.8509
 3475TIP3   OH232059   1.534   6.098   6.907  0.3426 -0.2234  0.3525
 3475TIP3    H132060   1.480   6.137   6.976  0.4667  0.6404 -0.0343
 3475TIP3    H232061   1.471   6.075   6.838  0.5270  1.5887 -0.4766
 3476TIP3   OH232062   1.071   2.845   1.567  0.2427  0.2515  0.1569
 3476TIP3    H132063   1.139   2.796   1.613  0.8215 -0.0961 -1.0163
 3476TIP3    H232064   1.000   2.783   1.553  0.2177  0.2557  0.2685
 3477TIP3   OH232065   0.203   4.289   0.545  0.1120  0.1106 -0.0064
 3477TIP3    H132066   0.160   4.220   0.495 -0.6347 -0.3403  1.2097
 3477TIP3    H232067   0.290   4.296   0.506 -0.4458 -0.1993 -1.3532
 3478TIP3   OH232068   6.087   0.398   0.444 -0.0124  0.6128 -0.0023
 3478TIP3    H132069   6.176   0.400   0.478 -0.6107 -0.9187  1.8411
 3478TIP3    H232070   6.094   0.431   0.354  2.6174 -0.7252 -0.3751
 3479TIP3   OH232071   2.927   0.296   7.886  0.1309  0.0692  0.7667
 3479TIP3    H132072   2.940   0.219   7.831  1.5493  1.2750 -0.6883
 3479TIP3    H232073   2.863   0.268   7.952 -0.4016 -1.9204 -0.5040
 3480TIP3   OH232074   1.055   4.579   7.624 -0.2800 -0.7148  0.0108
 3480TIP3    H132075   1.144   4.558   7.655 -0.2573 -0.4541  0.1218
 3480TIP3    H232076   1.003   4.585   7.704 -0.4341 -1.0337 -0.0650
 3481TIP3   OH232077   6.331   6.741   7.538  0.1416 -0.0343 -0.8012
 3481TIP3    H132078   6.324   6.834   7.517 -0.2655 -0.4042 -2.4257
 3481TIP3    H232079   6.249   6.702   7.508  0.7180 -1.0791 -1.0847
 3482TIP3   OH232080   0.648   5.571   1.639  0.0129  0.1470 -0.4743
 3482TIP3    H132081   0.596   5.536   1.567  0.6126  0.6621 -1.1663
 3482TIP3    H232082   0.642   5.504   1.707 -0.2781 -0.5082 -1.1302
 3483TIP3   OH232083   5.004   6.453   2.027  0.2136 -0.1061  0.0497
 3483TIP3    H132084   4.945   6.508   2.079  0.0367 -0.2908  0.0454
 3483TIP3    H232085   5.048   6.514   1.968 -0.1837 -0.0047 -0.1446
 3484TIP3   OH232086   2.440   2.930   0.420  0.7820  0.3804  0.9841
 3484TIP3    H132087   2.349   2.953   0.441  0.4157  1.8315 -1.7597
 3484TIP3    H232088   2.438   2.836   0.404 -0.0522  0.2613  1.6761
 3485TIP3   OH232089   0.878   0.158   1.034  0.5832 -0.1592 -0.2569
 3485TIP3    H132090   0.794   0.121   1.061  1.0817 -0.2162  1.2899
 3485TIP3    H232091   0.943   0.107   1.082  1.5939 -0.8747 -2.2800
 3486TIP3   OH232092   2.560   0.650   0.544  0.4452 -0.2232 -0.5036
 3486TIP3    H132093   2.596   0.738   0.543 -2.1341  0.9425 -1.3677
 3486TIP3    H232094   2.603   0.607   0.617  1.6476  1.8050  0.0630
 3487TIP3   OH232095   4.073   3.141   8.225 -0.4965 -0.4972 -0.3543
 3487TIP3    H132096   4.019   3.103   8.156  0.2017  1.0666 -1.8525
 3487TIP3    H232097   4.016   3.205   8.268 -0.0419  0.8333 -1.6439
 3488TIP3   OH232098   0.272   1.472   0.516 -0.0643  0.2427  0.2029
 3488TIP3    H132099   0.361   1.502   0.501 -0.2914  0.5714 -0.5576
 3488TIP3    H232100   0.217   1.542   0.481 -0.6484  0.6946  1.9305
 3489TIP3   OH232101   0.523   6.025   7.699 -0.2362  0.1061 -0.0646
 3489TIP3    H132102   0.610   5.991   7.676 -0.7975 -1.2240 -0.2743
 3489TIP3    H232103   0.468   6.002   7.625 -0.4067  2.6277 -0.8184
 3490TIP3   OH232104   1.294   1.697   8.492 -0.3724 -0.3538  0.1218
 3490TIP3    H132105   1.309   1.713   8.585 -0.1055  1.9660 -0.2586
 3490TIP3    H232106   1.360   1.633   8.467 -0.2831 -0.8109  1.4706
 3491TIP3   OH232107   0.109   6.312   7.235  0.4912 -0.4841 -0.5009
 3491TIP3    H132108   0.034   6.269   7.275 -0.5537  1.7507  0.0592
 3491TIP3    H232109   0.115   6.272   7.148 -1.5127 -0.5535 -0.6546
 3492TIP3   OH232110   5.205   5.885   2.241 -0.2227  0.4992  0.4437
 3492TIP3    H132111   5.240   5.870   2.329 -0.9288 -0.5902  0.5642
 3492TIP3    H232112   5.115   5.851   2.245 -0.1507  0.1037 -0.7949
 3493TIP3   OH232113   0.242   0.507   1.805  0.3600 -0.0644 -0.2334
 3493TIP3    H132114   0.194   0.519   1.724  1.3645  0.3370 -0.7941
 3493TIP3    H232115   0.334   0.504   1.778  0.6166 -1.6088  0.7160
 3494TIP3   OH232116   4.090   6.892   6.408  0.0529 -0.4802 -0.0578
 3494TIP3    H132117   4.181   6.871   6.387  0.3973  1.4611 -0.6127
 3494TIP3    H232118   4.094   6.976   6.453 -1.2437 -1.6590  2.4843
 3495TIP3   OH232119   1.826   0.614   6.515  0.0653 -0.4118 -0.2326
 3495TIP3    H132120   1.807   0.529   6.477  0.8607 -0.6785 -0.0631
 3495TIP3    H232121   1.917   0.606   6.545 -0.1182  0.2258  0.5080
 3496TIP3   OH232122   6.536   1.374   0.978 -0.1332  0.3266  0.2127
 3496TIP3    H132123   6.563   1.414   0.896 -2.9253  0.1811 -0.8901
 3496TIP3    H232124   6.570   1.432   1.046 -0.7036  2.4089 -1.1858
 3497TIP3   OH232125   1.806   0.535   0.266  0.5092  0.4133 -0.1740
 3497TIP3    H132126   1.755   0.616   0.265 -0.2291 -0.0436 -0.2736
 3497TIP3    H232127   1.804   0.506   0.357 -0.4520 -0.2475 -0.4009
 3498TIP3   OH232128   1.890   0.056   1.055 -0.4182 -0.0885  0.5122
 3498TIP3    H132129   1.801   0.059   1.088  0.1754  1.2220  2.1320
 3498TIP3    H232130   1.943   0.028   1.130  0.7643  1.2427  0.2388
 3499TIP3   OH232131   1.547   3.787   2.023  0.3643  0.1825  0.0446
 3499TIP3    H132132   1.469   3.744   2.057 -0.7416  1.5692 -0.6217
 3499TIP3    H232133   1.561   3.861   2.082 -0.0115  1.0764 -0.9533
 3500TIP3   OH232134   3.088   4.246   1.341 -0.2406  0.5636 -0.1370
 3500TIP3    H132135   3.065   4.163   1.299  2.1624 -0.9476  1.2778
 3500TIP3    H232136   3.013   4.303   1.325 -1.5836 -1.5681 -1.9711
 3501TIP3   OH232137   3.826   5.262   2.462 -0.3691  0.3253  0.0391
 3501TIP3    H132138   3.920   5.244   2.453 -0.1027  1.3400  0.5715
 3501TIP3    H232139   3.783   5.192   2.412  0.6300 -0.7627  0.6399
 3502TIP3   OH232140   4.882   4.345   0.419 -0.0642 -0.8656 -0.4877
 3502TIP3    H132141   4.821   4.278   0.448  0.6099 -1.1234  0.3899
 3502TIP3    H232142   4.959   4.333   0.475  0.8728 -0.6835 -1.6987
 3503TIP3   OH232143   1.628   3.420   2.460  0.0317  0.7137  0.3612
 3503TIP3    H132144   1.574   3.474   2.518 -1.7004  0.3820 -0.8593
 3503TIP3    H232145   1.616   3.330   2.492  1.1051  0.7831  1.0066
 3504TIP3   OH232146   5.483   6.915   0.664 -0.3540 -0.0847  0.3407
 3504TIP3    H132147   5.548   6.980   0.637 -0.1900 -0.7467 -0.9406
 3504TIP3    H232148   5.479   6.853   0.591 -0.1732 -1.7797  1.7030
 3505TIP3   OH232149   1.444   3.529   0.820  0.0627 -0.5261  0.0129
 3505TIP3    H132150   1.455   3.436   0.800 -1.2647 -0.4749 -1.0943
 3505TIP3    H232151   1.364   3.533   0.872  0.2851 -0.0230  0.3227
 3506TIP3   OH232152   4.877   5.263   8.030  0.0705 -0.0199  0.6956
 3506TIP3    H132153   4.821   5.329   7.989 -0.6191  0.0459  1.7170
 3506TIP3    H232154   4.961   5.307   8.042  0.1793  0.0720 -0.2987
 3507TIP3   OH232155   3.933   4.457   7.263 -0.1867  0.0363 -0.3728
 3507TIP3    H132156   4.025   4.481   7.273  0.0014 -0.5955 -0.5727
 3507TIP3    H232157   3.932   4.362   7.264 -0.9645  0.0379  0.7342
 3508TIP3   OH232158   1.203   6.902   0.320 -0.3543  0.1475 -0.0969
 3508TIP3    H132159   1.174   6.850   0.245 -1.7669 -0.5562  0.8868
 3508TIP3    H232160   1.133   6.892   0.385  0.4718  1.3428  1.0416
 3509TIP3   OH232161   2.540   4.273   1.251 -0.1277  0.4283  0.2554
 3509TIP3    H132162   2.561   4.208   1.319 -0.7221 -0.8318 -0.7328
 3509TIP3    H232163   2.566   4.356   1.290 -1.5359 -0.1026  2.5239
 3510TIP3   OH232164   0.176   3.090   7.665 -0.5514 -0.3614 -0.3498
 3510TIP3    H132165   0.124   3.024   7.711  0.2939 -1.6089 -1.1535
 3510TIP3    H232166   0.261   3.087   7.708 -0.8431  1.1278  0.4373
 3511TIP3   OH232167   4.976   6.224   6.814 -0.4851 -0.7744 -0.0854
 3511TIP3    H132168   4.930   6.142   6.799 -0.3685 -0.7647 -0.4880
 3511TIP3    H232169   5.069   6.201   6.811 -0.4488 -0.8622  1.0797
 3512TIP3   OH232170   0.504   5.162   6.843  0.1758  0.9311 -0.1185
 3512TIP3    H132171   0.485   5.225   6.913  0.3633  3.1590 -1.9230
 3512TIP3    H232172   0.430   5.171   6.783  0.3884 -0.3450 -0.5856
 3513TIP3   OH232173   2.442   6.345   1.644 -0.1285 -0.2119  0.2313
 3513TIP3    H132174   2.365   6.315   1.597  0.7688  0.3972 -1.7580
 3513TIP3    H232175   2.515   6.329   1.583  1.0313  1.1191  1.1860
 3514TIP3   OH232176   5.945   1.715   0.231 -0.7004  0.8648 -0.3192
 3514TIP3    H132177   5.965   1.623   0.211  1.0270  1.3675 -1.0012
 3514TIP3    H232178   5.870   1.709   0.291  0.2117 -1.0514  0.7461
 3515TIP3   OH232179   0.603   6.103   1.172 -0.5312  0.7472  0.8131
 3515TIP3    H132180   0.627   6.181   1.121 -1.7549 -0.8851 -2.5452
 3515TIP3    H232181   0.668   6.037   1.147 -2.3648 -0.7035 -0.3429
 3516TIP3   OH232182   3.593   4.515   2.311  0.0707  0.1286  0.1151
 3516TIP3    H132183   3.644   4.445   2.351 -2.1025 -0.5112  1.9630
 3516TIP3    H232184   3.594   4.585   2.376 -1.6960 -0.0774  0.4164
 3517TIP3   OH232185   4.662   4.811   1.016 -0.4826  0.5411 -0.0359
 3517TIP3    H132186   4.680   4.718   1.034 -0.4288  0.6232  0.3396
 3517TIP3    H232187   4.640   4.813   0.923 -3.9054 -0.4223  0.5804
 3518TIP3   OH232188   2.087   3.816   8.186 -0.0602  0.2373 -0.5098
 3518TIP3    H132189   2.023   3.787   8.120  0.1091 -2.1593  0.2706
 3518TIP3    H232190   2.062   3.768   8.265  0.5960  1.9831  0.8165
 3519TIP3   OH232191   3.251   6.277   1.553 -0.5728 -0.0261  0.5770
 3519TIP3    H132192   3.289   6.332   1.484  0.9268 -0.9209  0.6459
 3519TIP3    H232193   3.158   6.299   1.553 -0.0864  2.2987  0.4047
 3520TIP3   OH232194   0.972   6.629   7.794 -0.0648 -0.0468  0.4318
 3520TIP3    H132195   0.898   6.639   7.853 -0.8207 -0.5106 -0.4054
 3520TIP3    H232196   0.941   6.666   7.711 -0.1398 -2.0723 -0.5137
 3521TIP3   OH232197   1.312   4.945   7.886 -0.1100  0.1418 -0.2303
 3521TIP3    H132198   1.362   5.000   7.825 -0.2596  0.6428  0.0889
 3521TIP3    H232199   1.244   5.004   7.920 -0.5870 -0.3845 -0.2551
 3522TIP3   OH232200   5.070   1.195   7.576  0.4569 -0.2904 -0.2044
 3522TIP3    H132201   4.987   1.146   7.578 -0.1778  0.6944 -1.1719
 3522TIP3    H232202   5.136   1.129   7.557 -0.2697 -0.9109 -0.6429
 3523TIP3   OH232203   3.183   1.805   8.115  0.0784  0.1454  0.0418
 3523TIP3    H132204   3.237   1.753   8.174  0.7758  1.7773  0.9208
 3523TIP3    H232205   3.096   1.806   8.156 -0.3220 -1.4158 -0.7020
 3524TIP3   OH232206   2.042   1.323   7.325  0.2613  0.4366  0.3870
 3524TIP3    H132207   2.118   1.274   7.294  0.4237  0.1108  1.2774
 3524TIP3    H232208   1.969   1.289   7.273  0.6434  0.4180 -0.1425
 3525TIP3   OH232209   5.877   1.791   1.784 -0.8399  0.1943  0.9556
 3525TIP3    H132210   5.937   1.793   1.858  0.0015  0.5000  0.2788
 3525TIP3    H232211   5.844   1.881   1.778 -0.3077  0.3646  0.4893
 3526TIP3   OH232212   5.559   5.134   0.917 -0.2607 -0.2691 -0.2048
 3526TIP3    H132213   5.557   5.039   0.924 -2.0509 -0.1729  1.2981
 3526TIP3    H232214   5.479   5.156   0.868  1.2889  0.3859 -2.6058
 3527TIP3   OH232215   2.441   0.489   2.175  0.1764  0.1129  0.1088
 3527TIP3    H132216   2.425   0.463   2.266  0.3968 -0.4708 -0.0139
 3527TIP3    H232217   2.458   0.583   2.179 -0.0873  0.1431  0.6361
 3528TIP3   OH232218   4.989   3.700   6.064 -0.2666  0.2291 -1.1823
 3528TIP3    H132219   5.082   3.717   6.049  0.2185  0.5287  1.6494
 3528TIP3    H232220   4.975   3.613   6.025  1.9496 -1.1118  0.6918
 3529TIP3   OH232221   3.474   6.050   0.933  0.2602  0.3996  0.6746
 3529TIP3    H132222   3.494   5.957   0.924  0.8070  0.6187 -0.5696
 3529TIP3    H232223   3.390   6.060   0.890 -0.1579  0.3737  1.4559
 3530TIP3   OH232224   5.055   0.632   1.452  0.4048  0.1898  0.3698
 3530TIP3    H132225   5.115   0.587   1.393  0.2862 -0.2796  0.5962
 3530TIP3    H232226   5.026   0.709   1.403 -1.1588 -1.1712 -0.9677
 3531TIP3   OH232227   2.169   4.561   8.512 -0.6541  0.6473  0.5400
 3531TIP3    H132228   2.224   4.501   8.461 -1.6934  0.6717 -0.6479
 3531TIP3    H232229   2.229   4.600   8.576  0.5766  0.2241 -0.3166
 3532TIP3   OH232230   6.076   2.159   0.123  0.7393  0.2413 -0.3889
 3532TIP3    H132231   6.079   2.092   0.192  1.4604  0.0724 -0.5731
 3532TIP3    H232232   6.010   2.127   0.062  1.3948 -0.5520 -0.7115
 3533TIP3   OH232233   2.294   2.635   0.324 -0.0712  0.1739  0.5486
 3533TIP3    H132234   2.306   2.543   0.300  0.4649  0.3199  0.2395
 3533TIP3    H232235   2.358   2.650   0.393 -0.9482  0.0145  1.4152
 3534TIP3   OH232236   0.569   1.613   7.176  0.2600  0.6914 -0.7781
 3534TIP3    H132237   0.541   1.646   7.262 -0.8719  0.8921 -1.2003
 3534TIP3    H232238   0.492   1.626   7.120  0.8658  0.2309 -1.7331
 3535TIP3   OH232239   4.065   5.562   0.507 -0.2243 -0.5041 -0.4028
 3535TIP3    H132240   4.125   5.607   0.448 -0.5969  0.3686 -0.1207
 3535TIP3    H232241   3.990   5.540   0.453  0.3329 -1.6376 -0.7683
 3536TIP3   OH232242   1.713   1.720   0.977  0.3002 -0.0618  0.1626
 3536TIP3    H132243   1.725   1.805   0.936 -1.4549  0.0271 -0.2263
 3536TIP3    H232244   1.697   1.660   0.905 -0.4094 -0.3555  0.5544
 3537TIP3   OH232245   1.638   5.677   1.352  0.4905 -0.1601 -0.0593
 3537TIP3    H132246   1.573   5.614   1.321 -1.7378  1.1823  1.6067
 3537TIP3    H232247   1.657   5.649   1.441  1.7073 -0.1045 -0.2829
 3538TIP3   OH232248   4.813   1.787   7.590 -0.0465 -0.2556  0.0531
 3538TIP3    H132249   4.820   1.862   7.649 -1.7832  0.0410 -0.0867
 3538TIP3    H232250   4.903   1.771   7.562  0.6207  0.5599  1.5760
 3539TIP3   OH232251   3.075   4.192   1.011 -0.5705  0.2521  0.0295
 3539TIP3    H132252   3.041   4.120   1.064 -0.4428 -1.0952 -1.6098
 3539TIP3    H232253   3.168   4.195   1.033 -0.6289  0.0881  0.3089
 3540TIP3   OH232254   6.109   2.662   6.722 -0.0701 -0.0998  0.8498
 3540TIP3    H132255   6.188   2.694   6.678 -0.8721  0.7631 -0.0026
 3540TIP3    H232256   6.084   2.583   6.674 -1.9445  1.7866 -1.5001
 3541TIP3   OH232257   4.994   0.506   7.993 -0.1804  0.1635 -0.3683
 3541TIP3    H132258   5.042   0.546   8.065  0.0171  0.0934 -0.4625
 3541TIP3    H232259   5.026   0.416   7.988 -0.9351 -0.1446  0.1220
 3542TIP3   OH232260   4.255   4.289   7.326  0.3507 -0.3110  0.1585
 3542TIP3    H132261   4.272   4.382   7.344  0.9107 -0.2535 -0.6302
 3542TIP3    H232262   4.340   4.247   7.336  0.9346 -0.1528 -3.0064
 3543TIP3   OH232263   6.184   0.925   1.473  0.5855 -0.1684 -0.4259
 3543TIP3    H132264   6.273   0.897   1.496  0.7783  2.5180  2.9293
 3543TIP3    H232265   6.128   0.876   1.533  0.0933  0.2076 -0.5769
 3544TIP3   OH232266   4.497   4.518   2.006 -0.5078 -0.1963  0.1306
 3544TIP3    H132267   4.558   4.444   1.995 -0.8680 -0.3178 -1.3098
 3544TIP3    H232268   4.467   4.511   2.096  0.4839 -1.0132  0.4236
 3545TIP3   OH232269   3.183   5.602   7.809 -0.3698  0.9362 -0.0794
 3545TIP3    H132270   3.267   5.559   7.822  0.8976  4.1420  4.9964
 3545TIP3    H232271   3.118   5.535   7.833  1.0563 -0.1911  0.7993
 3546TIP3   OH232272   5.607   4.778   8.099 -0.3480 -0.1152 -0.2183
 3546TIP3    H132273   5.599   4.696   8.148 -1.6235  0.3202  0.3481
 3546TIP3    H232274   5.522   4.821   8.110  0.4440  1.4905 -0.1464
 3547TIP3   OH232275   4.782   1.555   8.487  0.1123 -0.3001  0.5265
 3547TIP3    H132276   4.812   1.637   8.526 -0.3707  0.9068 -1.4924
 3547TIP3    H232277   4.829   1.487   8.535  2.4692  1.2825  0.6109
 3548TIP3   OH232278   5.686   6.542   0.259  0.4527 -0.5928 -0.1789
 3548TIP3    H132279   5.778   6.539   0.283  0.6437  0.2876 -0.7490
 3548TIP3    H232280   5.684   6.516   0.166  0.2384  0.2672 -0.4206
 3549TIP3   OH232281   3.535   5.256   8.269  0.2775 -0.5826  0.2599
 3549TIP3    H132282   3.586   5.332   8.242  0.4451 -2.0100 -4.3125
 3549TIP3    H232283   3.444   5.285   8.264  0.2926 -0.7652 -2.3429
 3550TIP3   OH232284   0.619   5.027   8.397 -0.4038  0.3416  0.0129
 3550TIP3    H132285   0.531   5.019   8.435 -0.5000  1.4226  0.0445
 3550TIP3    H232286   0.629   4.949   8.342 -2.4318  1.4967 -2.1217
 3551TIP3   OH232287   1.494   6.659   7.423  0.3895  0.8612 -0.6099
 3551TIP3    H132288   1.451   6.744   7.434  0.0571  1.0138 -2.7567
 3551TIP3    H232289   1.431   6.606   7.375  0.8709 -0.4027  0.1034
 3552TIP3   OH232290   0.673   0.493   7.196  0.3000  0.1039 -0.3092
 3552TIP3    H132291   0.723   0.411   7.198  1.0378  0.5547  0.1001
 3552TIP3    H232292   0.739   0.562   7.198 -0.0972  0.7942 -3.9159
 3553TIP3   OH232293   1.180   1.292   1.726 -0.1688 -0.1816 -0.2409
 3553TIP3    H132294   1.185   1.196   1.729 -2.9140 -0.3909  0.3050
 3553TIP3    H232295   1.160   1.317   1.816 -1.7288  0.6820 -0.8040
 3554TIP3   OH232296   5.569   3.900   0.410 -0.2229 -0.1494 -0.3500
 3554TIP3    H132297   5.604   3.835   0.471 -1.4909  1.1969  1.9036
 3554TIP3    H232298   5.483   3.866   0.386 -0.2888 -0.0066 -0.3148
 3555TIP3   OH232299   6.482   0.588   1.696  0.6212  0.0356  0.4731
 3555TIP3    H132300   6.571   0.579   1.731  0.7534 -2.4820 -0.3154
 3555TIP3    H232301   6.492   0.645   1.620  1.9602 -1.6348 -0.6787
 3556TIP3   OH232302   2.323   2.867   8.155 -0.3423  0.2782  0.1215
 3556TIP3    H132303   2.346   2.901   8.241 -1.4686  1.5910 -0.0572
 3556TIP3    H232304   2.401   2.883   8.101 -0.3820  1.4171  0.3777
 3557TIP3   OH232305   0.711   5.468   7.784 -0.1569 -0.0648 -0.4153
 3557TIP3    H132306   0.716   5.432   7.695 -0.3463 -3.5638  0.8278
 3557TIP3    H232307   0.786   5.429   7.830 -0.7109  0.7544  1.2772
 3558TIP3   OH232308   0.775   6.836   0.272 -0.3397 -0.0260 -0.2900
 3558TIP3    H132309   0.804   6.844   0.181 -1.6569 -1.5480 -0.8894
 3558TIP3    H232310   0.856   6.841   0.324  0.5108  0.0707 -1.5806
 3559TIP3   OH232311   1.553   3.023   0.819  0.0323  0.6896  0.0714
 3559TIP3    H132312   1.583   2.966   0.749  1.2881  2.3228 -0.8042
 3559TIP3    H232313   1.602   2.993   0.896  1.3584  1.0960 -0.5734
 3560TIP3   OH232314   3.807   1.281   1.353  0.3340  0.6825  0.0252
 3560TIP3    H132315   3.878   1.314   1.297  0.6907  0.6358  0.4507
 3560TIP3    H232316   3.745   1.353   1.358  0.4853  0.8234 -0.1202
 3561TIP3   OH232317   1.266   0.406   8.057  0.1958 -0.2967  0.1512
 3561TIP3    H132318   1.207   0.470   8.097 -2.0959 -2.0306 -0.2915
 3561TIP3    H232319   1.351   0.424   8.098 -0.3352  2.8998  0.1453
 3562TIP3   OH232320   2.262   2.131   7.669 -0.0501 -0.1630  0.4775
 3562TIP3    H132321   2.183   2.082   7.691 -0.0521  0.1101  1.0817
 3562TIP3    H232322   2.334   2.070   7.687  0.0294  0.4309  2.4342
 3563TIP3   OH232323   5.990   5.445   7.002 -0.0860 -0.0467 -0.2788
 3563TIP3    H132324   6.035   5.503   6.940 -1.2892  0.8959 -0.3022
 3563TIP3    H232325   5.998   5.358   6.963 -0.5319  0.4774 -1.6044
 3564TIP3   OH232326   5.649   4.165   1.624 -0.2076 -0.1136 -0.2110
 3564TIP3    H132327   5.578   4.214   1.582  0.1373 -0.3217 -1.0475
 3564TIP3    H232328   5.622   4.159   1.716 -1.2717 -0.1912 -0.5166
 3565TIP3   OH232329   3.942   3.082   0.353 -0.5384  0.0488  0.0644
 3565TIP3    H132330   3.870   3.142   0.332 -0.9482  0.0731  1.4598
 3565TIP3    H232331   3.915   2.998   0.318  0.4447  0.7711 -2.7614
 3566TIP3   OH232332   1.998   4.691   1.435 -0.4159  0.0647 -0.9847
 3566TIP3    H132333   1.968   4.642   1.511  1.5385 -1.5334 -1.1719
 3566TIP3    H232334   1.983   4.633   1.360  1.4698 -0.1422 -1.2677
 3567TIP3   OH232335   4.599   5.302   2.695  0.4443  0.0197  0.1112
 3567TIP3    H132336   4.613   5.396   2.695  0.6491  0.0355 -1.8329
 3567TIP3    H232337   4.507   5.291   2.670  0.5475 -0.3073 -0.1262
 3568TIP3   OH232338   6.259   4.465   8.290  0.4031  0.0410 -0.1785
 3568TIP3    H132339   6.208   4.487   8.369  0.6073  1.4341 -0.4048
 3568TIP3    H232340   6.222   4.521   8.222  0.2390 -1.1417 -1.0959
 3569TIP3   OH232341   6.665   0.572   7.426 -0.3526  0.0964 -0.0429
 3569TIP3    H132342   6.699   0.635   7.489 -1.9830  0.3920  0.5858
 3569TIP3    H232343   6.602   0.621   7.373 -0.7210 -0.6991 -0.3680
 3570TIP3   OH232344   2.151   3.257   0.513 -0.0593 -0.1762  0.1445
 3570TIP3    H132345   2.146   3.162   0.498 -2.3981  0.0012 -0.6824
 3570TIP3    H232346   2.129   3.295   0.428  0.0265  1.1125  0.6835
 3571TIP3   OH232347   4.575   5.322   6.517 -0.6240 -0.1287 -0.1022
 3571TIP3    H132348   4.574   5.408   6.559  0.6477 -0.5735  0.9237
 3571TIP3    H232349   4.668   5.303   6.505 -0.9051 -0.5358 -2.1410
 3572TIP3   OH232350   0.219   4.472   6.939  0.7515 -0.6128 -0.3774
 3572TIP3    H132351   0.214   4.453   6.846 -3.2557  0.7358 -0.6541
 3572TIP3    H232352   0.173   4.399   6.981 -0.7949  0.5405  0.0571
 3573TIP3   OH232353   3.872   6.302   7.645 -0.1350  0.0536 -0.2261
 3573TIP3    H132354   3.821   6.222   7.655 -0.0988  0.1055  0.4262
 3573TIP3    H232355   3.839   6.360   7.714  2.5603 -0.8338  2.0234
 3574TIP3   OH232356   6.552   6.885   0.061 -0.3106  0.0232 -0.3470
 3574TIP3    H132357   6.546   6.797   0.024 -0.2197  0.5293 -1.6030
 3574TIP3    H232358   6.565   6.871   0.155 -0.3869 -1.2959 -0.5241
 3575TIP3   OH232359   1.058   1.125   8.334  0.1510  0.4463  0.1620
 3575TIP3    H132360   1.031   1.039   8.368 -1.7976  0.6929 -0.5984
 3575TIP3    H232361   1.021   1.188   8.395 -1.0167  0.8006 -0.8655
 3576TIP3   OH232362   1.504   3.837   0.135  0.8040  0.1139 -0.5234
 3576TIP3    H132363   1.511   3.919   0.182  2.0958  0.2946 -0.9809
 3576TIP3    H232364   1.412   3.811   0.144  0.6373  1.0254  0.5692
 3577TIP3   OH232365   6.816   3.194   0.874 -0.3391 -0.3641 -0.6673
 3577TIP3    H132366   6.724   3.216   0.888 -0.0913 -0.3827  1.1526
 3577TIP3    H232367   6.864   3.244   0.940  0.7894 -1.6654 -0.4462
 3578TIP3   OH232368   6.356   1.807   0.818  0.3900  0.1295 -0.2097
 3578TIP3    H132369   6.274   1.837   0.778  0.5666 -0.3904 -0.9704
 3578TIP3    H232370   6.329   1.759   0.896  0.0955  2.3543  1.1449
 3579TIP3   OH232371   2.330   5.012   8.389  0.5184  0.3371  0.4095
 3579TIP3    H132372   2.404   4.952   8.391  0.3802  0.0843 -0.9513
 3579TIP3    H232373   2.366   5.096   8.417  1.7325  0.6014 -1.6987
 3580TIP3   OH232374   3.498   5.905   0.617  0.0722  0.4537 -0.6801
 3580TIP3    H132375   3.506   5.810   0.618  0.7602  0.5045  0.3029
 3580TIP3    H232376   3.557   5.934   0.547  0.1628  0.1833 -0.7147
 3581TIP3   OH232377   2.045   6.231   8.405  0.0021  0.0899 -0.0718
 3581TIP3    H132378   1.993   6.150   8.402  0.7198 -0.3643 -0.4563
 3581TIP3    H232379   2.092   6.225   8.488 -1.8120  1.3226  1.1398
 3582TIP3   OH232380   1.697   3.515   1.685 -0.4563  0.5398  0.2068
 3582TIP3    H132381   1.695   3.591   1.744  0.4159  0.4856  0.3163
 3582TIP3    H232382   1.606   3.502   1.661 -0.5935  1.8247 -0.0701
 3583TIP3   OH232383   3.639   3.199   8.491 -0.1295 -0.3624 -0.0986
 3583TIP3    H132384   3.568   3.142   8.461 -0.0037  0.0627 -1.2186
 3583TIP3    H232385   3.717   3.145   8.485 -0.2293 -0.5604  0.3306
 3584TIP3   OH232386   4.768   3.135   2.376  0.3431  0.5265 -0.2671
 3584TIP3    H132387   4.695   3.110   2.433  0.5300  0.8448  0.1131
 3584TIP3    H232388   4.845   3.130   2.431  0.3252  2.5308  0.0255
 3585TIP3   OH232389   3.107   4.512   1.003  0.4516  0.1962 -0.0622
 3585TIP3    H132390   3.114   4.418   1.012  0.9157  0.4313  2.9490
 3585TIP3    H232391   3.167   4.548   1.068  0.5215  2.6003 -1.3114
 3586TIP3   OH232392   2.642   5.791   6.820 -0.5205  0.0029 -0.0993
 3586TIP3    H132393   2.565   5.735   6.834 -1.1568  1.0971  0.9949
 3586TIP3    H232394   2.686   5.752   6.745 -1.1443 -1.7332  0.3759
 3587TIP3   OH232395   4.194   0.709   0.750 -0.5098 -0.0580  0.1621
 3587TIP3    H132396   4.290   0.714   0.750 -0.5218  0.2346  0.0428
 3587TIP3    H232397   4.170   0.688   0.840 -0.3025 -0.7949  0.0479
 3588TIP3   OH232398   2.895   5.510   7.238  0.7794 -0.1208 -0.4509
 3588TIP3    H132399   2.952   5.581   7.207  1.2094 -0.5492 -0.6642
 3588TIP3    H232400   2.935   5.431   7.203 -0.3563 -0.3826 -1.1989
 3589TIP3   OH232401   5.334   6.055   7.630  0.0884 -0.3682  0.7308
 3589TIP3    H132402   5.411   6.108   7.652 -0.6530  0.6981  0.8286
 3589TIP3    H232403   5.296   6.031   7.714  0.5075 -1.2111  0.6905
 3590TIP3   OH232404   2.530   2.677   1.854  0.3098 -0.0037  0.4569
 3590TIP3    H132405   2.492   2.626   1.926  4.3068 -2.8986  0.9024
 3590TIP3    H232406   2.590   2.737   1.897  0.7036  0.1821 -0.3501
 3591TIP3   OH232407   6.849   1.547   0.453 -0.3233  0.0800 -0.4917
 3591TIP3    H132408   6.760   1.573   0.431 -1.3569 -2.7488 -0.1142
 3591TIP3    H232409   6.888   1.625   0.493 -2.7638  1.2902 -0.2804
 3592TIP3   OH232410   0.936   6.706   0.959 -0.7432 -0.3311  0.1610
 3592TIP3    H132411   0.922   6.688   1.051 -1.7330 -0.0990  0.0612
 3592TIP3    H232412   1.016   6.760   0.957 -0.8475 -0.1430  0.8919
 3593TIP3   OH232413   0.345   1.825   0.533  0.0675  0.0975 -0.0568
 3593TIP3    H132414   0.389   1.793   0.454 -0.2192  2.0031 -1.0595
 3593TIP3    H232415   0.403   1.893   0.567 -0.4903  0.2831  0.5468
 3594TIP3   OH232416   1.205   2.517   7.859  0.2903  0.6654  0.1515
 3594TIP3    H132417   1.204   2.459   7.783  1.9483  1.6016 -0.6586
 3594TIP3    H232418   1.168   2.465   7.930  0.0778 -0.7499 -0.9499
 3595TIP3   OH232419   4.382   6.465   1.997  0.2177  0.0283 -0.5796
 3595TIP3    H132420   4.343   6.512   2.072 -1.3663 -0.7143 -0.8987
 3595TIP3    H232421   4.326   6.388   1.986  3.0260 -2.3273  0.2757
 3596TIP3   OH232422   3.408   4.553   8.532  0.3044 -0.1184 -0.2485
 3596TIP3    H132423   3.353   4.630   8.516 -0.1506 -0.5612 -0.8402
 3596TIP3    H232424   3.487   4.569   8.481 -0.1554 -0.4355 -1.0829
 3597TIP3   OH232425   3.959   6.771   8.052  0.2998  0.7753  0.2157
 3597TIP3    H132426   3.936   6.678   8.046 -0.3006  0.9116  0.2631
 3597TIP3    H232427   3.995   6.781   8.140  0.0979  0.6371  0.3170
 3598TIP3   OH232428   0.853   2.707   1.881  0.0291  0.6332  0.3202
 3598TIP3    H132429   0.779   2.670   1.833  0.5485 -1.0348  0.7509
 3598TIP3    H232430   0.884   2.635   1.936  1.4246  1.5749  0.8036
 3599TIP3   OH232431   0.312   5.383   8.189 -0.1607  0.1237 -0.3725
 3599TIP3    H132432   0.258   5.396   8.266 -2.0466  2.7390 -1.9606
 3599TIP3    H232433   0.250   5.387   8.115  1.7129 -0.8014 -2.0900
 3600TIP3   OH232434   6.300   5.161   1.870 -0.0879 -0.3719  0.6227
 3600TIP3    H132435   6.255   5.239   1.838 -2.8266 -2.7191 -1.8847
 3600TIP3    H232436   6.250   5.133   1.946  0.3128 -0.1876  0.9540
 3601TIP3   OH232437   5.828   6.421   2.716  0.8431 -0.0297 -0.0530
 3601TIP3    H132438   5.905   6.478   2.711  0.3272  0.8085  1.0978
 3601TIP3    H232439   5.781   6.437   2.634  1.0579  0.6938 -0.0440
 3602TIP3   OH232440   3.767   2.666   0.503 -0.1499 -0.3186  0.1904
 3602TIP3    H132441   3.777   2.744   0.558 -0.6053 -0.0726 -0.0720
 3602TIP3    H232442   3.843   2.668   0.445  0.3019 -0.5452  0.7588
 3603TIP3   OH232443   0.293   3.848   1.058 -0.5021 -0.0943  0.2520
 3603TIP3    H132444   0.248   3.913   1.112 -1.9884 -0.8372 -0.0408
 3603TIP3    H232445   0.379   3.839   1.098 -0.3642  1.8218  0.4798
 3604TIP3   OH232446   5.212   6.732   0.890 -0.2534 -0.0150 -0.1491
 3604TIP3    H132447   5.302   6.706   0.867 -0.7109 -0.8648 -1.0914
 3604TIP3    H232448   5.209   6.826   0.871  0.4825  0.0567  0.0484
 3605TIP3   OH232449   4.990   4.321   1.285 -0.5888  0.7581 -0.5024
 3605TIP3    H132450   4.971   4.256   1.353  0.3290  0.4953 -0.4822
 3605TIP3    H232451   5.066   4.369   1.318 -1.8421  2.5423 -0.0476
 3606TIP3   OH232452   2.673   0.521   0.742  0.0668 -0.2723 -0.1930
 3606TIP3    H132453   2.691   0.435   0.779 -0.9837 -0.2509  0.3959
 3606TIP3    H232454   2.640   0.573   0.816 -1.6342 -0.0938 -1.0253
 3607TIP3   OH232455   2.271   6.776   0.159 -0.0168  0.5911  0.4219
 3607TIP3    H132456   2.355   6.743   0.189 -0.6507 -1.8599 -0.2648
 3607TIP3    H232457   2.241   6.833   0.230  1.5791  0.4413  1.2709
 3608TIP3   OH232458   0.490   4.544   0.671  0.0845 -0.0784 -0.2168
 3608TIP3    H132459   0.423   4.545   0.739  0.7299 -1.0071  0.4571
 3608TIP3    H232460   0.508   4.636   0.653 -1.0550  0.1867 -0.1064
 3609TIP3   OH232461   6.276   1.915   0.160 -0.5028 -0.0606 -0.2539
 3609TIP3    H132462   6.239   1.935   0.246  0.4427 -0.0258  0.1633
 3609TIP3    H232463   6.211   1.860   0.117 -1.0772  0.0999  0.4021
 3610TIP3   OH232464   5.639   2.052   1.548  0.2950 -0.1116  0.0924
 3610TIP3    H132465   5.573   1.985   1.568  2.0856 -1.3616  2.2052
 3610TIP3    H232466   5.685   2.066   1.631  1.4846  2.1072 -0.8518
 3611TIP3   OH232467   2.203   1.238   8.548 -0.2145  0.1509  0.1051
 3611TIP3    H132468   2.190   1.155   8.593  1.2533  0.1827  0.6449
 3611TIP3    H232469   2.203   1.303   8.617  2.0566  0.2018  0.1304
 3612TIP3   OH232470   4.027   4.987   0.266 -0.1769  0.4515 -0.0275
 3612TIP3    H132471   4.055   4.960   0.179 -0.3284 -0.1325  0.1019
 3612TIP3    H232472   4.022   5.083   0.261 -0.3950  0.4090 -0.7219
 3613TIP3   OH232473   0.969   1.010   0.856  0.3848  0.7643 -0.0134
 3613TIP3    H132474   1.048   1.028   0.907 -0.5162  2.0118  0.9921
 3613TIP3    H232475   0.930   0.934   0.900  0.2958  1.0231  0.3589
 3614TIP3   OH232476   6.489   3.593   0.035 -0.0563 -0.0733 -0.6049
 3614TIP3    H132477   6.456   3.512  -0.004  1.6330 -1.2411  0.2596
 3614TIP3    H232478   6.461   3.662  -0.025  0.9715 -1.6157 -2.9850
 3615TIP3   OH232479   1.360   0.922   1.240 -0.0299  0.9442 -0.3308
 3615TIP3    H132480   1.450   0.906   1.214  0.7579 -0.7336  2.8575
 3615TIP3    H232481   1.367   0.979   1.317 -1.6644  0.5285  0.1732
 3616TIP3   OH232482   4.124   6.187   7.989  0.1542 -0.1644 -0.3935
 3616TIP3    H132483   4.038   6.155   7.961  0.1183 -1.2708  0.9009
 3616TIP3    H232484   4.183   6.113   7.975  0.0354 -1.0214  2.8389
 3617TIP3   OH232485   3.363   2.335   2.276  0.1104 -0.0592  0.3477
 3617TIP3    H132486   3.430   2.385   2.323  0.3455 -0.8989  0.9367
 3617TIP3    H232487   3.297   2.315   2.343 -0.8956  0.9989 -0.2862
 3618TIP3   OH232488   5.482   5.606   1.021  0.4510 -0.2792  0.2500
 3618TIP3    H132489   5.394   5.587   0.988 -0.6826  0.0526  2.8483
 3618TIP3    H232490   5.520   5.521   1.041 -0.1887 -0.3304  1.2683
 3619TIP3   OH232491   0.555   1.083   7.985  0.3087 -0.3237 -0.1064
 3619TIP3    H132492   0.484   1.039   7.937 -1.0247 -0.0810  1.5471
 3619TIP3    H232493   0.635   1.042   7.953 -0.4763 -0.0962 -2.6093
 3620TIP3   OH232494   0.742   1.854   1.939  0.0043 -0.1661 -0.6830
 3620TIP3    H132495   0.681   1.855   2.013 -1.2880 -0.2702 -1.7074
 3620TIP3    H232496   0.801   1.781   1.958 -0.2997 -0.1858  0.2455
 3621TIP3   OH232497   5.891   2.370   0.206 -0.0611 -0.2879  0.1607
 3621TIP3    H132498   5.845   2.378   0.123 -0.2802  0.2633  0.3265
 3621TIP3    H232499   5.963   2.311   0.188  0.4924  0.6165 -0.6850
 3622TIP3   OH232500   6.721   1.754   0.778  0.1746  0.0004  0.7961
 3622TIP3    H132501   6.708   1.831   0.723 -1.8611 -0.8876 -0.0615
 3622TIP3    H232502   6.815   1.753   0.796  0.4879  1.7819 -0.4858
 3623TIP3   OH232503   5.667   2.456   1.262  0.0511 -0.5654 -0.2448
 3623TIP3    H132504   5.673   2.481   1.170 -2.7858  0.4288 -0.2433
 3623TIP3    H232505   5.741   2.500   1.303 -1.4793  3.3622 -1.2465
 3624TIP3   OH232506   3.829   6.100   7.354 -0.0001  0.4264  0.2978
 3624TIP3    H132507   3.902   6.153   7.322  1.2852 -0.8158  1.0880
 3624TIP3    H232508   3.817   6.127   7.445  1.9026 -1.8375  1.3106
 3625TIP3   OH232509   6.098   4.410   0.712  0.1039  0.5128 -0.1204
 3625TIP3    H132510   6.089   4.505   0.717  0.3717  0.5374 -0.0940
 3625TIP3    H232511   6.191   4.395   0.693 -0.0274  0.2697 -0.5721
 3626TIP3   OH232512   6.271   1.556   6.293  0.3712 -0.5634  0.4075
 3626TIP3    H132513   6.319   1.588   6.369  1.9163 -1.2177 -0.2620
 3626TIP3    H232514   6.270   1.630   6.232  0.3625 -0.4967  0.4876
 3627TIP3   OH232515   6.787   2.330   2.539  0.0002 -0.8455 -0.2993
 3627TIP3    H132516   6.821   2.417   2.518 -0.2494 -0.5395  0.5151
 3627TIP3    H232517   6.702   2.326   2.496 -0.8379  0.0560  1.2085
 3628TIP3   OH232518   5.313   5.650   1.292  0.1921  0.4824 -0.0838
 3628TIP3    H132519   5.392   5.639   1.344 -0.2968 -0.2385  0.5257
 3628TIP3    H232520   5.332   5.608   1.208  1.2134  2.1948 -0.7750
 3629TIP3   OH232521   6.832   1.546   0.038 -0.5729 -0.4727 -0.9680
 3629TIP3    H132522   6.915   1.500   0.049 -1.2356 -2.4681 -3.4004
 3629TIP3    H232523   6.851   1.612  -0.029 -0.1070  1.7598  1.1860
 3630TIP3   OH232524   5.521   5.218   2.046  0.0519 -0.3946  0.3322
 3630TIP3    H132525   5.486   5.151   2.104  0.3069 -0.9009 -0.0889
 3630TIP3    H232526   5.524   5.298   2.099 -1.8435 -0.2925  0.3605
 3631TIP3   OH232527   0.904   3.264   8.577  0.1804 -0.6615 -0.0742
 3631TIP3    H132528   0.879   3.210   8.652  1.2666  0.5912  1.2534
 3631TIP3    H232529   0.984   3.308   8.606  0.4504  0.0843 -1.8744
 3632TIP3   OH232530   2.835   4.929   0.862 -0.3229  0.4250 -0.2484
 3632TIP3    H132531   2.886   4.859   0.901  1.0876  1.4915 -0.0952
 3632TIP3    H232532   2.849   5.004   0.920 -1.3332  1.0008 -0.7163
 3633TIP3   OH232533   4.532   1.421   1.978  0.1559  0.0095  0.1771
 3633TIP3    H132534   4.512   1.341   2.027  0.2863 -0.0318  0.1631
 3633TIP3    H232535   4.551   1.486   2.046 -0.6794  0.2266  0.2107
 3634TIP3   OH232536   6.646   3.553   0.283  0.8686  0.1396 -0.0157
 3634TIP3    H132537   6.609   3.557   0.195  0.2083  3.0774  0.3024
 3634TIP3    H232538   6.578   3.513   0.337  0.1392  0.9440 -0.3325
 3635TIP3   OH232539   5.048   2.200   7.639  0.5924  0.0733  0.1834
 3635TIP3    H132540   4.985   2.163   7.701  2.1569 -0.4436  1.5373
 3635TIP3    H232541   5.091   2.124   7.600  0.5798  0.4240 -0.5228
 3636TIP3   OH232542   5.736   0.970   7.459 -0.0975  0.2322 -0.0799
 3636TIP3    H132543   5.788   0.917   7.519 -1.3187  0.1921  0.9954
 3636TIP3    H232544   5.799   1.031   7.420  0.7400  0.2962  1.2991
 3637TIP3   OH232545   3.526   5.504   0.943  0.2220  0.1429  0.6368
 3637TIP3    H132546   3.492   5.415   0.934 -0.2609  0.4378 -0.6767
 3637TIP3    H232547   3.519   5.541   0.855  0.1374  1.5870  1.2299
 3638TIP3   OH232548   6.110   2.719   2.704 -0.2829 -0.8285 -0.5394
 3638TIP3    H132549   6.191   2.752   2.666  0.0487 -0.8317  0.1527
 3638TIP3    H232550   6.115   2.744   2.796 -1.5466  0.0859 -0.6962
 3639TIP3   OH232551   6.151   4.935   8.113  0.2522 -0.1362 -0.1955
 3639TIP3    H132552   6.105   4.861   8.151  0.0777  1.1208  2.2562
 3639TIP3    H232553   6.243   4.920   8.133  0.4181 -0.5168 -1.2200
 3640TIP3   OH232554   0.397   2.178   7.750  0.4037  0.2714 -0.3477
 3640TIP3    H132555   0.474   2.143   7.795 -1.5432 -0.4606  2.6357
 3640TIP3    H232556   0.363   2.104   7.700  0.6746  0.1420 -0.3443
 3641TIP3   OH232557   0.461   1.965   1.574 -0.5164 -0.1627 -0.1706
 3641TIP3    H132558   0.529   1.898   1.578 -0.0624  0.3202  0.5333
 3641TIP3    H232559   0.497   2.039   1.624 -0.6194  0.9609 -1.6891
 3642TIP3   OH232560   6.056   0.010   7.587  0.2658 -0.2556 -0.2406
 3642TIP3    H132561   6.020   0.088   7.629  1.0705 -0.5021  0.9542
 3642TIP3    H232562   6.151   0.025   7.585  0.3407 -0.7386 -0.9909
 3643TIP3   OH232563   1.366   0.957   2.472 -0.3896  0.0568 -0.2918
 3643TIP3    H132564   1.442   0.912   2.508  0.7660  1.2721 -1.1269
 3643TIP3    H232565   1.310   0.975   2.549  0.9013  0.5236  0.5656
 3644TIP3   OH232566   3.645   6.919   1.659  0.0288 -0.0064 -0.0826
 3644TIP3    H132567   3.650   6.859   1.584 -0.5061 -1.9798  1.3541
 3644TIP3    H232568   3.688   6.871   1.730 -1.2567  0.9282  1.3871
 3645TIP3   OH232569   6.664   2.060   2.471  0.3319 -0.6224 -0.2169
 3645TIP3    H132570   6.679   2.116   2.394  0.2724  1.0098  0.9084
 3645TIP3    H232571   6.660   1.971   2.435  1.3003 -0.0157 -1.9702
 3646TIP3   OH232572   1.271   6.871   7.264  0.3768 -0.0922 -0.0531
 3646TIP3    H132573   1.289   6.964   7.250  1.9400 -0.5171 -1.0040
 3646TIP3    H232574   1.253   6.865   7.358  0.0875  1.1788 -0.0029
 3647TIP3   OH232575   5.471   3.118   2.294 -0.4625  0.1310  0.1377
 3647TIP3    H132576   5.503   3.199   2.254  2.1230 -0.0319  1.6842
 3647TIP3    H232577   5.449   3.061   2.221  0.0046  1.3527 -0.9775
 3648TIP3   OH232578   3.272   3.715   2.365  0.0304 -0.3911 -0.2703
 3648TIP3    H132579   3.208   3.652   2.331  0.6820 -0.4425 -1.4422
 3648TIP3    H232580   3.278   3.693   2.458 -1.0796 -0.8828 -0.2876
 3649TIP3   OH232581   0.480   1.436   8.259 -0.5594 -0.1083  0.2218
 3649TIP3    H132582   0.394   1.418   8.221 -1.1136 -0.5440  1.6200
 3649TIP3    H232583   0.541   1.424   8.186 -1.7286  0.8699 -0.9582
 3650TIP3   OH232584   1.077   2.544   1.472 -0.1312  0.6388 -0.1142
 3650TIP3    H132585   1.085   2.601   1.548  0.6460 -0.1627  0.4125
 3650TIP3    H232586   1.127   2.589   1.403 -0.9772  1.4470 -0.2208
 3651TIP3   OH232587   2.554   1.642   6.622 -0.2204  0.0668 -0.5457
 3651TIP3    H132588   2.486   1.626   6.557 -0.1795 -0.9494 -0.3572
 3651TIP3    H232589   2.506   1.652   6.704 -0.2125  0.5428 -0.5925
 3652TIP3   OH232590   3.011   0.977   1.179  0.2283 -0.0779 -0.1290
 3652TIP3    H132591   3.095   0.970   1.225 -0.1301  0.2446  0.5918
 3652TIP3    H232592   2.971   0.891   1.189  0.0172  0.0822  0.4400
 3653TIP3   OH232593   3.851   4.660   7.453 -0.9271  0.3995 -0.4840
 3653TIP3    H132594   3.817   4.586   7.401  1.0340  0.2012 -1.5724
 3653TIP3    H232595   3.933   4.628   7.490 -0.6238  1.6634 -0.0172
 3654TIP3   OH232596   3.366   3.390   6.378  0.0910  0.2591 -0.0607
 3654TIP3    H132597   3.304   3.440   6.325 -0.2130  1.5087  1.4157
 3654TIP3    H232598   3.319   3.309   6.399  0.3669 -0.4304 -1.9845
 3655TIP3   OH232599   4.984   5.769   1.930 -0.3065  0.5322 -0.0043
 3655TIP3    H132600   4.894   5.802   1.930 -0.1992  0.8390 -0.3867
 3655TIP3    H232601   5.006   5.757   2.022 -1.1901 -0.8053  0.0578
 3656TIP3   OH232602   5.773   2.517   1.624 -0.1479  0.6557  0.3331
 3656TIP3    H132603   5.820   2.556   1.551 -0.7327 -1.0890 -1.0440
 3656TIP3    H232604   5.834   2.522   1.698  0.5970  2.0963 -0.3502
 3657TIP3   OH232605   3.729   3.460   7.895 -0.0380  0.2988  0.3082
 3657TIP3    H132606   3.795   3.417   7.841 -1.5835 -2.6712  0.5235
 3657TIP3    H232607   3.661   3.486   7.834  0.8430  2.5273  0.1964
 3658TIP3   OH232608   1.678   5.931   7.203 -0.2498  0.1192  0.7907
 3658TIP3    H132609   1.690   5.916   7.110  3.4954  1.3534  0.8917
 3658TIP3    H232610   1.669   6.026   7.211 -0.0398  0.0725  1.6974
 3659TIP3   OH232611   5.538   0.024   1.565  0.3018  0.4394 -0.4896
 3659TIP3    H132612   5.549   0.066   1.651 -1.9508  0.0970  0.0115
 3659TIP3    H232613   5.546   0.096   1.502 -1.9496  1.4354  0.2696
 3660TIP3   OH232614   4.861   0.750   7.339 -0.0039  0.2755  0.0937
 3660TIP3    H132615   4.796   0.789   7.281 -2.5872 -2.3633  0.9535
 3660TIP3    H232616   4.810   0.711   7.409  2.6830 -0.5460  1.7393
 3661TIP3   OH232617   5.633   5.190   6.711  0.1003 -0.4350 -0.0053
 3661TIP3    H132618   5.678   5.174   6.795 -0.5529 -1.0449  0.2383
 3661TIP3    H232619   5.603   5.103   6.684  0.5564 -0.2798 -1.0230
 3662TIP3   OH232620   3.821   6.887   7.811 -0.0682  0.4048  0.4301
 3662TIP3    H132621   3.884   6.874   7.740  0.0690  1.2146  0.4005
 3662TIP3    H232622   3.861   6.844   7.887 -0.5915 -1.1917 -0.1614
 3663TIP3   OH232623   0.878   6.114   0.340  0.0724  0.7017 -0.1785
 3663TIP3    H132624   0.866   6.021   0.321  0.3584 -0.2439  3.5098
 3663TIP3    H232625   0.789   6.147   0.352 -0.1177  1.3356 -2.8173
 3664TIP3   OH232626   6.527   1.686   7.845  0.5925  0.4091 -0.0338
 3664TIP3    H132627   6.442   1.656   7.814  0.4362  0.8510 -0.0418
 3664TIP3    H232628   6.511   1.774   7.878  0.9620  0.3249  0.3726
 3665TIP3   OH232629   0.634   0.292   6.464 -0.1299  0.4860  0.4268
 3665TIP3    H132630   0.679   0.364   6.419  0.7178 -0.3170 -0.0434
 3665TIP3    H232631   0.646   0.217   6.406 -1.5005  0.0847  0.6263
 3666TIP3   OH232632   3.552   6.482   8.135  0.1320 -0.4382 -0.6699
 3666TIP3    H132633   3.519   6.559   8.180  0.2703 -0.7015 -0.1081
 3666TIP3    H232634   3.523   6.492   8.044  1.8277  1.2708 -1.0944
 3667TIP3   OH232635   4.012   4.283   7.677 -0.3415 -0.4769 -0.3611
 3667TIP3    H132636   4.053   4.199   7.659  0.3938 -0.2459  0.1650
 3667TIP3    H232637   4.062   4.346   7.625 -0.2913 -0.2466 -0.0384
 3668TIP3   OH232638   5.152   0.544   8.224  0.0177 -0.5660  0.0153
 3668TIP3    H132639   5.143   0.638   8.240  0.2048 -0.7107  1.0592
 3668TIP3    H232640   5.136   0.504   8.309  2.3057 -1.3239  0.1706
 3669TIP3   OH232641   5.594   2.584   8.499 -0.3755  0.0579  0.1541
 3669TIP3    H132642   5.618   2.495   8.473  0.9687  0.3811  0.1978
 3669TIP3    H232643   5.626   2.592   8.589 -0.2276  0.6661  0.0535
 3670TIP3   OH232644   1.780   5.007   8.526 -0.0530 -0.1939  0.2382
 3670TIP3    H132645   1.857   5.062   8.510 -0.5318 -0.2024 -2.5711
 3670TIP3    H232646   1.786   4.937   8.461 -0.8212 -2.0556  2.0635
 3671TIP3   OH232647   4.362   6.064   7.874  0.8446 -0.4188 -0.3096
 3671TIP3    H132648   4.367   5.981   7.923  0.4994 -0.9911 -1.2173
 3671TIP3    H232649   4.300   6.046   7.804 -2.0261  1.6217  1.4649
 3672TIP3   OH232650   5.008   4.039   7.797 -0.1014  0.2231 -0.0746
 3672TIP3    H132651   5.095   4.078   7.797  0.3598 -0.6529  2.1464
 3672TIP3    H232652   4.972   4.060   7.884 -1.7927 -0.1002 -0.6592
 3673TIP3   OH232653   2.211   6.131   1.331  0.4474 -0.4733 -0.2595
 3673TIP3    H132654   2.270   6.198   1.295 -1.3490  0.9798 -0.6892
 3673TIP3    H232655   2.226   6.054   1.277  1.6212  0.0037 -0.6362
 3674TIP3   OH232656   3.107   2.200   1.869 -0.3026  0.2251 -0.0351
 3674TIP3    H132657   3.068   2.164   1.948  1.7336  0.1662  1.0011
 3674TIP3    H232658   3.154   2.278   1.899 -0.2363  0.7130 -1.3425
 3675TIP3   OH232659   6.302   2.491   7.813  0.4032  0.4110 -0.3386
 3675TIP3    H132660   6.303   2.495   7.909 -0.4299 -0.7772 -0.2607
 3675TIP3    H232661   6.327   2.401   7.793  2.3140  1.0887 -1.3223
 3676TIP3   OH232662   0.852   2.528   7.375 -0.3301 -0.3662  0.2006
 3676TIP3    H132663   0.898   2.447   7.352 -1.6755 -2.3419  3.7103
 3676TIP3    H232664   0.770   2.524   7.326 -0.0426 -0.7065 -0.2629
 3677TIP3   OH232665   6.309   2.989   1.654  0.1824  0.4033 -0.0595
 3677TIP3    H132666   6.336   3.014   1.742 -0.4728  1.1935 -0.0718
 3677TIP3    H232667   6.247   3.057   1.627 -0.2571 -0.2706 -0.8103
 3678TIP3   OH232668   6.652   3.614   1.430 -0.8629 -0.1300 -0.4861
 3678TIP3    H132669   6.712   3.545   1.402 -1.8973 -1.3808  0.2593
 3678TIP3    H232670   6.566   3.585   1.400 -1.3675  0.6532  0.1515
 3679TIP3   OH232671   0.891   4.180   6.600 -0.2688 -0.4843 -0.1296
 3679TIP3    H132672   0.978   4.170   6.638  1.6488  1.5035 -3.4763
 3679TIP3    H232673   0.871   4.094   6.562  0.0057 -1.0683  1.0051
 3680TIP3   OH232674   4.403   6.419   8.187 -0.1357 -0.0306  0.0375
 3680TIP3    H132675   4.327   6.453   8.139 -1.0687 -0.6936  0.9884
 3680TIP3    H232676   4.476   6.472   8.157 -1.2968  1.9232  0.4859
 3681TIP3   OH232677   1.430   0.500   7.563  0.6413 -0.2569  0.4249
 3681TIP3    H132678   1.375   0.578   7.553  1.2229  0.1116  0.0097
 3681TIP3    H232679   1.514   0.525   7.523  1.7350 -0.1633  2.6363
 3682TIP3   OH232680   4.283   3.229   1.585 -0.9185  0.0849 -0.3178
 3682TIP3    H132681   4.199   3.207   1.625  0.1954  0.3534  2.3650
 3682TIP3    H232682   4.348   3.206   1.651  0.8994  3.4884 -0.6759
 3683TIP3   OH232683   2.113   1.121   1.438 -0.3391 -0.2659 -0.1593
 3683TIP3    H132684   2.162   1.133   1.519  0.7357  1.4172 -1.0111
 3683TIP3    H232685   2.173   1.075   1.380  0.4829  2.2028 -1.3635
 3684TIP3   OH232686   2.657   3.537   6.468  0.0753 -0.2459 -0.8770
 3684TIP3    H132687   2.725   3.598   6.496 -1.4179  0.7797  0.7253
 3684TIP3    H232688   2.583   3.556   6.526 -2.0296 -0.4481 -3.3227
 3685TIP3   OH232689   0.557   6.432   1.313 -0.3079 -0.2865 -0.2443
 3685TIP3    H132690   0.541   6.377   1.236 -0.3588 -1.4600  0.5791
 3685TIP3    H232691   0.471   6.437   1.356 -0.4412  0.9397 -0.6024
 3686TIP3   OH232692   2.498   5.208   7.050 -0.3673  0.4202  0.1320
 3686TIP3    H132693   2.440   5.280   7.024 -1.8585 -0.4394  0.8855
 3686TIP3    H232694   2.497   5.210   7.146  0.1697 -0.1476  0.1558
 3687TIP3   OH232695   3.694   3.840   0.574  0.0534  0.0315 -0.6114
 3687TIP3    H132696   3.676   3.921   0.527 -1.1839 -0.6994 -1.4498
 3687TIP3    H232697   3.751   3.867   0.647 -0.0804  1.5843 -1.0405
 3688TIP3   OH232698   6.766   5.861   1.923  0.2164 -0.0997 -0.1440
 3688TIP3    H132699   6.818   5.937   1.951  1.4674 -1.4759  1.4505
 3688TIP3    H232700   6.686   5.866   1.976  0.4539 -0.1129  0.2123
 3689TIP3   OH232701   3.583   0.049   7.752  0.0978 -0.3704  0.0853
 3689TIP3    H132702   3.588   0.134   7.709  0.4220  0.0467  0.9299
 3689TIP3    H232703   3.667   0.007   7.734  0.3379 -0.0841  0.5479
 3690TIP3   OH232704   2.091   1.023   0.564 -0.0143 -0.5016  0.4994
 3690TIP3    H132705   2.037   1.098   0.536 -2.3034 -1.5240  1.8858
 3690TIP3    H232706   2.181   1.056   0.562 -0.9177  2.2427  0.9244
 3691TIP3   OH232707   2.732   4.023   2.003 -0.1436  0.6448 -0.1280
 3691TIP3    H132708   2.769   4.055   2.086 -0.0318  2.1757 -0.7439
 3691TIP3    H232709   2.661   4.083   1.984 -1.1054 -0.5464 -0.4499
 3692TIP3   OH232710   3.619   5.824   2.356 -0.2276  0.4998  0.2938
 3692TIP3    H132711   3.672   5.890   2.401 -0.3163  0.6297  0.2099
 3692TIP3    H232712   3.570   5.874   2.290 -0.7200  0.4309  0.6078
 3693TIP3   OH232713   4.837   0.624   6.674 -0.0849 -0.8001 -0.3919
 3693TIP3    H132714   4.880   0.670   6.602  2.1217 -0.5842  0.9806
 3693TIP3    H232715   4.755   0.592   6.636  0.6878 -0.1516 -2.8003
 3694TIP3   OH232716   3.968   4.219   0.699 -0.3537  0.0807 -0.5220
 3694TIP3    H132717   3.919   4.301   0.688 -0.8409 -0.2380 -0.7324
 3694TIP3    H232718   3.907   4.159   0.741  0.7591  0.5731  1.9795
 3695TIP3   OH232719   5.910   0.269   0.603  0.5438  0.3363 -0.4245
 3695TIP3    H132720   5.971   0.253   0.674  0.3839 -0.9768 -0.5622
 3695TIP3    H232721   5.963   0.307   0.533  1.8950 -3.2938 -1.6006
 3696TIP3   OH232722   4.311   0.044   7.716 -0.0561  0.7853  0.3722
 3696TIP3    H132723   4.320   0.126   7.668  1.5379  0.7535  0.5886
 3696TIP3    H232724   4.396   0.029   7.756 -0.3227 -0.9748  0.3649
 3697TIP3   OH232725   5.164   4.900   7.237  0.5232 -0.1405  0.0089
 3697TIP3    H132726   5.241   4.844   7.246  0.1186 -0.8229 -0.6093
 3697TIP3    H232727   5.103   4.847   7.185 -0.0206  0.7324 -0.2489
 3698TIP3   OH232728   3.121   0.859   0.921 -0.1843  0.9233  0.3293
 3698TIP3    H132729   3.182   0.927   0.893 -0.4619  1.2259  0.4433
 3698TIP3    H232730   3.092   0.887   1.008  1.0005 -0.2346  1.1282
 3699TIP3   OH232731   5.278   2.394   1.786 -0.2030  0.1996  0.3778
 3699TIP3    H132732   5.273   2.329   1.855 -1.3129 -0.5099 -0.3453
 3699TIP3    H232733   5.351   2.366   1.731 -1.2496 -0.9901 -0.4507
 3700TIP3   OH232734   2.046   5.731   2.210 -0.6663 -0.4949  0.1250
 3700TIP3    H132735   2.031   5.701   2.120  1.5155  0.9763 -0.8084
 3700TIP3    H232736   2.083   5.655   2.255  0.1934 -0.6719 -0.8390
 3701TIP3   OH232737   2.535   1.349   7.215 -0.6342  0.2934  0.4069
 3701TIP3    H132738   2.628   1.366   7.198 -0.7940  1.1563  0.3803
 3701TIP3    H232739   2.495   1.436   7.220 -1.5078 -0.0803  0.0513
 3702TIP3   OH232740   1.473   4.497   7.119  0.2301  0.2772  0.5115
 3702TIP3    H132741   1.484   4.406   7.145 -0.5218 -0.3843 -1.3441
 3702TIP3    H232742   1.554   4.540   7.147  2.2585 -1.7528 -1.7796
 3703TIP3   OH232743   3.715   0.660   7.463  0.7567 -0.0883  0.0782
 3703TIP3    H132744   3.775   0.694   7.397 -0.5131  2.0900 -0.0689
 3703TIP3    H232745   3.766   0.595   7.511  3.2282  1.6240 -0.0389
 3704TIP3   OH232746   4.386   1.624   0.561  0.0936 -0.3985  0.6875
 3704TIP3    H132747   4.332   1.566   0.507 -1.6237  0.5603  1.3147
 3704TIP3    H232748   4.336   1.705   0.567  0.9709  0.0603  2.4294
 3705TIP3   OH232749   6.417   0.896   1.090 -0.6263  0.1515  0.0735
 3705TIP3    H132750   6.377   0.980   1.067  0.6338  0.6310 -0.4080
 3705TIP3    H232751   6.456   0.864   1.009 -0.0089 -0.3044  0.5397
 3706TIP3   OH232752   4.563   0.960   0.082  0.6088  0.5508 -0.4831
 3706TIP3    H132753   4.488   0.908   0.054  0.9196  0.5674 -1.3944
 3706TIP3    H232754   4.531   1.050   0.084  0.4775  0.5023 -0.4012
 3707TIP3   OH232755   3.626   1.967   0.346  0.3140 -0.1391  0.1679
 3707TIP3    H132756   3.562   2.030   0.379  1.9783  0.9888  1.3863
 3707TIP3    H232757   3.589   1.881   0.367 -1.8049  0.3873 -1.1525
 3708TIP3   OH232758   1.841   4.628   0.778  0.1680 -0.1445 -0.2376
 3708TIP3    H132759   1.807   4.541   0.755  1.9294 -1.1566  0.7135
 3708TIP3    H232760   1.867   4.667   0.694 -0.7664 -0.4611 -0.6883
 3709TIP3   OH232761   2.493   3.342   2.073 -0.7319  0.2751  0.5805
 3709TIP3    H132762   2.450   3.332   2.158 -2.9387  0.1484 -0.4856
 3709TIP3    H232763   2.465   3.266   2.022 -2.2584  1.9822 -1.3396
 3710TIP3   OH232764   5.991   3.937   2.041  0.0519 -0.1191 -0.0519
 3710TIP3    H132765   6.068   3.989   2.065  0.6474 -1.2325  0.5411
 3710TIP3    H232766   5.970   3.889   2.121  0.0208 -1.3935 -0.8081
 3711TIP3   OH232767   4.443   5.618   8.025  0.0203  0.2720  0.4445
 3711TIP3    H132768   4.428   5.527   8.052  0.9056  0.2794  1.0034
 3711TIP3    H232769   4.533   5.620   7.993 -0.1714  0.8393 -0.0817
 3712TIP3   OH232770   4.587   1.525   7.106  0.4101  0.5852  0.5996
 3712TIP3    H132771   4.583   1.446   7.053  1.8782  0.8478  0.0431
 3712TIP3    H232772   4.679   1.530   7.135  0.3524  2.0744  0.6181
 3713TIP3   OH232773   4.140   6.387   7.597  0.4176  0.6491 -0.4083
 3713TIP3    H132774   4.053   6.355   7.622  0.2397  0.0379 -1.7501
 3713TIP3    H232775   4.182   6.313   7.555  2.0448  0.5929  1.1860
 3714TIP3   OH232776   5.365   0.605   0.503  0.0348  0.0549 -0.1353
 3714TIP3    H132777   5.442   0.586   0.449 -1.5936 -2.6361 -1.7605
 3714TIP3    H232778   5.387   0.686   0.548  3.4512 -0.1319 -1.1574
 3715TIP3   OH232779   2.828   5.252   1.723  0.1034  0.1877 -0.1152
 3715TIP3    H132780   2.904   5.198   1.746 -0.5151 -1.3918 -1.5651
 3715TIP3    H232781   2.784   5.270   1.806 -0.8779 -3.4628  0.2966
 3716TIP3   OH232782   3.988   3.935   2.516  0.0079  0.1118  0.3287
 3716TIP3    H132783   3.945   3.959   2.598 -0.8360  1.2389 -0.4104
 3716TIP3    H232784   3.920   3.946   2.450  0.7961 -0.3517 -0.5800
 3717TIP3   OH232785   2.768   1.170   8.286 -0.0448 -0.4249  0.1855
 3717TIP3    H132786   2.802   1.259   8.296  1.4523 -1.1407  2.0413
 3717TIP3    H232787   2.811   1.120   8.354 -0.2904 -2.7704 -1.2690
 3718TIP3   OH232788   3.804   4.021   8.346  0.0976  0.0589  0.0582
 3718TIP3    H132789   3.737   4.066   8.397  0.3542  0.7300 -0.1924
 3718TIP3    H232790   3.755   3.956   8.295 -0.1473 -0.6634  1.1948
 3719TIP3   OH232791   3.490   0.140   1.422  0.1188 -0.0276  0.1461
 3719TIP3    H132792   3.533   0.074   1.477 -1.5744 -0.0675  1.5313
 3719TIP3    H232793   3.552   0.213   1.420 -0.0090  0.2748  2.8152
 3720TIP3   OH232794   5.743   1.513   6.675  0.2362 -0.0525  0.3870
 3720TIP3    H132795   5.704   1.440   6.627 -0.3792  0.3749  0.2255
 3720TIP3    H232796   5.835   1.488   6.687 -0.4646 -2.0035  2.5083
 3721TIP3   OH232797   3.194   0.963   8.358 -0.2484  0.3577  0.0201
 3721TIP3    H132798   3.206   0.942   8.266  0.1044  1.9542 -0.3338
 3721TIP3    H232799   3.208   0.880   8.404  1.4869 -0.0959 -1.2158
 3722TIP3   OH232800   2.062   5.078   0.735  0.0683  0.5702  0.7658
 3722TIP3    H132801   1.987   5.057   0.791 -1.0258  0.6326 -0.6200
 3722TIP3    H232802   2.084   5.168   0.756  0.8023  0.0546  2.3209
 3723TIP3   OH232803   6.904   5.049   0.034 -0.4624 -0.4487 -0.5234
 3723TIP3    H132804   6.896   5.141   0.010  1.3674  0.2477  1.2330
 3723TIP3    H232805   6.858   5.002  -0.035 -2.4881  1.8239 -0.8552
 3724TIP3   OH232806   3.404   5.592   2.415  0.4152 -0.3785  0.6515
 3724TIP3    H132807   3.389   5.649   2.490  0.1008  1.0466 -0.4595
 3724TIP3    H232808   3.495   5.563   2.425  0.2904 -0.4409  1.7221
 3725TIP3   OH232809   3.635   5.472   2.543  0.4816 -0.5004 -0.0436
 3725TIP3    H132810   3.706   5.430   2.495  0.8802  1.7518 -1.5985
 3725TIP3    H232811   3.580   5.400   2.573  1.8072 -2.1622 -1.4086
 3726TIP3   OH232812   0.403   0.965   1.005  0.5457 -0.1133  0.2889
 3726TIP3    H132813   0.402   0.903   0.932 -0.1639  0.6482 -0.3708
 3726TIP3    H232814   0.415   1.050   0.963  1.6872  0.2018  1.1964
 3727TIP3   OH232815   3.062   6.943   0.236  0.0826  0.2536  0.2078
 3727TIP3    H132816   3.064   6.847   0.242 -3.1685 -0.0324 -0.9246
 3727TIP3    H232817   3.026   6.971   0.320 -1.0461  0.2385 -0.2488
 3728TIP3   OH232818   6.324   1.775   6.944  0.2561 -0.2795 -0.1169
 3728TIP3    H132819   6.371   1.693   6.930  1.2957  0.1443  0.7757
 3728TIP3    H232820   6.350   1.830   6.870 -0.6044 -0.8064 -0.8285
 3729TIP3   OH232821   4.996   2.432   1.153 -0.3073  0.2888  0.7642
 3729TIP3    H132822   5.091   2.440   1.162 -0.5777  3.5049  2.2656
 3729TIP3    H232823   4.970   2.508   1.102 -2.1804  0.0959  1.3424
 3730TIP3   OH232824   5.126   3.054   0.135  0.8297 -0.7077 -0.3320
 3730TIP3    H132825   5.102   3.080   0.047 -1.5443 -0.3387  0.3387
 3730TIP3    H232826   5.103   3.130   0.190 -1.6036 -2.2974  1.0462
 3731TIP3   OH232827   6.295   6.388   1.487 -0.4055 -1.1020 -0.0292
 3731TIP3    H132828   6.235   6.358   1.419  1.1938 -1.5806 -1.2703
 3731TIP3    H232829   6.329   6.308   1.527  1.0586 -0.9171 -0.8422
 3732TIP3   OH232830   6.469   3.033   8.157  0.1325 -0.0266  0.6594
 3732TIP3    H132831   6.415   3.105   8.127 -0.0001  0.1712  1.3669
 3732TIP3    H232832   6.490   2.984   8.077 -0.8637  0.0399  0.3530
 3733TIP3   OH232833   2.537   6.869   0.455 -0.2624  0.4638 -0.2505
 3733TIP3    H132834   2.588   6.948   0.474  1.1182 -0.2601 -0.8365
 3733TIP3    H232835   2.593   6.817   0.399 -0.6173 -1.5228  1.1313
 3734TIP3   OH232836   2.987   6.314   0.747  0.5689 -0.4615  0.2423
 3734TIP3    H132837   3.044   6.376   0.702 -0.1458  0.1446  0.1500
 3734TIP3    H232838   3.016   6.315   0.838 -0.0848  0.7881  0.4539
 3735TIP3   OH232839   1.468   0.362   0.819  0.5052  0.5223 -0.1430
 3735TIP3    H132840   1.435   0.276   0.843  0.6446  0.8039  1.1126
 3735TIP3    H232841   1.557   0.347   0.789  0.1919  0.1120 -0.8935
 3736TIP3   OH232842   1.749   3.210   0.389 -0.1708  0.0987 -0.1211
 3736TIP3    H132843   1.833   3.228   0.431  0.0238  0.2139 -0.5565
 3736TIP3    H232844   1.764   3.129   0.340 -0.5594 -0.3491  0.4761
 3737TIP3   OH232845   5.731   1.044   2.077  0.0443 -0.4415  0.1754
 3737TIP3    H132846   5.824   1.067   2.073 -0.1590  0.4411  0.4798
 3737TIP3    H232847   5.723   0.969   2.018  1.2519 -1.5797  1.3973
 3738TIP3   OH232848   4.965   5.545   1.363  0.0993 -0.0319  0.0027
 3738TIP3    H132849   4.894   5.543   1.299  0.5556 -0.1788 -0.5046
 3738TIP3    H232850   4.921   5.553   1.447 -0.4893  1.3209 -0.3925
 3739TIP3   OH232851   0.282   5.060   6.474 -0.1231  0.4974  1.0810
 3739TIP3    H132852   0.366   5.016   6.458  0.2581  1.2514  0.9716
 3739TIP3    H232853   0.307   5.142   6.516 -0.7482  1.1687  0.1593
 3740TIP3   OH232854   1.939   6.492   8.568 -0.5948  0.3422  0.5128
 3740TIP3    H132855   1.908   6.412   8.610 -0.7522  0.8730  1.4412
 3740TIP3    H232856   1.962   6.550   8.641  0.5160  0.7594 -0.1410
 3741TIP3   OH232857   5.586   0.718   1.748  1.0901  0.4916  0.3129
 3741TIP3    H132858   5.580   0.626   1.772  1.3225  0.3907 -0.0095
 3741TIP3    H232859   5.608   0.763   1.830  2.3097  0.0997  0.2246
 3742TIP3   OH232860   4.980   5.282   7.677 -0.4696  0.0438 -0.2702
 3742TIP3    H132861   4.968   5.348   7.745 -0.1382  0.4111 -0.5654
 3742TIP3    H232862   5.062   5.238   7.699  0.9728  1.8090 -1.7556
 3743TIP3   OH232863   0.903   2.812   0.174 -0.2180 -0.1288  0.3905
 3743TIP3    H132864   0.985   2.856   0.196  0.3246 -1.5721  1.4175
 3743TIP3    H232865   0.845   2.882   0.146  1.1081  1.0239  0.4027
 3744TIP3   OH232866   4.132   2.873   1.681 -0.3231 -0.8118 -0.3803
 3744TIP3    H132867   4.096   2.906   1.763 -1.5751 -1.1658 -0.7565
 3744TIP3    H232868   4.227   2.879   1.692 -0.4793 -0.1821  0.8044
 3745TIP3   OH232869   6.623   2.424   8.082 -0.1002 -0.6854 -0.1064
 3745TIP3    H132870   6.528   2.436   8.079 -0.0475 -0.2512 -0.0709
 3745TIP3    H232871   6.654   2.488   8.146  0.5064  1.1896 -2.1531
 3746TIP3   OH232872   5.026   6.721   1.944 -0.0852  0.6739  0.1233
 3746TIP3    H132873   4.976   6.799   1.922  1.4911  1.7723  0.2573
 3746TIP3    H232874   5.062   6.739   2.031  0.4437 -0.1047  0.0776
 3747TIP3   OH232875   5.243   4.536   0.103 -0.2275 -0.2888  0.4949
 3747TIP3    H132876   5.165   4.591   0.101  0.8121  1.2277  0.1340
 3747TIP3    H232877   5.316   4.596   0.090  1.1150 -1.4870  2.0322
 3748TIP3   OH232878   3.330   4.934   7.216 -0.0030 -0.0376  0.1071
 3748TIP3    H132879   3.399   4.893   7.166 -0.7963 -1.3215  0.0281
 3748TIP3    H232880   3.356   4.922   7.308 -0.2935 -0.8377  0.0873
 3749TIP3   OH232881   3.597   6.653   7.244 -0.3722  0.4387  0.3012
 3749TIP3    H132882   3.656   6.661   7.319  0.4004 -0.1419 -0.2315
 3749TIP3    H232883   3.653   6.624   7.172 -1.3064 -0.1146 -0.2237
 3750TIP3   OH232884   6.623   0.600   0.096 -0.5264 -0.1854 -0.2194
 3750TIP3    H132885   6.533   0.568   0.103 -0.8300 -0.1261 -2.8996
 3750TIP3    H232886   6.614   0.694   0.078  0.1011 -0.0466  0.1726
 3751TIP3   OH232887   0.829   5.553   0.238 -0.2966 -0.3878 -0.2144
 3751TIP3    H132888   0.875   5.500   0.303  2.3308 -1.1830 -2.5024
 3751TIP3    H232889   0.874   5.638   0.240 -1.2953  0.1449  0.1176
 3752TIP3   OH232890   5.897   4.621   8.005  0.0477  0.0242  0.1285
 3752TIP3    H132891   5.882   4.683   7.934  1.4095 -1.1262 -1.2375
 3752TIP3    H232892   5.853   4.541   7.976  0.3726 -0.3814  0.7371
 3753TIP3   OH232893   1.124   3.545   8.396  0.2943 -0.2538  0.2237
 3753TIP3    H132894   1.052   3.590   8.351 -0.8403 -0.6626  1.5620
 3753TIP3    H232895   1.127   3.458   8.356 -0.4911 -0.4996  0.6676
 3754TIP3   OH232896   4.773   2.510   8.195  0.0030 -0.1817 -0.3467
 3754TIP3    H132897   4.729   2.594   8.210 -0.2191 -0.5029  0.8769
 3754TIP3    H232898   4.711   2.445   8.229  0.3841 -0.8103 -0.8473
 3755TIP3   OH232899   2.786   2.701   8.256 -0.0068  0.2778 -0.2682
 3755TIP3    H132900   2.804   2.621   8.207  0.4623  0.3545 -0.2221
 3755TIP3    H232901   2.714   2.676   8.315  0.4762 -0.2594  0.1068
 3756TIP3   OH232902   0.760   3.082   1.203 -0.1665  0.1384  0.1441
 3756TIP3    H132903   0.717   3.081   1.289  0.0656  2.8174  0.3895
 3756TIP3    H232904   0.690   3.108   1.142  0.3292  1.2004  0.0145
 3757TIP3   OH232905   4.179   2.130   7.816 -0.2633 -0.1910 -0.1356
 3757TIP3    H132906   4.088   2.124   7.786 -0.5686 -0.0339  0.7212
 3757TIP3    H232907   4.222   2.052   7.780 -1.2702 -1.4154  1.2187
 3758TIP3   OH232908   2.054   6.577   0.232  0.0549  0.2637  0.0888
 3758TIP3    H132909   2.146   6.580   0.208  1.0700 -0.0321  3.4977
 3758TIP3    H232910   2.051   6.523   0.311 -3.1343 -0.2110 -0.2251
 3759TIP3   OH232911   5.418   1.068   0.032 -0.6015 -0.1987 -0.1520
 3759TIP3    H132912   5.345   1.020   0.071 -0.3779 -0.8830 -0.5530
 3759TIP3    H232913   5.481   1.000   0.008 -0.1938  0.3146 -0.5607
 3760TIP3   OH232914   0.452   5.597   6.725 -0.0317 -0.0653 -0.0037
 3760TIP3    H132915   0.407   5.518   6.697 -2.4880  1.5052 -0.8290
 3760TIP3    H232916   0.543   5.570   6.738 -0.9192 -3.1523  0.5183
 3761TIP3   OH232917   5.294   1.643   6.430 -0.2410 -0.7635 -0.6171
 3761TIP3    H132918   5.293   1.628   6.525  1.5343 -0.7119 -0.5551
 3761TIP3    H232919   5.387   1.652   6.408 -0.4558 -2.5629 -2.6433
 3762TIP3   OH232920   3.930   5.099   2.040  0.0579  0.6279 -0.4583
 3762TIP3    H132921   3.896   5.101   1.951  0.7528 -0.6031 -0.7826
 3762TIP3    H232922   3.871   5.154   2.090 -1.1342  0.2500 -1.4109
 3763TIP3   OH232923   2.127   2.130   6.796 -0.0565 -0.2314  0.0105
 3763TIP3    H132924   2.120   2.155   6.704 -1.6425 -0.9990 -0.1008
 3763TIP3    H232925   2.175   2.048   6.795 -2.3531 -1.6660 -0.4377
 3764TIP3   OH232926   3.780   2.191   1.427  0.0003  0.3914 -0.2636
 3764TIP3    H132927   3.728   2.169   1.505  0.9299 -1.1042  0.0034
 3764TIP3    H232928   3.717   2.196   1.356 -0.6716 -0.0516  0.2824
 3765TIP3   OH232929   5.930   2.985   0.631  0.4329  0.3289  0.2991
 3765TIP3    H132930   5.887   2.944   0.706  1.1027  0.4948  0.7821
 3765TIP3    H232931   5.942   3.076   0.656  2.3800 -0.0167  0.7984
 3766TIP3   OH232932   5.893   2.264   1.931  0.1669 -0.5589 -0.2413
 3766TIP3    H132933   5.903   2.216   2.013  0.0254 -1.6119 -0.8338
 3766TIP3    H232934   5.943   2.345   1.945  0.4504 -0.8912  0.7441
 3767TIP3   OH232935   3.914   1.870   7.900  0.3882 -0.0114  0.3742
 3767TIP3    H132936   3.900   1.954   7.857  1.3366 -0.6892 -1.3892
 3767TIP3    H232937   3.931   1.892   7.991 -0.4690  1.6125  0.1771
 3768TIP3   OH232938   4.997   3.529   1.743  0.6588 -0.0862  0.1296
 3768TIP3    H132939   5.015   3.563   1.655 -0.0939  0.6360  0.2518
 3768TIP3    H232940   4.956   3.444   1.727  1.6287 -0.5196 -0.1851
 3769TIP3   OH232941   3.286   1.261   7.039  0.2340 -0.1143 -0.8114
 3769TIP3    H132942   3.350   1.278   6.970 -0.3906 -0.2236 -1.4306
 3769TIP3    H232943   3.321   1.306   7.116  0.5410  0.6824 -1.4012
 3770TIP3   OH232944   6.417   6.432   1.030  0.2409  0.2937  0.5396
 3770TIP3    H132945   6.366   6.450   0.951 -0.2363 -0.5100  0.6463
 3770TIP3    H232946   6.484   6.500   1.032 -0.1098  0.6756 -0.2345
 3771TIP3   OH232947   3.690   1.679   0.746 -0.0945  0.5389 -0.0651
 3771TIP3    H132948   3.660   1.620   0.677  2.0179  0.2527 -0.8284
 3771TIP3    H232949   3.688   1.626   0.825 -1.2186  0.4394 -0.1482
 3772TIP3   OH232950   1.319   5.943   8.222  0.0284 -0.3048  0.4550
 3772TIP3    H132951   1.280   5.964   8.306  1.7264 -0.8946  1.4432
 3772TIP3    H232952   1.297   5.850   8.207 -1.0955  0.0526 -0.2612
 3773TIP3   OH232953   5.719   6.138   0.218  0.2120  0.4312  0.0625
 3773TIP3    H132954   5.736   6.124   0.311  0.8275 -0.6120 -0.1954
 3773TIP3    H232955   5.805   6.159   0.181 -0.0220  0.8039 -0.2899
 3774TIP3   OH232956   0.235   0.861   0.706  0.1897  0.0588 -0.2151
 3774TIP3    H132957   0.202   0.790   0.760  0.2070  0.3677  0.2065
 3774TIP3    H232958   0.304   0.821   0.653 -0.0360 -0.3142 -0.2326
 3775TIP3   OH232959   1.098   6.742   8.249 -0.0032  0.0119  0.2558
 3775TIP3    H132960   1.093   6.660   8.201 -1.0216  0.3050 -0.1485
 3775TIP3    H232961   1.040   6.802   8.202 -0.9530  0.3394  1.7725
 3776TIP3   OH232962   5.022   0.505   1.699 -0.7101  0.4808 -0.2291
 3776TIP3    H132963   5.047   0.547   1.617  2.5220  1.6776  1.1775
 3776TIP3    H232964   5.055   0.415   1.690  1.4704  1.1442  0.3596
 3777TIP3   OH232965   0.454   5.104   2.453  0.3014 -0.0566  0.2703
 3777TIP3    H132966   0.391   5.148   2.511  0.8561  2.2682 -0.7918
 3777TIP3    H232967   0.407   5.094   2.370 -0.5109 -3.4402  0.9741
 3778TIP3   OH232968   1.709   3.648   0.092  0.1061 -0.3160 -0.0108
 3778TIP3    H132969   1.772   3.691   0.035  0.3018 -0.7969 -0.1611
 3778TIP3    H232970   1.639   3.713   0.104 -0.2723 -0.4508 -1.3415
 3779TIP3   OH232971   0.769   4.497   8.453 -0.2769 -0.2860  0.4902
 3779TIP3    H132972   0.761   4.519   8.360  0.4135  1.7025  0.8620
 3779TIP3    H232973   0.725   4.413   8.461 -0.2555 -0.5632 -1.6564
 3780TIP3   OH232974   5.055   4.812   2.249  0.0216 -0.3292  0.0471
 3780TIP3    H132975   4.981   4.860   2.284  0.5017  0.7343 -0.3668
 3780TIP3    H232976   5.124   4.820   2.315  0.3830  0.2957 -0.3904
 3781TIP3   OH232977   4.275   2.216   7.139  0.4987  0.2494  0.3897
 3781TIP3    H132978   4.262   2.207   7.045  0.0045 -0.2047  0.4890
 3781TIP3    H232979   4.186   2.213   7.175  0.6902  0.3281  0.8748
 3782TIP3   OH232980   3.158   0.128   1.636  0.2019 -0.6990  0.1240
 3782TIP3    H132981   3.082   0.183   1.623  1.6089  1.2519 -0.2723
 3782TIP3    H232982   3.170   0.082   1.552 -0.5088 -1.0113  0.1909
 3783TIP3   OH232983   5.409   6.136   2.355  0.5530 -0.2900  0.3022
 3783TIP3    H132984   5.487   6.101   2.397  0.7581 -0.4399 -0.1990
 3783TIP3    H232985   5.440   6.213   2.307  0.5700 -0.8511 -0.6198
 3784TIP3   OH232986   2.685   1.940   7.293  0.4670  0.1183  0.2713
 3784TIP3    H132987   2.622   2.011   7.302  0.2734 -0.0053 -0.1176
 3784TIP3    H232988   2.712   1.942   7.201 -2.6106 -2.8755 -0.9060
 3785TIP3   OH232989   3.707   0.413   2.774 -0.2157 -0.4044 -0.4669
 3785TIP3    H132990   3.656   0.460   2.840 -1.3425  0.3800 -1.8269
 3785TIP3    H232991   3.791   0.458   2.773  0.1072 -0.9164  0.9320
 3786TIP3   OH232992   2.107   4.937   7.781 -0.7375 -0.0221  0.7026
 3786TIP3    H132993   2.075   5.026   7.766  0.8870  0.4478 -0.2619
 3786TIP3    H232994   2.032   4.881   7.761 -1.8490  1.1127  1.5124
 3787TIP3   OH232995   6.576   4.821   1.741  0.1313  0.1454  0.3273
 3787TIP3    H132996   6.581   4.912   1.769 -1.1237 -0.6450  3.5090
 3787TIP3    H232997   6.511   4.781   1.798 -1.2243 -2.2604 -2.5935
 3788TIP3   OH232998   3.072   5.741   1.741  0.1430 -0.2199 -0.3796
 3788TIP3    H132999   3.016   5.817   1.757  1.4033  1.0985 -1.8815
 3788TIP3    H233000   3.011   5.668   1.729 -1.2277  0.9927 -1.1483
 3789TIP3   OH233001   6.401   2.317   7.473  0.4123  0.0963  0.5220
 3789TIP3    H133002   6.321   2.369   7.479  0.6029  0.2589  2.0931
 3789TIP3    H233003   6.419   2.312   7.379 -1.2941  0.2645  0.1497
 3790TIP3   OH233004   3.396   6.263   0.413  0.1125 -0.3292  0.4979
 3790TIP3    H133005   3.332   6.225   0.474 -0.7572  0.2424 -0.0305
 3790TIP3    H233006   3.479   6.260   0.461 -0.6651  0.7271  2.0089
 3791TIP3   OH233007   3.096   2.219   6.957 -0.1023  0.1026 -0.1117
 3791TIP3    H133008   3.188   2.207   6.979 -0.2591  1.9575  1.8348
 3791TIP3    H233009   3.048   2.189   7.034 -1.3150 -2.2434 -1.6219
 3792TIP3   OH233010   4.788   4.897   0.746 -0.5929  0.1426  0.4984
 3792TIP3    H133011   4.721   4.908   0.679 -0.4883 -0.5046  0.2759
 3792TIP3    H233012   4.811   4.986   0.772 -1.6517  0.3755  0.6976
 3793TIP3   OH233013   3.258   2.816   8.324  0.7537  0.6684 -0.3830
 3793TIP3    H133014   3.263   2.825   8.229  0.3203 -1.4207 -0.6439
 3793TIP3    H233015   3.215   2.732   8.338  0.0795  1.3013  1.6827
 3794TIP3   OH233016   0.306   3.641   2.048  0.8053 -0.0037  0.9771
 3794TIP3    H133017   0.215   3.611   2.043  0.7425  0.3003 -2.9036
 3794TIP3    H233018   0.299   3.737   2.047  1.1148  0.0241 -0.3237
 3795TIP3   OH233019   5.436   2.937   2.103  0.1971 -0.0731 -0.2882
 3795TIP3    H133020   5.373   2.865   2.104  1.6860 -1.5401 -2.4531
 3795TIP3    H233021   5.401   2.999   2.039  0.1557 -0.0951 -0.2871
 3796TIP3   OH233022   4.562   3.426   1.633  0.0429 -0.1317 -0.6546
 3796TIP3    H133023   4.491   3.484   1.661  1.0830  0.4742  0.8588
 3796TIP3    H233024   4.545   3.410   1.540 -1.9444  0.1553 -0.3852
 3797TIP3   OH233025   4.397   4.402   7.617 -0.5915  0.1763 -0.1331
 3797TIP3    H133026   4.475   4.353   7.642 -0.6429  0.4487  0.5940
 3797TIP3    H233027   4.424   4.494   7.621 -0.0730  0.2239 -2.9077
 3798TIP3   OH233028   4.875   3.692   0.845 -0.3986  0.1878  0.6821
 3798TIP3    H133029   4.882   3.767   0.904  0.6293  1.0505 -0.5010
 3798TIP3    H233030   4.931   3.625   0.886 -3.5989 -1.1483  3.3447
 3799TIP3   OH233031   4.654   4.333   7.056  0.1263  0.1650 -0.0850
 3799TIP3    H133032   4.649   4.330   7.152  1.9189 -0.0885  0.0423
 3799TIP3    H233033   4.617   4.250   7.028 -1.0028  0.5089  0.3379
 3800TIP3   OH233034   6.517   1.275   0.294  0.0223  0.2263 -0.4524
 3800TIP3    H133035   6.499   1.301   0.385 -0.3753 -0.7227 -0.2469
 3800TIP3    H233036   6.470   1.340   0.242  0.2601  0.7887  0.0052
 3801TIP3   OH233037   5.790   2.399   7.793  0.3291 -0.6354 -0.1429
 3801TIP3    H133038   5.863   2.405   7.731 -0.6808 -0.7575 -1.3962
 3801TIP3    H233039   5.771   2.489   7.818  2.6530 -0.7346  2.3950
 3802TIP3   OH233040   4.514   3.855   7.386  0.1617  0.1257 -0.4118
 3802TIP3    H133041   4.465   3.789   7.337  0.2216  0.2653 -0.6611
 3802TIP3    H233042   4.603   3.821   7.389 -0.3178 -1.1153  1.7611
 3803TIP3   OH233043   3.570   1.661   0.216  0.7485  0.3695  0.4338
 3803TIP3    H133044   3.514   1.591   0.182  2.5388 -0.7032 -0.4824
 3803TIP3    H233045   3.525   1.692   0.294 -0.1876 -1.7778  0.8320
 3804TIP3   OH233046   2.035   5.347   2.559  0.1529 -0.5135  0.5981
 3804TIP3    H133047   2.123   5.374   2.585  0.0316  1.1456 -0.6005
 3804TIP3    H233048   2.043   5.253   2.542  2.0509 -0.1380 -0.8748
 3805TIP3   OH233049   4.261   4.454   6.983 -0.3115  0.2804 -0.2938
 3805TIP3    H133050   4.304   4.494   6.908  0.3117 -2.2141 -1.3709
 3805TIP3    H233051   4.330   4.448   7.050 -0.2692  0.4714 -0.3175
 3806TIP3   OH233052   0.665   1.043   2.043  0.2208  0.3548 -0.1994
 3806TIP3    H133053   0.686   1.032   2.136 -0.1762  2.6375  0.2238
 3806TIP3    H233054   0.620   0.962   2.019 -0.3076  0.0052  1.7909
 3807TIP3   OH233055   1.368   3.348   1.985 -0.2218 -0.0252  0.1867
 3807TIP3    H133056   1.413   3.279   1.937  0.4936  1.6543 -1.6544
 3807TIP3    H233057   1.426   3.368   2.059 -0.1820 -0.9852  0.4273
 3808TIP3   OH233058   4.347   3.754   0.532 -0.3546 -0.7212 -0.3516
 3808TIP3    H133059   4.375   3.665   0.551 -1.0507 -0.5619  1.7042
 3808TIP3    H233060   4.311   3.751   0.443 -0.1053 -2.4011 -0.4108
 3809TIP3   OH233061   5.133   1.523   0.504 -0.5756 -0.0188  0.4927
 3809TIP3    H133062   5.098   1.508   0.416  1.2759 -0.5272 -0.2043
 3809TIP3    H233063   5.188   1.601   0.495 -0.1212 -0.2579  1.1368
 3810TIP3   OH233064   4.326   2.981   2.424  0.0027 -0.0016 -0.5557
 3810TIP3    H133065   4.230   2.976   2.430 -0.0722 -0.6702 -1.7616
 3810TIP3    H233066   4.358   2.913   2.484 -0.1126  2.2653  2.2647
 3811TIP3   OH233067   0.356   0.732   7.120  0.3668  0.1841  0.4865
 3811TIP3    H133068   0.281   0.687   7.160  1.0263  0.0939  1.6933
 3811TIP3    H233069   0.385   0.792   7.188 -0.4969  2.5017 -1.0878
 3812TIP3   OH233070   3.081   3.554   1.869  0.2011 -0.2871 -0.3846
 3812TIP3    H133071   2.989   3.528   1.872  0.4049 -0.9464  0.8471
 3812TIP3    H233072   3.081   3.638   1.823 -1.2802  0.7725  1.4418
 3813TIP3   OH233073   0.218   1.662   0.284 -0.4670  0.3446  0.4798
 3813TIP3    H133074   0.186   1.743   0.243  0.0705  0.9476  1.2153
 3813TIP3    H233075   0.256   1.612   0.212 -2.4461 -0.1171 -0.3149
 3814TIP3   OH233076   1.296   1.117   8.133 -0.2392  0.4943 -0.1393
 3814TIP3    H133077   1.338   1.032   8.145 -0.1892  0.6568  0.9997
 3814TIP3    H233078   1.203   1.099   8.135 -0.2332  0.4974  0.4988
 3815TIP3   OH233079   4.767   1.995   0.810 -0.4875 -0.0109 -0.3725
 3815TIP3    H133080   4.770   2.004   0.714  0.9606  0.2396 -0.3407
 3815TIP3    H233081   4.830   1.926   0.829 -0.7571 -0.0490  0.4020
 3816TIP3   OH233082   2.408   3.971   7.188 -0.5658 -0.2617  0.3852
 3816TIP3    H133083   2.464   3.955   7.264 -0.1381 -1.2611 -0.1202
 3816TIP3    H233084   2.426   3.898   7.130 -1.0580  0.3702 -0.5841
 3817TIP3   OH233085   6.816   4.921   7.682 -0.0500  0.1947 -0.1351
 3817TIP3    H133086   6.823   4.991   7.616  0.4435 -0.2879 -0.6098
 3817TIP3    H233087   6.880   4.945   7.748 -0.5887  0.7142  0.2101
 3818TIP3   OH233088   0.049   0.535   0.182  0.0827 -0.2611  0.3669
 3818TIP3    H133089   0.129   0.505   0.226  0.9020 -0.8005 -1.4124
 3818TIP3    H233090  -0.006   0.568   0.253  0.7039 -2.4826  1.9862
 3819TIP3   OH233091   3.372   2.278   1.079  0.1959  0.3989 -0.0396
 3819TIP3    H133092   3.373   2.290   0.984 -1.4183 -3.4342 -0.6855
 3819TIP3    H233093   3.460   2.247   1.100  0.2563  0.2865 -0.4521
 3820TIP3   OH233094   0.837   3.644   8.314  0.6395  0.3422  0.3602
 3820TIP3    H133095   0.812   3.551   8.318  0.2459  0.4770  1.3112
 3820TIP3    H233096   0.755   3.691   8.322  0.7561  0.7902 -0.8672
 3821TIP3   OH233097   4.712   6.610   1.327 -0.4881 -0.7790 -0.2500
 3821TIP3    H133098   4.714   6.704   1.309 -1.5091 -0.8278 -0.6558
 3821TIP3    H233099   4.671   6.571   1.250  1.5103 -1.7829 -0.8816
 3822TIP3   OH233100   0.538   5.942   8.261 -0.0039 -0.8227 -0.7958
 3822TIP3    H133101   0.623   5.933   8.305 -0.1264 -0.3880 -0.4629
 3822TIP3    H233102   0.558   5.929   8.168  1.2559  3.4428 -1.3657
 3823TIP3   OH233103   4.703   1.955   0.517  0.2081  0.2594 -0.3471
 3823TIP3    H133104   4.750   2.002   0.448  2.8559 -0.4338  0.8878
 3823TIP3    H233105   4.732   1.864   0.508  2.5486  0.5173  3.0773
 3824TIP3   OH233106   6.637   1.384   8.473 -0.1859 -0.0374  0.4437
 3824TIP3    H133107   6.714   1.426   8.512 -0.2923 -0.7695  1.4817
 3824TIP3    H233108   6.622   1.306   8.527 -0.5381 -0.9257 -0.8777
 3825TIP3   OH233109   4.523   3.614   7.202 -0.4320 -0.3868 -0.1573
 3825TIP3    H133110   4.481   3.534   7.170 -0.8707  0.0575 -0.7130
 3825TIP3    H233111   4.611   3.586   7.230 -0.4544 -0.9936 -0.6838
 3826TIP3   OH233112   5.860   2.898   8.449 -0.1181 -0.7844 -0.6047
 3826TIP3    H133113   5.892   2.829   8.391  1.6664 -1.6763  1.2942
 3826TIP3    H233114   5.903   2.977   8.418 -1.8876 -0.5084 -2.5692
 3827TIP3   OH233115   2.834   4.745   7.938  0.2910 -0.1642 -0.3169
 3827TIP3    H133116   2.796   4.833   7.933  3.0319  1.0253 -2.6176
 3827TIP3    H233117   2.767   4.688   7.900 -0.4974  1.3339 -1.2651
 3828TIP3   OH233118   0.385   3.777   0.580 -0.1888  0.1389 -0.0466
 3828TIP3    H133119   0.371   3.758   0.672  0.0626 -0.0871 -0.0528
 3828TIP3    H233120   0.345   3.703   0.534  1.5869 -0.8969 -0.0441
 3829TIP3   OH233121   0.473   5.209   0.821 -0.0166  0.0121 -0.2301
 3829TIP3    H133122   0.503   5.299   0.832 -0.8471  0.6178 -2.3608
 3829TIP3    H233123   0.500   5.186   0.731  1.0014 -2.2244  0.5675
 3830TIP3   OH233124   5.499   0.638   1.156 -0.1584 -0.0867  0.1317
 3830TIP3    H133125   5.577   0.593   1.123  0.0356 -0.1912  0.7248
 3830TIP3    H233126   5.530   0.688   1.231 -0.7976 -0.6680  0.7959
 3831TIP3   OH233127   0.398   4.080   7.312  0.4457 -0.2582  0.1381
 3831TIP3    H133128   0.453   4.139   7.261 -0.6332  1.1525  0.5212
 3831TIP3    H233129   0.457   4.041   7.376  1.2444  0.2166 -0.2950
 3832TIP3   OH233130   3.585   5.464   7.491 -0.2288 -0.1404 -0.5170
 3832TIP3    H133131   3.555   5.500   7.407  0.0490  0.3315 -0.4163
 3832TIP3    H233132   3.506   5.427   7.530 -1.1139  2.5344  0.4967
 3833TIP3   OH233133   6.152   4.372   7.853  0.2334  0.1453  0.0398
 3833TIP3    H133134   6.075   4.360   7.909  1.6054  0.2046  2.0530
 3833TIP3    H233135   6.189   4.284   7.845 -0.8049 -0.1469 -2.1746
 3834TIP3   OH233136   4.531   1.227   0.059  0.2793 -0.4026  0.1702
 3834TIP3    H133137   4.460   1.187   0.010 -1.4462  0.8327  1.5037
 3834TIP3    H233138   4.544   1.313   0.018  0.3618 -0.2616  0.4817
 3835TIP3   OH233139   0.752   3.269   0.610 -0.4174 -0.3366 -0.9753
 3835TIP3    H133140   0.669   3.295   0.570 -0.2080  1.2947 -0.4109
 3835TIP3    H233141   0.726   3.206   0.678 -0.9318 -1.7358 -2.3980
 3836TIP3   OH233142   6.353   2.621   0.182  0.2615 -0.2938 -0.3463
 3836TIP3    H133143   6.300   2.543   0.170 -0.0568 -0.3187  0.9990
 3836TIP3    H233144   6.350   2.666   0.098 -1.7815 -0.3723 -0.3759
 3837TIP3   OH233145   3.801   2.755   7.653  0.0457  0.1227 -0.0427
 3837TIP3    H133146   3.832   2.750   7.743 -0.7244  0.5667  0.2525
 3837TIP3    H233147   3.737   2.685   7.645  0.6626 -0.4033 -0.4741
 3838TIP3   OH233148   1.769   0.881   0.975 -0.5285 -0.2775  0.0429
 3838TIP3    H133149   1.750   0.787   0.980 -1.9652 -0.0145  0.1139
 3838TIP3    H233150   1.825   0.890   0.899 -0.4226 -1.1945  0.0011
 3839TIP3   OH233151   1.711   5.781   6.537  0.1975 -0.0571  0.8825
 3839TIP3    H133152   1.674   5.833   6.465  0.0364  0.0453  1.0356
 3839TIP3    H233153   1.744   5.847   6.598 -1.2269 -0.0745  1.7247
 3840TIP3   OH233154   5.338   0.037   1.994 -0.1040 -0.4468 -0.8270
 3840TIP3    H133155   5.371   0.025   2.083  2.6315  0.6069 -1.5899
 3840TIP3    H233156   5.325  -0.052   1.961  1.5064 -0.9246 -0.2444
 3841TIP3   OH233157   6.229   3.400   0.845  0.2579 -0.3131 -0.5852
 3841TIP3    H133158   6.221   3.395   0.750 -0.7747  0.4933 -0.5610
 3841TIP3    H233159   6.142   3.379   0.878  0.5323 -0.2999  0.1645
 3842TIP3   OH233160   0.239   2.360   0.050  0.2387 -0.3061 -0.1710
 3842TIP3    H133161   0.328   2.383   0.022  0.3204  2.1210  1.8294
 3842TIP3    H233162   0.183   2.423   0.006 -0.2481 -0.3285  0.4053
 3843TIP3   OH233163   0.794   3.113   0.839  0.5889  0.1767 -0.1186
 3843TIP3    H133164   0.852   3.108   0.914 -1.0608 -1.1522  1.1480
 3843TIP3    H233165   0.816   3.037   0.786 -0.4946 -0.8344  0.8109
 3844TIP3   OH233166   3.993   2.258   7.133 -0.3179 -0.2848 -0.3167
 3844TIP3    H133167   3.978   2.256   7.039  0.3147 -1.3213 -0.4063
 3844TIP3    H233168   3.920   2.310   7.168 -0.6433 -0.0293 -1.3504
 3845TIP3   OH233169   4.177   4.319   8.537 -0.5077 -0.0658  0.0128
 3845TIP3    H133170   4.112   4.278   8.480  0.9576 -2.8358  0.1594
 3845TIP3    H233171   4.154   4.289   8.625  0.5574 -0.5139  0.1480
 3846TIP3   OH233172   1.445   3.057   7.883 -0.0470 -0.2030 -0.7539
 3846TIP3    H133173   1.440   3.151   7.902 -3.5183 -0.9073  3.6783
 3846TIP3    H233174   1.365   3.037   7.836  0.3307 -1.0451 -1.0674
 3847TIP3   OH233175   0.359   6.229   6.760  0.1063  0.1588 -0.2643
 3847TIP3    H133176   0.410   6.306   6.736 -1.3874  0.9079 -1.1645
 3847TIP3    H233177   0.304   6.211   6.684 -0.2976 -1.2003  0.3125
 3848TIP3   OH233178   3.701   3.274   0.816  0.4887 -0.7298 -0.3138
 3848TIP3    H133179   3.644   3.296   0.743  1.1805 -1.2412 -1.0217
 3848TIP3    H233180   3.685   3.343   0.881  0.8557  0.4964 -1.4952
 3849TIP3   OH233181   6.854   0.000   1.005 -0.1443  0.0880 -0.6588
 3849TIP3    H133182   6.796  -0.022   1.078  0.0209 -0.7202 -0.7641
 3849TIP3    H233183   6.801   0.054   0.947 -0.6755 -0.3259 -0.5640
 3850TIP3   OH233184   1.951   6.458   8.245  0.1289  0.9183 -0.6815
 3850TIP3    H133185   1.893   6.400   8.195 -0.3777  0.2647  0.6120
 3850TIP3    H233186   1.984   6.403   8.316  3.8602  0.7145 -2.3696
 3851TIP3   OH233187   5.685   0.412   1.193 -0.2003 -0.3749 -0.3971
 3851TIP3    H133188   5.715   0.342   1.251 -0.1561  1.4031  1.8964
 3851TIP3    H233189   5.638   0.472   1.251 -1.9031  0.5702 -2.6008
 3852TIP3   OH233190   6.040   0.729   0.774 -0.5271 -0.4062 -0.2755
 3852TIP3    H133191   6.021   0.692   0.860 -1.4865  2.5389  0.8732
 3852TIP3    H233192   6.136   0.732   0.770 -0.4746 -0.3702  0.7647
 3853TIP3   OH233193   4.279   2.642   2.000  0.4330 -0.1084 -0.1094
 3853TIP3    H133194   4.273   2.656   2.094  0.9661 -0.8753  0.0543
 3853TIP3    H233195   4.268   2.728   1.961 -1.7313 -0.0471  0.5563
 3854TIP3   OH233196   0.148   1.274   1.671  1.0604  0.5249  0.0227
 3854TIP3    H133197   0.184   1.220   1.601 -1.2473 -0.4226 -0.4956
 3854TIP3    H233198   0.142   1.214   1.746  0.8717  0.7596  0.1945
 3855TIP3   OH233199   5.535   0.744   2.023  0.4796 -0.3408  0.0810
 3855TIP3    H133200   5.458   0.693   2.049  0.4471 -0.0519  0.5620
 3855TIP3    H233201   5.609   0.685   2.040  0.4759 -0.0864  1.0528
 3856TIP3   OH233202   0.736   0.922   0.706 -0.2332  0.0259 -0.1095
 3856TIP3    H133203   0.719   0.983   0.635  0.5943  0.9428  0.4584
 3856TIP3    H233204   0.794   0.969   0.766  2.7439 -2.2152 -0.9824
 3857TIP3   OH233205   1.822   1.960   8.520 -0.3083  0.2936  0.2315
 3857TIP3    H133206   1.797   2.003   8.602  1.2164  0.0563  0.8530
 3857TIP3    H233207   1.780   2.011   8.452  0.6142  2.1733  1.0027
 3858TIP3   OH233208   0.153   0.247   0.639 -0.7737  0.4186  0.1278
 3858TIP3    H133209   0.203   0.185   0.694  0.1259  0.7940 -0.2475
 3858TIP3    H233210   0.170   0.332   0.679 -3.6855  0.2915  1.9178
 3859TIP3   OH233211   4.188   5.087   8.358 -0.0005  0.2356  0.4033
 3859TIP3    H133212   4.260   5.037   8.319  1.2370  1.9479  0.3555
 3859TIP3    H233213   4.116   5.078   8.296  0.6655 -0.2914 -0.3151
 3860TIP3   OH233214   3.216   1.245   0.287  0.3872  0.3288  0.6892
 3860TIP3    H133215   3.237   1.168   0.234 -0.7202  0.0211  0.6923
 3860TIP3    H233216   3.149   1.291   0.238  0.1864  0.6598  1.2623
 3861TIP3   OH233217   5.744   0.662   0.762 -0.2816 -0.2718  0.3239
 3861TIP3    H133218   5.837   0.643   0.767  0.1513  0.7062 -2.6178
 3861TIP3    H233219   5.736   0.752   0.794 -0.0102  0.0715 -0.5473
 3862TIP3   OH233220   2.317   3.454   7.930 -0.1591 -0.0996 -0.1006
 3862TIP3    H133221   2.265   3.398   7.987  1.2526 -1.0379  0.2886
 3862TIP3    H233222   2.407   3.445   7.961  0.3510  0.9897 -1.1684
 3863TIP3   OH233223   0.544   4.901   0.117  0.2623  0.0559  0.4506
 3863TIP3    H133224   0.598   4.979   0.130  1.0496 -0.4009  0.0328
 3863TIP3    H233225   0.454   4.931   0.131  0.3642  1.4702 -1.5662
 3864TIP3   OH233226   1.785   4.392   7.965  0.0272  0.0618 -0.3828
 3864TIP3    H133227   1.800   4.374   8.058  0.0029 -1.4457 -0.6517
 3864TIP3    H233228   1.725   4.323   7.936 -0.9490  1.2307 -1.2479
 3865TIP3   OH233229   2.647   2.359   7.060  0.2512 -0.8199  0.0078
 3865TIP3    H133230   2.579   2.331   6.998  0.2043  0.7118 -0.6680
 3865TIP3    H233231   2.729   2.350   7.010  0.2499  0.0581 -0.1649
 3866TIP3   OH233232   6.849   3.598   0.105 -0.1896  0.3061 -0.1636
 3866TIP3    H133233   6.780   3.593   0.171  1.4163  0.8890  1.6672
 3866TIP3    H233234   6.847   3.689   0.075 -1.1331 -0.0399 -1.1977
 3867TIP3   OH233235   6.123   5.206   7.513 -0.1902  0.4583  0.2558
 3867TIP3    H133236   6.163   5.145   7.453 -1.3876  0.3975 -0.5178
 3867TIP3    H233237   6.186   5.278   7.522 -1.1324  1.9602 -3.4599
 3868TIP3   OH233238   5.448   5.718   0.050  1.0564 -0.0613  0.2852
 3868TIP3    H133239   5.446   5.804   0.091 -1.1287  0.4046 -0.6520
 3868TIP3    H233240   5.385   5.666   0.100  1.2825 -0.6812 -0.0582
 3869TIP3   OH233241   1.761   5.177   1.544  0.2353 -0.1318 -0.4397
 3869TIP3    H133242   1.764   5.154   1.637  0.7016  1.1031 -0.1410
 3869TIP3    H233243   1.809   5.259   1.537  2.0376 -1.2475 -2.1167
 3870TIP3   OH233244   3.343   4.246   8.347  0.1833  0.1162  0.6866
 3870TIP3    H133245   3.368   4.296   8.270 -0.7457 -1.6728 -0.8645
 3870TIP3    H233246   3.311   4.311   8.409  1.7686  1.6898 -0.0775
 3871TIP3   OH233247   5.653   0.168   1.333 -0.3501  0.0655 -0.3272
 3871TIP3    H133248   5.685   0.096   1.279  1.3883  1.3603 -1.1507
 3871TIP3    H233249   5.732   0.211   1.365 -1.2798  2.1400 -0.6176
 3872TIP3   OH233250   5.779   4.654   1.862  0.3804 -1.0785  0.2058
 3872TIP3    H133251   5.691   4.653   1.900  0.4062 -0.8162  0.2745
 3872TIP3    H233252   5.814   4.739   1.885 -0.2559 -0.1915 -1.8796
 3873TIP3   OH233253   1.370   6.092   7.996 -0.2766 -0.0172 -0.1775
 3873TIP3    H133254   1.296   6.152   7.996 -1.1217 -1.0236 -0.4909
 3873TIP3    H233255   1.348   6.027   8.063  0.2953 -0.3569 -0.3061
 3874TIP3   OH233256   0.372   3.966   6.685  0.1758  0.4068 -0.5039
 3874TIP3    H133257   0.359   4.046   6.736 -0.2244  0.4712 -0.6994
 3874TIP3    H233258   0.335   3.986   6.599 -1.7701 -0.6289  0.0209
 3875TIP3   OH233259   1.145   1.747   0.471  0.1584  0.1059  0.3635
 3875TIP3    H133260   1.197   1.679   0.428 -0.8581  0.5157 -1.6134
 3875TIP3    H233261   1.121   1.807   0.401 -0.5918  1.4815  1.7368
 3876TIP3   OH233262   6.517   5.861   6.782 -0.7262  0.4563  0.3888
 3876TIP3    H133263   6.602   5.902   6.767 -0.4595  0.5248  1.9666
 3876TIP3    H233264   6.509   5.796   6.712  0.7075  0.3098  0.3470
 3877TIP3   OH233265   3.168   0.662   1.918 -0.2106 -0.2498  0.8361
 3877TIP3    H133266   3.163   0.744   1.968 -2.0216  0.8122 -0.8920
 3877TIP3    H233267   3.076   0.639   1.902  0.2715 -0.9091 -1.3123
 3878TIP3   OH233268   2.030   4.567   7.508 -0.3661  0.4037  0.3270
 3878TIP3    H133269   2.023   4.517   7.427 -0.9885  1.7264 -0.4675
 3878TIP3    H233270   2.125   4.578   7.521 -0.2680  0.2898 -0.2816
 3879TIP3   OH233271   6.300   6.013   0.410 -0.1430  0.1395  0.3798
 3879TIP3    H133272   6.251   5.940   0.371 -1.5755  1.5135 -0.5396
 3879TIP3    H233273   6.390   5.982   0.413 -0.9305 -2.2989  1.6126
 3880TIP3   OH233274   2.000   1.703   0.229 -0.3480  0.2461 -0.2050
 3880TIP3    H133275   2.078   1.653   0.204 -1.0801 -1.8371  1.3672
 3880TIP3    H233276   1.927   1.647   0.203 -1.1837  0.0607  2.2944
 3881TIP3   OH233277   0.285   2.871   2.001  0.4490  0.0984 -0.2357
 3881TIP3    H133278   0.294   2.778   2.020  2.0161 -0.0307 -1.4196
 3881TIP3    H233279   0.342   2.915   2.064 -0.9445  0.3669  0.8937
 3882TIP3   OH233280   0.736   2.069   1.779  1.3482  0.0459 -0.4420
 3882TIP3    H133281   0.727   2.048   1.686 -0.9828 -0.1845 -0.2151
 3882TIP3    H233282   0.746   1.985   1.823  0.3929 -0.0139 -0.3168
 3883TIP3   OH233283   4.429   6.231   6.284  0.5705  0.5790 -0.3165
 3883TIP3    H133284   4.346   6.183   6.281  0.4382  0.8328 -3.0191
 3883TIP3    H233285   4.405   6.320   6.309  0.4023  0.1039  1.3679
 3884TIP3   OH233286   1.325   3.647   7.272 -0.0775 -0.2320 -0.4509
 3884TIP3    H133287   1.303   3.660   7.180 -0.0011  0.7650 -0.3413
 3884TIP3    H233288   1.405   3.595   7.271  0.5393  0.6978 -0.9832
 3885TIP3   OH233289   0.589   1.011   6.885 -0.1709 -0.4349  0.2459
 3885TIP3    H133290   0.647   1.038   6.956 -0.4329 -0.5014  0.4893
 3885TIP3    H233291   0.631   1.044   6.806 -0.2790  0.3342  0.5004
 3886TIP3   OH233292   5.884   6.047   0.877 -0.5606  0.0197  0.7967
 3886TIP3    H133293   5.909   5.983   0.809 -0.1426  1.5127 -0.5140
 3886TIP3    H233294   5.929   6.017   0.956  1.4555 -0.0997 -0.3302
 3887TIP3   OH233295   1.139   6.175   1.907  0.4401  0.1122  0.4355
 3887TIP3    H133296   1.226   6.136   1.903  0.7627  0.8889 -1.7606
 3887TIP3    H233297   1.154   6.269   1.895 -0.6614  0.3236  0.5929
 3888TIP3   OH233298   3.020   1.207   7.082  0.1935  0.2688 -0.0096
 3888TIP3    H133299   3.033   1.121   7.122 -1.0977  0.0468 -0.0377
 3888TIP3    H233300   3.105   1.227   7.042  0.4153 -1.1494 -0.3084
 3889TIP3   OH233301   3.532   4.640   0.643 -0.4193  0.1071 -0.6992
 3889TIP3    H133302   3.509   4.728   0.614 -0.5313  0.1191 -0.5759
 3889TIP3    H233303   3.611   4.618   0.593  0.4962  0.8767  0.3676
 3890TIP3   OH233304   2.935   1.999   0.185 -0.1471  0.2161 -0.0965
 3890TIP3    H133305   2.929   1.947   0.105  2.5293 -0.6379  0.1671
 3890TIP3    H233306   3.014   2.052   0.173  0.8884 -0.6247  2.2974
 3891TIP3   OH233307   3.277   4.768   0.234 -0.0639 -0.0857 -0.1053
 3891TIP3    H133308   3.191   4.764   0.276 -0.3585 -0.9381 -0.7891
 3891TIP3    H233309   3.259   4.762   0.141  0.7725 -0.7106 -0.2328
 3892TIP3   OH233310   0.986   3.872   8.212 -0.4761  0.6403 -0.0741
 3892TIP3    H133311   0.994   3.849   8.304 -0.0018  3.7455  0.7765
 3892TIP3    H233312   0.899   3.911   8.204 -0.4094  0.6496 -0.8878
 3893TIP3   OH233313   0.223   5.510   0.881  0.1228  0.0073 -0.1146
 3893TIP3    H133314   0.193   5.447   0.816 -0.2527 -0.6136  0.6498
 3893TIP3    H233315   0.151   5.517   0.943  0.2464  1.0327 -0.0708
 3894TIP3   OH233316   5.952   3.125   8.341 -0.4844 -0.5430  0.0691
 3894TIP3    H133317   6.006   3.147   8.418  0.8217  1.4161 -1.3252
 3894TIP3    H233318   5.886   3.194   8.337  0.2655  0.1179 -1.2900
 3895TIP3   OH233319   1.183   6.076   8.416  0.0535  0.3151 -0.0966
 3895TIP3    H133320   1.129   6.031   8.482 -1.0125  0.1117 -1.0699
 3895TIP3    H233321   1.134   6.155   8.395  0.8112  0.8075 -0.0462
 3896TIP3   OH233322   2.661   1.605   7.602 -0.2869  0.0759 -0.7417
 3896TIP3    H133323   2.572   1.613   7.638 -0.3248  0.2556 -0.8765
 3896TIP3    H233324   2.695   1.695   7.602  1.2335 -0.3334  2.7055
 3897TIP3   OH233325   3.818   5.637   1.955 -1.1399 -0.6489 -0.3528
 3897TIP3    H133326   3.764   5.580   2.009 -2.3349  0.1593 -0.6387
 3897TIP3    H233327   3.905   5.634   1.995 -1.4220 -1.8917  0.1951
 3898TIP3   OH233328   3.943   3.304   0.031 -0.5742  0.2316  0.1946
 3898TIP3    H133329   3.947   3.262   0.117 -0.0725  0.4956  0.3082
 3898TIP3    H233330   3.868   3.363   0.036 -0.8940 -0.1824  0.2541
 3899TIP3   OH233331   6.602   3.084   2.437 -0.2617  0.1979 -0.2314
 3899TIP3    H133332   6.539   3.152   2.461  0.2057  0.3004  0.7493
 3899TIP3    H233333   6.681   3.106   2.487 -0.2108 -1.2639  0.3816
 3900TIP3   OH233334   5.545   3.640   0.293  0.2331 -0.5605 -0.3871
 3900TIP3    H133335   5.586   3.564   0.251 -1.9200 -1.4050 -1.1122
 3900TIP3    H233336   5.474   3.665   0.233 -1.0784  0.0362  1.3306
 3901TIP3   OH233337   4.627   3.635   1.370 -0.0779  0.0746 -0.0185
 3901TIP3    H133338   4.553   3.598   1.322 -3.5415  1.9943  3.2920
 3901TIP3    H233339   4.640   3.722   1.332 -0.2932  0.1525  0.0835
 3902TIP3   OH233340   3.764   1.530   7.188  0.0599  0.0565  0.0620
 3902TIP3    H133341   3.730   1.544   7.099 -1.5354 -1.3797  0.4062
 3902TIP3    H233342   3.783   1.437   7.192 -0.5998 -0.0322  1.4599
 3903TIP3   OH233343   5.630   2.624   7.261  0.2995 -0.1689  0.5084
 3903TIP3    H133344   5.698   2.612   7.194  0.4552  1.4801  0.3326
 3903TIP3    H233345   5.555   2.658   7.213  0.6611  1.7553  1.2532
 3904TIP3   OH233346   2.172   0.726   1.034 -0.0269 -0.1623  0.0221
 3904TIP3    H133347   2.263   0.698   1.039 -0.1080 -0.2767  1.1252
 3904TIP3    H233348   2.172   0.798   0.971  1.1785  1.1826  1.4814
 3905TIP3   OH233349   3.135   3.496   2.278  0.0877 -0.4837  1.0700
 3905TIP3    H133350   3.158   3.448   2.358  1.9726  1.3902  1.7314
 3905TIP3    H233351   3.168   3.442   2.207 -1.0610 -1.8769  1.5517
 3906TIP3   OH233352   5.528   1.304   8.486  0.2635  0.2353 -0.4241
 3906TIP3    H133353   5.441   1.338   8.468  0.6222  0.4808 -1.8327
 3906TIP3    H233354   5.514   1.228   8.542 -0.6707  1.6660  1.3975
 3907TIP3   OH233355   5.966   4.093   0.900  0.4323  0.0121  0.3362
 3907TIP3    H133356   5.940   4.033   0.831  1.8481  1.3792 -1.4860
 3907TIP3    H233357   5.977   4.038   0.978 -0.6683 -1.6490 -0.6403
 3908TIP3   OH233358   5.712   5.487   8.307  0.3564 -0.2509 -0.6767
 3908TIP3    H133359   5.731   5.435   8.229  2.6059 -1.4471  0.5649
 3908TIP3    H233360   5.646   5.437   8.354 -0.8188  0.3467 -1.6606
 3909TIP3   OH233361   3.952   6.052   8.326 -0.1613 -0.1110 -0.1901
 3909TIP3    H133362   3.939   6.024   8.416 -0.7955  2.4243  0.5657
 3909TIP3    H233363   4.025   5.999   8.295  0.4508 -0.6278  1.9897
 3910TIP3   OH233364   2.768   5.536   2.117 -0.2055  0.5549  0.1472
 3910TIP3    H133365   2.738   5.619   2.080  1.8435  1.0136 -0.6597
 3910TIP3    H233366   2.718   5.526   2.198 -1.5598  1.8111 -0.4926
 3911TIP3   OH233367   4.725   5.048   7.494 -0.0926  0.5109 -0.5236
 3911TIP3    H133368   4.776   5.118   7.452 -0.2536  1.2223  0.4217
 3911TIP3    H233369   4.647   5.093   7.527 -0.0841 -0.0729  0.3057
 3912TIP3   OH233370   3.129   0.139   8.578 -0.1420  0.0941 -0.0294
 3912TIP3    H133371   3.221   0.162   8.589 -0.2400  1.1081 -1.1470
 3912TIP3    H233372   3.119   0.056   8.625  1.1694  0.3169  0.6823
 3913TIP3   OH233373   6.568   6.618   7.606  0.1023  0.5798  0.8569
 3913TIP3    H133374   6.477   6.635   7.584 -0.0632 -0.0639  1.0420
 3913TIP3    H233375   6.583   6.669   7.686 -0.7562 -1.0788  2.1290
 3914TIP3   OH233376   3.960   4.229   8.440 -0.4734 -0.1505 -0.2041
 3914TIP3    H133377   3.876   4.266   8.468 -0.1733  1.9778 -1.8574
 3914TIP3    H233378   3.939   4.139   8.416 -1.9636 -0.1166  0.8000
 3915TIP3   OH233379   4.589   3.027   2.534  0.2125  0.2533 -0.3173
 3915TIP3    H133380   4.513   3.018   2.475  0.5677  0.6110 -0.8421
 3915TIP3    H233381   4.551   3.028   2.622 -0.2769 -0.9360 -0.5045
 3916TIP3   OH233382   5.498   4.830   0.864  0.2784 -0.0952 -0.1262
 3916TIP3    H133383   5.404   4.834   0.847  0.4890 -0.2797 -1.4168
 3916TIP3    H233384   5.538   4.849   0.779  1.4068 -0.0371  0.4112
 3917TIP3   OH233385   2.752   5.846   0.076 -0.0168 -0.1858 -0.3220
 3917TIP3    H133386   2.844   5.867   0.095 -0.7620  2.5964  0.7212
 3917TIP3    H233387   2.710   5.846   0.161 -1.1487 -0.5078 -0.8699
 3918TIP3   OH233388   0.266   0.336   8.485 -0.9888  0.8223 -0.1968
 3918TIP3    H133389   0.327   0.262   8.486 -0.3225  1.2614 -2.5163
 3918TIP3    H233390   0.296   0.393   8.556  0.6017  0.4564 -0.5446
 3919TIP3   OH233391   3.570   1.491   2.310 -0.5426  0.0751 -0.2224
 3919TIP3    H133392   3.530   1.548   2.244 -1.8003 -1.8019 -1.1615
 3919TIP3    H233393   3.502   1.481   2.377 -0.1778  0.0259  0.1421
 3920TIP3   OH233394   2.516   5.538   0.923 -0.2837  0.5564 -0.3907
 3920TIP3    H133395   2.572   5.521   0.847  0.8083  1.7873  0.0993
 3920TIP3    H233396   2.432   5.498   0.900  0.3493 -0.0662 -1.7679
 3921TIP3   OH233397   1.106   3.158   1.904  0.3577  0.2580  0.6891
 3921TIP3    H133398   1.196   3.126   1.894  0.6006  0.0492  3.0564
 3921TIP3    H233399   1.063   3.132   1.823  2.3986  0.3007 -0.4773
 3922TIP3   OH233400   5.412   3.903   0.001  0.3045 -0.2579 -0.7175
 3922TIP3    H133401   5.346   3.893  -0.068  0.5506 -1.0454 -0.8491
 3922TIP3    H233402   5.476   3.834  -0.017  0.5123 -0.2987  0.1535
 3923TIP3   OH233403   6.584   6.303   1.352  0.1569 -0.5311 -0.5734
 3923TIP3    H133404   6.626   6.375   1.399 -0.1685  0.8102 -2.2238
 3923TIP3    H233405   6.492   6.309   1.376  0.2242 -0.7830 -0.2477
 3924TIP3   OH233406   6.681   0.809   6.998  0.2476  0.1392  0.1958
 3924TIP3    H133407   6.679   0.899   7.029 -1.1720 -0.0938  0.8600
 3924TIP3    H233408   6.683   0.817   6.902  0.8910  0.8613  0.2615
 3925TIP3   OH233409   3.115   2.274   8.216  0.6858 -0.2494  0.1795
 3925TIP3    H133410   3.152   2.330   8.285  1.5599 -0.6615  0.0650
 3925TIP3    H233411   3.161   2.301   8.137 -0.5068  0.4055 -0.3191
 3926TIP3   OH233412   6.631   2.459   2.265  0.5495 -0.3231  0.1670
 3926TIP3    H133413   6.705   2.500   2.309  0.6765 -0.1970 -0.1662
 3926TIP3    H233414   6.572   2.433   2.337 -0.1839  1.6471  0.3243
 3927TIP3   OH233415   6.276   0.398   1.772  0.2378  0.2862 -0.4632
 3927TIP3    H133416   6.194   0.417   1.727  0.1695  1.4207  0.1060
 3927TIP3    H233417   6.329   0.476   1.759  0.4921  0.3418  0.8041
 3928TIP3   OH233418   5.367   3.333   8.408  0.1360  0.0838  0.3304
 3928TIP3    H133419   5.344   3.310   8.318  0.8832 -1.1713  0.4380
 3928TIP3    H233420   5.368   3.429   8.409  1.6396  0.1460 -1.4049
 3929TIP3   OH233421   4.004   6.199   0.255  0.2014 -0.4149 -0.0051
 3929TIP3    H133422   4.052   6.255   0.195  1.1107 -1.2914 -0.1016
 3929TIP3    H233423   4.062   6.189   0.331 -0.9036  0.6412  1.0348
 3930TIP3   OH233424   3.340   0.739   1.267 -0.1315 -0.6101  0.4385
 3930TIP3    H133425   3.279   0.695   1.325 -0.0262  0.2933  1.2646
 3930TIP3    H233426   3.409   0.772   1.324  0.2549 -0.1594 -0.2618
 3931TIP3   OH233427   5.249   4.118   1.392  0.4349  0.1125  0.3487
 3931TIP3    H133428   5.330   4.070   1.373  0.7033  1.1107 -1.1961
 3931TIP3    H233429   5.226   4.160   1.309 -0.8833  1.0200  1.1396
 3932TIP3   OH233430   5.011   5.741   7.722 -0.3254  0.5933  0.5978
 3932TIP3    H133431   5.046   5.759   7.634 -2.0255 -0.0869 -0.2723
 3932TIP3    H233432   5.008   5.827   7.764  0.3310  0.9617 -0.0721
 3933TIP3   OH233433   1.908   1.524   6.886 -0.0155  0.3918  0.3532
 3933TIP3    H133434   1.895   1.567   6.970 -1.1871 -0.0091  0.3928
 3933TIP3    H233435   1.992   1.479   6.895  1.7704  3.4052 -0.0483
 3934TIP3   OH233436   5.857   1.704   1.542  0.1331  0.1191 -0.2804
 3934TIP3    H133437   5.890   1.617   1.560 -1.2020 -0.3193  0.2032
 3934TIP3    H233438   5.866   1.751   1.625 -0.2535  0.0602 -0.2031
 3935TIP3   OH233439   4.099   3.163   7.227  0.4966 -0.6537 -0.1803
 3935TIP3    H133440   4.061   3.165   7.315  3.4093 -1.6935  1.2444
 3935TIP3    H233441   4.063   3.084   7.188  0.5753 -1.2168  0.8333
 3936TIP3   OH233442   3.190   5.441   1.513  0.4280 -0.2570  0.6608
 3936TIP3    H133443   3.264   5.417   1.458 -2.0578 -4.6825 -1.3513
 3936TIP3    H233444   3.210   5.402   1.598  1.8995  1.8873  1.3793
 3937TIP3   OH233445   3.709   6.627   7.479 -0.6262  0.2337  0.4839
 3937TIP3    H133446   3.736   6.535   7.482 -1.5809 -0.0317  1.0000
 3937TIP3    H233447   3.664   6.643   7.562 -1.6827  0.7833 -0.1706
 3938TIP3   OH233448   0.428   5.019   7.580 -0.2144 -0.1825 -0.0023
 3938TIP3    H133449   0.520   5.039   7.563 -0.1549 -0.3620  0.1124
 3938TIP3    H233450   0.399   4.971   7.502  0.0557 -0.9951  0.3834
 3939TIP3   OH233451   4.279   2.658   7.623  0.0696 -0.1919 -0.4266
 3939TIP3    H133452   4.231   2.575   7.626 -1.7501  0.8085 -0.1686
 3939TIP3    H233453   4.261   2.693   7.536 -0.2069  0.4840 -0.1050
 3940TIP3   OH233454   6.794   6.576   7.340 -0.3787 -0.3341  0.1843
 3940TIP3    H133455   6.857   6.504   7.332  0.9647  0.7720  0.4202
 3940TIP3    H233456   6.760   6.568   7.429  0.1766 -0.3782  0.4013
 3941TIP3   OH233457   5.135   6.659   0.262  0.1087  0.1881  0.5833
 3941TIP3    H133458   5.211   6.635   0.209  0.2907  0.8524  0.5372
 3941TIP3    H233459   5.080   6.581   0.262  0.7373 -0.2564  0.5228
 3942TIP3   OH233460   3.631   0.556   0.398 -0.1730  0.1280 -0.7684
 3942TIP3    H133461   3.552   0.517   0.361 -0.2858 -2.8453  2.2527
 3942TIP3    H233462   3.699   0.490   0.385  0.4467  0.2338  1.5712
 3943TIP3   OH233463   1.467   3.272   0.766 -0.8442 -0.8270  0.5821
 3943TIP3    H133464   1.395   3.230   0.814  0.5051 -0.6201  2.8921
 3943TIP3    H233465   1.537   3.207   0.767  0.4550  0.5196  2.1476
 3944TIP3   OH233466   1.309   5.703   8.040  0.2624 -0.2443  0.1874
 3944TIP3    H133467   1.330   5.620   8.084 -1.7058 -1.1925 -0.4970
 3944TIP3    H233468   1.321   5.684   7.947  1.5183  0.8290  0.1058
 3945TIP3   OH233469   2.840   2.336   0.947 -0.7217  0.3106  0.5379
 3945TIP3    H133470   2.850   2.317   1.040 -0.1237 -1.9390  0.0637
 3945TIP3    H233471   2.746   2.338   0.931 -0.8140 -0.9983  0.8873
 3946TIP3   OH233472   1.961   4.056   7.490 -1.1977  0.5523  0.3437
 3946TIP3    H133473   1.994   4.065   7.580  1.4346 -3.8181  0.0910
 3946TIP3    H233474   2.033   4.087   7.435 -1.7832  0.8269 -0.2841
 3947TIP3   OH233475   3.434   2.845   6.403 -0.2889 -0.3005 -0.3075
 3947TIP3    H133476   3.464   2.934   6.422 -1.1964  0.0448 -0.4498
 3947TIP3    H233477   3.371   2.826   6.472 -0.7821 -0.4812 -0.8014
 3948TIP3   OH233478   2.760   5.843   0.511  0.5193 -0.2286 -0.1301
 3948TIP3    H133479   2.689   5.805   0.563  0.2631 -0.8880 -0.9427
 3948TIP3    H233480   2.795   5.770   0.461  1.1501  0.2841 -0.4448
 3949TIP3   OH233481   4.774   1.173   2.483 -0.1379  0.1249  0.4501
 3949TIP3    H133482   4.794   1.102   2.544 -2.3177 -1.0762 -0.1159
 3949TIP3    H233483   4.854   1.183   2.431  0.0843 -2.3192  0.2120
 3950TIP3   OH233484   0.000   1.675   7.031  0.1008 -0.1849  0.4304
 3950TIP3    H133485  -0.022   1.588   7.064  2.4238 -0.5199  1.2524
 3950TIP3    H233486  -0.029   1.674   6.940 -2.6857 -0.6807  1.2219
 3951TIP3   OH233487   4.726   6.140   2.258  0.5405 -0.2544 -0.1139
 3951TIP3    H133488   4.777   6.120   2.180  0.4189 -1.0392 -0.0047
 3951TIP3    H233489   4.749   6.071   2.320 -1.2349 -1.1075 -0.3487
 3952TIP3   OH233490   2.387   1.691   1.785 -0.1909 -0.0451  0.4631
 3952TIP3    H133491   2.419   1.772   1.745 -0.3104  0.1845  0.8302
 3952TIP3    H233492   2.459   1.630   1.775  0.4687  0.5296  1.4753
 3953TIP3   OH233493   0.369   3.347   7.591  0.7254  0.1907 -0.0652
 3953TIP3    H133494   0.327   3.271   7.631  1.2896  0.2373  0.6487
 3953TIP3    H233495   0.416   3.313   7.516 -3.0470  0.5505 -2.8573
 3954TIP3   OH233496   0.276   3.701   0.806 -0.6576  0.0929  0.1723
 3954TIP3    H133497   0.292   3.612   0.837 -3.4767 -0.7555 -0.4774
 3954TIP3    H233498   0.287   3.756   0.884 -0.8397 -1.0803  1.0523
 3955TIP3   OH233499   3.584   4.736   7.343 -0.9822 -0.4281  0.1293
 3955TIP3    H133500   3.637   4.665   7.380 -0.3694 -0.2832 -0.4281
 3955TIP3    H233501   3.551   4.783   7.418  0.3760 -0.0350  0.5149
 3956TIP3   OH233502   5.319   6.341   0.143  0.7947  0.9720 -0.5729
 3956TIP3    H133503   5.378   6.347   0.218 -0.7386  2.3775  0.5983
 3956TIP3    H233504   5.376   6.353   0.067  2.3404 -0.0987  0.3490
 3957TIP3   OH233505   3.164   0.334   6.638  0.3662 -0.0153 -0.3032
 3957TIP3    H133506   3.070   0.331   6.654  0.5885 -1.4664  0.9499
 3957TIP3    H233507   3.189   0.424   6.657 -0.2465 -0.3963  2.9097
 3958TIP3   OH233508   3.244   2.380   2.025  0.9137 -0.5356 -0.3347
 3958TIP3    H133509   3.300   2.345   1.955  0.6762  0.9031 -1.2847
 3958TIP3    H233510   3.283   2.346   2.105 -0.2348 -4.3220 -1.1603
 3959TIP3   OH233511   1.569   2.426   1.700  0.0301  0.4231  0.3433
 3959TIP3    H133512   1.625   2.351   1.678 -0.6804 -0.1001  0.3010
 3959TIP3    H233513   1.559   2.473   1.618 -0.4923 -0.0939  0.1066
 3960TIP3   OH233514   1.486   0.504   1.067  0.0150  0.0451  0.4769
 3960TIP3    H133515   1.451   0.457   0.992  0.9999 -0.6012  0.4158
 3960TIP3    H233516   1.527   0.437   1.121  0.0857  0.6256  1.1654
 3961TIP3   OH233517   1.310   1.283   0.968  0.0336 -0.3507  0.1750
 3961TIP3    H133518   1.262   1.289   0.885 -0.7478  1.7524  0.7199
 3961TIP3    H233519   1.359   1.365   0.972  1.2553 -1.0911  1.1265
 3962TIP3   OH233520   1.962   3.754   1.632 -0.1857 -0.3158 -0.3832
 3962TIP3    H133521   1.946   3.799   1.715  1.4288  2.5843 -1.5167
 3962TIP3    H233522   1.899   3.793   1.571  0.3736 -0.5199 -1.1123
 3963TIP3   OH233523   3.764   5.886   0.092  0.0072 -0.2404 -0.0663
 3963TIP3    H133524   3.671   5.897   0.114 -0.2051 -1.0698 -0.5254
 3963TIP3    H233525   3.790   5.970   0.053  0.2503  1.1247  2.7410
 3964TIP3   OH233526   1.927   3.607   7.053  0.6037  0.3576  0.1968
 3964TIP3    H133527   1.856   3.671   7.062  0.7850  0.5215  0.4684
 3964TIP3    H233528   1.964   3.600   7.141 -0.5397 -1.4368  0.5925
 3965TIP3   OH233529   0.052   1.117   7.381  0.1169 -0.4386 -0.1172
 3965TIP3    H133530   0.082   1.171   7.455  0.6358  0.4452 -0.9542
 3965TIP3    H233531  -0.037   1.147   7.365 -0.2916 -1.1979  0.6532
 3966TIP3   OH233532   0.636   1.337   8.045  0.0705 -1.0621 -0.1581
 3966TIP3    H133533   0.731   1.323   8.039  0.0650 -1.3422  0.3582
 3966TIP3    H233534   0.598   1.249   8.036 -0.0838 -1.0909  0.6911
 3967TIP3   OH233535   2.388   3.678   1.951  0.0785  0.0323 -0.0228
 3967TIP3    H133536   2.475   3.682   1.910  0.0846 -1.2730 -0.1658
 3967TIP3    H233537   2.357   3.590   1.932 -1.5621  0.6920 -0.5227
 3968TIP3   OH233538   2.122   5.962   7.064 -0.5017 -0.1139  0.1004
 3968TIP3    H133539   2.115   6.017   6.987 -1.0708 -0.5182 -0.1459
 3968TIP3    H233540   2.096   6.019   7.137 -0.7098  0.0557 -0.1038
 3969TIP3   OH233541   6.803   5.402   0.848 -0.3650  0.2362  0.3249
 3969TIP3    H133542   6.766   5.322   0.885  0.0414 -0.2230 -0.2497
 3969TIP3    H233543   6.842   5.447   0.923 -2.0925  0.7655  0.9696
 3970TIP3   OH233544   1.518   4.709   7.648  0.3227  0.0352  0.1277
 3970TIP3    H133545   1.605   4.689   7.681  0.9505  3.3891  0.8593
 3970TIP3    H233546   1.533   4.752   7.564 -0.5650  0.8049  0.3354
 3971TIP3   OH233547   4.073   5.381   8.379 -0.7185 -0.5153  0.2476
 3971TIP3    H133548   3.978   5.375   8.377 -0.7151 -1.3078  1.3902
 3971TIP3    H233549   4.093   5.426   8.461 -0.0896 -1.2555  0.5189
 3972TIP3   OH233550   5.374   5.093   0.485  0.3919  0.0546  0.5338
 3972TIP3    H133551   5.313   5.028   0.450 -0.2512  0.4062  0.9792
 3972TIP3    H233552   5.433   5.044   0.541  0.0521 -0.1814  0.6871
 3973TIP3   OH233553   3.898   3.300   7.724  0.1042 -0.3510 -0.6389
 3973TIP3    H133554   3.988   3.281   7.751  0.0847 -1.0149 -1.0074
 3973TIP3    H233555   3.845   3.233   7.769 -0.3686  0.7989  0.5795
 3974TIP3   OH233556   4.786   1.178   7.866 -0.6607  0.1706  0.2432
 3974TIP3    H133557   4.838   1.240   7.815 -1.5018  0.9837  0.3305
 3974TIP3    H233558   4.803   1.093   7.826 -2.3352  0.9301 -2.3437
 3975TIP3   OH233559   0.425   0.131   1.154 -0.0225 -0.1359  0.3268
 3975TIP3    H133560   0.410   0.150   1.247  0.3209  0.6369  0.2391
 3975TIP3    H233561   0.338   0.117   1.118 -0.2411  0.4886  0.5886
 3976TIP3   OH233562   2.085   5.600   1.651  0.5707  0.3753 -0.6195
 3976TIP3    H133563   2.106   5.613   1.743  0.6912 -1.4490 -0.3625
 3976TIP3    H233564   2.100   5.507   1.635 -0.8878  0.3360 -2.1003
 3977TIP3   OH233565   6.341   1.549   1.200  0.3216  0.2576 -0.1465
 3977TIP3    H133566   6.287   1.624   1.177 -0.3453 -0.0122  0.4605
 3977TIP3    H233567   6.372   1.568   1.289  0.4531 -0.0133 -0.1334
 3978TIP3   OH233568   1.230   0.854   7.747  0.6556 -0.2965 -0.0269
 3978TIP3    H133569   1.309   0.907   7.762  1.4568 -1.3184 -0.5014
 3978TIP3    H233570   1.254   0.796   7.675 -0.9996  0.2849 -1.0872
 3979TIP3   OH233571   5.345   4.927   1.352 -0.3974  0.4800 -0.5217
 3979TIP3    H133572   5.399   4.885   1.286  0.5550 -1.4014  1.3441
 3979TIP3    H233573   5.383   5.014   1.363 -1.0838  1.1472 -2.9565
 3980TIP3   OH233574   5.019   3.548   1.020 -0.0829  0.1928  0.2949
 3980TIP3    H133575   5.092   3.610   1.024  0.9892 -0.9809 -0.3732
 3980TIP3    H233576   5.037   3.487   1.092  1.1703 -1.7268 -1.5523
 3981TIP3   OH233577   6.361   3.987   0.751  0.2161 -0.0835  0.7222
 3981TIP3    H133578   6.447   4.029   0.744  0.5667 -0.5770  1.7571
 3981TIP3    H233579   6.322   4.026   0.829  0.7507 -1.9355  2.0103
 3982TIP3   OH233580   5.046   1.542   6.298 -0.1578  0.6074 -0.2821
 3982TIP3    H133581   5.082   1.465   6.254 -1.6328  0.3502 -1.1139
 3982TIP3    H233582   5.122   1.592   6.325  0.8219 -0.5729 -0.7500
 3983TIP3   OH233583   1.620   2.873   6.997 -0.5280 -0.3919 -0.2555
 3983TIP3    H133584   1.677   2.810   6.954 -0.3345 -1.8308  1.9448
 3983TIP3    H233585   1.616   2.948   6.937 -0.6261 -2.3987 -2.8946
 3984TIP3   OH233586   4.660   3.857   7.659 -0.4274 -0.3193 -0.7628
 3984TIP3    H133587   4.694   3.767   7.658 -1.5260 -0.8351  1.7765
 3984TIP3    H233588   4.576   3.852   7.615 -0.6579 -0.6185 -0.2894
 3985TIP3   OH233589   5.611   2.338   6.753  0.1474 -0.0505 -0.1654
 3985TIP3    H133590   5.538   2.375   6.802  0.4211 -0.1204  0.2973
 3985TIP3    H233591   5.682   2.402   6.764  0.3200 -0.2400 -0.1708
 3986TIP3   OH233592   2.005   2.105   0.294 -0.3120 -0.0220 -0.4497
 3986TIP3    H133593   2.018   2.200   0.290 -1.3985  0.1558 -0.1230
 3986TIP3    H233594   2.063   2.070   0.227 -0.6775  0.9560 -1.2983
 3987TIP3   OH233595   2.190   6.374   7.045  0.1210  0.0155  0.6780
 3987TIP3    H133596   2.121   6.309   7.036  0.1828 -0.1795  1.5448
 3987TIP3    H233597   2.206   6.380   7.139  1.1261  0.2209  0.5089
 3988TIP3   OH233598   2.246   3.741   0.351 -0.9622 -0.4639 -0.1778
 3988TIP3    H133599   2.313   3.700   0.298 -0.1151  0.7914 -0.1272
 3988TIP3    H233600   2.170   3.750   0.293 -0.6760 -0.8038 -0.6010
 3989TIP3   OH233601   2.307   0.653   2.482  0.3062  0.7679  0.7804
 3989TIP3    H133602   2.323   0.560   2.466  1.5841  0.9400  0.9906
 3989TIP3    H233603   2.385   0.684   2.527  0.0525  2.0302  0.3930
 3990TIP3   OH233604   3.024   3.060   0.453  0.3349  0.2013 -0.3834
 3990TIP3    H133605   3.034   3.155   0.447  0.4689  0.0859 -3.8145
 3990TIP3    H233606   3.108   3.029   0.487  0.8637  1.2037 -0.7228
 3991TIP3   OH233607   4.928   3.775   8.324 -0.4683 -0.1143  0.4029
 3991TIP3    H133608   4.863   3.843   8.341  0.4724  1.0694 -0.5141
 3991TIP3    H233609   4.934   3.772   8.228  0.2947 -0.7083  0.4626
 3992TIP3   OH233610   2.847   5.684   1.508 -0.3900 -0.1393  0.4368
 3992TIP3    H133611   2.939   5.687   1.482 -0.3359 -0.7635  0.5263
 3992TIP3    H233612   2.844   5.616   1.576 -1.3030 -1.8208 -1.1915
 3993TIP3   OH233613   1.599   3.878   0.755  0.3379  0.2539 -0.0912
 3993TIP3    H133614   1.504   3.865   0.759  0.3879  0.1462  1.8654
 3993TIP3    H233615   1.636   3.796   0.788  0.9943  1.2397  1.7363
 3994TIP3   OH233616   4.289   2.568   0.479  0.3065  0.3622 -0.0851
 3994TIP3    H133617   4.374   2.556   0.437  0.5977 -0.4738  0.7255
 3994TIP3    H233618   4.293   2.656   0.518  0.3519  0.7914 -1.0250
 3995TIP3   OH233619   3.329   3.021   0.555 -0.2854  0.2849 -0.4616
 3995TIP3    H133620   3.276   2.962   0.608 -0.1903  0.4962 -0.1219
 3995TIP3    H233621   3.399   3.048   0.614 -0.2879  0.6767 -0.6370
 3996TIP3   OH233622   3.200   6.071   1.350 -0.1669 -0.8242 -0.1451
 3996TIP3    H133623   3.294   6.053   1.352 -0.0266 -0.1082  0.1233
 3996TIP3    H233624   3.178   6.092   1.441 -0.0791  1.4622 -0.5953
 3997TIP3   OH233625   3.181   5.764   0.533  0.1824  0.5985  0.3750
 3997TIP3    H133626   3.122   5.807   0.471  0.9065  0.2614 -0.5710
 3997TIP3    H233627   3.264   5.758   0.486  0.9748  1.0318  1.6621
 3998TIP3   OH233628   3.986   6.537   1.337 -0.1335 -0.2478 -0.1859
 3998TIP3    H133629   4.045   6.530   1.262  0.4061  0.7679  0.1122
 3998TIP3    H233630   3.925   6.464   1.328  1.5157 -1.6892 -0.1944
 3999TIP3   OH233631   6.053   2.178   1.661  0.0502  0.5272 -0.2026
 3999TIP3    H133632   6.016   2.244   1.720  1.6895  1.2088  0.1155
 3999TIP3    H233633   6.098   2.117   1.719  0.7185  0.5760 -0.6595
 4000TIP3   OH233634   0.088   0.514   7.025 -0.8872 -0.1135 -0.0808
 4000TIP3    H133635   0.059   0.423   7.023 -0.1838 -0.3911  1.4272
 4000TIP3    H233636   0.010   0.563   7.052 -0.4991 -0.6595  2.2231
 4001TIP3   OH233637   4.485   4.548   6.592  0.1592  0.2695  0.1148
 4001TIP3    H133638   4.558   4.581   6.644 -0.7785 -1.0777  2.4526
 4001TIP3    H233639   4.510   4.564   6.501  3.8112 -0.9942  0.7425
 4002TIP3   OH233640   6.003   6.712   1.532  0.2286 -0.0243 -0.3068
 4002TIP3    H133641   5.992   6.711   1.627  1.0152 -0.3747 -0.2122
 4002TIP3    H233642   6.098   6.716   1.518  0.1162  0.2972 -1.0787
 4003TIP3   OH233643   1.603   5.264   0.562 -0.4651  0.0935  0.2977
 4003TIP3    H133644   1.509   5.265   0.543 -0.0433  0.7131 -2.0676
 4003TIP3    H233645   1.641   5.210   0.493  1.1693  1.9800 -0.3751
 4004TIP3   OH233646   1.744   5.200   7.702 -0.0827  0.2652  0.0285
 4004TIP3    H133647   1.720   5.279   7.653 -0.8658 -0.3344 -0.5558
 4004TIP3    H233648   1.832   5.179   7.671 -0.3695  0.1900 -0.7515
 4005TIP3   OH233649   4.690   2.780   0.777 -0.0485  0.2024  0.3126
 4005TIP3    H133650   4.668   2.790   0.684  2.0415 -1.4247 -0.4086
 4005TIP3    H233651   4.770   2.832   0.788 -0.3791  0.5263  1.2764
 4006TIP3   OH233652   1.965   5.548   8.351  0.2670  0.1804 -0.0628
 4006TIP3    H133653   1.995   5.482   8.413 -0.6561  0.2658  0.4974
 4006TIP3    H233654   1.890   5.588   8.393 -1.4040 -0.8343 -1.8819
 4007TIP3   OH233655   4.217   3.124   2.104  0.0736 -0.9660  0.2707
 4007TIP3    H133656   4.255   3.211   2.100  0.1739 -1.0011  0.4218
 4007TIP3    H233657   4.159   3.127   2.181  1.6803 -1.6471  1.5750
 4008TIP3   OH233658   4.737   4.986   1.970 -0.0813 -0.1605  0.1273
 4008TIP3    H133659   4.704   4.957   2.055 -0.8892 -2.3937 -0.8668
 4008TIP3    H233660   4.659   5.017   1.924  0.0522 -0.6177 -0.4096
 4009TIP3   OH233661   1.310   4.327   0.420 -0.0018 -0.2131 -0.0039
 4009TIP3    H133662   1.232   4.383   0.423  0.3957  0.3969 -0.7915
 4009TIP3    H233663   1.276   4.238   0.417 -0.6511 -0.0099  0.7679
 4010TIP3   OH233664   6.542   0.667   2.447 -0.3750 -0.5550  0.2866
 4010TIP3    H133665   6.603   0.632   2.382 -0.3599 -0.0347  0.0072
 4010TIP3    H233666   6.506   0.591   2.492  0.8502 -0.8548  0.7921
 4011TIP3   OH233667   3.865   1.885   7.542  0.2670  0.4610 -0.7235
 4011TIP3    H133668   3.791   1.825   7.546 -0.8009  1.7879  2.6144
 4011TIP3    H233669   3.942   1.828   7.544 -0.7056 -0.9054  1.6238
 4012TIP3   OH233670   4.655   0.689   2.392  0.3876 -0.6445  0.3114
 4012TIP3    H133671   4.592   0.755   2.363  2.9483  1.1868 -1.5962
 4012TIP3    H233672   4.679   0.642   2.312  0.5714 -2.1098  1.1934
 4013TIP3   OH233673   3.980   2.792   0.695  0.4587  0.0503  0.0644
 4013TIP3    H133674   4.043   2.837   0.639  1.3333  0.9855  1.6945
 4013TIP3    H233675   4.033   2.759   0.768 -0.5894 -1.3647  0.2186
 4014TIP3   OH233676   3.652   6.643   7.753 -0.1061 -0.6260 -0.3173
 4014TIP3    H133677   3.710   6.584   7.801  0.1454  0.1500  0.3413
 4014TIP3    H233678   3.678   6.731   7.781  0.4495 -0.0952 -2.2805
 4015TIP3   OH233679   4.083   5.910   1.497 -0.4550 -0.2124  0.3579
 4015TIP3    H133680   4.129   5.827   1.505  0.0337 -0.1106 -1.1696
 4015TIP3    H233681   4.151   5.972   1.470 -1.2644  0.1739 -0.8498
 4016TIP3   OH233682   3.817   1.992   0.634 -0.2066  0.2744  0.1774
 4016TIP3    H133683   3.825   1.899   0.613  0.6367  0.4097 -0.1692
 4016TIP3    H233684   3.723   2.008   0.639 -0.3648 -0.9482  1.8907
 4017TIP3   OH233685   3.919   0.711   0.707 -0.3993  0.0721 -0.1978
 4017TIP3    H133686   4.007   0.694   0.674 -0.9025 -0.5784 -1.2540
 4017TIP3    H233687   3.865   0.641   0.670 -1.5221  0.9437 -0.2900
 4018TIP3   OH233688   0.112   2.873   2.292 -0.2203  0.1060 -0.5548
 4018TIP3    H133689   0.100   2.820   2.371  0.3576  1.1711  0.2686
 4018TIP3    H233690   0.095   2.812   2.219 -1.5962 -0.6793  0.3853
 4019TIP3   OH233691   1.671   6.070   1.130  0.2994  0.4270  0.3235
 4019TIP3    H133692   1.658   5.976   1.141 -0.3481  0.5588  0.7149
 4019TIP3    H233693   1.730   6.077   1.055 -1.9062 -0.2046 -1.5932
 4020TIP3   OH233694   6.904   0.503   7.429 -0.2740 -0.1424 -0.8510
 4020TIP3    H133695   6.811   0.514   7.409 -0.1780  1.0627 -0.7130
 4020TIP3    H233696   6.909   0.422   7.479 -1.6051  1.0161  1.2735
 4021TIP3   OH233697   2.978   4.801   8.191  0.0946 -0.1432  0.4337
 4021TIP3    H133698   2.985   4.735   8.122  0.8396 -2.0116  2.1961
 4021TIP3    H233699   2.886   4.827   8.190 -0.3152 -1.5186 -0.0661
 4022TIP3   OH233700   2.090   6.153   1.820 -0.0715  0.8878 -0.0927
 4022TIP3    H133701   2.126   6.163   1.732 -1.6776  1.5409 -0.7051
 4022TIP3    H233702   2.115   6.064   1.846  1.5453  1.1523 -0.6543
 4023TIP3   OH233703   4.398   4.480   1.052  0.1340 -0.1803 -0.0205
 4023TIP3    H133704   4.443   4.413   1.000 -2.2684 -2.0451  0.0944
 4023TIP3    H233705   4.311   4.486   1.013 -1.0008  0.0235  2.3547
 4024TIP3   OH233706   1.629   6.623   0.427  0.2368 -0.0926 -0.1689
 4024TIP3    H133707   1.539   6.613   0.459  0.4618 -4.0389 -0.1986
 4024TIP3    H233708   1.683   6.577   0.492  1.7416 -0.9320 -1.9145
 4025TIP3   OH233709   1.230   5.685   0.393  0.1427 -0.5128 -0.1955
 4025TIP3    H133710   1.282   5.728   0.461  0.8384  1.2266 -1.7281
 4025TIP3    H233711   1.295   5.651   0.331 -0.4323 -3.0217  0.4545
 4026TIP3   OH233712   0.162   2.731   7.366 -0.4002 -0.2332 -0.1047
 4026TIP3    H133713   0.149   2.749   7.459 -0.8469 -1.3007  0.0532
 4026TIP3    H233714   0.161   2.636   7.360 -1.6193 -0.1649 -1.3753
 4027TIP3   OH233715   5.557   4.924   2.232  0.2023 -0.1544 -0.5453
 4027TIP3    H133716   5.508   4.842   2.222 -1.0977  0.8283 -3.2802
 4027TIP3    H233717   5.610   4.931   2.153  1.5885  0.8868  0.4112
 4028TIP3   OH233718   2.071   4.680   7.196  0.0399  0.0679  0.4261
 4028TIP3    H133719   2.054   4.692   7.102  1.1796  1.7060  0.3824
 4028TIP3    H233720   2.146   4.737   7.214 -0.2694 -0.0779  2.3810
 4029TIP3   OH233721   2.535   1.159   8.126 -0.6130 -0.1415 -0.1586
 4029TIP3    H133722   2.570   1.218   8.059 -1.2813  3.0296  2.0649
 4029TIP3    H233723   2.612   1.130   8.175 -0.3194 -0.9166 -1.0344
 4030TIP3   OH233724   5.593   5.018   7.075  0.3611  0.6046 -0.7372
 4030TIP3    H133725   5.677   5.025   7.031  0.4990 -0.5215 -0.6786
 4030TIP3    H233726   5.612   4.969   7.155 -0.2757  0.6907 -0.5290
 4031TIP3   OH233727   6.047   1.627   7.022  0.4787  0.4830  0.0699
 4031TIP3    H133728   6.013   1.695   7.080 -0.8229  0.8142 -1.0329
 4031TIP3    H233729   6.077   1.675   6.944 -0.8820 -0.2021 -0.9155
 4032TIP3   OH233730   3.846   1.982   1.951 -0.0619  0.0850 -0.2704
 4032TIP3    H133731   3.804   1.921   1.891 -1.5855 -1.1399  1.8836
 4032TIP3    H233732   3.804   1.965   2.036  1.4138  2.2417  1.0004
 4033TIP3   OH233733   3.112   4.765   2.310  0.4790  0.2192  0.1248
 4033TIP3    H133734   3.134   4.676   2.285  0.1176  0.1987 -0.1159
 4033TIP3    H233735   3.066   4.801   2.234 -1.6944 -0.2214  1.1619
 4034TIP3   OH233736   1.017   4.117   0.154  0.8691  0.2536  0.0124
 4034TIP3    H133737   1.018   4.054   0.226  2.1426  0.4591  0.1998
 4034TIP3    H233738   1.011   4.203   0.196 -0.9351  0.2857 -0.2452
 4035TIP3   OH233739   0.045   4.000   7.649  0.2724 -0.2634  0.1373
 4035TIP3    H133740  -0.040   3.964   7.624  1.1123 -1.5540 -1.0628
 4035TIP3    H233741   0.071   3.948   7.725 -0.5228  0.9800  1.3091
 4036TIP3   OH233742   6.609   4.213   7.777  0.3734  0.1571 -0.0169
 4036TIP3    H133743   6.687   4.237   7.727  1.0203  0.6547  1.1839
 4036TIP3    H233744   6.566   4.296   7.796 -0.6114 -0.1331 -0.8888
 4037TIP3   OH233745   1.716   5.220   8.332  0.2037 -0.2463 -0.3234
 4037TIP3    H133746   1.794   5.208   8.278  0.6372  0.9230 -0.0039
 4037TIP3    H233747   1.724   5.156   8.402  0.6047 -0.4857 -0.5886
 4038TIP3   OH233748   2.479   2.962   2.140  0.0640 -0.5326  0.3235
 4038TIP3    H133749   2.416   2.939   2.208 -0.5824 -2.1737 -0.7519
 4038TIP3    H233750   2.432   3.024   2.083  0.6099  0.8500  1.3209
 4039TIP3   OH233751   3.392   0.231   0.096  0.4058 -0.0334  0.0852
 4039TIP3    H133752   3.364   0.191   0.178  2.5596  1.9063  1.9169
 4039TIP3    H233753   3.487   0.220   0.096  0.5199  0.5806 -1.8771
 4040TIP3   OH233754   0.875   1.643   1.154 -0.1187 -0.0364  0.2288
 4040TIP3    H133755   0.956   1.646   1.102 -0.3635 -1.0058 -0.2298
 4040TIP3    H233756   0.900   1.599   1.235 -0.1408 -0.1656  0.1661
 4041TIP3   OH233757   1.557   2.293   0.964  0.0071 -0.3685  0.0396
 4041TIP3    H133758   1.560   2.271   0.871 -0.7899 -1.8353  0.3300
 4041TIP3    H233759   1.482   2.353   0.972  0.4740  0.2808 -0.3420
 4042TIP3   OH233760   3.116   6.612   7.528  0.1411  0.1428  0.1147
 4042TIP3    H133761   3.187   6.642   7.470  0.3176  1.2905  0.8900
 4042TIP3    H233762   3.042   6.669   7.506 -0.1431 -0.1936  0.2026
 4043TIP3   OH233763   3.544   2.835   1.552 -0.1540 -0.2391 -0.1271
 4043TIP3    H133764   3.624   2.794   1.520 -0.0727  1.0221 -1.6390
 4043TIP3    H233765   3.475   2.773   1.531  0.2865 -0.8635  0.2351
 4044TIP3   OH233766   1.162   0.607   6.984 -0.6310 -0.6915  0.6190
 4044TIP3    H133767   1.144   0.535   6.924  0.4653  0.3177 -1.0083
 4044TIP3    H233768   1.080   0.618   7.033 -1.1465 -2.3550  0.2155
 4045TIP3   OH233769   2.330   4.709   6.977 -0.0604 -0.1388  0.7065
 4045TIP3    H133770   2.411   4.728   7.023  0.6840 -0.2028 -0.5392
 4045TIP3    H233771   2.357   4.659   6.899 -1.6038 -3.7214  2.2414
 4046TIP3   OH233772   1.584   2.048   8.074  0.1342 -0.4818 -0.6975
 4046TIP3    H133773   1.532   2.036   7.995  0.2807 -2.0622 -0.5851
 4046TIP3    H233774   1.674   2.052   8.043  0.0446  1.9879 -0.8664
 4047TIP3   OH233775   5.781   1.834   8.139  0.1245  0.1709  0.2434
 4047TIP3    H133776   5.795   1.753   8.187  0.0130  0.2678  0.4405
 4047TIP3    H233777   5.842   1.897   8.178  0.0765  0.2331  0.2192
 4048TIP3   OH233778   4.733   4.074   7.809 -0.9862  0.3870 -0.2961
 4048TIP3    H133779   4.828   4.081   7.798 -0.9742 -0.9761 -1.3228
 4048TIP3    H233780   4.708   3.999   7.756 -2.7932  1.3474 -0.9042
 4049TIP3   OH233781   0.934   6.830   1.413  0.2577 -0.1806  0.3969
 4049TIP3    H133782   1.002   6.890   1.442  0.3396  0.0208 -0.1938
 4049TIP3    H233783   0.853   6.868   1.447  0.4342 -0.3994  1.0659
 4050TIP3   OH233784   6.131   4.835   1.777 -0.1400 -0.5354  0.3226
 4050TIP3    H133785   6.117   4.741   1.767 -0.2499 -0.7837  2.4039
 4050TIP3    H233786   6.063   4.863   1.839 -0.6303  1.0906 -0.8741
 4051TIP3   OH233787   5.149   6.350   8.388  0.0262 -0.2830  0.3234
 4051TIP3    H133788   5.118   6.260   8.376 -0.2542 -0.1638  0.1294
 4051TIP3    H233789   5.085   6.404   8.341 -0.1732  0.0715  0.9895
 4052TIP3   OH233790   2.722   6.432   0.826  0.0076  0.1253 -0.0092
 4052TIP3    H133791   2.650   6.430   0.763 -0.1298  0.6801  0.1215
 4052TIP3    H233792   2.800   6.410   0.775 -0.0423  0.9618 -0.4625
 4053TIP3   OH233793   2.896   2.388   2.187 -0.2736 -0.6085 -0.4760
 4053TIP3    H133794   2.872   2.419   2.099 -2.6483  0.2284  0.3982
 4053TIP3    H233795   2.893   2.466   2.242 -0.9639 -1.4569  0.7425
 4054TIP3   OH233796   4.081   5.278   0.208 -0.4355 -0.3527  0.2884
 4054TIP3    H133797   4.151   5.271   0.143  0.3383  0.6510  0.9694
 4054TIP3    H233798   4.054   5.370   0.204  1.7846  0.6166  3.4331
 4055TIP3   OH233799   6.502   1.170   2.220  0.4267  0.0585  0.0030
 4055TIP3    H133800   6.495   1.144   2.312  1.5257 -1.4469 -0.3054
 4055TIP3    H233801   6.578   1.228   2.217 -0.8762  1.8843  0.3584
 4056TIP3   OH233802   6.696   5.476   7.876  0.4307  0.2245  0.7242
 4056TIP3    H133803   6.619   5.533   7.877 -0.2863 -0.6573 -0.8650
 4056TIP3    H233804   6.766   5.530   7.840  0.4225  0.8512  1.6165
 4057TIP3   OH233805   5.386   1.645   0.927 -0.0099 -0.3334  0.0236
 4057TIP3    H133806   5.308   1.652   0.982 -0.3758  0.8714 -0.5990
 4057TIP3    H233807   5.360   1.589   0.854 -0.2882  0.0405 -0.1664
 4058TIP3   OH233808   3.778   1.734   2.764  0.2188  0.0885  0.6970
 4058TIP3    H133809   3.729   1.815   2.781 -0.4135 -0.1917  0.2298
 4058TIP3    H233810   3.776   1.688   2.848 -0.9060 -0.2282  0.5123
 4059TIP3   OH233811   4.989   5.370   0.569  0.4597 -0.1694  0.1959
 4059TIP3    H133812   4.959   5.319   0.644 -0.0957  0.3564  0.3347
 4059TIP3    H233813   4.985   5.308   0.495 -1.8858  0.1090  0.0247
 4060TIP3   OH233814   2.301   1.894   0.632 -0.0623 -0.3320 -0.2414
 4060TIP3    H133815   2.353   1.918   0.708  0.6371  1.8883 -1.3364
 4060TIP3    H233816   2.220   1.943   0.641  0.0468 -0.0080 -0.9248
 4061TIP3   OH233817   3.287   1.076   0.957  0.5686  0.6476 -0.2143
 4061TIP3    H133818   3.212   1.114   1.002  1.0362  0.1905  0.9784
 4061TIP3    H233819   3.345   1.150   0.939 -0.5797  1.1586 -2.0315
 4062TIP3   OH233820   4.312   6.886   7.433  0.3552 -0.3287 -0.1678
 4062TIP3    H133821   4.276   6.798   7.445 -0.0533 -0.1868 -0.3547
 4062TIP3    H233822   4.320   6.921   7.522 -0.3449 -0.2118 -0.1500
 4063TIP3   OH233823   4.329   1.011   7.045 -0.4088 -0.2378 -0.1761
 4063TIP3    H133824   4.422   1.034   7.044 -0.3613 -0.4339 -1.0891
 4063TIP3    H233825   4.315   0.965   6.963 -1.2639 -0.4363  0.0699
 4064TIP3   OH233826   5.400   6.478   8.454 -0.6757  0.1476 -0.0936
 4064TIP3    H133827   5.393   6.537   8.379 -2.9756  0.6267  0.4101
 4064TIP3    H233828   5.352   6.399   8.427  0.0627 -0.4290  0.2244
 4065TIP3   OH233829   2.373   1.404   7.711  0.2168 -0.3490  0.3146
 4065TIP3    H133830   2.381   1.454   7.792  0.9448  0.3711 -0.1885
 4065TIP3    H233831   2.463   1.383   7.686 -0.0142 -0.7799 -0.1840
 4066TIP3   OH233832   0.586   1.805   0.304 -0.4920  0.0491 -0.3682
 4066TIP3    H133833   0.590   1.727   0.249  1.6750 -0.6989  0.7339
 4066TIP3    H233834   0.644   1.868   0.262 -1.3497  0.6747 -0.6394
 4067TIP3   OH233835   0.145   6.945   6.527 -0.0039  0.2499  0.2043
 4067TIP3    H133836   0.150   7.025   6.579  0.4298  2.2357 -2.6496
 4067TIP3    H233837   0.193   6.880   6.579 -0.1959  1.8397  2.5500
 4068TIP3   OH233838   2.664   3.167   7.859 -1.1092  0.0733 -0.2765
 4068TIP3    H133839   2.684   3.122   7.777  2.0711 -0.4061  0.6189
 4068TIP3    H233840   2.654   3.259   7.834  0.4038  0.0224 -1.1924
 4069TIP3   OH233841   2.895   1.886   8.528 -0.0512  0.2985  0.4872
 4069TIP3    H133842   2.929   1.964   8.485 -0.1493 -0.0433 -0.2267
 4069TIP3    H233843   2.801   1.886   8.508  0.1593 -0.6747 -0.6216
 4070TIP3   OH233844   6.157   2.475   7.307  0.0046 -0.0135  0.0042
 4070TIP3    H133845   6.193   2.470   7.218  1.9690 -2.1244  0.8103
 4070TIP3    H233846   6.072   2.430   7.301  0.7609 -1.4378 -0.5755
 4071TIP3   OH233847   1.873   5.628   1.193  0.3355 -0.4555  0.4527
 4071TIP3    H133848   1.808   5.655   1.258  0.5597  0.4313  0.3165
 4071TIP3    H233849   1.875   5.533   1.200  1.4548 -0.3412  2.8243
 4072TIP3   OH233850   2.000   5.957   2.354 -0.3944  0.2435 -0.4752
 4072TIP3    H133851   1.923   5.922   2.399 -1.0050  1.8240 -0.2634
 4072TIP3    H233852   2.034   5.882   2.305 -0.5131 -1.1860  1.4838
 4073TIP3   OH233853   1.954   0.928   0.128  0.0744 -0.5476  0.2800
 4073TIP3    H133854   1.859   0.940   0.132  0.1674  1.8945 -2.2586
 4073TIP3    H233855   1.965   0.833   0.126 -2.3844 -0.8990 -0.3475
 4074TIP3   OH233856   2.706   3.508   2.013 -0.1946 -0.2399 -0.4249
 4074TIP3    H133857   2.752   3.553   2.083  1.5590 -1.4696 -0.7121
 4074TIP3    H233858   2.620   3.488   2.049  0.7143 -0.9659  1.4489
 4075TIP3   OH233859   4.508   3.492   0.564 -0.4803 -0.6043 -0.1439
 4075TIP3    H133860   4.460   3.414   0.592 -0.0511 -1.3324 -1.3465
 4075TIP3    H233861   4.558   3.519   0.641 -0.9532 -1.2702  0.4038
 4076TIP3   OH233862   6.698   3.809   0.363  0.3225 -0.4331 -0.4734
 4076TIP3    H133863   6.700   3.715   0.345  0.0315 -0.3693 -0.8713
 4076TIP3    H233864   6.696   3.850   0.276  0.8832 -0.0458 -0.3137
 4077TIP3   OH233865   6.898   1.410   7.103  0.1965  0.2981 -0.0174
 4077TIP3    H133866   6.926   1.354   7.030 -1.7726  0.4350 -0.9745
 4077TIP3    H233867   6.883   1.350   7.175  2.4855  0.1942  0.4491
 4078TIP3   OH233868   1.328   3.598   8.198 -0.2982 -0.2195 -0.3902
 4078TIP3    H133869   1.312   3.676   8.251 -0.3173  0.4654 -1.3738
 4078TIP3    H233870   1.406   3.559   8.237 -0.9905 -0.4027  0.8698
 4079TIP3   OH233871   2.245   2.819   1.419 -0.2215  0.1529 -0.3125
 4079TIP3    H133872   2.334   2.828   1.452  0.0444  0.5519 -1.1178
 4079TIP3    H233873   2.198   2.894   1.454 -0.0728  0.2933 -0.4138
 4080TIP3   OH233874   4.542   1.778   0.852 -0.1654 -0.0192 -0.5058
 4080TIP3    H133875   4.530   1.847   0.917  0.8133 -0.7713  0.4963
 4080TIP3    H233876   4.628   1.797   0.813  0.2019 -0.7849 -0.0801
 4081TIP3   OH233877   1.524   2.496   7.416 -0.1616  0.4116 -0.3048
 4081TIP3    H133878   1.600   2.464   7.465 -0.7846 -0.1140  0.3533
 4081TIP3    H233879   1.542   2.588   7.400  0.1470  0.5605  0.7867
 4082TIP3   OH233880   4.488   4.147   7.389  0.0602  0.2243  0.1238
 4082TIP3    H133881   4.501   4.052   7.391 -0.9236  0.0480  2.8176
 4082TIP3    H233882   4.512   4.176   7.477 -0.0847  2.4386 -0.5014
 4083TIP3   OH233883   3.433   0.501   1.882  0.2853  0.2613 -0.0221
 4083TIP3    H133884   3.415   0.416   1.842 -0.8343 -0.3839  1.7452
 4083TIP3    H233885   3.355   0.553   1.864  0.2140  0.3119  0.4337
 4084TIP3   OH233886   1.944   5.373   1.540  0.4632  0.1192  0.2838
 4084TIP3    H133887   1.984   5.388   1.625  0.2376  1.0356  0.2406
 4084TIP3    H233888   2.015   5.340   1.485  0.4426 -1.1937  1.0137
 4085TIP3   OH233889   3.617   6.365   1.340 -0.1196  0.0819 -0.0657
 4085TIP3    H133890   3.636   6.310   1.264 -1.6493 -0.2293 -0.2566
 4085TIP3    H233891   3.529   6.339   1.367 -1.1012  2.7196 -0.4294
 4086TIP3   OH233892   6.182   4.152   7.293 -0.0017 -0.4482  0.1179
 4086TIP3    H133893   6.273   4.129   7.313  0.0698 -1.2254 -1.0168
 4086TIP3    H233894   6.132   4.120   7.368  0.5985 -0.5839  0.4631
 4087TIP3   OH233895   0.689   2.535   1.651  0.2635  0.4635 -0.1060
 4087TIP3    H133896   0.684   2.522   1.746  3.0645 -2.0222 -0.1720
 4087TIP3    H233897   0.645   2.458   1.614 -1.1459  1.6007 -0.9056
 4088TIP3   OH233898   3.620   0.850   1.852  0.0770  0.3032 -0.2399
 4088TIP3    H133899   3.615   0.798   1.933 -0.4616  1.1553  0.2813
 4088TIP3    H233900   3.540   0.826   1.804  0.3591 -0.1457 -0.4900
 4089TIP3   OH233901   0.296   0.560   0.023 -0.3574  0.4472  0.1978
 4089TIP3    H133902   0.308   0.651  -0.002  0.8274  0.2178 -0.1341
 4089TIP3    H233903   0.202   0.546   0.020 -0.4925  1.4455 -0.5284
 4090TIP3   OH233904   4.303   0.301   0.928 -0.5230  0.4160 -0.4798
 4090TIP3    H133905   4.295   0.297   0.833 -0.5551 -0.8014 -0.4401
 4090TIP3    H233906   4.287   0.393   0.949 -4.5781  0.0795 -1.2896
 4091TIP3   OH233907   6.380   4.595   1.882 -0.4288  0.2868  0.2244
 4091TIP3    H133908   6.380   4.544   1.963  0.9795 -0.1513 -0.0089
 4091TIP3    H233909   6.387   4.686   1.910  0.7099  0.0993  0.6214
 4092TIP3   OH233910   4.797   5.637   8.233  0.5890  0.4212 -0.1036
 4092TIP3    H133911   4.820   5.548   8.210 -0.5081 -0.0852  0.6541
 4092TIP3    H233912   4.802   5.686   8.151  2.3018 -0.0610 -0.3206
 4093TIP3   OH233913   4.740   6.205   1.587  0.3266  0.0113  0.1287
 4093TIP3    H133914   4.819   6.185   1.637  0.4035  0.2008  0.0825
 4093TIP3    H233915   4.736   6.136   1.521  0.0784 -0.3931  0.5633
 4094TIP3   OH233916   0.723   5.241   7.300 -0.5032  0.0930  0.5251
 4094TIP3    H133917   0.637   5.203   7.281 -0.5720 -0.7756  2.4395
 4094TIP3    H233918   0.786   5.171   7.281 -0.4055 -0.0376  1.3126
 4095TIP3   OH233919   6.753   6.565   0.609 -0.0780  0.6805 -0.8587
 4095TIP3    H133920   6.664   6.599   0.599  0.4093  3.2175  2.0235
 4095TIP3    H233921   6.746   6.500   0.680  0.2446  0.2675 -1.1984
 4096TIP3   OH233922   1.225   6.145   0.238  0.1281 -0.4738  0.3701
 4096TIP3    H133923   1.167   6.208   0.282 -1.8368 -2.6949  1.1448
 4096TIP3    H233924   1.177   6.120   0.159  0.5671 -1.4817  0.4154
 4097TIP3   OH233925   3.110   4.609   8.363 -1.1294 -0.2851  0.3327
 4097TIP3    H133926   3.061   4.656   8.295 -2.1849 -1.2138  0.4125
 4097TIP3    H233927   3.174   4.558   8.314 -0.1180  1.0435  0.2346
 4098TIP3   OH233928   5.203   1.903   7.097 -0.2696  0.4587  0.3675
 4098TIP3    H133929   5.136   1.963   7.063  1.2267  0.7733 -2.3175
 4098TIP3    H233930   5.174   1.816   7.067  0.2078  0.5374 -0.3653
 4099TIP3   OH233931   3.916   2.562   7.879  0.2601  0.3169  0.2845
 4099TIP3    H133932   3.990   2.521   7.835  0.0374 -0.3382  0.5146
 4099TIP3    H233933   3.857   2.490   7.901 -0.5059  0.8332  0.0022
 4100TIP3   OH233934   5.346   2.698   1.376  0.1640  0.4931  0.0739
 4100TIP3    H133935   5.429   2.746   1.379  1.8376 -2.1339 -0.7724
 4100TIP3    H233936   5.327   2.677   1.467  0.2315  1.4218  0.3083
 4101TIP3   OH233937   6.153   5.236   0.252 -0.1127  0.1349 -0.6232
 4101TIP3    H133938   6.224   5.284   0.295 -0.5181  0.6399 -0.5078
 4101TIP3    H233939   6.109   5.190   0.323 -0.4878  0.5883 -0.5563
 4102TIP3   OH233940   3.494   4.922   1.755  0.1870 -0.1951  0.5448
 4102TIP3    H133941   3.437   4.863   1.705  0.5904  0.0076 -0.1726
 4102TIP3    H233942   3.583   4.898   1.727  0.3313  1.2536 -0.3411
 4103TIP3   OH233943   0.579   4.402   7.881  0.5257 -0.4692 -0.4876
 4103TIP3    H133944   0.610   4.334   7.941  1.6277 -1.0355 -1.6660
 4103TIP3    H233945   0.486   4.380   7.867  0.4153 -0.6877  0.5012
 4104TIP3   OH233946   4.214   5.448   2.792 -0.5811 -0.1313 -0.2379
 4104TIP3    H133947   4.134   5.425   2.744  0.0427  0.0492 -1.3812
 4104TIP3    H233948   4.275   5.377   2.773 -1.1198 -1.3914  2.3529
 4105TIP3   OH233949   5.865   2.167   8.306 -0.5733  0.2712 -0.4387
 4105TIP3    H133950   5.945   2.216   8.323 -1.4392  2.1906 -1.5757
 4105TIP3    H233951   5.886   2.077   8.332  1.8171  0.7764 -0.3830
 4106TIP3   OH233952   5.404   1.835   7.831 -0.5611  0.0381 -0.2479
 4106TIP3    H133953   5.409   1.866   7.922 -1.4775  0.7697 -0.4243
 4106TIP3    H233954   5.479   1.875   7.788  0.0727 -0.5895  0.2643
 4107TIP3   OH233955   0.032   5.163   8.289 -0.0234 -0.8774 -0.1601
 4107TIP3    H133956  -0.028   5.097   8.254 -1.0880  0.4712 -0.9681
 4107TIP3    H233957   0.119   5.126   8.273 -0.5695 -1.7682 -1.2373
 4108TIP3   OH233958   6.717   3.265   2.199 -0.4261 -0.5968  0.6932
 4108TIP3    H133959   6.782   3.222   2.255  0.8292  2.0110  1.3858
 4108TIP3    H233960   6.737   3.358   2.206 -2.4865  0.0925 -1.3561
 4109TIP3   OH233961   6.393   6.170   0.648  0.1987 -0.2478  0.2772
 4109TIP3    H133962   6.422   6.079   0.650  2.7485  0.5205  1.5225
 4109TIP3    H233963   6.388   6.191   0.554 -1.6479 -1.9509 -0.0754
 4110TIP3   OH233964   0.013   1.822   0.884 -0.0101 -0.1374 -0.0520
 4110TIP3    H133965   0.101   1.786   0.871 -0.4020 -1.1111 -0.1020
 4110TIP3    H233966   0.022   1.914   0.860  1.3163  0.1214  1.2679
 4111TIP3   OH233967   0.280   3.807   7.562 -0.2300 -0.5224 -0.8792
 4111TIP3    H133968   0.284   3.753   7.483 -1.7059 -2.0296  0.0105
 4111TIP3    H233969   0.187   3.821   7.577 -0.0486 -1.1162  1.1334
 4112TIP3   OH233970   2.202   2.844   0.834  0.6788  0.2347  0.0275
 4112TIP3    H133971   2.295   2.823   0.835  0.7787  0.4862 -1.4198
 4112TIP3    H233972   2.191   2.906   0.906  1.7824  0.7669 -0.2310
 4113TIP3   OH233973   3.982   1.735   0.783  0.4388 -0.4172  0.8530
 4113TIP3    H133974   3.905   1.683   0.761  0.8274 -0.1871 -1.2455
 4113TIP3    H233975   3.949   1.801   0.845 -0.6825 -1.3262  1.2604
 4114TIP3   OH233976   5.337   3.405   0.541  0.1949 -0.2778 -0.7505
 4114TIP3    H133977   5.350   3.347   0.466 -2.5447  1.1947 -2.5260
 4114TIP3    H233978   5.286   3.478   0.506 -0.1047  1.1195  2.3134
 4115TIP3   OH233979   6.192   3.675   7.899 -0.7753  0.4758  0.6298
 4115TIP3    H133980   6.275   3.707   7.862 -1.1885  0.0086 -0.7511
 4115TIP3    H233981   6.127   3.738   7.869 -1.2261 -0.2979 -0.0463
 4116TIP3   OH233982   5.374   6.280   0.879  0.0050  0.3796 -0.4973
 4116TIP3    H133983   5.403   6.251   0.792  2.4866 -1.1808  0.7524
 4116TIP3    H233984   5.440   6.343   0.907 -1.1966  1.4657 -0.0003
 4117TIP3   OH233985   5.804   5.940   0.405  0.1025  0.6615  0.7700
 4117TIP3    H133986   5.710   5.931   0.394  0.3380 -0.5007 -0.6582
 4117TIP3    H233987   5.819   5.926   0.498 -0.8817 -2.5327  0.5841
 4118TIP3   OH233988   1.259   4.656   7.924  0.0066  0.5630 -0.8715
 4118TIP3    H133989   1.272   4.747   7.897  0.2139  0.5685 -0.7520
 4118TIP3    H233990   1.311   4.605   7.862  3.4300  0.7718  1.5693
 4119TIP3   OH233991   4.021   5.597   7.053  0.5596  1.1198  0.0152
 4119TIP3    H133992   3.956   5.654   7.094  0.9637  0.5579  1.4913
 4119TIP3    H233993   4.093   5.593   7.116  1.7632  1.2213 -1.3057
 4120TIP3   OH233994   0.678   3.012   1.448  0.5594  0.3707  0.2426
 4120TIP3    H133995   0.731   2.933   1.457  0.1742  0.0343 -0.3957
 4120TIP3    H233996   0.599   2.995   1.499  0.3634  0.2377 -0.1011
 4121TIP3   OH233997   2.210   0.426   7.087  0.1671  0.0136 -0.1077
 4121TIP3    H133998   2.265   0.352   7.111 -2.3057 -1.5869  0.9469
 4121TIP3    H233999   2.163   0.449   7.167 -1.1573  0.8933 -1.0904
 4122TIP3   OH234000   3.851   1.566   1.718 -0.1491  0.4071  0.2532
 4122TIP3    H134001   3.909   1.546   1.793  0.2754  1.4431  0.2255
 4122TIP3    H234002   3.911   1.576   1.644 -0.0209  3.6860  0.6356
 4123TIP3   OH234003   3.183   1.742   7.832 -0.3474 -0.2280 -0.1719
 4123TIP3    H134004   3.174   1.756   7.926 -0.3194  0.5882 -0.2849
 4123TIP3    H234005   3.277   1.734   7.817 -0.2594  0.9679 -0.3043
 4124TIP3   OH234006   5.430   4.485   8.082 -0.5543  0.2797  0.3422
 4124TIP3    H134007   5.344   4.450   8.061 -0.7869  0.2626  1.3132
 4124TIP3    H234008   5.413   4.559   8.139  0.1263 -0.6701  1.8369
 4125TIP3   OH234009   0.007   4.667   7.777 -0.1871  1.1763  0.1495
 4125TIP3    H134010   0.064   4.607   7.730  0.2644  0.5133  1.4908
 4125TIP3    H234011  -0.006   4.741   7.717  1.2960  0.8982 -0.5432
 4126TIP3   OH234012   4.535   2.611   7.399 -0.2185  0.3376  0.1138
 4126TIP3    H134013   4.510   2.697   7.364 -1.4362 -0.7669 -1.9049
 4126TIP3    H234014   4.543   2.555   7.322 -0.1348 -1.5585  1.4256
 4127TIP3   OH234015   4.216   3.729   7.238  0.1332 -0.1056 -0.1705
 4127TIP3    H134016   4.135   3.777   7.254  0.9048  0.9228  0.8031
 4127TIP3    H234017   4.212   3.654   7.298  0.0357  0.1104  0.0925
 4128TIP3   OH234018   2.603   5.619   0.296 -0.4241 -0.4231 -0.2278
 4128TIP3    H134019   2.548   5.541   0.287 -1.0347 -0.2072  1.3165
 4128TIP3    H234020   2.691   5.586   0.309  0.0187 -0.7751 -3.3473
 4129TIP3   OH234021   5.261   0.734   7.310  0.9086  0.7172 -0.2273
 4129TIP3    H134022   5.269   0.814   7.259  1.8271 -0.3342 -1.8343
 4129TIP3    H234023   5.351   0.705   7.323  0.7890  1.2964  2.7054
 4130TIP3   OH234024   5.111   2.118   0.479  0.4490  0.0381 -0.0390
 4130TIP3    H134025   5.041   2.183   0.486  0.2494 -0.0825 -0.8676
 4130TIP3    H234026   5.115   2.096   0.386 -0.0084 -1.7123  0.3227
 4131TIP3   OH234027   1.150   6.035   6.334 -0.0761  0.0266  0.1767
 4131TIP3    H134028   1.089   6.107   6.351 -1.0869 -0.4712 -1.1900
 4131TIP3    H234029   1.150   6.025   6.239  0.7637 -1.1839  0.2821
 4132TIP3   OH234030   4.598   5.611   7.380 -0.0445 -0.2771  0.0274
 4132TIP3    H134031   4.565   5.523   7.393 -0.3924 -0.1294  0.1488
 4132TIP3    H234032   4.685   5.611   7.420  0.5792 -0.9867 -1.2755
 4133TIP3   OH234033   1.354   1.436   7.663 -0.3159 -0.4980  0.4368
 4133TIP3    H134034   1.414   1.382   7.611 -0.9888  0.7149 -1.6919
 4133TIP3    H234035   1.412   1.489   7.718  0.4073 -1.8314  1.0326
 4134TIP3   OH234036   1.438   2.655   0.751  0.3131 -0.0570  0.2476
 4134TIP3    H134037   1.480   2.608   0.679 -0.9411 -0.5765 -0.1763
 4134TIP3    H234038   1.508   2.670   0.814  1.1652 -0.7339 -0.5076
 4135TIP3   OH234039   6.359   2.883   2.300 -0.1204  0.2390 -0.3777
 4135TIP3    H134040   6.309   2.844   2.228 -1.4911  0.1369  0.5929
 4135TIP3    H234041   6.314   2.966   2.318 -0.3930 -0.1708  0.9630
 4136TIP3   OH234042   0.384   6.185   7.147  0.3859  0.0408 -0.0472
 4136TIP3    H134043   0.393   6.197   7.242 -1.2736 -0.5197  0.2024
 4136TIP3    H234044   0.453   6.122   7.125  0.2693 -0.4505  0.9267
 4137TIP3   OH234045   4.027   3.308   0.647 -0.0348 -0.1260 -0.2086
 4137TIP3    H134046   4.033   3.385   0.590 -1.3244  1.1195  1.2244
 4137TIP3    H234047   3.997   3.343   0.731 -1.1542 -2.2643  0.3586
 4138TIP3   OH234048   5.348   4.566   6.277 -0.2303 -0.2762  0.0943
 4138TIP3    H134049   5.430   4.598   6.238  0.0619 -1.0612  0.0571
 4138TIP3    H234050   5.320   4.495   6.219 -1.2406  0.3472 -0.2122
 4139TIP3   OH234051   3.505   6.007   7.792 -0.5226 -0.1827 -0.5489
 4139TIP3    H134052   3.462   5.924   7.774 -1.1425  0.1016 -0.4131
 4139TIP3    H234053   3.493   6.022   7.886 -2.7006  1.2636 -0.9603
 4140TIP3   OH234054   0.072   4.119   7.064 -0.4270 -0.3871  0.1597
 4140TIP3    H134055   0.121   4.041   7.091 -0.6946 -0.2546  1.0723
 4140TIP3    H234056  -0.000   4.085   7.011 -0.1293 -0.6943 -0.0538
 4141TIP3   OH234057   2.405   1.515   6.889 -0.1571 -0.4344 -0.4417
 4141TIP3    H134058   2.410   1.610   6.892  0.2560 -0.4755  0.7381
 4141TIP3    H234059   2.495   1.486   6.904 -0.5785 -1.0028  1.2881
 4142TIP3   OH234060   6.559   2.788   1.046 -0.2900 -0.0218 -0.0528
 4142TIP3    H134061   6.529   2.873   1.079  1.4339  0.3603  0.6271
 4142TIP3    H234062   6.585   2.740   1.125  0.1628 -0.5949 -0.5467
 4143TIP3   OH234063   2.636   1.063   0.027  0.5453  0.1192 -0.0562
 4143TIP3    H134064   2.725   1.030   0.014  0.3805 -0.5828  0.4694
 4143TIP3    H234065   2.580   0.986   0.010 -0.0541  0.8684 -1.6576
 4144TIP3   OH234066   4.424   5.776   0.806 -0.0567  0.6363 -0.5591
 4144TIP3    H134067   4.350   5.718   0.786  0.7945 -0.5351 -0.4092
 4144TIP3    H234068   4.481   5.769   0.730 -0.2282  1.7724 -0.8026
 4145TIP3   OH234069   2.114   2.399   8.395  0.0785 -0.2953 -0.1715
 4145TIP3    H134070   2.209   2.402   8.382  0.0427  1.9341 -0.3243
 4145TIP3    H234071   2.078   2.426   8.310 -0.6301  0.3648  0.3282
 4146TIP3   OH234072   0.963   6.170   7.831 -0.3580 -0.9120 -0.4594
 4146TIP3    H134073   0.999   6.130   7.910  1.0969 -1.4809 -1.3519
 4146TIP3    H234074   0.928   6.254   7.859 -0.7269 -1.5129  0.9418
 4147TIP3   OH234075   3.862   1.053   1.189 -0.1776  0.2117 -0.4152
 4147TIP3    H134076   3.867   1.035   1.095  0.5764 -1.5577 -0.0678
 4147TIP3    H234077   3.771   1.033   1.212 -0.0058 -0.7698 -0.5286
 4148TIP3   OH234078   2.493   4.240   7.134  0.7364 -0.1815 -0.0223
 4148TIP3    H134079   2.528   4.224   7.046  1.3938 -0.7248  0.3341
 4148TIP3    H234080   2.455   4.156   7.160 -0.1154  0.1735 -0.0668
 4149TIP3   OH234081   6.474   4.229   1.937 -0.1717  0.1766  0.6174
 4149TIP3    H134082   6.451   4.320   1.954  0.6471  0.3613  0.7615
 4149TIP3    H234083   6.558   4.216   1.981  0.6136 -0.1334 -0.8812
 4150TIP3   OH234084   1.947   3.497   1.542  0.6083 -0.4075 -0.0719
 4150TIP3    H134085   1.883   3.464   1.605  0.2320  0.6575  0.1278
 4150TIP3    H234086   1.961   3.588   1.567  2.0440 -0.5470 -0.2604
 4151TIP3   OH234087   5.452   2.958   0.873  0.2596 -0.7161 -0.6153
 4151TIP3    H134088   5.417   3.042   0.844  0.2179 -0.9172 -1.1442
 4151TIP3    H234089   5.458   2.967   0.969  1.9346  0.5476 -0.7874
 4152TIP3   OH234090   3.010   0.248   7.482  0.1445  0.3126 -0.2087
 4152TIP3    H134091   3.011   0.157   7.513 -0.9296  0.8872  1.6945
 4152TIP3    H234092   3.101   0.277   7.491  0.6906 -0.8190 -1.7286
 4153TIP3   OH234093   5.303   2.902   2.667  0.3750 -0.1478 -0.5082
 4153TIP3    H134094   5.211   2.923   2.655  0.5083  0.4314 -0.5870
 4153TIP3    H234095   5.346   2.988   2.674  1.2022 -0.3053 -2.7266
 4154TIP3   OH234096   1.236   5.991   6.595  0.3599 -0.5404  0.2886
 4154TIP3    H134097   1.213   6.030   6.511 -0.3116  0.4365  0.8997
 4154TIP3    H234098   1.289   6.058   6.639 -0.3150 -0.5283  1.1200
 4155TIP3   OH234099   0.957   6.483   1.458  0.2315 -0.0991  0.3884
 4155TIP3    H134100   0.968   6.542   1.383  2.6410 -0.8104  0.0897
 4155TIP3    H234101   0.868   6.500   1.489 -0.7569  0.4388 -2.4230
 4156TIP3   OH234102   4.043   5.572   0.917 -0.1220  0.7220 -0.2448
 4156TIP3    H134103   3.957   5.614   0.920 -0.5522  0.0043 -1.5492
 4156TIP3    H234104   4.074   5.575   1.007 -2.4231 -0.8637  0.6896
 4157TIP3   OH234105   5.578   6.808   0.356  0.3495 -0.3610 -0.3411
 4157TIP3    H134106   5.563   6.736   0.295  0.8984 -1.5714  0.8858
 4157TIP3    H234107   5.673   6.810   0.367  0.2646 -0.1482  0.4229
 4158TIP3   OH234108   0.684   4.191   8.018 -0.1172 -0.6549 -0.5311
 4158TIP3    H134109   0.764   4.138   8.012  0.3456 -0.2145  1.2421
 4158TIP3    H234110   0.655   4.181   8.109 -1.7229 -0.2661 -0.9711
 4159TIP3   OH234111   2.074   0.203   8.347 -0.1859 -0.1481  0.0199
 4159TIP3    H134112   1.992   0.205   8.297  0.8635  0.5731 -1.7912
 4159TIP3    H234113   2.142   0.206   8.280  1.3554 -1.5243  1.4377
 4160TIP3   OH234114   5.083   3.376   0.745  0.0546 -0.4235  0.0885
 4160TIP3    H134115   5.115   3.286   0.755 -0.6141 -0.6957 -0.1818
 4160TIP3    H234116   5.154   3.430   0.780  0.2794 -1.0735  0.6623
 4161TIP3   OH234117   4.110   1.688   2.971  0.3977 -0.1594 -0.1868
 4161TIP3    H134118   4.100   1.640   2.889  3.2256 -1.5713  0.1850
 4161TIP3    H234119   4.140   1.775   2.944 -0.4412 -0.0081 -0.6775
 4162TIP3   OH234120   2.119   3.769   6.921 -0.5814  0.2894 -0.6207
 4162TIP3    H134121   2.057   3.701   6.949  0.6606 -0.0050  1.6518
 4162TIP3    H234122   2.136   3.820   7.000  1.7893  0.6015 -1.2621
 4163TIP3   OH234123   6.441   0.810   1.504 -0.0733 -0.8134 -0.3599
 4163TIP3    H134124   6.515   0.797   1.444 -1.1960 -0.8289 -1.7924
 4163TIP3    H234125   6.463   0.891   1.551  1.4261 -1.4855  0.1539
 4164TIP3   OH234126   2.542   1.753   2.185  0.3971 -0.1057  0.1160
 4164TIP3    H134127   2.514   1.824   2.243  0.5707  0.1112 -0.0641
 4164TIP3    H234128   2.631   1.776   2.161  0.3499 -0.2335 -0.1804
 4165TIP3   OH234129   0.441   6.675   1.639 -0.1410  0.1228 -0.0700
 4165TIP3    H134130   0.440   6.735   1.714 -1.0641  0.8560 -0.6492
 4165TIP3    H234131   0.367   6.615   1.656 -0.1246  0.0603 -0.2200
 4166TIP3   OH234132   6.952   0.881   6.213 -0.0643 -0.2678 -0.1405
 4166TIP3    H134133   6.957   0.869   6.308 -2.4592 -1.9375 -0.1385
 4166TIP3    H234134   7.042   0.865   6.182  0.8136  0.5562  1.8231
 4167TIP3   OH234135   3.461   5.860   7.101  0.7137 -0.2332  0.1795
 4167TIP3    H134136   3.499   5.946   7.121 -1.6722  1.2587 -1.2435
 4167TIP3    H234137   3.445   5.862   7.007  0.8373 -2.3871  0.0674
 4168TIP3   OH234138   2.505   2.416   0.466 -0.4858 -0.4671  0.4731
 4168TIP3    H134139   2.456   2.367   0.533  0.0974 -1.4883  0.1774
 4168TIP3    H234140   2.518   2.352   0.396 -1.8908  0.8233 -1.0515
 4169TIP3   OH234141   5.091   3.307   7.762 -0.0624  0.4455  0.0251
 4169TIP3    H134142   5.160   3.258   7.718 -1.0956 -1.0251 -0.0626
 4169TIP3    H234143   5.111   3.299   7.855 -1.5343 -2.4307  0.2107
 4170TIP3   OH234144   4.863   1.734   1.582 -0.2888  0.5137 -0.2513
 4170TIP3    H134145   4.834   1.650   1.619  1.2384  1.0099  2.2743
 4170TIP3    H234146   4.817   1.800   1.634 -1.1838  1.3053 -1.9674
 4171TIP3   OH234147   2.488   4.519   7.529  0.2573  0.1491 -0.0960
 4171TIP3    H134148   2.452   4.521   7.440  1.8779  1.9640 -0.7877
 4171TIP3    H234149   2.560   4.455   7.524  0.2503  0.1366 -0.0415
 4172TIP3   OH234150   3.973   2.429   6.345 -0.5737  0.0619  0.2029
 4172TIP3    H134151   3.879   2.430   6.328 -0.5982  0.5271  0.3412
 4172TIP3    H234152   4.000   2.339   6.327 -1.5348 -0.8471  2.7925
 4173TIP3   OH234153   2.934   2.675   1.064 -0.1119  0.4232 -0.2896
 4173TIP3    H134154   2.873   2.638   1.128 -0.1443  0.8549 -0.0704
 4173TIP3    H234155   3.008   2.613   1.063 -0.2306  0.2761 -0.0302
 4174TIP3   OH234156   5.154   0.074   7.837 -0.1329 -0.1204  0.3491
 4174TIP3    H134157   5.065   0.055   7.806 -0.1388 -1.7115  1.2208
 4174TIP3    H234158   5.141   0.132   7.911 -0.1874  2.6185 -1.6496
 4175TIP3   OH234159   2.161   3.903   7.763  0.1013  0.3047 -0.5627
 4175TIP3    H134160   2.172   3.897   7.858 -1.7936 -1.5323 -0.3941
 4175TIP3    H234161   2.200   3.988   7.740 -1.7503  2.0952  2.2396
 4176TIP3   OH234162   2.212   4.044   0.450 -0.0028 -0.2718 -0.2558
 4176TIP3    H134163   2.273   4.009   0.514 -0.1034 -1.7983 -0.9621
 4176TIP3    H234164   2.181   4.126   0.489  0.2991 -0.9115  1.4154
 4177TIP3   OH234165   1.956   4.851   7.455  0.6904  0.5754  0.5351
 4177TIP3    H134166   1.929   4.765   7.489  0.5392  0.0986 -0.7516
 4177TIP3    H234167   2.043   4.836   7.419  0.8941  1.1046  0.7953
 4178TIP3   OH234168   4.532   1.358   7.842 -0.0118  0.2248  0.5612
 4178TIP3    H134169   4.542   1.449   7.871 -0.9102  1.2182 -2.0092
 4178TIP3    H234170   4.620   1.322   7.847  0.5765  1.5830  0.5611
 4179TIP3   OH234171   4.391   4.686   7.623  0.2740 -0.4473 -0.7257
 4179TIP3    H134172   4.448   4.731   7.685  0.4188  0.6196 -1.6043
 4179TIP3    H234173   4.383   4.747   7.549 -0.0491 -1.6053 -1.6702
 4180TIP3   OH234174   3.883   3.072   0.795  0.1014 -0.4002  0.3041
 4180TIP3    H134175   3.933   3.065   0.714 -0.4489 -0.5628 -0.0309
 4180TIP3    H234176   3.849   3.162   0.794  1.0785 -0.0178  0.9490
 4181TIP3   OH234177   2.868   1.868   8.192 -0.2337 -0.1594 -0.4858
 4181TIP3    H134178   2.829   1.848   8.106  2.7697 -0.0283 -2.0091
 4181TIP3    H234179   2.883   1.962   8.190 -0.5952 -0.0775  0.4133
 4182TIP3   OH234180   0.165   3.537   8.050  0.0166  0.2855  0.3189
 4182TIP3    H134181   0.159   3.444   8.027  3.3438  0.2282 -0.7521
 4182TIP3    H234182   0.089   3.577   8.008 -1.0463 -1.7831  0.1211
 4183TIP3   OH234183   4.097   3.624   0.054 -0.3052 -0.0291 -0.3775
 4183TIP3    H134184   4.030   3.637  -0.013 -0.2571  1.5788 -0.1380
 4183TIP3    H234185   4.175   3.598   0.006 -1.1453 -2.3369 -0.6350
 4184TIP3   OH234186   3.555   2.619   7.102 -0.1887  0.1196  0.0305
 4184TIP3    H134187   3.599   2.701   7.125  1.2301 -0.1971 -1.3832
 4184TIP3    H234188   3.482   2.645   7.047 -0.1192  0.4900  0.1128
 4185TIP3   OH234189   5.728   2.896   5.960  0.8751 -0.5148  0.1295
 4185TIP3    H134190   5.776   2.887   6.043  0.9965  0.4634  0.1868
 4185TIP3    H234191   5.727   2.991   5.945  0.4172 -0.6563 -0.7351
 4186TIP3   OH234192   3.107   6.906   1.822  0.5844  0.1383 -0.3070
 4186TIP3    H134193   3.107   6.996   1.790  1.5915  0.9282  1.7348
 4186TIP3    H234194   3.192   6.896   1.865  0.8881 -2.1216 -1.2849
 4187TIP3   OH234195   6.588   3.656   7.369 -0.4743  0.5483  0.4208
 4187TIP3    H134196   6.672   3.659   7.322 -0.6975  1.2885  0.0522
 4187TIP3    H234197   6.533   3.719   7.323 -0.5365  1.7155  2.0010
 4188TIP3   OH234198   4.623   5.951   7.779  0.3292  0.0621  0.2667
 4188TIP3    H134199   4.542   6.002   7.777 -0.8395 -1.7007 -2.1409
 4188TIP3    H234200   4.692   6.016   7.769 -0.9645  1.3850 -0.4832
 4189TIP3   OH234201   2.660   0.495   7.794 -0.2611 -0.1888  0.3595
 4189TIP3    H134202   2.629   0.427   7.853 -2.3081 -0.1914 -0.6288
 4189TIP3    H234203   2.751   0.510   7.820  0.0822 -2.8656  0.9675
 4190TIP3   OH234204   2.653   4.350   7.952  0.0864 -0.2925  0.0409
 4190TIP3    H134205   2.745   4.338   7.974  0.2302  0.0876 -0.3425
 4190TIP3    H234206   2.612   4.375   8.035  0.4046 -0.0716  0.1343
 4191TIP3   OH234207   3.267   1.015   1.254 -0.0196 -0.5532  0.1109
 4191TIP3    H134208   3.334   1.052   1.312  0.1126 -1.5707  0.6382
 4191TIP3    H234209   3.301   0.928   1.232  0.1114 -0.0588 -1.8183
 4192TIP3   OH234210   2.299   1.188   1.693  0.0497  0.1979  0.3327
 4192TIP3    H134211   2.211   1.183   1.730 -0.9912 -0.0189 -1.9848
 4192TIP3    H234212   2.304   1.275   1.655  1.2006  0.5312  1.1995
 4193TIP3   OH234213   4.953   0.235   2.070  0.6960  0.5860  0.2418
 4193TIP3    H134214   4.993   0.160   2.114  0.4479  0.3508  0.0713
 4193TIP3    H234215   5.027   0.288   2.041  0.8815  0.2123  0.0295
 4194TIP3   OH234216   0.715   3.858   0.805  0.1525  0.6716 -0.4692
 4194TIP3    H134217   0.747   3.899   0.725 -1.2295  1.7499 -0.5033
 4194TIP3    H234218   0.694   3.768   0.780 -0.6112  1.1090 -1.4070
 4195TIP3   OH234219   3.961   5.666   7.549 -0.4665  0.2388 -0.2958
 4195TIP3    H134220   3.869   5.688   7.531  0.3735  2.6093 -2.2718
 4195TIP3    H234221   4.009   5.747   7.531  2.1322 -1.1939 -0.3043
 4196TIP3   OH234222   5.326   6.150   7.054 -0.0380  0.7912  0.6649
 4196TIP3    H134223   5.267   6.139   6.980  0.0387 -2.3924  0.9371
 4196TIP3    H234224   5.414   6.150   7.016 -0.0451  0.3580  0.6428
 4197TIP3   OH234225   2.211   0.708   1.905  0.5827 -0.2866  0.1237
 4197TIP3    H134226   2.264   0.630   1.922  1.1381  0.4428  1.9802
 4197TIP3    H234227   2.245   0.742   1.822  0.6401 -1.7334 -0.4783
 4198TIP3   OH234228   6.360   0.477   7.806  0.4710  0.1992  0.3534
 4198TIP3    H134229   6.304   0.444   7.735  0.8584 -0.4181  0.3273
 4198TIP3    H234230   6.432   0.415   7.810  0.2864  0.0433  1.5159
 4199TIP3   OH234231   2.626   1.396   2.662  0.0771  0.3559  0.0185
 4199TIP3    H134232   2.536   1.399   2.695 -0.2812  0.2124 -0.8980
 4199TIP3    H234233   2.648   1.487   2.642  1.0189  0.7240  2.4405
 4200TIP3   OH234234   2.342   3.624   7.425  0.0212 -0.1914  0.3118
 4200TIP3    H134235   2.301   3.537   7.425  0.0487 -0.2150 -0.4892
 4200TIP3    H234236   2.347   3.648   7.332 -0.4295  0.8769  0.5481
 4201TIP3   OH234237   4.047   3.710   2.261 -0.9359 -0.2559 -0.1397
 4201TIP3    H134238   4.078   3.737   2.348  0.3215  0.2865 -0.7386
 4201TIP3    H234239   4.126   3.687   2.213 -1.5409  0.1717 -1.3976
 4202TIP3   OH234240   5.764   3.493   6.979 -0.3964 -0.3881 -0.1681
 4202TIP3    H134241   5.844   3.545   6.986 -0.3711 -0.1997 -1.5643
 4202TIP3    H234242   5.788   3.408   7.015  0.7273 -0.6318 -1.4338
 4203TIP3   OH234243   5.836   2.020   0.478  0.3682 -0.1446 -0.1884
 4203TIP3    H134244   5.775   2.085   0.515 -0.3423 -0.9980  0.1645
 4203TIP3    H234245   5.853   1.959   0.550 -1.2558 -1.9939 -1.2677
 4204TIP3   OH234246   2.615   3.401   1.143 -0.1370  0.2044 -0.3317
 4204TIP3    H134247   2.639   3.395   1.235  0.5236 -0.2751 -0.5221
 4204TIP3    H234248   2.561   3.323   1.127 -1.5965  1.0962  0.0091
 4205TIP3   OH234249   2.632   1.990   7.777  0.0241 -0.3799  0.2726
 4205TIP3    H134250   2.665   1.957   7.860 -0.9654  1.1238  1.3306
 4205TIP3    H234251   2.568   1.925   7.748 -0.9957 -0.0370  1.6715
 4206TIP3   OH234252   1.035   6.374   6.851 -0.1749 -0.2415 -0.3619
 4206TIP3    H134253   1.033   6.412   6.938  0.9601  1.2330 -0.9519
 4206TIP3    H234254   1.126   6.351   6.836 -0.8878 -4.4893  0.4249
 4207TIP3   OH234255   4.540   1.109   7.709 -0.1699 -0.1310 -0.8589
 4207TIP3    H134256   4.604   1.110   7.780  1.6939 -2.0316 -2.4018
 4207TIP3    H234257   4.490   1.190   7.722  1.8834  0.9671  0.9954
 4208TIP3   OH234258   1.515   2.493   0.505 -0.0528 -0.0782  0.0885
 4208TIP3    H134259   1.452   2.443   0.557  0.2899 -0.8101 -0.1845
 4208TIP3    H234260   1.524   2.443   0.423  1.1424 -0.1860  0.2666
 4209TIP3   OH234261   0.017   6.787   7.271  0.7054  0.0798  0.2387
 4209TIP3    H134262  -0.042   6.721   7.308  0.9521 -1.7917 -2.3972
 4209TIP3    H234263  -0.040   6.859   7.247 -0.0473 -0.4417  0.4215
 4210TIP3   OH234264   0.519   2.506   8.095 -0.2239  1.1921 -0.5664
 4210TIP3    H134265   0.532   2.508   8.000  0.4795  0.0521 -0.5101
 4210TIP3    H234266   0.530   2.414   8.119 -2.3225  1.1265  0.3790
 4211TIP3   OH234267   4.281   2.535   8.544 -0.4894  0.5252  0.2650
 4211TIP3    H134268   4.274   2.518   8.450  0.2970 -0.1633  0.3155
 4211TIP3    H234269   4.251   2.454   8.586 -0.1355  0.5574  0.5905
 4212TIP3   OH234270   1.619   4.419   0.767  0.0269  0.2737 -0.0717
 4212TIP3    H134271   1.661   4.368   0.836  0.5721 -0.4351 -0.9118
 4212TIP3    H234272   1.618   4.361   0.691 -0.8984  0.9063 -0.5645
 4213TIP3   OH234273   2.210   1.389   0.615  0.1665 -0.2540  0.4702
 4213TIP3    H134274   2.200   1.356   0.704  0.7907 -1.6657  0.0436
 4213TIP3    H234275   2.259   1.471   0.625  0.2966 -0.4325  1.4168
 4214TIP3   OH234276   1.543   4.269   7.854  0.2044  0.0232  0.4218
 4214TIP3    H134277   1.467   4.218   7.881  0.3045 -0.1917  0.2973
 4214TIP3    H234278   1.567   4.234   7.768  0.5470 -0.0271  0.5372
 4215TIP3   OH234279   0.659   2.851   7.655 -0.3577 -0.1182 -0.4924
 4215TIP3    H134280   0.575   2.807   7.670  0.0846 -0.8794 -0.2167
 4215TIP3    H234281   0.639   2.918   7.589 -0.8440 -1.4132 -1.7360
 4216TIP3   OH234282   1.110   2.962   0.340 -0.6649  0.3278 -0.2741
 4216TIP3    H134283   1.115   2.875   0.380  0.4604 -0.0993 -1.2748
 4216TIP3    H234284   1.106   3.022   0.414  0.8760 -0.4595  0.4959
 4217TIP3   OH234285   5.427   1.039   0.844 -0.1305  0.9061 -0.4776
 4217TIP3    H134286   5.490   1.087   0.790 -0.1184  1.4265 -0.0037
 4217TIP3    H234287   5.455   1.054   0.934 -0.9815  1.2264 -0.2542
 4218TIP3   OH234288   1.574   1.960   0.552  0.2797 -1.0405  0.0494
 4218TIP3    H134289   1.595   1.927   0.465 -1.2342 -3.1926  0.4180
 4218TIP3    H234290   1.479   1.974   0.550  0.5065  0.9850  0.7348
 4219TIP3   OH234291   4.818   6.351   1.815 -0.1875  0.0387  0.5405
 4219TIP3    H134292   4.886   6.398   1.864  1.2627 -0.6314 -0.7691
 4219TIP3    H234293   4.772   6.419   1.766  0.0990  0.3950  0.7620
 4220TIP3   OH234294   6.179   2.197   7.687  0.5098  0.1726  0.0431
 4220TIP3    H134295   6.144   2.123   7.738  0.2241  0.4159  0.2083
 4220TIP3    H234296   6.255   2.161   7.641  0.4990 -0.1696  0.2871
 4221TIP3   OH234297   1.775   0.828   2.472 -0.5184 -0.4092  0.8129
 4221TIP3    H134298   1.746   0.867   2.555 -0.2372  0.3671  0.5565
 4221TIP3    H234299   1.701   0.774   2.444 -1.4733  0.9778  0.5242
 4222TIP3   OH234300   6.028   2.925   2.424  0.5350  0.3587  0.1509
 4222TIP3    H134301   6.095   2.988   2.451  1.5380 -0.7207  0.3207
 4222TIP3    H234302   5.985   2.965   2.348  1.5801  0.9572 -0.1441
 4223TIP3   OH234303   6.464   4.555   0.364 -0.0111  0.5577  0.1220
 4223TIP3    H134304   6.533   4.606   0.321 -0.4972  0.2773 -0.9972
 4223TIP3    H234305   6.499   4.538   0.452  1.1161  0.8827 -0.2489
 4224TIP3   OH234306   6.073   5.526   7.822 -0.0961 -0.6896  0.0504
 4224TIP3    H134307   5.987   5.490   7.801 -0.7725 -0.2472  1.8893
 4224TIP3    H234308   6.073   5.613   7.782 -1.3314  0.1209  1.7147
 4225TIP3   OH234309   4.845   0.663   7.804  0.0387 -0.3305 -0.5575
 4225TIP3    H134310   4.877   0.633   7.889 -0.5392 -0.8151 -0.5024
 4225TIP3    H234311   4.886   0.603   7.741 -0.5511 -0.7928 -0.5078
 4226TIP3   OH234312   4.560   6.029   2.763  0.2420  0.3536 -0.4832
 4226TIP3    H134313   4.590   5.946   2.800  0.0338  0.7010  0.5072
 4226TIP3    H234314   4.477   6.009   2.721 -0.0595  0.1624  0.2010
 4227TIP3   OH234315   3.304   2.328   0.660 -0.0303  0.1393  0.4891
 4227TIP3    H134316   3.247   2.394   0.620  0.1773 -0.1418 -0.2749
 4227TIP3    H234317   3.244   2.266   0.701 -0.2597  0.1895  0.2328
 4228TIP3   OH234318   1.455   5.202   8.245 -0.6602 -0.5490  0.1519
 4228TIP3    H134319   1.452   5.219   8.151  1.6621 -2.3276 -0.3592
 4228TIP3    H234320   1.548   5.210   8.267 -1.2986  1.0777  2.6147
 4229TIP3   OH234321   0.612   6.740   0.559 -0.6903 -0.1952 -0.6207
 4229TIP3    H134322   0.574   6.784   0.484  2.1205  0.4850 -1.7703
 4229TIP3    H234323   0.681   6.799   0.590  1.4501 -2.5459 -0.5768
 4230TIP3   OH234324   4.293   3.725   8.243 -0.7090  0.4004 -0.6527
 4230TIP3    H134325   4.310   3.808   8.198 -0.1956  0.7907  0.2387
 4230TIP3    H234326   4.198   3.723   8.254 -0.7256  0.8703 -0.6778
 4231TIP3   OH234327   1.064   5.861   0.290 -0.0689 -0.4607 -0.1393
 4231TIP3    H134328   1.124   5.792   0.319  0.2615  0.2020  0.7930
 4231TIP3    H234329   1.099   5.941   0.329 -0.9513  0.0975 -0.4730
 4232TIP3   OH234330   1.737   2.726   1.624 -0.2341 -0.0898 -0.2583
 4232TIP3    H134331   1.772   2.688   1.544 -0.5552  2.4556 -1.7033
 4232TIP3    H234332   1.642   2.730   1.610 -0.2064  1.2418 -0.1867
 4233TIP3   OH234333   2.861   3.873   1.617  0.2417  1.2115  0.3275
 4233TIP3    H134334   2.897   3.842   1.701 -0.0769  0.5964  0.2445
 4233TIP3    H234335   2.774   3.905   1.639 -0.8510 -1.2556 -0.1421
 4234TIP3   OH234336   1.059   4.846   7.703  0.1183  0.0628 -1.0448
 4234TIP3    H134337   0.996   4.868   7.772 -1.2907  1.6593 -2.7375
 4234TIP3    H234338   1.051   4.752   7.693 -1.7677  0.1705 -0.9505
 4235TIP3   OH234339   6.336   5.567   0.369 -0.0199  0.7171 -0.9407
 4235TIP3    H134340   6.360   5.578   0.277  0.1618  0.6302 -0.9024
 4235TIP3    H234341   6.253   5.615   0.378  0.0669  0.8950 -1.1021
 4236TIP3   OH234342   4.664   5.316   0.351  0.2440  0.3369 -0.2337
 4236TIP3    H134343   4.729   5.246   0.343 -0.8580 -0.8097  0.4655
 4236TIP3    H234344   4.640   5.337   0.261 -2.4739 -3.1941 -0.5532
 4237TIP3   OH234345   6.044   4.780   8.506  0.0821  0.2056 -0.1214
 4237TIP3    H134346   5.970   4.840   8.499  0.2897  0.4713 -0.0615
 4237TIP3    H234347   6.121   4.837   8.515  0.3948 -0.0425 -1.0615
 4238TIP3   OH234348   0.673   0.980   0.365  0.8103  0.1500 -0.2031
 4238TIP3    H134349   0.644   0.918   0.297 -1.8133 -1.6235  2.3196
 4238TIP3    H234350   0.606   1.048   0.365  0.7887  0.1376  0.5655
 4239TIP3   OH234351   4.795   5.110   1.559 -0.7804 -0.7855  0.2630
 4239TIP3    H134352   4.758   5.042   1.615  1.4861 -0.7914  1.8983
 4239TIP3    H234353   4.874   5.071   1.522 -1.5692 -0.3358 -2.0151
 4240TIP3   OH234354   0.672   4.932   1.001 -0.0595 -1.4608 -0.4661
 4240TIP3    H134355   0.606   5.000   1.016  1.6446 -0.1122  1.3334
 4240TIP3    H234356   0.628   4.851   1.028 -0.8880 -0.5513  1.0550
 4241TIP3   OH234357   4.070   0.955   1.003 -0.1989  0.2610  0.6019
 4241TIP3    H134358   3.988   0.926   0.963  0.7193  0.0973 -1.2921
 4241TIP3    H234359   4.045   1.027   1.061 -1.8203 -0.6329  1.0627
 4242TIP3   OH234360   3.474   0.568   0.761 -0.0546  0.2640  0.0113
 4242TIP3    H134361   3.414   0.576   0.834 -0.3848 -1.3488 -0.0330
 4242TIP3    H234362   3.418   0.557   0.684  0.2881  0.2434 -0.2410
 4243TIP3   OH234363   3.335   6.927   1.991  0.2837  0.1079  0.0098
 4243TIP3    H134364   3.397   6.972   1.934  0.6165 -0.6448 -0.2390
 4243TIP3    H234365   3.386   6.898   2.066 -0.0517  0.6590  0.4588
 4244TIP3   OH234366   6.435   4.650   7.170  0.6105 -0.2903 -0.1101
 4244TIP3    H134367   6.458   4.722   7.229 -0.8728  2.0307 -2.1480
 4244TIP3    H234368   6.441   4.688   7.082  1.1313 -3.1152 -1.4226
 4245TIP3   OH234369   2.057   5.670   6.508  0.1119  0.2609  0.3182
 4245TIP3    H134370   2.104   5.717   6.576  0.8639 -0.9917  0.6987
 4245TIP3    H234371   2.067   5.724   6.430 -1.4362  2.1141  1.3227
 4246TIP3   OH234372   5.060   2.410   6.866 -0.8085 -0.1999 -0.7297
 4246TIP3    H134373   4.998   2.338   6.879 -1.7757  0.6711 -0.3749
 4246TIP3    H234374   5.146   2.368   6.869 -1.3588 -1.3958 -0.9393
 4247TIP3   OH234375   5.104   5.047   0.676 -0.7475  0.0699  1.1770
 4247TIP3    H134376   5.026   5.090   0.713 -1.1052 -0.3478  0.9155
 4247TIP3    H234377   5.096   5.059   0.582  0.3558  1.4547  1.2289
 4248TIP3   OH234378   3.893   4.334   7.943  0.1084  0.4971 -0.1309
 4248TIP3    H134379   3.933   4.285   7.871  0.3475  1.1840 -0.4801
 4248TIP3    H234380   3.862   4.267   8.004  0.0709 -0.0933 -0.7821
 4249TIP3   OH234381   3.851   0.822   0.152 -0.8318  0.6710 -0.1178
 4249TIP3    H134382   3.886   0.736   0.178  0.2599  1.1517  0.0607
 4249TIP3    H234383   3.783   0.840   0.216  0.1226  0.7089  0.9135
 4250TIP3   OH234384   2.558   3.947   7.436 -0.6123  0.3856 -0.2343
 4250TIP3    H134385   2.603   3.959   7.519  0.4650  0.5340 -0.8173
 4250TIP3    H234386   2.617   3.986   7.371 -0.6876 -1.1028 -1.2487
 4251TIP3   OH234387   2.990   3.479   1.515 -0.0863 -0.3525  0.0360
 4251TIP3    H134388   3.049   3.419   1.560 -1.9326 -1.0617  1.6636
 4251TIP3    H234389   2.903   3.443   1.530 -0.9395 -0.0073 -3.2403
 4252TIP3   OH234390   5.362   4.680   8.311 -0.1873  0.2984 -0.5014
 4252TIP3    H134391   5.345   4.591   8.341  0.8510 -0.5553 -2.2557
 4252TIP3    H234392   5.434   4.711   8.367  1.4245 -1.0941 -1.6749
 4253TIP3   OH234393   6.354   1.979   7.127  0.8456  0.6861  0.0388
 4253TIP3    H134394   6.359   1.912   7.059  1.6652 -1.6280  2.2132
 4253TIP3    H234395   6.312   2.054   7.084  1.6952 -0.4633 -3.0711
 4254TIP3   OH234396   2.882   5.926   7.824 -0.5219 -0.3817 -0.6578
 4254TIP3    H134397   2.958   5.959   7.776 -0.5014 -0.0871 -0.4244
 4254TIP3    H234398   2.853   5.849   7.774 -1.2203  0.6006 -1.8072
 4255TIP3   OH234399   2.398   2.118   1.366 -0.2560 -0.1165  0.3824
 4255TIP3    H134400   2.462   2.063   1.321  0.1489  0.4327  0.2840
 4255TIP3    H234401   2.439   2.204   1.370 -1.7262  0.7174 -1.2980
 4256TIP3   OH234402   5.238   5.032   1.896  0.1185  0.0045 -0.0036
 4256TIP3    H134403   5.153   5.010   1.859 -0.3771  0.5164  0.7945
 4256TIP3    H234404   5.219   5.101   1.960  1.4616  2.0229 -1.6660
 4257TIP3   OH234405   4.682   0.027   0.104 -0.7338 -0.4557  0.1466
 4257TIP3    H134406   4.742  -0.045   0.120 -0.6108 -0.1697  1.0180
 4257TIP3    H234407   4.599  -0.015   0.083 -0.0077 -0.8916 -2.2829
 4258TIP3   OH234408   1.804   5.734   8.480  0.0023 -0.6385 -0.8146
 4258TIP3    H134409   1.810   5.737   8.576 -1.6499  2.3919 -0.6876
 4258TIP3    H234410   1.714   5.758   8.461  1.0437  1.9931 -3.1110
 4259TIP3   OH234411   6.925   6.834   8.314 -0.0865  0.1260  0.0192
 4259TIP3    H134412   6.861   6.864   8.379 -1.1611 -0.0133 -0.9413
 4259TIP3    H234413   6.970   6.914   8.286  0.5711  0.1545  1.1014
 4260TIP3   OH234414   0.183   0.182   1.028 -0.1365 -0.5053  0.3017
 4260TIP3    H134415   0.108   0.130   1.057  1.4079 -1.8184  2.1867
 4260TIP3    H234416   0.202   0.148   0.940 -1.3182 -0.6070  0.0613
 4261TIP3   OH234417   6.127   2.085   2.491  0.7507  0.0194 -0.0456
 4261TIP3    H134418   6.208   2.133   2.477  0.1257  0.6877 -1.6965
 4261TIP3    H234419   6.058   2.147   2.466 -0.0434 -2.1461 -4.0508
 4262TIP3   OH234420   1.041   1.792   2.135  0.0758  0.1441  0.2661
 4262TIP3    H134421   0.997   1.872   2.163  0.8252  0.4738  0.5173
 4262TIP3    H234422   0.972   1.726   2.132 -0.3781  0.5902  0.9250
 4263TIP3   OH234423   6.556   5.374   7.217 -0.3373  0.3900 -0.4424
 4263TIP3    H134424   6.504   5.298   7.243 -2.3985  1.4824 -1.1456
 4263TIP3    H234425   6.518   5.402   7.134  0.9995  1.6174 -0.6696
 4264TIP3   OH234426   4.945   0.220   7.090  0.1109  0.0546  0.3723
 4264TIP3    H134427   4.914   0.233   7.179  0.0525  0.3752  0.3078
 4264TIP3    H234428   5.039   0.203   7.099  0.2456  0.7855  0.4508
 4265TIP3   OH234429   3.968   0.055   7.585 -0.1914  0.1332  0.3798
 4265TIP3    H134430   4.012  -0.013   7.636 -0.4468 -0.0647  0.3393
 4265TIP3    H234431   3.975   0.134   7.638 -0.0123  0.0445  0.4889
 4266TIP3   OH234432   5.626   6.602   0.618 -0.6587 -0.8954 -0.1821
 4266TIP3    H134433   5.604   6.518   0.576 -1.4368 -0.7603 -0.0611
 4266TIP3    H234434   5.609   6.667   0.550 -2.1232 -0.6557  0.3725
 4267TIP3   OH234435   6.725   0.005   8.438  0.1579  0.0582 -0.3329
 4267TIP3    H134436   6.687  -0.016   8.522 -1.8907  0.4056 -1.1205
 4267TIP3    H234437   6.717   0.100   8.431  1.2218  0.1476 -0.5138
 4268TIP3   OH234438   1.129   4.971   0.892  0.6601  0.3004  0.0130
 4268TIP3    H134439   1.182   5.047   0.917  0.0415  0.3193  1.3762
 4268TIP3    H234440   1.041   4.991   0.924 -0.3946  0.5577 -2.8056
 4269TIP3   OH234441   5.162   3.789   1.001  0.2346 -0.5093  0.1906
 4269TIP3    H134442   5.187   3.844   1.075 -2.2328  2.4857 -0.9636
 4269TIP3    H234443   5.240   3.786   0.946  0.4537  1.9753  0.2740
 4270TIP3   OH234444   6.726   4.881   2.725  0.3924 -0.0645  0.4652
 4270TIP3    H134445   6.719   4.799   2.773  1.0075 -1.4389 -1.6308
 4270TIP3    H234446   6.660   4.875   2.656  0.7647  0.9964 -0.0169
 4271TIP3   OH234447   4.208   2.988   1.273 -0.2401  0.1339  0.0213
 4271TIP3    H134448   4.117   2.962   1.260 -0.4035  1.4069 -1.7798
 4271TIP3    H234449   4.203   3.065   1.330 -0.3358  0.4341 -0.3873
 4272TIP3   OH234450   3.466   3.227   0.378 -0.0552  0.3373  0.0562
 4272TIP3    H134451   3.373   3.213   0.395 -0.3067  2.0270  0.2852
 4272TIP3    H234452   3.471   3.236   0.283  0.2338 -1.8534 -0.1826
 4273TIP3   OH234453   4.403   5.365   0.957 -0.1720  0.5663  0.8807
 4273TIP3    H134454   4.410   5.269   0.953  2.1000  0.7016 -0.0782
 4273TIP3    H234455   4.344   5.387   0.885  2.3487  0.0132 -1.5590
 4274TIP3   OH234456   2.914   0.329   0.271  0.4224 -0.1315  0.4032
 4274TIP3    H134457   2.853   0.400   0.252 -0.8324 -0.9937  1.0598
 4274TIP3    H234458   2.868   0.250   0.244  1.1191 -0.8332  1.2176
 4275TIP3   OH234459   0.298   5.762   8.137  0.3535 -0.2268  0.3650
 4275TIP3    H134460   0.208   5.739   8.158  1.2608 -3.4349  1.4576
 4275TIP3    H234461   0.327   5.819   8.208 -0.0065 -1.6748  1.7492
 4276TIP3   OH234462   6.342   0.354   7.092  0.3336  0.3611  0.5662
 4276TIP3    H134463   6.392   0.414   7.148 -0.1118  1.6643 -0.3868
 4276TIP3    H234464   6.323   0.405   7.014 -1.6162 -0.4589  0.4680
 4277TIP3   OH234465   2.877   6.521   6.457 -0.6051  0.0534  0.4796
 4277TIP3    H134466   2.904   6.612   6.468 -0.3038  0.2060 -1.2509
 4277TIP3    H234467   2.838   6.497   6.541  1.6551  0.9573  1.8701
 4278TIP3   OH234468   6.286   1.624   7.763  0.6272  0.0005 -0.2464
 4278TIP3    H134469   6.207   1.588   7.723 -0.0691  2.2799 -1.0655
 4278TIP3    H234470   6.269   1.618   7.857  0.6698 -1.9659 -0.3166
 4279TIP3   OH234471   2.746   2.603   7.883  0.2095  0.4563 -0.3357
 4279TIP3    H134472   2.719   2.677   7.939  0.8055  0.4507 -0.0391
 4279TIP3    H234473   2.667   2.549   7.877 -0.0030  0.7042  0.1103
 4280TIP3   OH234474   0.475   6.507   6.697  0.5019 -0.1283  0.6775
 4280TIP3    H134475   0.396   6.553   6.725  1.5756  1.5006  1.1415
 4280TIP3    H234476   0.544   6.573   6.701  1.6461 -1.1528 -1.0458
 4281TIP3   OH234477   5.509   1.949   1.315  0.6999  0.2115 -0.0606
 4281TIP3    H134478   5.559   1.997   1.381 -1.1296  0.3728  1.2616
 4281TIP3    H234479   5.565   1.874   1.293  0.9970 -0.3675  2.3760
 4282TIP3   OH234480   0.773   5.116   0.455  0.1820  0.2686 -0.4336
 4282TIP3    H134481   0.687   5.076   0.443  0.1370  0.7322 -1.8042
 4282TIP3    H234482   0.762   5.176   0.528 -0.5831  0.1164 -0.4150
 4283TIP3   OH234483   1.637   5.542   8.038  0.5640 -0.0079  0.3869
 4283TIP3    H134484   1.595   5.472   7.989  0.4774 -0.3934  0.9937
 4283TIP3    H234485   1.726   5.511   8.053  1.2066  0.9479 -1.1846
 4284TIP3   OH234486   1.401   1.731   0.776  0.7590  0.2971  0.0126
 4284TIP3    H134487   1.422   1.824   0.784  1.6640  0.4397 -2.8656
 4284TIP3    H234488   1.483   1.691   0.746 -0.2385 -0.9935 -1.0997
 4285TIP3   OH234489   0.906   4.070   7.948  0.0461 -0.3428  0.1955
 4285TIP3    H134490   0.943   3.995   7.902  2.3108  2.1657 -2.4851
 4285TIP3    H234491   0.982   4.118   7.981 -1.0314  2.2213 -0.7577
 4286TIP3   OH234492   2.343   5.359   7.592 -0.5294  0.0022 -0.5453
 4286TIP3    H134493   2.334   5.265   7.577  0.8679  0.0937 -2.2048
 4286TIP3    H234494   2.257   5.395   7.570 -1.0641 -0.8538  0.0790
 4287TIP3   OH234495   1.833   0.396   0.937  0.0096  0.5719 -0.0637
 4287TIP3    H134496   1.798   0.329   0.879  1.3611  0.9799 -1.4127
 4287TIP3    H234497   1.884   0.348   1.002 -0.5859  0.1774  0.1117
 4288TIP3   OH234498   4.485   1.173   2.336  0.2227 -0.6871 -0.3121
 4288TIP3    H134499   4.549   1.102   2.331 -0.0961 -1.0048  0.1217
 4288TIP3    H234500   4.538   1.252   2.339  0.5807 -0.8817 -1.0792
 4289TIP3   OH234501   3.955   3.823   8.494 -0.3628 -0.2770  0.1368
 4289TIP3    H134502   3.989   3.881   8.563  0.9846 -0.2494 -0.5271
 4289TIP3    H234503   3.900   3.880   8.440  1.3918  0.5632 -0.8322
 4290TIP3   OH234504   6.361   3.429   0.296 -0.8449 -0.8021 -0.2252
 4290TIP3    H134505   6.321   3.439   0.382 -0.1174  1.6835 -0.0941
 4290TIP3    H234506   6.303   3.477   0.237 -1.9424 -3.4098 -1.3934
 4291TIP3   OH234507   6.533   2.612   7.641 -0.2226  0.1666  0.3983
 4291TIP3    H134508   6.485   2.543   7.688  1.1168 -0.7524  0.4587
 4291TIP3    H234509   6.622   2.578   7.631  0.0994  1.2705 -0.8828
 4292TIP3   OH234510   6.892   6.688   0.909  0.6886 -0.3429  0.0947
 4292TIP3    H134511   6.901   6.709   0.816 -1.4865  0.9723  0.1117
 4292TIP3    H234512   6.895   6.774   0.953 -1.4580 -0.5998  0.8778
 4293TIP3   OH234513   4.308   3.591   1.767 -0.2423 -0.6652 -0.0507
 4293TIP3    H134514   4.363   3.579   1.845  2.1558  3.2295 -0.8742
 4293TIP3    H234515   4.223   3.616   1.802  1.2835  2.9766  1.5931
 4294TIP3   OH234516   3.029   4.443   0.029  0.4362  0.5339  0.3190
 4294TIP3    H134517   2.944   4.400   0.022  0.7272 -0.3248  1.6563
 4294TIP3    H234518   3.046   4.478  -0.058  0.0959 -1.9236 -0.8038
 4295TIP3   OH234519   4.160   4.823   2.551  0.1318  0.2937 -0.3032
 4295TIP3    H134520   4.205   4.759   2.496 -0.6021 -0.5122 -0.0019
 4295TIP3    H234521   4.224   4.893   2.564  1.3358 -0.8294  0.1509
 4296TIP3   OH234522   3.647   2.682   2.415 -0.3162  0.0967 -0.3460
 4296TIP3    H134523   3.636   2.590   2.440 -0.1410 -0.0528 -0.8021
 4296TIP3    H234524   3.582   2.696   2.347 -0.5490  0.4012 -0.0640
 4297TIP3   OH234525   0.357   3.064   1.270 -0.5584  0.1095  0.1117
 4297TIP3    H134526   0.343   3.150   1.308  0.9001  0.5144 -0.2181
 4297TIP3    H234527   0.422   3.078   1.202  0.2039 -1.3601  0.4975
 4298TIP3   OH234528   3.629   0.846   0.344  0.0154 -0.0909  0.0116
 4298TIP3    H134529   3.545   0.838   0.390 -1.0436  0.6149 -1.7067
 4298TIP3    H234530   3.652   0.756   0.320  0.4550 -0.4441  1.6057
 4299TIP3   OH234531   3.189   1.017   1.662 -0.6702  0.2405 -0.0826
 4299TIP3    H134532   3.271   0.967   1.658  0.2276  1.6901 -1.1320
 4299TIP3    H234533   3.137   0.983   1.589 -0.1478  0.6678 -0.6674
 4300TIP3   OH234534   1.809   4.969   0.787 -0.0790 -0.0850 -0.4285
 4300TIP3    H134535   1.761   4.906   0.841  2.4402 -1.5712  0.1853
 4300TIP3    H234536   1.813   4.929   0.700 -1.9989  1.2037 -1.2043
 4301TIP3   OH234537   4.545   3.111   1.215 -0.0468  0.0976  0.4581
 4301TIP3    H134538   4.473   3.051   1.193 -0.7424  1.4367 -1.1115
 4301TIP3    H234539   4.551   3.170   1.140 -0.0779  2.6770  2.3653
 4302TIP3   OH234540   1.725   2.081   2.788  0.1963  0.8340 -0.2380
 4302TIP3    H134541   1.666   2.111   2.857  0.9933 -0.0654  0.8851
 4302TIP3    H234542   1.681   2.104   2.706 -1.8450 -0.0413  0.5493
 4303TIP3   OH234543   1.006   2.886   0.941 -0.2363 -0.3564 -0.2021
 4303TIP3    H134544   1.077   2.930   0.987 -1.5079  0.7713  0.7671
 4303TIP3    H234545   0.937   2.876   1.007 -0.2935 -3.2496 -0.5422
 4304TIP3   OH234546   4.740   2.925   0.246  0.1589  0.3411  0.1280
 4304TIP3    H134547   4.817   2.964   0.288  1.2629 -0.1278 -1.3696
 4304TIP3    H234548   4.713   2.990   0.181 -1.0440  0.7133  0.9551
 4305TIP3   OH234549   0.265   6.776   7.898 -0.3316 -0.4239 -0.1425
 4305TIP3    H134550   0.272   6.868   7.875 -2.6904 -0.4575 -1.3437
 4305TIP3    H234551   0.248   6.731   7.815 -1.0310 -1.6789  0.6426
 4306TIP3   OH234552   5.849   6.863   0.385 -1.0635 -0.2830 -0.4029
 4306TIP3    H134553   5.913   6.930   0.364 -1.1040  0.1159  0.6901
 4306TIP3    H234554   5.895   6.780   0.368  0.0008 -0.0190  0.9902
 4307TIP3   OH234555   2.260   2.297   2.159  0.2253  0.3421  0.0658
 4307TIP3    H134556   2.351   2.272   2.172  0.0128  0.2506  1.6232
 4307TIP3    H234557   2.219   2.220   2.119  0.4806 -0.2573  0.9211
 4308TIP3   OH234558   6.354   2.942   0.315  0.2326 -0.4049  0.3997
 4308TIP3    H134559   6.259   2.950   0.322  0.3288  0.9599  0.3987
 4308TIP3    H234560   6.382   2.920   0.404 -0.2064 -2.7075  0.0362
 4309TIP3   OH234561   5.952   3.851   8.179 -0.1201  0.2997  0.2630
 4309TIP3    H134562   5.967   3.871   8.271  0.7370  0.6284  0.0693
 4309TIP3    H234563   6.034   3.810   8.150 -0.5499 -0.2176 -0.2366
 4310TIP3   OH234564   1.628   4.490   6.106 -0.2047 -0.8846  0.2846
 4310TIP3    H134565   1.547   4.521   6.146 -0.4476  1.0554 -1.5193
 4310TIP3    H234566   1.691   4.560   6.122  0.1801 -0.8761 -1.1412
 4311TIP3   OH234567   6.877   4.496   1.294  0.1301  0.1144 -0.1145
 4311TIP3    H134568   6.894   4.412   1.250 -0.3127  1.2427 -2.6201
 4311TIP3    H234569   6.806   4.476   1.356  0.0211 -1.3659 -0.6668
 4312TIP3   OH234570   6.114   5.140   1.162  0.9727  0.5639  0.2120
 4312TIP3    H134571   6.108   5.149   1.257  1.0881  2.1239  0.0968
 4312TIP3    H234572   6.100   5.228   1.129  1.0448  0.0583 -1.2268
 4313TIP3   OH234573   2.762   1.693   1.182  0.1048 -0.6261 -0.3057
 4313TIP3    H134574   2.801   1.743   1.111 -0.0281  1.2143  0.8308
 4313TIP3    H234575   2.683   1.654   1.144  1.0801 -1.3719 -1.6501
 4314TIP3   OH234576   5.570   5.109   1.403 -0.5432 -0.1390  0.7423
 4314TIP3    H134577   5.651   5.108   1.352 -0.4843 -1.1170  0.8340
 4314TIP3    H234578   5.600   5.116   1.494 -0.5665 -0.2491  0.7589
 4315TIP3   OH234579   2.941   2.426   7.173  0.3961  0.1508  0.1100
 4315TIP3    H134580   2.958   2.474   7.092 -0.3703  0.0492 -0.1150
 4315TIP3    H234581   2.925   2.336   7.145 -1.5611  0.4329  0.1873
 4316TIP3   OH234582   0.877   4.920   0.636 -0.3920 -0.3058 -0.0155
 4316TIP3    H134583   0.888   4.930   0.542  0.4326 -0.4368  0.0610
 4316TIP3    H234584   0.940   4.981   0.675 -2.6622  1.8768  0.4971
 4317TIP3   OH234585   4.217   5.556   8.222 -0.1132 -0.2669  0.0481
 4317TIP3    H134586   4.163   5.496   8.274  0.0204  2.3785  3.6360
 4317TIP3    H234587   4.297   5.567   8.273  1.5769 -0.0058 -2.4869
 4318TIP3   OH234588   2.189   6.846   0.906 -0.0263  0.3592 -0.8492
 4318TIP3    H134589   2.162   6.769   0.956 -0.0527 -0.0337 -1.4458
 4318TIP3    H234590   2.244   6.810   0.836 -0.2277  0.8559 -1.2691
 4319TIP3   OH234591   5.586   1.666   0.022  0.4616 -0.4516 -0.6178
 4319TIP3    H134592   5.612   1.756  -0.000  1.4558 -0.8274 -1.0328
 4319TIP3    H234593   5.653   1.611  -0.020 -1.2003 -1.4965 -2.0425
 4320TIP3   OH234594   5.819   3.111   1.923  0.1086 -0.3365  0.3748
 4320TIP3    H134595   5.812   3.180   1.989 -0.3303 -0.1210  0.1057
 4320TIP3    H234596   5.821   3.030   1.974 -1.6898 -0.2629  0.6074
 4321TIP3   OH234597   5.277   5.676   2.076 -0.1062  0.2088  0.5969
 4321TIP3    H134598   5.373   5.678   2.075 -0.1054  0.1257  0.5088
 4321TIP3    H234599   5.252   5.757   2.121  0.0593 -1.3552  3.8158
 4322TIP3   OH234600   1.875   3.787   8.006 -0.4915 -0.3793 -0.1739
 4322TIP3    H134601   1.788   3.777   8.045 -0.6401  1.8428  0.1523
 4322TIP3    H234602   1.862   3.843   7.930  0.7097  0.3637  0.1424
 4323TIP3   OH234603   5.088   3.166   8.478  0.1278  0.0880  0.0693
 4323TIP3    H134604   5.146   3.235   8.446  2.3327 -1.8122 -0.2821
 4323TIP3    H234605   5.064   3.117   8.400  0.1119 -0.6402  0.5243
 4324TIP3   OH234606   2.708   4.176   1.732 -0.0091  0.1564 -0.4824
 4324TIP3    H134607   2.643   4.186   1.802  1.4817 -1.0542  1.1737
 4324TIP3    H234608   2.783   4.226   1.763  0.7588 -0.5868 -1.1185
 4325TIP3   OH234609   5.645   6.018   6.816  0.3641 -0.2469 -0.2980
 4325TIP3    H134610   5.564   6.039   6.769  1.4078  0.5671 -1.8238
 4325TIP3    H234611   5.658   6.092   6.875  1.5305  1.1634 -2.2319
 4326TIP3   OH234612   2.931   0.984   8.477 -0.1168 -0.4696 -0.5427
 4326TIP3    H134613   2.924   0.902   8.527 -3.2158 -0.3273 -0.5564
 4326TIP3    H234614   3.005   0.969   8.418 -0.1353 -2.9825 -0.0762
 4327TIP3   OH234615   3.980   6.798   2.195  0.2673 -0.3495 -0.2284
 4327TIP3    H134616   3.885   6.783   2.187 -0.2776  1.7660  1.3381
 4327TIP3    H234617   4.019   6.742   2.129 -2.2088  0.0593 -2.1679
 4328TIP3   OH234618   3.545   1.931   0.655 -0.2156  0.0424  0.0947
 4328TIP3    H134619   3.510   1.984   0.727  1.3212  0.7266  0.3847
 4328TIP3    H234620   3.586   1.856   0.699  1.2885  0.7830  0.0387
 4329TIP3   OH234621   4.054   5.707   2.496 -0.1336  0.5784 -0.2460
 4329TIP3    H134622   3.960   5.688   2.494 -0.2570  1.1598 -0.1215
 4329TIP3    H234623   4.070   5.761   2.419 -0.4050  2.6640  1.0775
 4330TIP3   OH234624   6.790   2.863   7.168 -0.0348 -0.3207  0.2643
 4330TIP3    H134625   6.725   2.921   7.208  0.1357 -0.9731  1.5585
 4330TIP3    H234626   6.742   2.782   7.149 -0.3471  0.2930 -1.8163
 4331TIP3   OH234627   1.608   0.952   2.677  0.1605  0.3312 -0.6967
 4331TIP3    H134628   1.586   1.042   2.700 -0.8164 -0.1261  0.2411
 4331TIP3    H234629   1.600   0.904   2.759 -2.7978 -1.2611 -1.7489
 4332TIP3   OH234630   5.105   0.850   0.345 -0.2162  0.1039  0.3711
 4332TIP3    H134631   5.187   0.871   0.390  0.7974  0.1232 -1.4190
 4332TIP3    H234632   5.052   0.930   0.352  0.2677  0.3936  0.7765
 4333TIP3   OH234633   3.154   3.294   1.586  0.1742 -0.4697  0.0225
 4333TIP3    H134634   3.226   3.293   1.523  1.3881  3.4787  1.0090
 4333TIP3    H234635   3.185   3.240   1.659  1.5102 -0.1023 -0.2463
 4334TIP3   OH234636   0.959   2.264   0.379 -0.0534 -0.0043 -0.2710
 4334TIP3    H134637   1.025   2.296   0.318  0.5907 -1.0664 -0.1530
 4334TIP3    H234638   0.957   2.331   0.448  0.5035  0.3134 -0.5515
 4335TIP3   OH234639   3.572   1.081   0.134 -0.0499  0.5926  0.4676
 4335TIP3    H134640   3.483   1.061   0.105 -0.2817  0.7184  1.0789
 4335TIP3    H234641   3.580   1.038   0.219  0.9503 -0.5799 -0.1974
 4336TIP3   OH234642   6.913   5.276   1.630 -0.0993  0.0351  0.0453
 4336TIP3    H134643   6.969   5.325   1.690  0.0864 -0.5144  0.3275
 4336TIP3    H234644   6.846   5.339   1.603  1.6861  1.2714 -1.7688
 4337TIP3   OH234645   6.166   4.284   2.054 -0.1572  0.4941  0.3295
 4337TIP3    H134646   6.238   4.345   2.071  0.4011 -0.0843  0.0908
 4337TIP3    H234647   6.103   4.302   2.123  1.7824 -1.4144  2.7979
 4338TIP3   OH234648   4.096   1.257   1.774 -0.1787 -0.5271  0.1805
 4338TIP3    H134649   4.135   1.250   1.687 -1.9370 -2.1097 -0.5610
 4338TIP3    H234650   4.171   1.268   1.833  1.0492  0.7462 -1.5065
 4339TIP3   OH234651   5.483   4.872   1.659  0.0853  0.0421  0.3771
 4339TIP3    H134652   5.573   4.891   1.636 -0.2032  0.4982 -0.4121
 4339TIP3    H234653   5.486   4.846   1.751  1.0031  0.1212  0.3715
 4340TIP3   OH234654   1.880   1.857   7.583 -0.3804  0.4078  0.3839
 4340TIP3    H134655   1.889   1.789   7.650  2.2540  1.3303  1.0875
 4340TIP3    H234656   1.872   1.809   7.501  0.2922 -0.7608  0.9743
 4341TIP3   OH234657   3.328   2.775   7.365 -0.1467  0.0796 -0.3784
 4341TIP3    H134658   3.264   2.717   7.325 -0.5658  0.5258 -0.3584
 4341TIP3    H234659   3.389   2.716   7.409 -0.4306 -0.3549 -0.5592
 4342TIP3   OH234660   0.781   2.755   1.481 -0.1095 -0.4877 -0.0812
 4342TIP3    H134661   0.795   2.690   1.412  1.4092 -1.0892  0.7493
 4342TIP3    H234662   0.745   2.704   1.554  1.4022 -0.5087  0.6913
 4343TIP3   OH234663   2.596   1.130   1.429  0.0755  0.2047  0.0159
 4343TIP3    H134664   2.682   1.118   1.389  0.0099 -1.7411  0.3778
 4343TIP3    H234665   2.615   1.170   1.514  0.4361  1.5912 -0.6847
 4344TIP3   OH234666   3.385   2.098   6.893 -0.4261  0.5616 -0.2336
 4344TIP3    H134667   3.322   2.027   6.883 -0.1183  0.5206 -2.3831
 4344TIP3    H234668   3.354   2.167   6.834  0.9455  0.9640 -0.5264
 4345TIP3   OH234669   2.223   3.831   0.867 -0.9946  0.0188  0.4782
 4345TIP3    H134670   2.229   3.927   0.868 -2.2857  0.1355 -0.3415
 4345TIP3    H234671   2.270   3.805   0.788 -0.0415 -0.0985  1.0655
 4346TIP3   OH234672   1.796   3.696   2.528 -0.0440  0.0754  0.3033
 4346TIP3    H134673   1.708   3.679   2.563 -0.1101 -0.3329 -0.0484
 4346TIP3    H234674   1.784   3.766   2.465  0.1537  1.1581  1.4325
 4347TIP3   OH234675   2.973   2.069   7.433  0.3451  0.1865  0.7212
 4347TIP3    H134676   2.895   2.078   7.487  0.6823 -0.2895  1.2976
 4347TIP3    H234677   3.046   2.077   7.494  0.7231 -1.3374  0.5121
 4348TIP3   OH234678   1.624   1.096   0.594 -0.2949 -0.3203  0.3491
 4348TIP3    H134679   1.642   1.044   0.672  1.5164 -1.4229 -0.7173
 4348TIP3    H234680   1.640   1.036   0.521 -0.2444  1.1498 -0.9012
 4349TIP3   OH234681   3.563   5.125   1.251 -0.5234  0.2379  0.2885
 4349TIP3    H134682   3.504   5.186   1.207  0.5023  1.2301  0.2331
 4349TIP3    H234683   3.643   5.128   1.199 -0.0675 -0.2947  0.9436
 4350TIP3   OH234684   2.351   1.000   1.929  0.0749  0.2182  0.6161
 4350TIP3    H134685   2.265   1.041   1.917  0.1497  0.7704  1.8104
 4350TIP3    H234686   2.384   0.987   1.840 -1.6922 -1.0019  0.0689
 4351TIP3   OH234687   0.336   1.070   7.533  0.2458  0.0210  0.0228
 4351TIP3    H134688   0.265   1.125   7.500  0.9050 -0.7089 -2.8522
 4351TIP3    H234689   0.404   1.132   7.559 -0.6202  0.6564  0.8694
 4352TIP3   OH234690   3.345   5.474   8.254  0.0660 -0.0289 -0.8851
 4352TIP3    H134691   3.363   5.556   8.208  2.0675  1.2330  1.8439
 4352TIP3    H234692   3.268   5.493   8.308  1.6677  0.8728  1.2433
 4353TIP3   OH234693   3.475   6.821   8.060 -0.5002 -0.5614  0.0976
 4353TIP3    H134694   3.415   6.790   8.128 -0.9106  0.3849  0.1876
 4353TIP3    H234695   3.433   6.797   7.977 -1.2600  0.5182  0.1523
 4354TIP3   OH234696   6.186   1.121   1.786  0.5041 -0.3377  0.3337
 4354TIP3    H134697   6.141   1.064   1.850  1.2469  0.5760  1.7182
 4354TIP3    H234698   6.225   1.190   1.839  1.6844  0.1180 -1.0639
 4355TIP3   OH234699   0.866   3.795   1.351 -0.0544  0.0193  0.1039
 4355TIP3    H134700   0.832   3.872   1.395  0.7727 -0.1891  1.1578
 4355TIP3    H234701   0.872   3.729   1.420 -0.1970 -0.8041 -0.6592
 4356TIP3   OH234702   0.374   3.712   8.172 -0.0006  0.1070  0.2294
 4356TIP3    H134703   0.330   3.639   8.129  0.3629  0.9873 -1.7419
 4356TIP3    H234704   0.449   3.730   8.116  0.2702  1.5724  1.0351
 4357TIP3   OH234705   3.716   4.336   0.961  0.0773  0.0143 -0.0858
 4357TIP3    H134706   3.671   4.414   0.996 -0.4962 -0.6107  0.6032
 4357TIP3    H234707   3.706   4.344   0.866  0.1596  0.8600 -0.0376
 4358TIP3   OH234708   5.948   1.007   0.640  0.2048 -1.1108  0.2106
 4358TIP3    H134709   5.970   0.937   0.579  1.3165 -2.2108  1.7940
 4358TIP3    H234710   6.010   0.996   0.712 -1.6641 -0.4748  2.0118
 4359TIP3   OH234711   6.039   3.922   0.477  0.0157  0.0154  0.2919
 4359TIP3    H134712   5.987   3.990   0.433 -1.9521 -1.0611  0.8190
 4359TIP3    H234713   6.130   3.950   0.465 -0.6956  2.6655  0.3996
 4360TIP3   OH234714   4.494   4.959   0.079  0.0857  0.5387  0.9789
 4360TIP3    H134715   4.570   4.917   0.120 -0.7838 -1.3850  0.6986
 4360TIP3    H234716   4.505   4.944  -0.015  0.9251  3.0235  0.5853
 4361TIP3   OH234717   5.120   1.872   7.806 -0.0014 -0.0218  0.2360
 4361TIP3    H134718   5.211   1.843   7.799 -0.7345 -2.0605 -2.1179
 4361TIP3    H234719   5.072   1.795   7.835 -1.0889  0.8453  0.8012
 4362TIP3   OH234720   0.031   6.421   6.521  0.3765 -0.6076  0.2375
 4362TIP3    H134721  -0.005   6.348   6.470 -0.2062 -1.2499  1.5035
 4362TIP3    H234722   0.125   6.418   6.505  0.1312 -0.2203 -1.4820
 4363TIP3   OH234723   3.408   1.623   7.111  0.0905  0.0866 -0.2888
 4363TIP3    H134724   3.477   1.675   7.069  0.2131 -0.5357 -0.8718
 4363TIP3    H234725   3.327   1.668   7.088  0.3144  1.0629  0.7500
 4364TIP3   OH234726   3.383   4.769   6.104  0.4404  0.3977 -0.1471
 4364TIP3    H134727   3.406   4.705   6.037  0.1824 -0.5782  0.6669
 4364TIP3    H234728   3.296   4.742   6.134  0.3889  1.0500  0.2987
 4365TIP3   OH234729   5.624   1.323   6.505  0.2402 -0.3336  0.2199
 4365TIP3    H134730   5.666   1.249   6.461  0.3523  0.7477 -1.5781
 4365TIP3    H234731   5.530   1.306   6.494  0.2238 -0.9810  1.2035
 4366TIP3   OH234732   5.769   4.620   0.205  0.3834  0.8473  0.1842
 4366TIP3    H134733   5.810   4.703   0.228  1.9747  0.2475 -0.3631
 4366TIP3    H234734   5.746   4.581   0.289 -1.4572  2.3119  0.4240
 4367TIP3   OH234735   6.003   0.812   7.860  0.0137  0.0626  0.2408
 4367TIP3    H134736   5.999   0.863   7.941  1.4300  0.5488  0.0391
 4367TIP3    H234737   6.096   0.791   7.850 -0.2687 -0.7655 -0.7881
 4368TIP3   OH234738   6.893   6.396   0.972 -0.1261 -0.2546  0.2825
 4368TIP3    H134739   6.933   6.479   0.946  0.7508 -0.5754  0.5730
 4368TIP3    H234740   6.918   6.385   1.064  1.7197 -1.9176 -0.3310
 4369TIP3   OH234741   1.523   5.041   7.726  0.7146 -0.6752  0.3924
 4369TIP3    H134742   1.535   4.968   7.666  0.6583  0.3258 -0.8937
 4369TIP3    H234743   1.586   5.107   7.696  0.1163  0.1562  0.9021
 4370TIP3   OH234744   2.106   2.457   0.838  0.4553 -0.0599  0.1740
 4370TIP3    H134745   2.054   2.520   0.888  2.2008  1.5473  0.0757
 4370TIP3    H234746   2.180   2.508   0.805  1.7700 -2.0956 -0.2035
 4371TIP3   OH234747   3.742   3.505   0.061 -0.3593  0.5054  0.2400
 4371TIP3    H134748   3.653   3.526   0.031 -1.0373 -1.5478  0.6669
 4371TIP3    H234749   3.731   3.481   0.153  0.8437  1.3415  0.6307
 4372TIP3   OH234750   3.006   1.149   1.864  0.1634 -0.0809 -0.2523
 4372TIP3    H134751   2.980   1.234   1.831 -1.2032 -0.7416 -0.9554
 4372TIP3    H234752   3.065   1.114   1.797  2.1300  0.9559  0.8250
 4373TIP3   OH234753   2.233   6.044   0.358 -0.1797  0.8890  0.6845
 4373TIP3    H134754   2.186   5.966   0.326  0.1344 -0.0736  2.4220
 4373TIP3    H234755   2.322   6.013   0.374  0.0525  1.7176  1.0246
 4374TIP3   OH234756   5.101   2.177   0.756 -0.0178  0.1245  0.2143
 4374TIP3    H134757   5.117   2.156   0.664 -1.2047 -0.0195  0.0266
 4374TIP3    H234758   5.089   2.092   0.798  1.1671  0.1571  0.6386
 4375TIP3   OH234759   4.738   2.693   1.302  0.2953 -0.0965 -0.7163
 4375TIP3    H134760   4.687   2.770   1.277  1.0512  0.0916 -1.7744
 4375TIP3    H234761   4.788   2.672   1.223  0.4149 -1.4225 -0.3051
 4376TIP3   OH234762   1.616   3.448   0.284 -0.1685  0.2919  0.0179
 4376TIP3    H134763   1.650   3.365   0.252  0.0081  0.1975  0.4486
 4376TIP3    H234764   1.662   3.514   0.232  1.8866  0.2471  1.6391
 4377TIP3   OH234765   1.062   3.159   0.934  0.5553  0.3505 -0.0256
 4377TIP3    H134766   1.058   3.245   0.891  3.5745  1.5721  1.8493
 4377TIP3    H234767   1.133   3.114   0.889 -0.8228 -1.1625 -0.7964
 4378TIP3   OH234768   3.444   1.915   1.795  0.3691 -0.3413  0.6185
 4378TIP3    H134769   3.445   1.828   1.835  1.2067 -1.4489 -1.6116
 4378TIP3    H234770   3.365   1.915   1.742  0.8118 -0.0911 -0.0525
 4379TIP3   OH234771   4.438   6.558   0.324 -0.5314 -0.6715  0.5511
 4379TIP3    H134772   4.460   6.476   0.279 -0.8450 -0.3421 -0.2257
 4379TIP3    H234773   4.395   6.610   0.257 -1.5009 -0.3708  1.3890
 4380TIP3   OH234774   2.891   0.557   0.561  0.5966  0.3148 -0.0450
 4380TIP3    H134775   2.841   0.591   0.486  0.3633  0.3755  0.1340
 4380TIP3    H234776   2.897   0.632   0.621  0.1568  0.0689  0.3134
 4381TIP3   OH234777   0.027   6.868   0.091 -0.3940 -0.4363 -0.0989
 4381TIP3    H134778  -0.026   6.941   0.124 -1.8432 -1.5048  0.0533
 4381TIP3    H234779   0.117   6.894   0.108 -0.7297  2.1507 -1.7743
 4382TIP3   OH234780   2.046   3.300   7.776 -0.3217  0.2288  0.0126
 4382TIP3    H134781   2.077   3.323   7.688 -0.0600 -2.9639 -0.8670
 4382TIP3    H234782   2.120   3.254   7.816 -2.0260 -2.9706 -0.1743
 4383TIP3   OH234783   6.933   5.948   0.070 -0.1276 -0.3362  0.0275
 4383TIP3    H134784   6.871   5.917   0.135 -1.7481  0.2823 -1.1427
 4383TIP3    H234785   6.990   6.009   0.117  2.4866 -4.0319  2.1370
 4384TIP3   OH234786   5.817   4.442   7.125  0.6010 -0.7768  0.2842
 4384TIP3    H134787   5.902   4.462   7.085  0.8417  0.9677  1.5822
 4384TIP3    H234788   5.821   4.348   7.145  2.4877 -0.5972  0.9069
 4385TIP3   OH234789   6.044   4.975   0.427  0.2698  0.4522  0.1169
 4385TIP3    H134790   5.959   4.987   0.471  0.3603 -0.1459  0.4654
 4385TIP3    H234791   6.108   5.010   0.490  0.2623  1.2309 -0.2941
 4386TIP3   OH234792   3.304   3.858   6.868  0.0302  0.6272  0.6923
 4386TIP3    H134793   3.378   3.828   6.921 -1.2455 -2.2951  1.0690
 4386TIP3    H234794   3.237   3.881   6.933 -0.6996 -0.6046  0.4091
 4387TIP3   OH234795   1.173   2.714   8.466  0.3480  0.4608  0.4774
 4387TIP3    H134796   1.111   2.783   8.444  1.0881  0.4520 -1.9175
 4387TIP3    H234797   1.207   2.738   8.552 -2.0101  1.1212  1.2765
 4388TIP3   OH234798   2.080   5.381   7.313 -0.1395  0.5816 -0.0135
 4388TIP3    H134799   2.032   5.299   7.298 -0.4310  0.8660 -0.6708
 4388TIP3    H234800   2.089   5.420   7.226 -0.2386  1.3824  0.3253
 4389TIP3   OH234801   2.918   6.350   7.972  0.2961  0.5190 -0.0285
 4389TIP3    H134802   2.881   6.374   8.057  0.3729 -0.5250  0.3139
 4389TIP3    H234803   2.857   6.285   7.937  2.3388 -2.2077  1.1063
 4390TIP3   OH234804   3.952   0.022   0.033 -0.0333  0.1875 -0.0737
 4390TIP3    H134805   4.024   0.046  -0.026 -0.6588  1.8067 -0.2334
 4390TIP3    H234806   3.884  -0.011  -0.026 -1.0323  2.7103 -0.4584
 4391TIP3   OH234807   3.067   1.197   8.154 -0.1218 -0.4735 -0.0757
 4391TIP3    H134808   2.982   1.151   8.150 -0.1414 -0.3490 -1.5887
 4391TIP3    H234809   3.075   1.240   8.069  1.9193 -1.2922 -0.3488
 4392TIP3   OH234810   2.845   5.323   0.520 -0.1036 -0.2625 -0.5346
 4392TIP3    H134811   2.925   5.373   0.533  0.1444 -1.0109  1.0721
 4392TIP3    H234812   2.874   5.234   0.501 -0.4990 -0.8407  1.3471
 4393TIP3   OH234813   1.087   1.978   0.804 -0.3865  0.2948 -0.0798
 4393TIP3    H134814   1.061   2.014   0.719  1.2000 -0.7083 -1.0462
 4393TIP3    H234815   1.089   1.883   0.790  0.0058  0.1233  1.0489
 4394TIP3   OH234816   0.930   0.192   0.162 -0.4232 -0.5177 -0.0145
 4394TIP3    H134817   1.023   0.202   0.183 -0.6652  0.1117  0.7913
 4394TIP3    H234818   0.922   0.100   0.135  0.3275 -0.7218  0.4204
 4395TIP3   OH234819   0.396   1.989   8.023  0.5894 -0.5339 -0.8159
 4395TIP3    H134820   0.412   1.923   7.956  1.4786 -1.4989  0.2814
 4395TIP3    H234821   0.324   1.954   8.075 -0.8288  0.7136 -1.8507
 4396TIP3   OH234822   0.520   5.614   6.997 -0.2394 -0.5429  0.8373
 4396TIP3    H134823   0.451   5.581   7.055 -0.7381 -0.6655  0.1884
 4396TIP3    H234824   0.482   5.609   6.909  0.5308 -0.4304  0.4878
 4397TIP3   OH234825   0.064   0.772   0.085 -0.2757 -0.4027  0.4696
 4397TIP3    H134826   0.002   0.828   0.133  0.1509  0.0078  0.5518
 4397TIP3    H234827   0.057   0.687   0.127 -0.2268 -0.1596  0.9790
 4398TIP3   OH234828   0.721   2.355   1.186 -0.1846 -0.4004 -0.0111
 4398TIP3    H134829   0.676   2.281   1.227 -2.3791 -0.3029 -1.9972
 4398TIP3    H234830   0.753   2.319   1.103  0.0343  0.5164 -0.3326
 4399TIP3   OH234831   0.151   3.402   2.054 -0.1696  0.1367 -0.7413
 4399TIP3    H134832   0.201   3.404   1.972  0.2950 -0.8788 -0.4922
 4399TIP3    H234833   0.128   3.310   2.066  1.0497  0.0233  1.0217
 4400TIP3   OH234834   5.252   2.075   8.169  0.0502 -0.1020  0.0511
 4400TIP3    H134835   5.333   2.122   8.190  0.8532 -0.4316 -2.0708
 4400TIP3    H234836   5.266   1.987   8.204  0.7969 -0.2731 -0.6387
 4401TIP3   OH234837   6.423   0.049   0.408  0.3928  0.0857  0.3613
 4401TIP3    H134838   6.512   0.016   0.401  0.1567 -0.2116 -1.9922
 4401TIP3    H234839   6.432   0.144   0.401  0.4761 -0.0114 -1.5269
 4402TIP3   OH234840   4.992   5.846   1.543 -0.1139  0.5067  0.7701
 4402TIP3    H134841   4.935   5.833   1.618  1.0539  0.9245  1.7702
 4402TIP3    H234842   4.998   5.941   1.534 -0.3925  0.4613  0.0185
 4403TIP3   OH234843   3.489   1.310   6.826  0.7369  0.3042 -0.0694
 4403TIP3    H134844   3.444   1.322   6.742 -0.5254  0.5248  0.6087
 4403TIP3    H234845   3.529   1.395   6.844 -0.0900  0.6578  0.1538
 4404TIP3   OH234846   5.415   4.907   6.856 -0.3695  0.0595 -0.1142
 4404TIP3    H134847   5.477   4.904   6.783  0.1239 -0.4349  0.3152
 4404TIP3    H234848   5.467   4.936   6.931 -0.7773  0.1636  0.1297
 4405TIP3   OH234849   2.898   3.638   0.229 -0.5267  0.3958 -0.2265
 4405TIP3    H134850   2.849   3.679   0.158  0.7849  0.3902 -1.1619
 4405TIP3    H234851   2.989   3.642   0.201  0.0446  0.4975  1.5165
 4406TIP3   OH234852   5.956   0.148   1.174  0.1410 -0.1499  0.6174
 4406TIP3    H134853   6.009   0.069   1.166  1.1277  0.4033  1.3825
 4406TIP3    H234854   5.882   0.134   1.116 -0.2422 -2.0732  1.4991
 4407TIP3   OH234855   0.576   2.108   8.580 -0.2486  0.4015 -0.4823
 4407TIP3    H134856   0.526   2.165   8.521  0.4825 -0.2363 -1.7600
 4407TIP3    H234857   0.550   2.019   8.555  2.7556 -0.0844 -2.4987
 4408TIP3   OH234858   0.843   0.426   7.520  0.1524 -0.6663  0.0500
 4408TIP3    H134859   0.864   0.519   7.514  0.9952 -0.9327 -1.5138
 4408TIP3    H234860   0.749   0.421   7.499  0.2352 -0.2222 -0.4398
 4409TIP3   OH234861   4.859   0.036   1.392  0.4936  0.5847 -0.4230
 4409TIP3    H134862   4.891  -0.053   1.408 -1.7002  0.1078  1.9246
 4409TIP3    H234863   4.787   0.025   1.330 -0.0504  0.6721  0.1920
 4410TIP3   OH234864   5.811   0.532   0.479 -0.1551 -0.3021  0.1752
 4410TIP3    H134865   5.789   0.516   0.571  0.6556  0.5573  0.5298
 4410TIP3    H234866   5.901   0.565   0.481  0.0222 -0.6837 -0.9704
 4411TIP3   OH234867   4.889   4.171   6.309  0.0212  0.2984 -0.6759
 4411TIP3    H134868   4.901   4.247   6.251  1.9746 -0.9283 -2.0195
 4411TIP3    H234869   4.950   4.105   6.275 -0.5553 -1.3817  1.3188
 4412TIP3   OH234870   0.139   2.153   7.439 -0.0173 -0.0422 -0.2624
 4412TIP3    H134871   0.232   2.172   7.425 -0.1979  0.4880 -0.7856
 4412TIP3    H234872   0.128   2.157   7.534  0.3690  0.4869 -0.2370
 4413TIP3   OH234873   0.323   3.064   8.499  0.3890  0.2576  0.5328
 4413TIP3    H134874   0.349   3.137   8.555 -0.4988  1.3230 -0.4083
 4413TIP3    H234875   0.248   3.096   8.450 -0.1660 -1.3725  0.2430
 4414TIP3   OH234876   4.389   2.765   2.596 -0.5226  0.0391  0.4532
 4414TIP3    H134877   4.348   2.693   2.549 -0.1530  0.8445 -1.2046
 4414TIP3    H234878   4.445   2.723   2.661  1.9137 -1.3760 -2.2869
 4415TIP3   OH234879   5.041   0.410   0.425  0.4050 -0.4174  0.6212
 4415TIP3    H134880   5.103   0.441   0.359 -1.4462 -0.0812 -1.0435
 4415TIP3    H234881   5.059   0.464   0.502  0.5166  1.4040 -0.6303
 4416TIP3   OH234882   1.933   3.891   1.911  0.3301 -0.5843 -0.5563
 4416TIP3    H134883   2.011   3.900   1.965  0.3499 -0.4970 -0.5979
 4416TIP3    H234884   1.926   3.976   1.866 -0.1511 -0.3654 -0.0751
 4417TIP3   OH234885   1.337   1.188   8.423  0.0475  0.6520 -0.4938
 4417TIP3    H134886   1.301   1.156   8.340 -1.0487 -1.4111  0.6751
 4417TIP3    H234887   1.265   1.236   8.463  0.0224  0.2429 -0.0394
 4418TIP3   OH234888   2.216   6.880   6.810  0.1060  0.1536  0.3165
 4418TIP3    H134889   2.240   6.963   6.851 -0.6886  0.4040  0.3014
 4418TIP3    H234890   2.177   6.906   6.726 -0.1960 -0.2311  0.3379
 4419TIP3   OH234891   3.846   1.881   0.977  0.4126 -0.0018 -0.3392
 4419TIP3    H134892   3.855   1.974   0.957 -0.1690  0.0105 -0.5583
 4419TIP3    H234893   3.806   1.879   1.064  0.1033 -0.0449 -0.4817
 4420TIP3   OH234894   3.458   6.066   1.255 -0.0987 -0.0154  0.5752
 4420TIP3    H134895   3.463   6.074   1.160  0.8686 -0.7921  0.5443
 4420TIP3    H234896   3.530   6.007   1.278  1.6593  2.5525  2.1149
 4421TIP3   OH234897   3.452   3.035   7.377 -0.1944 -0.2074 -0.5367
 4421TIP3    H134898   3.418   2.946   7.369  1.0024 -0.6863 -0.5992
 4421TIP3    H234899   3.511   3.031   7.453  0.1066  0.4497 -0.7310
 4422TIP3   OH234900   3.625   2.196   1.074 -0.3220  0.2280 -0.2513
 4422TIP3    H134901   3.678   2.122   1.104 -0.2038  0.6689  0.6497
 4422TIP3    H234902   3.690   2.263   1.049 -0.4324  0.6595  0.5766
 4423TIP3   OH234903   1.228   4.168   1.734  0.2603 -0.0231  0.5919
 4423TIP3    H134904   1.218   4.126   1.820 -0.8433  0.7295  0.8564
 4423TIP3    H234905   1.267   4.101   1.679  0.9808 -0.5365  1.6725
 4424TIP3   OH234906   4.300   4.901   8.160  0.0683 -0.4228 -0.1085
 4424TIP3    H134907   4.317   4.811   8.132  0.0726 -0.2142 -0.8045
 4424TIP3    H234908   4.385   4.945   8.153 -0.2328  0.0225 -1.2958
 4425TIP3   OH234909   2.959   1.256   0.852 -0.1930  0.0354  0.1719
 4425TIP3    H134910   2.930   1.347   0.847 -3.6016 -0.9781 -1.5555
 4425TIP3    H234911   2.992   1.246   0.942 -2.0864  2.3721  1.2269
 4426TIP3   OH234912   6.073   2.557   0.124 -0.4892  0.0123 -0.2633
 4426TIP3    H134913   6.019   2.526   0.198 -0.6109  2.3526  0.7393
 4426TIP3    H234914   6.100   2.645   0.151  0.3294  0.5266 -2.6078
 4427TIP3   OH234915   0.178   3.883   7.208 -0.0160  0.7246  0.6555
 4427TIP3    H134916   0.245   3.899   7.274 -0.2134  0.4952  0.9188
 4427TIP3    H234917   0.129   3.808   7.242 -1.4187  1.8724  1.2747
 4428TIP3   OH234918   3.430   3.063   1.649 -0.8953  0.0379 -0.0018
 4428TIP3    H134919   3.347   3.045   1.693 -1.8480 -1.9568 -2.3441
 4428TIP3    H234920   3.456   2.979   1.611  1.1236  1.0739 -1.0833
 4429TIP3   OH234921   4.212   4.297   1.574 -0.2709  0.2546  0.4593
 4429TIP3    H134922   4.160   4.275   1.497 -0.2215 -1.4980  0.8785
 4429TIP3    H234923   4.301   4.309   1.540  0.0317 -1.8582  0.3476
 4430TIP3   OH234924   3.342   6.831   7.800 -0.8111 -0.2974  0.0010
 4430TIP3    H134925   3.426   6.870   7.778 -1.0328  0.4968  0.5261
 4430TIP3    H234926   3.314   6.786   7.720 -0.4849  0.5017 -0.5732
 4431TIP3   OH234927   4.094   4.295   0.199  0.0006 -0.0880  0.1178
 4431TIP3    H134928   4.088   4.236   0.274  0.7662 -2.1760 -1.3634
 4431TIP3    H234929   4.006   4.332   0.191 -0.8701 -1.9425  0.4359
 4432TIP3   OH234930   2.797   0.612   7.033 -0.0116  0.0399 -0.6472
 4432TIP3    H134931   2.777   0.609   7.126 -1.2000 -0.7491 -0.8997
 4432TIP3    H234932   2.893   0.616   7.029  0.1227 -1.0992  0.6023
 4433TIP3   OH234933   3.902   0.560   7.632  0.2219 -0.0865  0.1625
 4433TIP3    H134934   3.882   0.553   7.725  1.8190  0.4767  0.5959
 4433TIP3    H234935   3.986   0.514   7.623 -0.4760 -1.1531 -1.2384
 4434TIP3   OH234936   5.204   5.562   1.601  0.1051  0.1163  0.8010
 4434TIP3    H134937   5.190   5.556   1.696 -0.2928 -0.0056  0.7358
 4434TIP3    H234938   5.207   5.472   1.571 -1.5938  0.1278  0.4448
 4435TIP3   OH234939   1.724   5.907   0.579  0.1697  0.1517 -0.6195
 4435TIP3    H134940   1.791   5.917   0.511 -0.7199 -2.2239 -1.9978
 4435TIP3    H234941   1.772   5.870   0.654  0.8759  1.1881 -0.5423
 4436TIP3   OH234942   4.666   5.238   8.324  0.1993 -0.3839 -0.2514
 4436TIP3    H134943   4.578   5.257   8.356  0.7756 -1.6711  2.3764
 4436TIP3    H234944   4.660   5.251   8.230 -2.8523 -0.6143 -0.2002
 4437TIP3   OH234945   1.088   5.800   7.095  0.6316 -0.3906 -0.6732
 4437TIP3    H134946   1.170   5.753   7.089  1.1880  0.4012  0.3876
 4437TIP3    H234947   1.060   5.789   7.186  1.6388  2.6090  0.1192
 4438TIP3   OH234948   3.513   0.793   2.635 -0.0765 -0.4283 -0.1540
 4438TIP3    H134949   3.436   0.831   2.678  1.1961  0.1088  1.7841
 4438TIP3    H234950   3.495   0.699   2.632 -2.2187 -0.0721 -2.8375
 4439TIP3   OH234951   2.609   5.689   8.505  0.2453  0.3413  0.1414
 4439TIP3    H134952   2.653   5.728   8.580 -1.0465  2.2268 -0.0088
 4439TIP3    H234953   2.567   5.763   8.461 -1.7753 -1.1492 -0.5576
 4440TIP3   OH234954   2.158   5.628   1.923  0.7305 -0.4191  0.2587
 4440TIP3    H134955   2.069   5.598   1.941  0.4136 -0.5779 -1.3700
 4440TIP3    H234956   2.213   5.580   1.985 -0.4155  0.7582  2.2765
 4441TIP3   OH234957   2.593   5.446   7.925  1.0729  0.0492  0.5320
 4441TIP3    H134958   2.519   5.438   7.985  0.9181  0.2791  0.3709
 4441TIP3    H234959   2.560   5.497   7.852  1.1228 -0.6448  0.0145
 4442TIP3   OH234960   6.651   5.199   1.202 -0.9560 -0.0530 -0.3646
 4442TIP3    H134961   6.627   5.286   1.235 -0.0265  0.1394 -0.1940
 4442TIP3    H234962   6.572   5.147   1.216 -1.1347  0.4530  0.6425
 4443TIP3   OH234963   3.910   0.964   2.457  0.8372 -0.1247  0.2653
 4443TIP3    H134964   3.865   0.964   2.542  2.3564 -2.6090  1.1889
 4443TIP3    H234965   3.986   1.021   2.471 -0.6164  2.1595 -0.5623
 4444TIP3   OH234966   2.182   3.418   8.371 -0.4272  0.3365  0.7816
 4444TIP3    H134967   2.200   3.422   8.464  1.7762 -0.1103  0.4244
 4444TIP3    H234968   2.222   3.336   8.341 -0.0096  1.0369 -0.7292
 4445TIP3   OH234969   0.341   4.422   6.668  0.9046 -0.6539 -0.4279
 4445TIP3    H134970   0.279   4.387   6.603 -0.1817  0.7781 -0.2231
 4445TIP3    H234971   0.372   4.504   6.630  0.5340  0.0250  0.6820
 4446TIP3   OH234972   3.054   3.857   7.620  0.4632  0.0333  0.4760
 4446TIP3    H134973   3.055   3.843   7.525  0.4694  1.0607  0.3165
 4446TIP3    H234974   2.963   3.841   7.645  0.0376  1.5377 -0.0018
 4447TIP3   OH234975   4.287   4.167   7.081 -0.1633 -0.4353  0.6112
 4447TIP3    H134976   4.265   4.204   7.167  0.2373  0.0267  0.5168
 4447TIP3    H234977   4.202   4.138   7.046 -0.4017 -0.1476  0.9383
 4448TIP3   OH234978   6.798   6.195   8.560 -0.2453  0.2245 -0.1974
 4448TIP3    H134979   6.854   6.134   8.609  0.8185  0.9862 -0.4264
 4448TIP3    H234980   6.798   6.161   8.470  0.8480  0.8771 -0.4603
 4449TIP3   OH234981   3.128   3.613   0.045 -0.2327  0.4290 -0.2963
 4449TIP3    H134982   3.104   3.561  -0.032  2.0721  0.2439 -0.9675
 4449TIP3    H234983   3.168   3.692   0.009  0.7253  0.4142  0.6873
 4450TIP3   OH234984   1.012   0.043   8.405  0.3097  0.3228 -0.3309
 4450TIP3    H134985   1.022   0.015   8.314  1.5167 -0.1206 -0.0842
 4450TIP3    H234986   1.055   0.128   8.410  0.5040  0.2149 -0.1156
 4451TIP3   OH234987   2.201   3.811   1.464  0.1756  0.3159  0.3064
 4451TIP3    H134988   2.112   3.800   1.498  0.2476  2.7884  1.4915
 4451TIP3    H234989   2.229   3.722   1.443 -2.0499 -0.6929  1.2196
 4452TIP3   OH234990   6.539   4.281   0.601  0.8578 -0.1255  0.0663
 4452TIP3    H134991   6.544   4.316   0.690  1.3251 -3.1105  1.3151
 4452TIP3    H234992   6.453   4.308   0.569 -0.2817 -0.9001  2.3112
 4453TIP3   OH234993   0.804   6.861   0.718  0.7308 -1.2516 -0.7165
 4453TIP3    H134994   0.748   6.926   0.760  1.1822  1.2676 -3.6691
 4453TIP3    H234995   0.884   6.860   0.771  1.0673  1.3772 -1.0452
 4454TIP3   OH234996   0.063   1.556   8.196  0.0415 -0.3402 -0.0915
 4454TIP3    H134997   0.131   1.489   8.190 -0.6698 -1.1141  0.2833
 4454TIP3    H234998  -0.007   1.525   8.138 -0.7339 -0.4724  0.8836
 4455TIP3   OH234999   0.923   4.677   7.400 -0.3490  0.2565 -0.1481
 4455TIP3    H135000   0.847   4.620   7.397 -0.1609 -0.0811  0.9171
 4455TIP3    H235001   0.979   4.639   7.468  0.4276  0.9121 -0.4005
 4456TIP3   OH235002   3.833   4.788   8.316 -0.3134  0.2220 -0.8086
 4456TIP3    H135003   3.839   4.882   8.297 -0.8834  0.1489 -1.3589
 4456TIP3    H235004   3.866   4.746   8.236  0.5087 -0.0469 -0.3413
 4457TIP3   OH235005   6.314   2.370   1.125 -0.5480 -0.0760  0.1048
 4457TIP3    H135006   6.257   2.421   1.067 -0.3902 -0.7671 -0.6740
 4457TIP3    H235007   6.310   2.415   1.209 -0.8412  0.9015 -0.4270
 4458TIP3   OH235008   3.030   5.225   2.584 -0.5928  0.5098  0.0972
 4458TIP3    H135009   2.949   5.179   2.561 -1.3939  1.4539  0.9399
 4458TIP3    H235010   3.096   5.190   2.523 -1.7473  0.0988 -0.9612
 4459TIP3   OH235011   2.502   6.029   7.708  0.4837 -0.5194 -0.3464
 4459TIP3    H135012   2.467   6.077   7.633  0.0611 -0.9912 -0.4566
 4459TIP3    H235013   2.479   6.082   7.784  3.7830  1.7354 -0.7073
 4460TIP3   OH235014   2.348   5.116   0.158  0.2061  0.6074  0.2727
 4460TIP3    H135015   2.443   5.107   0.151  0.0632 -0.1310 -1.1203
 4460TIP3    H235016   2.323   5.057   0.229  0.6078 -0.6901 -0.6353
 4461TIP3   OH235017   1.630   6.579   7.175  0.1473  0.0185  0.1647
 4461TIP3    H135018   1.595   6.645   7.115  0.8314 -0.8011 -1.1695
 4461TIP3    H235019   1.590   6.600   7.260 -1.6743  0.5597 -0.7890
 4462TIP3   OH235020   1.704   6.856   2.280 -0.0831  0.0998 -0.2541
 4462TIP3    H135021   1.618   6.885   2.250  0.6355  1.1319 -1.4429
 4462TIP3    H235022   1.765   6.910   2.231  1.2935 -1.7247 -0.6294
 4463TIP3   OH235023   5.581   3.624   7.658 -0.0922 -0.2087 -0.5449
 4463TIP3    H135024   5.495   3.645   7.694 -0.3868 -0.4472 -1.0994
 4463TIP3    H235025   5.572   3.640   7.564  0.0277 -1.6274 -0.8170
 4464TIP3   OH235026   5.773   4.602   1.530  0.1060 -0.0116 -0.0019
 4464TIP3    H135027   5.695   4.638   1.488 -0.7392 -0.2326  1.3030
 4464TIP3    H235028   5.839   4.599   1.461 -1.2838 -0.5925 -1.3529
 4465TIP3   OH235029   4.473   2.361   7.578 -0.2891  0.1636  0.7570
 4465TIP3    H135030   4.379   2.369   7.565 -0.1828 -0.4564 -0.4952
 4465TIP3    H235031   4.512   2.420   7.513  0.2000  0.3118  1.1701
 4466TIP3   OH235032   6.115   3.117   1.463  0.2214 -0.0619  0.1213
 4466TIP3    H135033   6.029   3.153   1.486 -0.4345 -2.6344  2.2844
 4466TIP3    H235034   6.169   3.193   1.444 -1.7952  1.8396  1.5032
 4467TIP3   OH235035   5.366   6.894   8.412  0.5333 -0.0277  0.3377
 4467TIP3    H135036   5.439   6.843   8.447 -0.5834 -1.2179  1.0379
 4467TIP3    H235037   5.329   6.838   8.344  1.5486  1.4866 -1.5678
 4468TIP3   OH235038   3.207   0.804   8.129  0.2939  0.0268  0.2733
 4468TIP3    H135039   3.223   0.713   8.102  1.1143  0.7380 -1.7479
 4468TIP3    H235040   3.274   0.855   8.085  0.0690  1.6172  1.6538
 4469TIP3   OH235041   2.808   4.025   0.233 -0.7692  0.4112 -0.0127
 4469TIP3    H135042   2.729   3.976   0.211 -1.3251  1.5839 -0.7729
 4469TIP3    H235043   2.855   3.970   0.296 -0.9937 -1.3746 -1.3642
 4470TIP3   OH235044   6.450   5.921   0.124 -0.9962  0.2176 -0.2060
 4470TIP3    H135045   6.491   5.866   0.190  0.1414  0.5922 -0.5667
 4470TIP3    H235046   6.495   5.898   0.042  1.3653  3.3599  0.0058
 4471TIP3   OH235047   3.420   1.431   8.039  0.1394  0.7138 -0.9673
 4471TIP3    H135048   3.427   1.340   8.009  1.7236  0.8249 -1.0213
 4471TIP3    H235049   3.467   1.432   8.123 -1.2533  1.1623 -0.1554
 4472TIP3   OH235050   4.468   6.286   7.417 -0.1143  0.4143 -0.2495
 4472TIP3    H135051   4.386   6.242   7.438 -2.0504  4.2623  1.1601
 4472TIP3    H235052   4.453   6.325   7.330  0.4199  0.6801 -0.2281
 4473TIP3   OH235053   2.037   3.752   6.348  0.2771 -0.6711 -0.1848
 4473TIP3    H135054   1.976   3.742   6.422  1.9778 -1.4940  1.1625
 4473TIP3    H235055   2.005   3.829   6.301  0.1946  1.0246  2.4708
 4474TIP3   OH235056   3.674   1.712   7.597  0.1357  0.0394 -0.2288
 4474TIP3    H135057   3.607   1.777   7.614 -0.7142 -0.7706 -0.4071
 4474TIP3    H235058   3.645   1.634   7.644  1.5285 -0.0040  0.6298
 4475TIP3   OH235059   6.759   4.707   7.243  0.0554 -0.3509  0.3215
 4475TIP3    H135060   6.785   4.649   7.314 -1.2612  0.3431  1.3940
 4475TIP3    H235061   6.763   4.652   7.165  0.2237 -1.4815  1.1032
 4476TIP3   OH235062   1.301   6.559   0.278 -0.3128  0.1501  0.7477
 4476TIP3    H135063   1.290   6.516   0.193  2.2424 -0.2905  0.5605
 4476TIP3    H235064   1.214   6.557   0.318 -1.2109 -1.1548 -1.1438
 4477TIP3   OH235065   3.300   2.132   7.160  0.0033  0.8711 -0.0907
 4477TIP3    H135066   3.353   2.127   7.081 -0.9743  1.2220 -0.7865
 4477TIP3    H235067   3.260   2.045   7.168  0.0895  0.8405  0.0197
 4478TIP3   OH235068   3.158   6.859   0.983 -0.0898  0.3742 -0.5577
 4478TIP3    H135069   3.193   6.842   0.895  1.2621 -0.8670  0.1939
 4478TIP3    H235070   3.112   6.942   0.974 -0.6544 -0.1020 -2.6315
 4479TIP3   OH235071   2.439   2.899   8.402  0.1835  0.3995 -0.6709
 4479TIP3    H135072   2.508   2.965   8.416  1.2322 -0.9608  0.9604
 4479TIP3    H235073   2.484   2.815   8.410 -0.9776 -0.6018 -3.4322
 4480TIP3   OH235074   4.358   1.278   1.207  0.0639 -0.0516 -0.0723
 4480TIP3    H135075   4.318   1.199   1.242  0.3083  0.4121  1.3005
 4480TIP3    H235076   4.292   1.313   1.146  0.4255 -1.8966 -1.6242
 4481TIP3   OH235077   0.747   5.069   6.926 -0.1593 -0.3467  0.2108
 4481TIP3    H135078   0.786   5.156   6.931  1.1690 -0.8640 -0.7732
 4481TIP3    H235079   0.655   5.086   6.905 -0.0201  0.8221  0.4532
 4482TIP3   OH235080   6.029   6.347   6.949 -0.2388  0.2058 -0.0712
 4482TIP3    H135081   6.053   6.354   6.856 -0.7669 -0.3249 -0.2529
 4482TIP3    H235082   6.110   6.323   6.993 -0.3903 -1.5904 -0.6759
 4483TIP3   OH235083   0.969   5.274   1.717 -0.0215  0.2694 -0.6281
 4483TIP3    H135084   0.885   5.319   1.720  0.0757  0.5329 -1.4216
 4483TIP3    H235085   0.947   5.181   1.723 -0.3952  0.3214 -1.1045
 4484TIP3   OH235086   6.475   6.290   6.670 -0.2097 -0.3386  0.2321
 4484TIP3    H135087   6.455   6.367   6.617 -1.1216  0.0606  1.1214
 4484TIP3    H235088   6.569   6.295   6.684 -0.3278  0.9376  0.7326
 4485TIP3   OH235089   5.681   3.191   8.175  0.1785  0.2005  0.3560
 4485TIP3    H135090   5.620   3.163   8.244  1.3566 -0.3600  1.2063
 4485TIP3    H235091   5.725   3.110   8.148 -0.3779  0.3879 -1.1965
 4486TIP3   OH235092   6.541   2.709   0.740  0.3533 -0.1935 -0.2731
 4486TIP3    H135093   6.584   2.779   0.691 -1.8919  1.1898 -0.4248
 4486TIP3    H235094   6.540   2.740   0.831  1.0674 -0.9557  0.0060
 4487TIP3   OH235095   6.529   2.803   8.300  0.1648 -0.3582  0.1064
 4487TIP3    H135096   6.583   2.769   8.229  0.1412 -0.9322  0.3554
 4487TIP3    H235097   6.494   2.886   8.266 -1.3939 -1.5287 -1.3131
 4488TIP3   OH235098   6.399   5.067   7.224 -0.3420  0.0457  0.4512
 4488TIP3    H135099   6.322   5.043   7.276 -0.2470 -0.2971  0.4406
 4488TIP3    H235100   6.364   5.114   7.149 -0.6243 -0.8197  0.0238
 4489TIP3   OH235101   3.148   5.145   0.050 -0.4836  0.2625 -0.8019
 4489TIP3    H135102   3.148   5.099  -0.034  0.2209 -3.4254  1.0049
 4489TIP3    H235103   3.236   5.132   0.085 -0.6269  2.0709  0.4082
 4490TIP3   OH235104   5.077   2.145   0.202 -0.0560  0.4460  1.2911
 4490TIP3    H135105   5.100   2.092   0.126  0.8429  0.3861  1.5902
 4490TIP3    H235106   5.105   2.233   0.180 -2.5427  1.0876  0.3444
 4491TIP3   OH235107   4.126   4.125   0.463 -0.1788 -0.1191 -0.3937
 4491TIP3    H135108   4.221   4.138   0.465 -0.2991  0.6678  1.1699
 4491TIP3    H235109   4.095   4.160   0.546 -1.8291 -0.5593 -0.7939
 4492TIP3   OH235110   4.990   2.573   6.664  0.0035 -0.5113 -0.1191
 4492TIP3    H135111   4.895   2.580   6.649 -0.0810 -0.2931  0.4919
 4492TIP3    H235112   4.998   2.539   6.753  0.5022  0.1534  0.0998
 4493TIP3   OH235113   0.225   1.394   1.420 -0.2249  0.5046 -0.2044
 4493TIP3    H135114   0.251   1.359   1.335 -1.8954  0.2285 -0.6424
 4493TIP3    H235115   0.154   1.337   1.449  0.0321  0.8517  1.1994
 4494TIP3   OH235116   6.669   3.229   8.273  0.1062 -0.6427 -0.5571
 4494TIP3    H135117   6.747   3.175   8.285 -0.2819 -1.0418  0.2278
 4494TIP3    H235118   6.603   3.171   8.236  0.3242 -0.1832 -1.6899
 4495TIP3   OH235119   5.789   1.373   1.812  0.5066  0.0652 -0.1684
 4495TIP3    H135120   5.818   1.282   1.811  0.5935  0.0674  0.8805
 4495TIP3    H235121   5.838   1.415   1.741  2.2943 -0.1681  0.8747
 4496TIP3   OH235122   2.849   2.449   8.162 -0.5816 -0.1958  0.2552
 4496TIP3    H135123   2.919   2.428   8.100  0.5804  3.4088  0.0846
 4496TIP3    H235124   2.774   2.398   8.133  0.5653 -0.3534 -2.7502
 4497TIP3   OH235125   4.005   2.630   0.372 -0.1713  0.1500 -0.2775
 4497TIP3    H135126   4.088   2.662   0.336 -1.5158  1.9171 -2.0992
 4497TIP3    H235127   4.028   2.549   0.416  2.5004  0.5094 -0.7898
 4498TIP3   OH235128   1.264   0.266   7.466 -0.0900 -0.3389  0.1328
 4498TIP3    H135129   1.242   0.313   7.386  1.1442  2.5825  1.3420
 4498TIP3    H235130   1.180   0.253   7.510 -0.4147  3.1622  0.8573
 4499TIP3   OH235131   0.512   6.416   2.331  0.6117 -0.2361  0.7352
 4499TIP3    H135132   0.426   6.379   2.313 -0.0484  1.8383 -0.7355
 4499TIP3    H235133   0.571   6.368   2.272  0.1930 -0.5383  0.5522
 4500TIP3   OH235134   1.732   1.922   7.114  0.1909 -0.1691 -0.1935
 4500TIP3    H135135   1.800   1.971   7.068  0.8358 -2.2866 -1.6200
 4500TIP3    H235136   1.779   1.873   7.182 -0.3302  0.5012  0.6728
 4501TIP3   OH235137   0.040   3.278   8.008  0.2215 -0.3425 -0.0970
 4501TIP3    H135138   0.088   3.197   8.023 -0.9053 -0.6967  1.8637
 4501TIP3    H235139  -0.006   3.264   7.925  0.6644 -1.3957 -0.1752
 4502TIP3   OH235140   6.722   2.532   1.784 -0.2009 -0.3443  0.0223
 4502TIP3    H135141   6.738   2.601   1.849 -1.2730 -1.0701  1.1012
 4502TIP3    H235142   6.636   2.552   1.749  0.4313  0.1231 -1.3305
 4503TIP3   OH235143   3.334   4.618   7.328 -0.2887 -0.3276  0.3642
 4503TIP3    H135144   3.415   4.645   7.284 -0.0040  0.4339  1.3048
 4503TIP3    H235145   3.322   4.684   7.397 -1.6945 -0.4496  0.2552
 4504TIP3   OH235146   2.225   3.350   7.550  0.0832  0.0351 -0.0572
 4504TIP3    H135147   2.258   3.261   7.554 -0.1456 -0.0540 -0.1210
 4504TIP3    H235148   2.138   3.342   7.509 -0.0018  0.2670  0.0726
 4505TIP3   OH235149   1.265   4.054   0.359  0.3510 -0.0712  0.4482
 4505TIP3    H135150   1.178   4.016   0.368  0.6781 -1.0838 -0.4162
 4505TIP3    H235151   1.324   3.989   0.397  0.6709  1.0400  1.9372
 4506TIP3   OH235152   4.117   6.824   7.761 -0.3954  0.1044  0.2864
 4506TIP3    H135153   4.182   6.891   7.739 -1.6949  0.7963 -1.7756
 4506TIP3    H235154   4.151   6.781   7.839  0.5894  3.0420  1.6035
 4507TIP3   OH235155   0.793   6.238   1.326 -0.3920  0.1466  0.3734
 4507TIP3    H135156   0.800   6.212   1.235  1.0246  0.1420  0.4666
 4507TIP3    H235157   0.721   6.301   1.327  0.3227  1.0380 -0.9665
 4508TIP3   OH235158   5.380   6.538   1.647 -0.1670  0.4125 -0.2580
 4508TIP3    H135159   5.437   6.613   1.664 -0.0602  0.0536  1.0649
 4508TIP3    H235160   5.416   6.468   1.702 -0.4989 -0.5036 -1.1772
 4509TIP3   OH235161   5.129   6.417   7.238 -0.1797  0.3449  0.6577
 4509TIP3    H135162   5.038   6.408   7.265 -0.3813 -0.5191 -0.2538
 4509TIP3    H235163   5.178   6.360   7.298 -0.1920  0.9949  1.3026
 4510TIP3   OH235164   4.002   4.697   7.718 -0.1541  0.1976  0.0054
 4510TIP3    H135165   4.014   4.783   7.759 -0.3663 -0.0053  0.4959
 4510TIP3    H235166   3.907   4.687   7.709 -0.3699 -1.3033  2.8439
 4511TIP3   OH235167   4.202   2.714   6.686  0.2249 -0.5821 -0.5748
 4511TIP3    H135168   4.135   2.780   6.669  0.0641 -0.4027  0.6978
 4511TIP3    H235169   4.183   2.644   6.623  1.3042  1.1716 -2.9922
 4512TIP3   OH235170   1.505   3.917   8.093  0.4478  0.2984  0.3689
 4512TIP3    H135171   1.417   3.954   8.099 -0.4453 -1.8942  2.4413
 4512TIP3    H235172   1.550   3.948   8.172  0.3003 -1.4135  1.1622
 4513TIP3   OH235173   4.838   3.499   7.205  0.1878  0.2438  0.3985
 4513TIP3    H135174   4.893   3.517   7.129  0.3872  1.4852  0.8119
 4513TIP3    H235175   4.829   3.403   7.207 -1.1496  0.2346 -2.0972
 4514TIP3   OH235176   1.788   5.499   6.843 -0.0583 -0.2400 -0.4761
 4514TIP3    H135177   1.840   5.572   6.811  2.7583 -2.2090 -0.8407
 4514TIP3    H235178   1.811   5.426   6.785 -1.9302 -1.6795  0.4703
 4515TIP3   OH235179   1.769   2.250   8.433  0.5872  0.5440  0.3880
 4515TIP3    H135180   1.738   2.285   8.517 -0.9340  3.6596 -1.2737
 4515TIP3    H235181   1.813   2.324   8.391  2.5438 -1.3133 -1.0786
 4516TIP3   OH235182   1.896   3.710   2.119 -0.5012 -0.2571 -0.0119
 4516TIP3    H135183   1.815   3.676   2.156 -0.8282 -1.9849 -2.1084
 4516TIP3    H235184   1.869   3.783   2.063 -0.7560 -1.1927 -1.1645
 4517TIP3   OH235185   0.091   6.357   1.283  0.8745  0.3165 -0.0432
 4517TIP3    H135186   0.129   6.439   1.314  0.9398 -0.7086  2.9037
 4517TIP3    H235187   0.155   6.290   1.308  0.1409 -0.7950 -1.0401
 4518TIP3   OH235188   1.208   3.285   0.370 -0.3061 -0.4376  0.4283
 4518TIP3    H135189   1.290   3.272   0.419  0.0196  1.3444  0.4379
 4518TIP3    H235190   1.236   3.322   0.286 -0.9522 -2.3125 -0.6712
 4519TIP3   OH235191   4.887   5.777   0.057  0.2546  0.7062 -0.4916
 4519TIP3    H135192   4.835   5.699   0.073  2.0327 -0.3831  0.2256
 4519TIP3    H235193   4.826   5.838   0.015 -1.5698 -0.4871  0.3042
 4520TIP3   OH235194   6.109   0.956   2.005 -0.6711  0.1883 -0.6433
 4520TIP3    H135195   6.062   1.029   2.046  1.5829  0.9214  0.8013
 4520TIP3    H235196   6.045   0.885   2.003 -2.6305  1.8575 -1.1907
 4521TIP3   OH235197   3.612   4.177   8.157  0.0621 -0.1111  0.1917
 4521TIP3    H135198   3.534   4.149   8.108 -0.0672  0.2197  0.2052
 4521TIP3    H235199   3.685   4.131   8.115  0.1265  1.1527 -1.1741
 4522TIP3   OH235200   6.385   1.123   0.951 -0.2955 -0.2471 -0.0212
 4522TIP3    H135201   6.415   1.191   1.011 -0.1893 -1.0048  0.8123
 4522TIP3    H235202   6.445   1.127   0.877  1.0082 -0.8043  0.9719
 4523TIP3   OH235203   3.041   0.083   0.489 -0.0786 -0.0116 -0.1286
 4523TIP3    H135204   3.041   0.018   0.559  0.2759 -0.0222 -0.1350
 4523TIP3    H235205   3.134   0.094   0.467 -0.1463  0.4255 -0.1944
 4524TIP3   OH235206   3.843   3.009   8.499 -0.1899 -0.3535 -0.7121
 4524TIP3    H135207   3.784   2.974   8.566 -0.5514 -0.8315 -1.2797
 4524TIP3    H235208   3.893   3.076   8.545 -2.1042  1.0335 -0.5442
 4525TIP3   OH235209   1.941   2.075   1.504 -0.0600  0.2277  0.0568
 4525TIP3    H135210   1.882   2.023   1.448 -0.2090 -1.7717  1.9026
 4525TIP3    H235211   1.999   2.120   1.443 -0.3540 -1.6413 -1.7210
 4526TIP3   OH235212   3.725   0.325   2.033 -0.1142  0.1422 -0.4801
 4526TIP3    H135213   3.731   0.386   1.959  2.0888 -0.2601 -0.7082
 4526TIP3    H235214   3.814   0.290   2.041 -0.2863  0.1648  2.3574
 4527TIP3   OH235215   5.946   0.025   0.875  0.1640 -0.2036 -0.1335
 4527TIP3    H135216   5.952  -0.047   0.813  1.7770  1.1768 -1.6913
 4527TIP3    H235217   5.854   0.050   0.875  0.1555 -0.1113 -2.1699
 4528TIP3   OH235218   5.350   5.507   7.550 -0.4020  0.2665 -0.1086
 4528TIP3    H135219   5.406   5.555   7.611 -0.4003  1.0821 -0.7415
 4528TIP3    H235220   5.383   5.417   7.553 -0.0490  0.4112  0.6696
 4529TIP3   OH235221   4.737   6.698   6.640  0.0474  0.1311 -0.3353
 4529TIP3    H135222   4.752   6.637   6.568  1.8106 -0.4351  0.4291
 4529TIP3    H235223   4.668   6.756   6.609 -2.1559 -2.5702 -0.8809
 4530TIP3   OH235224   3.020   5.937   0.352 -0.5583 -0.0245  0.1421
 4530TIP3    H135225   3.046   5.934   0.260 -0.3403 -1.5262  0.2250
 4530TIP3    H235226   2.949   6.001   0.355  1.3275  2.2552 -0.5346
 4531TIP3   OH235227   1.274   4.335   1.363 -0.1770 -0.3810 -0.1945
 4531TIP3    H135228   1.325   4.397   1.416  0.8973  0.8232 -2.5192
 4531TIP3    H235229   1.313   4.250   1.382  0.7589  0.1434  0.3040
 4532TIP3   OH235230   0.890   1.110   7.066 -0.0552  0.3728  0.0982
 4532TIP3    H135231   0.809   1.145   7.102 -0.2494  2.4699 -2.0878
 4532TIP3    H235232   0.899   1.154   6.981  2.4365 -1.1664 -0.5372
 4533TIP3   OH235233   0.801   5.652   0.549  0.2314  0.1311 -0.0829
 4533TIP3    H135234   0.726   5.690   0.594  0.9634  0.7954  0.5991
 4533TIP3    H235235   0.815   5.567   0.593  0.3200  0.3294  0.2765
 4534TIP3   OH235236   3.842   5.220   7.740  0.3141 -0.3456  0.3850
 4534TIP3    H135237   3.914   5.224   7.678  0.5296  1.4662  0.6852
 4534TIP3    H235238   3.768   5.188   7.689  1.4545 -3.0781  0.2739
 4535TIP3   OH235239   0.352   5.372   6.928 -0.3115 -0.5353  0.1496
 4535TIP3    H135240   0.293   5.361   6.854 -1.5830 -0.7747  1.1601
 4535TIP3    H235241   0.296   5.399   7.000  0.9902  0.3260  0.8823
 4536TIP3   OH235242   6.549   5.650   1.680 -0.3934 -0.3837  0.3038
 4536TIP3    H135243   6.477   5.690   1.630 -0.4044 -0.3839  0.3194
 4536TIP3    H235244   6.531   5.675   1.771  0.4072  0.8368  0.1537
 4537TIP3   OH235245   4.279   3.463   6.491 -0.0877  0.2036  0.1576
 4537TIP3    H135246   4.334   3.498   6.562 -0.3309  0.8895  0.0150
 4537TIP3    H235247   4.274   3.534   6.427 -0.3370 -0.2084 -0.2875
 4538TIP3   OH235248   0.205   6.303   0.949 -0.3656  0.5339 -0.1629
 4538TIP3    H135249   0.117   6.270   0.968 -0.3196 -0.6343 -1.8308
 4538TIP3    H235250   0.233   6.256   0.871  0.5342  3.0796 -1.5124
 4539TIP3   OH235251   4.480   1.789   7.362 -0.2444 -0.3480 -0.3898
 4539TIP3    H135252   4.409   1.784   7.298  0.4538 -1.6527 -1.1019
 4539TIP3    H235253   4.486   1.700   7.397  0.7294 -0.1377  0.0138
 4540TIP3   OH235254   5.599   0.957   2.489  0.4146  0.3523  0.9662
 4540TIP3    H135255   5.584   1.049   2.467  0.1025  0.1748  0.4050
 4540TIP3    H235256   5.679   0.956   2.540  1.1494  0.7899 -0.1514
 4541TIP3   OH235257   6.140   5.277   7.222 -0.4720  0.5046 -0.0955
 4541TIP3    H135258   6.181   5.259   7.138  0.9190  1.2418  0.3940
 4541TIP3    H235259   6.055   5.234   7.217 -0.0148 -0.2893 -1.4987
 4542TIP3   OH235260   1.059   6.494   7.108 -0.1065  0.2323 -0.5884
 4542TIP3    H135261   1.142   6.517   7.150  1.6078 -3.4824 -1.5908
 4542TIP3    H235262   1.011   6.445   7.175 -1.2878  1.7664 -0.2465
 4543TIP3   OH235263   2.938   2.580   6.688  0.0556  0.3632 -0.1626
 4543TIP3    H135264   3.032   2.563   6.695 -0.3082 -1.2369  1.5805
 4543TIP3    H235265   2.930   2.674   6.708  1.1694  0.2189  1.1010
 4544TIP3   OH235266   4.619   1.696   8.142 -0.3365 -0.0292  0.3401
 4544TIP3    H135267   4.619   1.614   8.192  2.8087 -0.4755 -0.1644
 4544TIP3    H235268   4.641   1.763   8.207  1.0510 -0.2201  0.1034
 4545TIP3   OH235269   4.900   1.372   0.092 -0.4174  0.3148  0.7424
 4545TIP3    H135270   4.971   1.414   0.141 -1.0704  0.7981  1.3052
 4545TIP3    H235271   4.833   1.353   0.158 -0.1923 -1.5591  0.4809
 4546TIP3   OH235272   1.380   2.417   1.310 -0.7514 -0.0160  0.0902
 4546TIP3    H135273   1.445   2.443   1.245 -0.4323 -2.2403 -0.5418
 4546TIP3    H235274   1.340   2.500   1.338 -0.0408  1.1026 -2.0116
 4547TIP3   OH235275   5.110   6.491   0.795  0.8619  0.4587 -0.1138
 4547TIP3    H135276   5.147   6.504   0.707  2.7173 -0.1981  0.5218
 4547TIP3    H235277   5.152   6.558   0.849  0.2652  0.4036  0.4366
 4548TIP3   OH235278   1.513   3.776   2.437  0.3988  0.3880 -0.1913
 4548TIP3    H135279   1.465   3.760   2.356  1.3498  0.9732 -0.9003
 4548TIP3    H235280   1.481   3.710   2.499 -2.2429  1.5309 -0.2024
 4549TIP3   OH235281   6.131   6.600   7.409 -0.3069  0.1819  0.0020
 4549TIP3    H135282   6.171   6.575   7.325  0.0546 -0.6204  0.4017
 4549TIP3    H235283   6.144   6.523   7.465 -2.0560  0.0356  0.2638
 4550TIP3   OH235284   2.910   5.940   1.846  0.6450 -0.2647 -0.3334
 4550TIP3    H135285   2.853   5.951   1.923 -0.7249 -0.8900 -1.2156
 4550TIP3    H235286   2.907   6.025   1.802 -0.3583 -0.5550 -0.8523
 4551TIP3   OH235287   4.463   0.443   7.997 -0.4134 -0.7734  0.4044
 4551TIP3    H135288   4.378   0.458   7.955 -0.3789 -0.9993  0.2479
 4551TIP3    H235289   4.521   0.417   7.924  0.0690  0.4499  0.3362
 4552TIP3   OH235290   6.009   6.721   1.811 -0.0045  0.5365  0.5400
 4552TIP3    H135291   6.089   6.730   1.862  1.1284 -0.5665 -0.9672
 4552TIP3    H235292   5.939   6.730   1.875  1.3028  1.4713  1.9082
 4553TIP3   OH235293   6.373   1.843   1.262  0.1073 -0.3311  0.2864
 4553TIP3    H135294   6.307   1.789   1.306  0.1443 -0.1128  0.6144
 4553TIP3    H235295   6.332   1.929   1.253 -0.3572 -0.6741 -1.1897
 4554TIP3   OH235296   0.501   3.259   1.397 -0.0351  0.5247  0.0186
 4554TIP3    H135297   0.547   3.179   1.421 -1.6968 -0.3088  0.5708
 4554TIP3    H235298   0.531   3.324   1.460  0.6994  0.1266  0.0903
 4555TIP3   OH235299   3.336   2.284   0.089  0.2477 -0.4519  0.1255
 4555TIP3    H135300   3.304   2.194   0.079  0.2629 -0.3350 -1.2733
 4555TIP3    H235301   3.258   2.335   0.108  0.0906 -0.6316 -0.0312
 4556TIP3   OH235302   4.822   5.578   7.545 -0.4822 -0.3674 -0.2939
 4556TIP3    H135303   4.834   5.618   7.631 -1.9771  0.8972 -0.6431
 4556TIP3    H235304   4.905   5.532   7.529 -0.1265 -0.5332  1.7457
 4557TIP3   OH235305   0.951   0.502   0.848  0.1435 -0.0728  0.3728
 4557TIP3    H135306   0.921   0.504   0.939  0.8970 -1.5408  0.6696
 4557TIP3    H235307   0.871   0.491   0.797 -0.3378  1.2306  0.8006
 4558TIP3   OH235308   5.527   3.346   7.274  0.1113  0.2460 -0.4833
 4558TIP3    H135309   5.505   3.427   7.319 -0.1478 -0.5259  0.8257
 4558TIP3    H235310   5.449   3.324   7.223  0.3160  0.9920 -1.1308
 4559TIP3   OH235311   0.981   5.702   8.493  0.5595 -0.1998  0.2958
 4559TIP3    H135312   1.048   5.636   8.475  0.5264 -0.0065 -0.5502
 4559TIP3    H235313   0.913   5.686   8.429 -0.0089 -0.1034  0.8654
 4560TIP3   OH235314   1.562   1.268   8.264 -0.3579  0.0620  0.4404
 4560TIP3    H135315   1.501   1.258   8.337 -2.1216  2.2805 -0.6038
 4560TIP3    H235316   1.542   1.194   8.206 -0.9098 -0.1535  0.8933
 4561TIP3   OH235317   0.696   0.308   0.048  0.0863  0.0025  0.4441
 4561TIP3    H135318   0.703   0.258  -0.033  1.8952  0.4638  0.2689
 4561TIP3    H235319   0.776   0.285   0.097  0.3408  1.7417  0.9063
 4562TIP3   OH235320   3.496   3.541   8.521 -0.2969  0.6604 -0.4172
 4562TIP3    H135321   3.470   3.620   8.568  0.7887  0.3807  0.7305
 4562TIP3    H235322   3.445   3.542   8.440 -0.1569  2.6471 -0.5327
 4563TIP3   OH235323   4.842   6.351   7.028 -0.2140  0.2816  0.0662
 4563TIP3    H135324   4.839   6.429   6.972 -1.4336  1.0564  1.1331
 4563TIP3    H235325   4.872   6.281   6.970 -0.5197  1.2408 -1.3136
 4564TIP3   OH235326   2.189   5.588   0.016  0.2213  0.1016 -0.4059
 4564TIP3    H135327   2.273   5.541   0.014 -0.8145 -1.8592 -0.0324
 4564TIP3    H235328   2.156   5.581  -0.074 -0.3135 -0.6270 -0.1582
 4565TIP3   OH235329   4.366   3.816   0.214  0.5182 -0.1842  0.1202
 4565TIP3    H135330   4.422   3.744   0.185  0.8024 -0.0523  0.3298
 4565TIP3    H235331   4.292   3.815   0.154  0.1020 -1.1688  0.6305
 4566TIP3   OH235332   5.314   3.554   0.864 -0.1102 -0.1386 -0.0097
 4566TIP3    H135333   5.296   3.488   0.930  0.4992  0.6936  1.0116
 4566TIP3    H235334   5.385   3.606   0.901 -0.8988  1.3857 -0.5845
 4567TIP3   OH235335   4.644   4.403   2.301 -0.2233  0.3032  0.0413
 4567TIP3    H135336   4.637   4.333   2.237  0.3483  0.4602 -0.1968
 4567TIP3    H235337   4.566   4.457   2.286 -0.7809 -0.3862  0.3699
 4568TIP3   OH235338   6.810   6.803   6.173  0.6733  0.1456 -0.0674
 4568TIP3    H135339   6.869   6.879   6.170 -0.4933  1.1549  1.0701
 4568TIP3    H235340   6.847   6.747   6.242 -0.4984  1.5693  1.8414
 4569TIP3   OH235341   1.309   5.487   6.608  0.1977  0.5126  0.1175
 4569TIP3    H135342   1.237   5.441   6.651  0.2466 -0.5396 -0.8894
 4569TIP3    H235343   1.286   5.488   6.515  1.4587  0.1314 -0.2327
 4570TIP3   OH235344   5.002   4.928   1.472 -0.1219 -0.2144 -0.0775
 4570TIP3    H135345   5.067   4.912   1.540  0.8061  0.1830 -0.8414
 4570TIP3    H235346   5.001   4.848   1.420 -1.0538 -0.6356  0.5601
 4571TIP3   OH235347   4.569   6.668   8.371  0.0950 -0.2160 -0.2500
 4571TIP3    H135348   4.637   6.735   8.384  1.4213 -1.9142  2.4241
 4571TIP3    H235349   4.616   6.594   8.331 -0.5564 -0.8206  0.0835
 4572TIP3   OH235350   3.986   6.550   7.267 -0.7566  0.4197  0.2926
 4572TIP3    H135351   3.985   6.619   7.334 -1.2061 -0.7974  1.5893
 4572TIP3    H235352   3.954   6.593   7.188  2.5518  2.6913 -0.0185
 4573TIP3   OH235353   5.089   4.555   6.393 -0.3200  0.5363  0.3207
 4573TIP3    H135354   5.030   4.618   6.434 -0.4038  1.6626 -1.4163
 4573TIP3    H235355   5.165   4.606   6.367 -0.6716  0.1185 -1.7180
 4574TIP3   OH235356   2.442   1.603   7.183 -0.2107 -0.7100 -0.3794
 4574TIP3    H135357   2.457   1.642   7.270 -0.1856  0.0315 -0.7069
 4574TIP3    H235358   2.393   1.670   7.135 -3.7771 -2.6064  0.2921
 4575TIP3   OH235359   0.232   4.831   7.879 -0.5461  0.1281 -0.1369
 4575TIP3    H135360   0.272   4.814   7.794  0.8734 -2.2521  0.9086
 4575TIP3    H235361   0.268   4.915   7.906  0.7555 -0.1400 -0.9318
 4576TIP3   OH235362   0.407   2.260   8.416  0.5887  0.8696  0.1109
 4576TIP3    H135363   0.332   2.237   8.361 -0.1635  1.8186  0.7223
 4576TIP3    H235364   0.475   2.286   8.353 -0.6225  3.0208 -0.3930
 4577TIP3   OH235365   4.617   3.576   0.821  0.0831  0.2917  0.4604
 4577TIP3    H135366   4.675   3.651   0.808  0.6487 -0.4401 -1.6006
 4577TIP3    H235367   4.674   3.500   0.813 -1.0554 -0.4427 -1.2883
 4578TIP3   OH235368   5.776   1.653   7.888  0.2746  0.6664  0.2772
 4578TIP3    H135369   5.723   1.576   7.907  1.5401 -0.1302  0.6748
 4578TIP3    H235370   5.770   1.706   7.967 -0.0360  0.6409  0.2705
 4579TIP3   OH235371   3.528   4.572   0.236 -0.4037 -0.1512  0.0404
 4579TIP3    H135372   3.560   4.610   0.154  1.0095 -1.7959 -0.2414
 4579TIP3    H235373   3.432   4.580   0.231 -0.2355  1.9768 -0.6135
 4580TIP3   OH235374   4.421   5.233   2.182 -0.5610  0.2179  0.1200
 4580TIP3    H135375   4.380   5.147   2.197 -0.3942  0.4962  2.5830
 4580TIP3    H235376   4.349   5.289   2.154 -1.4515  0.1027  2.0135
 4581TIP3   OH235377   1.781   3.229   1.374  0.0939 -0.5794 -0.3358
 4581TIP3    H135378   1.776   3.162   1.441 -2.4964 -0.6334 -0.4986
 4581TIP3    H235379   1.760   3.311   1.419  2.4195  0.0771 -0.3063
 4582TIP3   OH235380   4.460   2.106   8.235  0.2631 -0.5784  0.2065
 4582TIP3    H135381   4.438   2.017   8.211 -1.5343 -0.7151  2.0624
 4582TIP3    H235382   4.384   2.158   8.208  0.4596  0.0538  0.8246
 4583TIP3   OH235383   0.483   1.869   0.993  0.0040  0.6953  0.2815
 4583TIP3    H135384   0.411   1.876   1.056 -1.0496  0.4484 -0.8424
 4583TIP3    H235385   0.439   1.851   0.910  1.4594 -0.6714 -0.2226
 4584TIP3   OH235386   1.879   0.781   7.477  0.6297 -0.1675 -0.2302
 4584TIP3    H135387   1.952   0.746   7.425  0.4354  0.7716 -1.1633
 4584TIP3    H235388   1.864   0.868   7.442  0.7628  0.6837  1.7190
 4585TIP3   OH235389   5.281   0.708   0.909  0.0018  0.3450  0.3795
 4585TIP3    H135390   5.230   0.789   0.903 -0.0234  0.2317 -1.2140
 4585TIP3    H235391   5.334   0.720   0.988  1.4596  2.7950 -0.8579
 4586TIP3   OH235392   2.555   0.666   7.616 -0.5275  0.0361  0.5568
 4586TIP3    H135393   2.612   0.742   7.610  1.8200 -1.7255 -0.5597
 4586TIP3    H235394   2.600   0.606   7.676 -1.0352 -1.5119 -0.5445
 4587TIP3   OH235395   5.779   3.148   0.932 -0.5196  0.2037 -0.1804
 4587TIP3    H135396   5.736   3.151   1.017  0.2795  1.9700  0.1958
 4587TIP3    H235397   5.714   3.107   0.874 -1.4609 -0.0993  1.0366
 4588TIP3   OH235398   0.964   5.312   0.312  0.7260  0.2951  0.5315
 4588TIP3    H135399   0.977   5.296   0.218  1.4463  0.0211  0.6656
 4588TIP3    H235400   0.981   5.228   0.353 -0.4133  0.2082  0.8527
 4589TIP3   OH235401   2.741   2.124   7.547 -0.6232 -0.2532  0.0334
 4589TIP3    H135402   2.711   2.154   7.633  0.3599  1.3039 -0.1409
 4589TIP3    H235403   2.767   2.204   7.501  0.2756 -1.2006 -1.1706
 4590TIP3   OH235404   6.032   0.771   0.487  0.5347 -0.3480  0.1557
 4590TIP3    H135405   6.068   0.748   0.573  0.4914  0.3031  0.3467
 4590TIP3    H235406   6.104   0.753   0.426  1.0193  0.4709  0.4826
 4591TIP3   OH235407   1.935   3.292   7.479 -0.0380 -0.2543 -0.3612
 4591TIP3    H135408   1.912   3.255   7.393  1.0205 -0.5882 -0.5218
 4591TIP3    H235409   1.920   3.386   7.469 -0.5065 -0.3641 -0.7189
 4592TIP3   OH235410   0.655   5.840   6.964  0.3436  0.0995 -0.1733
 4592TIP3    H135411   0.583   5.898   6.940 -0.0401 -0.1980  0.2233
 4592TIP3    H235412   0.612   5.757   6.986  0.9392 -0.5645 -1.4200
 4593TIP3   OH235413   2.272   6.549   2.462  0.9288  0.0541  0.4556
 4593TIP3    H135414   2.302   6.458   2.472  1.8614  0.4629  1.5407
 4593TIP3    H235415   2.244   6.575   2.550 -0.1286  0.5675 -0.0123
 4594TIP3   OH235416   2.292   5.551   0.316  0.1064 -0.0521  0.1149
 4594TIP3    H135417   2.312   5.644   0.327 -1.1821  0.3457 -0.6414
 4594TIP3    H235418   2.292   5.515   0.404  1.3391  0.5006  0.3556
 4595TIP3   OH235419   3.723   5.879   1.727  0.2278 -0.4976  0.1534
 4595TIP3    H135420   3.807   5.895   1.771  0.3325 -0.5944 -0.0047
 4595TIP3    H235421   3.658   5.878   1.797  0.3627 -0.4379  0.2798
 4596TIP3   OH235422   3.780   1.680   1.306 -0.1879  0.4935 -0.7344
 4596TIP3    H135423   3.870   1.661   1.333 -0.2650 -1.3907 -1.6851
 4596TIP3    H235424   3.726   1.625   1.361 -0.8851  2.1812  0.3696
 4597TIP3   OH235425   4.944   6.388   0.312 -0.8257 -0.3173 -0.2140
 4597TIP3    H135426   4.988   6.403   0.229 -0.4660 -0.1728  0.0006
 4597TIP3    H235427   4.995   6.319   0.354  1.1027  1.9521  1.3995
 4598TIP3   OH235428   3.969   5.921   0.519 -0.6347 -0.1123 -0.2816
 4598TIP3    H135429   3.883   5.960   0.502 -1.4651 -1.9163 -0.4478
 4598TIP3    H235430   3.953   5.860   0.592  0.6632  0.0149  0.1301
 4599TIP3   OH235431   0.001   1.149   0.833  0.2805  0.1388 -0.0743
 4599TIP3    H135432   0.030   1.189   0.915 -0.2286  0.4342 -0.0391
 4599TIP3    H235433  -0.081   1.192   0.812 -0.7981 -1.5665  0.4641
 4600TIP3   OH235434   2.329   3.713   8.044  0.0625 -0.5140 -0.2808
 4600TIP3    H135435   2.301   3.629   8.006  1.3118 -0.9675 -0.2335
 4600TIP3    H235436   2.252   3.744   8.092 -1.6792  0.1941 -3.2667
 4601TIP3   OH235437   4.907   4.139   1.075 -0.8977  0.2933  0.2620
 4601TIP3    H135438   4.930   4.154   1.167  2.9938  0.2773 -0.5353
 4601TIP3    H235439   4.931   4.220   1.030 -0.4909 -0.5220 -1.0540
 4602TIP3   OH235440   4.168   3.326   6.810 -0.2436  0.2825 -0.6178
 4602TIP3    H135441   4.249   3.367   6.780  0.2268 -0.7947 -0.8870
 4602TIP3    H235442   4.196   3.241   6.845 -1.1269  0.3630  0.3320
 4603TIP3   OH235443   3.757   4.298   2.357 -0.6742  0.1483 -0.0302
 4603TIP3    H135444   3.729   4.208   2.375 -0.1222  0.0894  0.5628
 4603TIP3    H235445   3.836   4.309   2.408 -0.7148  0.9682 -0.1337
 4604TIP3   OH235446   3.559   4.721   2.517 -0.3688 -0.5878 -0.0951
 4604TIP3    H135447   3.467   4.746   2.513  0.5465  4.6811  3.1356
 4604TIP3    H235448   3.563   4.657   2.588 -1.3902 -0.0031  0.5030
 4605TIP3   OH235449   2.321   5.877   6.808 -0.3680  0.6343  0.2232
 4605TIP3    H135450   2.249   5.937   6.827  0.3353  1.8026 -0.6881
 4605TIP3    H235451   2.390   5.933   6.773  1.0669 -0.4363  1.2556
 4606TIP3   OH235452   3.921   3.594   0.804  0.1547  0.5102 -0.4677
 4606TIP3    H135453   3.867   3.625   0.876 -0.3951  1.3775 -1.2398
 4606TIP3    H235454   3.997   3.554   0.847 -0.7892 -0.1801  0.6119
 4607TIP3   OH235455   2.523   5.460   6.690 -0.0108 -0.2827  0.2952
 4607TIP3    H135456   2.604   5.457   6.740 -1.1992 -0.9959  2.3221
 4607TIP3    H235457   2.547   5.431   6.602  2.1146  0.7179  0.4977
 4608TIP3   OH235458   2.230   4.815   8.223  0.1702  0.4519  0.1340
 4608TIP3    H135459   2.264   4.887   8.276  1.0917 -0.7591  1.2546
 4608TIP3    H235460   2.142   4.799   8.257 -0.2501  1.3721 -0.4838
 4609TIP3   OH235461   3.224   4.735   6.947 -0.0820  0.3020 -0.5282
 4609TIP3    H135462   3.241   4.642   6.930  1.9874  0.2271  1.3758
 4609TIP3    H235463   3.286   4.757   7.017 -2.4971  2.4035  1.1080
 4610TIP3   OH235464   3.401   0.802   0.499 -0.4424  0.4431 -0.2945
 4610TIP3    H135465   3.388   0.880   0.554 -3.0306  0.5634 -0.9451
 4610TIP3    H235466   3.314   0.766   0.487  0.4499 -1.4421 -1.6863
 4611TIP3   OH235467   6.211   4.998   8.563  0.3230  0.0414 -0.2109
 4611TIP3    H135468   6.305   5.015   8.552  0.5600  0.7665  2.3981
 4611TIP3    H235469   6.169   5.073   8.522  0.8512 -0.1867 -1.2224
 4612TIP3   OH235470   6.366   4.181   0.138  0.2374  0.4216 -0.4826
 4612TIP3    H135471   6.450   4.165   0.181  0.1111  1.6031  0.2600
 4612TIP3    H235472   6.364   4.120   0.065  0.2439 -2.0666  1.4519
 4613TIP3   OH235473   3.950   5.319   2.711  0.2456  0.6860 -0.3023
 4613TIP3    H135474   3.961   5.224   2.716 -2.7961  0.2783  2.4377
 4613TIP3    H235475   3.882   5.332   2.645 -1.5942  0.5440  1.4622
 4614TIP3   OH235476   4.122   4.914   7.538  0.3005  0.5143  0.5726
 4614TIP3    H135477   4.216   4.910   7.522  0.4564  1.1891  1.2725
 4614TIP3    H235478   4.095   4.823   7.550  0.8475  0.3178  0.3309
 4615TIP3   OH235479   0.214   5.780   0.734 -0.1581 -0.0093 -0.2726
 4615TIP3    H135480   0.243   5.763   0.644 -0.3061 -1.7904 -0.0219
 4615TIP3    H235481   0.250   5.707   0.784  1.8271  2.0933  1.5820
 4616TIP3   OH235482   4.853   1.961   2.098 -0.0471  0.5425  0.4563
 4616TIP3    H135483   4.839   1.961   2.193  1.0234 -0.0424  0.6264
 4616TIP3    H235484   4.891   2.046   2.079  2.0876 -0.2433  0.9499
 4617TIP3   OH235485   0.827   3.515   1.358 -0.0778  0.0679  0.0602
 4617TIP3    H135486   0.756   3.559   1.312  0.0679 -1.0002 -1.2532
 4617TIP3    H235487   0.787   3.483   1.439 -0.6225  1.0332  0.1857
 4618TIP3   OH235488   1.865   0.327   1.300  0.6053 -0.3210 -0.2925
 4618TIP3    H135489   1.844   0.421   1.297 -0.8229 -0.5902 -3.7846
 4618TIP3    H235490   1.927   0.314   1.229  1.4010 -1.9601  0.6417
 4619TIP3   OH235491   3.062   5.197   8.300 -0.1923  0.2731 -0.1434
 4619TIP3    H135492   3.004   5.269   8.325  1.7892  1.7637  0.4034
 4619TIP3    H235493   3.039   5.127   8.361 -0.5810  1.2675  0.9096
 4620TIP3   OH235494   6.438   2.579   1.678  0.3469  0.2313 -0.0804
 4620TIP3    H135495   6.353   2.534   1.684 -0.5557  1.6947 -1.1696
 4620TIP3    H235496   6.483   2.537   1.605  1.1552 -1.4176  1.3016
 4621TIP3   OH235497   4.714   3.908   0.144 -0.2308  0.3234 -0.0389
 4621TIP3    H135498   4.680   3.937   0.229  0.9049  2.0609 -0.1163
 4621TIP3    H235499   4.665   3.828   0.125 -2.8534  1.6213  0.7069
 4622TIP3   OH235500   6.135   2.039   0.378 -0.3341  0.4341  0.1249
 4622TIP3    H135501   6.053   2.049   0.426  0.0820  1.0873  0.7156
 4622TIP3    H235502   6.173   2.127   0.375  0.4676  0.0983  0.0876
 4623TIP3   OH235503   3.218   1.693   0.896 -0.3883  0.4356 -0.2817
 4623TIP3    H135504   3.220   1.608   0.853  0.7753  1.0471 -1.5036
 4623TIP3    H235505   3.302   1.699   0.942 -0.8197  0.5924  0.5181
 4624TIP3   OH235506   2.317   2.633   8.564  0.1006 -0.0737 -0.1522
 4624TIP3    H135507   2.241   2.634   8.621 -0.8346 -1.8726 -1.2775
 4624TIP3    H235508   2.385   2.679   8.613 -1.0451 -0.3881  1.8123
 4625TIP3   OH235509   3.816   4.885   7.013 -0.2215 -0.5388  0.2343
 4625TIP3    H135510   3.904   4.867   7.047  0.2739 -0.2057 -0.8194
 4625TIP3    H235511   3.827   4.964   6.960 -1.3518  0.0458  0.8359
 4626TIP3   OH235512   4.912   3.899   6.942 -0.0430  0.0738  0.3608
 4626TIP3    H135513   4.949   3.841   6.876 -1.9890  0.1002 -0.8301
 4626TIP3    H235514   4.817   3.892   6.930 -0.3879  2.0145  1.4874
 4627TIP3   OH235515   3.059   3.550   6.773  0.0796 -0.1347  0.5542
 4627TIP3    H135516   3.106   3.552   6.856  1.0375 -2.2578  0.1285
 4627TIP3    H235517   3.022   3.461   6.768 -1.7480  0.6256 -0.3464
 4628TIP3   OH235518   5.389   4.420   8.410  0.2500 -0.3620 -0.4606
 4628TIP3    H135519   5.444   4.363   8.357 -0.0489 -0.6518 -0.4598
 4628TIP3    H235520   5.355   4.364   8.479  0.3052 -0.0821 -0.2040
 4629TIP3   OH235521   3.456   1.687   2.549  0.5559 -0.0743 -0.2471
 4629TIP3    H135522   3.518   1.756   2.526  0.1422  1.3297  2.3944
 4629TIP3    H235523   3.371   1.731   2.552 -0.2093 -1.3915 -1.3204
 4630TIP3   OH235524   4.901   4.594   2.358 -0.0377 -0.1109  0.7065
 4630TIP3    H135525   4.974   4.646   2.324 -0.3110  0.5502  1.1223
 4630TIP3    H235526   4.829   4.611   2.297 -0.5130  1.0336  1.5441
 4631TIP3   OH235527   3.251   0.613   6.500  0.3521 -0.0648  0.0678
 4631TIP3    H135528   3.334   0.573   6.526  1.0314  0.9287 -0.5429
 4631TIP3    H235529   3.197   0.608   6.579  1.1568 -0.2880  0.6144
 4632TIP3   OH235530   0.046   6.655   8.506 -0.0763 -0.1072  0.0478
 4632TIP3    H135531   0.027   6.723   8.571  0.7491  0.4547 -0.2861
 4632TIP3    H235532   0.022   6.695   8.422 -0.0580 -0.4049 -0.0985
 4633TIP3   OH235533   6.787   0.592   7.101  0.3975  0.0981 -0.1277
 4633TIP3    H135534   6.760   0.681   7.078  1.3546  1.1154  2.3414
 4633TIP3    H235535   6.713   0.556   7.150  0.0895 -0.4540 -0.9570
 4634TIP3   OH235536   3.244   3.646   1.649 -0.6576 -0.4100 -0.1429
 4634TIP3    H135537   3.246   3.654   1.554  3.0176 -0.5968 -0.2394
 4634TIP3    H235538   3.204   3.560   1.665 -0.9115 -0.5662 -1.5298
 4635TIP3   OH235539   6.862   4.040   1.034 -0.1472 -0.5740 -0.6368
 4635TIP3    H135540   6.821   3.977   1.093  0.6080 -0.7761 -0.3028
 4635TIP3    H235541   6.882   3.990   0.955  3.2658 -1.6902  0.7333
 4636TIP3   OH235542   4.303   0.838   2.581  0.3839  0.1866  0.2504
 4636TIP3    H135543   4.257   0.917   2.610 -0.3578 -0.5770  1.2340
 4636TIP3    H235544   4.234   0.771   2.574  0.8868 -0.2159 -1.2438
 4637TIP3   OH235545   2.443   2.827   7.075 -0.6618  0.3272  0.1056
 4637TIP3    H135546   2.504   2.900   7.066  0.2347 -0.4076  0.0486
 4637TIP3    H235547   2.469   2.766   7.006 -2.4795  0.6812 -0.9399
 4638TIP3   OH235548   2.082   5.330   1.779 -0.2483 -0.8392  0.4879
 4638TIP3    H135549   2.064   5.349   1.871  0.8684 -3.6530  1.3964
 4638TIP3    H235550   2.172   5.297   1.778 -0.1373 -0.6192 -1.6593
 4639TIP3   OH235551   2.338   5.337   8.013  0.3507  0.4168 -0.2094
 4639TIP3    H135552   2.273   5.304   8.075  1.5189 -1.2014  0.2298
 4639TIP3    H235553   2.287   5.370   7.939 -1.0134  0.8957  0.9047
 4640TIP3   OH235554   4.150   2.806   7.378  0.3837 -0.3070  0.0007
 4640TIP3    H135555   4.176   2.757   7.300 -0.2348 -0.4486 -0.1198
 4640TIP3    H235556   4.191   2.892   7.366  2.1698 -1.0244  0.6140
 4641TIP3   OH235557   5.859   5.741   6.859  0.7216  0.0158 -0.3408
 4641TIP3    H135558   5.953   5.726   6.855  0.9671  1.5869 -1.2308
 4641TIP3    H235559   5.823   5.684   6.791  1.3930  1.6266 -2.1356
 4642TIP3   OH235560   1.188   5.185   0.664 -0.4300  0.4194  0.0845
 4642TIP3    H135561   1.239   5.153   0.739  0.5452 -1.3150 -1.2384
 4642TIP3    H235562   1.229   5.269   0.642  0.7777 -0.1339  0.1137
 4643TIP3   OH235563   0.346   0.386   2.154  0.3979  0.1527 -0.3121
 4643TIP3    H135564   0.424   0.412   2.203  2.0511 -0.2079 -2.5920
 4643TIP3    H235565   0.276   0.439   2.192  1.2777 -0.8766  3.1045
 4644TIP3   OH235566   0.276   3.411   2.294  0.1887  0.1207  0.3050
 4644TIP3    H135567   0.370   3.403   2.280  0.0851 -0.2664 -0.2198
 4644TIP3    H235568   0.239   3.411   2.206 -0.1157  3.0399  0.3339
 4645TIP3   OH235569   3.975   3.404   8.349 -0.2977  0.0436 -0.2358
 4645TIP3    H135570   3.973   3.498   8.332  0.5869  0.1914  0.4162
 4645TIP3    H235571   3.971   3.397   8.444 -2.3317 -0.6636 -0.3404
 4646TIP3   OH235572   3.552   0.296   7.625  0.7119  0.0917  0.3916
 4646TIP3    H135573   3.567   0.386   7.652  2.4978  0.1092 -0.5311
 4646TIP3    H235574   3.607   0.284   7.548 -1.1875 -1.1479 -0.8413
 4647TIP3   OH235575   1.556   0.248   7.447  0.2682  0.5293  0.1696
 4647TIP3    H135576   1.571   0.332   7.491 -0.9746  0.1045  1.4793
 4647TIP3    H235577   1.462   0.233   7.455  0.5699 -1.3843  0.7529
 4648TIP3   OH235578   4.297   0.207   0.141 -0.0548 -0.0658 -0.8842
 4648TIP3    H135579   4.233   0.166   0.082 -2.7335  1.1114  1.0129
 4648TIP3    H235580   4.362   0.138   0.157 -2.3112 -2.3506 -0.8019
 4649TIP3   OH235581   6.796   0.329   2.095 -0.3916  0.1097 -0.2918
 4649TIP3    H135582   6.875   0.275   2.084 -0.6506 -0.2589 -0.3812
 4649TIP3    H235583   6.786   0.374   2.011  0.1567  0.7482 -0.0136
 4650TIP3   OH235584   4.471   3.864   7.050 -0.4125  0.7287 -0.2524
 4650TIP3    H135585   4.401   3.907   7.098 -1.6629 -0.3495 -1.0164
 4650TIP3    H235586   4.501   3.794   7.108 -0.7881  0.4602 -0.3767
 4651TIP3   OH235587   6.349   5.536   2.428 -0.0971  0.3546  0.4382
 4651TIP3    H135588   6.417   5.566   2.368  1.6755  0.5222  2.4004
 4651TIP3    H235589   6.377   5.448   2.454 -1.5853 -0.2857 -0.0074
 4652TIP3   OH235590   6.749   0.226   1.766 -0.3952 -0.4826 -0.0942
 4652TIP3    H135591   6.748   0.160   1.836  0.3794 -0.0627  0.3249
 4652TIP3    H235592   6.659   0.226   1.733 -1.3026  0.5808  2.1273
 4653TIP3   OH235593   1.303   4.189   6.955  0.3531 -0.0835  0.2676
 4653TIP3    H135594   1.343   4.139   7.027  0.8161 -0.7435 -0.4361
 4653TIP3    H235595   1.220   4.219   6.991 -0.3293 -2.0603  0.4496
 4654TIP3   OH235596   3.989   3.855   7.221 -0.1662  0.0113 -1.1246
 4654TIP3    H135597   3.921   3.790   7.238  0.5208 -0.2916  0.6748
 4654TIP3    H235598   3.972   3.925   7.285  2.0962 -0.8088  0.5036
 4655TIP3   OH235599   6.638   3.856   0.086  0.8074 -0.3353 -0.3881
 4655TIP3    H135600   6.693   3.873   0.011  0.6465 -1.3810 -0.7641
 4655TIP3    H235601   6.553   3.832   0.049  0.6771 -0.6931  0.1225
 4656TIP3   OH235602   5.166   0.060   1.390 -0.4527  0.4882  0.6477
 4656TIP3    H135603   5.174   0.009   1.309 -0.2975  2.0562 -0.3825
 4656TIP3    H235604   5.087   0.026   1.432 -1.2128  0.4257 -0.7705
 4657TIP3   OH235605   1.530   3.171   2.560  0.0519 -0.0284  0.2374
 4657TIP3    H135606   1.615   3.128   2.566 -0.3814 -1.4382 -2.3758
 4657TIP3    H235607   1.471   3.113   2.608  0.3210  0.3248  1.0172
 4658TIP3   OH235608   5.128   6.127   8.055 -0.0910 -0.3658  0.2236
 4658TIP3    H135609   5.175   6.200   8.015 -0.8494 -0.1055 -0.2017
 4658TIP3    H235610   5.197   6.069   8.087  0.5304  0.8211  1.1196
 4659TIP3   OH235611   5.520   2.925   0.545 -0.1842  0.1146 -0.0053
 4659TIP3    H135612   5.456   2.859   0.520  0.4079  0.0175 -1.3213
 4659TIP3    H235613   5.510   2.994   0.480  3.3160 -1.3996 -2.4220
 4660TIP3   OH235614   3.207   3.088   8.400 -0.4491  0.4702 -0.2674
 4660TIP3    H135615   3.159   3.014   8.364  0.2471  0.1460 -0.5373
 4660TIP3    H235616   3.210   3.152   8.328  2.4883 -0.8785 -1.4982
 4661TIP3   OH235617   3.139   6.179   7.940  0.9328  0.3451  0.1379
 4661TIP3    H135618   3.071   6.239   7.973 -0.6399 -0.6564 -1.1530
 4661TIP3    H235619   3.120   6.096   7.983  1.8368  0.2271  0.3366
 4662TIP3   OH235620   0.222   2.229   1.004  0.0158  0.7867 -0.1216
 4662TIP3    H135621   0.288   2.281   1.051 -0.3531 -0.2028  1.6100
 4662TIP3    H235622   0.138   2.268   1.030 -0.1837  0.3804 -0.1453
 4663TIP3   OH235623   5.607   0.591   1.394 -0.2663  0.5752  0.1747
 4663TIP3    H135624   5.692   0.586   1.438 -0.0636  1.0696 -0.1626
 4663TIP3    H235625   5.563   0.664   1.437 -0.4894  0.3798  0.2829
 4664TIP3   OH235626   6.338   6.353   6.329 -0.1079  0.0652 -0.0476
 4664TIP3    H135627   6.343   6.424   6.266 -1.2928  0.2186  0.0120
 4664TIP3    H235628   6.340   6.396   6.414 -1.9714  0.1785 -0.0024
 4665TIP3   OH235629   6.625   1.021   0.330  0.4366 -0.1317  0.6684
 4665TIP3    H135630   6.609   1.114   0.319 -0.9706 -0.4312 -0.1858
 4665TIP3    H235631   6.540   0.986   0.359  0.7312 -1.2329  0.2571
 4666TIP3   OH235632   1.437   4.661   8.234  0.6201 -0.0590  0.3717
 4666TIP3    H135633   1.469   4.723   8.169 -1.3231  0.0051 -0.5803
 4666TIP3    H235634   1.373   4.710   8.285 -0.5314 -1.1008 -0.0345
 4667TIP3   OH235635   2.569   5.104   0.868  0.0660  0.0079  0.0464
 4667TIP3    H135636   2.628   5.031   0.848  1.1505  0.8655 -0.0339
 4667TIP3    H235637   2.482   5.066   0.870  0.5167 -1.1180 -0.9089
 4668TIP3   OH235638   5.607   6.155   2.015  0.2279  0.1450  0.0191
 4668TIP3    H135639   5.554   6.231   1.990  0.6106 -0.3123 -2.4227
 4668TIP3    H235640   5.543   6.091   2.047 -1.2216 -1.1538 -4.6658
 4669TIP3   OH235641   5.593   6.356   1.067  0.0168  0.5811  0.3345
 4669TIP3    H135642   5.525   6.417   1.096 -1.2645  0.0014 -1.3187
 4669TIP3    H235643   5.631   6.396   0.989 -0.3331 -0.3660 -0.3429
 4670TIP3   OH235644   3.188   5.405   1.851  0.2571 -0.5202  0.1032
 4670TIP3    H135645   3.231   5.325   1.884  1.2281 -1.0635 -2.2760
 4670TIP3    H235646   3.107   5.411   1.902  1.3180 -1.6347  2.0429
 4671TIP3   OH235647   4.549   3.639   0.120  0.7321  0.5018 -0.4853
 4671TIP3    H135648   4.560   3.581   0.044 -0.1354  0.0125 -0.2543
 4671TIP3    H235649   4.573   3.585   0.195 -1.3537 -0.0430 -0.1400
 4672TIP3   OH235650   3.003   6.118   7.134 -0.3973 -0.2681 -0.3814
 4672TIP3    H135651   2.977   6.210   7.141 -1.5291 -0.6687  1.3341
 4672TIP3    H235652   2.933   6.077   7.083 -1.0648 -0.5539  0.7148
 4673TIP3   OH235653   0.592   4.288   1.034 -0.5592 -0.7252 -0.0112
 4673TIP3    H135654   0.574   4.233   0.958 -2.4329 -0.2471  0.0354
 4673TIP3    H235655   0.523   4.267   1.096  0.0401  0.0161  0.9343
 4674TIP3   OH235656   1.308   2.950   1.455  0.2194  0.0570  0.2650
 4674TIP3    H135657   1.348   3.015   1.513 -0.5556  1.3185 -0.5607
 4674TIP3    H235658   1.214   2.967   1.462 -0.0836 -1.6753  0.8158
 4675TIP3   OH235659   5.649   6.196   1.292 -0.0454  0.1842 -0.4667
 4675TIP3    H135660   5.622   6.245   1.369 -3.5147 -0.8800 -0.8435
 4675TIP3    H235661   5.630   6.254   1.218  1.5006  0.4782 -0.6739
 4676TIP3   OH235662   3.632   4.754   6.208 -0.0375 -0.2455 -0.1118
 4676TIP3    H135663   3.553   4.785   6.165 -0.0004  1.4287  0.9429
 4676TIP3    H235664   3.602   4.686   6.268 -0.6771  0.2957  0.1925
 4677TIP3   OH235665   5.545   1.733   0.645 -0.0804 -0.0042 -0.6490
 4677TIP3    H135666   5.613   1.701   0.586  0.0568  0.1406 -0.5690
 4677TIP3    H235667   5.591   1.756   0.726 -0.6928 -3.9506  1.0945
 4678TIP3   OH235668   5.797   4.228   1.238 -0.2972  0.2227  0.2304
 4678TIP3    H135669   5.855   4.257   1.168  0.5123 -0.0236  0.7922
 4678TIP3    H235670   5.835   4.145   1.267 -2.3379 -1.2936 -1.1032
 4679TIP3   OH235671   6.187   6.233   0.249 -0.3583 -0.2026  0.1161
 4679TIP3    H135672   6.181   6.179   0.170  0.3475 -1.2119  0.7222
 4679TIP3    H235673   6.198   6.170   0.320  0.0556  0.7304  0.9014
 4680TIP3   OH235674   6.436   1.274   1.475 -0.1010 -0.6020 -0.2674
 4680TIP3    H135675   6.437   1.361   1.434 -0.8521 -0.8870 -0.9076
 4680TIP3    H235676   6.488   1.219   1.416 -1.7919 -1.1854 -1.2732
 4681TIP3   OH235677   0.451   5.444   1.441 -0.0136 -0.3126 -0.4469
 4681TIP3    H135678   0.357   5.434   1.459  0.5734 -1.3786  2.8594
 4681TIP3    H235679   0.477   5.360   1.402 -0.1878 -0.6512  0.1458
 4682TIP3   OH235680   3.166   5.604   7.202  0.2859  0.2498 -0.0751
 4682TIP3    H135681   3.260   5.585   7.204  0.1093 -0.7267 -0.2314
 4682TIP3    H235682   3.150   5.639   7.115  0.4342 -0.0442 -0.2245
 4683TIP3   OH235683   3.694   5.918   6.855  1.0597 -0.3103  0.3512
 4683TIP3    H135684   3.599   5.934   6.857  1.3402  1.5276  0.8290
 4683TIP3    H235685   3.714   5.912   6.761  0.6224  0.5026  0.1886
 4684TIP3   OH235686   1.622   3.284   8.420 -0.2003  0.1363 -0.2430
 4684TIP3    H135687   1.575   3.366   8.436  0.4634  0.7120 -1.1898
 4684TIP3    H235688   1.710   3.311   8.395  0.8802 -0.9271  2.0512
 4685TIP3   OH235689   2.321   1.636   0.544  0.0605 -0.6041 -0.3292
 4685TIP3    H135690   2.378   1.637   0.467  1.6740 -0.0016  0.8221
 4685TIP3    H235691   2.318   1.727   0.573 -0.1771 -0.8897  0.5813
 4686TIP3   OH235692   5.567   4.234   7.118 -0.2029 -0.2512  0.1897
 4686TIP3    H135693   5.631   4.227   7.188 -0.2968  0.3150  0.3375
 4686TIP3    H235694   5.508   4.160   7.132  0.9529 -1.3321 -0.5118
 4687TIP3   OH235695   4.431   4.026   1.182  0.5559 -0.3013  0.4814
 4687TIP3    H135696   4.356   4.071   1.142  1.5696  0.8954 -0.1271
 4687TIP3    H235697   4.392   3.952   1.229 -0.8195 -0.9744 -1.5798
 4688TIP3   OH235698   3.655   1.293   8.484  0.2851 -0.1409 -0.6779
 4688TIP3    H135699   3.716   1.351   8.529 -1.5080  0.9770  0.4648
 4688TIP3    H235700   3.640   1.221   8.545 -0.5082  0.2845 -0.3380
 4689TIP3   OH235701   3.200   5.553   6.892 -0.4785 -0.1990 -0.1605
 4689TIP3    H135702   3.199   5.511   6.806  1.3036 -0.7947  0.0654
 4689TIP3    H235703   3.153   5.635   6.880  0.4344  0.1116 -1.9383
 4690TIP3   OH235704   4.595   5.091   8.027 -0.1664  0.3533  0.0847
 4690TIP3    H135705   4.673   5.129   7.984 -0.9531  2.7526  0.6355
 4690TIP3    H235706   4.623   5.003   8.052  1.9670  0.6853 -0.8415
 4691TIP3   OH235707   5.118   3.502   7.433  0.2268 -0.1488  0.5293
 4691TIP3    H135708   5.055   3.556   7.386 -1.3118 -2.1571  0.1505
 4691TIP3    H235709   5.071   3.473   7.511  1.9739  1.2739  2.2184
 4692TIP3   OH235710   0.486   0.983   1.690 -0.4507 -0.0583 -0.0077
 4692TIP3    H135711   0.488   0.891   1.664 -1.2393  0.1051 -0.6862
 4692TIP3    H235712   0.571   1.017   1.662 -0.4979 -0.3726 -0.5524
 4693TIP3   OH235713   0.159   6.148   0.174  0.2836 -0.2512 -0.4062
 4693TIP3    H135714   0.187   6.093   0.247  0.3279  0.9198  0.4725
 4693TIP3    H235715   0.233   6.146   0.113  0.6314 -0.4696  0.0170
 4694TIP3   OH235716   1.402   4.026   7.134  0.1443  0.0109 -0.1758
 4694TIP3    H135717   1.471   3.979   7.086 -1.9750 -2.3637 -1.0981
 4694TIP3    H235718   1.427   4.017   7.226  0.8278 -1.2438 -0.4583
 4695TIP3   OH235719   0.593   6.659   0.854  0.9352 -0.1076  0.6444
 4695TIP3    H135720   0.658   6.703   0.799  0.2506 -0.8910 -0.8504
 4695TIP3    H235721   0.516   6.716   0.851  0.7768 -0.3273  0.4853
 4696TIP3   OH235722   5.555   6.225   0.017 -0.5713 -0.1875 -0.0293
 4696TIP3    H135723   5.621   6.259  -0.044 -1.8858 -0.7091 -1.8094
 4696TIP3    H235724   5.604   6.210   0.099  1.1828  0.7999 -0.8304
 4697TIP3   OH235725   6.853   6.332   7.866  0.1571 -0.2481 -0.1125
 4697TIP3    H135726   6.844   6.243   7.902  0.8180 -0.3087 -0.0862
 4697TIP3    H235727   6.764   6.368   7.869 -0.0854 -0.8457  0.0418
 4698TIP3   OH235728   1.998   3.572   0.499  0.3454 -0.9170 -0.2665
 4698TIP3    H135729   1.906   3.549   0.517 -0.2879 -1.0704 -3.2654
 4698TIP3    H235730   2.006   3.662   0.530 -0.1738 -1.5701  1.9217
 4699TIP3   OH235731   4.169   4.152   8.206 -0.3700 -0.1892 -0.1785
 4699TIP3    H135732   4.185   4.233   8.158 -3.4073  0.4333 -0.2990
 4699TIP3    H235733   4.167   4.178   8.298 -0.5003 -0.2903 -0.1528
 4700TIP3   OH235734   3.131   3.336   8.529 -0.0228  0.2157 -0.3619
 4700TIP3    H135735   3.126   3.244   8.503 -0.4912  0.0058  0.4313
 4700TIP3    H235736   3.052   3.351   8.580  0.2297  0.9628 -0.1766
 4701TIP3   OH235737   4.247   6.372   0.231 -0.1125 -0.1537  0.4661
 4701TIP3    H135738   4.282   6.408   0.313  2.4641  0.3423 -0.7637
 4701TIP3    H235739   4.295   6.291   0.217 -1.4772 -0.9231  0.0850
 4702TIP3   OH235740   6.946   0.507   0.607  0.7506 -0.5671 -0.1515
 4702TIP3    H135741   7.042   0.507   0.601  0.7524  0.8152 -0.4433
 4702TIP3    H235742   6.917   0.465   0.526  1.1021  0.0203 -0.5913
 4703TIP3   OH235743   2.280   1.494   2.414 -0.0806  0.1899 -0.3955
 4703TIP3    H135744   2.260   1.407   2.448 -0.2579  0.7983  1.1731
 4703TIP3    H235745   2.198   1.524   2.375 -0.3001  0.0359 -0.0549
 4704TIP3   OH235746   6.762   6.193   0.255 -0.0739 -0.3115 -0.0755
 4704TIP3    H135747   6.739   6.220   0.166  2.6961 -0.6020 -0.9518
 4704TIP3    H235748   6.841   6.243   0.276  0.7798 -2.1045  1.2239
 4705TIP3   OH235749   2.488   0.405   7.487  0.1905  0.5489 -0.1344
 4705TIP3    H135750   2.400   0.386   7.521  0.5022 -2.1553 -0.6096
 4705TIP3    H235751   2.519   0.479   7.540 -1.4001 -0.0570  1.7767
 4706TIP3   OH235752   1.310   5.583   1.549  0.0065 -0.5016  0.5387
 4706TIP3    H135753   1.395   5.591   1.591 -0.4484 -1.8587  1.7539
 4706TIP3    H235754   1.248   5.571   1.620 -0.9745 -1.4138 -0.4289
 4707TIP3   OH235755   2.082   0.527   1.585  0.0961  0.5187 -0.2833
 4707TIP3    H135756   2.090   0.587   1.510 -1.4047 -1.5874 -2.2637
 4707TIP3    H235757   2.170   0.491   1.596  0.6757  1.9518 -0.0139
 4708TIP3   OH235758   2.343   1.976   2.023 -0.3807  0.0167  0.6316
 4708TIP3    H135759   2.252   1.992   2.045 -0.8935 -0.1967 -1.1490
 4708TIP3    H235760   2.391   1.994   2.103 -2.1502 -1.6457  2.1435
 4709TIP3   OH235761   5.169   6.226   7.468 -0.2564 -0.4083  0.1397
 4709TIP3    H135762   5.232   6.157   7.491  0.9194  0.2729 -0.9057
 4709TIP3    H235763   5.130   6.195   7.386  1.2922  0.7604 -1.0962
 4710TIP3   OH235764   3.734   4.718   1.736  0.2355 -0.3204 -0.4136
 4710TIP3    H135765   3.651   4.695   1.778  0.9357 -2.1171  0.0814
 4710TIP3    H235766   3.799   4.712   1.806  0.9768 -0.2992 -1.0830
 4711TIP3   OH235767   5.366   4.938   8.119 -0.0519 -0.0607  0.4845
 4711TIP3    H135768   5.377   4.982   8.204 -0.0294  0.5211  0.1822
 4711TIP3    H235769   5.365   5.009   8.055  2.2351 -0.6008 -0.2423
 4712TIP3   OH235770   4.291   1.764   2.161  0.4195 -0.7758 -0.1642
 4712TIP3    H135771   4.256   1.850   2.182  0.5745 -0.6405 -0.4564
 4712TIP3    H235772   4.287   1.716   2.244 -1.7467 -1.2373 -0.4820
 4713TIP3   OH235773   4.392   1.997   2.538 -0.5058 -0.2021  0.0147
 4713TIP3    H135774   4.436   1.934   2.482 -0.6237  0.2455 -0.5846
 4713TIP3    H235775   4.422   1.976   2.627 -0.2775 -0.8712 -0.2220
 4714TIP3   OH235776   6.142   3.728   8.518  0.1856 -0.1793  0.3605
 4714TIP3    H135777   6.087   3.804   8.498 -1.0365 -0.8666  1.0048
 4714TIP3    H235778   6.230   3.755   8.491 -0.5079  0.8068 -1.0755
 4715TIP3   OH235779   0.166   6.943   7.525 -0.0098  0.4111  0.1355
 4715TIP3    H135780   0.203   6.917   7.440  0.4818  0.9614  0.1737
 4715TIP3    H235781   0.126   6.863   7.559  0.3209  0.0337 -0.3443
 4716TIP3   OH235782   6.138   5.399   1.769 -0.4715  0.4042 -0.4829
 4716TIP3    H135783   6.055   5.380   1.814 -0.0988 -0.1644 -0.0279
 4716TIP3    H235784   6.190   5.445   1.834  0.0086 -0.2759 -0.3748
 4717TIP3   OH235785   0.650   1.577   0.995  0.3894 -0.6595 -0.0241
 4717TIP3    H135786   0.699   1.604   1.072  1.1097 -0.4762 -0.5294
 4717TIP3    H235787   0.659   1.482   0.992  0.3238 -0.6714  0.1322
 4718TIP3   OH235788   0.072   5.296   0.245 -0.3330 -0.1050  0.3286
 4718TIP3    H135789   0.133   5.280   0.317  1.2555  1.1586 -0.6510
 4718TIP3    H235790   0.081   5.220   0.188 -1.6929 -1.1739  1.4559
 4719TIP3   OH235791   0.253   4.921   8.209  0.0346 -0.1651 -0.3800
 4719TIP3    H135792   0.317   4.966   8.154  0.4186  1.3459  1.2200
 4719TIP3    H235793   0.289   4.834   8.222  0.8426  0.0636 -1.0126
 4720TIP3   OH235794   1.996   4.683   8.329  0.4453  0.5495 -0.1969
 4720TIP3    H135795   2.062   4.680   8.398 -1.2804 -1.2835  1.5186
 4720TIP3    H235796   1.970   4.592   8.316 -2.0086  1.2055 -0.4801
 4721TIP3   OH235797   6.148   1.960   1.026  0.0481  0.0348  0.0585
 4721TIP3    H135798   6.229   2.009   1.012 -0.6598  1.2846  0.2033
 4721TIP3    H235799   6.081   2.027   1.042 -0.6814 -0.9990  1.7103
 4722TIP3   OH235800   4.938   5.464   7.211  0.2244  0.7441 -0.1814
 4722TIP3    H135801   4.871   5.405   7.178  1.5487 -1.8922  1.5498
 4722TIP3    H235802   4.921   5.471   7.305  1.4712  1.2395  0.0329
 4723TIP3   OH235803   6.685   2.628   7.406  0.1347 -0.1607  0.0055
 4723TIP3    H135804   6.594   2.620   7.434  0.4213  0.3564  1.1377
 4723TIP3    H235805   6.682   2.620   7.310 -0.9615 -1.2331  0.1136
 4724TIP3   OH235806   5.389   3.976   7.804 -0.0544 -0.0173 -0.2302
 4724TIP3    H135807   5.389   4.072   7.804 -1.5006  0.0194  1.4177
 4724TIP3    H235808   5.310   3.952   7.756 -0.2782 -0.3778  0.3238
 4725TIP3   OH235809   3.172   5.299   0.371  0.0371  0.1549 -0.4081
 4725TIP3    H135810   3.178   5.255   0.456 -0.9572 -0.4021 -0.6069
 4725TIP3    H235811   3.187   5.229   0.307 -2.2125 -0.0856 -0.7465
 4726TIP3   OH235812   3.820   3.217   1.998  0.0399 -0.2027  0.6962
 4726TIP3    H135813   3.753   3.231   1.931  1.0814  0.4823 -0.2319
 4726TIP3    H235814   3.784   3.149   2.055 -1.7981  0.7259  0.7102
 4727TIP3   OH235815   4.920   1.597   0.696  0.5546  1.2099  0.3994
 4727TIP3    H135816   4.932   1.679   0.648  1.5668  0.1348 -1.3040
 4727TIP3    H235817   4.975   1.534   0.650 -0.4713 -0.5264  1.4217
 4728TIP3   OH235818   1.134   6.684   6.238  0.3307  0.2671 -0.1966
 4728TIP3    H135819   1.070   6.677   6.167  0.2363 -2.3490  0.0435
 4728TIP3    H235820   1.197   6.750   6.208 -0.7880  0.6637 -1.7877
 4729TIP3   OH235821   5.427   3.127   1.803 -0.1859  0.3716  0.0594
 4729TIP3    H135822   5.425   3.215   1.840 -0.0337  0.0665  0.8131
 4729TIP3    H235823   5.339   3.115   1.766 -0.2082  0.8317 -0.0474
 4730TIP3   OH235824   2.092   1.201   0.908  0.3322  0.0849 -0.5141
 4730TIP3    H135825   2.122   1.140   0.974 -0.6540  1.1075  0.9429
 4730TIP3    H235826   2.114   1.288   0.943  1.5217  0.6245 -2.4292
 4731TIP3   OH235827   0.909   3.055   1.704 -0.5609  0.2182 -0.0379
 4731TIP3    H135828   0.956   2.974   1.687  0.3860  0.8183 -0.3585
 4731TIP3    H235829   0.918   3.106   1.624 -1.1353  0.6435  0.1615
 4732TIP3   OH235830   4.717   1.581   7.428  0.1195 -0.2012 -0.3321
 4732TIP3    H135831   4.748   1.647   7.490 -2.5747  1.0026 -0.1301
 4732TIP3    H235832   4.767   1.598   7.348  0.1945  1.4471  0.0326
 4733TIP3   OH235833   3.644   0.965   2.327 -0.4922  0.3307  0.4982
 4733TIP3    H135834   3.561   1.013   2.316 -0.1097  0.9204  0.1248
 4733TIP3    H235835   3.699   1.025   2.377 -0.3763 -0.1712  0.9811
 4734TIP3   OH235836   2.581   4.782   1.255  0.5033  0.2214 -0.4759
 4734TIP3    H135837   2.504   4.816   1.210 -1.0787 -2.0303  0.3577
 4734TIP3    H235838   2.600   4.847   1.323  0.2196  1.4735 -1.5604
 4735TIP3   OH235839   1.707   2.966   8.301  0.0584 -0.6849 -0.7562
 4735TIP3    H135840   1.786   2.937   8.255 -0.9312 -1.7154 -1.8626
 4735TIP3    H235841   1.651   3.004   8.233 -0.4913 -0.1258 -0.0168
 4736TIP3   OH235842   2.058   6.634   1.526  0.1416 -0.1390  0.0574
 4736TIP3    H135843   2.098   6.638   1.438 -0.0000 -0.2489 -0.0125
 4736TIP3    H235844   2.133   6.632   1.586  0.2427  1.0902  0.0011
 4737TIP3   OH235845   6.590   5.118   7.396 -0.1616  0.3502  0.7100
 4737TIP3    H135846   6.517   5.094   7.338  0.0399 -0.0620  0.6251
 4737TIP3    H235847   6.561   5.199   7.437 -2.1189 -1.4379  3.1740
 4738TIP3   OH235848   5.638   1.861   7.425  0.2271  0.1628 -0.3922
 4738TIP3    H135849   5.606   1.771   7.429 -0.8623  0.5187 -0.6058
 4738TIP3    H235850   5.561   1.914   7.448  0.6013  1.0750 -1.2039
 4739TIP3   OH235851   3.785   1.120   1.970  0.5052 -0.6014 -0.1927
 4739TIP3    H135852   3.724   1.109   1.898  0.4649 -0.2756 -0.2094
 4739TIP3    H235853   3.796   1.031   2.006 -0.0995 -0.6384 -0.0844
 4740TIP3   OH235854   6.427   2.247   1.615 -0.0891 -0.4504 -0.1261
 4740TIP3    H135855   6.389   2.261   1.528 -2.3643 -1.6893  0.5903
 4740TIP3    H235856   6.446   2.153   1.617 -2.4288 -0.9767  1.5172
 4741TIP3   OH235857   4.360   1.055   1.666 -0.3159 -0.9462  0.1540
 4741TIP3    H135858   4.433   1.112   1.640  0.6552 -1.8135  0.8945
 4741TIP3    H235859   4.344   1.078   1.757 -2.1084  0.3932 -0.4421
 4742TIP3   OH235860   0.095   1.338   7.886 -0.0464  0.4832  0.8094
 4742TIP3    H135861   0.016   1.388   7.864 -0.3554 -1.3936 -3.3049
 4742TIP3    H235862   0.063   1.250   7.905  0.9369 -0.1296 -0.2435
 4743TIP3   OH235863   3.231   1.181   7.804  0.0028 -0.5823 -0.3234
 4743TIP3    H135864   3.312   1.165   7.853  0.4775  0.5314 -0.7353
 4743TIP3    H235865   3.184   1.097   7.810  1.2480 -1.3088 -0.2300
 4744TIP3   OH235866   1.325   5.766   1.089 -0.0795 -0.1578 -0.3794
 4744TIP3    H135867   1.306   5.776   0.996 -1.1346  0.6763 -0.0914
 4744TIP3    H235868   1.259   5.819   1.133  0.2248 -0.7710  0.8627
 4745TIP3   OH235869   2.178   0.875   7.661  0.6885 -0.3515 -0.2625
 4745TIP3    H135870   2.101   0.886   7.605 -0.0180 -0.4696  0.6695
 4745TIP3    H235871   2.184   0.958   7.709  1.1702 -0.3296 -0.3590
 4746TIP3   OH235872   4.172   5.482   1.784 -0.4805  0.1730 -0.3256
 4746TIP3    H135873   4.139   5.425   1.853 -1.6407 -0.0861 -1.0789
 4746TIP3    H235874   4.222   5.424   1.727 -0.7827  0.1043 -0.5210
 4747TIP3   OH235875   3.481   2.281   6.358 -0.4260 -0.4641 -0.4761
 4747TIP3    H135876   3.466   2.195   6.398  1.5555 -0.9825 -0.7532
 4747TIP3    H235877   3.393   2.318   6.346 -1.2344 -1.7386  1.1741
 4748TIP3   OH235878   2.908   3.205   7.099 -0.0732  0.0697 -0.0715
 4748TIP3    H135879   2.963   3.223   7.175  1.3131  0.9739 -1.2264
 4748TIP3    H235880   2.819   3.199   7.134  0.2009  2.7832  1.3534
 4749TIP3   OH235881   5.842   0.881   1.076 -0.0656  0.8046  0.5861
 4749TIP3    H135882   5.803   0.952   1.024 -0.3529 -0.0543 -0.3999
 4749TIP3    H235883   5.826   0.907   1.167 -3.8510  0.1022  0.2966
 4750TIP3   OH235884   4.101   5.119   6.578 -0.1401  0.2915  0.4795
 4750TIP3    H135885   4.113   5.059   6.504  0.5496  2.0689 -0.9235
 4750TIP3    H235886   4.189   5.151   6.597 -0.4775  0.7698  1.2648
 4751TIP3   OH235887   0.237   6.887   1.188  0.6022  0.4426 -0.0140
 4751TIP3    H135888   0.147   6.914   1.208  0.6908  1.0411 -0.3857
 4751TIP3    H235889   0.282   6.888   1.272  0.5876  1.4540  0.0014
 4752TIP3   OH235890   0.106   2.111   0.001 -0.5823  0.0214 -0.0412
 4752TIP3    H135891   0.034   2.171   0.018  0.3362  0.6578  1.8322
 4752TIP3    H235892   0.185   2.164   0.011  0.2040 -1.0365 -0.3910
 4753TIP3   OH235893   4.658   0.096   7.189 -0.1322 -0.1999 -0.4977
 4753TIP3    H135894   4.737   0.048   7.214 -0.4766 -0.8537 -0.6370
 4753TIP3    H235895   4.664   0.178   7.237  1.2709  0.3155 -1.4850
 4754TIP3   OH235896   3.045   1.856   1.041  0.1921 -0.5841  0.7501
 4754TIP3    H135897   2.977   1.916   1.009 -0.0111  0.1258  2.3865
 4754TIP3    H235898   3.086   1.821   0.962 -0.5124  0.7880 -0.2635
 4755TIP3   OH235899   5.441   0.826   1.425  0.1899 -0.1183  0.0870
 4755TIP3    H135900   5.482   0.912   1.427  0.9923 -0.4805 -0.2683
 4755TIP3    H235901   5.347   0.844   1.435  0.4439  0.7041  1.2332
 4756TIP3   OH235902   3.657   3.869   6.222  0.3342  0.7610 -0.1351
 4756TIP3    H135903   3.698   3.926   6.156  0.7364  0.8708  0.2012
 4756TIP3    H235904   3.599   3.928   6.271  1.2210  1.0410  0.6194
 4757TIP3   OH235905   2.189   3.703   1.105  0.7943 -0.1724  0.4144
 4757TIP3    H135906   2.191   3.740   1.017 -1.8905 -1.6814 -0.4287
 4757TIP3    H235907   2.280   3.690   1.129  1.6784  2.6146 -1.0589
 4758TIP3   OH235908   4.399   2.399   0.739  0.1822  0.0316  0.1177
 4758TIP3    H135909   4.333   2.351   0.689  0.1014  0.9285 -0.6546
 4758TIP3    H235910   4.452   2.330   0.780  0.3776 -0.7388 -1.3614
 4759TIP3   OH235911   2.638   6.191   0.510 -0.2592 -0.3476  0.0268
 4759TIP3    H135912   2.584   6.150   0.441  0.0156 -0.8817  0.1239
 4759TIP3    H235913   2.605   6.281   0.515 -0.9504 -0.5813 -0.1151
 4760TIP3   OH235914   6.909   2.186   2.840  0.5228  0.5858 -0.6417
 4760TIP3    H135915   6.927   2.276   2.869 -0.3419 -0.1494  2.6348
 4760TIP3    H235916   6.990   2.138   2.860  1.1355  0.6253 -2.7672
 4761TIP3   OH235917   4.764   4.492   7.548 -0.0308  0.4030  0.0340
 4761TIP3    H135918   4.827   4.498   7.477  0.7264 -0.4891  0.6148
 4761TIP3    H235919   4.730   4.581   7.558 -2.0022  0.1456 -3.0566
 4762TIP3   OH235920   5.233   4.854   1.583 -0.0469  0.0384  1.0455
 4762TIP3    H135921   5.320   4.839   1.619 -0.2080  1.2178  1.9736
 4762TIP3    H235922   5.249   4.882   1.493  0.3917 -2.0856  0.4013
 4763TIP3   OH235923   3.423   6.575   0.617 -0.4106  0.1043  0.2542
 4763TIP3    H135924   3.517   6.559   0.608 -0.4349  0.2565 -0.2631
 4763TIP3    H235925   3.386   6.489   0.637 -0.1126  0.1158  0.8812
 4764TIP3   OH235926   4.394   1.765   0.069  0.2930 -0.0019 -0.0824
 4764TIP3    H135927   4.423   1.825   0.137  2.9043  0.3348 -1.3726
 4764TIP3    H235928   4.308   1.798   0.042  0.9453  2.1728  0.3523
 4765TIP3   OH235929   5.920   0.782   2.125  0.0234  0.1741 -0.1225
 4765TIP3    H135930   5.970   0.704   2.147  1.7470  1.7068  1.8127
 4765TIP3    H235931   5.860   0.795   2.199 -1.1252  0.0613 -0.9934
 4766TIP3   OH235932   0.044   5.527   7.348 -0.2280  0.3367 -0.5937
 4766TIP3    H135933   0.106   5.461   7.378  1.3837  1.6338 -0.9543
 4766TIP3    H235934  -0.038   5.506   7.394  0.6300 -1.0414  0.3602
 4767TIP3   OH235935   3.164   1.194   0.690 -0.7153  0.2828 -0.5262
 4767TIP3    H135936   3.086   1.185   0.744 -0.1699  0.0640  0.2395
 4767TIP3    H235937   3.145   1.270   0.634 -1.4473  0.2675 -0.3109
 4768TIP3   OH235938   0.515   2.839   1.188  0.5209 -0.2415 -0.5299
 4768TIP3    H135939   0.431   2.871   1.220  0.4901 -0.5811 -0.2615
 4768TIP3    H235940   0.513   2.745   1.206  2.3586  0.2240  2.7079
 4769TIP3   OH235941   3.623   4.877   2.062  0.0702 -0.1719 -0.2368
 4769TIP3    H135942   3.674   4.921   2.130  0.3394 -0.8208 -0.0143
 4769TIP3    H235943   3.685   4.819   2.018 -0.2607 -0.2723 -0.5828
 4770TIP3   OH235944   2.461   0.900   7.928 -0.0831  0.1851  0.1911
 4770TIP3    H135945   2.525   0.830   7.915 -0.6854 -0.2209 -0.7242
 4770TIP3    H235946   2.483   0.938   8.013  0.7397 -0.6071  0.3431
 4771TIP3   OH235947   3.924   1.378   1.104 -0.4956 -0.1647  0.9199
 4771TIP3    H135948   3.920   1.299   1.050 -2.2424 -2.0894  3.6286
 4771TIP3    H235949   4.015   1.383   1.133  0.0898  0.0083 -0.8173
 4772TIP3   OH235950   1.214   1.436   7.965  0.1403  0.1278 -0.2306
 4772TIP3    H135951   1.234   1.520   7.924  0.8216 -0.6243 -1.4745
 4772TIP3    H235952   1.167   1.387   7.898 -2.1991  0.2561  1.1789
 4773TIP3   OH235953   3.443   1.684   7.952  0.0842  0.5934  0.1064
 4773TIP3    H135954   3.507   1.721   8.013  0.2214  1.7315 -0.6955
 4773TIP3    H235955   3.416   1.601   7.993  0.8201  0.8999  1.2666
 4774TIP3   OH235956   6.809   5.560   1.632  0.8783 -0.1745  0.6700
 4774TIP3    H135957   6.865   5.588   1.704  2.3222  2.5785 -1.3310
 4774TIP3    H235958   6.732   5.617   1.639 -0.0080 -1.3874  1.2142
 4775TIP3   OH235959   4.043   1.948   7.053  0.6727 -0.5335 -0.1345
 4775TIP3    H135960   4.103   1.919   7.122  1.4167  2.3916  0.5931
 4775TIP3    H235961   4.094   2.012   7.003 -0.9962  0.0429 -1.1877
 4776TIP3   OH235962   6.862   0.900   2.150  0.5809  0.2276  0.2285
 4776TIP3    H135963   6.917   0.825   2.173 -0.3502 -0.2748  0.8998
 4776TIP3    H235964   6.801   0.908   2.223 -1.4463 -0.3929 -1.2939
 4777TIP3   OH235965   4.796   4.573   8.275  0.1762  0.5632 -0.3529
 4777TIP3    H135966   4.846   4.495   8.301 -1.5675  0.3018  2.6678
 4777TIP3    H235967   4.812   4.581   8.181 -1.7412 -5.1372 -1.5991
 4778TIP3   OH235968   5.147   3.563   8.426  0.2093 -0.4874 -0.4002
 4778TIP3    H135969   5.121   3.497   8.362  2.4887  0.7970 -2.7902
 4778TIP3    H235970   5.083   3.633   8.417  1.0237  0.0885 -2.0189
 4779TIP3   OH235971   1.804   6.924   7.859  0.9284  0.2287 -0.2897
 4779TIP3    H135972   1.872   6.969   7.910  1.2148  0.8618 -1.2042
 4779TIP3    H235973   1.819   6.831   7.875 -0.0099  0.4078  2.0854
 4780TIP3   OH235974   3.685   0.681   2.438  0.9785  0.1216  0.3958
 4780TIP3    H135975   3.616   0.737   2.475  0.4151 -0.4211  0.1952
 4780TIP3    H235976   3.731   0.647   2.515  0.4316 -0.2356  0.5723
 4781TIP3   OH235977   6.220   3.349   8.351  0.1429 -0.5332 -0.2532
 4781TIP3    H135978   6.279   3.363   8.425 -0.5527 -0.7006  0.3518
 4781TIP3    H235979   6.144   3.405   8.370  1.0945  1.5635 -2.2181
 4782TIP3   OH235980   0.503   4.842   1.358 -0.2894  0.1154  0.1852
 4782TIP3    H135981   0.466   4.929   1.349 -1.0541 -0.0453  1.5394
 4782TIP3    H235982   0.573   4.852   1.422 -0.6748 -0.3333  0.6880
 4783TIP3   OH235983   6.723   1.456   1.865  0.1705  0.0311  0.2376
 4783TIP3    H135984   6.710   1.379   1.810 -3.2425 -0.9914  2.1777
 4783TIP3    H235985   6.782   1.427   1.935  0.5479 -0.1810 -0.1702
 4784TIP3   OH235986   5.756   6.087   7.412  0.2802 -0.0550  0.5467
 4784TIP3    H135987   5.670   6.047   7.415  0.7352 -1.2177 -0.8286
 4784TIP3    H235988   5.740   6.179   7.391 -0.6214 -0.2605  0.3171
 4785TIP3   OH235989   5.757   2.721   2.433  0.3491  0.3508 -0.0141
 4785TIP3    H135990   5.731   2.746   2.345 -2.7082 -2.3919 -0.0741
 4785TIP3    H235991   5.796   2.634   2.423  1.0461  0.4924  1.2354
 4786TIP3   OH235992   1.719   6.878   6.766  0.4284 -0.1080  0.1425
 4786TIP3    H135993   1.739   6.965   6.729  0.6985 -0.6482 -1.0153
 4786TIP3    H235994   1.761   6.879   6.852  0.3701  0.9391  0.1714
 4787TIP3   OH235995   5.220   2.668   0.949  0.0428  0.0096 -0.5118
 4787TIP3    H135996   5.197   2.579   0.922 -0.0680 -0.9201  2.3133
 4787TIP3    H235997   5.297   2.657   1.003  0.2989  1.7291 -0.4793
 4788TIP3   OH235998   1.928   4.161   1.838 -0.6728 -0.4783  0.0197
 4788TIP3    H135999   1.968   4.190   1.756  1.4401 -2.5322  0.2183
 4788TIP3    H236000   1.920   4.241   1.890  0.0280  0.5254 -1.3543
 4789TIP3   OH236001   3.552   4.345   0.422  0.1893 -0.0388 -0.6019
 4789TIP3    H136002   3.535   4.399   0.345  0.1152  0.5612 -0.1709
 4789TIP3    H236003   3.473   4.354   0.475  1.1268  1.4445  0.6420
 4790TIP3   OH236004   4.140   0.136   8.041 -0.1281  0.0356 -0.0242
 4790TIP3    H136005   4.219   0.175   8.079  0.8914 -2.2785  0.3982
 4790TIP3    H236006   4.162   0.044   8.029 -2.0886 -0.2810 -1.8244
 4791TIP3   OH236007   1.712   6.642   8.168  0.3280 -0.3221  0.1346
 4791TIP3    H136008   1.636   6.606   8.121 -0.0639  0.8386 -0.1547
 4791TIP3    H236009   1.770   6.673   8.099  1.2401 -1.4926  0.3474
 4792TIP3   OH236010   1.294   4.933   7.275  0.1900  0.1008 -0.3705
 4792TIP3    H136011   1.299   4.933   7.370  2.3074 -0.3739 -0.4210
 4792TIP3    H236012   1.243   4.855   7.253 -0.8517  0.5582  0.3748
 4793TIP3   OH236013   1.053   5.658   1.405 -0.2885  0.1206 -0.7909
 4793TIP3    H136014   1.003   5.693   1.479 -0.5133 -0.7395 -0.5216
 4793TIP3    H236015   1.135   5.706   1.406  0.9209 -1.7576  1.7967
 4794TIP3   OH236016   2.511   2.643   6.902  0.1720 -0.1569 -0.2497
 4794TIP3    H136017   2.425   2.600   6.905  0.7819 -1.6649 -2.1531
 4794TIP3    H236018   2.550   2.612   6.820  1.5764  2.4017 -0.6271
 4795TIP3   OH236019   6.942   4.056   1.400  0.0614 -0.5249 -0.1398
 4795TIP3    H136020   6.852   4.023   1.392  0.7088 -2.0820 -1.6044
 4795TIP3    H236021   6.951   4.078   1.492 -1.6646 -0.8055  0.1355
 4796TIP3   OH236022   5.074   5.464   7.496  0.3841  0.1743 -0.0416
 4796TIP3    H136023   5.169   5.462   7.484  0.1528 -0.1555 -2.2499
 4796TIP3    H236024   5.055   5.391   7.555  1.2777 -1.4417 -1.6790
 4797TIP3   OH236025   3.390   5.656   0.351  0.0214 -0.3439  0.0097
 4797TIP3    H136026   3.478   5.639   0.317 -0.6174 -2.2544 -0.8217
 4797TIP3    H236027   3.333   5.652   0.273 -0.8721  0.2917  0.6075
 4798TIP3   OH236028   2.016   2.297   7.358 -0.2637  0.2802  1.1136
 4798TIP3    H136029   2.055   2.211   7.378  1.3628  0.7683  0.2685
 4798TIP3    H236030   1.999   2.293   7.264 -0.1906  0.8661  1.0721
 4799TIP3   OH236031   6.863   0.973   0.189  0.1211  0.9295  0.1303
 4799TIP3    H136032   6.857   1.065   0.164 -0.7165  1.6168  2.5648
 4799TIP3    H236033   6.774   0.950   0.215  0.4152 -0.4485 -0.0107
 4800TIP3   OH236034   5.114   6.460   1.463  0.3175  0.1904  1.0297
 4800TIP3    H136035   5.183   6.417   1.411  0.6471  0.5822  1.1396
 4800TIP3    H236036   5.155   6.477   1.547 -0.1729 -0.3025  1.3766
 4801TIP3   OH236037   5.499   5.958   0.172  0.0013  0.3463 -0.2856
 4801TIP3    H136038   5.545   5.992   0.249  1.9466 -1.0845 -0.7602
 4801TIP3    H236039   5.527   6.015   0.100  0.8088 -0.3156 -0.5111
 4802TIP3   OH236040   5.860   2.632   2.791 -0.3933  0.2327  0.7198
 4802TIP3    H136041   5.904   2.552   2.762 -0.1668  0.2158  1.1009
 4802TIP3    H236042   5.913   2.703   2.756 -0.5514  0.2181  0.4470
 4803TIP3   OH236043   2.036   1.536   8.405  0.1983 -0.4231  0.8234
 4803TIP3    H136044   2.115   1.511   8.357  0.7657 -1.4999  2.2596
 4803TIP3    H236045   1.967   1.482   8.366 -0.2548  1.7192 -1.5888
 4804TIP3   OH236046   5.635   1.014   1.590  0.3673 -0.5748  0.2854
 4804TIP3    H136047   5.552   1.061   1.583 -0.4201 -1.9488 -0.2531
 4804TIP3    H236048   5.669   1.036   1.676 -0.6227 -0.0674  0.5600
 4805TIP3   OH236049   2.251   5.936   8.108  0.2758 -0.2608  0.3321
 4805TIP3    H136050   2.218   5.983   8.032  0.5974  0.6012  0.7155
 4805TIP3    H236051   2.283   6.004   8.167 -0.6136 -0.8731  1.5588
 4806TIP3   OH236052   0.600   2.508   7.271 -0.4063  0.1409 -0.2863
 4806TIP3    H136053   0.583   2.415   7.288 -1.6025  0.4630  0.3976
 4806TIP3    H236054   0.534   2.533   7.206  1.3690 -0.0056 -2.2897
 4807TIP3   OH236055   2.039   0.515   6.902 -0.1591  0.1607 -0.3244
 4807TIP3    H136056   2.118   0.476   6.940  1.2005  2.3658 -0.7027
 4807TIP3    H236057   2.011   0.452   6.836  1.4857 -0.5388 -0.4106
 4808TIP3   OH236058   1.645   3.839   6.074 -0.3036  0.0969 -0.3417
 4808TIP3    H136059   1.645   3.813   5.982 -1.9126  1.0364 -0.6386
 4808TIP3    H236060   1.609   3.763   6.120 -0.9890  0.2034 -0.6898
 4809TIP3   OH236061   6.922   5.264   7.254 -0.2221 -0.2065 -0.1409
 4809TIP3    H136062   6.867   5.332   7.295 -2.0754 -1.5331 -0.2972
 4809TIP3    H236063   6.945   5.301   7.169 -2.3808 -0.2406 -0.8138
 4810TIP3   OH236064   6.287   4.360   0.490 -0.1230 -0.5758 -0.1885
 4810TIP3    H136065   6.305   4.442   0.444 -1.9782  0.5001  0.8964
 4810TIP3    H236066   6.207   4.327   0.449 -1.1489 -0.2017  1.4494
 4811TIP3   OH236067   0.959   2.242   1.245  0.0512 -0.0154 -0.1419
 4811TIP3    H136068   0.953   2.178   1.174  2.9439  1.2665 -1.7040
 4811TIP3    H236069   0.898   2.311   1.220  1.5686  0.7660 -1.8610
 4812TIP3   OH236070   4.581   0.729   0.247 -0.0182 -0.5855  0.4604
 4812TIP3    H136071   4.586   0.824   0.236 -0.8685 -0.6523 -0.5900
 4812TIP3    H236072   4.669   0.703   0.271  0.4599  0.3521 -0.2299
 4813TIP3   OH236073   6.703   5.947   1.669  0.4036 -0.3852 -0.1984
 4813TIP3    H136074   6.736   5.912   1.752 -2.1554 -1.8351  0.3014
 4813TIP3    H236075   6.608   5.937   1.674 -0.2021  2.9629 -1.7971
 4814TIP3   OH236076   4.755   0.219   0.743 -0.2732  0.3725  0.3355
 4814TIP3    H136077   4.711   0.293   0.701  0.2677 -0.3962 -1.6907
 4814TIP3    H236078   4.815   0.186   0.676  0.4738 -1.0727  1.6664
 4815TIP3   OH236079   4.761   5.982   8.487 -0.0426  0.1444 -0.8909
 4815TIP3    H136080   4.826   6.041   8.525  0.0650 -0.0645 -0.7510
 4815TIP3    H236081   4.757   6.008   8.395  0.4422 -0.0238 -0.9606
 4816TIP3   OH236082   6.207   0.324   7.587 -0.2303  0.7437  0.2851
 4816TIP3    H136083   6.115   0.345   7.601 -0.0853  1.3468  0.3472
 4816TIP3    H236084   6.206   0.243   7.535 -0.7946 -0.3637  1.9337
 4817TIP3   OH236085   4.278   3.582   7.621  0.8337  0.2526 -0.0746
 4817TIP3    H136086   4.252   3.674   7.611 -2.1740 -0.5313 -0.2656
 4817TIP3    H236087   4.249   3.559   7.709  1.1808 -0.6535 -0.1915
 4818TIP3   OH236088   2.257   4.616   7.630  0.1439  0.3839  0.4692
 4818TIP3    H136089   2.342   4.577   7.609  0.6426  1.5831  0.1561
 4818TIP3    H236090   2.239   4.587   7.719  0.6609 -0.2692  0.3659
 4819TIP3   OH236091   5.621   1.671   1.815 -0.0627  0.4243  0.7365
 4819TIP3    H136092   5.698   1.713   1.775 -0.2324  0.6909  0.6897
 4819TIP3    H236093   5.581   1.621   1.744 -0.3072  0.8175  0.5942
 4820TIP3   OH236094   0.618   2.589   1.913  0.5713  0.4266  0.0856
 4820TIP3    H136095   0.600   2.676   1.875  2.8218  1.5768  1.4858
 4820TIP3    H236096   0.631   2.606   2.006  0.3349 -1.5647  0.5147
 4821TIP3   OH236097   6.817   2.068   7.314 -0.1999  0.0574 -0.2123
 4821TIP3    H136098   6.834   2.162   7.320  1.3146  0.0499 -2.8086
 4821TIP3    H236099   6.899   2.027   7.343 -1.0848 -0.5339  1.5803
 4822TIP3   OH236100   5.224   2.374   0.916 -0.1644  0.6901 -0.1850
 4822TIP3    H136101   5.254   2.312   0.983 -2.8862  0.0829  0.6136
 4822TIP3    H236102   5.188   2.318   0.847 -5.0271  1.0681  1.6520
 4823TIP3   OH236103   4.654   0.434   0.535  0.6862 -0.0472 -0.2199
 4823TIP3    H136104   4.699   0.518   0.547 -0.4192  0.4934  0.2678
 4823TIP3    H236105   4.576   0.456   0.485  0.2293 -0.7311  0.1782
 4824TIP3   OH236106   5.404   1.538   1.223  0.3475  0.3908  0.5646
 4824TIP3    H136107   5.358   1.456   1.206  2.6142 -1.1208  1.2695
 4824TIP3    H236108   5.349   1.584   1.285 -1.5589 -0.0071 -0.7483
 4825TIP3   OH236109   1.255   3.789   8.429  0.1486  0.0488 -0.1827
 4825TIP3    H136110   1.209   3.834   8.500 -1.2143 -1.3567 -0.1353
 4825TIP3    H236111   1.230   3.698   8.438  2.2528 -0.6441 -0.7397
 4826TIP3   OH236112   2.723   5.081   8.374  0.6047 -0.3008  1.0915
 4826TIP3    H136113   2.711   5.007   8.315  1.0157 -0.7877  1.6113
 4826TIP3    H236114   2.799   5.128   8.338 -1.2337  1.4149 -0.7910
 4827TIP3   OH236115   5.045   1.511   1.481  0.0618 -0.0883 -0.4109
 4827TIP3    H136116   4.982   1.573   1.519 -0.1053 -0.5421  0.0689
 4827TIP3    H236117   5.080   1.464   1.557  1.1254  0.2941 -0.6571
 4828TIP3   OH236118   5.167   6.584   6.272  0.3083 -0.0719 -0.5889
 4828TIP3    H136119   5.235   6.641   6.309 -0.7393  1.0886 -0.3965
 4828TIP3    H236120   5.214   6.532   6.206  1.6827 -0.3656  0.5698
 4829TIP3   OH236121   5.399   6.225   6.359 -0.4820  0.4654  0.6602
 4829TIP3    H136122   5.349   6.203   6.438  0.6744 -1.0602  1.0089
 4829TIP3    H236123   5.486   6.189   6.374  1.0039  3.5611  0.3074
 4830TIP3   OH236124   1.935   5.379   6.293 -0.4406 -0.1947  0.0926
 4830TIP3    H136125   1.981   5.422   6.221  0.0977  0.1078  0.6131
 4830TIP3    H236126   1.915   5.449   6.355 -0.6242 -0.4975  0.3805
 4831TIP3   OH236127   4.220   3.887   6.753 -0.3488  0.4702  0.0176
 4831TIP3    H136128   4.267   3.958   6.708  0.7992 -0.0152  0.4112
 4831TIP3    H236129   4.268   3.875   6.835 -1.3137  0.0994  0.5375
 4832TIP3   OH236130   1.847   1.495   0.565  0.5109 -0.2029  0.2455
 4832TIP3    H136131   1.924   1.549   0.582  0.2261  0.4222 -0.4035
 4832TIP3    H236132   1.880   1.405   0.569  0.8985 -0.0271  1.8171
 4833TIP3   OH236133   4.015   0.470   6.522  0.2365 -0.0374  0.1988
 4833TIP3    H136134   4.065   0.435   6.596  0.6407  0.0262 -0.0367
 4833TIP3    H236135   4.065   0.547   6.494  0.0637 -0.0347 -0.1093
 4834TIP3   OH236136   6.528   4.553   1.668  0.2335  0.6947 -0.1406
 4834TIP3    H136137   6.495   4.543   1.757 -0.4799  1.0143 -0.3643
 4834TIP3    H236138   6.534   4.648   1.656 -0.9999  0.6851 -0.9122
 4835TIP3   OH236139   3.331   2.084   1.305  0.2094  0.1278 -0.5076
 4835TIP3    H136140   3.334   2.105   1.398 -0.5284  0.7603 -0.6143
 4835TIP3    H236141   3.284   2.157   1.265 -1.1492 -1.0075 -1.1037
 4836TIP3   OH236142   5.524   2.929   6.645 -0.1706  0.1588  0.0425
 4836TIP3    H136143   5.594   2.965   6.590  0.7475 -1.4482  0.1144
 4836TIP3    H236144   5.449   2.919   6.586  0.2277  0.1686 -0.4634
 4837TIP3   OH236145   6.528   6.245   0.403 -0.7337  0.3107 -0.1353
 4837TIP3    H136146   6.601   6.292   0.363  0.6333 -1.4792  0.1206
 4837TIP3    H236147   6.461   6.242   0.335 -0.2503  1.2381 -0.6700
 4838TIP3   OH236148   3.646   1.331   0.293  0.8229 -0.3704 -0.1560
 4838TIP3    H136149   3.672   1.253   0.342  0.8486  0.3834  1.0662
 4838TIP3    H236150   3.566   1.304   0.247  0.5528 -0.9663  0.6425
 4839TIP3   OH236151   0.328   0.209   8.005  0.6588  0.6779 -0.0857
 4839TIP3    H136152   0.324   0.295   7.964  0.4189  1.2478  1.0968
 4839TIP3    H236153   0.268   0.155   7.953  1.3430  1.0181 -1.2641
 4840TIP3   OH236154   5.304   6.937   6.826  0.0663 -0.3289 -0.1399
 4840TIP3    H136155   5.391   6.899   6.810 -0.5454 -1.4356 -0.9912
 4840TIP3    H236156   5.293   7.002   6.756  0.4923  0.3612  0.4153
 4841TIP3   OH236157   0.757   3.387   1.934 -0.8136 -0.4003  0.5150
 4841TIP3    H136158   0.679   3.443   1.943 -0.4502  0.7227 -2.2346
 4841TIP3    H236159   0.723   3.306   1.896 -0.8767 -0.7024  1.2015
 4842TIP3   OH236160   0.412   0.683   0.913  0.0774  0.4367  0.0395
 4842TIP3    H136161   0.483   0.687   0.977  0.3268  2.6399 -0.3041
 4842TIP3    H236162   0.451   0.639   0.837  0.3828 -0.3511  0.6309
 4843TIP3   OH236163   3.278   0.975   0.042 -0.2130  0.2116  0.0282
 4843TIP3    H136164   3.267   0.888   0.080 -0.1209  0.2130  0.0583
 4843TIP3    H236165   3.249   0.965  -0.049 -0.9051  0.3293  0.2321
 4844TIP3   OH236166   1.894   5.685   7.898  0.4854  0.2533  0.8024
 4844TIP3    H136167   1.855   5.654   7.816 -1.6493 -2.4633  2.6511
 4844TIP3    H236168   1.918   5.605   7.945  1.4460  1.6956  2.9146
 4845TIP3   OH236169   6.504   5.266   0.758  0.3838 -0.5501 -0.0336
 4845TIP3    H136170   6.526   5.356   0.732 -2.8972 -0.0450 -1.5134
 4845TIP3    H236171   6.528   5.213   0.681  0.1817 -0.6048 -0.0585
 4846TIP3   OH236172   6.274   1.336   8.149 -0.3662 -0.5874  0.3463
 4846TIP3    H136173   6.349   1.314   8.204  0.0836 -0.8772 -0.3718
 4846TIP3    H236174   6.281   1.277   8.074 -1.0764 -0.3306  0.0711
 4847TIP3   OH236175   2.280   1.831   1.171  0.1425  0.3750 -0.3642
 4847TIP3    H136176   2.224   1.795   1.103  0.0565  0.2747 -0.2418
 4847TIP3    H236177   2.241   1.800   1.253  0.8159 -0.3300 -0.3017
 4848TIP3   OH236178   1.116   3.451   0.066  0.2990 -0.0462 -0.1110
 4848TIP3    H136179   1.113   3.485  -0.024 -0.2762 -2.7792 -1.2302
 4848TIP3    H236180   1.203   3.412   0.073  0.1057 -0.4025  0.3005
 4849TIP3   OH236181   4.323   6.864   8.077 -0.1836  0.1735 -0.2069
 4849TIP3    H136182   4.338   6.779   8.035 -2.5893 -0.0245 -0.8125
 4849TIP3    H236183   4.384   6.923   8.033 -0.0224 -0.7960 -1.3521
 4850TIP3   OH236184   1.002   6.377   6.580  0.1171  0.0636 -0.3713
 4850TIP3    H136185   1.035   6.467   6.570 -0.4430  0.1043 -2.1326
 4850TIP3    H236186   0.981   6.370   6.673 -1.2359  2.2807 -0.4380
 4851TIP3   OH236187   6.858   5.725   1.213  0.5324  0.0839  0.2756
 4851TIP3    H136188   6.797   5.799   1.205  0.6266  0.0489 -1.0430
 4851TIP3    H236189   6.812   5.663   1.269  0.1316  0.8286  0.7861
 4852TIP3   OH236190   0.909   5.577   6.250 -0.2341  0.0262  1.0426
 4852TIP3    H136191   0.922   5.668   6.223 -0.0799 -0.2455  0.1862
 4852TIP3    H236192   0.995   5.536   6.239 -0.7570 -0.7066 -0.4915
 4853TIP3   OH236193   6.512   0.572   7.136  0.2017  0.5497 -0.1692
 4853TIP3    H136194   6.493   0.594   7.045 -1.7996  0.4259  0.1661
 4853TIP3    H236195   6.508   0.656   7.182 -1.7803  0.2982  0.2216
 4854TIP3   OH236196   5.996   6.567   0.353  0.1442 -0.1863 -0.5090
 4854TIP3    H136197   6.079   6.559   0.306  1.9791  1.1576  2.2720
 4854TIP3    H236198   6.005   6.508   0.428 -1.6289 -0.3262 -0.3617
 4855TIP3   OH236199   2.972   1.390   1.746  0.4664 -0.2626  0.5577
 4855TIP3    H136200   2.913   1.463   1.766  0.4943 -0.0903  0.0339
 4855TIP3    H236201   2.999   1.405   1.655 -1.8500 -2.5030 -0.6392
 4856TIP3   OH236202   3.060   1.768   1.820  0.1827 -0.5284 -0.1452
 4856TIP3    H136203   3.055   1.857   1.784 -1.4943 -0.3779  0.3773
 4856TIP3    H236204   3.058   1.781   1.915  2.4107 -1.0340  0.0125
 4857TIP3   OH236205   0.735   1.081   1.700  0.0751  0.0009 -0.1177
 4857TIP3    H136206   0.778   1.039   1.775 -1.1877 -0.2037  0.5167
 4857TIP3    H236207   0.807   1.122   1.652  1.0450 -0.7679  0.6149
 4858TIP3   OH236208   4.937   6.029   2.117  0.2509  0.3224  0.2225
 4858TIP3    H136209   4.980   5.958   2.165  0.2476 -1.6518 -2.4849
 4858TIP3    H236210   4.898   5.986   2.041 -1.4400  2.9788 -0.5306
 4859TIP3   OH236211   1.617   1.581   0.401  0.0249  0.3736 -0.1334
 4859TIP3    H136212   1.620   1.669   0.364 -0.4824  0.1965 -0.6046
 4859TIP3    H236213   1.689   1.579   0.464  0.6509  0.8053 -0.8259
 4860TIP3   OH236214   6.586   3.017   7.247  0.0463  0.1534  0.3664
 4860TIP3    H136215   6.599   3.068   7.168  0.4276  0.9232  0.9217
 4860TIP3    H236216   6.491   3.015   7.259  0.0656  2.4519  1.4222
 4861TIP3   OH236217   6.256   6.237   7.048 -0.0949  0.2412  0.0995
 4861TIP3    H136218   6.342   6.255   7.086 -0.1955  0.0638  0.4165
 4861TIP3    H236219   6.275   6.210   6.958 -0.0110  2.9563 -0.7700
 4862TIP3   OH236220   1.216   4.350   6.165 -0.2342  0.3715 -0.0188
 4862TIP3    H136221   1.149   4.294   6.203 -0.5879  1.5554  1.1716
 4862TIP3    H236222   1.167   4.418   6.119 -0.0114  2.3228  2.3936
 4863TIP3   OH236223   1.045   6.552   7.496 -0.1399  0.2070  0.1852
 4863TIP3    H136224   1.089   6.590   7.572  0.2009  0.2156 -0.0166
 4863TIP3    H236225   0.954   6.580   7.505 -0.2723 -0.4360  1.0051
 4864TIP3   OH236226   2.890   6.464   7.447 -0.6380 -1.0768  0.1021
 4864TIP3    H136227   2.878   6.559   7.446  0.1821 -0.9669 -0.3511
 4864TIP3    H236228   2.981   6.452   7.474 -1.0582 -1.7823  1.2548
 4865TIP3   OH236229   0.386   5.608   7.281 -0.0781 -0.1862 -1.1172
 4865TIP3    H136230   0.354   5.601   7.371  0.2555  1.3767 -0.8537
 4865TIP3    H236231   0.319   5.564   7.229 -0.4589 -0.7859 -0.1423
 4866TIP3   OH236232   3.392   2.310   7.386 -0.3349 -0.2153  0.2042
 4866TIP3    H136233   3.395   2.232   7.440 -0.7488  0.3334  1.0347
 4866TIP3    H236234   3.359   2.279   7.301 -1.2015 -0.8148  0.7440
 4867TIP3   OH236235   2.756   4.724   7.134  0.0490  0.2465  0.0114
 4867TIP3    H136236   2.664   4.734   7.158  0.1069 -1.0264  0.8342
 4867TIP3    H236237   2.757   4.734   7.039 -1.0800 -0.6240 -0.1134
 4868TIP3   OH236238   3.678   2.884   7.143  0.0450  0.1517  0.3292
 4868TIP3    H136239   3.719   2.831   7.074 -1.6584 -1.2734  0.3584
 4868TIP3    H236240   3.750   2.904   7.203  0.6841 -2.7709  0.6911
 4869TIP3   OH236241   2.058   6.870   1.211 -0.1383 -0.0898  0.3137
 4869TIP3    H136242   2.045   6.916   1.293  0.0568  2.5525 -1.0293
 4869TIP3    H236243   2.139   6.820   1.224 -0.7740 -0.7487  2.0827
 4870TIP3   OH236244   0.507   5.663   1.255  0.1312 -0.1062  0.3447
 4870TIP3    H136245   0.579   5.619   1.210 -0.6201  1.5924 -2.7701
 4870TIP3    H236246   0.476   5.598   1.318  2.4491 -1.9713 -0.2763
 4871TIP3   OH236247   6.362   4.316   1.626  0.2445 -0.1006  0.5199
 4871TIP3    H136248   6.415   4.382   1.672 -0.0718  0.7516 -0.3218
 4871TIP3    H236249   6.288   4.365   1.591  0.2347 -0.8246 -0.4954
 4872TIP3   OH236250   3.675   0.055   8.052 -0.3864  0.7139 -0.8119
 4872TIP3    H136251   3.676   0.044   7.957 -1.3119  0.8662 -0.8436
 4872TIP3    H236252   3.605  -0.003   8.083  0.8929 -0.4962 -0.0632
 4873TIP3   OH236253   4.625   0.364   7.785  0.1801  0.1734 -0.3412
 4873TIP3    H136254   4.720   0.370   7.776  0.2643 -0.3654  0.1370
 4873TIP3    H236255   4.593   0.349   7.696  0.5449  0.3053 -0.4955
 4874TIP3   OH236256   4.474   0.815   8.118  0.1428 -0.0409 -0.4874
 4874TIP3    H136257   4.388   0.776   8.133 -0.0639  0.9059  1.1137
 4874TIP3    H236258   4.466   0.864   8.037 -1.2741  1.1317  0.3185
 4875TIP3   OH236259   5.925   4.331   7.439  0.3720  0.1771 -0.3205
 4875TIP3    H136260   5.835   4.365   7.441  0.1064 -0.4983  1.4890
 4875TIP3    H236261   5.980   4.409   7.442 -0.1986  0.5667  0.6725
 4876TIP3   OH236262   2.240   6.680   2.231 -0.0480 -0.3706  0.1412
 4876TIP3    H136263   2.248   6.640   2.318  0.3239  0.2813  0.4127
 4876TIP3    H236264   2.151   6.716   2.229  0.0642 -0.0688  0.3958
 4877TIP3   OH236265   4.977   0.221   1.204  0.1825  0.1678 -0.0673
 4877TIP3    H136266   5.068   0.221   1.174 -0.8178 -0.9666 -3.5253
 4877TIP3    H236267   4.969   0.140   1.255  0.6656 -0.8606 -1.5433
 4878TIP3   OH236268   6.118   2.841   7.493 -0.0142  0.0991  0.3548
 4878TIP3    H136269   6.025   2.825   7.476  0.4316 -0.1956 -2.1404
 4878TIP3    H236270   6.155   2.753   7.503 -0.1191  0.2354  2.4877
 4879TIP3   OH236271   2.756   6.112   7.971  0.2955 -0.4730  0.2347
 4879TIP3    H136272   2.711   6.074   8.046 -1.2385 -0.8993 -0.8337
 4879TIP3    H236273   2.796   6.037   7.926  0.2590 -0.3706  0.0279
 4880TIP3   OH236274   3.662   0.965   1.482  0.4360 -0.1731  0.0547
 4880TIP3    H136275   3.652   1.052   1.442  0.2458  1.0942  2.6500
 4880TIP3    H236276   3.578   0.948   1.523  0.1584 -2.0796 -1.1747
 4881TIP3   OH236277   4.096   4.726   0.559  0.4488  0.1788 -0.5894
 4881TIP3    H136278   4.191   4.735   0.545  1.1248 -4.5695 -0.5650
 4881TIP3    H236279   4.065   4.675   0.485 -1.9359  0.6144  0.0317
 4882TIP3   OH236280   2.572   0.715   6.527  0.4541 -0.2945 -0.5695
 4882TIP3    H136281   2.614   0.646   6.476 -0.0174  0.7362 -2.4643
 4882TIP3    H236282   2.642   0.780   6.540  0.9028 -1.0965  1.2235
 4883TIP3   OH236283   1.465   0.712   0.205  0.2389  0.4594 -0.4781
 4883TIP3    H136284   1.513   0.679   0.128 -1.9608 -2.7747 -0.6521
 4883TIP3    H236285   1.388   0.755   0.168  0.1961  0.7193 -0.0863
 4884TIP3   OH236286   1.110   5.958   1.628  0.3616 -0.0548  0.1978
 4884TIP3    H136287   1.175   5.996   1.687 -2.1125  1.1275  2.4146
 4884TIP3    H236288   1.039   6.022   1.628 -0.5725 -0.9560 -2.6259
 4885TIP3   OH236289   3.628   3.443   8.286  0.1921 -0.1280 -0.3565
 4885TIP3    H136290   3.600   3.465   8.374  0.1628  1.0834 -0.6548
 4885TIP3    H236291   3.681   3.364   8.296 -0.1188 -0.2149  0.6849
 4886TIP3   OH236292   3.952   4.393   1.645  0.0129  0.0073 -0.2038
 4886TIP3    H136293   3.957   4.475   1.595 -0.2580 -0.2981 -0.7386
 4886TIP3    H236294   4.042   4.363   1.651  0.3103  1.0473  1.2040
 4887TIP3   OH236295   3.939   2.885   1.289 -0.3088 -0.1820 -0.5399
 4887TIP3    H136296   3.847   2.898   1.313 -0.0765  1.6050 -0.4984
 4887TIP3    H236297   3.940   2.889   1.194 -0.3208 -0.6074 -0.5597
 4888TIP3   OH236298   4.672   4.140   0.941  0.4047  0.4259  0.3987
 4888TIP3    H136299   4.649   4.048   0.929  0.1460  0.2722  1.8074
 4888TIP3    H236300   4.763   4.138   0.971  0.7608  0.7157 -0.6255
 4889TIP3   OH236301   0.907   3.848   8.483 -0.6540 -0.1197  0.2382
 4889TIP3    H136302   0.895   3.770   8.430 -0.1703  0.5207 -0.8337
 4889TIP3    H236303   0.929   3.815   8.570 -0.5068 -1.1792 -0.1948
 4890TIP3   OH236304   1.149   0.689   0.802 -0.1466 -0.5081 -0.2203
 4890TIP3    H136305   1.203   0.706   0.879 -0.0200  0.5921 -0.5357
 4890TIP3    H236306   1.095   0.614   0.827 -0.3166  0.0041  1.0490
 4891TIP3   OH236307   2.329   4.745   6.167 -0.0757 -0.3811  0.0968
 4891TIP3    H136308   2.287   4.686   6.230  0.5179 -0.9454 -0.0230
 4891TIP3    H236309   2.415   4.706   6.152  0.2728  0.4489 -0.0951
 4892TIP3   OH236310   6.263   0.758   1.762 -0.3767  0.0944  0.2153
 4892TIP3    H136311   6.302   0.844   1.772  0.6316 -0.4838  1.5526
 4892TIP3    H236312   6.331   0.704   1.723 -0.9842 -0.1247 -0.5716
 4893TIP3   OH236313   6.846   2.622   2.782 -0.1959  0.1283 -0.0356
 4893TIP3    H136314   6.810   2.561   2.846 -0.0550  1.1560  1.0597
 4893TIP3    H236315   6.925   2.580   2.750  0.0387 -0.1707  0.8939
 4894TIP3   OH236316   3.837   5.719   0.648  0.3629  0.1013 -0.3938
 4894TIP3    H136317   3.798   5.673   0.722 -1.5411  1.2440 -0.6038
 4894TIP3    H236318   3.888   5.653   0.602 -1.1798 -1.4793  0.0574
 4895TIP3   OH236319   5.592   3.641   8.311 -0.0052  0.3675  0.2028
 4895TIP3    H136320   5.647   3.621   8.236  1.4316 -0.4181  1.4159
 4895TIP3    H236321   5.518   3.690   8.274  0.0774 -0.9374 -1.8500
 4896TIP3   OH236322   5.909   2.839   2.105 -0.4512 -0.1247  0.3262
 4896TIP3    H136323   5.912   2.932   2.125 -0.9869  0.7177 -2.9091
 4896TIP3    H236324   5.997   2.807   2.126 -0.4085  0.9426  1.9579
 4897TIP3   OH236325   5.566   3.568   0.540  0.0876  0.4850 -0.0188
 4897TIP3    H136326   5.483   3.522   0.554 -0.7640  1.1784 -2.3229
 4897TIP3    H236327   5.550   3.623   0.463  2.4492  1.2797 -0.0151
 4898TIP3   OH236328   6.622   1.024   8.327  0.2054 -0.1487 -0.1129
 4898TIP3    H136329   6.586   1.031   8.238  2.5655 -0.1304 -1.1551
 4898TIP3    H236330   6.590   0.940   8.359 -1.6773  0.3932 -0.4723
 4899TIP3   OH236331   0.089   4.061   1.658 -0.6976 -0.5850 -0.0123
 4899TIP3    H136332   0.168   4.112   1.678 -0.2441 -1.6403  0.9608
 4899TIP3    H236333   0.045   4.050   1.742 -2.3980  0.7694 -0.6701
 4900TIP3   OH236334   4.651   2.573   1.553  0.2529 -0.2434  0.6405
 4900TIP3    H136335   4.667   2.604   1.464  0.1132 -1.4342  0.1740
 4900TIP3    H236336   4.627   2.651   1.603 -0.2491  0.3537 -0.5036
 4901TIP3   OH236337   2.312   1.776   2.503  0.3871  0.3269 -0.1525
 4901TIP3    H136338   2.320   1.691   2.460 -1.1200  0.2605 -0.3537
 4901TIP3    H236339   2.389   1.825   2.474  1.3186 -0.9838  0.0387
 4902TIP3   OH236340   3.940   6.007   7.864 -0.0229  0.3737 -0.0566
 4902TIP3    H136341   3.907   5.934   7.917 -2.0035  1.1598 -0.1044
 4902TIP3    H236342   3.862   6.044   7.824  1.2213  0.9735 -2.0673
 4903TIP3   OH236343   5.713   3.012   6.422 -0.3415  0.0743 -0.0323
 4903TIP3    H136344   5.673   2.928   6.400 -3.0126  1.4110 -0.6055
 4903TIP3    H236345   5.679   3.073   6.357  1.7114  1.5997  0.2331
 4904TIP3   OH236346   5.157   0.546   6.384  0.6376  0.2736 -0.1750
 4904TIP3    H136347   5.097   0.616   6.408  1.3254  0.9099 -0.2859
 4904TIP3    H236348   5.099   0.474   6.356 -0.0783  0.6779  0.2226
 4905TIP3   OH236349   1.930   1.325   1.411 -0.6515 -0.4799  0.6105
 4905TIP3    H136350   1.879   1.312   1.492 -2.7058 -0.3294 -0.5940
 4905TIP3    H236351   1.979   1.243   1.401 -0.6194 -0.6380  1.8085
 4906TIP3   OH236352   3.006   6.464   8.441  1.0119  0.7853  0.1747
 4906TIP3    H136353   2.945   6.498   8.375 -2.2928  0.2968  2.6629
 4906TIP3    H236354   3.044   6.386   8.401 -1.5941 -0.0387 -0.9501
 4907TIP3   OH236355   2.903   2.435   8.451 -0.5192 -0.0921 -0.1293
 4907TIP3    H136356   2.865   2.369   8.509 -1.5695  0.6226  0.0304
 4907TIP3    H236357   2.846   2.436   8.374 -0.1398  0.1776 -0.4135
 4908TIP3   OH236358   2.640   4.957   1.511  0.6167  0.1712  0.0920
 4908TIP3    H136359   2.711   4.946   1.573  2.2211 -0.8158 -1.7937
 4908TIP3    H236360   2.622   5.051   1.511  1.5180  0.3598  1.0336
 4909TIP3   OH236361   2.950   6.175   7.469 -0.5919 -0.2926 -0.0375
 4909TIP3    H136362   2.952   6.201   7.561  1.1708  4.2191 -1.1034
 4909TIP3    H236363   2.996   6.091   7.467  2.0587  0.8921  2.9116
 4910TIP3   OH236364   4.350   6.862   0.735  0.0618 -0.6357  0.1837
 4910TIP3    H136365   4.277   6.912   0.699 -1.0592 -2.4532 -0.1987
 4910TIP3    H236366   4.407   6.845   0.659 -0.7126 -1.8040 -0.1695
 4911TIP3   OH236367   1.749   1.803   7.863  0.2121 -0.0157 -0.6891
 4911TIP3    H136368   1.800   1.839   7.936  0.1847  0.8094 -1.0742
 4911TIP3    H236369   1.776   1.711   7.859 -0.4149 -0.3110  0.9092
 4912TIP3   OH236370   2.549   4.376   8.227  0.5036  0.2120  0.5109
 4912TIP3    H136371   2.611   4.347   8.294  1.5681  0.1416 -0.4753
 4912TIP3    H236372   2.467   4.332   8.251  0.9891 -0.2247  1.4657
 4913TIP3   OH236373   3.617   3.150   1.814  0.0234 -0.1197 -0.1526
 4913TIP3    H136374   3.644   3.062   1.842 -1.1086 -0.5918 -0.4772
 4913TIP3    H236375   3.558   3.134   1.740  0.3496  0.9559 -0.6510
 4914TIP3   OH236376   5.987   2.237   1.107  0.0330  0.0528 -0.6546
 4914TIP3    H136377   6.018   2.277   1.187  0.5527 -0.6900 -0.4734
 4914TIP3    H236378   5.941   2.307   1.060  0.2732  0.6436 -0.0055
 4915TIP3   OH236379   1.377   6.807   1.052 -0.2251 -0.2489  0.5682
 4915TIP3    H136380   1.299   6.799   1.107  0.8060 -1.7557  1.9345
 4915TIP3    H236381   1.381   6.724   1.004  1.1206 -0.7173  1.4208
 4916TIP3   OH236382   1.532   6.948   0.007 -0.0327 -0.1595  0.1315
 4916TIP3    H136383   1.444   6.920  -0.018  0.3250 -0.5813 -0.7303
 4916TIP3    H236384   1.528   6.960   0.101 -0.5398 -2.0074  0.3936
 4917TIP3   OH236385   0.709   5.824   0.012  0.0259  0.4765  0.1352
 4917TIP3    H136386   0.695   5.840   0.106 -1.5252  1.1430 -0.1873
 4917TIP3    H236387   0.798   5.788   0.008 -0.7217 -1.9948  2.1554
 4918TIP3   OH236388   5.312   0.557   1.587 -0.1101  0.1073 -0.2776
 4918TIP3    H136389   5.295   0.552   1.493  2.2562 -0.5706 -0.7194
 4918TIP3    H236390   5.330   0.650   1.603  0.1551  0.1134 -0.6102
 4919TIP3   OH236391   6.260   5.736   2.575  0.0415  0.2870 -0.3165
 4919TIP3    H136392   6.298   5.662   2.528  1.0575  0.9902 -0.6248
 4919TIP3    H236393   6.257   5.806   2.511  2.0169  1.4484  0.7680
 4920TIP3   OH236394   3.029   4.157   8.245  0.3658  0.1968  0.0378
 4920TIP3    H136395   3.070   4.172   8.331  0.0250  2.1549 -0.0968
 4920TIP3    H236396   3.041   4.063   8.229 -0.3745 -0.4169  2.6256
 4921TIP3   OH236397   5.071   3.889   0.437 -0.2336 -0.0206  0.2458
 4921TIP3    H136398   5.114   3.830   0.375  1.9834 -1.5224  3.0013
 4921TIP3    H236399   4.981   3.857   0.443  0.0073 -0.9450 -0.8341
 4922TIP3   OH236400   0.992   3.056   2.548  0.1412  0.1387  0.1106
 4922TIP3    H136401   0.984   3.129   2.610  2.3225 -1.1998  2.1221
 4922TIP3    H236402   1.083   3.029   2.555 -0.5889 -2.8077 -0.5280
 4923TIP3   OH236403   2.549   4.226   6.669  0.2569  0.1281 -0.2092
 4923TIP3    H136404   2.522   4.291   6.604 -0.1964  0.7109  0.5312
 4923TIP3    H236405   2.498   4.148   6.648 -0.3874  0.5252 -0.1544
 4924TIP3   OH236406   3.839   5.137   1.779 -0.3299 -0.2757  0.7745
 4924TIP3    H136407   3.924   5.139   1.734 -0.3026 -0.8732  0.7937
 4924TIP3    H236408   3.778   5.172   1.715 -0.3274 -1.3239  0.1713
 4925TIP3   OH236409   0.913   6.218   2.053  0.7866 -0.6056  0.7124
 4925TIP3    H136410   0.978   6.198   1.986 -0.5016 -0.4409 -0.6250
 4925TIP3    H236411   0.964   6.224   2.134  2.6737  1.1981 -0.5239
 4926TIP3   OH236412   6.406   4.413   7.727 -0.4728  0.4948 -0.4617
 4926TIP3    H136413   6.352   4.383   7.654  0.3244 -0.2201 -0.7740
 4926TIP3    H236414   6.348   4.411   7.803 -1.2300  0.9665 -1.0126
 4927TIP3   OH236415   3.891   1.562   6.811  0.0059  0.0571 -0.3201
 4927TIP3    H136416   3.909   1.526   6.725 -1.4978 -1.0270 -0.2178
 4927TIP3    H236417   3.911   1.656   6.803  2.1790 -0.4269 -1.1255
 4928TIP3   OH236418   0.292   4.790   0.430  0.0490 -0.2447  0.9395
 4928TIP3    H136419   0.217   4.840   0.398 -1.6233 -3.3582 -0.5686
 4928TIP3    H236420   0.343   4.771   0.351 -0.0745 -1.8685  1.2027
 4929TIP3   OH236421   5.959   1.111   7.328  0.2435  0.6835  0.4726
 4929TIP3    H136422   5.967   1.036   7.269 -1.4094  0.7025  0.1731
 4929TIP3    H236423   6.036   1.165   7.309 -0.7822  1.2855 -2.5724
 4930TIP3   OH236424   5.495   1.369   7.064 -0.0106  0.3848  0.2595
 4930TIP3    H136425   5.453   1.327   7.138 -1.6626 -0.8399 -1.2762
 4930TIP3    H236426   5.554   1.302   7.029 -2.1305 -0.5507 -1.7775
 4931TIP3   OH236427   4.357   1.168   1.907 -0.0839 -0.5120  0.4481
 4931TIP3    H136428   4.437   1.129   1.942 -0.9724 -1.4564  1.4918
 4931TIP3    H236429   4.293   1.159   1.977 -1.4352 -0.8268 -0.7768
 4932TIP3   OH236430   2.152   1.397   6.939 -0.2207 -0.1996  0.2727
 4932TIP3    H136431   2.238   1.437   6.938 -0.5915  0.6415  0.9789
 4932TIP3    H236432   2.153   1.339   7.016 -1.7241  3.2071  3.1286
 4933TIP3   OH236433   1.414   4.744   1.652 -0.4551  0.0393 -0.2639
 4933TIP3    H136434   1.320   4.747   1.631 -0.9669 -2.3827  1.3335
 4933TIP3    H236435   1.419   4.772   1.743  0.7087  2.0969 -0.8800
 4934TIP3   OH236436   0.375   1.485   7.503 -0.2742  0.2894  0.0122
 4934TIP3    H136437   0.295   1.484   7.555  0.5086 -1.0228  1.2759
 4934TIP3    H236438   0.386   1.576   7.477 -2.9551  0.2754 -1.5155
 4935TIP3   OH236439   2.187   4.093   2.306 -0.0391  0.1421 -0.4778
 4935TIP3    H136440   2.115   4.036   2.280  0.4915  0.2348 -2.3125
 4935TIP3    H236441   2.259   4.034   2.325  0.1415  0.1312 -1.1624
 4936TIP3   OH236442   1.808   0.943   8.220  0.3344  0.4548 -0.0589
 4936TIP3    H136443   1.855   0.956   8.138 -0.7163 -0.7929 -0.8841
 4936TIP3    H236444   1.837   1.016   8.276 -0.1208  2.2598 -2.0495
 4937TIP3   OH236445   3.979   0.376   1.586 -0.1943  0.3912  0.2086
 4937TIP3    H136446   4.073   0.384   1.571  0.0132  1.8073  1.9646
 4937TIP3    H236447   3.966   0.283   1.603  0.0788 -0.7360 -4.4013
 4938TIP3   OH236448   0.213   1.826   1.388 -0.0273  0.2247  0.5381
 4938TIP3    H136449   0.230   1.919   1.398  0.0303  0.1305  1.3380
 4938TIP3    H236450   0.285   1.794   1.334  0.8256  0.3468  1.5890
 4939TIP3   OH236451   3.706   2.426   6.303 -0.0003 -0.4985 -0.2636
 4939TIP3    H136452   3.630   2.372   6.325  0.2478 -0.2787  1.2644
 4939TIP3    H236453   3.672   2.516   6.302  0.3717 -0.3144  1.2694
 4940TIP3   OH236454   5.940   6.784   7.758 -0.3646  0.0519  0.1949
 4940TIP3    H136455   5.886   6.722   7.708 -0.0349 -0.0696 -0.0088
 4940TIP3    H236456   5.971   6.846   7.693 -0.3585  0.1946  0.3344
 4941TIP3   OH236457   3.820   4.327   0.285 -0.3456  0.4261 -0.4736
 4941TIP3    H136458   3.825   4.406   0.340 -1.5083  0.6666 -0.6940
 4941TIP3    H236459   3.758   4.270   0.330 -1.1973  0.5624 -1.4293
 4942TIP3   OH236460   5.051   2.251   6.613  0.3650  0.9262  0.0427
 4942TIP3    H136461   4.984   2.260   6.545  1.0033 -1.9453 -1.1454
 4942TIP3    H236462   5.002   2.248   6.695 -0.9262 -0.2053 -0.7179
 4943TIP3   OH236463   0.687   0.501   0.457 -0.1167  0.3130  0.3213
 4943TIP3    H136464   0.718   0.591   0.467  3.2536 -0.5420 -1.0865
 4943TIP3    H236465   0.684   0.486   0.362 -1.0560 -0.9704  0.5122
 4944TIP3   OH236466   3.724   4.379   1.852 -0.1774  0.1706  0.8760
 4944TIP3    H136467   3.710   4.461   1.900 -3.2361  0.5703 -0.4806
 4944TIP3    H236468   3.779   4.404   1.778 -0.4965  0.8651  0.8630
 4945TIP3   OH236469   4.859   2.487   0.052  0.3021  0.9102  0.3078
 4945TIP3    H136470   4.812   2.570   0.041 -1.1462  0.0769 -0.1324
 4945TIP3    H236471   4.790   2.420   0.045  1.7279 -0.4595 -1.8122
 4946TIP3   OH236472   3.399   1.356   7.251 -0.2893  0.0437 -0.3791
 4946TIP3    H136473   3.427   1.438   7.210  1.5045 -0.3310 -0.0113
 4946TIP3    H236474   3.406   1.374   7.345  0.7589 -0.7217 -0.3011
 4947TIP3   OH236475   1.885   0.461   7.705 -0.4483  0.0486  0.4949
 4947TIP3    H136476   1.904   0.371   7.679 -0.0448 -0.0947  1.2651
 4947TIP3    H236477   1.958   0.486   7.762 -1.2469  0.3892  1.3907
 4948TIP3   OH236478   4.105   1.450   0.727  0.2811 -0.2782  0.3115
 4948TIP3    H136479   4.108   1.545   0.717 -2.3530 -0.0564  0.8942
 4948TIP3    H236480   4.186   1.419   0.686  0.5340  2.0972 -1.1774
 4949TIP3   OH236481   1.810   6.093   6.878 -0.5826 -0.4153  0.7974
 4949TIP3    H136482   1.831   6.065   6.788 -0.9544  0.6951  0.3418
 4949TIP3    H236483   1.716   6.077   6.887 -0.5805 -0.3624  0.9153
 4950TIP3   OH236484   3.539   5.183   7.925  0.2136 -0.1700 -0.2081
 4950TIP3    H136485   3.522   5.256   7.985 -2.2200 -0.4887 -0.3993
 4950TIP3    H236486   3.631   5.160   7.939  0.6002  1.8955  0.9905
 4951TIP3   OH236487   0.286   4.184   8.109  0.0703  0.5333  0.6372
 4951TIP3    H136488   0.283   4.164   8.015 -0.1589  1.1442  0.5103
 4951TIP3    H236489   0.358   4.131   8.142 -2.3466 -2.9157  0.9068
 4952TIP3   OH236490   2.419   1.185   6.997  0.1481 -0.3032  0.2542
 4952TIP3    H136491   2.334   1.173   7.040 -0.4084  0.6696 -0.5026
 4952TIP3    H236492   2.462   1.254   7.048 -0.2026  0.3315 -0.2922
 4953TIP3   OH236493   0.337   4.502   7.225  0.1159 -0.4175 -0.0936
 4953TIP3    H136494   0.251   4.461   7.216  0.7492 -1.6327 -0.8737
 4953TIP3    H236495   0.339   4.568   7.156 -1.5026  2.1470  2.1249
 4954TIP3   OH236496   6.924   3.753   1.880 -0.3332 -0.6276  1.3243
 4954TIP3    H136497   6.949   3.842   1.854  3.0884 -1.4720  1.2238
 4954TIP3    H236498   6.929   3.754   1.976 -0.3405 -0.6847  1.3252
 4955TIP3   OH236499   2.106   5.436   7.049  0.2553 -0.2950  0.1359
 4955TIP3    H136500   2.079   5.520   7.012  0.7649  0.1255  0.7069
 4955TIP3    H236501   2.192   5.419   7.009 -0.2227 -0.9768 -0.6440
 4956TIP3   OH236502   1.269   3.433   1.043 -0.3691 -0.8641 -0.3780
 4956TIP3    H136503   1.181   3.427   1.081  0.1437 -1.1069  0.8285
 4956TIP3    H236504   1.298   3.342   1.036  0.5038 -0.7257  1.0487
 4957TIP3   OH236505   6.904   3.534   6.693 -0.1019  0.2112 -0.1264
 4957TIP3    H136506   6.857   3.590   6.631 -0.6232 -0.7889 -0.6629
 4957TIP3    H236507   6.996   3.550   6.674 -0.2550  0.0503 -1.0540
 4958TIP3   OH236508   2.485   0.392   6.541 -0.0762  0.1002 -0.2882
 4958TIP3    H136509   2.556   0.383   6.478  0.4097 -0.1736  0.2932
 4958TIP3    H236510   2.433   0.313   6.530  0.0189  0.0433 -0.3299
 4959TIP3   OH236511   4.217   3.728   6.429 -0.2453 -0.4234 -0.2660
 4959TIP3    H136512   4.287   3.792   6.437 -1.0398  0.2839  2.1670
 4959TIP3    H236513   4.167   3.756   6.352  0.5916  0.6722 -0.4330
 4960TIP3   OH236514   3.987   3.163   7.472 -0.0283 -0.4040  0.4239
 4960TIP3    H136515   3.928   3.093   7.446  0.1598 -0.2301 -0.5091
 4960TIP3    H236516   3.969   3.177   7.565 -1.8753  0.0433  0.0337
 4961TIP3   OH236517   1.879   6.332   1.895 -0.2961  0.1077  0.1726
 4961TIP3    H136518   1.939   6.259   1.880 -0.4091  0.1114 -0.2998
 4961TIP3    H236519   1.935   6.405   1.922 -0.0792  0.1402 -0.3638
 4962TIP3   OH236520   2.614   2.101   6.791 -0.2107 -0.1153 -0.0664
 4962TIP3    H136521   2.555   2.055   6.850  0.1014 -1.2964 -0.6470
 4962TIP3    H236522   2.570   2.184   6.773 -1.8558 -1.0944 -0.7244
 4963TIP3   OH236523   4.616   6.533   8.053 -0.9731  0.0769  0.0386
 4963TIP3    H136524   4.709   6.545   8.035 -0.0184 -0.5671  3.8151
 4963TIP3    H236525   4.575   6.612   8.019  1.4754  2.0076  1.2650
 4964TIP3   OH236526   6.264   3.929   6.347 -0.5300 -0.2444  0.1531
 4964TIP3    H136527   6.225   3.859   6.296 -0.6305 -0.4565  0.5200
 4964TIP3    H236528   6.225   3.921   6.434  0.1253 -0.2945  0.4496
 4965TIP3   OH236529   5.891   5.826   1.093 -0.2679 -0.0954  0.1118
 4965TIP3    H136530   5.805   5.834   1.134 -0.5665  0.5448 -0.6110
 4965TIP3    H236531   5.946   5.890   1.139 -1.1377  2.1769 -1.7769
 4966TIP3   OH236532   0.648   0.053   6.329  0.6977 -0.7798 -0.0380
 4966TIP3    H136533   0.669  -0.040   6.336  0.2679 -0.7948  1.3930
 4966TIP3    H236534   0.554   0.058   6.348  0.0461 -0.3486 -3.0000
 4967TIP3   OH236535   3.509   4.497   7.685  0.3680 -0.7729 -0.1121
 4967TIP3    H136536   3.453   4.567   7.717 -1.1682 -2.0642  0.1503
 4967TIP3    H236537   3.576   4.487   7.753 -0.0652 -0.3176  0.3935
 4968TIP3   OH236538   5.261   0.320   7.705  0.1044  0.0145  0.3441
 4968TIP3    H136539   5.260   0.229   7.736  0.0257 -0.4475 -0.9488
 4968TIP3    H236540   5.316   0.366   7.767  1.1742 -1.1830  0.3236
 4969TIP3   OH236541   1.325   3.904   0.757 -0.5111  0.5849 -0.7253
 4969TIP3    H136542   1.275   3.822   0.750  0.4637  0.0106 -1.1680
 4969TIP3    H236543   1.272   3.959   0.814 -1.8962  0.1851 -1.5621
 4970TIP3   OH236544   3.830   6.915   6.874 -0.4947  0.2594 -0.7770
 4970TIP3    H136545   3.833   6.827   6.913  2.2658  0.6827  0.2151
 4970TIP3    H236546   3.848   6.901   6.781 -0.2317 -0.2197 -0.6571
 4971TIP3   OH236547   6.343   6.091   6.806  0.1033  0.1786  0.2281
 4971TIP3    H136548   6.403   6.155   6.767 -0.6389  1.3441  0.9272
 4971TIP3    H236549   6.396   6.012   6.815  0.5137  0.0548 -2.4196
 4972TIP3   OH236550   4.586   0.824   2.629  0.5152 -0.0205 -0.0090
 4972TIP3    H136551   4.612   0.766   2.558  1.0457  1.5761 -1.1676
 4972TIP3    H236552   4.492   0.837   2.616  0.8176  1.2353 -1.2264
 4973TIP3   OH236553   6.064   3.373   1.198 -0.4775 -0.3604 -0.1244
 4973TIP3    H136554   6.139   3.321   1.170 -1.2412 -0.8874 -1.2690
 4973TIP3    H236555   6.098   3.462   1.205  0.0521 -0.4139 -1.6335
 4974TIP3   OH236556   0.069   0.205   8.357 -0.1180 -0.0030  0.2778
 4974TIP3    H136557   0.129   0.260   8.406 -1.2423  1.6872 -0.1726
 4974TIP3    H236558   0.124   0.157   8.296  0.9299  0.2945  0.9640
 4975TIP3   OH236559   6.385   2.227   0.161  0.1916 -0.1035  0.3626
 4975TIP3    H136560   6.353   2.208   0.249 -0.0089  0.0533  0.3262
 4975TIP3    H236561   6.306   2.229   0.107  0.1438  1.2946  0.4515
 4976TIP3   OH236562   4.299   1.037   0.352  0.0976  0.0370  0.0013
 4976TIP3    H136563   4.259   0.986   0.281 -2.0546 -0.2581  1.3241
 4976TIP3    H236564   4.321   0.971   0.418 -1.9419  0.6484  1.3785
 4977TIP3   OH236565   1.748   1.932   0.754 -0.4722  0.1070  0.4810
 4977TIP3    H136566   1.798   2.000   0.709 -1.9067 -0.6296 -2.4141
 4977TIP3    H236567   1.663   1.931   0.711 -0.5563 -3.4556  0.4389
 4978TIP3   OH236568   0.248   4.575   0.839 -0.2332 -0.1830 -0.7912
 4978TIP3    H136569   0.234   4.656   0.889  2.1637  1.1184 -2.0796
 4978TIP3    H236570   0.183   4.579   0.769 -1.2575 -0.2585  0.1256
 4979TIP3   OH236571   0.546   2.440   2.309  0.1599  0.1597  0.4002
 4979TIP3    H136572   0.600   2.458   2.233 -0.2743  2.7769  0.6411
 4979TIP3    H236573   0.605   2.447   2.384 -0.0395  0.6775  0.5098
 4980TIP3   OH236574   5.063   4.455   8.203 -0.4393  0.3013  0.0802
 4980TIP3    H136575   5.074   4.548   8.221 -1.8933  0.6625 -0.7582
 4980TIP3    H236576   5.103   4.442   8.117 -0.0467  0.1088  0.2924
 4981TIP3   OH236577   6.229   2.513   7.038  0.6707  0.1477 -0.2620
 4981TIP3    H136578   6.319   2.486   7.053  2.0875  2.6343 -3.2488
 4981TIP3    H236579   6.215   2.497   6.944 -1.4619  1.2378 -0.1817
 4982TIP3   OH236580   0.167   3.908   8.123  0.0404 -0.1707  0.0845
 4982TIP3    H136581   0.156   3.989   8.173 -1.2337 -1.2081  1.5489
 4982TIP3    H236582   0.239   3.862   8.167 -0.1900 -0.4834  0.1349
 4983TIP3   OH236583   5.854   4.556   8.269  0.2240 -0.6554  0.4071
 4983TIP3    H136584   5.883   4.597   8.187  1.4909  0.3519  1.3190
 4983TIP3    H236585   5.829   4.467   8.244  0.6597 -0.3959 -1.0589
 4984TIP3   OH236586   0.512   4.579   1.505  0.4197  0.0451 -0.0361
 4984TIP3    H136587   0.469   4.660   1.478 -0.8954  0.3626  2.6458
 4984TIP3    H236588   0.553   4.546   1.426 -0.3727  2.4857 -1.5784
 4985TIP3   OH236589   5.516   5.642   7.755  0.0495  0.4678 -0.3802
 4985TIP3    H136590   5.564   5.563   7.780 -0.7272  0.1123  0.0092
 4985TIP3    H236591   5.574   5.687   7.694 -0.1528 -1.1878 -1.8785
 4986TIP3   OH236592   0.621   3.775   8.008 -0.0070 -0.1927 -0.6036
 4986TIP3    H136593   0.684   3.704   8.021 -0.0769 -0.2780 -0.7270
 4986TIP3    H236594   0.593   3.766   7.917 -0.6802 -0.5535 -0.3666
 4987TIP3   OH236595   1.769   4.261   1.436 -0.3966  0.4511 -0.2824
 4987TIP3    H136596   1.765   4.340   1.490  0.5511  2.0354 -2.3915
 4987TIP3    H236597   1.720   4.195   1.486 -2.6646  2.7978  0.8117
 4988TIP3   OH236598   2.715   1.859   6.563  0.0707 -0.3895 -0.5038
 4988TIP3    H136599   2.664   1.789   6.605 -0.9766  1.4880  1.5212
 4988TIP3    H236600   2.651   1.904   6.507  0.2564  0.0860 -0.3379
 4989TIP3   OH236601   6.356   2.776   2.573 -0.1189  0.0355 -0.3307
 4989TIP3    H136602   6.447   2.746   2.570  0.5882  1.5727  2.4539
 4989TIP3    H236603   6.350   2.843   2.505  0.9745  0.2880 -0.1887
 4990TIP3   OH236604   1.629   4.376   7.399 -0.8024 -0.3600 -0.0752
 4990TIP3    H136605   1.644   4.469   7.380 -1.2127  0.1182  1.7219
 4990TIP3    H236606   1.716   4.336   7.394 -0.4990  0.2837 -0.0790
 4991TIP3   OH236607   4.406   6.890   7.192 -0.3013 -0.0944  0.2003
 4991TIP3    H136608   4.481   6.950   7.192  0.3921 -0.9198 -0.7166
 4991TIP3    H236609   4.381   6.882   7.284  0.5115  0.4731  0.4794
 4992TIP3   OH236610   1.349   6.491   7.618 -0.0686 -0.4459 -0.3527
 4992TIP3    H136611   1.397   6.570   7.597 -1.1304  0.0992 -0.7957
 4992TIP3    H236612   1.417   6.423   7.627  0.8009  0.3854 -0.4896
 4993TIP3   OH236613   5.155   5.159   6.855  0.0208 -0.1726  0.0371
 4993TIP3    H136614   5.199   5.187   6.935 -1.4891  1.9184  0.2116
 4993TIP3    H236615   5.222   5.167   6.787  0.7778 -0.0463  0.7876
 4994TIP3   OH236616   6.922   5.948   8.038  0.5889  0.1990  0.2844
 4994TIP3    H136617   6.946   6.028   8.084 -0.4601  1.0152 -0.5637
 4994TIP3    H236618   6.884   5.892   8.105  0.4315  0.7894  0.6916
 4995TIP3   OH236619   4.335   4.169   6.529 -0.3881  0.2158 -0.3640
 4995TIP3    H136620   4.312   4.238   6.467 -1.7781  0.9043  0.8401
 4995TIP3    H236621   4.316   4.208   6.615  1.0569 -0.8493  0.4805
 4996TIP3   OH236622   4.294   5.208   7.469 -0.4245  0.0124 -0.7069
 4996TIP3    H136623   4.281   5.218   7.375 -0.1848  1.9813 -0.5699
 4996TIP3    H236624   4.209   5.230   7.508 -0.7266 -1.4714 -0.4560
 4997TIP3   OH236625   3.033   2.723   0.158  0.3148  0.5072  0.4600
 4997TIP3    H136626   3.032   2.716   0.253  0.7149 -0.4272  0.4022
 4997TIP3    H236627   3.041   2.817   0.141 -0.1416  0.7098  1.3403
 4998TIP3   OH236628   0.739   6.662   7.997 -0.2309 -0.7754 -0.0282
 4998TIP3    H136629   0.708   6.750   8.021  0.5725 -0.7635  1.0288
 4998TIP3    H236630   0.672   6.603   8.030 -1.1544 -0.5519 -1.4001
 4999TIP3   OH236631   6.807   6.700   7.031  0.2385  0.2666  0.4341
 4999TIP3    H136632   6.730   6.758   7.034 -0.3486 -0.4770  0.1870
 4999TIP3    H236633   6.794   6.640   7.105  1.0310  0.6779  0.9138
 5000TIP3   OH236634   0.033   4.339   1.522  0.5342  0.3395  0.4040
 5000TIP3    H136635  -0.037   4.365   1.582 -0.1961  0.2866 -0.4100
 5000TIP3    H236636   0.039   4.244   1.531 -2.0254 -0.1841 -2.1367
 5001TIP3   OH236637   3.497   3.638   0.554  0.2093 -0.1711 -0.9551
 5001TIP3    H136638   3.576   3.691   0.542 -0.8437  0.9438 -3.8272
 5001TIP3    H236639   3.456   3.674   0.633  1.8871  0.0585 -0.1343
 5002TIP3   OH236640   1.295   4.409   6.614  0.1163  0.0967 -0.0132
 5002TIP3    H136641   1.258   4.492   6.582 -0.4216 -0.4088 -0.7285
 5002TIP3    H236642   1.338   4.433   6.696  0.4968  1.1952 -0.5132
 5003TIP3   OH236643   6.218   2.000   8.469 -0.0931  0.3961 -0.5572
 5003TIP3    H136644   6.238   1.912   8.437 -1.3818  0.0443 -0.4488
 5003TIP3    H236645   6.263   2.006   8.554  0.2970 -0.0128 -0.7295
 5004TIP3   OH236646   6.649   1.999   7.712 -0.1528  0.1392  0.4897
 5004TIP3    H136647   6.688   2.007   7.798 -1.7069 -1.3784  1.4084
 5004TIP3    H236648   6.678   1.914   7.679  0.7995  0.8970 -0.7170
 5005TIP3   OH236649   3.596   5.033   0.911 -0.1788  0.7615 -0.0171
 5005TIP3    H136650   3.683   5.071   0.918 -0.4609  1.5978 -0.8008
 5005TIP3    H236651   3.586   5.012   0.818 -0.7022  0.4058  0.1146
 5006TIP3   OH236652   6.233   1.999   8.119  0.8842  0.3562 -0.2484
 5006TIP3    H136653   6.241   2.084   8.163  3.0395 -0.2729  0.6981
 5006TIP3    H236654   6.210   1.938   8.189  1.5297 -0.1949 -0.5051
 5007TIP3   OH236655   2.087   0.891   2.078  0.0164 -0.2550 -0.3804
 5007TIP3    H136656   2.096   0.984   2.056  0.4363 -0.4620 -1.1150
 5007TIP3    H236657   2.136   0.845   2.010 -0.6793 -1.0523 -0.3649
 5008TIP3   OH236658   0.563   2.603   0.855  0.0309 -0.8363 -0.4217
 5008TIP3    H136659   0.521   2.535   0.908  0.7023 -0.4805  0.5980
 5008TIP3    H236660   0.525   2.592   0.768 -1.1589 -1.3928  0.1420
 5009TIP3   OH236661   5.720   3.258   0.296  0.1548 -0.2508 -0.4351
 5009TIP3    H136662   5.776   3.308   0.354  0.0621  0.4592 -0.9393
 5009TIP3    H236663   5.764   3.173   0.286  0.8267  0.0859 -0.3585
 5010TIP3   OH236664   1.027   5.163   2.088  0.0117 -0.7982  0.8596
 5010TIP3    H136665   1.034   5.108   2.167 -1.9355 -0.9089  1.0000
 5010TIP3    H236666   0.941   5.205   2.096  1.4678  2.5363  0.8960
 5011TIP3   OH236667   4.167   5.050   6.849  0.3590 -0.0574 -0.0887
 5011TIP3    H136668   4.164   4.957   6.873 -3.4113  0.3205  1.5421
 5011TIP3    H236669   4.161   5.050   6.753 -0.5502 -1.4965 -0.0560
 5012TIP3   OH236670   3.323   4.032   0.684  0.0802  0.2574 -0.1687
 5012TIP3    H136671   3.366   4.115   0.665 -1.4664  1.5765  1.6504
 5012TIP3    H236672   3.304   3.994   0.599  0.5745  1.9073 -1.0428
 5013TIP3   OH236673   4.587   4.892   6.741 -0.0960 -0.2817  0.0793
 5013TIP3    H136674   4.576   4.906   6.647  0.9516 -2.5940 -0.4642
 5013TIP3    H236675   4.615   4.800   6.749 -0.0137 -0.1210  2.6405
 5014TIP3   OH236676   3.840   3.545   2.266  0.3343 -0.0882  0.3086
 5014TIP3    H136677   3.822   3.506   2.351  0.2253  0.4489  0.5306
 5014TIP3    H236678   3.911   3.607   2.281  1.1287 -0.8475 -0.2182
 5015TIP3   OH236679   1.195   0.535   1.435  0.1711  0.4067  1.0606
 5015TIP3    H136680   1.245   0.469   1.386  0.1481  0.1409  1.3881
 5015TIP3    H236681   1.105   0.504   1.430  0.1981  0.2580  1.4577
 5016TIP3   OH236682   4.709   5.950   1.429  0.4242  0.7450  0.2275
 5016TIP3    H136683   4.684   5.887   1.361 -1.0936  0.3256  1.1283
 5016TIP3    H236684   4.732   6.029   1.381  1.0788 -0.0769 -0.8622
 5017TIP3   OH236685   5.974   1.027   0.107 -0.4019 -0.4703  0.0856
 5017TIP3    H136686   5.927   0.974   0.172 -1.3683  0.2165 -0.0264
 5017TIP3    H236687   5.930   1.009   0.025 -1.2098  1.0101  0.1586
 5018TIP3   OH236688   2.696   6.835   8.340 -0.3419 -0.3823 -0.1021
 5018TIP3    H136689   2.782   6.876   8.335 -0.3418 -0.2508  0.7580
 5018TIP3    H236690   2.643   6.897   8.391 -0.6731 -0.8969  0.1884
 5019TIP3   OH236691   5.193   1.074   1.415  0.9798  0.3498 -0.2108
 5019TIP3    H136692   5.241   1.131   1.355  0.1375 -0.1380 -1.3766
 5019TIP3    H236693   5.134   1.024   1.359  2.1598 -2.2060  0.6820
 5020TIP3   OH236694   6.117   0.258   7.311  0.2150  0.3405 -0.1627
 5020TIP3    H136695   6.139   0.192   7.245 -1.2979  0.0154 -0.3789
 5020TIP3    H236696   6.155   0.339   7.277  1.0911 -0.1833 -0.4751
 5021TIP3   OH236697   4.708   0.658   7.078  0.2434 -0.5541  0.8603
 5021TIP3    H136698   4.682   0.735   7.128  0.1044  1.7771 -2.5017
 5021TIP3    H236699   4.625   0.616   7.055  0.0670  0.3824 -0.2898
 5022TIP3   OH236700   3.179   3.732   8.337 -0.2572 -0.1603  0.1704
 5022TIP3    H136701   3.245   3.801   8.324 -0.8245  0.3528 -0.0214
 5022TIP3    H236702   3.228   3.650   8.330  0.0601  0.1533 -1.8113
 5023TIP3   OH236703   3.634   6.358   0.006 -0.2228  0.1363 -0.4189
 5023TIP3    H136704   3.583   6.286  -0.033  0.4739 -0.7039  0.1678
 5023TIP3    H236705   3.572   6.403   0.063  0.2938 -2.7849  2.7826
 5024TIP3   OH236706   0.002   3.786   2.153  0.0703  0.4520 -0.3007
 5024TIP3    H136707   0.033   3.875   2.171  1.2374  0.0170 -0.0787
 5024TIP3    H236708  -0.031   3.755   2.238  0.3975  0.3969 -0.1914
 5025TIP3   OH236709   6.549   5.618   2.236 -0.2947 -0.2046  0.1626
 5025TIP3    H136710   6.599   5.548   2.194 -0.0109  1.0556 -1.7239
 5025TIP3    H236711   6.606   5.695   2.232 -1.4910  0.7048  0.0337
 5026TIP3   OH236712   5.801   0.387   7.060  0.1323  0.2194  0.2346
 5026TIP3    H136713   5.767   0.472   7.089 -0.4692  0.8149 -1.9937
 5026TIP3    H236714   5.895   0.401   7.052 -0.0313  0.8773 -0.6667
 5027TIP3   OH236715   1.014   0.673   1.167  0.0073 -0.3095  0.8196
 5027TIP3    H136716   1.107   0.693   1.160  0.2128 -0.4739  2.5826
 5027TIP3    H236717   1.010   0.577   1.162 -0.0224 -0.3243  1.1106
 5028TIP3   OH236718   3.903   5.475   0.180 -0.4470 -0.1275  0.7470
 5028TIP3    H136719   3.903   5.551   0.239  2.1037  0.7369 -0.2309
 5028TIP3    H236720   3.852   5.504   0.104  0.3830  0.5998  0.4446
 5029TIP3   OH236721   6.423   3.311   6.760 -0.6282 -0.6236 -0.1065
 5029TIP3    H136722   6.505   3.360   6.754 -0.1147 -1.5141 -0.6019
 5029TIP3    H236723   6.391   3.330   6.848 -0.1907  0.1987 -0.1153
 5030TIP3   OH236724   2.823   5.866   7.308  0.1290  0.4156  0.7852
 5030TIP3    H136725   2.788   5.777   7.299  0.0306  0.6240 -1.6526
 5030TIP3    H236726   2.763   5.910   7.367 -0.8091 -0.6695  0.6797
 5031TIP3   OH236727   4.853   5.454   1.911  0.5830 -0.1039 -0.2448
 5031TIP3    H136728   4.875   5.509   1.986 -0.7408  0.0549  0.0464
 5031TIP3    H236729   4.865   5.365   1.942  1.0177 -0.0224 -0.1687
 5032TIP3   OH236730   3.098   2.604   8.292  0.1101  0.3251  0.1312
 5032TIP3    H136731   3.078   2.552   8.370  0.3727 -0.7665 -0.5243
 5032TIP3    H236732   3.018   2.598   8.239  1.1704 -1.9921 -1.3490
 5033TIP3   OH236733   1.964   0.557   0.736  0.0817 -0.5504 -0.6085
 5033TIP3    H136734   1.944   0.651   0.735 -0.8502 -0.6978 -3.1159
 5033TIP3    H236735   1.914   0.522   0.810  0.1118  0.8427  0.1032
 5034TIP3   OH236736   5.316   0.266   1.295  0.0187 -0.0734 -0.2135
 5034TIP3    H136737   5.360   0.266   1.210  1.7164  0.4507  0.6125
 5034TIP3    H236738   5.266   0.185   1.297  0.0205 -0.1341 -1.6666
 5035TIP3   OH236739   5.613   0.591   0.314 -0.5714 -0.3171  0.9129
 5035TIP3    H136740   5.657   0.533   0.375  2.4001 -0.2882 -0.9949
 5035TIP3    H236741   5.586   0.534   0.241  2.0212  0.4646 -0.7929
 5036TIP3   OH236742   5.516   1.445   2.225 -0.3715 -0.3501  0.5109
 5036TIP3    H136743   5.526   1.462   2.318 -0.1174 -2.0247  0.8181
 5036TIP3    H236744   5.459   1.368   2.220 -0.5074 -0.1980 -0.7132
 5037TIP3   OH236745   2.116   5.244   6.722  0.0740  0.2870  0.1864
 5037TIP3    H136746   2.023   5.261   6.732 -0.3931 -1.8894  0.0621
 5037TIP3    H236747   2.147   5.312   6.662 -1.1504  1.7440  1.1519
 5038TIP3   OH236748   4.655   5.926   6.993  0.2047 -0.3579  0.5860
 5038TIP3    H136749   4.588   5.974   7.043 -1.1619  1.3148 -2.5681
 5038TIP3    H236750   4.663   5.843   7.039 -3.8264 -0.5274  1.3832
 5039TIP3   OH236751   1.858   1.461   1.908 -0.3801  0.4793  0.1698
 5039TIP3    H136752   1.820   1.419   1.831 -0.7391  1.7313 -0.3547
 5039TIP3    H236753   1.825   1.410   1.982 -0.4749 -0.3985 -0.4550
 5040TIP3   OH236754   1.302   1.935   1.004 -0.2786  0.3403 -0.0435
 5040TIP3    H136755   1.260   1.918   0.919 -0.0621  0.9393 -0.2734
 5040TIP3    H236756   1.380   1.985   0.983 -0.4633  0.8938  0.5457
 5041TIP3   OH236757   3.372   0.284   1.718  0.4383 -0.3321 -0.2046
 5041TIP3    H136758   3.301   0.230   1.683 -0.6919 -1.1171  2.9389
 5041TIP3    H236759   3.447   0.224   1.726 -0.0857 -0.8779  0.9882
 5042TIP3   OH236760   3.078   2.369   0.228 -0.4459  0.0475 -0.1600
 5042TIP3    H136761   3.128   2.399   0.304  1.1065 -0.4909 -0.9262
 5042TIP3    H236762   2.988   2.368   0.258  0.1789 -0.7246  1.8748
 5043TIP3   OH236763   5.500   0.285   2.188  0.1270 -0.1994  0.3872
 5043TIP3    H136764   5.523   0.272   2.280 -0.3342 -0.5114  0.4611
 5043TIP3    H236765   5.406   0.267   2.183  0.5457 -2.5407 -0.5514
 5044TIP3   OH236766   4.697   0.893   1.333 -0.0703 -0.1790  0.2934
 5044TIP3    H136767   4.672   0.813   1.287  0.7965 -0.9758  1.1329
 5044TIP3    H236768   4.633   0.958   1.306  0.4187 -0.5860 -2.0394
 5045TIP3   OH236769   6.399   5.364   8.282 -0.0498 -0.3058 -0.2594
 5045TIP3    H136770   6.367   5.360   8.192 -1.8017  2.1433  0.1446
 5045TIP3    H236771   6.332   5.320   8.334  0.9533 -1.7086 -0.0974
 5046TIP3   OH236772   0.283   1.992   1.909  0.5322  0.6173  0.4246
 5046TIP3    H136773   0.358   2.049   1.892  0.8216  0.1999  0.2873
 5046TIP3    H236774   0.302   1.912   1.860 -1.5267  1.6456 -2.3417
 5047TIP3   OH236775   3.885   2.805   2.517  0.4863 -0.1604  0.1123
 5047TIP3    H136776   3.884   2.783   2.610  1.3556 -0.1984  0.1170
 5047TIP3    H236777   3.801   2.771   2.484  0.3475 -0.5043  0.7919
 5048TIP3   OH236778   2.019   0.211   7.630  0.2303  0.5871  0.3988
 5048TIP3    H136779   2.051   0.133   7.585 -0.5296 -0.2981  1.3501
 5048TIP3    H236780   2.098   0.264   7.646  0.8918 -0.4186  0.5595
 5049TIP3   OH236781   1.033   4.837   8.499  0.7041 -0.2441  0.5881
 5049TIP3    H136782   1.097   4.838   8.570  0.7579 -1.0104  0.5600
 5049TIP3    H236783   0.985   4.919   8.508  1.0538 -0.1047  1.1928
 5050TIP3   OH236784   0.135   1.541   7.661  0.5619  0.0764  0.5713
 5050TIP3    H136785   0.116   1.624   7.617  1.7155 -0.4639 -1.0482
 5050TIP3    H236786   0.049   1.508   7.688 -0.1365  0.7455 -0.7312
 5051TIP3   OH236787   3.726   6.015   0.481 -0.0634  0.5642  0.1102
 5051TIP3    H136788   3.708   6.069   0.404 -1.4138  0.0888  0.0568
 5051TIP3    H236789   3.685   6.061   0.554 -1.4433 -0.4528  0.0249
 5052TIP3   OH236790   5.629   1.174   2.305  0.6672 -0.8899  0.1033
 5052TIP3    H136791   5.709   1.221   2.279  1.4312 -1.6865  0.9538
 5052TIP3    H236792   5.611   1.115   2.231  0.4675 -0.2305 -0.3856
 5053TIP3   OH236793   0.826   5.693   8.263 -0.4345 -0.3480 -0.3653
 5053TIP3    H136794   0.737   5.662   8.245 -0.4460 -1.3414  1.2163
 5053TIP3    H236795   0.882   5.637   8.209 -0.5948 -1.8756  0.9802
 5054TIP3   OH236796   4.079   5.296   6.959  0.0952 -0.1739 -0.0652
 5054TIP3    H136797   4.011   5.271   7.021  0.7157  0.5356  0.9463
 5054TIP3    H236798   4.109   5.213   6.922 -0.6659 -0.5684  0.1756
 5055TIP3   OH236799   4.429   3.920   6.439  0.0365 -0.4307  0.2695
 5055TIP3    H136800   4.397   4.007   6.466  1.1462 -0.2738  1.1501
 5055TIP3    H236801   4.497   3.939   6.375 -0.9754 -0.7330 -0.9230
 5056TIP3   OH236802   2.349   2.014   7.215  0.3447 -0.0170  0.6258
 5056TIP3    H136803   2.420   2.066   7.253  1.2416 -1.3870  0.9065
 5056TIP3    H236804   2.366   2.017   7.121  0.2522  0.3852  0.6195
 5057TIP3   OH236805   4.430   4.247   0.122  0.7156 -0.1889  0.1228
 5057TIP3    H136806   4.482   4.325   0.143  0.1689  0.0317  0.6874
 5057TIP3    H236807   4.365   4.279   0.059 -1.5483  0.6138  2.6732
 5058TIP3   OH236808   0.106   2.757   0.223 -0.2467  0.5164  0.3643
 5058TIP3    H136809   0.133   2.767   0.131  0.3337 -0.7528  0.3678
 5058TIP3    H236810   0.011   2.752   0.220 -0.1690 -1.3749 -0.4179
 5059TIP3   OH236811   2.083   2.498   7.556  0.1176 -0.0029 -0.3395
 5059TIP3    H136812   2.052   2.431   7.495  0.6093 -0.1316 -0.4588
 5059TIP3    H236813   2.172   2.470   7.579 -0.1964 -0.1533  0.7338
 5060TIP3   OH236814   5.794   5.398   8.062 -0.9480 -0.4791  0.4101
 5060TIP3    H136815   5.738   5.418   7.987 -0.5810 -1.0081 -0.0113
 5060TIP3    H236816   5.781   5.304   8.077 -0.3302 -0.5636  0.4313
 5061TIP3   OH236817   5.382   1.087   1.599  0.1364 -0.5147  0.1802
 5061TIP3    H136818   5.312   1.082   1.534  0.7774 -1.2432 -0.4859
 5061TIP3    H236819   5.342   1.129   1.675 -0.2754  1.6768 -1.1568
 5062TIP3   OH236820   4.345   2.098   7.400 -0.8422  0.4319 -0.1716
 5062TIP3    H136821   4.252   2.098   7.420 -0.8592 -2.3592  0.0926
 5062TIP3    H236822   4.353   2.150   7.320 -2.7731 -0.1311 -0.7710
 5063TIP3   OH236823   1.245   6.128   0.550  0.3333  0.0255 -0.6012
 5063TIP3    H136824   1.331   6.092   0.531  0.9339  1.0627  0.0763
 5063TIP3    H236825   1.221   6.090   0.635  0.9331  1.1179  0.0763
 5064TIP3   OH236826   5.625   2.993   2.851 -0.9403 -0.4122 -0.0858
 5064TIP3    H136827   5.677   2.994   2.771 -0.5468 -0.6366  0.1625
 5064TIP3    H236828   5.548   3.045   2.830 -1.7987 -2.0482 -1.2370
 5065TIP3   OH236829   5.324   5.345   0.347 -0.4643 -0.1042  0.0733
 5065TIP3    H136830   5.278   5.319   0.267  0.2864 -1.5473  0.0675
 5065TIP3    H236831   5.324   5.266   0.400 -0.8997  0.8268  1.5003
 5066TIP3   OH236832   4.757   4.083   0.470  0.2430 -0.0114 -0.9168
 5066TIP3    H136833   4.772   4.061   0.562  0.3916 -0.8841 -1.1373
 5066TIP3    H236834   4.663   4.071   0.458  0.0842  0.9048 -0.6882
 5067TIP3   OH236835   2.501   2.650   7.284  0.1177  0.1764 -0.3762
 5067TIP3    H136836   2.435   2.718   7.277  1.2832  1.1745 -2.8722
 5067TIP3    H236837   2.489   2.596   7.205  1.8080 -0.0136 -0.5537
 5068TIP3   OH236838   2.684   4.737   6.866  0.1274 -0.5956 -0.3311
 5068TIP3    H136839   2.767   4.720   6.821 -0.3110 -1.2862 -0.8938
 5068TIP3    H236840   2.619   4.689   6.816 -0.7183  0.4328 -0.2551
 5069TIP3   OH236841   1.554   1.114   6.631  0.3602  0.7746  0.0787
 5069TIP3    H136842   1.647   1.131   6.650 -0.3932  1.5572  3.6357
 5069TIP3    H236843   1.509   1.192   6.661 -1.7295 -0.9358  1.7072
 5070TIP3   OH236844   1.139   5.374   1.390  0.8934 -0.2245  0.3238
 5070TIP3    H136845   1.227   5.374   1.427  1.2210  0.9488 -0.4142
 5070TIP3    H236846   1.098   5.453   1.425  0.5159 -0.1779 -0.2156
 5071TIP3   OH236847   6.264   0.609   1.284  0.8679  0.2916  0.5023
 5071TIP3    H136848   6.337   0.671   1.280 -0.7721  2.3212  0.2383
 5071TIP3    H236849   6.252   0.581   1.193  0.2824  1.2924  0.2513
 5072TIP3   OH236850   4.236   6.590   1.771  0.2370 -0.0710  0.2005
 5072TIP3    H136851   4.193   6.507   1.751  0.9334 -0.3437 -0.1863
 5072TIP3    H236852   4.309   6.566   1.829  0.9929  0.1461 -0.6422
 5073TIP3   OH236853   6.548   6.114   1.963 -0.3832 -0.1058  0.7351
 5073TIP3    H136854   6.607   6.159   1.901 -1.4473  0.7491  0.3111
 5073TIP3    H236855   6.472   6.171   1.969 -2.5060 -2.5340 -0.9965
 5074TIP3   OH236856   3.782   5.968   2.533  0.5798  0.4895 -0.0116
 5074TIP3    H136857   3.871   5.989   2.507  0.0406  3.9791  0.4677
 5074TIP3    H236858   3.789   5.885   2.579  4.2089  2.0905  2.8246
 5075TIP3   OH236859   4.250   5.918   6.895  0.6709 -0.2402  0.2087
 5075TIP3    H136860   4.246   5.980   6.823  1.9079 -0.0086  0.3254
 5075TIP3    H236861   4.158   5.894   6.911  0.3277  0.1879 -1.0057
 5076TIP3   OH236862   4.590   1.374   1.314 -0.0003  0.6129 -0.5007
 5076TIP3    H136863   4.603   1.467   1.295 -0.1829  1.3291  2.3764
 5076TIP3    H236864   4.502   1.355   1.281  0.9380  0.7428 -3.2834
 5077TIP3   OH236865   3.983   3.202   1.696  0.0658 -0.0414  0.0873
 5077TIP3    H136866   3.987   3.198   1.792 -0.2547  0.0474  0.1078
 5077TIP3    H236867   3.944   3.118   1.671 -0.3280  0.1420  0.0712
 5078TIP3   OH236868   1.853   5.268   6.680  0.4377 -0.2822  0.1312
 5078TIP3    H136869   1.842   5.317   6.599  0.3500  1.2582  1.0170
 5078TIP3    H236870   1.765   5.241   6.705  0.2170  0.8623  0.6437
 5079TIP3   OH236871   6.741   6.349   8.185 -0.2617  0.1473 -0.1230
 5079TIP3    H136872   6.757   6.406   8.260 -0.8866  0.8925 -0.5488
 5079TIP3    H236873   6.791   6.270   8.205  0.2840  0.6723  0.6697
 5080TIP3   OH236874   5.972   2.580   1.412  0.1652  0.2341 -0.2142
 5080TIP3    H136875   5.979   2.639   1.337  2.1189  1.1474  0.6064
 5080TIP3    H236876   6.040   2.610   1.472 -0.6054 -1.1685  1.4471
 5081TIP3   OH236877   1.949   3.192   8.134  0.5469 -0.6123  0.8844
 5081TIP3    H136878   1.944   3.099   8.153  0.8943 -0.7405  0.3691
 5081TIP3    H236879   1.889   3.205   8.060 -0.5109 -0.1857  1.7953
 5082TIP3   OH236880   5.491   1.050   6.771 -0.1108 -0.0177 -0.3479
 5082TIP3    H136881   5.425   1.087   6.713 -0.3265  0.4164  0.1682
 5082TIP3    H236882   5.441   1.010   6.842  0.1889  1.2817  0.6291
 5083TIP3   OH236883   3.186   5.071   2.388 -0.5272  0.4115 -0.2526
 5083TIP3    H136884   3.258   5.069   2.325  0.2128  1.0551  0.5428
 5083TIP3    H236885   3.113   5.028   2.343  0.9286 -2.1944 -0.3780
 5084TIP3   OH236886   6.019   4.106   7.890  0.3781 -0.0842  0.4529
 5084TIP3    H136887   6.114   4.096   7.884  0.3925  0.3846 -0.2115
 5084TIP3    H236888   5.984   4.021   7.861  0.5984 -0.4541  1.2528
 5085TIP3   OH236889   4.861   0.927   7.783  0.0202  0.2936 -0.6321
 5085TIP3    H136890   4.862   0.831   7.781 -0.3449  0.2782 -0.1425
 5085TIP3    H236891   4.839   0.952   7.693  0.6442 -0.0672 -0.8960
 5086TIP3   OH236892   5.952   4.490   6.517 -0.0882 -0.2178  0.2788
 5086TIP3    H136893   5.976   4.582   6.510  0.0117 -0.1706  1.1143
 5086TIP3    H236894   5.912   4.482   6.604 -0.2936 -0.9169  0.1297
 5087TIP3   OH236895   4.451   6.850   0.041 -0.2144 -0.4797 -0.4753
 5087TIP3    H136896   4.423   6.865  -0.049 -0.2482 -0.1740 -0.4146
 5087TIP3    H236897   4.381   6.798   0.080 -0.1881 -0.6324 -0.6312
 5088TIP3   OH236898   5.593   6.726   8.355  0.4654 -0.4992 -0.3501
 5088TIP3    H136899   5.617   6.692   8.442  0.5492 -0.0039 -0.1728
 5088TIP3    H236900   5.654   6.799   8.341  0.0706 -0.2085 -0.5735
 5089TIP3   OH236901   3.963   4.087   2.774  0.5143 -0.5330 -0.1468
 5089TIP3    H136902   4.054   4.057   2.770  0.3569 -1.1282  0.4816
 5089TIP3    H236903   3.967   4.168   2.825  0.5708 -1.1386  0.8409
 5090TIP3   OH236904   2.659   6.432   7.802  0.2121  0.2307  0.0893
 5090TIP3    H136905   2.723   6.381   7.753  1.1638  0.8521  0.6590
 5090TIP3    H236906   2.580   6.428   7.749  1.2639  1.0631 -1.6420
 5091TIP3   OH236907   0.612   2.519   0.175  0.2635  0.0048 -0.6114
 5091TIP3    H136908   0.630   2.427   0.194 -2.4249 -0.1886  1.5333
 5091TIP3    H236909   0.656   2.535   0.091 -1.1253 -3.8941 -2.2919
 5092TIP3   OH236910   0.120   4.452   7.590  0.3554 -0.2352 -0.0800
 5092TIP3    H136911   0.066   4.422   7.663 -0.0662 -0.2486 -0.3943
 5092TIP3    H236912   0.160   4.372   7.556  0.7933 -0.1921  0.3242
 5093TIP3   OH236913   6.845   4.120   0.322 -0.7905  0.0317  0.2964
 5093TIP3    H136914   6.918   4.069   0.355 -2.0514 -1.0229  1.5872
 5093TIP3    H236915   6.845   4.200   0.374  0.5160  0.9104 -0.9740
 5094TIP3   OH236916   0.626   1.981   8.287  0.4184 -0.1642 -0.0920
 5094TIP3    H136917   0.648   1.925   8.213 -0.7116 -1.2759  0.3689
 5094TIP3    H236918   0.667   1.938   8.362  2.9622  1.8271 -0.2183
 5095TIP3   OH236919   2.003   3.459   0.867  0.0768 -0.2970  0.9877
 5095TIP3    H136920   1.923   3.419   0.833 -0.9526  1.2300  1.5524
 5095TIP3    H236921   1.984   3.476   0.960  2.2061 -2.7930  2.0314
 5096TIP3   OH236922   4.522   6.392   0.769 -0.0904  0.0333  0.0412
 5096TIP3    H136923   4.542   6.486   0.771 -0.6353  0.1698  2.3952
 5096TIP3    H236924   4.516   6.367   0.862  2.5213 -2.9153 -0.4149
 5097TIP3   OH236925   2.556   4.225   0.509 -0.0456 -0.4313 -0.8221
 5097TIP3    H136926   2.475   4.227   0.561  1.2172 -0.3132  1.2749
 5097TIP3    H236927   2.625   4.243   0.573  1.6351 -0.3738 -2.5796
 5098TIP3   OH236928   6.453   3.415   7.030  0.2781  0.0483  0.2087
 5098TIP3    H136929   6.470   3.404   7.124 -0.1252 -0.4384  0.2259
 5098TIP3    H236930   6.539   3.406   6.990  0.3355 -0.5712  0.4612
 5099TIP3   OH236931   6.475   0.067   8.184 -0.3867 -0.0679  0.4548
 5099TIP3    H136932   6.554   0.021   8.156 -0.0097  0.3859  0.7709
 5099TIP3    H236933   6.481   0.153   8.142 -1.1072 -0.3036 -0.1669
 5100TIP3   OH236934   2.414   1.017   0.824 -0.5297 -0.1101 -0.0418
 5100TIP3    H136935   2.494   0.999   0.873 -0.9726 -1.7627  0.1280
 5100TIP3    H236936   2.356   1.059   0.888 -1.3944 -2.9554  1.2105
 5101TIP3   OH236937   4.925   3.348   0.053  0.6407  0.2177  0.1483
 5101TIP3    H136938   4.981   3.353  -0.025 -1.8195 -1.4565 -1.8912
 5101TIP3    H236939   4.900   3.439   0.070 -0.5606  0.4787 -2.5047
 5102TIP3   OH236940   5.157   5.614   0.118  0.9206 -0.2281 -0.2245
 5102TIP3    H136941   5.130   5.698   0.081 -1.0590 -1.9776 -3.1393
 5102TIP3    H236942   5.113   5.610   0.203 -0.5686  0.8715 -0.8974
 5103TIP3   OH236943   6.590   1.865   1.805 -0.3915  0.2153  0.1359
 5103TIP3    H136944   6.533   1.924   1.755 -1.9667  0.5409  2.1460
 5103TIP3    H236945   6.529   1.813   1.859  1.1123 -1.2703  0.5052
 5104TIP3   OH236946   1.432   3.843   0.473 -0.3457  0.3509 -0.6800
 5104TIP3    H136947   1.451   3.749   0.478  0.0357  0.4493 -0.2143
 5104TIP3    H236948   1.410   3.867   0.563 -0.9870  0.5998 -0.8950
 5105TIP3   OH236949   4.968   0.882   1.356 -0.2127  0.1050  0.0841
 5105TIP3    H136950   4.874   0.883   1.339 -0.1960 -0.2106 -0.0400
 5105TIP3    H236951   5.008   0.862   1.272 -0.1317 -1.4140  0.4466
 5106TIP3   OH236952   4.389   5.649   8.499  0.3076  0.2617  0.4962
 5106TIP3    H136953   4.450   5.688   8.436  0.1953  0.3784  0.4584
 5106TIP3    H236954   4.372   5.719   8.562 -1.2849  0.8772 -0.5544
 5107TIP3   OH236955   1.950   1.099   8.409  0.1666  0.1797 -0.1811
 5107TIP3    H136956   2.045   1.101   8.400  0.1112  0.5060 -0.7655
 5107TIP3    H236957   1.933   1.123   8.500  0.5840  1.4500 -0.4263
 5108TIP3   OH236958   0.813   2.276   8.330  0.4656  0.2371  0.7409
 5108TIP3    H136959   0.860   2.202   8.291 -1.2421 -0.4274 -0.1810
 5108TIP3    H236960   0.804   2.253   8.422 -0.3333 -0.8921  0.3985
 5109TIP3   OH236961   5.163   5.547   1.867 -0.6421 -0.6027 -0.0391
 5109TIP3    H136962   5.221   5.596   1.925 -0.3944 -1.8544  0.8033
 5109TIP3    H236963   5.075   5.577   1.891 -0.5090 -0.7157  0.6210
 5110TIP3   OH236964   1.787   1.902   1.778 -0.0344  0.4180  0.2845
 5110TIP3    H136965   1.697   1.929   1.761  0.3971  1.9198  0.2156
 5110TIP3    H236966   1.779   1.818   1.823 -1.4613  0.5210  0.2768
 5111TIP3   OH236967   2.183   2.893   8.449 -0.6076  0.2907 -0.2395
 5111TIP3    H136968   2.269   2.856   8.426 -0.1225  0.1162  1.7347
 5111TIP3    H236969   2.140   2.825   8.500 -0.9306  1.2730  0.8382
 5112TIP3   OH236970   1.907   3.651   1.168  0.0028 -0.3176  0.5399
 5112TIP3    H136971   1.972   3.590   1.205 -1.0540 -1.3678  0.7119
 5112TIP3    H236972   1.958   3.708   1.111  1.2129 -0.5920  1.3160
 5113TIP3   OH236973   5.348   2.662   1.643 -0.5887 -0.4522 -1.1659
 5113TIP3    H136974   5.347   2.570   1.669 -0.2140  0.0815  0.9118
 5113TIP3    H236975   5.427   2.698   1.683 -1.0848  0.9177 -1.3506
 5114TIP3   OH236976   2.204   5.377   6.514  0.3479  0.2040 -0.1656
 5114TIP3    H136977   2.256   5.348   6.439 -0.5280 -2.4103  0.1638
 5114TIP3    H236978   2.217   5.472   6.516  1.2033  0.2334 -2.9842
 5115TIP3   OH236979   2.459   0.608   0.983 -0.1016 -0.2874  0.4398
 5115TIP3    H136980   2.442   0.590   1.075  0.4922 -0.0046  0.6084
 5115TIP3    H236981   2.445   0.524   0.939 -0.8835 -0.3016  0.7132
 5116TIP3   OH236982   5.867   5.171   2.103 -0.0405  0.1039 -0.3657
 5116TIP3    H136983   5.790   5.113   2.095 -0.2387  0.4018 -0.6074
 5116TIP3    H236984   5.851   5.219   2.184 -0.0997  0.1524 -0.4060
 5117TIP3   OH236985   4.227   1.053   2.367 -0.0425 -0.0007 -0.4014
 5117TIP3    H136986   4.300   1.115   2.369  0.5039 -0.6358  2.1627
 5117TIP3    H236987   4.199   1.045   2.458 -2.9830 -0.2133 -1.2249
 5118TIP3   OH236988   3.667   2.074   2.757 -0.8068 -0.2882  0.6564
 5118TIP3    H136989   3.630   2.138   2.818  0.0567  0.1205  0.7689
 5118TIP3    H236990   3.671   2.119   2.673  3.1631  1.2059  1.4386
 5119TIP3   OH236991   6.345   4.880   1.947  0.4891 -0.5309 -0.3871
 5119TIP3    H136992   6.269   4.872   1.890  0.3638 -1.3732 -0.1098
 5119TIP3    H236993   6.373   4.971   1.936 -1.1544  0.0844  0.2733
 5120TIP3   OH236994   5.752   4.738   8.439  0.1203  0.1858  0.1568
 5120TIP3    H136995   5.772   4.701   8.525  0.3165  1.8331  0.8596
 5120TIP3    H236996   5.779   4.670   8.377  0.8857 -0.6515  1.3576
 5121TIP3   OH236997   0.455   4.684   6.983 -0.6406  0.6073  0.5269
 5121TIP3    H136998   0.407   4.620   6.931  2.0799 -2.0662  1.0270
 5121TIP3    H236999   0.387   4.739   7.022 -3.0024 -0.4038 -1.8759
 5122TIP3   OH237000   5.030   5.517   6.583 -0.5957 -0.2782  0.0450
 5122TIP3    H137001   5.092   5.473   6.525 -2.0972 -2.4560 -0.0204
 5122TIP3    H237002   4.998   5.591   6.531 -0.1395 -0.7765 -0.9773
 5123TIP3   OH237003   3.403   0.860   7.288  0.8942 -0.0535 -0.3829
 5123TIP3    H137004   3.310   0.837   7.284  1.1250 -1.2543  0.5089
 5123TIP3    H237005   3.419   0.879   7.381  1.7273 -0.7419 -0.3716
 5124TIP3   OH237006   1.650   0.582   2.026  0.0816  0.4705 -0.3693
 5124TIP3    H137007   1.608   0.590   1.941 -1.8271 -0.6714  0.3898
 5124TIP3    H237008   1.610   0.503   2.065  2.4748 -0.2998  0.7133
 5125TIP3   OH237009   1.900   5.234   0.106  0.1109 -0.1854 -0.1553
 5125TIP3    H137010   1.976   5.274   0.149  0.1513  0.1396 -0.5271
 5125TIP3    H237011   1.894   5.146   0.145  2.4525 -1.3523 -2.1451
 5126TIP3   OH237012   3.164   5.295   7.628 -0.8792  0.1041  0.5154
 5126TIP3    H137013   3.138   5.229   7.564 -1.2763  0.0543  0.7219
 5126TIP3    H237014   3.259   5.286   7.635 -0.6220  1.0509 -1.1166
 5127TIP3   OH237015   3.496   2.702   8.078 -0.5052 -0.4172  0.0801
 5127TIP3    H137016   3.518   2.619   8.121 -1.7555 -0.8535 -0.1054
 5127TIP3    H237017   3.579   2.750   8.077  0.4409 -1.9881 -0.5633
 5128TIP3   OH237018   1.711   6.397   0.605 -0.0128  1.0525 -0.1478
 5128TIP3    H137019   1.753   6.312   0.603 -0.0738  1.0032  0.4935
 5128TIP3    H237020   1.750   6.442   0.680 -1.4938  0.7888  0.8202
 5129TIP3   OH237021   6.013   2.018   1.451  0.3162 -0.8515 -0.3284
 5129TIP3    H137022   5.919   2.006   1.433  0.2265 -3.3925  1.2770
 5129TIP3    H237023   6.015   2.064   1.535  0.5151 -0.6005 -0.4700
 5130TIP3   OH237024   3.699   4.571   7.910 -0.0970 -0.2436  0.1269
 5130TIP3    H137025   3.740   4.655   7.930 -2.5408  0.4690  2.8772
 5130TIP3    H237026   3.761   4.505   7.941 -0.0935  0.7153  2.3164
 5131TIP3   OH237027   3.830   3.285   6.593 -0.0738 -0.3213 -0.5582
 5131TIP3    H137028   3.737   3.308   6.595  0.2015  0.9091 -0.9960
 5131TIP3    H237029   3.831   3.190   6.593 -1.2835 -0.3769  1.2327
 5132TIP3   OH237030   5.294   1.618   2.215  0.0659  0.3764  0.5454
 5132TIP3    H137031   5.382   1.587   2.196  0.2479  2.2511 -2.2633
 5132TIP3    H237032   5.305   1.685   2.283  0.7282  0.2139  0.6009
 5133TIP3   OH237033   0.453   0.437   7.734  0.6550  0.0223  0.8865
 5133TIP3    H137034   0.504   0.428   7.814  0.7605  0.5710  0.8882
 5133TIP3    H237035   0.475   0.360   7.682  0.3908 -0.4621  1.4902
 5134TIP3   OH237036   6.720   2.576   1.196  0.3774  0.3781 -0.9377
 5134TIP3    H137037   6.755   2.619   1.118  2.3409  2.0006  0.6909
 5134TIP3    H237038   6.684   2.648   1.249 -1.7977 -0.7897 -0.7117
 5135TIP3   OH237039   3.737   5.775   7.825 -0.0376 -0.3490  0.0482
 5135TIP3    H137040   3.822   5.732   7.821  0.9471  1.5595 -0.9578
 5135TIP3    H237041   3.704   5.775   7.735  0.5328  1.8873 -0.2322
 5136TIP3   OH237042   1.720   4.931   6.867  0.1847  0.3956  0.0266
 5136TIP3    H137043   1.747   4.928   6.775 -1.9574 -0.2195 -0.6446
 5136TIP3    H237044   1.682   5.019   6.878 -0.5212  0.0998  0.0051
 5137TIP3   OH237045   0.575   5.770   7.461  0.3655  0.0247  0.5727
 5137TIP3    H137046   0.550   5.734   7.376  2.1531 -2.8816  1.1255
 5137TIP3    H237047   0.522   5.849   7.470 -0.4414  0.0503 -2.8669
 5138TIP3   OH237048   6.618   6.621   0.978  0.6219 -0.0587 -0.5073
 5138TIP3    H137049   6.700   6.613   0.930 -0.5635  0.5541 -2.7984
 5138TIP3    H237050   6.626   6.702   1.027  0.8597  0.7890 -1.8926
 5139TIP3   OH237051   6.569   4.517   2.524 -0.7008 -0.8146 -0.4952
 5139TIP3    H137052   6.500   4.482   2.467  0.9318 -0.6512 -2.7045
 5139TIP3    H237053   6.568   4.611   2.507  0.2532 -0.8505 -0.8240
 5140TIP3   OH237054   5.976   2.592   7.086  0.2187  0.1850  0.4150
 5140TIP3    H137055   6.071   2.597   7.097  0.3797 -1.5181  0.0119
 5140TIP3    H237056   5.951   2.509   7.127 -0.8721 -0.1429 -0.8523
 5141TIP3   OH237057   2.337   0.431   1.654  0.7868  0.2927  0.5062
 5141TIP3    H137058   2.404   0.455   1.590 -0.1698  0.2965 -0.5209
 5141TIP3    H237059   2.347   0.497   1.723  0.2380  1.8406 -0.8061
 5142TIP3   OH237060   6.132   1.029   1.158 -0.3518 -0.2692 -0.3244
 5142TIP3    H137061   6.125   1.002   1.249 -0.4642 -0.6421 -0.4398
 5142TIP3    H237062   6.215   1.075   1.152  0.7939 -2.2506 -0.5224
 5143TIP3   OH237063   1.071   0.894   8.476 -0.1455 -0.2090  0.2377
 5143TIP3    H137064   1.131   0.820   8.485 -1.5923 -1.7333 -1.6549
 5143TIP3    H237065   1.010   0.885   8.549 -0.1758 -0.7517  0.1487
 5144TIP3   OH237066   0.521   5.140   1.373 -0.1997  0.5566 -0.3310
 5144TIP3    H137067   0.462   5.120   1.445  0.5311 -0.8114 -0.0860
 5144TIP3    H237068   0.609   5.133   1.412  0.2059 -0.2655 -1.3499
 5145TIP3   OH237069   5.552   2.356   1.691 -0.2079  0.2409  0.1593
 5145TIP3    H137070   5.590   2.270   1.674 -3.6818 -1.3628 -0.3908
 5145TIP3    H237071   5.622   2.418   1.671  1.9257 -2.3860 -1.0503
 5146TIP3   OH237072   0.261   6.910   0.269  0.1254  0.6343 -0.2759
 5146TIP3    H137073   0.204   6.980   0.301 -0.3323 -0.0520  0.4373
 5146TIP3    H237074   0.349   6.946   0.275 -0.1015  1.1278  0.1574
 5147TIP3   OH237075   5.864   4.309   7.948 -0.0774  0.3961  0.1599
 5147TIP3    H137076   5.777   4.321   7.910 -1.3866 -0.4044  2.6878
 5147TIP3    H237077   5.889   4.220   7.925 -0.8280 -0.0594  1.0578
 5148TIP3   OH237078   1.139   4.390   7.438 -0.5009 -0.7483 -0.4187
 5148TIP3    H137079   1.091   4.451   7.382  0.6633  0.4942 -0.0918
 5148TIP3    H237080   1.118   4.417   7.527 -2.2561 -2.6512 -0.1563
 5149TIP3   OH237081   5.316   1.244   1.815 -0.1366  0.5099  0.2171
 5149TIP3    H137082   5.289   1.213   1.901  2.6564 -1.5057  0.5078
 5149TIP3    H237083   5.411   1.253   1.821 -0.1786  3.7768 -1.6710
 5150TIP3   OH237084   4.605   5.954   0.157  0.2495 -0.6718 -0.1176
 5150TIP3    H137085   4.629   5.977   0.068  0.6550 -0.4857  0.0357
 5150TIP3    H237086   4.677   5.987   0.211 -0.9334  1.0736  0.4928
 5151TIP3   OH237087   1.871   3.324   7.212 -0.2117  0.4048  0.1001
 5151TIP3    H137088   1.944   3.297   7.156 -1.2252 -1.3959 -0.4225
 5151TIP3    H237089   1.805   3.358   7.151  0.2592  2.3561  0.5922
 5152TIP3   OH237090   5.145   2.756   7.674 -0.6587  0.2819 -0.4461
 5152TIP3    H137091   5.060   2.762   7.631 -1.2149  0.3902  0.6238
 5152TIP3    H237092   5.153   2.839   7.722  0.8820  1.0665 -1.9821
 5153TIP3   OH237093   2.097   4.515   6.910 -0.2111  0.4615 -0.2559
 5153TIP3    H137094   2.140   4.510   6.825  0.3487 -0.2933  0.0580
 5153TIP3    H237095   2.126   4.599   6.947 -0.5378  0.8400 -0.8383
 5154TIP3   OH237096   0.850   6.468   0.737  0.0548 -0.2270 -0.3133
 5154TIP3    H137097   0.818   6.529   0.803 -2.1527 -1.2541 -0.3463
 5154TIP3    H237098   0.883   6.524   0.666 -2.7269  1.0209 -0.7443
 5155TIP3   OH237099   1.169   2.378   8.082 -0.0130 -0.0161 -0.2869
 5155TIP3    H137100   1.251   2.343   8.117 -0.3537  0.1467  0.7304
 5155TIP3    H237101   1.132   2.429   8.155 -0.3145  1.1155 -1.1953
 5156TIP3   OH237102   1.755   3.629   8.290  0.4157 -0.0695 -0.3913
 5156TIP3    H137103   1.837   3.597   8.329  2.6452  2.7286 -2.3169
 5156TIP3    H237104   1.708   3.669   8.364  2.0552  0.5521  0.3851
 5157TIP3   OH237105   2.537   2.365   2.037 -0.2209  0.7481 -0.0380
 5157TIP3    H137106   2.558   2.288   2.090  2.8258  1.4495 -0.0485
 5157TIP3    H237107   2.497   2.330   1.958 -0.2376 -0.6839  0.5803
 5158TIP3   OH237108   5.092   6.662   1.675 -0.1255 -0.4229 -0.5746
 5158TIP3    H137109   5.006   6.672   1.632 -0.2130 -2.3214 -0.9225
 5158TIP3    H237110   5.075   6.680   1.767 -0.8396 -0.5139 -0.6832
 5159TIP3   OH237111   1.237   3.304   8.293  0.2032 -0.3974  0.2942
 5159TIP3    H137112   1.323   3.327   8.259  0.5129  0.0023  1.3121
 5159TIP3    H237113   1.254   3.256   8.374 -0.5250 -0.5990  0.3387
 5160TIP3   OH237114   5.572   4.311   7.906 -0.1499 -0.2218  0.4916
 5160TIP3    H137115   5.507   4.258   7.860 -0.0527 -0.1056  0.2173
 5160TIP3    H237116   5.531   4.397   7.914  0.8864  0.5658 -1.8395
 5161TIP3   OH237117   3.327   1.642   2.258 -0.1009 -0.1346  0.0086
 5161TIP3    H137118   3.279   1.571   2.301 -0.6748  0.9625  1.2494
 5161TIP3    H237119   3.298   1.721   2.303  0.6366  0.8810 -1.2448
 5162TIP3   OH237120   3.922   4.062   1.277  0.4212  0.0228  0.2166
 5162TIP3    H137121   4.000   4.046   1.330 -1.1745 -2.6979  2.0210
 5162TIP3    H237122   3.859   4.099   1.339 -1.1098 -2.1017  0.0505
 5163TIP3   OH237123   4.790   2.089   1.606  0.2056  0.3909 -0.1883
 5163TIP3    H137124   4.813   2.050   1.691  0.2654 -0.0043 -0.3878
 5163TIP3    H237125   4.733   2.024   1.564 -2.4862  1.9033  0.8722
 5164TIP3   OH237126   0.711   3.982   1.451 -0.1238  0.2409  0.2822
 5164TIP3    H137127   0.708   4.072   1.484 -0.6881  1.2095 -2.2160
 5164TIP3    H237128   0.620   3.953   1.454 -0.2011  0.3974 -0.5812
 5165TIP3   OH237129   1.364   3.443   1.353 -0.1307 -0.1795  0.2565
 5165TIP3    H137130   1.271   3.460   1.341 -0.3790 -1.7838 -0.4090
 5165TIP3    H237131   1.402   3.452   1.265  0.2586 -0.0060  0.4374
 5166TIP3   OH237132   1.488   3.342   8.185 -0.2151  0.2900  0.1159
 5166TIP3    H137133   1.523   3.353   8.096 -0.6973 -1.3368 -0.3219
 5166TIP3    H237134   1.548   3.279   8.225 -1.1987 -0.6135  0.2016
 5167TIP3   OH237135   0.646   3.132   1.818  0.5817 -0.1024  0.1582
 5167TIP3    H137136   0.742   3.133   1.811  0.7547  4.8918 -0.1340
 5167TIP3    H237137   0.615   3.119   1.729  0.8601 -2.0158  0.2888
 5168TIP3   OH237138   2.509   6.529   1.824 -0.3017 -0.1912  0.6857
 5168TIP3    H137139   2.463   6.604   1.787 -0.9703 -0.3159  1.2318
 5168TIP3    H237140   2.474   6.454   1.778 -0.4860 -0.2667  0.9447
 5169TIP3   OH237141   6.150   4.532   8.529 -0.2196 -0.2185  0.2835
 5169TIP3    H137142   6.138   4.626   8.539  2.6809  0.0230  3.3044
 5169TIP3    H237143   6.072   4.494   8.568 -0.2674  0.9966  1.4621
 5170TIP3   OH237144   1.703   3.763   1.803  0.6776  0.3211 -0.5620
 5170TIP3    H137145   1.778   3.811   1.837  1.9799 -0.9587 -1.5014
 5170TIP3    H237146   1.634   3.776   1.868  1.3736  2.3561 -0.1638
 5171TIP3   OH237147   4.875   1.616   6.485 -0.1470  0.3292  0.1507
 5171TIP3    H137148   4.858   1.541   6.542 -0.4263 -0.3849 -0.8593
 5171TIP3    H237149   4.914   1.579   6.406 -1.0590  1.1476 -0.7054
 5172TIP3   OH237150   3.110   0.450   0.073  0.1557  0.4386 -0.3116
 5172TIP3    H137151   3.026   0.406   0.085 -0.1758  1.3907  1.1070
 5172TIP3    H237152   3.170   0.380   0.049 -1.0279 -0.2492 -1.4067
 5173TIP3   OH237153   6.560   0.177   7.477 -0.1322  0.1332  0.1115
 5173TIP3    H137154   6.597   0.231   7.406 -0.5798 -2.0391 -1.9017
 5173TIP3    H237155   6.629   0.116   7.500 -1.0990 -1.4767 -1.0192
 5174TIP3   OH237156   0.298   4.364   1.464 -0.4592  0.2176  0.2052
 5174TIP3    H137157   0.326   4.447   1.502 -0.1700 -0.7987  2.3931
 5174TIP3    H237158   0.206   4.356   1.488 -0.6544  0.1633 -0.5331
 5175TIP3   OH237159   3.424   0.593   8.510  0.2512  0.3857  0.3879
 5175TIP3    H137160   3.329   0.599   8.508  0.2499  0.7345  1.2216
 5175TIP3    H237161   3.454   0.659   8.447 -0.0820 -1.2699 -1.6341
 5176TIP3   OH237162   1.878   3.056   0.591 -0.0018  0.1869 -0.7040
 5176TIP3    H137163   1.903   3.094   0.675  0.1110 -1.6769  0.1642
 5176TIP3    H237164   1.943   2.988   0.575 -1.9146 -1.7938 -0.5602
 5177TIP3   OH237165   5.327   6.702   2.004  0.0660 -0.0828  0.4739
 5177TIP3    H137166   5.339   6.656   2.086  1.0803 -0.2642  0.2405
 5177TIP3    H237167   5.416   6.710   1.968 -0.1183  1.7783  0.3624
 5178TIP3   OH237168   0.135   6.382   8.546  0.4001 -0.2735 -0.0402
 5178TIP3    H137169   0.095   6.469   8.558 -0.5952 -0.5678 -1.0627
 5178TIP3    H237170   0.182   6.366   8.628 -2.9341 -0.6149  1.9988
 5179TIP3   OH237171   0.985   6.337   0.106  0.5516  0.4356  0.0367
 5179TIP3    H137172   0.930   6.262   0.129 -0.0743  0.4609 -1.3280
 5179TIP3    H237173   0.926   6.412   0.106  0.5209  0.4502 -1.5189
 5180TIP3   OH237174   2.396   2.289   1.796  0.2989  0.2933  0.0838
 5180TIP3    H137175   2.338   2.214   1.795 -0.9364  1.2230 -0.2620
 5180TIP3    H237176   2.366   2.344   1.723  1.2757  1.0514  0.2269
 5181TIP3   OH237177   1.587   6.369   7.715 -0.2177  0.1005  0.1349
 5181TIP3    H137178   1.627   6.283   7.700  0.0030 -0.3041  2.6928
 5181TIP3    H237179   1.660   6.430   7.714  0.0132 -0.1441  1.1168
 5182TIP3   OH237180   5.978   4.617   1.300  0.5016 -0.1319 -0.0024
 5182TIP3    H137181   5.958   4.690   1.242  2.1199  0.2430 -0.1156
 5182TIP3    H237182   5.986   4.541   1.242  3.7108  0.5233 -0.5596
 5183TIP3   OH237183   2.872   1.424   8.392 -0.4489  0.0837 -0.2654
 5183TIP3    H137184   2.955   1.382   8.413 -0.7854  0.6349  2.6050
 5183TIP3    H237185   2.892   1.518   8.392 -0.8680  0.1754 -0.5622
 5184TIP3   OH237186   0.316   5.346   1.133 -0.0393 -0.0695  0.2175
 5184TIP3    H137187   0.265   5.425   1.114 -1.0388 -1.1219 -1.8727
 5184TIP3    H237188   0.251   5.283   1.163  0.5889 -0.4130  0.8841
 5185TIP3   OH237189   3.037   6.893   2.142 -0.2711  0.0363  0.0527
 5185TIP3    H137190   3.098   6.894   2.068 -1.5875 -0.6678 -1.0844
 5185TIP3    H237191   2.982   6.970   2.129 -1.1580 -0.6360 -0.2996
 5186TIP3   OH237192   3.264   3.078   2.082 -0.1613  0.1804  0.1379
 5186TIP3    H137193   3.317   3.098   2.159  1.6167 -2.2226 -0.3575
 5186TIP3    H237194   3.175   3.073   2.115  0.5808 -1.0675  2.1587
 5187TIP3   OH237195   3.305   1.093   8.153  0.2085 -0.8274 -0.3373
 5187TIP3    H137196   3.216   1.114   8.182  0.4050  1.1907 -0.9874
 5187TIP3    H237197   3.350   1.066   8.233  0.1722  2.5389  1.0082
 5188TIP3   OH237198   5.371   5.748   0.529  0.1707  0.1236  0.4677
 5188TIP3    H137199   5.319   5.669   0.512  0.7818  0.0974 -1.4717
 5188TIP3    H237200   5.307   5.819   0.523  0.0521 -0.0357 -0.2920
 5189TIP3   OH237201   2.574   6.457   6.901  0.9055 -0.4678 -0.0603
 5189TIP3    H137202   2.489   6.431   6.865  0.8840 -0.6694  0.1333
 5189TIP3    H237203   2.580   6.411   6.985  0.3024  1.1670  0.9186
 5190TIP3   OH237204   3.441   1.834   2.062  0.0711 -0.0647 -0.1200
 5190TIP3    H137205   3.372   1.899   2.055  0.5057  0.2976 -1.3659
 5190TIP3    H237206   3.414   1.777   2.134 -0.7490  0.9701  0.4135
 5191TIP3   OH237207   6.300   6.115   1.483 -0.1929 -0.0547  0.6187
 5191TIP3    H137208   6.218   6.126   1.531 -0.7631 -1.5620  0.0484
 5191TIP3    H237209   6.275   6.122   1.391  0.4294  0.0535  0.4509
 5192TIP3   OH237210   0.008   2.854   0.649 -0.1142  0.2860 -0.3059
 5192TIP3    H137211  -0.032   2.769   0.665 -0.2942  0.8100  2.4698
 5192TIP3    H237212   0.102   2.839   0.661 -0.2498  0.6798  1.5493
 5193TIP3   OH237213   2.430   4.433   0.913 -0.0676  0.1564 -0.0178
 5193TIP3    H137214   2.418   4.488   0.835  0.6801 -0.2901 -0.4651
 5193TIP3    H237215   2.501   4.476   0.961 -1.4265  1.1917  1.1358
 5194TIP3   OH237216   4.944   4.091   0.264  0.1884  1.1636 -0.2467
 5194TIP3    H137217   5.008   4.145   0.310  0.9543  1.5142 -1.6511
 5194TIP3    H237218   4.864   4.098   0.316  1.1088  1.2235  1.2029
 5195TIP3   OH237219   2.876   3.715   6.467 -0.2368 -0.1501  0.7728
 5195TIP3    H137220   2.833   3.798   6.486 -0.7576 -0.7089  2.1618
 5195TIP3    H237221   2.852   3.696   6.376 -0.7454  0.8308  0.6871
 5196TIP3   OH237222   1.557   1.736   1.547  0.6067  0.1346 -0.4333
 5196TIP3    H137223   1.542   1.651   1.506 -0.3712  0.0249  0.0992
 5196TIP3    H237224   1.622   1.779   1.492  2.5966 -1.6985  0.3244
 5197TIP3   OH237225   2.034   6.177   1.002 -0.5231 -0.4393 -0.2451
 5197TIP3    H137226   1.978   6.187   0.925  1.6936  3.3580 -1.6468
 5197TIP3    H237227   1.979   6.203   1.076 -1.9346 -1.5860 -0.8422
 5198TIP3   OH237228   6.808   3.825   1.578 -0.4774  0.1918 -0.4087
 5198TIP3    H137229   6.893   3.854   1.546  0.4675 -0.3367  1.5015
 5198TIP3    H237230   6.752   3.823   1.500  1.2177  0.6269 -1.6782
 5199TIP3   OH237231   6.085   1.459   7.336  0.0539 -0.2267  0.1589
 5199TIP3    H137232   6.129   1.377   7.360  0.7204 -0.1081 -0.5885
 5199TIP3    H237233   6.025   1.434   7.265  0.5209 -0.0206 -0.3181
 5200TIP3   OH237234   0.681   6.380   2.134  0.1141  0.2260  0.2978
 5200TIP3    H137235   0.744   6.311   2.113 -0.1941 -0.0797  0.3738
 5200TIP3    H237236   0.607   6.365   2.075 -0.0487  0.3585  0.4655
 5201TIP3   OH237237   1.025   3.554   7.189  0.2804 -0.2085  0.0121
 5201TIP3    H137238   0.973   3.499   7.129  0.0573 -1.0462  0.9390
 5201TIP3    H237239   1.054   3.627   7.135  2.0928 -2.0875 -1.7771
 5202TIP3   OH237240   3.539   3.524   7.695  0.0730 -0.2895  0.0071
 5202TIP3    H137241   3.478   3.519   7.621  0.0347 -0.2374  0.0352
 5202TIP3    H237242   3.530   3.613   7.727  1.5157  0.3014 -1.1323
 5203TIP3   OH237243   2.123   5.876   1.792 -0.3206  0.0510 -0.4580
 5203TIP3    H137244   2.212   5.890   1.760 -0.0609 -0.9649 -0.2210
 5203TIP3    H237245   2.131   5.803   1.853 -1.0629  0.9872  0.7958
 5204TIP3   OH237246   1.113   0.349   8.453  0.0746  0.0455  0.1314
 5204TIP3    H137247   1.209   0.347   8.456  0.1424  0.5990 -1.0343
 5204TIP3    H237248   1.087   0.370   8.542  1.0316 -0.2180  0.4907
 5205TIP3   OH237249   0.818   0.739   0.479 -0.6416  0.2158  0.0119
 5205TIP3    H137250   0.873   0.771   0.550 -0.1386  1.8552 -1.0665
 5205TIP3    H237251   0.784   0.819   0.438  0.1197 -0.6297 -2.3842
 5206TIP3   OH237252   2.249   0.216   0.243 -0.6468  0.2626  0.0786
 5206TIP3    H137253   2.217   0.210   0.153 -0.1081 -1.8351 -0.0143
 5206TIP3    H237254   2.193   0.157   0.293  0.8864 -0.8702  0.5337
 5207TIP3   OH237255   1.499   5.722   0.161 -0.0174  0.1022  0.2524
 5207TIP3    H137256   1.593   5.737   0.169 -0.0280  0.3660 -0.0946
 5207TIP3    H237257   1.468   5.794   0.107 -0.4406  0.0801  0.4648
 5208TIP3   OH237258   2.144   4.205   8.268 -0.4473 -0.3430 -0.0978
 5208TIP3    H137259   2.166   4.147   8.341 -1.6001  0.7694  1.2043
 5208TIP3    H237260   2.141   4.148   8.191  0.3394 -1.6356  0.8005
 5209TIP3   OH237261   5.159   0.566   8.499  0.1497 -0.1642 -0.0602
 5209TIP3    H137262   5.104   0.645   8.503  1.3116  0.7379 -1.0471
 5209TIP3    H237263   5.248   0.600   8.488  0.5364 -1.6339 -1.8278
 5210TIP3   OH237264   0.985   3.801   0.623  0.2861  0.4343  0.2381
 5210TIP3    H137265   1.058   3.740   0.627  0.5849  0.7829  0.0736
 5210TIP3    H237266   0.925   3.762   0.559  0.2073  0.0236  0.5585
 5211TIP3   OH237267   4.695   4.361   7.916  0.2330 -0.3004 -0.5107
 5211TIP3    H137268   4.650   4.374   7.999  0.0673 -0.5741 -0.5581
 5211TIP3    H237269   4.645   4.293   7.871  0.1086  0.0957 -0.9899
 5212TIP3   OH237270   5.169   1.701   8.417  0.6710 -0.2352  0.4017
 5212TIP3    H137271   5.224   1.765   8.373 -0.0512  1.6315  2.0342
 5212TIP3    H237272   5.090   1.695   8.363  1.9174 -2.1343 -1.3777
 5213TIP3   OH237273   2.407   0.862   0.358  0.5130 -0.1209 -0.2465
 5213TIP3    H137274   2.404   0.766   0.361  0.7693 -0.1227  0.0582
 5213TIP3    H237275   2.500   0.883   0.372  0.2480  0.2089  1.1955
 5214TIP3   OH237276   1.828   6.764   0.921 -0.3541  0.1126  0.4367
 5214TIP3    H137277   1.862   6.814   0.995  0.5069 -0.0018  0.1352
 5214TIP3    H237278   1.825   6.827   0.849 -0.0413 -0.0660  0.2645
 5215TIP3   OH237279   6.940   4.189   7.326  0.0308 -0.4522  0.5902
 5215TIP3    H137280   6.980   4.133   7.260  0.7856 -1.1803  1.6208
 5215TIP3    H237281   7.010   4.205   7.389 -1.1506 -1.4493  2.2447
 5216TIP3   OH237282   5.198   3.031   6.362  0.0943 -0.1732 -0.4793
 5216TIP3    H137283   5.253   2.963   6.399 -0.5546  0.1000  1.0631
 5216TIP3    H237284   5.259   3.100   6.336  0.4979  0.2654  1.4864
 5217TIP3   OH237285   6.053   4.166   0.089 -0.9654  0.8294  0.5059
 5217TIP3    H137286   6.141   4.137   0.115 -0.7218  1.1748  0.0669
 5217TIP3    H237287   5.997   4.140   0.163 -0.8926 -1.4418 -0.1418
 5218TIP3   OH237288   4.258   5.728   7.103  0.0737 -0.5289  0.4449
 5218TIP3    H137289   4.258   5.813   7.059  1.1757 -0.5827  0.2996
 5218TIP3    H237290   4.273   5.665   7.032 -1.3910 -0.9288  0.4499
 5219TIP3   OH237291   6.059   5.926   1.937  0.8473  0.0302 -0.3111
 5219TIP3    H137292   6.044   5.859   2.004 -0.0156  0.6482  0.1306
 5219TIP3    H237293   5.979   5.979   1.937  0.8351  0.0726 -1.8090
 5220TIP3   OH237294   1.097   4.151   1.290 -0.1312  0.1676  0.0272
 5220TIP3    H137295   1.145   4.234   1.293 -0.2293  0.2391 -0.3268
 5220TIP3    H237296   1.141   4.101   1.222  1.1974 -0.8699  1.5798
 5221TIP3   OH237297   3.971   0.226   0.871  0.3695 -0.0312 -0.1827
 5221TIP3    H137298   4.038   0.226   0.803  1.0917  0.6192  0.4989
 5221TIP3    H237299   4.021   0.229   0.953 -0.4907 -0.1376  0.3566
 5222TIP3   OH237300   3.823   2.756   6.968  0.5782  0.3636  0.1407
 5222TIP3    H137301   3.828   2.784   6.877 -0.2658  0.6656  0.1854
 5222TIP3    H237302   3.872   2.674   6.970  1.0606  0.6277 -0.4688
 5223TIP3   OH237303   3.873   5.078   8.563 -0.0990  0.4252  0.4077
 5223TIP3    H137304   3.785   5.115   8.562 -1.5048 -2.5740 -0.9813
 5223TIP3    H237305   3.868   5.004   8.624  1.2577 -0.1613 -0.1394
 5224TIP3   OH237306   6.406   5.920   1.664 -0.1725 -0.1291 -0.2410
 5224TIP3    H137307   6.417   6.009   1.629 -1.4995  0.5205  0.9099
 5224TIP3    H237308   6.340   5.880   1.607 -0.0029 -0.1734 -0.4062
 5225TIP3   OH237309   2.896   4.556   0.506 -0.0245 -0.1198 -0.3910
 5225TIP3    H137310   2.962   4.617   0.474 -0.7179  0.5344 -0.6004
 5225TIP3    H237311   2.840   4.608   0.563 -0.6516 -0.5410 -0.6082
 5226TIP3   OH237312   6.481   3.869   1.527 -0.0947  0.4363  0.2390
 5226TIP3    H137313   6.464   3.799   1.591 -0.9937 -1.5264 -2.0074
 5226TIP3    H237314   6.403   3.871   1.473  1.4543  0.5083 -2.1300
 5227TIP3   OH237315   2.919   3.853   1.884 -0.0933  0.6136  0.1713
 5227TIP3    H137316   2.971   3.821   1.958 -1.1300  0.3799  0.8225
 5227TIP3    H237317   2.849   3.904   1.925 -0.9059  0.1664 -0.6207
 5228TIP3   OH237318   1.823   6.736   0.233 -0.6396  0.0967  0.2291
 5228TIP3    H137319   1.894   6.687   0.273 -1.2863  0.4438  1.9159
 5228TIP3    H237320   1.745   6.708   0.281 -1.2293  1.6613  0.2436
 5229TIP3   OH237321   0.829   2.527   7.928 -0.1959  0.0917 -0.3514
 5229TIP3    H137322   0.740   2.559   7.940  0.4970  2.2359 -0.4107
 5229TIP3    H237323   0.830   2.488   7.841 -0.9439  0.5814 -0.5860
 5230TIP3   OH237324   5.183   4.567   1.586  0.3515  0.1144  0.7270
 5230TIP3    H137325   5.212   4.532   1.670  1.8319  1.5108  0.8354
 5230TIP3    H237326   5.207   4.659   1.588  1.7914 -0.1139 -1.7771
 5231TIP3   OH237327   4.327   5.436   0.377 -0.1686  0.0028  0.1346
 5231TIP3    H137328   4.284   5.521   0.375 -0.6290 -0.1842  1.3947
 5231TIP3    H237329   4.365   5.426   0.289 -0.1662  1.4652 -0.0451
 5232TIP3   OH237330   3.151   0.709   0.175  0.0630 -0.3802  0.4085
 5232TIP3    H137331   3.154   0.613   0.179  1.0533 -0.3237  1.3462
 5232TIP3    H237332   3.169   0.738   0.265 -0.1148  0.6900  0.1175
 5233TIP3   OH237333   3.900   6.212   1.342 -0.5501  0.4311 -0.0028
 5233TIP3    H137334   3.805   6.203   1.332 -0.8093  1.0863  1.6438
 5233TIP3    H237335   3.920   6.172   1.426  0.3174  2.1911  0.6763
 5234TIP3   OH237336   3.798   5.458   0.510 -0.0708 -0.3374 -0.2310
 5234TIP3    H137337   3.787   5.382   0.566  1.3853 -1.9724 -2.0288
 5234TIP3    H237338   3.764   5.430   0.425 -1.6934  1.8621 -0.3852
 5235TIP3   OH237339   4.838   0.954   2.645  0.5371 -0.3134  0.2015
 5235TIP3    H137340   4.890   0.874   2.646 -0.3319 -0.9036  1.5098
 5235TIP3    H237341   4.749   0.925   2.666  0.4827  1.1250  2.2432
 5236TIP3   OH237342   5.578   1.219   1.327  0.1384 -0.1706  0.2004
 5236TIP3    H137343   5.673   1.210   1.314  0.0276 -1.1200 -0.0408
 5236TIP3    H237344   5.569   1.291   1.389  0.9375  1.2211 -1.2212
 5237TIP3   OH237345   4.683   5.960   2.492  0.3943  0.2250 -0.5092
 5237TIP3    H137346   4.588   5.948   2.495  0.2510  1.2295 -0.6518
 5237TIP3    H237347   4.703   6.020   2.563  1.0128 -0.4133 -0.1217
 5238TIP3   OH237348   0.221   1.756   7.481 -0.5451 -0.2102 -0.8312
 5238TIP3    H137349   0.199   1.693   7.412  0.7418 -0.6833 -0.8302
 5238TIP3    H237350   0.189   1.840   7.449 -2.0175 -0.7888 -0.9739
 5239TIP3   OH237351   4.783   0.357   8.162  0.7062  0.0289  0.0122
 5239TIP3    H137352   4.733   0.439   8.169  0.1363 -0.0740 -2.0339
 5239TIP3    H237353   4.843   0.373   8.089  1.5242 -0.9318  0.4642
 5240TIP3   OH237354   0.478   0.765   0.520 -0.1284 -0.0846  0.2541
 5240TIP3    H137355   0.409   0.699   0.519 -0.1804 -0.1076  1.7576
 5240TIP3    H237356   0.538   0.735   0.589  0.0690  1.2104  0.6760
 5241TIP3   OH237357   1.169   3.116   2.829 -0.4158 -0.1298  0.0224
 5241TIP3    H137358   1.193   3.052   2.762 -0.6847 -0.2811  0.0696
 5241TIP3    H237359   1.143   3.063   2.905 -0.4181  0.0360  0.1381
 5242TIP3   OH237360   3.455   5.007   0.627 -0.0588 -0.5825 -0.1195
 5242TIP3    H137361   3.393   4.951   0.674  0.4240 -1.2803 -0.2970
 5242TIP3    H237362   3.474   4.959   0.547 -0.6741  0.4712 -0.9318
 5243TIP3   OH237363   4.793   3.408   6.824 -0.2523 -0.0286  0.1430
 5243TIP3    H137364   4.846   3.458   6.763  0.6027 -0.0958  0.8080
 5243TIP3    H237365   4.703   3.427   6.799  0.0464 -1.1324 -2.0012
 5244TIP3   OH237366   6.813   2.682   1.977  0.2656 -0.8501 -0.6885
 5244TIP3    H137367   6.737   2.727   2.015  0.3114 -2.1933  1.1803
 5244TIP3    H237368   6.880   2.687   2.045  2.2665  1.1294 -2.6765
 5245TIP3   OH237369   2.159   6.228   0.559  0.3129  0.6846  0.0865
 5245TIP3    H137370   2.169   6.162   0.490 -0.8362  0.3771  0.1928
 5245TIP3    H237371   2.228   6.208   0.622  1.3025  0.8889 -0.8974
 5246TIP3   OH237372   6.044   6.785   2.561 -0.0940  0.3727 -0.6643
 5246TIP3    H137373   5.957   6.806   2.592  0.5687 -0.9736  2.5259
 5246TIP3    H237374   6.064   6.700   2.601  1.7404 -0.6177 -3.3665
 5247TIP3   OH237375   4.173   0.861   0.171  0.1569 -0.8539  0.3443
 5247TIP3    H137376   4.097   0.806   0.191  0.6644 -1.4105  0.7620
 5247TIP3    H237377   4.245   0.799   0.159  0.5632 -0.3248  0.0291
 5248TIP3   OH237378   4.131   6.622   0.631  0.1493  0.4920 -0.4962
 5248TIP3    H137379   4.138   6.532   0.663  0.3118  0.9806  0.9182
 5248TIP3    H237380   4.195   6.671   0.684 -0.8523  1.6737 -0.3444
 5249TIP3   OH237381   4.756   4.537   0.874  0.5455  0.0925 -0.1277
 5249TIP3    H137382   4.797   4.484   0.942  2.1989  0.1589 -1.0087
 5249TIP3    H237383   4.691   4.480   0.834  0.8201 -0.5486  0.3308
 5250TIP3   OH237384   3.884   2.159   0.867  0.0137  0.2054 -0.2494
 5250TIP3    H137385   3.856   2.106   0.793  0.8366 -0.7635  0.1030
 5250TIP3    H237386   3.853   2.247   0.848  1.4726  0.3179 -2.4654
 5251TIP3   OH237387   6.544   2.068   7.463  0.0601 -0.7995 -0.1235
 5251TIP3    H137388   6.527   2.162   7.471 -2.6033 -1.2901  0.9027
 5251TIP3    H237389   6.597   2.046   7.540  0.1096 -0.2562  0.0001
 5252TIP3   OH237390   2.918   3.469   6.193  0.1398  0.1873 -0.0820
 5252TIP3    H137391   2.880   3.556   6.200 -0.7135 -0.1897  0.0866
 5252TIP3    H237392   2.848   3.410   6.221  0.1501 -0.6641 -1.7275
 5253TIP3   OH237393   3.825   1.566   2.974 -0.6152  0.1478  0.1200
 5253TIP3    H137394   3.911   1.592   2.942 -0.5350  1.5287  1.3212
 5253TIP3    H237395   3.843   1.507   3.047 -0.6604  0.5590  0.4715
 5254TIP3   OH237396   2.317   6.450   2.077 -0.3757  0.1389  0.1900
 5254TIP3    H137397   2.272   6.521   2.123  3.2516  1.7561  1.6724
 5254TIP3    H237398   2.307   6.471   1.984 -1.6514  1.0147  0.5001
 5255TIP3   OH237399   2.987   6.327   1.498  0.2045 -0.0904  0.2887
 5255TIP3    H137400   2.971   6.421   1.506  0.7201  0.0792 -0.5291
 5255TIP3    H237401   2.930   6.287   1.564 -1.6239  0.6375 -0.7794
 5256TIP3   OH237402   3.659   0.578   0.056 -0.1106  0.0025 -0.4028
 5256TIP3    H137403   3.665   0.483   0.067 -1.0036 -0.1875 -1.4306
 5256TIP3    H237404   3.567   0.594   0.035 -0.0411  1.1400  0.0910
 5257TIP3   OH237405   3.633   2.874   0.983 -0.1421 -0.1983 -0.2502
 5257TIP3    H137406   3.594   2.951   0.941 -0.3905 -0.4408 -0.4747
 5257TIP3    H237407   3.682   2.831   0.914  0.4254  0.0356  0.0040
 5258TIP3   OH237408   0.006   5.528   1.034  0.2352 -0.0076  0.1547
 5258TIP3    H137409  -0.019   5.615   1.065 -0.4345  0.0010 -0.3867
 5258TIP3    H237410   0.016   5.476   1.113  0.0349  0.4014  0.4524
 5259TIP3   OH237411   4.630   5.240   1.394  0.5612 -0.1477 -0.2485
 5259TIP3    H137412   4.570   5.176   1.433  0.1880  2.7847  4.8754
 5259TIP3    H237413   4.717   5.214   1.426  0.4461  1.5102  1.6096
 5260TIP3   OH237414   0.048   3.495   2.461 -0.3901  0.4815 -0.7453
 5260TIP3    H137415   0.119   3.475   2.401 -0.7602  0.0760 -1.0563
 5260TIP3    H237416  -0.032   3.485   2.408 -0.7047  0.4207 -0.2703
 5261TIP3   OH237417   5.878   3.115   7.333 -0.6863  0.2216  0.0847
 5261TIP3    H137418   5.950   3.112   7.396 -1.0258  1.1679  0.5301
 5261TIP3    H237419   5.847   3.205   7.336 -1.5641 -0.0505 -0.4806
 5262TIP3   OH237420   5.428   0.039   8.163  0.2661  0.3206  0.3253
 5262TIP3    H137421   5.404  -0.042   8.118  1.5520  0.7077 -1.1290
 5262TIP3    H237422   5.421   0.017   8.256  0.7863 -1.5368 -0.0297
 5263TIP3   OH237423   4.632   4.169   1.290 -0.2820 -0.2722 -0.2778
 5263TIP3    H137424   4.585   4.126   1.219 -0.8449  0.6774 -0.5042
 5263TIP3    H237425   4.609   4.262   1.281  1.7425  0.2513 -0.4669
 5264TIP3   OH237426   5.691   6.536   1.777  0.6382  0.3080  0.2773
 5264TIP3    H137427   5.673   6.579   1.860 -2.5476  0.2131 -0.2392
 5264TIP3    H237428   5.704   6.608   1.715 -2.0921  0.6145 -0.0650
 5265TIP3   OH237429   6.926   0.845   7.357 -0.0076  0.0123 -0.0345
 5265TIP3    H137430   6.936   0.940   7.358  1.2411 -0.0460 -1.8130
 5265TIP3    H237431   7.016   0.812   7.362 -0.4925 -1.1335  1.8711
 5266TIP3   OH237432   4.723   4.852   1.630  0.3049  0.2499 -0.0033
 5266TIP3    H137433   4.812   4.828   1.657  0.1544  0.3815  0.6101
 5266TIP3    H237434   4.676   4.769   1.628  0.5782  0.1073 -0.8602
 5267TIP3   OH237435   2.902   4.308   8.065  0.5372 -0.1555  0.2725
 5267TIP3    H137436   2.933   4.399   8.069 -1.3035  0.4597  2.4764
 5267TIP3    H237437   2.963   4.260   8.120 -0.8361  0.5991  2.5779
 5268TIP3   OH237438   1.791   6.307   8.095  0.0506 -0.0949 -0.1824
 5268TIP3    H137439   1.731   6.379   8.072 -0.9153 -0.1330  1.9881
 5268TIP3    H237440   1.741   6.228   8.075  0.9894 -0.2340 -2.2508
 5269TIP3   OH237441   3.240   1.597   1.938 -0.5240 -0.4680  0.1035
 5269TIP3    H137442   3.189   1.651   1.998  0.2945  1.3140 -0.7395
 5269TIP3    H237443   3.192   1.601   1.855 -0.2664 -0.7356 -0.0615
 5270TIP3   OH237444   6.141   0.489   8.082 -0.1934 -0.3429 -0.0670
 5270TIP3    H137445   6.088   0.521   8.009  0.5465 -0.5324 -0.7051
 5270TIP3    H237446   6.222   0.458   8.041  0.1442 -0.6638  0.8128
 5271TIP3   OH237447   6.828   2.260   0.509  0.7090  0.7166  0.4301
 5271TIP3    H137448   6.757   2.236   0.451  0.3575  0.6181  0.8963
 5271TIP3    H237449   6.842   2.354   0.493 -0.5043  1.0839  1.3616
 5272TIP3   OH237450   5.080   3.166   8.018  0.7351  0.1806  0.2710
 5272TIP3    H137451   4.996   3.185   8.061  0.5409 -1.8807  0.9484
 5272TIP3    H237452   5.126   3.109   8.080  0.9937 -1.8369 -1.6477
 5273TIP3   OH237453   5.943   6.891   7.294  0.6520 -0.5639 -0.2655
 5273TIP3    H137454   6.006   6.893   7.366  0.7925  1.3388 -0.4057
 5273TIP3    H237455   5.861   6.920   7.333  0.7271  0.4684 -0.8551
 5274TIP3   OH237456   3.115   0.404   0.469 -0.0959  0.4885 -0.1322
 5274TIP3    H137457   3.038   0.449   0.504  0.2096  2.2127 -1.5502
 5274TIP3    H237458   3.080   0.347   0.401 -0.5433 -1.9827  1.9775
 5275TIP3   OH237459   2.838   0.961   1.806  0.0516 -0.1226  0.5094
 5275TIP3    H137460   2.776   0.924   1.869  0.2166 -0.6276  0.3815
 5275TIP3    H237461   2.877   1.035   1.852 -1.8876  1.3007 -0.0059
 5276TIP3   OH237462   2.066   0.053   0.412 -0.6429 -0.3564 -0.0587
 5276TIP3    H137463   1.983   0.006   0.418  0.3778 -2.7774 -2.6449
 5276TIP3    H237464   2.129  -0.003   0.457  0.0426  0.2460 -0.2418
 5277TIP3   OH237465   0.973   1.311   0.601  0.2866 -0.1264 -0.1038
 5277TIP3    H137466   0.972   1.322   0.506 -2.0951  1.7614  0.0287
 5277TIP3    H237467   0.900   1.250   0.618  0.8970 -0.6991  0.5133
 5278TIP3   OH237468   2.579   1.206   1.977  0.1654  0.6329  0.8472
 5278TIP3    H137469   2.505   1.187   2.033 -1.2052 -0.0259 -1.0809
 5278TIP3    H237470   2.645   1.140   2.001 -0.5174  0.1415  1.4181
 5279TIP3   OH237471   4.872   6.941   0.440 -0.3782 -0.3500  0.1718
 5279TIP3    H137472   4.897   6.972   0.352  1.9890 -1.2576  0.4282
 5279TIP3    H237473   4.908   7.008   0.499  2.8850 -2.2540  0.6138
 5280TIP3   OH237474   6.528   5.985   1.176 -0.0799  0.3177  0.2596
 5280TIP3    H137475   6.617   6.009   1.150  0.1693 -2.0636 -1.3810
 5280TIP3    H237476   6.531   5.980   1.271  1.2968  1.1412  0.2803
 5281TIP3   OH237477   6.362   4.444   0.072 -0.1727  0.0212 -0.0684
 5281TIP3    H137478   6.294   4.469   0.008 -0.9406  0.6230  0.9448
 5281TIP3    H237479   6.337   4.356   0.100 -0.2194  0.0181 -0.1188
 5282TIP3   OH237480   2.359   3.304   0.718  0.0236 -0.2348 -0.0435
 5282TIP3    H137481   2.394   3.366   0.654 -0.8516 -1.2109 -1.5293
 5282TIP3    H237482   2.276   3.275   0.680  0.3749 -2.2544  0.6211
 5283TIP3   OH237483   2.143   1.189   2.753 -0.3687 -0.1858  0.2185
 5283TIP3    H137484   2.135   1.214   2.661  0.6157 -1.5678 -0.2758
 5283TIP3    H237485   2.056   1.159   2.778 -0.9877  1.4556  0.1638
 5284TIP3   OH237486   3.734   1.602   1.012 -0.2115  0.4076  0.9621
 5284TIP3    H137487   3.789   1.557   1.076 -0.2891 -0.5212  0.3968
 5284TIP3    H237488   3.774   1.688   1.001  0.9412 -0.1359  0.7985
 5285TIP3   OH237489   0.968   6.000   1.357  0.5494 -0.1790  0.1687
 5285TIP3    H137490   0.936   6.014   1.446 -1.5357 -0.7872 -0.4289
 5285TIP3    H237491   0.894   6.024   1.301  1.9828  0.6794 -1.4422
 5286TIP3   OH237492   6.933   2.564   8.048  0.1432  0.2974 -0.6618
 5286TIP3    H137493   6.854   2.618   8.052 -0.2773 -0.3889  1.8446
 5286TIP3    H237494   6.922   2.500   8.118  2.1393 -0.9483 -1.4080
 5287TIP3   OH237495   4.620   5.762   8.406 -0.3415 -0.0284  0.3579
 5287TIP3    H137496   4.687   5.717   8.354 -1.3207 -1.1107  0.0061
 5287TIP3    H237497   4.661   5.846   8.429  0.5301  0.0289 -1.2140
 5288TIP3   OH237498   1.656   4.679   8.438 -0.5755  0.0248  0.4221
 5288TIP3    H137499   1.600   4.684   8.361  0.0804 -1.2570 -0.1702
 5288TIP3    H237500   1.730   4.735   8.417 -0.0468 -0.8806 -0.2144
 5289TIP3   OH237501   2.876   2.775   1.598 -0.2947 -0.8072 -0.4450
 5289TIP3    H137502   2.903   2.751   1.686 -2.3054  1.2440  0.8456
 5289TIP3    H237503   2.786   2.744   1.591 -0.2798 -0.6354 -1.6511
 5290TIP3   OH237504   6.104   5.713   0.448 -0.3714 -0.3420 -0.6169
 5290TIP3    H137505   6.074   5.762   0.371  0.0629 -1.6401 -1.6361
 5290TIP3    H237506   6.024   5.685   0.492 -0.7057  2.7923  1.0697
 5291TIP3   OH237507   4.138   2.094   2.543 -0.0437 -0.2788  0.0145
 5291TIP3    H137508   4.141   2.183   2.506 -0.2554 -1.1965 -2.3834
 5291TIP3    H237509   4.230   2.073   2.559 -0.0533  0.6948  1.5132
 5292TIP3   OH237510   3.822   4.817   1.126  0.0702  0.0861  0.3277
 5292TIP3    H137511   3.866   4.780   1.050 -0.9380  1.5526 -1.0270
 5292TIP3    H237512   3.860   4.905   1.135 -1.3918  0.7698  0.0982
 5293TIP3   OH237513   1.853   4.760   0.516 -0.1325  0.4608  0.7491
 5293TIP3    H137514   1.864   4.810   0.436  2.5343  1.8580  1.8494
 5293TIP3    H237515   1.768   4.717   0.507 -0.1771  1.0408 -2.5042
 5294TIP3   OH237516   5.043   5.442   8.212 -0.1755 -0.4900  0.1073
 5294TIP3    H137517   5.113   5.507   8.224  1.0828 -1.6663 -0.5666
 5294TIP3    H237518   5.066   5.371   8.273 -0.9268 -0.7817  0.0538
 5295TIP3   OH237519   3.473   3.287   0.103 -0.2494 -0.2395  0.3580
 5295TIP3    H137520   3.482   3.381   0.119  1.7082 -0.4063  0.5146
 5295TIP3    H237521   3.506   3.274   0.014 -0.7191 -0.7626  0.2511
 5296TIP3   OH237522   3.701   0.947   7.987 -0.0374  0.7402 -0.0472
 5296TIP3    H137523   3.737   0.888   8.053 -0.0741  2.7882  1.9379
 5296TIP3    H237524   3.777   0.995   7.954 -0.3821  2.5974  1.6054
 5297TIP3   OH237525   0.161   2.436   7.390  0.3010  0.6832 -0.4146
 5297TIP3    H137526   0.238   2.417   7.442  0.1002  1.7381  0.2939
 5297TIP3    H237527   0.101   2.364   7.409  0.0677  1.2442  1.1794
 5298TIP3   OH237528   4.752   1.485   0.908  0.4499 -0.2462  0.7003
 5298TIP3    H137529   4.805   1.532   0.844 -0.9127  1.2363  0.6122
 5298TIP3    H237530   4.667   1.473   0.866  0.6294 -2.5562  0.8575
 5299TIP3   OH237531   5.038   3.400   8.258  0.4674  0.2142  0.4234
 5299TIP3    H137532   5.105   3.408   8.191  0.5102 -0.5845  0.3567
 5299TIP3    H237533   4.956   3.419   8.214  0.8284  4.0406  1.1037
 5300TIP3   OH237534   4.669   5.285   6.814 -0.1973  0.2261 -0.2400
 5300TIP3    H137535   4.638   5.353   6.754 -2.3098 -1.4289 -1.1845
 5300TIP3    H237536   4.733   5.235   6.762 -0.5668 -0.0303 -0.4550
 5301TIP3   OH237537   6.869   0.910   0.711  0.2996  0.6153 -0.1919
 5301TIP3    H137538   6.806   0.867   0.653  0.8480 -1.3935  0.6081
 5301TIP3    H237539   6.844   0.880   0.799 -0.5914  3.6693  0.7054
 5302TIP3   OH237540   6.790   4.526   8.392  0.4557 -0.0032 -0.7259
 5302TIP3    H137541   6.839   4.525   8.475  0.1021 -0.7664 -0.5142
 5302TIP3    H237542   6.698   4.524   8.419  0.3226  0.5137 -1.1331
 5303TIP3   OH237543   0.195   6.558   7.235 -0.1127  0.4665  0.1322
 5303TIP3    H137544   0.130   6.627   7.223 -0.5309  0.5103  2.2709
 5303TIP3    H237545   0.144   6.477   7.233 -0.0847  0.4319  0.7402
 5304TIP3   OH237546   4.177   2.448   7.266 -0.3622 -0.0247 -0.4949
 5304TIP3    H137547   4.123   2.391   7.212 -0.9241  0.0439 -0.0204
 5304TIP3    H237548   4.183   2.530   7.218 -0.6810 -0.0355 -0.5487
 5305TIP3   OH237549   2.104   4.261   6.648  0.1161  0.4359 -0.3721
 5305TIP3    H137550   2.157   4.336   6.672 -0.6849  0.6359  0.8928
 5305TIP3    H237551   2.164   4.202   6.602  1.7922  0.0731  2.0969
 5306TIP3   OH237552   2.750   1.054   0.816  0.0197  0.1450  0.3916
 5306TIP3    H137553   2.742   0.996   0.892  0.2715 -0.4117 -0.0076
 5306TIP3    H237554   2.828   1.107   0.834 -1.2244  1.6621  1.6232
 5307TIP3   OH237555   5.093   2.055   1.400 -0.0866 -0.2573  0.3094
 5307TIP3    H137556   5.176   2.010   1.416  0.0499 -0.3631 -0.6598
 5307TIP3    H237557   5.026   1.986   1.408  0.0054 -0.3695  0.1079
 5308TIP3   OH237558   2.411   2.213   8.327  0.2028  0.1586  0.0749
 5308TIP3    H137559   2.416   2.168   8.411  0.6319  0.9778  0.4954
 5308TIP3    H237560   2.333   2.176   8.285  1.1661 -1.8299 -0.1120
 5309TIP3   OH237561   0.952   2.195   7.113  0.1708  0.7893 -0.2088
 5309TIP3    H137562   1.024   2.200   7.176 -1.1831 -1.0000  1.6194
 5309TIP3    H237563   0.974   2.119   7.058  0.1034  0.7876 -0.2324
 5310TIP3   OH237564   2.881   6.711   1.883  0.9130 -0.7031  0.6219
 5310TIP3    H137565   2.944   6.781   1.866  0.9681 -1.1494 -1.1132
 5310TIP3    H237566   2.923   6.631   1.850 -0.4688 -1.0421 -0.3870
 5311TIP3   OH237567   5.411   3.150   2.667  0.3674 -0.3532  0.1208
 5311TIP3    H137568   5.486   3.148   2.607  1.0981 -0.6429  1.0214
 5311TIP3    H237569   5.387   3.242   2.672  0.5682 -0.2758 -0.2994
 5312TIP3   OH237570   2.233   6.382   7.326  0.0628 -0.5669 -0.0614
 5312TIP3    H137571   2.200   6.443   7.392  0.8060  1.1778 -1.1976
 5312TIP3    H237572   2.310   6.342   7.366 -0.2738 -0.5357  0.6182
 5313TIP3   OH237573   3.085   1.373   7.928  0.1944  0.0894 -0.3237
 5313TIP3    H137574   3.155   1.316   7.896  0.4910  0.5711 -0.5395
 5313TIP3    H237575   3.021   1.376   7.857 -0.5732 -1.2051  0.2794
 5314TIP3   OH237576   5.697   2.325   8.484  0.1467 -0.0538 -0.2399
 5314TIP3    H137577   5.722   2.262   8.416  0.7817 -0.0617  0.0000
 5314TIP3    H237578   5.663   2.270   8.555  0.0281 -0.0806 -0.3166
 5315TIP3   OH237579   5.677   0.263   7.280  0.0393 -0.1062 -0.2332
 5315TIP3    H137580   5.628   0.342   7.306  1.9192  1.3216 -0.7881
 5315TIP3    H237581   5.704   0.281   7.189  0.4876 -1.4063 -0.3722
 5316TIP3   OH237582   4.567   5.685   2.278  0.3368  0.6252  0.2043
 5316TIP3    H137583   4.551   5.759   2.336 -0.0249  2.1081 -1.6549
 5316TIP3    H237584   4.658   5.662   2.292  0.3946  1.2996  0.9676
 5317TIP3   OH237585   6.130   5.631   6.840 -0.8379  0.2609  0.0163
 5317TIP3    H137586   6.138   5.640   6.746  1.1067 -1.5146 -0.0367
 5317TIP3    H237587   6.217   5.650   6.874 -0.7271 -1.9589  1.1630
 5318TIP3   OH237588   2.886   1.908   0.443  0.4853  0.0612  0.1805
 5318TIP3    H137589   2.932   1.908   0.360  0.9507 -0.4374  0.4359
 5318TIP3    H237590   2.795   1.930   0.420  0.5882 -0.1769 -0.4663
 5319TIP3   OH237591   3.456   5.376   6.748  0.0013 -0.2475 -0.0235
 5319TIP3    H137592   3.380   5.414   6.703 -1.7400 -2.3461  0.9655
 5319TIP3    H237593   3.530   5.399   6.692 -1.4518  1.0916 -1.5446
 5320TIP3   OH237594   3.551   1.091   1.213 -0.2761  0.0585 -0.2521
 5320TIP3    H137595   3.498   1.041   1.151 -1.5928 -0.0059  0.8639
 5320TIP3    H237596   3.537   1.183   1.189  1.8208 -0.0120 -2.0479
 5321TIP3   OH237597   4.006   0.212   6.419  0.1667  0.3120  0.4642
 5321TIP3    H137598   3.913   0.189   6.411  0.0786 -0.4051  2.8049
 5321TIP3    H237599   4.007   0.306   6.435 -0.0155  0.5927 -1.0023
 5322TIP3   OH237600   4.155   5.922   7.711  0.6188 -0.8938 -0.3659
 5322TIP3    H137601   4.125   5.911   7.621  1.0135 -0.3287 -0.5719
 5322TIP3    H237602   4.076   5.941   7.761  0.5097 -0.3263 -0.7465
 5323TIP3   OH237603   5.407   2.254   6.569 -0.0070 -0.7346 -0.0036
 5323TIP3    H137604   5.489   2.270   6.617  0.3552  1.1840 -1.1406
 5323TIP3    H237605   5.379   2.168   6.598  1.6313 -0.8142  1.5559
 5324TIP3   OH237606   6.910   1.740   8.409 -0.0853  0.2759 -0.1918
 5324TIP3    H137607   6.951   1.826   8.403  0.9734 -0.1004  1.1785
 5324TIP3    H237608   6.946   1.691   8.335 -0.6887  0.9657 -0.9739
 5325TIP3   OH237609   2.496   2.407   8.138  0.8718  0.8550 -0.4917
 5325TIP3    H137610   2.472   2.335   8.196  2.3403  0.7187  0.0020
 5325TIP3    H237611   2.416   2.458   8.128  0.1536 -0.0928  0.2430
 5326TIP3   OH237612   1.097   0.277   7.900 -0.2139  1.1566 -0.1146
 5326TIP3    H137613   1.150   0.198   7.909 -3.7091 -1.2315  2.1051
 5326TIP3    H237614   1.141   0.342   7.955  2.2292  0.5378 -1.2062
 5327TIP3   OH237615   3.573   4.144   8.465  0.6631  0.0154 -0.1808
 5327TIP3    H137616   3.492   4.183   8.434  0.3748  0.2267  0.7981
 5327TIP3    H237617   3.636   4.216   8.464  0.7629 -0.0720 -0.6270
 5328TIP3   OH237618   1.050   5.748   7.941  0.3325 -0.3229  0.2008
 5328TIP3    H137619   1.114   5.724   8.008  1.2147 -1.9805 -1.1519
 5328TIP3    H237620   1.092   5.724   7.858 -1.5287 -0.2522 -0.8144
 5329TIP3   OH237621   0.715   5.522   6.685  0.5424 -0.7129  0.4964
 5329TIP3    H137622   0.687   5.523   6.593  0.8540 -4.8017  0.1383
 5329TIP3    H237623   0.795   5.574   6.687 -0.9172  1.7852 -0.8547
 5330TIP3   OH237624   1.772   1.379   0.290 -0.6230 -0.0138 -0.3107
 5330TIP3    H137625   1.722   1.457   0.317  2.4939  1.7644  0.8503
 5330TIP3    H237626   1.804   1.400   0.203  2.2972  1.3036  0.9356
 5331TIP3   OH237627   0.025   2.187   1.786  0.6334 -0.2687 -0.0250
 5331TIP3    H137628   0.004   2.097   1.811  2.6058 -0.1891  2.3494
 5331TIP3    H237629   0.086   2.179   1.712 -0.0951 -0.8134 -0.5748
 5332TIP3   OH237630   1.173   5.171   8.041  0.2358  0.0606 -0.0467
 5332TIP3    H137631   1.101   5.182   8.102 -0.1683 -1.2190 -0.2562
 5332TIP3    H237632   1.247   5.144   8.095  0.0494 -0.4491 -0.0418
 5333TIP3   OH237633   1.118   6.654   6.532 -0.1919  0.1144 -0.3598
 5333TIP3    H137634   1.045   6.706   6.565  0.4066  0.3696  0.5908
 5333TIP3    H237635   1.121   6.674   6.438 -2.1898 -0.9517 -0.7052
 5334TIP3   OH237636   5.213   4.220   1.958 -0.0908  0.4347  0.6759
 5334TIP3    H137637   5.293   4.176   1.989  1.3185  1.2295 -1.6157
 5334TIP3    H237638   5.147   4.150   1.958  1.8258 -1.5944 -1.9244
 5335TIP3   OH237639   1.423   5.392   0.220  0.0426 -0.1196 -0.0478
 5335TIP3    H137640   1.477   5.333   0.166  0.4999 -1.2914  1.5998
 5335TIP3    H237641   1.467   5.477   0.214  1.1697 -0.6809 -0.0285
 5336TIP3   OH237642   2.984   2.136   2.103  0.3089 -0.0899 -0.0077
 5336TIP3    H137643   2.900   2.104   2.069  0.3521 -1.6762  1.2725
 5336TIP3    H237644   2.964   2.221   2.142 -0.8054 -0.6414  0.6574
 5337TIP3   OH237645   2.216   5.858   0.129 -0.3064  0.1807  0.9757
 5337TIP3    H137646   2.311   5.847   0.137  0.0537  0.6333 -1.7855
 5337TIP3    H237647   2.185   5.776   0.091 -0.8104  0.5072  0.6635
 5338TIP3   OH237648   2.338   1.810   8.474 -0.0525  0.2484 -0.0718
 5338TIP3    H137649   2.247   1.808   8.446 -0.6235 -3.4378  1.4244
 5338TIP3    H237650   2.384   1.754   8.411  0.4432 -0.6312  1.0313
 5339TIP3   OH237651   5.681   3.580   1.150 -0.2227  0.5812 -0.3154
 5339TIP3    H137652   5.701   3.664   1.110 -0.5146 -0.2420 -2.2715
 5339TIP3    H237653   5.593   3.591   1.186  0.5979  1.7727  1.4507
 5340TIP3   OH237654   3.553   4.141   7.768  0.5247 -0.0944  0.2166
 5340TIP3    H137655   3.627   4.198   7.746  0.7402  0.2937  1.8660
 5340TIP3    H237656   3.509   4.126   7.684  2.5775 -0.4983 -0.8462
 5341TIP3   OH237657   6.105   0.327   1.549  0.5919  0.2963  0.0189
 5341TIP3    H137658   6.069   0.239   1.533  2.9099 -0.7769  0.3309
 5341TIP3    H237659   6.180   0.333   1.490 -0.3081  2.6721 -1.0096
 5342TIP3   OH237660   1.618   6.158   7.360  0.6467  0.6821 -0.3666
 5342TIP3    H137661   1.563   6.098   7.411  2.7022 -0.4875  0.6207
 5342TIP3    H237662   1.556   6.205   7.304 -1.3414 -0.5002  0.6930
 5343TIP3   OH237663   6.596   0.552   8.008 -0.5589 -0.3239 -0.8601
 5343TIP3    H137664   6.595   0.644   7.982 -0.9387 -0.5088 -1.5195
 5343TIP3    H237665   6.679   0.519   7.974 -0.2141 -0.1225 -0.2316
 5344TIP3   OH237666   4.936   1.724   8.282  0.1380 -0.2662 -0.4016
 5344TIP3    H137667   4.855   1.767   8.307  0.5555  0.5744 -0.4803
 5344TIP3    H237668   4.941   1.732   8.187  0.6157  0.2431 -0.3403
 5345TIP3   OH237669   4.135   3.513   7.404  0.2949 -0.2886 -0.0577
 5345TIP3    H137670   4.047   3.493   7.435 -0.1226 -1.0636 -1.6534
 5345TIP3    H237671   4.191   3.496   7.480 -0.9093  0.2047  0.9751
 5346TIP3   OH237672   3.598   1.343   7.824  0.0230 -0.8175  0.3834
 5346TIP3    H137673   3.660   1.365   7.894 -0.5034 -0.2639  0.6922
 5346TIP3    H237674   3.561   1.259   7.849  0.0305 -0.7446  0.6389
 5347TIP3   OH237675   4.116   4.239   1.026  0.1328 -0.0848 -0.0625
 5347TIP3    H137676   4.046   4.173   1.026 -0.6862  0.7120  1.8824
 5347TIP3    H237677   4.180   4.205   0.964 -1.2264 -1.6563 -0.7031
 5348TIP3   OH237678   5.236   4.812   0.760  0.6716 -0.4227 -0.4255
 5348TIP3    H137679   5.168   4.755   0.796  0.5122  1.5337  2.7372
 5348TIP3    H237680   5.202   4.901   0.772  2.2182  0.5071 -2.3111
 5349TIP3   OH237681   5.698   3.991   8.516 -0.0344 -0.4170  0.0438
 5349TIP3    H137682   5.604   3.973   8.518 -0.4599  1.6148  0.8311
 5349TIP3    H237683   5.733   3.945   8.592 -0.6193 -0.1366  0.4912
 5350TIP3   OH237684   2.561   3.382   8.028 -0.1642  0.3687  0.1731
 5350TIP3    H137685   2.520   3.331   8.098 -2.0179 -0.2099 -1.2717
 5350TIP3    H237686   2.636   3.424   8.070 -1.0086 -0.2405  2.4135
 5351TIP3   OH237687   4.363   5.037   0.365  0.3553 -0.2920  0.0627
 5351TIP3    H137688   4.341   5.098   0.295 -0.3134  0.7572  1.1385
 5351TIP3    H237689   4.291   5.045   0.427  2.3801  1.3105  2.4590
 5352TIP3   OH237690   5.368   3.709   8.097  0.0430 -0.2201  1.0572
 5352TIP3    H137691   5.375   3.804   8.090  0.5038 -0.3426 -0.4502
 5352TIP3    H237692   5.431   3.675   8.033  0.5156 -1.5577  2.1626
 5353TIP3   OH237693   6.090   5.635   7.197  0.7013  0.3410  0.4774
 5353TIP3    H137694   6.033   5.566   7.163 -0.5788  1.3474  0.4833
 5353TIP3    H237695   6.166   5.589   7.231  0.6682 -0.9387 -1.0408
 5354TIP3   OH237696   1.119   1.995   7.029 -0.0721  0.3221 -0.3553
 5354TIP3    H137697   1.072   1.969   7.109 -0.1157 -0.3025 -0.5787
 5354TIP3    H237698   1.207   1.957   7.040  0.8970  2.7089  0.7383
 5355TIP3   OH237699   4.495   5.034   6.949  0.0864 -0.1931 -0.0116
 5355TIP3    H137700   4.471   5.117   6.909 -0.7204  0.0290  0.8986
 5355TIP3    H237701   4.502   4.973   6.876 -1.7559  0.1008 -0.4802
 5356TIP3   OH237702   3.139   3.170   1.157 -0.6733  0.2376 -0.2458
 5356TIP3    H137703   3.137   3.135   1.067 -0.0237 -2.7573  0.7813
 5356TIP3    H237704   3.066   3.127   1.201  0.1145  0.2204  1.1032
 5357TIP3   OH237705   4.782   5.840   1.690 -0.0779 -0.0765  0.5120
 5357TIP3    H137706   4.722   5.868   1.620  0.9056  0.7700 -0.0181
 5357TIP3    H237707   4.757   5.893   1.765  1.0538  1.5298 -0.1808
 5358TIP3   OH237708   3.204   4.394   7.608  0.7465  0.2702  0.0569
 5358TIP3    H137709   3.248   4.457   7.665 -0.4501  0.1343  1.1627
 5358TIP3    H237710   3.132   4.444   7.568  0.2547 -0.1925  0.3548
 5359TIP3   OH237711   6.248   6.765   0.600  1.0791 -0.7692  0.2187
 5359TIP3    H137712   6.230   6.735   0.689  1.9804  0.6575  0.9115
 5359TIP3    H237713   6.177   6.826   0.580  1.0495 -0.8491  0.0766
 5360TIP3   OH237714   4.235   3.259   1.005  0.0263 -0.0189  0.2900
 5360TIP3    H137715   4.247   3.181   0.951 -0.6123  1.0230 -1.4322
 5360TIP3    H237716   4.282   3.328   0.958  0.0926  0.7724  1.4816
 5361TIP3   OH237717   5.450   3.672   1.330  0.2868  0.1926  0.4612
 5361TIP3    H137718   5.447   3.740   1.397  2.5307 -0.1244  0.9419
 5361TIP3    H237719   5.493   3.598   1.373 -0.9685 -1.1156 -0.4395
 5362TIP3   OH237720   4.876   6.915   1.863 -0.5772  0.2791 -0.1018
 5362TIP3    H137721   4.825   6.862   1.802  1.6632  0.1806 -2.0187
 5362TIP3    H237722   4.846   7.005   1.847 -2.2766 -0.0289  1.0489
 5363TIP3   OH237723   5.928   3.083   2.211 -0.1952 -0.3296  0.1042
 5363TIP3    H137724   5.882   3.163   2.187 -0.9545 -0.6164  0.5535
 5363TIP3    H237725   6.019   3.099   2.188 -0.4371  0.4448 -0.3344
 5364TIP3   OH237726   0.253   1.632   1.544  0.4818 -0.1829 -0.6452
 5364TIP3    H137727   0.282   1.553   1.499 -0.7470 -1.5236  0.7605
 5364TIP3    H237728   0.236   1.695   1.474  0.7556 -1.4183 -1.8780
 5365TIP3   OH237729   1.917   0.011   0.047 -0.3675  0.3242 -0.0703
 5365TIP3    H137730   1.893  -0.060   0.107 -2.0755  0.1120 -0.9494
 5365TIP3    H237731   1.847   0.076   0.058  1.3765  2.1393  1.0521
 5366TIP3   OH237732   0.262   6.191   1.648  0.8943 -0.9366  0.4969
 5366TIP3    H137733   0.183   6.155   1.609  0.8336  0.1680 -0.4499
 5366TIP3    H237734   0.262   6.157   1.738 -1.9301  0.8989  1.3223
 5367TIP3   OH237735   5.619   0.889   8.548  0.7278  0.3941  0.0287
 5367TIP3    H137736   5.667   0.822   8.598  0.7543  0.9866  0.8121
 5367TIP3    H237737   5.688   0.941   8.507  0.7555  0.9759  0.7982
 5368TIP3   OH237738   4.003   4.799   2.183  0.0882  0.0171 -0.0971
 5368TIP3    H137739   4.089   4.767   2.210 -0.9737 -3.1873 -0.1240
 5368TIP3    H237740   3.997   4.776   2.091 -0.6230  0.6945 -0.2284
 5369TIP3   OH237741   6.211   4.969   7.377  0.0259  0.3959 -0.2233
 5369TIP3    H137742   6.256   4.886   7.361 -0.3579  0.5604 -2.5034
 5369TIP3    H237743   6.118   4.945   7.377 -0.0720  0.7785 -0.5586
 5370TIP3   OH237744   1.963   6.228   7.051 -0.0730  0.1007  0.8206
 5370TIP3    H137745   1.907   6.182   6.989  1.4438  0.4066 -0.8503
 5370TIP3    H237746   1.905   6.251   7.124 -1.8642 -0.4259 -0.3890
 5371TIP3   OH237747   1.632   6.031   8.318  0.1499  0.1341  0.0654
 5371TIP3    H137748   1.714   6.076   8.340  0.7816 -1.0908  0.3285
 5371TIP3    H237749   1.642   6.005   8.227  0.3733 -0.6114  0.2866
 5372TIP3   OH237750   1.372   6.435   8.147 -0.0125  0.1387  0.0428
 5372TIP3    H137751   1.382   6.487   8.227  3.2215 -1.1731  0.6273
 5372TIP3    H237752   1.368   6.344   8.178  0.3611 -0.3382 -1.2430
 5373TIP3   OH237753   3.731   4.607   1.990  0.0250 -0.2474 -0.4830
 5373TIP3    H137754   3.752   4.550   2.065 -0.5907 -0.5508 -0.5324
 5373TIP3    H237755   3.638   4.627   2.001  0.0196  0.0025 -0.9735
 5374TIP3   OH237756   5.051   2.221   2.049  0.4380  0.2139 -0.1410
 5374TIP3    H137757   5.052   2.173   1.967  0.5885  1.7186 -1.0551
 5374TIP3    H237758   5.096   2.164   2.111 -0.1418 -1.1716 -0.9564
 5375TIP3   OH237759   6.216   4.527   7.337 -0.0572 -0.2307  0.7981
 5375TIP3    H137760   6.127   4.537   7.303  0.2401  0.4500  0.2200
 5375TIP3    H237761   6.272   4.533   7.261  0.4916 -0.7104  1.1576
 5376TIP3   OH237762   6.045   0.288   0.846  0.2851 -0.3618  0.3330
 5376TIP3    H137763   6.017   0.197   0.859 -1.0607  0.0529  0.4997
 5376TIP3    H237764   5.974   0.340   0.883  0.7799  0.7671 -0.2706
 5377TIP3   OH237765   6.804   6.940   6.618  0.1449 -0.6270  0.3187
 5377TIP3    H137766   6.787   7.034   6.620  0.0271 -0.6580  1.2922
 5377TIP3    H237767   6.881   6.930   6.562 -1.0794 -0.1706 -1.5123
 5378TIP3   OH237768   6.817   4.679   7.517  0.3504 -0.3020  0.1745
 5378TIP3    H137769   6.795   4.765   7.553  1.0849  0.4617 -1.1427
 5378TIP3    H237770   6.739   4.626   7.533 -0.2353  0.6990  0.7269
 5379TIP3   OH237771   6.393   1.938   2.522  0.3481 -0.5697 -0.8471
 5379TIP3    H137772   6.485   1.920   2.503  0.8582  0.9539 -0.0371
 5379TIP3    H237773   6.388   2.034   2.528 -1.1679 -0.6498 -0.2622
 5380TIP3   OH237774   6.751   0.534   8.415  0.0504  0.0990  0.2196
 5380TIP3    H137775   6.717   0.505   8.499 -0.5514 -1.8525 -0.6477
 5380TIP3    H237776   6.725   0.626   8.409 -2.0657 -0.3846  1.0992
 5381TIP3   OH237777   1.574   0.039   0.576  0.4816 -0.4036  0.0660
 5381TIP3    H137778   1.642   0.023   0.511  0.8095 -0.4971  0.4289
 5381TIP3    H237779   1.500   0.073   0.525  0.7338 -0.4719 -0.3533
 5382TIP3   OH237780   2.471   2.792   0.868 -0.1828  0.1531  0.3522
 5382TIP3    H137781   2.458   2.779   0.962  0.6740 -0.0104  0.4550
 5382TIP3    H237782   2.565   2.806   0.858  0.0197 -1.6301 -0.6784
 5383TIP3   OH237783   0.907   6.289   7.218 -0.0366  0.1248  0.5539
 5383TIP3    H137784   0.846   6.277   7.291  0.5353 -0.5151  0.9370
 5383TIP3    H237785   0.859   6.261   7.141 -0.3748  0.0403  0.7930
 5384TIP3   OH237786   4.628   1.619   1.122 -0.1628 -0.3567  0.7395
 5384TIP3    H137787   4.543   1.635   1.081  0.1770 -2.0065 -0.7372
 5384TIP3    H237788   4.674   1.562   1.060  1.7717 -0.0526  1.8104
 5385TIP3   OH237789   0.229   6.037   6.292  0.2132  0.0514 -0.3803
 5385TIP3    H137790   0.280   6.099   6.240  0.2493 -0.7922 -1.3963
 5385TIP3    H237791   0.175   5.991   6.228  0.2545 -1.0227  0.3199
 5386TIP3   OH237792   5.517   6.864   0.078  0.5132 -0.0642  0.4206
 5386TIP3    H137793   5.610   6.883   0.067  0.4524  0.4081  0.6657
 5386TIP3    H237794   5.498   6.893   0.167  0.2738 -0.7594  0.6042
 5387TIP3   OH237795   2.350   4.186   0.009  0.3969 -0.1818  0.1171
 5387TIP3    H137796   2.359   4.123   0.081 -2.2102 -1.6771 -0.7405
 5387TIP3    H237797   2.404   4.149  -0.061  1.2915  0.1936  0.5847
 5388TIP3   OH237798   0.499   4.299   0.495 -0.3033 -0.1427 -0.1951
 5388TIP3    H137799   0.485   4.375   0.552  0.4855  0.8405 -1.2793
 5388TIP3    H237800   0.590   4.275   0.509  0.0290  0.3882 -1.3488
 5389TIP3   OH237801   2.459   0.953   1.671 -1.0498  0.4570  0.5787
 5389TIP3    H137802   2.441   1.046   1.657 -2.0364  0.1281 -0.5957
 5389TIP3    H237803   2.514   0.928   1.598  1.3760  0.6319  2.2465
 5390TIP3   OH237804   1.113   1.717   1.644  0.2772  0.5798 -0.0826
 5390TIP3    H137805   1.167   1.785   1.605 -0.4414  1.2550  0.0723
 5390TIP3    H237806   1.137   1.637   1.597  0.8948  0.9961 -0.4894
 5391TIP3   OH237807   3.453   1.719   0.441  0.0668 -0.2642 -0.8982
 5391TIP3    H137808   3.534   1.675   0.467 -1.5088 -3.9660 -1.6184
 5391TIP3    H237809   3.387   1.683   0.500 -1.6440 -0.0241 -2.5896
 5392TIP3   OH237810   3.743   6.096   8.128  0.6479  0.3906  0.1947
 5392TIP3    H137811   3.664   6.048   8.152 -0.4960  1.5282 -1.1358
 5392TIP3    H237812   3.813   6.053   8.177 -0.4425 -2.0940 -0.2682
 5393TIP3   OH237813   6.857   5.091   0.652 -0.1059 -0.4476 -0.1537
 5393TIP3    H137814   6.814   5.011   0.623 -1.5231  0.6140 -1.1478
 5393TIP3    H237815   6.803   5.161   0.615  0.0619  0.9850  2.1346
 5394TIP3   OH237816   1.516   1.117   2.290  0.4052 -0.3787 -0.0701
 5394TIP3    H137817   1.481   1.053   2.351  1.1164 -0.9172 -0.2194
 5394TIP3    H237818   1.454   1.190   2.294 -0.9373 -1.4341 -0.5758
 5395TIP3   OH237819   5.054   4.823   7.489  0.3338 -0.5777  0.3980
 5395TIP3    H137820   5.082   4.836   7.398  0.3038  1.5445  0.6462
 5395TIP3    H237821   4.973   4.773   7.482  0.4788 -0.6836 -0.7257
 5396TIP3   OH237822   4.443   1.981   7.615 -0.1769  0.7312 -0.2001
 5396TIP3    H137823   4.438   1.892   7.580 -1.9040  0.7839 -0.1729
 5396TIP3    H237824   4.414   2.037   7.543 -0.0147  1.1919  0.0848
 5397TIP3   OH237825   3.161   6.086   6.117 -0.5889 -0.2819 -0.5694
 5397TIP3    H137826   3.173   5.991   6.117  0.1321 -0.2277  1.1278
 5397TIP3    H237827   3.248   6.122   6.103 -1.1676  0.2034 -3.6348
 5398TIP3   OH237828   2.637   5.273   7.426 -0.8682 -0.5008 -0.6048
 5398TIP3    H137829   2.652   5.363   7.453  0.5913 -0.5704 -1.0903
 5398TIP3    H237830   2.634   5.223   7.508 -0.8096 -0.1350 -0.3804
 5399TIP3   OH237831   1.511   1.282   1.617 -0.1859 -0.0458 -0.1068
 5399TIP3    H137832   1.603   1.282   1.643  0.1701 -1.8121 -1.2286
 5399TIP3    H237833   1.463   1.286   1.700  0.8511  1.9053  0.4639
 5400TIP3   OH237834   0.484   5.280   7.874  0.2286  0.7219 -0.3629
 5400TIP3    H137835   0.460   5.357   7.925  1.3575  1.6147 -1.1087
 5400TIP3    H237836   0.550   5.312   7.813  0.5314 -0.7914 -0.8749
 5401TIP3   OH237837   1.642   6.755   5.999  0.3873 -0.3430  0.0436
 5401TIP3    H137838   1.689   6.673   5.990 -0.1861 -0.7413  0.5930
 5401TIP3    H237839   1.703   6.813   6.046  0.8030 -0.4366 -0.3768
 5402TIP3   OH237840   6.761   6.443   8.437  0.3689 -0.5951 -0.3812
 5402TIP3    H137841   6.841   6.495   8.442  0.0888 -0.1146 -0.9058
 5402TIP3    H237842   6.784   6.361   8.481  0.1223  0.8002  2.5928
 5403TIP3   OH237843   1.783   0.041   0.368 -0.5524 -0.0096 -0.0605
 5403TIP3    H137844   1.742   0.110   0.316 -1.4178 -1.6710 -1.6798
 5403TIP3    H237845   1.755  -0.040   0.327  1.5542 -1.3224  0.9454
 5404TIP3   OH237846   0.446   6.671   7.366 -0.1009 -0.0839 -0.0832
 5404TIP3    H137847   0.380   6.604   7.350 -0.3436 -0.1347  1.0837
 5404TIP3    H237848   0.473   6.658   7.457  1.7910 -0.2822 -0.6322
 5405TIP3   OH237849   2.558   0.606   1.771 -0.4967 -0.1067  0.3673
 5405TIP3    H137850   2.541   0.619   1.864 -5.6239  1.2552 -0.4362
 5405TIP3    H237851   2.540   0.692   1.731  0.4476 -0.9254 -2.0070
 5406TIP3   OH237852   0.758   4.361   7.507  0.8459  0.0414  0.0898
 5406TIP3    H137853   0.816   4.358   7.583  1.5959  1.1781 -0.4090
 5406TIP3    H237854   0.790   4.290   7.451 -0.6521 -1.7897  1.4351
 5407TIP3   OH237855   3.206   2.546   6.987 -0.5026 -0.0534 -0.2706
 5407TIP3    H137856   3.223   2.493   6.909 -3.3733 -0.9451 -0.4052
 5407TIP3    H237857   3.263   2.623   6.976  0.9388 -1.2706 -2.0079
 5408TIP3   OH237858   0.996   5.381   8.423 -0.2371 -0.2358  0.4186
 5408TIP3    H137859   0.989   5.350   8.333 -1.5648  0.1188  0.3667
 5408TIP3    H237860   0.917   5.348   8.466 -0.1125  0.4183  1.1806
 5409TIP3   OH237861   2.348   6.870   2.485  0.1926  0.3984  1.1720
 5409TIP3    H137862   2.275   6.821   2.523 -0.2626 -1.5018 -1.8573
 5409TIP3    H237863   2.426   6.825   2.517 -0.1400 -0.6062  0.5920
 5410TIP3   OH237864   2.617   3.836   0.557  0.8431 -0.3625  0.3913
 5410TIP3    H137865   2.537   3.784   0.566  0.8096 -0.8971 -2.2151
 5410TIP3    H237866   2.610   3.904   0.624 -1.9587 -0.2201  0.0563
 5411TIP3   OH237867   3.030   6.510   0.551  1.0231  0.2201 -0.0153
 5411TIP3    H137868   2.989   6.452   0.488  0.2855  0.1187  0.5436
 5411TIP3    H237869   3.121   6.482   0.555  1.3265  0.8626 -1.7427
 5412TIP3   OH237870   1.640   6.084   8.048  0.0248 -0.2281  0.3222
 5412TIP3    H137871   1.561   6.108   7.999  0.3011  0.3027  0.1390
 5412TIP3    H237872   1.655   5.993   8.024 -1.2480 -0.7420  1.3187
 5413TIP3   OH237873   3.967   6.868   1.088  0.0144  0.1573  0.1182
 5413TIP3    H137874   3.991   6.958   1.108  1.3392 -0.3645  1.0977
 5413TIP3    H237875   3.872   6.868   1.083  0.0185  1.6981 -0.4481
 5414TIP3   OH237876   0.576   4.391   1.737  0.7162 -0.1402  0.0263
 5414TIP3    H137877   0.501   4.438   1.701  0.3356 -1.3870 -0.8797
 5414TIP3    H237878   0.569   4.403   1.831  0.8761  1.9305 -0.1736
 5415TIP3   OH237879   2.327   5.017   0.495 -0.5289 -0.6213  0.0691
 5415TIP3    H137880   2.288   4.937   0.532  0.5178 -0.4140  1.6976
 5415TIP3    H237881   2.384   4.986   0.425 -0.8703 -1.2236  0.0521
 5416TIP3   OH237882   5.895   5.331   1.550 -0.5762 -0.2722  0.1611
 5416TIP3    H137883   5.920   5.391   1.620 -0.6753  0.0324 -0.0669
 5416TIP3    H237884   5.860   5.387   1.481  0.7069 -0.4598 -0.6645
 5417TIP3   OH237885   3.693   2.933   0.626 -0.0621  0.2169  0.4627
 5417TIP3    H137886   3.767   2.956   0.683  0.0067 -0.1454  0.5208
 5417TIP3    H237887   3.629   3.002   0.642  0.1974  0.4440  0.5354
 5418TIP3   OH237888   1.925   4.364   7.312  0.6581  0.6551 -0.3677
 5418TIP3    H137889   1.965   4.326   7.391  0.5424 -0.4503 -0.8165
 5418TIP3    H237890   1.992   4.355   7.245 -0.0466 -0.5629 -0.9524
 5419TIP3   OH237891   3.937   3.148   2.243 -0.1783 -0.1810 -0.2946
 5419TIP3    H137892   3.847   3.117   2.240 -1.4945  3.1464  0.5502
 5419TIP3    H237893   3.939   3.222   2.183  2.2493 -0.6460 -0.8883
 5420TIP3   OH237894   0.174   5.389   7.758  0.0796  0.3572  0.1247
 5420TIP3    H137895   0.141   5.368   7.846 -0.4401  0.8055  0.0452
 5420TIP3    H237896   0.249   5.447   7.773 -1.6240  2.6897  0.2570
 5421TIP3   OH237897   6.277   6.758   1.487 -0.0496  0.0688  0.0960
 5421TIP3    H137898   6.360   6.759   1.534 -0.9101 -0.3380  1.7173
 5421TIP3    H237899   6.286   6.686   1.424 -0.1330 -1.9089  2.2055
 5422TIP3   OH237900   2.606   1.681   0.137  0.8955  0.4525 -0.0632
 5422TIP3    H137901   2.618   1.762   0.088  0.7019 -0.2086 -1.2434
 5422TIP3    H237902   2.677   1.625   0.108  2.0891  0.7594  2.0383
 5423TIP3   OH237903   4.999   6.430   7.747  0.9563 -0.3350 -0.0521
 5423TIP3    H137904   4.945   6.387   7.682  0.6262 -1.2799  0.8183
 5423TIP3    H237905   5.087   6.431   7.710  0.7833 -0.9219 -0.4781
 5424TIP3   OH237906   5.594   5.769   8.102  0.1598  0.1045  0.7044
 5424TIP3    H137907   5.632   5.856   8.089  0.1295  0.3553  2.1187
 5424TIP3    H237908   5.564   5.770   8.193 -1.6996 -0.6879  0.1456
 5425TIP3   OH237909   2.177   3.877   2.037  0.1125 -0.0785  0.0393
 5425TIP3    H137910   2.239   3.809   2.010  0.2507  0.4909 -1.1408
 5425TIP3    H237911   2.170   3.866   2.132  1.3777 -0.6990  0.0886
 5426TIP3   OH237912   6.078   3.151   7.525 -0.2516 -0.1152 -0.6761
 5426TIP3    H137913   6.109   3.061   7.513 -0.7272 -0.2618 -0.8155
 5426TIP3    H237914   6.093   3.169   7.618 -1.0134 -0.6704 -0.4310
 5427TIP3   OH237915   3.821   6.354   0.512 -0.0703  0.0925 -0.0431
 5427TIP3    H137916   3.804   6.284   0.448  3.3456  2.2409 -3.7466
 5427TIP3    H237917   3.871   6.311   0.581 -0.6597 -1.6709 -0.6415
 5428TIP3   OH237918   0.842   6.292   1.075 -0.0741 -0.4595  0.1759
 5428TIP3    H137919   0.788   6.365   1.044  2.7401  2.8525  2.2581
 5428TIP3    H237920   0.905   6.278   1.004  1.1705  1.3262  0.8341
 5429TIP3   OH237921   2.784   0.384   2.329 -0.2867  0.1020  0.0750
 5429TIP3    H137922   2.871   0.371   2.365 -0.2755  0.9171  0.3581
 5429TIP3    H237923   2.731   0.312   2.365  0.0731  0.0697  0.5356
 5430TIP3   OH237924   6.872   4.667   0.440 -0.1143  0.6265  0.3140
 5430TIP3    H137925   6.959   4.638   0.468 -0.7391  0.5552  2.2952
 5430TIP3    H237926   6.835   4.591   0.394  1.6472  1.3673 -2.6095
 5431TIP3   OH237927   1.518   4.717   0.698  0.7588 -0.5711 -0.1458
 5431TIP3    H137928   1.527   4.622   0.692 -2.3257 -1.0761  1.0639
 5431TIP3    H237929   1.558   4.740   0.781  1.2929 -0.8539 -0.3218
 5432TIP3   OH237930   5.438   1.072   8.194  0.3163 -0.6504  1.3454
 5432TIP3    H137931   5.362   1.088   8.138  0.9956  0.8307  0.8069
 5432TIP3    H237932   5.401   1.039   8.276 -1.0192  1.2862  1.5732
 5433TIP3   OH237933   5.138   0.663   0.676  0.1441  0.6218  0.5778
 5433TIP3    H137934   5.175   0.692   0.760 -0.2043  0.9115  0.6353
 5433TIP3    H237935   5.209   0.616   0.634 -0.2415 -1.2458  1.8867
 5434TIP3   OH237936   3.213   3.286   0.238 -0.2981  0.1737 -0.6374
 5434TIP3    H137937   3.200   3.242   0.153 -0.1051 -1.3266  0.0800
 5434TIP3    H237938   3.276   3.355   0.219 -2.5232  1.9227 -2.3516
 5435TIP3   OH237939   3.261   5.738   1.044 -0.2670 -0.0167 -0.2507
 5435TIP3    H137940   3.239   5.714   0.954  1.4428  0.5182 -0.8522
 5435TIP3    H237941   3.238   5.831   1.051 -0.3960 -0.0569 -0.1406
 5436TIP3   OH237942   3.745   0.380   1.441 -0.0050  0.0240  0.3448
 5436TIP3    H137943   3.695   0.452   1.478 -0.4688 -0.2091  0.1804
 5436TIP3    H237944   3.823   0.374   1.496 -1.8054 -1.9208  2.9888
 5437TIP3   OH237945   3.661   5.791   8.088 -0.3925 -0.7798 -0.1485
 5437TIP3    H137946   3.678   5.817   7.998 -1.4198 -0.3205 -0.2230
 5437TIP3    H237947   3.566   5.784   8.094 -0.3811 -0.1809  1.0660
 5438TIP3   OH237948   2.491   4.721   7.837  0.0197 -0.2444  1.1371
 5438TIP3    H137949   2.510   4.694   7.927  2.1690  0.4200  0.9163
 5438TIP3    H237950   2.465   4.813   7.845 -0.6673 -0.4344  1.1567
 5439TIP3   OH237951   1.754   3.988   0.270  0.1577  0.1416 -0.4337
 5439TIP3    H137952   1.727   4.046   0.341 -2.2676 -1.0850 -0.2848
 5439TIP3    H237953   1.751   4.044   0.192 -1.3825  0.4441 -0.1841
 5440TIP3   OH237954   2.461   1.765   7.413 -0.1824  0.6712 -0.5008
 5440TIP3    H137955   2.556   1.770   7.426 -0.1637  0.6630 -0.6257
 5440TIP3    H237956   2.424   1.774   7.500 -0.0050 -1.5781 -0.1334
 5441TIP3   OH237957   4.537   4.119   6.978 -0.4904 -0.7386 -0.1580
 5441TIP3    H137958   4.528   4.025   6.991 -1.0793 -0.4129  2.5196
 5441TIP3    H237959   4.450   4.155   6.998  0.1614  0.4904  0.6214
 5442TIP3   OH237960   5.343   1.903   2.377 -0.3223 -0.3503 -0.3841
 5442TIP3    H137961   5.346   1.909   2.473 -0.5604 -2.5305 -0.1861
 5442TIP3    H237962   5.433   1.884   2.352 -0.2494  0.2728 -0.6249
 5443TIP3   OH237963   0.660   4.250   8.551 -0.0487 -0.8206  0.0263
 5443TIP3    H137964   0.730   4.192   8.521  0.1581 -1.6254  1.9057
 5443TIP3    H237965   0.673   4.256   8.646  0.3770  2.9300 -0.1190
 5444TIP3   OH237966   1.583   0.823   0.687 -0.5080  1.1123  0.2915
 5444TIP3    H137967   1.534   0.832   0.605 -0.7526 -1.8425  0.0203
 5444TIP3    H237968   1.518   0.833   0.756 -1.4836 -1.8797 -0.0534
 5445TIP3   OH237969   2.386   0.378   2.428 -0.1324  0.2821 -0.4952
 5445TIP3    H137970   2.314   0.360   2.488 -0.3781 -0.6642 -1.0595
 5445TIP3    H237971   2.404   0.294   2.386  1.2069  0.5268 -0.4747
 5446TIP3   OH237972   2.701   3.207   0.621 -0.2612 -0.1483  0.1360
 5446TIP3    H137973   2.633   3.268   0.591 -0.8481 -1.1270 -0.5950
 5446TIP3    H237974   2.657   3.154   0.687  0.1299 -0.0459  0.4809
 5447TIP3   OH237975   6.329   5.103   1.543  0.6236 -0.2754  0.3589
 5447TIP3    H137976   6.345   5.197   1.537 -1.1442 -0.0292 -0.9449
 5447TIP3    H237977   6.305   5.089   1.635  0.8458  0.5441  0.5495
 5448TIP3   OH237978   1.456   5.363   7.662 -0.1041  0.6002  0.3087
 5448TIP3    H137979   1.472   5.455   7.639 -1.8168  1.0397  0.7029
 5448TIP3    H237980   1.376   5.366   7.716  1.1469 -0.8595  2.4034
 5449TIP3   OH237981   6.457   2.200   8.396  0.0753 -0.3674 -0.0659
 5449TIP3    H137982   6.510   2.142   8.451 -0.3763  0.0327  0.8197
 5449TIP3    H237983   6.371   2.158   8.392  0.4854 -1.1230 -1.6700
 5450TIP3   OH237984   2.284   2.815   1.978 -0.2813  0.0409  0.0685
 5450TIP3    H137985   2.287   2.751   2.048 -2.3129 -0.8122 -0.5483
 5450TIP3    H237986   2.376   2.834   1.958  0.3402 -1.2398  1.5366
 5451TIP3   OH237987   5.592   1.795   2.366  0.2702  0.0700  0.1620
 5451TIP3    H137988   5.631   1.802   2.279  0.8649  1.6063  0.5196
 5451TIP3    H237989   5.654   1.740   2.415 -0.3657 -1.2930 -0.5155
 5452TIP3   OH237990   1.760   3.059   7.585 -0.4428 -0.2319  0.3010
 5452TIP3    H137991   1.839   3.098   7.548 -0.8272 -0.1451 -0.4488
 5452TIP3    H237992   1.789   3.020   7.667  0.4874 -0.6118 -0.1834
 5453TIP3   OH237993   3.470   5.350   2.248  0.3089 -0.5600  0.1126
 5453TIP3    H137994   3.385   5.386   2.273 -0.0851 -0.3368 -1.4641
 5453TIP3    H237995   3.487   5.282   2.313 -1.2480 -0.8563  0.2451
 5454TIP3   OH237996   3.263   1.867   0.300 -0.6190 -0.1353  0.5485
 5454TIP3    H137997   3.189   1.805   0.298 -0.5048 -0.2766 -1.2740
 5454TIP3    H237998   3.337   1.815   0.331 -0.5381 -0.9350 -0.9011
 5455TIP3   OH237999   0.005   3.383   1.023 -0.0666  0.4523 -0.2055
 5455TIP3    H138000   0.052   3.357   1.103 -1.7381  0.1653  0.7235
 5455TIP3    H238001  -0.006   3.478   1.032  1.3752  0.7374 -1.0417
 5456TIP3   OH238002   2.583   0.714   2.052  0.1361 -0.8587  0.5088
 5456TIP3    H138003   2.522   0.781   2.082  0.4001 -0.1490 -0.4863
 5456TIP3    H238004   2.626   0.684   2.132 -2.0293 -1.9399  1.3486
 5457TIP3   OH238005   5.607   4.842   1.222 -0.2034 -0.2620 -0.3949
 5457TIP3    H138006   5.701   4.830   1.216 -0.0634 -0.2321  1.3509
 5457TIP3    H238007   5.595   4.936   1.234 -0.2991 -0.4563  1.2990
 5458TIP3   OH238008   2.346   0.991   1.319 -0.3045 -0.8043 -0.5064
 5458TIP3    H138009   2.406   1.065   1.308  0.0471 -0.7146  1.6371
 5458TIP3    H238010   2.395   0.928   1.373 -1.9722 -0.8773  1.0244
 5459TIP3   OH238011   5.230   6.479   1.857  0.0835 -0.0216  0.0500
 5459TIP3    H138012   5.202   6.511   1.771 -1.8771  0.7737  0.9194
 5459TIP3    H238013   5.230   6.557   1.913 -2.7127 -1.0704  1.7231
 5460TIP3   OH238014   3.471   0.824   8.091 -0.1260  0.0099 -0.6085
 5460TIP3    H138015   3.544   0.868   8.048  0.2776 -0.5674 -0.5236
 5460TIP3    H238016   3.463   0.740   8.045 -0.3555 -0.1769 -0.2310
 5461TIP3   OH238017   3.906   4.112   8.081  0.0372 -0.2917 -0.1355
 5461TIP3    H138018   3.964   4.104   8.157 -1.2514 -0.5031  0.8415
 5461TIP3    H238019   3.919   4.030   8.033  1.4858  0.1890 -0.6372
 5462TIP3   OH238020   0.566   1.346   7.177 -0.4727 -0.0331 -0.8073
 5462TIP3    H138021   0.593   1.345   7.085 -1.0560 -0.2311 -0.9839
 5462TIP3    H238022   0.574   1.438   7.204  0.1217 -0.0477 -0.9221
 5463TIP3   OH238023   1.174   4.353   8.038 -1.0781 -0.1682 -0.5151
 5463TIP3    H138024   1.103   4.322   8.094  0.0613  0.0345  1.0899
 5463TIP3    H238025   1.179   4.447   8.054 -1.3803  0.0822 -1.7420
 5464TIP3   OH238026   5.590   4.042   6.806  0.3153  0.1689  0.2167
 5464TIP3    H138027   5.519   4.039   6.742 -0.6934  2.9405  1.0741
 5464TIP3    H238028   5.646   3.968   6.782 -0.5631  0.4005 -3.1950
 5465TIP3   OH238029   1.255   4.840   8.322  0.0471  0.3161 -0.4074
 5465TIP3    H138030   1.296   4.887   8.395  0.7528 -0.3593 -0.3631
 5465TIP3    H238031   1.162   4.865   8.328  0.0716  0.1992  0.7841
 5466TIP3   OH238032   3.776   5.086   7.989 -0.1125 -0.5732  0.0763
 5466TIP3    H138033   3.813   5.138   7.919 -1.6295 -0.3896 -0.6166
 5466TIP3    H238034   3.827   5.110   8.067  0.6076  0.3201 -0.6578
 5467TIP3   OH238035   6.169   3.050   2.098  0.3515  0.0591 -0.3731
 5467TIP3    H138036   6.206   3.055   2.010  2.0066 -0.0544  0.2877
 5467TIP3    H238037   6.172   2.957   2.119  0.0421  0.0987 -0.1516
 5468TIP3   OH238038   1.914   5.367   1.166  0.2532  0.1998 -0.0367
 5468TIP3    H138039   1.923   5.377   1.072 -0.7708 -3.5257 -0.6745
 5468TIP3    H238040   1.989   5.314   1.193 -0.2662 -0.0680  0.9561
 5469TIP3   OH238041   0.946   0.825   6.798 -0.0051 -0.2641  0.3719
 5469TIP3    H138042   1.017   0.873   6.841 -0.6474  0.1944  0.9455
 5469TIP3    H238043   0.991   0.762   6.741  0.8659 -0.2911  1.0613
 5470TIP3   OH238044   1.773   1.245   1.653 -0.0162 -0.0837  0.7915
 5470TIP3    H138045   1.844   1.229   1.715  0.6277 -1.4948 -0.2555
 5470TIP3    H238046   1.774   1.169   1.595 -1.2458  0.7105 -0.3326
 5471TIP3   OH238047   0.877   4.018   7.613  0.1988 -0.2662  0.1463
 5471TIP3    H138048   0.930   4.083   7.660 -0.0102 -0.0153  0.0365
 5471TIP3    H238049   0.850   4.063   7.533 -1.6219  0.2157  0.9863
 5472TIP3   OH238050   3.509   4.618   8.271 -0.1794  0.2367 -0.6732
 5472TIP3    H138051   3.581   4.555   8.265 -0.1875 -0.1433  2.0032
 5472TIP3    H238052   3.550   4.703   8.262  0.3417 -0.0350 -0.9012
 5473TIP3   OH238053   1.071   1.329   1.975  0.2087  0.0227 -0.2206
 5473TIP3    H138054   0.986   1.290   1.994  0.9782 -1.2795  0.7639
 5473TIP3    H238055   1.095   1.376   2.055  0.8749 -0.5245 -0.0868
 5474TIP3   OH238056   6.071   3.395   7.372 -0.1967 -0.1815 -0.5399
 5474TIP3    H138057   5.980   3.413   7.394  0.3731  2.7131 -0.1592
 5474TIP3    H238058   6.093   3.317   7.423 -1.8312  0.3832  1.1265
 5475TIP3   OH238059   1.035   0.552   0.358  0.0828 -0.4152 -0.3504
 5475TIP3    H138060   0.970   0.617   0.384  1.8633  1.7286 -0.8846
 5475TIP3    H238061   1.119   0.592   0.381  1.2841 -2.5157 -0.8143
 5476TIP3   OH238062   4.324   4.968   2.317  0.3757  0.0501 -0.2091
 5476TIP3    H138063   4.415   4.966   2.346 -0.2072 -0.1717  1.7593
 5476TIP3    H238064   4.302   4.876   2.303 -0.2550 -0.1592  1.8585
 5477TIP3   OH238065   1.625   2.681   1.241 -0.2022  0.4223 -0.0458
 5477TIP3    H138066   1.710   2.655   1.277 -0.3001  0.3686  0.1467
 5477TIP3    H238067   1.610   2.769   1.276 -1.2187 -0.3824  1.6886
 5478TIP3   OH238068   3.042   2.715   1.397 -0.4102  0.3572 -0.1142
 5478TIP3    H138069   2.974   2.734   1.462  0.8536 -1.8627  2.0115
 5478TIP3    H238070   3.040   2.620   1.387  0.0618  0.5438 -2.7438
 5479TIP3   OH238071   4.053   1.995   8.536 -0.5809 -0.1157 -0.3220
 5479TIP3    H138072   3.991   2.034   8.597  1.5724  1.2840  1.1089
 5479TIP3    H238073   4.106   2.068   8.505  1.6299 -1.4492  0.0844
 5480TIP3   OH238074   1.965   3.951   0.861 -0.2616 -0.0460 -0.2722
 5480TIP3    H138075   2.033   3.884   0.860  1.1287  1.2999 -0.0210
 5480TIP3    H238076   1.891   3.910   0.907  0.3343 -1.5631 -0.6076
 5481TIP3   OH238077   3.853   0.556   2.197  0.5431 -0.2002  0.9387
 5481TIP3    H138078   3.940   0.595   2.206  0.8347 -0.1303 -1.4985
 5481TIP3    H238079   3.860   0.470   2.239  1.3947  0.3062  1.8698
 5482TIP3   OH238080   1.430   4.370   1.775 -0.3635  0.3142 -0.1866
 5482TIP3    H138081   1.374   4.296   1.798 -3.5681  1.9728 -1.9079
 5482TIP3    H238082   1.392   4.443   1.825  1.8184  1.1201  0.3812
 5483TIP3   OH238083   6.294   0.568   8.563 -0.4652 -0.3967 -0.4321
 5483TIP3    H138084   6.269   0.645   8.513  0.0921  0.0229 -0.0656
 5483TIP3    H238085   6.255   0.495   8.514 -0.6629  0.0736 -0.9932
 5484TIP3   OH238086   3.811   0.953   0.630 -0.1769  0.2967 -0.3075
 5484TIP3    H138087   3.850   0.872   0.663  0.0959 -0.4662 -2.3945
 5484TIP3    H238088   3.720   0.950   0.662 -0.3172 -1.0929 -0.7607
 5485TIP3   OH238089   5.494   1.297   0.677  0.1833 -0.6230  0.4607
 5485TIP3    H138090   5.575   1.341   0.699  0.5040 -0.6856 -0.5612
 5485TIP3    H238091   5.513   1.250   0.596 -0.8945 -0.5602  0.1569
 5486TIP3   OH238092   1.722   5.585   1.590 -0.5061  0.0512 -0.0635
 5486TIP3    H138093   1.793   5.526   1.568 -0.7440  0.3825 -1.9488
 5486TIP3    H238094   1.710   5.576   1.684  0.4788 -1.7228 -0.0781
 5487TIP3   OH238095   1.473   4.379   8.138  0.0637  0.7075 -0.2188
 5487TIP3    H138096   1.462   4.376   8.043 -2.4800 -0.5092  0.0287
 5487TIP3    H238097   1.461   4.471   8.161 -1.8124  0.6556 -0.8764
 5488TIP3   OH238098   6.694   3.100   7.485  0.1524 -0.1707  0.0611
 5488TIP3    H138099   6.702   3.195   7.484  0.3867 -0.1842 -1.1305
 5488TIP3    H238100   6.651   3.079   7.402  2.6403 -1.2909 -1.0496
 5489TIP3   OH238101   1.319   6.921   8.043 -0.2955  0.3239 -0.4412
 5489TIP3    H138102   1.314   6.825   8.046  0.8311  0.2803  0.8472
 5489TIP3    H238103   1.232   6.950   8.072 -0.4104 -0.3209 -0.1113
 5490TIP3   OH238104   2.616   3.785   1.837  0.6643  0.5691  0.2918
 5490TIP3    H138105   2.627   3.861   1.894 -1.7648  0.4606  0.9943
 5490TIP3    H238106   2.568   3.818   1.761  0.2284 -0.1074  0.2637
 5491TIP3   OH238107   4.509   0.273   1.123 -0.1777 -0.5200 -0.0792
 5491TIP3    H138108   4.592   0.304   1.087  0.4362 -2.5552 -0.5118
 5491TIP3    H238109   4.445   0.290   1.054 -0.0689  0.6709  0.0919
 5492TIP3   OH238110   3.193   5.736   8.352 -0.4396 -0.4428  0.0638
 5492TIP3    H138111   3.106   5.705   8.324 -1.0065  0.6366  0.5620
 5492TIP3    H238112   3.176   5.785   8.433  0.6812 -0.4815  0.3325
 5493TIP3   OH238113   6.083   6.714   6.268 -0.3348  1.2227 -0.2393
 5493TIP3    H138114   6.168   6.678   6.241 -0.3242  0.0418  1.2046
 5493TIP3    H238115   6.105   6.792   6.319 -0.1369  1.1766 -0.2532
 5494TIP3   OH238116   5.087   2.624   1.842 -0.3452  0.3130  0.3221
 5494TIP3    H138117   5.175   2.586   1.836 -0.8029 -1.2424  2.3867
 5494TIP3    H238118   5.103   2.715   1.865  0.7195  0.2956 -0.2462
 5495TIP3   OH238119   2.039   3.454   2.056  0.0269 -0.2218  0.2810
 5495TIP3    H138120   2.123   3.466   2.012 -0.1649  0.3196  0.0560
 5495TIP3    H238121   2.018   3.540   2.092 -0.4333 -0.3530  0.3355
 5496TIP3   OH238122   2.141   4.367   2.215  0.0507  0.6264  0.2346
 5496TIP3    H138123   2.210   4.417   2.258  0.7998  0.7533 -1.0787
 5496TIP3    H238124   2.158   4.276   2.239 -0.5118  0.8314  1.5102
 5497TIP3   OH238125   5.680   1.842   6.741 -0.1298  0.1082 -0.2207
 5497TIP3    H138126   5.734   1.846   6.662  0.4825  1.9386  0.2315
 5497TIP3    H238127   5.709   1.917   6.793 -3.6057  1.6728 -0.2751
 5498TIP3   OH238128   2.487   2.900   6.605  0.0103 -0.1943 -0.3901
 5498TIP3    H138129   2.409   2.936   6.562 -1.9732 -2.1669  1.3023
 5498TIP3    H238130   2.490   2.943   6.690 -0.0836 -1.1838  0.1183
 5499TIP3   OH238131   5.801   6.884   1.329  0.2986  0.0388  0.4449
 5499TIP3    H138132   5.857   6.862   1.255  0.0853  0.6356  0.0907
 5499TIP3    H238133   5.860   6.924   1.393  0.4684 -0.3938  0.5625
 5500TIP3   OH238134   6.623   1.616   8.266 -0.3193 -0.1063 -0.0968
 5500TIP3    H138135   6.619   1.580   8.355 -1.4399  0.0889 -0.0513
 5500TIP3    H238136   6.608   1.710   8.278  2.4655  0.4277 -0.2272
 5501TIP3   OH238137   3.280   6.648   6.710 -0.2047 -0.0352  0.0897
 5501TIP3    H138138   3.226   6.690   6.777  0.1119 -0.1909  0.4488
 5501TIP3    H238139   3.246   6.559   6.704 -0.3703  0.0415 -0.1094
 5502TIP3   OH238140   4.717   6.601   0.036 -0.6135  0.0301 -0.6071
 5502TIP3    H138141   4.731   6.532  -0.029  0.1407  0.2541 -0.6836
 5502TIP3    H238142   4.621   6.605   0.045 -0.6878 -0.6733 -0.9747
 5503TIP3   OH238143   0.768   3.811   1.762 -0.3084  0.7698 -0.1012
 5503TIP3    H138144   0.815   3.894   1.747 -0.6096  0.9987  0.1965
 5503TIP3    H238145   0.676   3.832   1.745 -0.4788  0.6851  0.6820
 5504TIP3   OH238146   2.003   4.222   1.589 -0.3030  0.0033 -0.1827
 5504TIP3    H138147   2.039   4.252   1.505 -2.0705  1.0420 -0.6287
 5504TIP3    H238148   1.908   4.221   1.575 -0.5242 -2.2777  1.0275
 5505TIP3   OH238149   1.764   6.814   7.403 -0.2632 -0.0309  0.2247
 5505TIP3    H138150   1.717   6.868   7.467 -1.5096 -2.0462  1.0917
 5505TIP3    H238151   1.723   6.728   7.409  1.4199 -1.0137 -1.3644
 5506TIP3   OH238152   2.426   3.130   1.418 -0.2480 -0.5753 -0.1797
 5506TIP3    H138153   2.517   3.160   1.418 -0.3353 -0.2772 -1.0043
 5506TIP3    H238154   2.430   3.041   1.453  0.2423 -0.2529  0.6141
 5507TIP3   OH238155   6.335   2.947   7.339  0.1974 -0.6189  0.0619
 5507TIP3    H138156   6.383   2.865   7.346  1.1530  0.0483  2.8676
 5507TIP3    H238157   6.262   2.938   7.400 -1.2194 -0.2845 -1.5052
 5508TIP3   OH238158   5.410   3.963   8.086  0.3946 -0.0651 -0.2752
 5508TIP3    H138159   5.504   3.971   8.102  0.1225  1.3053  0.8267
 5508TIP3    H238160   5.402   3.964   7.990  1.4045  1.6913 -0.3979
 5509TIP3   OH238161   5.099   0.028   8.421  0.2115 -0.0464 -0.3422
 5509TIP3    H138162   5.186  -0.004   8.444 -0.6149 -2.5853 -0.3884
 5509TIP3    H238163   5.083  -0.004   8.332 -0.9096  0.0030 -0.1824
 5510TIP3   OH238164   2.848   0.543   8.036  0.7560 -0.2006 -0.7444
 5510TIP3    H138165   2.850   0.540   8.132  1.0860  0.0373 -0.7378
 5510TIP3    H238166   2.881   0.457   8.008  0.5687 -0.3042 -0.6451
 5511TIP3   OH238167   1.028   2.074   0.564 -0.3461  0.1135  0.8884
 5511TIP3    H138168   0.953   2.016   0.550  1.3280 -2.0004 -0.0455
 5511TIP3    H238169   1.014   2.147   0.504 -1.7636 -0.1017  0.9269
 5512TIP3   OH238170   3.608   5.296   1.658 -0.5122  0.1253 -0.1157
 5512TIP3    H138171   3.530   5.259   1.699 -0.9762 -1.3756 -2.2164
 5512TIP3    H238172   3.577   5.334   1.576  1.0837 -1.6885 -1.6601
 5513TIP3   OH238173   2.428   1.094   2.457 -0.0372  0.4151  0.1685
 5513TIP3    H138174   2.452   1.092   2.550 -1.2927  1.5059  0.5466
 5513TIP3    H238175   2.339   1.059   2.454  0.3559 -0.5673 -0.7838
 5514TIP3   OH238176   1.574   0.214   1.739 -0.2445 -0.3987  0.8850
 5514TIP3    H138177   1.659   0.246   1.708 -0.3793  0.0777  0.9965
 5514TIP3    H238178   1.595   0.139   1.794 -0.0249 -1.4951 -0.6502
 5515TIP3   OH238179   4.548   4.489   0.177  0.1109  0.8784 -0.0968
 5515TIP3    H138180   4.485   4.539   0.125 -1.2717 -1.0835 -0.4265
 5515TIP3    H238181   4.631   4.533   0.162 -0.6823  1.8804 -1.9655
 5516TIP3   OH238182   0.094   2.744   8.211  0.3105 -0.2985 -0.1127
 5516TIP3    H138183   0.058   2.704   8.132 -1.2307 -0.2260  0.5126
 5516TIP3    H238184   0.029   2.725   8.279  0.8604  0.9217  0.7939
 5517TIP3   OH238185   3.828   4.809   7.947 -0.6278  0.5612  0.0890
 5517TIP3    H138186   3.767   4.880   7.968  0.8570  1.5621  1.2832
 5517TIP3    H238187   3.913   4.852   7.940 -0.1916 -0.5772 -2.9511
 5518TIP3   OH238188   6.118   4.561   1.720  0.7550 -0.5875  0.3858
 5518TIP3    H138189   6.162   4.536   1.638  1.7744 -0.1674  0.7870
 5518TIP3    H238190   6.189   4.565   1.785  0.2060  0.6132  0.9447
 5519TIP3   OH238191   5.267   6.310   7.879  0.3935 -0.1860  0.1815
 5519TIP3    H138192   5.344   6.321   7.936 -0.3510  0.3462  1.1164
 5519TIP3    H238193   5.264   6.391   7.828  1.2934 -0.8303 -0.9401
 5520TIP3   OH238194   2.746   3.538   6.766 -0.0922  0.0515 -0.1729
 5520TIP3    H138195   2.837   3.570   6.765  0.4627 -1.4586 -0.0915
 5520TIP3    H238196   2.754   3.444   6.756 -1.7120 -0.0383 -0.8104
 5521TIP3   OH238197   0.666   6.537   0.371  0.0091  0.5112 -0.4360
 5521TIP3    H138198   0.653   6.600   0.442  0.8642  1.0018 -0.6901
 5521TIP3    H238199   0.728   6.581   0.312  0.1947 -0.3529 -0.8990
 5522TIP3   OH238200   6.260   4.309   7.087 -0.1354 -0.6294 -0.0474
 5522TIP3    H138201   6.204   4.387   7.081  1.6760  0.7589  0.3261
 5522TIP3    H238202   6.225   4.260   7.161 -1.4368 -0.3173 -0.4207
 5523TIP3   OH238203   2.514   5.350   0.209  0.6250 -0.1169 -0.1429
 5523TIP3    H138204   2.597   5.316   0.242 -0.1937 -0.8804  1.2292
 5523TIP3    H238205   2.448   5.305   0.261 -0.6418  0.7873 -0.9211
 5524TIP3   OH238206   2.684   1.743   6.923  0.2132 -0.4246  0.3166
 5524TIP3    H138207   2.602   1.757   6.875  0.5236 -2.1592 -0.8036
 5524TIP3    H238208   2.741   1.699   6.860  1.6056 -0.2953  1.4543
 5525TIP3   OH238209   2.209   0.941   8.418 -0.1397  0.3546 -0.2895
 5525TIP3    H138210   2.217   0.889   8.498 -2.0185  0.1230 -0.2139
 5525TIP3    H238211   2.297   0.940   8.380  0.5350 -0.4456  1.1969
 5526TIP3   OH238212   2.492   3.834   1.294  0.3992  0.1710 -0.2357
 5526TIP3    H138213   2.485   3.749   1.250 -1.5279 -0.9121  1.8971
 5526TIP3    H238214   2.422   3.887   1.257  1.3737  0.7568 -1.3073
 5527TIP3   OH238215   3.479   1.623   1.805  0.2772  0.1189 -0.2424
 5527TIP3    H138216   3.388   1.598   1.820  0.2438 -0.8586 -1.8437
 5527TIP3    H238217   3.530   1.563   1.859  0.0636 -1.2237 -1.5048
 5528TIP3   OH238218   1.270   6.899   2.499  0.5278 -0.4244 -0.0029
 5528TIP3    H138219   1.180   6.902   2.531 -0.3605 -0.0085 -2.4017
 5528TIP3    H238220   1.283   6.809   2.470 -0.1311  0.1789 -2.3029
 5529TIP3   OH238221   6.292   1.601   0.391 -0.0461 -0.5103  0.1708
 5529TIP3    H138222   6.349   1.629   0.462 -0.5994  1.5471 -0.1450
 5529TIP3    H238223   6.213   1.654   0.400 -0.3025 -0.4788 -1.7084
 5530TIP3   OH238224   1.255   4.817   1.119  0.2435  0.0382  0.5898
 5530TIP3    H138225   1.175   4.847   1.163  1.7796  1.8689  2.2904
 5530TIP3    H238226   1.235   4.826   1.025 -1.3470  1.0299  0.9827
 5531TIP3   OH238227   3.344   2.033   0.869 -0.1108 -0.4683  0.3808
 5531TIP3    H138228   3.291   2.111   0.887 -0.4888 -0.6861  0.2075
 5531TIP3    H238229   3.288   1.977   0.815  0.3706 -0.6042  0.0112
 5532TIP3   OH238230   2.270   6.407   7.939 -0.1620 -0.4452 -0.2182
 5532TIP3    H138231   2.344   6.362   7.978  0.7662  1.2444  0.0934
 5532TIP3    H238232   2.196   6.387   7.996  0.9946  1.3165  2.0273
 5533TIP3   OH238233   2.226   5.030   6.387 -0.0132  0.2319 -0.2220
 5533TIP3    H138234   2.281   4.967   6.340 -2.1508 -0.9649 -1.2402
 5533TIP3    H238235   2.261   5.116   6.362  0.1167 -0.4318 -2.5330
 5534TIP3   OH238236   4.578   3.307   1.398 -0.3359 -0.2665 -0.7230
 5534TIP3    H138237   4.627   3.251   1.337  0.2480 -0.3403 -0.1939
 5534TIP3    H238238   4.505   3.251   1.427 -0.6066 -0.2380 -1.3283
 5535TIP3   OH238239   6.555   6.343   7.084  0.0147  0.6945 -0.3985
 5535TIP3    H138240   6.535   6.410   7.018  1.3208  0.8741 -0.6422
 5535TIP3    H238241   6.645   6.317   7.065  0.3701  0.6253  1.2189
 5536TIP3   OH238242   0.798   1.526   7.774 -0.2590  0.0918  0.4003
 5536TIP3    H138243   0.781   1.440   7.813 -0.3600 -1.1221 -2.0733
 5536TIP3    H238244   0.890   1.523   7.748 -0.5871  0.1861 -0.8539
 5537TIP3   OH238245   4.551   4.354   0.817  0.0396  0.6202  0.5565
 5537TIP3    H138246   4.522   4.311   0.737 -1.9790  0.6812  1.1991
 5537TIP3    H238247   4.590   4.285   0.870  1.3325  0.5694 -0.4122
 5538TIP3   OH238248   6.182   2.043   1.884  0.1467  0.2981 -0.1799
 5538TIP3    H138249   6.140   2.088   1.958  1.0981  0.9013  0.0156
 5538TIP3    H238250   6.161   1.951   1.896  3.2685 -0.2143  2.9907
 5539TIP3   OH238251   6.949   4.251   6.797  0.7216  0.3144 -0.6018
 5539TIP3    H138252   6.910   4.220   6.715  1.6318 -0.1673 -0.8681
 5539TIP3    H238253   6.879   4.300   6.840  0.2799  0.7188 -1.7459
 5540TIP3   OH238254   1.574   1.351   1.935 -0.5042  0.2684  0.1389
 5540TIP3    H138255   1.491   1.357   1.983 -0.0999  0.1976  0.8678
 5540TIP3    H238256   1.605   1.441   1.928 -0.4335  0.2520  0.2425
 5541TIP3   OH238257   2.187   0.118   8.574 -0.1672  0.3939 -0.0830
 5541TIP3    H138258   2.107   0.082   8.613 -0.7431  1.5240 -0.1940
 5541TIP3    H238259   2.167   0.124   8.480  0.1790  0.3617 -0.1595
 5542TIP3   OH238260   0.472   0.409   0.174 -0.3132  0.3417  0.1414
 5542TIP3    H138261   0.418   0.460   0.114 -1.9111 -1.4685 -0.0373
 5542TIP3    H238262   0.544   0.376   0.119  0.4487  1.8778  0.1484
 5543TIP3   OH238263   5.202   2.979   6.905  0.1726 -0.1593 -0.0203
 5543TIP3    H138264   5.247   3.033   6.970 -0.0092  1.1994 -0.9743
 5543TIP3    H238265   5.203   2.891   6.942 -0.4270  0.6431  2.0921
 5544TIP3   OH238266   6.926   0.952   8.117  0.1610  0.4323 -0.3843
 5544TIP3    H138267   6.866   0.975   8.188 -1.0229 -0.7431 -0.9459
 5544TIP3    H238268   6.983   0.885   8.154 -1.7929 -1.7204 -1.0316
 5545TIP3   OH238269   5.634   3.165   0.675  0.1980  0.3108 -0.0330
 5545TIP3    H138270   5.596   3.091   0.629  1.8941 -0.8079  0.2693
 5545TIP3    H238271   5.566   3.192   0.738 -0.9289 -0.1222 -1.0328
 5546TIP3   OH238272   1.600   6.312   1.402  0.1413  0.6550  0.8036
 5546TIP3    H138273   1.610   6.373   1.475  1.4277 -1.5941  2.6395
 5546TIP3    H238274   1.521   6.262   1.423  0.5427 -0.0388  0.6731
 5547TIP3   OH238275   0.822   1.909   0.459  0.0270 -0.7396 -0.3498
 5547TIP3    H138276   0.758   1.908   0.388  1.1669 -1.5044 -1.4047
 5547TIP3    H238277   0.816   1.822   0.498 -1.9581  0.2646  1.8270
 5548TIP3   OH238278   3.910   6.598   6.365  0.2200  0.1034 -0.4630
 5548TIP3    H138279   3.819   6.599   6.334  0.1450  0.3106 -0.2454
 5548TIP3    H238280   3.937   6.507   6.358 -0.1646 -0.0430 -0.0783
 5549TIP3   OH238281   4.871   5.356   8.461 -0.0325 -0.5654  0.3082
 5549TIP3    H138282   4.948   5.299   8.451 -0.6760 -1.2028 -1.2910
 5549TIP3    H238283   4.798   5.304   8.428 -1.0155  0.3829  0.9212
 5550TIP3   OH238284   4.707   3.868   1.210  0.3467 -0.3559  0.0569
 5550TIP3    H138285   4.718   3.944   1.267  0.8318 -0.8431  0.6288
 5550TIP3    H238286   4.787   3.867   1.156  0.5457 -0.7054  0.3536
 5551TIP3   OH238287   4.309   4.554   0.042 -0.1129 -0.0843  0.2068
 5551TIP3    H138288   4.301   4.641   0.081 -0.1534 -1.0887  2.6034
 5551TIP3    H238289   4.221   4.532   0.011 -0.7320 -0.2957  2.0134
 5552TIP3   OH238290   1.843   6.004   6.586 -0.5433 -0.3590  0.1819
 5552TIP3    H138291   1.784   6.078   6.574 -1.1553 -0.7214  0.9318
 5552TIP3    H238292   1.887   5.995   6.501  0.5633  1.7169  0.4635
 5553TIP3   OH238293   3.161   3.574   7.031 -0.5324  0.4156  0.4510
 5553TIP3    H138294   3.145   3.668   7.042 -0.2504  0.5986 -0.5561
 5553TIP3    H238295   3.254   3.568   7.008 -1.0386  0.1288 -1.7690
 5554TIP3   OH238296   6.890   4.085   0.037  0.2116 -0.0341 -0.6656
 5554TIP3    H138297   6.843   4.087   0.120  0.1961 -2.7512 -0.5346
 5554TIP3    H238298   6.980   4.108   0.059  0.3517 -1.3744  0.2472
 5555TIP3   OH238299   0.364   2.193   1.260  0.5689 -0.3355  0.2616
 5555TIP3    H138300   0.276   2.157   1.245  1.5918 -3.3542  0.7792
 5555TIP3    H238301   0.355   2.250   1.336 -1.2156  0.7705 -0.7166
 5556TIP3   OH238302   6.529   4.936   7.646  0.4168  0.5726  0.1928
 5556TIP3    H138303   6.554   4.928   7.554 -1.8072  2.1971 -0.6483
 5556TIP3    H238304   6.599   4.893   7.694  0.3613 -2.7353 -2.3779
 5557TIP3   OH238305   1.288   2.593   7.158  0.7220  0.2027 -0.4974
 5557TIP3    H138306   1.207   2.635   7.186 -0.8385 -1.7612 -1.7770
 5557TIP3    H238307   1.291   2.606   7.063  1.3493 -0.6392 -0.6077
 5558TIP3   OH238308   2.506   5.196   8.196  0.0683 -0.8220 -0.0887
 5558TIP3    H138309   2.571   5.131   8.223  0.2914 -0.5742 -0.0170
 5558TIP3    H238310   2.496   5.252   8.272 -0.2803 -0.8975 -0.0803
 5559TIP3   OH238311   2.637   1.298   7.669 -0.6482  0.1462  0.1990
 5559TIP3    H138312   2.666   1.207   7.677 -0.5600 -0.2209 -2.9244
 5559TIP3    H238313   2.708   1.350   7.707  0.1849 -1.0265  0.3047
 5560TIP3   OH238314   4.665   4.825   8.095  0.6636 -0.1192 -0.0635
 5560TIP3    H138315   4.629   4.761   8.157 -0.7347 -0.1258 -0.8370
 5560TIP3    H238316   4.727   4.774   8.042  0.7998 -0.4421  0.4000
 5561TIP3   OH238317   0.201   1.207   6.966 -0.0565  0.3118 -0.3226
 5561TIP3    H138318   0.240   1.130   6.923  0.7064  0.3082  0.3602
 5561TIP3    H238319   0.107   1.198   6.949 -0.2033 -1.7178  1.1944
 5562TIP3   OH238320   2.773   3.641   1.144  0.1308 -0.0416 -0.1186
 5562TIP3    H138321   2.821   3.659   1.225 -1.8266  2.1962  0.6904
 5562TIP3    H238322   2.725   3.560   1.161 -0.6812  0.6834  1.2431
 5563TIP3   OH238323   2.098   5.482   2.325  0.3168 -0.2017  0.3414
 5563TIP3    H138324   2.066   5.449   2.240 -0.3533  0.1100  0.4640
 5563TIP3    H238325   2.063   5.420   2.389 -2.0437  1.3736  0.7023
 5564TIP3   OH238326   3.418   4.017   7.117  0.1548  0.1583 -0.3881
 5564TIP3    H138327   3.427   4.083   7.185 -2.5484 -0.4526  0.6870
 5564TIP3    H238328   3.352   4.053   7.057 -0.7901 -1.1770 -0.1928
 5565TIP3   OH238329   1.164   3.484   7.564 -0.9193  0.4756  0.1676
 5565TIP3    H138330   1.197   3.400   7.532 -2.0586 -0.3758  1.1511
 5565TIP3    H238331   1.187   3.485   7.657  0.4403  1.9617 -0.1416
 5566TIP3   OH238332   3.464   6.504   0.180 -0.5566  0.3749  0.0108
 5566TIP3    H138333   3.506   6.552   0.252  1.1702  0.0458 -0.7334
 5566TIP3    H238334   3.378   6.545   0.171 -1.7589 -0.9334  3.6461
 5567TIP3   OH238335   6.381   6.244   7.799  0.1599 -0.2765  0.3800
 5567TIP3    H138336   6.356   6.240   7.892  1.3219  1.7571  0.8535
 5567TIP3    H238337   6.413   6.157   7.779  0.5249 -0.5809  2.1146
 5568TIP3   OH238338   1.992   2.935   8.228  0.0740 -0.5758 -0.4058
 5568TIP3    H138339   2.057   2.876   8.189  0.7889 -0.2315  0.2436
 5568TIP3    H238340   2.013   2.935   8.321 -0.3480  0.1792 -0.3085
 5569TIP3   OH238341   5.544   1.920   8.072 -0.3572  0.1141  0.4352
 5569TIP3    H138342   5.626   1.874   8.090  0.1072  0.7316 -0.0714
 5569TIP3    H238343   5.569   2.012   8.060 -0.9199  0.0962 -1.1426
 5570TIP3   OH238344   5.211   0.575   0.285  0.0195  0.0884 -0.0065
 5570TIP3    H138345   5.264   0.606   0.359  2.0285  0.6293 -1.5830
 5570TIP3    H238346   5.150   0.646   0.268 -0.8347 -0.2624  1.4237
 5571TIP3   OH238347   1.700   3.979   1.003 -0.2537  0.1318 -0.1556
 5571TIP3    H138348   1.743   4.065   1.005  0.1182 -0.0780  1.1202
 5571TIP3    H238349   1.693   3.959   0.909  1.5448  0.6018 -0.4296
 5572TIP3   OH238350   4.686   0.610   2.123 -0.0994 -0.2689  0.2733
 5572TIP3    H138351   4.604   0.633   2.080 -0.0914 -0.1228  0.3346
 5572TIP3    H238352   4.751   0.609   2.053  0.3558  2.1131  0.5646
 5573TIP3   OH238353   2.632   2.491   2.697 -0.5518 -0.3612  0.3630
 5573TIP3    H138354   2.666   2.534   2.618  2.7023 -2.2515  0.5574
 5573TIP3    H238355   2.705   2.493   2.759 -1.6549 -2.4754  1.8519
 5574TIP3   OH238356   5.553   0.636   8.220  0.1424  0.2260 -0.2217
 5574TIP3    H138357   5.487   0.677   8.164  1.4439  1.5045 -0.8941
 5574TIP3    H238358   5.523   0.546   8.231 -1.3046  0.5630 -1.1118
 5575TIP3   OH238359   2.614   1.892   8.550 -0.0867 -0.0162 -0.5567
 5575TIP3    H138360   2.554   1.964   8.567  0.2073  0.5418 -1.7823
 5575TIP3    H238361   2.583   1.853   8.469  1.0743  0.1573 -1.1022
 5576TIP3   OH238362   3.632   6.097   7.147  0.1450 -0.5047 -0.3108
 5576TIP3    H138363   3.660   6.168   7.089 -0.4492 -0.3571 -0.4265
 5576TIP3    H238364   3.692   6.100   7.221  0.4935 -0.2632 -0.6016
 5577TIP3   OH238365   1.404   6.543   8.395 -0.1252 -0.0001  0.1640
 5577TIP3    H138366   1.470   6.476   8.411  0.3630  0.2778 -0.6549
 5577TIP3    H238367   1.324   6.508   8.436  0.3374 -0.6711  0.5055
 5578TIP3   OH238368   0.789   4.490   1.046 -0.1655 -0.1233  0.1139
 5578TIP3    H138369   0.745   4.548   0.984  0.5183 -2.2433 -2.5242
 5578TIP3    H238370   0.737   4.410   1.045  1.3781 -1.1643  0.2057
 5579TIP3   OH238371   6.672   4.435   1.440 -0.6698 -1.1374  0.2213
 5579TIP3    H138372   6.611   4.430   1.366 -0.4443 -1.4067  0.0464
 5579TIP3    H238373   6.624   4.482   1.508 -0.5314 -0.0178 -0.4335
 5580TIP3   OH238374   3.180   6.614   0.203 -0.0776  0.2128  0.5578
 5580TIP3    H138375   3.179   6.536   0.258 -1.1002  0.2623  0.6342
 5580TIP3    H238376   3.102   6.606   0.149 -0.5351  1.4641  0.9891
 5581TIP3   OH238377   4.404   1.974   0.276 -1.0449  0.1016  0.2806
 5581TIP3    H138378   4.422   1.946   0.366  0.8583  0.2776 -0.0223
 5581TIP3    H238379   4.435   2.065   0.272 -0.9946  0.0552 -0.5915
 5582TIP3   OH238380   3.053   5.488   0.204 -0.1336 -0.5751  0.0879
 5582TIP3    H138381   3.130   5.540   0.180 -1.3587  0.3748 -2.0288
 5582TIP3    H238382   3.087   5.422   0.264  2.1759  0.3249 -0.1152
 5583TIP3   OH238383   5.967   5.428   7.392 -0.2015 -0.2137  0.5431
 5583TIP3    H138384   5.937   5.390   7.309  0.9862  0.3786 -0.1765
 5583TIP3    H238385   6.054   5.390   7.406 -0.9596 -1.4745  2.3188
 5584TIP3   OH238386   4.376   4.690   0.505  0.3292 -0.0904 -0.3701
 5584TIP3    H138387   4.463   4.699   0.542 -0.6792  1.0595  1.9015
 5584TIP3    H238388   4.372   4.599   0.476  3.1454  0.4840 -3.1039
 5585TIP3   OH238389   1.885   3.082   2.207 -0.1883  0.2551  0.1083
 5585TIP3    H138390   1.883   2.986   2.204 -0.3325  0.2495  0.3355
 5585TIP3    H238391   1.836   3.109   2.129  1.5061  0.1610 -1.0461
 5586TIP3   OH238392   5.265   5.093   2.572  0.3093  0.0389 -0.1681
 5586TIP3    H138393   5.196   5.075   2.508 -1.6043  1.4495  1.3717
 5586TIP3    H238394   5.277   5.011   2.619 -1.1614  0.0441  0.2649
 5587TIP3   OH238395   0.967   5.755   0.782 -0.3152 -0.1809  0.2210
 5587TIP3    H138396   0.964   5.846   0.814 -0.9536 -0.4898  1.0821
 5587TIP3    H238397   0.959   5.763   0.687  0.3066  0.6954  0.2294
 5588TIP3   OH238398   5.602   0.025   7.004 -0.3739 -0.0548  0.1222
 5588TIP3    H138399   5.549   0.102   6.982 -0.5495 -0.5787 -1.4359
 5588TIP3    H238400   5.571  -0.043   6.945  2.0409 -0.3587 -0.9338
 5589TIP3   OH238401   3.215   4.808   1.773  0.2946  0.0226 -0.6003
 5589TIP3    H138402   3.216   4.713   1.774 -1.1558 -0.0111 -0.3245
 5589TIP3    H238403   3.194   4.831   1.682 -2.7247 -0.0496 -0.0299
 5590TIP3   OH238404   2.343   6.259   0.763  0.5182  0.4234  0.3619
 5590TIP3    H138405   2.372   6.169   0.746  2.2611  0.8472  0.9506
 5590TIP3    H238406   2.404   6.313   0.714 -0.2727  1.3259  0.3505
 5591TIP3   OH238407   4.965   4.181   8.044  0.1941 -0.7550  0.3497
 5591TIP3    H138408   5.055   4.209   8.063 -0.1444  0.7301 -0.1027
 5591TIP3    H238409   4.923   4.178   8.130  0.3100 -0.0485  0.4395
 5592TIP3   OH238410   0.504   3.497   0.311 -0.0106  0.5289 -0.3454
 5592TIP3    H138411   0.544   3.573   0.270  3.0307 -0.6717  0.1344
 5592TIP3    H238412   0.503   3.430   0.242  1.3489 -0.2480  0.3391
 5593TIP3   OH238413   1.998   3.845   0.516  0.2308 -0.2539 -0.8977
 5593TIP3    H138414   2.043   3.885   0.442  0.1097  0.2461 -0.7108
 5593TIP3    H238415   2.002   3.912   0.585  1.8315 -1.3413  0.1353
 5594TIP3   OH238416   4.019   5.902   0.853 -0.1307 -0.4179 -0.0091
 5594TIP3    H138417   4.098   5.872   0.897  0.2753  1.1554  0.3855
 5594TIP3    H238418   4.003   5.837   0.785  1.4529 -0.8016 -0.0426
 5595TIP3   OH238419   0.750   1.983   1.507 -0.5160  0.9756  0.1946
 5595TIP3    H138420   0.702   2.038   1.445  0.3952  0.3411 -1.1073
 5595TIP3    H238421   0.842   1.997   1.486 -0.2390 -0.3897  0.3985
 5596TIP3   OH238422   6.291   2.283   8.110 -0.0776  0.5775  0.0130
 5596TIP3    H138423   6.237   2.295   8.188 -0.6296  1.2473 -0.4614
 5596TIP3    H238424   6.240   2.323   8.039  0.8297  0.7892 -0.5348
 5597TIP3   OH238425   0.254   6.555   1.376 -0.1302 -0.4569 -0.7103
 5597TIP3    H138426   0.230   6.553   1.469  2.2082  0.2696 -0.0459
 5597TIP3    H238427   0.266   6.648   1.356  2.6104 -0.7719 -0.8059
 5598TIP3   OH238428   3.126   6.400   0.972  0.0203  0.3569 -0.1334
 5598TIP3    H138429   3.178   6.476   0.997  0.8712 -0.4887  0.7858
 5598TIP3    H238430   3.100   6.361   1.055 -1.5508  0.3864 -0.5867
 5599TIP3   OH238431   6.548   1.892   1.013  0.1513  0.1159 -0.1037
 5599TIP3    H138432   6.473   1.934   1.057  0.0887 -1.0584  0.9798
 5599TIP3    H238433   6.520   1.883   0.922 -0.5485  0.7706  0.0329
 5600TIP3   OH238434   5.203   0.165   7.101  0.1153 -0.1403 -0.1447
 5600TIP3    H138435   5.278   0.153   7.159  0.1272 -0.3694 -0.2081
 5600TIP3    H238436   5.237   0.217   7.028  0.2934 -0.5201 -0.3357
 5601TIP3   OH238437   5.063   6.888   7.199  0.3987 -0.0259 -0.2544
 5601TIP3    H138438   5.112   6.811   7.230 -0.8004 -2.0989 -3.0100
 5601TIP3    H238439   5.130   6.951   7.174  1.6150 -1.6844 -1.3621
 5602TIP3   OH238440   3.659   0.707   1.035 -0.1025  0.7491  0.8264
 5602TIP3    H138441   3.606   0.632   1.009 -0.5157  1.1541  0.4901
 5602TIP3    H238442   3.748   0.673   1.039 -0.2760  0.2564  0.6075
 5603TIP3   OH238443   1.382   5.534   1.245  0.6499 -0.8742  0.0815
 5603TIP3    H138444   1.346   5.602   1.189 -0.7696 -2.8995 -1.6249
 5603TIP3    H238445   1.354   5.559   1.333  0.6536  1.0047 -0.4003
 5604TIP3   OH238446   5.086   4.276   0.624 -0.6806 -0.1985 -0.0811
 5604TIP3    H138447   5.055   4.195   0.665  1.8214 -1.0600  0.2532
 5604TIP3    H238448   5.144   4.247   0.554  1.3642  1.2478  0.9248
 5605TIP3   OH238449   3.945   6.768   7.446 -0.6400  0.6104 -0.5089
 5605TIP3    H138450   3.931   6.859   7.469 -3.1641  0.6516 -1.7993
 5605TIP3    H238451   3.858   6.728   7.453 -0.0055 -1.1752 -2.0138
 5606TIP3   OH238452   4.318   1.356   8.011  0.0911  0.2253 -0.3463
 5606TIP3    H138453   4.376   1.321   7.943 -0.9181 -1.3061 -0.4897
 5606TIP3    H238454   4.244   1.392   7.963  0.7527  1.9045 -0.1524
 5607TIP3   OH238455   2.766   3.733   8.174  0.3077 -0.4411 -0.2500
 5607TIP3    H138456   2.704   3.714   8.103 -1.7928  1.1681  1.0345
 5607TIP3    H238457   2.782   3.648   8.216  0.6514 -1.2101 -1.8625
 5608TIP3   OH238458   3.734   5.527   6.886  0.3833  0.1840  0.2752
 5608TIP3    H138459   3.733   5.583   6.964  0.2616  1.5007 -0.6497
 5608TIP3    H238460   3.755   5.586   6.814  1.0712 -1.1188 -0.6334
 5609TIP3   OH238461   6.230   5.802   6.539 -0.4245 -0.1511  0.4807
 5609TIP3    H138462   6.276   5.733   6.588  0.2232  0.1303  0.2735
 5609TIP3    H238463   6.292   5.831   6.473 -0.8301  0.3765  0.3198
 5610TIP3   OH238464   2.826   1.372   7.134  0.6375 -0.3877 -0.0058
 5610TIP3    H138465   2.840   1.360   7.228 -0.9658  0.3351  0.3514
 5610TIP3    H238466   2.907   1.339   7.094  1.2476 -0.9505  1.5936
 5611TIP3   OH238467   1.371   4.585   0.276  0.3543 -0.2367 -0.5517
 5611TIP3    H138468   1.420   4.572   0.194 -2.3708 -1.4096 -2.1129
 5611TIP3    H238469   1.367   4.498   0.316 -0.6473 -0.2062 -0.5779
 5612TIP3   OH238470   6.331   5.296   0.450 -0.1555  0.2384  0.3045
 5612TIP3    H138471   6.426   5.283   0.447 -0.0743  0.5426  1.3022
 5612TIP3    H238472   6.320   5.388   0.473 -0.6735 -0.2614  2.1665
 5613TIP3   OH238473   6.549   1.102   1.268 -0.1404  0.1076 -0.4159
 5613TIP3    H138474   6.517   1.019   1.233 -1.7744  0.4125  0.2605
 5613TIP3    H238475   6.644   1.094   1.265 -0.2449 -1.0306 -2.1143
 5614TIP3   OH238476   4.939   1.060   1.147 -0.3300  0.4186  0.0414
 5614TIP3    H138477   4.914   1.144   1.109 -0.7621 -0.2927 -1.3186
 5614TIP3    H238478   4.902   0.995   1.087 -2.8194 -0.8671  2.7316
 5615TIP3   OH238479   2.883   2.154   8.150  0.0641  1.1329 -0.3193
 5615TIP3    H138480   2.821   2.149   8.222  0.5465  0.1971  0.0436
 5615TIP3    H238481   2.965   2.184   8.190  1.4345 -2.8726  0.3299
 5616TIP3   OH238482   2.341   4.897   1.170 -0.0933  0.1307  0.2736
 5616TIP3    H138483   2.317   4.943   1.089 -1.5140 -0.8367  0.1184
 5616TIP3    H238484   2.260   4.858   1.200  0.7674 -0.9362  1.2690
 5617TIP3   OH238485   3.783   0.796   8.188  0.1782 -0.3487 -0.4933
 5617TIP3    H138486   3.735   0.716   8.210 -0.7710  0.6014  1.1048
 5617TIP3    H238487   3.875   0.769   8.187  0.0346 -1.1628  1.7264
 5618TIP3   OH238488   5.861   2.783   6.936  0.3291 -0.0323 -0.1352
 5618TIP3    H138489   5.772   2.762   6.906  0.0559  2.0663 -0.9937
 5618TIP3    H238490   5.883   2.714   6.998 -0.7732 -2.1998 -2.0358
 5619TIP3   OH238491   2.913   1.126   2.719  0.0515  0.1443 -0.2178
 5619TIP3    H138492   3.003   1.111   2.750  1.0725  2.5133 -1.7112
 5619TIP3    H238493   2.891   1.047   2.671  1.2017 -0.6293  0.4668
 5620TIP3   OH238494   5.219   0.943   7.541 -0.0221  0.0547 -0.1070
 5620TIP3    H138495   5.212   0.862   7.592  1.9923  0.7365  1.3582
 5620TIP3    H238496   5.293   0.929   7.482 -0.0135  0.6240 -0.2387
 5621TIP3   OH238497   4.292   6.883   1.128  0.4733 -0.5215  0.0010
 5621TIP3    H138498   4.274   6.969   1.090  0.9186  0.4444  1.8666
 5621TIP3    H238499   4.386   6.870   1.115  0.3419 -0.9120 -0.6061
 5622TIP3   OH238500   1.554   1.509   7.385  0.0861  0.0235 -0.1388
 5622TIP3    H138501   1.617   1.484   7.452  0.9004  2.4308  0.1027
 5622TIP3    H238502   1.607   1.524   7.307 -0.4062  0.2899 -0.4251
 5623TIP3   OH238503   1.978   4.637   1.995  0.4061 -0.3442 -0.1669
 5623TIP3    H138504   2.059   4.684   2.017  1.1806 -1.1969 -1.0959
 5623TIP3    H238505   1.931   4.696   1.936 -0.8825  1.2232  2.2572
 5624TIP3   OH238506   1.350   5.168   7.459  0.3699  0.0874  0.6103
 5624TIP3    H138507   1.388   5.236   7.515 -1.1904  0.4365  1.2971
 5624TIP3    H238508   1.369   5.196   7.370 -0.4128  1.5378  0.8800
 5625TIP3   OH238509   1.584   3.951   6.965  0.3726  0.5394  0.1567
 5625TIP3    H138510   1.593   4.035   6.921 -0.8048  1.0325  0.8218
 5625TIP3    H238511   1.543   3.894   6.899  0.4157  0.7219 -0.0273
 5626TIP3   OH238512   4.768   6.846   8.316  0.0810  0.0715  0.5638
 5626TIP3    H138513   4.832   6.814   8.379 -0.6365 -0.0962  1.2182
 5626TIP3    H238514   4.750   6.936   8.343  0.8734  0.5109 -0.2998
 5627TIP3   OH238515   2.856   3.092   0.228 -0.3525 -0.1738  0.4255
 5627TIP3    H138516   2.878   3.076   0.320  0.1923 -0.8078  0.1997
 5627TIP3    H238517   2.934   3.062   0.180 -0.4091  0.6619 -0.2082
 5628TIP3   OH238518   6.626   1.596   7.233 -0.2576  0.1339  0.4180
 5628TIP3    H138519   6.695   1.530   7.242  0.4434  0.6550 -0.7853
 5628TIP3    H238520   6.550   1.557   7.275 -0.3118 -2.1244 -1.5757
 5629TIP3   OH238521   5.981   3.327   7.954  0.9236  0.1671 -0.2258
 5629TIP3    H138522   6.009   3.253   8.008  0.8411  1.1752  1.2446
 5629TIP3    H238523   5.971   3.399   8.015 -0.8860  0.9217 -1.3181
 5630TIP3   OH238524   1.374   6.492   6.933 -0.0610  0.5665 -0.0514
 5630TIP3    H138525   1.358   6.561   6.869  0.6639  1.1714  0.4057
 5630TIP3    H238526   1.337   6.413   6.893  1.2287  0.7309 -1.6736
 5631TIP3   OH238527   3.280   5.554   7.452  0.5311 -0.4158  0.6052
 5631TIP3    H138528   3.258   5.487   7.388 -2.0281  0.2710  0.6446
 5631TIP3    H238529   3.267   5.511   7.537  2.6088 -0.9347  0.6910
 5632TIP3   OH238530   1.238   4.389   8.571  0.8438  0.3094  0.3826
 5632TIP3    H138531   1.181   4.394   8.648 -0.1192 -0.7488 -0.2263
 5632TIP3    H238532   1.187   4.430   8.501  1.1620  0.0765  0.0107
 5633TIP3   OH238533   4.721   0.083   2.641 -0.4402 -0.0280 -0.1545
 5633TIP3    H138534   4.657   0.017   2.612  0.0823 -0.2456 -0.8347
 5633TIP3    H238535   4.702   0.159   2.586 -0.1485 -0.0794 -0.3291
 5634TIP3   OH238536   3.185   2.577   7.291  0.1340  0.1560  1.0882
 5634TIP3    H138537   3.130   2.515   7.339  3.1267 -2.4734  1.4311
 5634TIP3    H238538   3.191   2.539   7.203  1.6370  0.1702  1.1668
 5635TIP3   OH238539   2.030   3.668   7.313  0.3617  0.2555 -0.2472
 5635TIP3    H138540   2.056   3.686   7.403  0.0250  0.4671 -0.1935
 5635TIP3    H238541   2.112   3.646   7.269  0.3820 -1.1299  0.4046
 5636TIP3   OH238542   0.123   0.270   1.381  0.2061  0.2965 -0.1469
 5636TIP3    H138543   0.054   0.318   1.335 -1.0187  0.6923  1.9760
 5636TIP3    H238544   0.084   0.183   1.397  0.4628  0.2904  0.4559
 5637TIP3   OH238545   1.079   2.704   7.337 -0.3059  0.1807  0.6321
 5637TIP3    H138546   1.071   2.714   7.242  0.7743 -0.2842  0.4791
 5637TIP3    H238547   0.999   2.660   7.363 -0.9846  1.0392  0.0557
 5638TIP3   OH238548   6.230   4.819   6.248  0.0727 -0.2372  0.0985
 5638TIP3    H138549   6.274   4.737   6.271 -0.5776 -0.4618  0.5730
 5638TIP3    H238550   6.277   4.887   6.296 -0.1432 -0.4847  0.6636
 5639TIP3   OH238551   0.624   0.027   7.116  0.3388  0.1315 -0.1942
 5639TIP3    H138552   0.642  -0.067   7.123 -0.6216  0.0301  1.4484
 5639TIP3    H238553   0.536   0.033   7.081  0.5021  0.4397 -0.5648
 5640TIP3   OH238554   2.704   3.904   2.405 -0.0168  0.3419 -0.3796
 5640TIP3    H138555   2.631   3.923   2.464  1.7744  1.2671  1.6812
 5640TIP3    H238556   2.719   3.986   2.359 -0.6593 -0.0361 -1.2797
 5641TIP3   OH238557   6.594   0.295   6.989  0.1154  0.2245  0.0404
 5641TIP3    H138558   6.581   0.240   6.912  1.1157  2.1387 -1.5926
 5641TIP3    H238559   6.506   0.310   7.023 -0.1107 -3.6739  1.6192
 5642TIP3   OH238560   6.189   5.906   7.107 -0.1959  0.4840 -0.0085
 5642TIP3    H138561   6.139   5.827   7.129 -1.2519  1.5027  1.4919
 5642TIP3    H238562   6.245   5.920   7.183  1.2089  0.2792 -0.9805
 5643TIP3   OH238563   6.725   6.366   6.712  0.8156 -0.3389 -0.9198
 5643TIP3    H138564   6.754   6.457   6.702  1.5773 -0.4454  0.1456
 5643TIP3    H238565   6.796   6.323   6.760 -0.5349 -0.9126  0.6868
 5644TIP3   OH238566   5.962   4.278   8.405 -0.5697 -0.2090 -0.0963
 5644TIP3    H138567   5.984   4.256   8.495 -0.0687 -0.4155 -0.2676
 5644TIP3    H238568   5.964   4.374   8.403  0.0462 -0.2191 -0.0434
 5645TIP3   OH238569   2.702   5.671   7.636  0.0526 -0.0470 -0.3952
 5645TIP3    H138570   2.629   5.622   7.676  1.5964 -0.1057  2.6499
 5645TIP3    H238571   2.752   5.604   7.589  0.4798 -0.8920  1.1867
 5646TIP3   OH238572   0.178   4.319   0.836  0.0901  0.2422  0.1677
 5646TIP3    H138573   0.192   4.288   0.747 -0.8041  0.8599 -0.2028
 5646TIP3    H238574   0.222   4.403   0.840  0.0127  0.2780  0.2705
 5647TIP3   OH238575   1.873   3.984   1.222 -0.9281  0.1499  0.1745
 5647TIP3    H138576   1.852   3.965   1.314 -0.1062 -0.1685  0.3066
 5647TIP3    H238577   1.810   3.933   1.172 -1.6414  0.6391  0.5612
 5648TIP3   OH238578   3.724   5.612   1.428  0.0777  0.1448  0.4185
 5648TIP3    H138579   3.739   5.582   1.518 -0.5328 -0.0653  0.4556
 5648TIP3    H238580   3.755   5.702   1.428  0.8966 -0.1222  0.6036
 5649TIP3   OH238581   6.403   1.461   1.797 -0.1974  0.1466 -0.0929
 5649TIP3    H138582   6.402   1.402   1.872 -0.8114  1.2348  0.7928
 5649TIP3    H238583   6.496   1.480   1.783 -0.0670 -0.2182  0.2694
 5650TIP3   OH238584   3.547   2.925   0.374  0.2585  0.6027  0.5746
 5650TIP3    H138585   3.621   2.919   0.435  0.2548 -0.7220  0.4823
 5650TIP3    H238586   3.483   2.981   0.418  0.6494  0.4265  1.3765
 5651TIP3   OH238587   1.592   3.291   2.198  0.0906 -0.1050 -0.3621
 5651TIP3    H138588   1.614   3.322   2.286 -1.3704 -0.1539  0.0478
 5651TIP3    H238589   1.514   3.237   2.211 -0.2698  0.0634 -1.7270
 5652TIP3   OH238590   4.308   2.419   8.298  0.6858 -0.2004  0.2633
 5652TIP3    H138591   4.260   2.446   8.220 -0.8354 -0.0262  1.2155
 5652TIP3    H238592   4.391   2.385   8.265  0.6065  1.0518 -1.3167
 5653TIP3   OH238593   4.570   0.658   7.794  0.4324 -0.3988 -0.4714
 5653TIP3    H138594   4.654   0.701   7.812 -0.2386  0.3242  1.1309
 5653TIP3    H238595   4.587   0.565   7.810  0.5521 -0.0824  1.4913
 5654TIP3   OH238596   6.285   4.011   1.910 -0.1237 -0.0561  0.0410
 5654TIP3    H138597   6.275   4.106   1.913 -0.7969 -0.1496  2.6094
 5654TIP3    H238598   6.208   3.981   1.860 -1.5545  0.6068  1.7529
 5655TIP3   OH238599   6.406   1.492   0.178  0.3304 -0.0246 -0.1746
 5655TIP3    H138600   6.345   1.531   0.240 -1.1351 -0.2491 -1.4311
 5655TIP3    H238601   6.354   1.475   0.100  2.4628  1.7955 -2.1467
 5656TIP3   OH238602   3.855   2.836   0.243 -0.1568 -0.3056  0.0649
 5656TIP3    H138603   3.924   2.770   0.250  0.3776  0.0675 -1.3053
 5656TIP3    H238604   3.774   2.788   0.258  0.3778 -0.6762  2.1806
 5657TIP3   OH238605   3.041   4.869   1.172 -0.0750  0.1162 -0.0546
 5657TIP3    H138606   3.110   4.836   1.228 -1.5050 -0.7788  1.2744
 5657TIP3    H238607   2.985   4.922   1.230 -1.0540 -0.0101 -0.8406
 5658TIP3   OH238608   6.647   0.098   2.204  0.0082 -0.4767 -0.5102
 5658TIP3    H138609   6.704   0.057   2.269  0.1880 -0.1414 -0.4595
 5658TIP3    H238610   6.698   0.170   2.168 -0.8345  0.6485  0.4538
 5659TIP3   OH238611   4.219   4.586   7.853  0.0337  0.3830 -0.1449
 5659TIP3    H138612   4.285   4.601   7.786 -0.1466 -0.7109 -0.5851
 5659TIP3    H238613   4.136   4.610   7.811 -0.0479 -0.0336 -0.2265
 5660TIP3   OH238614   5.444   5.388   0.703  0.2905  0.7733  0.2614
 5660TIP3    H138615   5.418   5.298   0.722 -0.3048  0.8453 -0.1634
 5660TIP3    H238616   5.386   5.415   0.632  1.1772  1.1465 -0.3334
 5661TIP3   OH238617   3.804   1.360   2.769 -0.3984 -0.0049  0.2407
 5661TIP3    H138618   3.802   1.426   2.838 -0.0644  0.3538 -0.0906
 5661TIP3    H238619   3.895   1.334   2.763 -0.4307 -0.0568 -0.0474
 5662TIP3   OH238620   6.114   5.695   1.024  0.1792  0.2257  0.0182
 5662TIP3    H138621   6.129   5.743   0.943 -0.3316 -1.2647 -0.9906
 5662TIP3    H238622   6.030   5.729   1.057 -0.0102  0.2720 -0.5020
 5663TIP3   OH238623   6.729   2.005   7.975  0.3139  0.2378 -0.4903
 5663TIP3    H138624   6.812   2.036   8.011  0.5046 -1.3230  0.5354
 5663TIP3    H238625   6.662   2.038   8.036  0.6436 -2.4793  1.5406
 5664TIP3   OH238626   2.162   1.805   1.510 -0.1957  0.1426  0.0834
 5664TIP3    H138627   2.126   1.858   1.582 -0.4667  0.9067 -0.5988
 5664TIP3    H238628   2.093   1.742   1.491  0.1109 -0.4479  0.8723
 5665TIP3   OH238629   4.403   2.738   8.121 -0.3366 -0.0533  0.3182
 5665TIP3    H138630   4.312   2.768   8.126 -0.3583 -0.2494  1.5270
 5665TIP3    H238631   4.398   2.649   8.087 -0.5434  0.1495 -0.1855
 5666TIP3   OH238632   1.740   6.138   0.342  0.3072 -0.2737 -0.0911
 5666TIP3    H138633   1.702   6.061   0.301 -1.0374 -0.0175  0.6044
 5666TIP3    H238634   1.675   6.207   0.328  0.6203  0.2494  0.9227
 5667TIP3   OH238635   2.155   4.314   8.000  0.3053 -0.0761 -0.0660
 5667TIP3    H138636   2.220   4.281   7.938  1.6839 -0.8668  1.7326
 5667TIP3    H238637   2.113   4.236   8.036  0.0150  0.3353  0.5076
 5668TIP3   OH238638   0.042   1.860   7.293 -0.5289  0.3980  0.3474
 5668TIP3    H138639  -0.014   1.820   7.226 -2.3380  0.3410  1.8365
 5668TIP3    H238640   0.096   1.922   7.244 -2.4247  1.0229 -1.0777
 5669TIP3   OH238641   1.138   6.314   1.597 -0.4139 -0.1069 -0.9358
 5669TIP3    H138642   1.163   6.376   1.665  0.6167 -1.1048 -0.3661
 5669TIP3    H238643   1.077   6.363   1.541 -0.4569  1.0622  0.0873
 5670TIP3   OH238644   0.991   0.481   8.228  0.1190 -0.3681 -0.6058
 5670TIP3    H138645   0.903   0.501   8.260  0.6426  1.5209 -0.2550
 5670TIP3    H238646   1.039   0.453   8.307  0.5944  1.4432 -0.1964
 5671TIP3   OH238647   5.887   5.852   0.678 -0.1685 -0.0428  0.4170
 5671TIP3    H138648   5.901   5.758   0.663 -1.2830 -0.2637  0.7016
 5671TIP3    H238649   5.797   5.858   0.709 -0.0144  1.1031  0.6631
 5672TIP3   OH238650   0.076   1.002   0.428  0.2373  0.3836  0.1237
 5672TIP3    H138651   0.163   0.979   0.396 -0.2237 -0.7107 -0.3647
 5672TIP3    H238652   0.016   0.971   0.360 -0.5859  0.4695  0.7942
 5673TIP3   OH238653   1.433   3.576   0.476  0.3882  0.3212 -0.1569
 5673TIP3    H138654   1.473   3.515   0.538 -0.8185  0.4156  0.7602
 5673TIP3    H238655   1.474   3.556   0.392  0.7742 -1.0335  0.3293
 5674TIP3   OH238656   2.597   5.151   0.423 -0.4174  0.1413  0.2957
 5674TIP3    H138657   2.617   5.187   0.510 -2.0624  0.3933  0.6020
 5674TIP3    H238658   2.555   5.067   0.441 -0.7279  0.1730 -0.2653
 5675TIP3   OH238659   4.010   1.562   7.584 -0.0539  0.1753 -0.2957
 5675TIP3    H138660   4.097   1.603   7.590  0.2665 -0.5901  0.4895
 5675TIP3    H238661   4.014   1.511   7.504 -0.1056  0.8736 -0.7511
 5676TIP3   OH238662   4.822   5.304   7.428 -1.0361 -0.6068 -0.3261
 5676TIP3    H138663   4.867   5.294   7.512 -0.9299 -1.4013 -0.4701
 5676TIP3    H238664   4.729   5.293   7.448 -1.3534  2.2407  0.1766
 5677TIP3   OH238665   0.657   5.143   0.202  0.1481  0.6637  0.5319
 5677TIP3    H138666   0.654   5.237   0.186  1.8461  0.6562 -0.0566
 5677TIP3    H238667   0.720   5.134   0.274  1.0264 -0.0827 -0.2984
 5678TIP3   OH238668   1.480   1.470   1.434  0.0254 -0.3788 -0.0377
 5678TIP3    H138669   1.530   1.431   1.363 -0.5041 -1.6437  0.2582
 5678TIP3    H238670   1.486   1.407   1.506 -0.7051  0.1619  0.5238
 5679TIP3   OH238671   1.398   0.101   0.907  0.0327  0.3280  0.3181
 5679TIP3    H138672   1.402   0.018   0.954 -0.9898 -0.1133 -0.3324
 5679TIP3    H238673   1.363   0.078   0.820 -0.0954  1.4040  0.0653
 5680TIP3   OH238674   5.443   3.380   2.209  0.4540 -0.4799 -0.2254
 5680TIP3    H138675   5.418   3.377   2.117  0.3380 -1.7628 -0.1745
 5680TIP3    H238676   5.529   3.421   2.210  0.0002  0.5258 -0.7812
 5681TIP3   OH238677   3.197   1.507   0.006  0.1135  0.1347 -0.0214
 5681TIP3    H138678   3.153   1.584  -0.029 -1.0073 -0.2237  0.5602
 5681TIP3    H238679   3.191   1.442  -0.065  1.6030  0.7406 -0.7512
 5682TIP3   OH238680   5.122   2.756   0.070 -0.0098 -0.3395  0.2179
 5682TIP3    H138681   5.188   2.764   0.139 -1.8522 -1.2517  2.1905
 5682TIP3    H238682   5.167   2.709  -0.000  2.2439  1.5567  0.2514
 5683TIP3   OH238683   3.638   3.027   7.585 -0.4936 -0.3069  0.3983
 5683TIP3    H138684   3.661   2.935   7.595  3.1088  0.2202 -1.4152
 5683TIP3    H238685   3.689   3.071   7.653  0.0169  0.5409 -0.5088
 5684TIP3   OH238686   4.714   3.443   0.307 -0.0188 -0.4435 -0.0946
 5684TIP3    H138687   4.660   3.368   0.283  0.4995 -1.2342  1.1425
 5684TIP3    H238688   4.723   3.437   0.402  3.2217 -1.0223 -0.3364
 5685TIP3   OH238689   1.368   1.970   7.935  0.3956  0.5162  1.1292
 5685TIP3    H138690   1.343   1.903   7.998  0.4199  0.4906  1.1113
 5685TIP3    H238691   1.288   1.987   7.885  0.4704  0.2754  0.9257
 5686TIP3   OH238692   1.192   2.933   0.086  0.8510 -0.0922  0.0526
 5686TIP3    H138693   1.122   2.969   0.031  1.2074 -0.2820 -0.5310
 5686TIP3    H238694   1.177   2.973   0.172  0.6181  0.6463 -0.3189
 5687TIP3   OH238695   1.288   2.126   1.644  0.6908  0.4740 -0.2053
 5687TIP3    H138696   1.273   2.063   1.715 -0.7705  1.9742  0.9124
 5687TIP3    H238697   1.214   2.113   1.584  2.4602 -1.5098 -2.1289
 5688TIP3   OH238698   5.944   0.035   6.283  0.1275  0.1334  0.0913
 5688TIP3    H138699   6.022   0.038   6.338 -0.3992  1.6971  0.8079
 5688TIP3    H238700   5.977   0.043   6.194  0.8040  0.5847  0.3705
 5689TIP3   OH238701   4.256   5.883   1.050  0.0712  0.0092 -0.3900
 5689TIP3    H138702   4.272   5.870   1.143 -0.1365 -0.4627 -0.4195
 5689TIP3    H238703   4.336   5.852   1.007 -0.0740 -0.3542 -0.4041
 5690TIP3   OH238704   2.047   0.732   0.483  0.3102 -0.1340 -0.2704
 5690TIP3    H138705   2.106   0.806   0.475  1.7375 -1.2294 -0.3303
 5690TIP3    H238706   1.960   0.771   0.496  0.6769  1.5587 -2.3244
 5691TIP3   OH238707   3.013   0.486   7.723  0.3139  0.2665  0.8170
 5691TIP3    H138708   3.069   0.454   7.652 -0.1231  1.6890 -0.2312
 5691TIP3    H238709   2.984   0.407   7.769  1.3330 -0.6306 -0.0349
 5692TIP3   OH238710   5.369   0.461   7.205  0.5111  0.2043  0.3791
 5692TIP3    H138711   5.334   0.411   7.131  0.7053  1.0530 -0.3140
 5692TIP3    H238712   5.369   0.400   7.278  0.9105 -0.8614 -0.4795
 5693TIP3   OH238713   3.378   6.053   6.323 -0.1242  0.1331  0.4150
 5693TIP3    H138714   3.315   5.981   6.319 -0.1627  0.1857  0.0484
 5693TIP3    H238715   3.456   6.016   6.364 -0.1985 -0.0749  0.3671
 5694TIP3   OH238716   6.847   3.491   1.995 -0.1768 -0.4887  0.4098
 5694TIP3    H138717   6.931   3.451   2.017 -0.2324 -0.1649  1.2341
 5694TIP3    H238718   6.870   3.558   1.930  0.4592  0.6930  1.7837
 5695TIP3   OH238719   0.823   2.684   2.648 -0.0787  0.4945  0.2772
 5695TIP3    H138720   0.787   2.712   2.733 -0.1681  1.3122 -0.0198
 5695TIP3    H238721   0.913   2.656   2.668 -0.3670 -0.0914  0.7710
 5696TIP3   OH238722   2.476   6.614   0.278 -0.0283 -0.5151 -0.4948
 5696TIP3    H138723   2.561   6.658   0.271  0.7138 -1.7386  0.3345
 5696TIP3    H238724   2.463   6.605   0.373 -0.8461 -0.7986 -0.6333
 5697TIP3   OH238725   0.401   0.107   6.408  0.3182  0.1001  0.0503
 5697TIP3    H138726   0.399   0.194   6.447 -0.9243  0.0598  0.1127
 5697TIP3    H238727   0.313   0.073   6.421  0.0697 -0.2203 -2.1227
 5698TIP3   OH238728   5.042   1.799   1.374 -0.4985 -0.3016 -0.7103
 5698TIP3    H138729   5.125   1.751   1.383  0.3628  1.2416 -0.0590
 5698TIP3    H238730   4.982   1.753   1.434  0.6530  0.1111  0.8432
 5699TIP3   OH238731   0.114   2.554   8.453 -0.2989 -0.5091  0.1844
 5699TIP3    H138732   0.118   2.649   8.444 -0.5723 -0.5979 -0.9642
 5699TIP3    H238733   0.199   2.523   8.423 -0.3913 -0.6643  0.0803
 5700TIP3   OH238734   2.935   6.746   1.110 -0.6397  0.1896  0.0745
 5700TIP3    H138735   2.992   6.769   1.036 -0.1246 -1.1127  0.0499
 5700TIP3    H238736   2.917   6.653   1.099 -0.1702 -0.1492  1.8534
 5701TIP3   OH238737   0.528   3.522   1.804 -0.0645  0.0076  0.5371
 5701TIP3    H138738   0.487   3.560   1.726  0.1340  0.8239  0.8209
 5701TIP3    H238739   0.500   3.578   1.876  0.0936 -0.4969  1.0020
 5702TIP3   OH238740   2.655   5.114   7.652  0.4248  0.4540  0.2103
 5702TIP3    H138741   2.703   5.041   7.691 -0.0055 -0.8798 -1.6363
 5702TIP3    H238742   2.598   5.145   7.722  0.4916 -1.1013  0.9911
 5703TIP3   OH238743   3.449   0.588   7.531 -0.1043 -0.1466 -0.4732
 5703TIP3    H138744   3.535   0.620   7.505 -0.2824  0.4702 -0.3008
 5703TIP3    H238745   3.409   0.660   7.579  0.3284 -1.3539  1.8138
 5704TIP3   OH238746   0.940   6.566   8.421  0.1452  0.0131 -0.3511
 5704TIP3    H138747   0.883   6.536   8.350  0.2302 -0.8611 -0.0626
 5704TIP3    H238748   0.966   6.654   8.395  2.1979 -1.1568 -2.7015
 5705TIP3   OH238749   3.006   2.737   0.419 -0.2492 -0.4879 -0.0016
 5705TIP3    H138750   2.921   2.692   0.418 -0.4468 -0.1220 -0.0450
 5705TIP3    H238751   2.988   2.819   0.465 -1.2434  2.0952 -4.3899
 5706TIP3   OH238752   2.380   2.397   1.081  0.2427 -0.0704 -0.6785
 5706TIP3    H138753   2.357   2.488   1.101 -0.4756 -0.2886 -0.4617
 5706TIP3    H238754   2.427   2.366   1.158  1.3177  0.3835 -1.1270
 5707TIP3   OH238755   3.160   4.681   6.556  0.2013 -0.0737 -0.3240
 5707TIP3    H138756   3.209   4.666   6.475 -0.7371  1.6022 -1.2653
 5707TIP3    H238757   3.115   4.598   6.573  0.4796 -0.4837 -1.4813
 5708TIP3   OH238758   2.556   5.755   0.719  0.3080  0.0677 -0.3537
 5708TIP3    H138759   2.585   5.670   0.750  1.1248  0.7488  0.8467
 5708TIP3    H238760   2.524   5.800   0.798 -2.1555  0.1186 -1.2853
 5709TIP3   OH238761   1.906   5.439   0.846  0.4605 -0.4537  0.4253
 5709TIP3    H138762   1.843   5.506   0.874  1.0837  0.3870 -0.1330
 5709TIP3    H238763   1.852   5.362   0.826 -0.6762  0.8573 -1.9766
 5710TIP3   OH238764   0.593   0.048   0.859 -0.1497  0.2315  0.3206
 5710TIP3    H138765   0.570   0.062   0.950 -0.3443  1.7140  0.0649
 5710TIP3    H238766   0.584   0.134   0.818  2.4586  0.1788 -0.5565
 5711TIP3   OH238767   3.119   4.615   8.026 -0.4533  0.1549 -0.2594
 5711TIP3    H138768   3.127   4.551   7.955 -0.6545 -0.1817  0.0175
 5711TIP3    H238769   3.122   4.700   7.982  0.9991 -0.0066 -0.5378
 5712TIP3   OH238770   6.657   0.812   0.917 -0.1823 -0.2616 -0.3145
 5712TIP3    H138771   6.692   0.743   0.861 -1.4248 -0.4215 -0.9181
 5712TIP3    H238772   6.628   0.880   0.856  0.4685  0.5398  0.2450
 5713TIP3   OH238773   5.539   6.003   0.426 -0.0069  0.4300 -0.1984
 5713TIP3    H138774   5.559   6.045   0.510  2.2101 -0.7934 -0.0096
 5713TIP3    H238775   5.495   5.921   0.450 -0.9412  0.8831 -0.3445
 5714TIP3   OH238776   5.274   3.341   1.072  0.0786 -0.2337 -0.0326
 5714TIP3    H138777   5.245   3.417   1.121 -1.7151 -0.6778 -0.3501
 5714TIP3    H238778   5.291   3.274   1.138  0.3853  0.0207  0.1494
 5715TIP3   OH238779   2.051   0.094   7.880 -0.0701 -0.1530 -0.1926
 5715TIP3    H138780   2.023   0.139   7.800  0.7352  0.8238  0.0462
 5715TIP3    H238781   2.144   0.080   7.868 -0.0266 -0.3805  0.3981
 5716TIP3   OH238782   2.642   2.618   1.601 -0.0988  0.1639  0.0862
 5716TIP3    H138783   2.605   2.626   1.688  0.3021 -1.8964  0.5077
 5716TIP3    H238784   2.595   2.545   1.562  0.4985  0.3475 -1.0150
 5717TIP3   OH238785   4.856   3.766   6.362 -0.0562  0.3923 -0.6676
 5717TIP3    H138786   4.803   3.715   6.302  1.1081 -3.6196  1.3800
 5717TIP3    H238787   4.816   3.753   6.448  1.4149  1.3432  0.2113
 5718TIP3   OH238788   5.592   2.862   1.380  0.2352  0.4070 -0.5513
 5718TIP3    H138789   5.663   2.813   1.339 -0.0806 -0.9441  0.4405
 5718TIP3    H238790   5.599   2.842   1.473 -0.7428  1.1889 -0.2888
 5719TIP3   OH238791   3.137   0.030   7.863  0.2342  0.3193  0.3627
 5719TIP3    H138792   3.083  -0.003   7.935  1.1889 -0.4059  0.7743
 5719TIP3    H238793   3.195  -0.043   7.842  0.7527  0.9333 -0.3562
 5720TIP3   OH238794   4.884   4.722   0.518  0.3920  0.0458 -0.4071
 5720TIP3    H138795   4.897   4.780   0.593 -2.0427 -0.8052  0.7697
 5720TIP3    H238796   4.948   4.652   0.530  1.0983  0.7388 -0.0407
 5721TIP3   OH238797   5.499   1.537   7.798 -0.1404  0.2587  0.1265
 5721TIP3    H138798   5.492   1.632   7.796  2.3224  0.5065 -1.0125
 5721TIP3    H238799   5.468   1.509   7.711 -3.1011 -0.3006  1.2359
 5722TIP3   OH238800   2.702   0.753   8.327  0.5242  0.1348 -0.3078
 5722TIP3    H138801   2.666   0.665   8.338  1.8845 -0.6425 -1.6189
 5722TIP3    H238802   2.794   0.738   8.306  0.6397  1.8461 -1.2018
 5723TIP3   OH238803   6.918   1.064   1.963 -0.1899 -0.4051  0.0703
 5723TIP3    H138804   6.905   1.013   2.042 -2.0396 -1.5941 -0.9448
 5723TIP3    H238805   7.001   1.031   1.926  0.4757 -0.1128  1.2591
 5724TIP3   OH238806   2.987   4.031   1.237  0.6665 -0.1472  0.2667
 5724TIP3    H138807   2.905   3.998   1.274  0.9814 -0.4212  0.7388
 5724TIP3    H238808   3.033   3.953   1.208  1.5792 -0.1913  1.7279
 5725TIP3   OH238809   1.318   2.680   1.377  0.0762 -0.2750  0.2194
 5725TIP3    H138810   1.314   2.766   1.420 -0.1199  0.0308 -0.4047
 5725TIP3    H238811   1.353   2.698   1.290  1.7800 -1.0832  0.7038
 5726TIP3   OH238812   1.769   6.335   7.261  0.5099 -0.3720  0.6283
 5726TIP3    H138813   1.731   6.409   7.215  0.6379 -1.3774 -1.1501
 5726TIP3    H238814   1.699   6.303   7.318  0.1132  0.4291  0.5999
 5727TIP3   OH238815   0.210   0.937   1.837 -0.2432 -0.3756  0.2122
 5727TIP3    H138816   0.293   0.925   1.790 -0.7133 -1.0888 -0.4627
 5727TIP3    H238817   0.226   0.900   1.923  0.6486  0.9891  0.6743
 5728TIP3   OH238818   4.857   6.888   7.369  0.3347  0.2350  0.3910
 5728TIP3    H138819   4.880   6.807   7.414 -1.5739 -0.7176 -0.2552
 5728TIP3    H238820   4.933   6.907   7.314 -0.0687 -2.5185 -1.3361
 5729TIP3   OH238821   0.800   2.798   1.114 -0.7610  0.0228 -0.1651
 5729TIP3    H138822   0.807   2.728   1.179  0.7947  1.1575  0.9640
 5729TIP3    H238823   0.742   2.863   1.155 -2.6422 -0.7864 -1.4329
 5730TIP3   OH238824   2.982   5.739   6.993  0.0665 -0.0950 -0.0595
 5730TIP3    H138825   2.966   5.833   6.986 -0.4157 -0.2060 -0.5086
 5730TIP3    H238826   2.902   5.704   7.030 -0.2752 -0.4912 -1.1180
 5731TIP3   OH238827   0.512   3.437   0.586 -0.0439  0.1029  0.2828
 5731TIP3    H138828   0.529   3.462   0.495 -0.5350  1.8698  0.6312
 5731TIP3    H238829   0.422   3.406   0.587  0.9183 -3.0080 -0.3680
 5732TIP3   OH238830   1.855   4.323   6.596 -0.3510 -0.9306  0.4473
 5732TIP3    H138831   1.949   4.314   6.611  0.5388  0.9785 -2.8925
 5732TIP3    H238832   1.830   4.241   6.552  0.2351 -0.6983 -0.3508
 5733TIP3   OH238833   1.159   2.670   0.400 -0.0753  0.5003  0.2100
 5733TIP3    H138834   1.228   2.730   0.427  1.5771 -1.1410 -0.1737
 5733TIP3    H238835   1.145   2.613   0.476  0.8665 -0.8063 -0.5559
 5734TIP3   OH238836   1.536   3.321   7.875 -0.2690 -0.6558  0.3617
 5734TIP3    H138837   1.630   3.301   7.874 -0.2428 -0.5581  0.8992
 5734TIP3    H238838   1.521   3.367   7.792 -0.1295 -1.9338 -0.4126
 5735TIP3   OH238839   6.782   2.365   6.454 -0.5160 -0.4556  0.4536
 5735TIP3    H138840   6.773   2.417   6.534 -0.0065 -0.6095  0.6160
 5735TIP3    H238841   6.840   2.416   6.399 -1.1883 -0.1589  0.0109
 5736TIP3   OH238842   6.262   5.805   7.398  0.2128 -0.5760  0.0068
 5736TIP3    H138843   6.274   5.716   7.365  0.0171 -0.6554  0.1467
 5736TIP3    H238844   6.340   5.852   7.369  0.2561 -0.7589 -0.1792
 5737TIP3   OH238845   6.244   6.051   7.559 -0.4019  0.8212 -0.0743
 5737TIP3    H138846   6.289   5.967   7.547 -0.3657  0.8379 -0.0561
 5737TIP3    H238847   6.194   6.041   7.639 -1.5074  0.3329 -0.8083
 5738TIP3   OH238848   6.052   5.910   1.394 -0.2238  0.2825 -0.0856
 5738TIP3    H138849   6.127   5.927   1.450 -1.2427  1.3103  1.0121
 5738TIP3    H238850   6.077   5.947   1.309  0.3761  0.9585  0.3730
 5739TIP3   OH238851   6.820   3.854   0.828  0.5007  0.5086  0.5208
 5739TIP3    H138852   6.807   3.764   0.798 -0.8425 -0.0175  2.5016
 5739TIP3    H238853   6.787   3.908   0.755  0.0536 -0.6242 -0.1455
 5740TIP3   OH238854   1.607   0.776   1.231  0.6437  0.7238 -0.2141
 5740TIP3    H138855   1.612   0.712   1.302 -2.3001 -0.2621 -0.7662
 5740TIP3    H238856   1.685   0.760   1.178  2.2686  0.6703  2.0688
 5741TIP3   OH238857   4.436   4.126   1.604  0.4648  0.6463  0.3653
 5741TIP3    H138858   4.480   4.198   1.558  2.7641 -0.4633  0.6856
 5741TIP3    H238859   4.449   4.050   1.548  0.4285 -0.0601  1.3002
 5742TIP3   OH238860   0.832   1.766   7.610 -0.6958 -0.2224  0.0763
 5742TIP3    H138861   0.897   1.772   7.680 -1.2539  1.7167  0.4879
 5742TIP3    H238862   0.759   1.718   7.650  0.0474 -1.5345 -0.0790
 5743TIP3   OH238863   2.269   4.833   7.326  0.0852 -0.4491  0.2649
 5743TIP3    H138864   2.310   4.853   7.410  1.2794  1.5504 -0.7084
 5743TIP3    H238865   2.207   4.904   7.311  1.1606  0.2318 -1.2812
 5744TIP3   OH238866   5.890   4.443   6.792 -0.4470 -0.2160 -0.0356
 5744TIP3    H138867   5.972   4.417   6.836  0.1574 -0.4818 -1.2784
 5744TIP3    H238868   5.824   4.384   6.829  0.1677 -0.8666  0.0666
 5745TIP3   OH238869   5.717   0.352   6.082 -0.4422 -0.2139 -0.0389
 5745TIP3    H138870   5.811   0.371   6.076 -0.0068 -2.4459 -1.4323
 5745TIP3    H238871   5.704   0.326   6.173  0.8310 -2.1737 -0.3563
 5746TIP3   OH238872   3.777   1.304   8.062  0.2671  0.4464  0.4222
 5746TIP3    H138873   3.699   1.335   8.107 -0.4199 -0.1794 -0.3089
 5746TIP3    H238874   3.799   1.222   8.105 -0.6234 -0.3550 -0.6045
 5747TIP3   OH238875   3.519   6.745   0.342  0.0822  0.2134  0.2106
 5747TIP3    H138876   3.612   6.745   0.366  0.0729  0.8493  0.2868
 5747TIP3    H238877   3.473   6.723   0.423  0.0894  1.6071  0.6247
 5748TIP3   OH238878   1.177   3.339   1.601 -0.0940 -0.6812  0.1787
 5748TIP3    H138879   1.187   3.374   1.512  0.1460 -0.0603  0.4410
 5748TIP3    H238880   1.106   3.275   1.594 -1.9273  1.2392  0.0469
 5749TIP3   OH238881   0.869   3.544   8.030  0.1896 -0.6093  0.9566
 5749TIP3    H138882   0.949   3.495   8.047  0.4484 -0.6334 -0.2308
 5749TIP3    H238883   0.864   3.608   8.101  1.0352 -0.8930  1.2802
 5750TIP3   OH238884   3.364   4.802   7.527  0.4364  0.0934 -0.2774
 5750TIP3    H138885   3.292   4.861   7.550 -0.0478  0.2909 -2.1834
 5750TIP3    H238886   3.389   4.761   7.610 -2.3067 -0.4788  0.3428
 5751TIP3   OH238887   0.754   4.601   6.672 -0.2586 -0.4615 -0.1721
 5751TIP3    H138888   0.839   4.612   6.630 -0.6873 -0.3202 -1.0279
 5751TIP3    H238889   0.691   4.605   6.600 -1.1301  1.2582  0.6304
 5752TIP3   OH238890   5.513   1.928   1.934 -0.0791 -0.6359 -0.7680
 5752TIP3    H138891   5.538   1.864   1.866  1.3125 -0.0631 -0.8266
 5752TIP3    H238892   5.552   1.893   2.014  2.6844  1.1760 -1.1684
 5753TIP3   OH238893   5.037   3.765   7.156  0.0426 -0.6365 -0.5580
 5753TIP3    H138894   4.963   3.790   7.101  0.5563 -0.9480 -1.4250
 5753TIP3    H238895   5.106   3.743   7.093  1.2309  0.7166  0.2237
 5754TIP3   OH238896   0.632   3.669   0.126  0.7943 -1.0439  0.0547
 5754TIP3    H138897   0.724   3.659   0.147  0.4768 -0.8726  1.6461
 5754TIP3    H238898   0.624   3.760   0.097  1.1564 -1.1095 -0.2503
 5755TIP3   OH238899   1.061   3.550   0.369 -0.1270  0.4554 -1.1923
 5755TIP3    H138900   0.984   3.515   0.325 -0.9883 -0.5367  0.9573
 5755TIP3    H238901   1.120   3.475   0.378 -0.9483  0.0056  1.2657
 5756TIP3   OH238902   3.085   3.004   0.122  0.0970  0.3549 -0.1471
 5756TIP3    H138903   3.179   2.990   0.107  0.0447  1.2868 -1.5026
 5756TIP3    H238904   3.044   2.989   0.037 -1.2027 -1.5271  0.7590
 5757TIP3   OH238905   2.015   6.664   7.623 -0.2789  0.1882  0.1989
 5757TIP3    H138906   1.921   6.675   7.610 -0.6748 -0.7528  1.9286
 5757TIP3    H238907   2.025   6.575   7.656  0.9459  0.9376  2.0532
 5758TIP3   OH238908   4.844   0.667   0.196  0.0861 -0.1214 -0.2270
 5758TIP3    H138909   4.814   0.705   0.114  1.3252  0.4483 -0.4410
 5758TIP3    H238910   4.877   0.580   0.171  3.5775  1.2640 -1.0376
 5759TIP3   OH238911   6.530   3.303   7.766 -0.3710  0.5138  0.1636
 5759TIP3    H138912   6.480   3.257   7.699 -0.7180  1.1940 -0.0567
 5759TIP3    H238913   6.568   3.378   7.720  1.5321 -0.4130  0.1254
 5760TIP3   OH238914   6.226   5.901   2.364  0.1619  0.1846 -0.6923
 5760TIP3    H138915   6.313   5.910   2.324 -0.2211  1.8816 -1.2457
 5760TIP3    H238916   6.172   5.864   2.295  0.3874 -0.6615 -0.4205
 5761TIP3   OH238917   4.195   4.774   1.944  0.8019  0.2125  0.5187
 5761TIP3    H138918   4.207   4.825   1.865  1.3260  0.0107  0.4599
 5761TIP3    H238919   4.270   4.797   1.999  0.8741 -0.2485  0.6217
 5762TIP3   OH238920   2.545   1.923   1.189  0.2975  0.5565  0.2245
 5762TIP3    H138921   2.456   1.891   1.174  0.1680  0.5507  0.9687
 5762TIP3    H238922   2.592   1.847   1.223  0.3968  0.7540  0.5246
 5763TIP3   OH238923   0.040   1.773   0.525 -0.3855 -0.1106 -0.6304
 5763TIP3    H138924   0.028   1.864   0.500  1.7294  0.5267  0.4673
 5763TIP3    H238925   0.127   1.750   0.492  0.7140 -0.5341  2.2792
 5764TIP3   OH238926   1.737   5.316   1.802  0.3168 -0.7837  0.2647
 5764TIP3    H138927   1.760   5.264   1.878 -0.1047  0.1955  1.0855
 5764TIP3    H238928   1.728   5.406   1.835 -0.3674 -0.4195 -0.8286
 5765TIP3   OH238929   2.767   0.427   1.704  0.0583  0.0729  0.0875
 5765TIP3    H138930   2.702   0.494   1.684  1.2569  1.6403  1.2400
 5765TIP3    H238931   2.742   0.393   1.790  0.7251  0.6412  0.5096
 5766TIP3   OH238932   3.987   3.870   6.626 -0.1943  0.2103  0.1067
 5766TIP3    H138933   4.011   3.919   6.547 -2.0716  2.8550  1.0267
 5766TIP3    H238934   4.061   3.883   6.686  1.6010 -2.4661 -1.3287
 5767TIP3   OH238935   4.119   6.224   8.550 -0.0888 -0.2884 -0.1022
 5767TIP3    H138936   4.118   6.249   8.458 -0.6441  0.7551  0.1768
 5767TIP3    H238937   4.198   6.266   8.586  1.0798 -2.0770 -0.4468
 5768TIP3   OH238938   5.640   4.426   1.745  0.1879 -0.1521 -0.1078
 5768TIP3    H138939   5.630   4.343   1.791  0.7592  0.4870  1.2412
 5768TIP3    H238940   5.601   4.491   1.804  2.2545  0.9047  0.2077
 5769TIP3   OH238941   6.916   4.926   1.041  0.2188 -0.5154 -0.7012
 5769TIP3    H138942   6.871   4.846   1.068  0.5035 -0.2249  0.7254
 5769TIP3    H238943   6.900   4.988   1.111  1.5451  0.0863 -0.8919
 5770TIP3   OH238944   5.579   4.423   7.406 -0.1481 -0.5913  0.4018
 5770TIP3    H138945   5.488   4.450   7.391  0.0058 -0.0614  0.3982
 5770TIP3    H238946   5.574   4.329   7.423 -0.6878 -0.5807  0.3120
 5771TIP3   OH238947   5.483   2.981   6.061 -0.0965 -0.0598  0.6729
 5771TIP3    H138948   5.446   2.905   6.105  0.6793 -0.6403  0.3480
 5771TIP3    H238949   5.542   2.945   5.996 -0.1551  0.8127  0.1056
 5772TIP3   OH238950   6.704   1.557   8.006  0.7326 -0.0561 -0.2579
 5772TIP3    H138951   6.625   1.605   7.983  1.4920  1.1073 -0.5426
 5772TIP3    H238952   6.688   1.525   8.094  0.0563  0.4346 -0.1948
 5773TIP3   OH238953   5.919   2.689   0.331  0.0789 -0.3839  0.0605
 5773TIP3    H138954   5.947   2.727   0.415 -0.5134 -0.5597  0.3453
 5773TIP3    H238955   5.934   2.759   0.267  1.5577 -0.6236  0.1218
 5774TIP3   OH238956   6.329   6.206   1.209  0.7377 -0.4946  0.6706
 5774TIP3    H138957   6.385   6.132   1.186  0.4235 -0.3695 -0.5488
 5774TIP3    H238958   6.368   6.281   1.164  0.2714 -0.1859  0.7699
 5775TIP3   OH238959   6.299   5.506   7.316 -0.1845 -0.3435  0.2211
 5775TIP3    H138960   6.294   5.423   7.268  0.0171 -1.1523  1.5335
 5775TIP3    H238961   6.301   5.480   7.408  1.4815  1.0382  0.6279
 5776TIP3   OH238962   5.316   3.533   7.753 -0.0558 -0.2572  0.0768
 5776TIP3    H138963   5.257   3.599   7.789 -1.1160  0.1058 -2.1809
 5776TIP3    H238964   5.276   3.507   7.670  2.0985 -1.2299 -0.7288
 5777TIP3   OH238965   3.904   5.692   6.757  0.1683 -0.2156 -0.3640
 5777TIP3    H138966   3.950   5.757   6.811 -1.4146 -1.9382  3.4438
 5777TIP3    H238967   3.857   5.745   6.692  0.9518  2.2236  0.9019
 5778TIP3   OH238968   5.850   0.629   6.709  0.0903  0.1505  0.4658
 5778TIP3    H138969   5.850   0.658   6.800  0.7193 -1.0987  0.8949
 5778TIP3    H238970   5.801   0.696   6.662 -1.3375  0.2000  1.9389
 5779TIP3   OH238971   3.389   2.857   1.948  0.0712  0.9379 -0.5562
 5779TIP3    H138972   3.353   2.906   2.022 -0.3505 -0.1109 -0.0488
 5779TIP3    H238973   3.314   2.809   1.912  0.5006  0.5484 -0.9491
 5780TIP3   OH238974   4.249   1.943   0.805 -0.1650  0.1000  0.6281
 5780TIP3    H138975   4.191   1.909   0.737 -0.5021 -0.2241  1.0739
 5780TIP3    H238976   4.274   1.866   0.856 -0.5954  0.4550  1.3876
 5781TIP3   OH238977   1.276   1.244   0.378  0.3271 -0.1977 -0.1039
 5781TIP3    H138978   1.262   1.326   0.426 -0.9992 -0.8407  0.6656
 5781TIP3    H238979   1.371   1.239   0.367  0.4625  1.2455  0.1719
 5782TIP3   OH238980   4.977   4.744   0.884 -0.1575  0.2044  0.1230
 5782TIP3    H138981   4.937   4.817   0.837  0.3725  0.5815  0.2460
 5782TIP3    H238982   4.910   4.675   0.884 -0.6198  0.6515 -0.0879
 5783TIP3   OH238983   2.403   6.111   8.253 -0.3642 -0.2476  0.5976
 5783TIP3    H138984   2.429   6.129   8.344  1.7422 -0.6618  0.1279
 5783TIP3    H238985   2.480   6.069   8.214 -2.1496 -2.5452 -0.6631
 5784TIP3   OH238986   1.730   3.533   0.525  0.4253  0.1269 -0.0605
 5784TIP3    H138987   1.741   3.616   0.479  1.3386 -0.1776 -0.4011
 5784TIP3    H238988   1.685   3.476   0.463  1.8402 -0.3490 -0.6671
 5785TIP3   OH238989   5.977   2.178   2.200  0.1636  0.1365  0.0883
 5785TIP3    H138990   5.963   2.209   2.289  0.7569  2.6194 -0.6113
 5785TIP3    H238991   6.067   2.203   2.179 -0.3210  0.6217 -1.5737
 5786TIP3   OH238992   4.155   1.380   8.448  0.2776  0.2869 -0.3860
 5786TIP3    H138993   4.156   1.467   8.409  1.3883 -0.2694 -1.6966
 5786TIP3    H238994   4.239   1.341   8.423  0.5604 -0.5622  1.6240
 5787TIP3   OH238995   3.937   3.636   0.545  0.4521 -0.0893 -0.0599
 5787TIP3    H138996   3.930   3.639   0.640 -0.2128 -0.9359 -0.0694
 5787TIP3    H238997   3.897   3.718   0.516  0.3873  0.0372  0.3827
 5788TIP3   OH238998   1.315   6.359   2.310 -0.7256 -0.5040 -0.7263
 5788TIP3    H138999   1.327   6.370   2.216  2.4442 -1.3203 -0.5122
 5788TIP3    H239000   1.402   6.339   2.344 -1.6392  0.3327  2.4943
 5789TIP3   OH239001   0.733   5.394   7.527  0.1659 -0.4686  0.0481
 5789TIP3    H139002   0.764   5.326   7.467 -0.1920  0.0920 -0.7955
 5789TIP3    H239003   0.646   5.416   7.495 -0.0634 -0.2058  0.8299
 5790TIP3   OH239004   4.420   4.539   7.237 -0.1927  0.5007 -1.1066
 5790TIP3    H139005   4.480   4.473   7.272 -0.5379  1.2035  0.9301
 5790TIP3    H239006   4.477   4.613   7.216 -0.1836  0.7327 -0.2987
 5791TIP3   OH239007   4.882   3.203   7.207 -0.0535 -0.6448 -0.0945
 5791TIP3    H139008   4.890   3.192   7.302 -1.6490 -3.0788 -0.1567
 5791TIP3    H239009   4.930   3.130   7.170  1.0023  0.5656 -1.2432
 5792TIP3   OH239010   5.555   1.620   6.473  0.1739 -0.4527 -0.3408
 5792TIP3    H139011   5.593   1.532   6.474  0.7283 -0.2177  0.4089
 5792TIP3    H239012   5.623   1.676   6.511  0.7767  0.7052 -2.8796
 5793TIP3   OH239013   0.503   2.560   7.821  0.8123 -0.1332 -0.2940
 5793TIP3    H139014   0.546   2.561   7.736  0.2239  1.0243 -0.6114
 5793TIP3    H239015   0.410   2.575   7.800  0.4438 -1.2301  0.4626
 5794TIP3   OH239016   0.134   0.292   7.527 -0.5477  0.6208 -0.3905
 5794TIP3    H139017   0.200   0.323   7.465  0.6500  1.1974  1.1121
 5794TIP3    H239018   0.161   0.203   7.548 -0.2769  0.8324  0.1737
 5795TIP3   OH239019   3.376   2.592   2.500 -0.4943  0.2228 -0.0283
 5795TIP3    H139020   3.427   2.660   2.544  0.2840  0.8208 -1.7812
 5795TIP3    H239021   3.439   2.523   2.482 -0.7532  0.0762 -0.3805
 5796TIP3   OH239022   2.154   4.762   0.571 -0.3080 -0.8708 -0.5046
 5796TIP3    H139023   2.065   4.789   0.591 -0.1713 -0.0660 -0.9546
 5796TIP3    H239024   2.159   4.672   0.602 -1.1886 -0.8303 -0.2200
 5797TIP3   OH239025   3.324   4.338   0.583 -0.2038 -0.1326 -0.0478
 5797TIP3    H139026   3.318   4.401   0.654  1.1884  1.1823 -1.0200
 5797TIP3    H239027   3.242   4.347   0.535 -0.0694  0.8863 -0.1047
 5798TIP3   OH239028   6.446   2.948   0.576  0.0218  0.6982 -0.6196
 5798TIP3    H139029   6.531   2.987   0.598 -0.0863  0.5964 -0.0071
 5798TIP3    H239030   6.389   2.972   0.649 -1.1180  2.6702 -2.0382
 5799TIP3   OH239031   3.599   5.143   7.610 -0.0797  0.2378  0.1695
 5799TIP3    H139032   3.574   5.153   7.519  0.3180  2.5524  0.2695
 5799TIP3    H239033   3.517   5.145   7.659 -0.3662 -1.7663 -0.1162
 5800TIP3   OH239034   3.248   5.873   6.572 -0.0320 -0.2981 -0.4578
 5800TIP3    H139035   3.329   5.824   6.560 -0.0483 -0.4026 -0.1441
 5800TIP3    H239036   3.179   5.811   6.550 -0.0651 -0.5101  0.2006
 5801TIP3   OH239037   6.591   6.677   6.841 -0.0011 -0.1237 -0.3419
 5801TIP3    H139038   6.636   6.662   6.758  1.0841 -0.3779  0.2742
 5801TIP3    H239039   6.651   6.730   6.892 -0.4335 -0.4020  0.4797
 5802TIP3   OH239040   5.535   1.848   1.054  0.1391 -0.4250 -0.6614
 5802TIP3    H139041   5.456   1.893   1.083 -0.6288 -0.7195 -2.1542
 5802TIP3    H239042   5.502   1.770   1.008  1.3635 -1.5074  0.2208
 5803TIP3   OH239043   6.950   1.770   1.554 -0.0161  0.1187  0.3492
 5803TIP3    H139044   6.983   1.683   1.578 -0.9661  0.0205  1.3533
 5803TIP3    H239045   7.013   1.801   1.489 -0.3079 -1.7952 -0.9343
 5804TIP3   OH239046   2.917   3.303   6.817 -0.4460 -0.1992  0.7691
 5804TIP3    H139047   2.985   3.235   6.817 -0.3864 -0.1400  0.8009
 5804TIP3    H239048   2.882   3.303   6.906  0.4482  0.6999  1.1336
 5805TIP3   OH239049   4.127   1.858   7.428  0.1565 -0.9948 -0.4306
 5805TIP3    H139050   4.054   1.843   7.368 -0.4812  0.2671  0.0081
 5805TIP3    H239051   4.196   1.895   7.373  0.3103 -1.7454 -0.7567
 5806TIP3   OH239052   6.947   5.690   1.821  0.1291 -0.0007  0.2950
 5806TIP3    H139053   7.011   5.745   1.777  0.0795  0.3069  0.6073
 5806TIP3    H239054   6.893   5.751   1.872  0.3992 -0.3887  1.0536
 5807TIP3   OH239055   3.577   5.325   7.200  0.2616  0.2015 -0.3195
 5807TIP3    H139056   3.651   5.384   7.214 -1.0082  1.7361  0.2229
 5807TIP3    H239057   3.504   5.367   7.245 -0.3809 -2.6161  1.5250
 5808TIP3   OH239058   5.513   1.289   2.606 -0.1325 -0.1024  0.3763
 5808TIP3    H139059   5.466   1.349   2.549 -0.2723 -0.1369  0.4545
 5808TIP3    H239060   5.606   1.304   2.586 -0.2146 -0.8441 -0.5997
 5809TIP3   OH239061   1.094   3.867   7.900 -0.0267  0.0991 -0.4412
 5809TIP3    H139062   1.107   3.835   7.989 -2.1112 -0.0678 -0.1367
 5809TIP3    H239063   1.098   3.788   7.846  2.6804  0.3579 -0.7555
 5810TIP3   OH239064   5.562   3.682   8.574  0.3474  0.2620  0.4746
 5810TIP3    H139065   5.574   3.639   8.489 -2.3565 -0.8922  0.5924
 5810TIP3    H239066   5.621   3.634   8.633 -0.6651 -1.6231  0.0482
 5811TIP3   OH239067   1.194   0.664   8.539 -0.7099 -0.1331 -0.2451
 5811TIP3    H139068   1.164   0.599   8.602  4.2707  0.4137  3.3122
 5811TIP3    H239069   1.270   0.624   8.496 -1.3840  1.1239 -2.8171
 5812TIP3   OH239070   6.101   4.935   7.690 -0.0242  0.0576  0.3812
 5812TIP3    H139071   6.129   4.901   7.605  0.5804  1.9310 -0.2308
 5812TIP3    H239072   6.173   4.992   7.718  0.4212 -1.5781  2.8604
 5813TIP3   OH239073   6.491   0.237   7.738 -0.1920 -0.4483 -0.1361
 5813TIP3    H139074   6.486   0.232   7.643  0.4185 -0.1285 -0.1935
 5813TIP3    H239075   6.580   0.267   7.756 -0.2103 -0.7623  0.5466
 5814TIP3   OH239076   6.561   2.032   0.031  0.1200 -0.3369 -0.0797
 5814TIP3    H139077   6.531   2.105   0.087 -0.9535 -0.2462 -0.7322
 5814TIP3    H239078   6.574   1.960   0.092  1.7954  0.5471  0.6674
 5815TIP3   OH239079   4.081   4.925   7.857 -0.5606  0.5135  0.3709
 5815TIP3    H139080   4.134   4.971   7.792 -1.1231 -0.3402 -0.7258
 5815TIP3    H239081   4.144   4.900   7.925  0.3372  0.0692 -0.5890
 5816TIP3   OH239082   1.506   1.527   8.503  0.7031  0.2858 -0.1615
 5816TIP3    H139083   1.566   1.596   8.475  0.4919  0.6877  0.3573
 5816TIP3    H239084   1.561   1.464   8.548  0.7169  0.7324  0.4542
 5817TIP3   OH239085   0.111   4.491   8.017 -0.2738 -0.4663 -0.5013
 5817TIP3    H139086   0.189   4.447   7.984  2.0473  1.2154  2.2359
 5817TIP3    H239087   0.050   4.421   8.037  1.6285 -2.1285 -0.2030
 5818TIP3   OH239088   5.274   3.773   0.234 -0.2467 -0.0827 -0.4988
 5818TIP3    H139089   5.225   3.721   0.171  1.2308  0.1035 -1.8685
 5818TIP3    H239090   5.292   3.855   0.189  0.9103  0.0264  0.1309
 5819TIP3   OH239091   1.246   2.127   2.315  0.0141  0.4796 -0.3824
 5819TIP3    H139092   1.248   2.221   2.330 -1.5072  0.3862  0.6871
 5819TIP3    H239093   1.211   2.090   2.396  1.3076 -1.1026 -0.4861
 5820TIP3   OH239094   2.137   5.924   0.585  0.2317  0.0425 -0.0926
 5820TIP3    H139095   2.145   5.927   0.680 -0.0812 -0.9688 -0.0230
 5820TIP3    H239096   2.204   5.984   0.553  1.5142 -0.9087  0.7165
 5821TIP3   OH239097   0.395   0.203   1.410  0.0036 -0.0419  0.1321
 5821TIP3    H139098   0.437   0.264   1.469  1.1704  1.7818 -2.3818
 5821TIP3    H239099   0.305   0.236   1.400 -0.1053 -0.1832  0.6134
 5822TIP3   OH239100   3.262   6.770   0.729  0.9900  0.2534  0.6784
 5822TIP3    H139101   3.334   6.709   0.716  2.0942  1.3263  1.4806
 5822TIP3    H239102   3.188   6.716   0.755  1.3672 -0.9186 -0.5777
 5823TIP3   OH239103   4.631   3.740   8.126  0.2014  0.0861 -0.6916
 5823TIP3    H139104   4.577   3.812   8.092 -0.1842 -0.1755 -0.6280
 5823TIP3    H239105   4.601   3.727   8.215  0.3731 -0.0586 -0.6539
 5824TIP3   OH239106   0.207   1.836   8.140 -0.6083 -0.1182 -0.4842
 5824TIP3    H139107   0.122   1.816   8.100 -0.8025  0.4044 -0.3360
 5824TIP3    H239108   0.187   1.854   8.232 -0.1871 -1.1438 -0.1759
 5825TIP3   OH239109   1.422   6.200   8.295  0.1129 -0.4145 -0.2634
 5825TIP3    H139110   1.516   6.187   8.309  0.1147  0.0040  0.1541
 5825TIP3    H239111   1.387   6.113   8.279  0.5351 -0.6030 -0.1649
 5826TIP3   OH239112   4.357   6.261   2.288  0.7354 -0.1466 -0.0616
 5826TIP3    H139113   4.303   6.326   2.243  1.9610  1.2308  0.4034
 5826TIP3    H239114   4.310   6.178   2.274 -0.6312  0.7411 -1.0408
 5827TIP3   OH239115   0.611   3.382   7.902 -0.0933  0.1602  0.3670
 5827TIP3    H139116   0.601   3.463   7.851 -3.1313 -0.3904 -0.0653
 5827TIP3    H239117   0.639   3.317   7.838  0.3409  0.3893  0.3134
 5828TIP3   OH239118   0.056   2.101   2.494 -0.3502  0.5694  0.1993
 5828TIP3    H139119   0.085   2.176   2.443 -0.7166  0.0041 -0.8736
 5828TIP3    H239120   0.137   2.052   2.511 -0.2316  0.7280  0.0961
 5829TIP3   OH239121   5.128   2.522   7.891 -0.2995  0.4954  0.5970
 5829TIP3    H139122   5.095   2.611   7.891  0.9272  0.9649  0.5052
 5829TIP3    H239123   5.157   2.506   7.801 -0.2834  0.0943  0.6680
 5830TIP3   OH239124   6.915   5.596   7.714  0.3979  0.1600 -0.3953
 5830TIP3    H139125   6.956   5.650   7.782 -1.0432 -0.9471  1.4518
 5830TIP3    H239126   6.974   5.521   7.704 -0.2419 -0.5790  1.0212
 5831TIP3   OH239127   3.593   3.761   1.198 -0.3654 -0.4451 -0.2888
 5831TIP3    H139128   3.613   3.822   1.269  0.4114 -0.1986 -0.7125
 5831TIP3    H239129   3.595   3.675   1.240  0.3299 -0.3227 -0.0493
 5832TIP3   OH239130   5.333   3.144   7.091 -0.8721 -0.7279 -0.3990
 5832TIP3    H139131   5.264   3.206   7.113  0.2386  0.2867  0.3854
 5832TIP3    H239132   5.356   3.104   7.175  0.4635  0.0115 -0.3877
 5833TIP3   OH239133   1.454   1.050   0.065 -0.2906 -0.1735 -0.0167
 5833TIP3    H139134   1.392   1.041   0.138 -0.6443  1.0346 -0.1420
 5833TIP3    H239135   1.404   1.097  -0.002  1.0124  1.6517  0.2300
 5834TIP3   OH239136   5.453   2.823   8.511 -0.1239  0.0968  0.0994
 5834TIP3    H139137   5.525   2.760   8.507  0.1130  0.3036  0.8991
 5834TIP3    H239138   5.374   2.770   8.496  0.2089 -0.0503 -1.2839
 5835TIP3   OH239139   0.516   3.897   1.783  0.1701  0.3616  0.0865
 5835TIP3    H139140   0.463   3.859   1.713  0.3482  0.6020 -0.1835
 5835TIP3    H239141   0.457   3.900   1.859 -0.1626  0.4980 -0.1722
 5836TIP3   OH239142   2.823   2.249   0.274 -0.8654  0.1677 -0.1383
 5836TIP3    H139143   2.861   2.164   0.250 -1.2789  0.3229 -1.3884
 5836TIP3    H239144   2.742   2.227   0.320  0.4679 -0.1593  2.2392
 5837TIP3   OH239145   3.087   1.360   1.520  0.0512  0.0606  0.0322
 5837TIP3    H139146   3.048   1.280   1.484  0.8370  0.4604 -1.8634
 5837TIP3    H239147   3.180   1.340   1.527  0.3018  0.8704 -0.7393
 5838TIP3   OH239148   1.905   3.045   1.180  0.4679 -0.0998 -0.0137
 5838TIP3    H139149   1.956   3.120   1.147 -1.5570  1.8260  0.9913
 5838TIP3    H239150   1.858   3.079   1.255 -1.1949 -2.1870 -0.0059
 5839TIP3   OH239151   1.318   5.935   7.758  0.0288 -0.5282 -0.3750
 5839TIP3    H139152   1.349   5.983   7.835 -1.5733 -0.4491  0.2658
 5839TIP3    H239153   1.316   5.844   7.786  0.3948 -0.6277 -0.6666
 5840TIP3   OH239154   4.538   5.316   7.412 -0.1875  0.4502  0.1984
 5840TIP3    H139155   4.456   5.291   7.455 -1.0107  0.3357 -1.3834
 5840TIP3    H239156   4.553   5.248   7.346  2.1827 -0.5606  1.6501
 5841TIP3   OH239157   2.943   2.839   2.072  0.7826  0.0918 -0.6138
 5841TIP3    H139158   2.919   2.904   2.006  4.1978  2.3792  0.1226
 5841TIP3    H239159   2.909   2.874   2.154  2.8451  1.2348 -0.1764
 5842TIP3   OH239160   3.865   0.347   2.382 -0.3983  0.2484  0.0378
 5842TIP3    H139161   3.894   0.280   2.321 -1.1178 -0.9920  1.0068
 5842TIP3    H239162   3.786   0.311   2.422 -0.5424  1.4791  0.9238
 5843TIP3   OH239163   4.549   1.121   8.095 -0.4403  0.0782 -0.3203
 5843TIP3    H139164   4.551   1.039   8.145  0.3810  0.6736  0.6405
 5843TIP3    H239165   4.636   1.158   8.105 -0.8349  1.1331 -0.6738
 5844TIP3   OH239166   0.749   1.168   0.555 -0.1123  0.3548 -0.3173
 5844TIP3    H139167   0.754   1.090   0.500 -0.5010 -0.2256  0.4540
 5844TIP3    H239168   0.664   1.207   0.534 -0.7099 -0.4281  0.5970
 5845TIP3   OH239169   0.484   4.627   1.981  0.1341 -0.9394 -0.5602
 5845TIP3    H139170   0.553   4.592   2.038  1.4290  2.6642  0.3822
 5845TIP3    H239171   0.403   4.614   2.032  1.0159  0.4451  1.3364
 5846TIP3   OH239172   3.159   3.366   2.046 -0.0909  0.1372  0.5570
 5846TIP3    H139173   3.134   3.430   1.979 -0.3173  0.4392  0.9245
 5846TIP3    H239174   3.120   3.284   2.015 -1.6564  0.6126  1.1548
 5847TIP3   OH239175   3.714   6.420   1.609  0.3749 -0.5671 -0.9961
 5847TIP3    H139176   3.670   6.335   1.604 -0.5577 -0.0746 -1.4060
 5847TIP3    H239177   3.687   6.466   1.530 -0.5246  0.7456  0.0191
 5848TIP3   OH239178   1.456   2.925   0.036 -0.0811 -0.0338 -0.1633
 5848TIP3    H139179   1.462   2.923   0.132  1.1866 -2.6526 -0.2118
 5848TIP3    H239180   1.362   2.930   0.019 -0.2770  2.5424  1.1321
 5849TIP3   OH239181   6.903   4.457   0.780  0.2607  0.4752 -0.5654
 5849TIP3    H139182   6.975   4.403   0.812  0.6123 -0.3849 -2.6698
 5849TIP3    H239183   6.873   4.505   0.857  0.6450 -1.8980  1.1773
 5850TIP3   OH239184   1.210   1.931   8.329 -0.4050 -0.5010 -0.6132
 5850TIP3    H139185   1.240   1.856   8.380 -2.4218 -1.3939 -0.6410
 5850TIP3    H239186   1.241   2.008   8.378  0.6464 -1.3390  0.0663
 5851TIP3   OH239187   4.444   6.276   0.458  0.5590  0.0524  0.5677
 5851TIP3    H139188   4.443   6.222   0.379  1.6187 -0.3942  0.8392
 5851TIP3    H239189   4.537   6.287   0.479  0.3012  0.0625  1.8203
 5852TIP3   OH239190   2.971   0.414   2.714  0.7167  0.4168 -0.0455
 5852TIP3    H139191   2.942   0.360   2.787 -0.0694 -0.8998 -1.2664
 5852TIP3    H239192   3.064   0.396   2.706  0.4012 -1.0844 -0.6534
 5853TIP3   OH239193   0.261   1.602   7.906 -0.0951  0.3251  0.0699
 5853TIP3    H139194   0.230   1.575   7.819  1.2504 -0.4679 -0.2081
 5853TIP3    H239195   0.188   1.583   7.965 -0.5642 -0.3707 -0.7081
 5854TIP3   OH239196   4.474   5.467   7.660 -0.3546  0.3586  0.3392
 5854TIP3    H139197   4.396   5.523   7.654  0.5042  1.5034 -0.7380
 5854TIP3    H239198   4.497   5.448   7.569 -0.2801 -1.3036  0.6719
 5855TIP3   OH239199   0.166   5.973   0.405 -0.0748 -0.3902  0.8397
 5855TIP3    H139200   0.137   5.990   0.494 -0.1840 -1.9226  1.1338
 5855TIP3    H239201   0.259   5.996   0.405 -0.3765  0.8840  0.9622
 5856TIP3   OH239202   1.245   6.497   1.038 -0.5751 -0.3285  0.1528
 5856TIP3    H139203   1.184   6.485   0.966 -1.5716 -2.1727  1.2393
 5856TIP3    H239204   1.330   6.510   0.996 -1.3696  0.2163 -1.3415
 5857TIP3   OH239205   3.781   2.764   7.984  0.3875 -0.1358  0.0600
 5857TIP3    H139206   3.810   2.691   7.929 -2.3438 -2.6074  1.6372
 5857TIP3    H239207   3.790   2.732   8.074 -0.3720  1.7000  0.8560
 5858TIP3   OH239208   6.486   1.576   1.436  0.2066  0.2019 -0.1470
 5858TIP3    H139209   6.522   1.602   1.351 -0.4503  2.0242  0.0914
 5858TIP3    H239210   6.547   1.613   1.500 -0.9493  1.5348  0.2162
 5859TIP3   OH239211   3.127   2.195   0.825 -0.3434 -0.4979  0.4530
 5859TIP3    H139212   3.054   2.145   0.788 -1.1126  0.2645  0.9121
 5859TIP3    H239213   3.087   2.252   0.890  0.4811  0.8337 -0.1551
 5860TIP3   OH239214   5.738   5.140   8.084 -0.2076 -0.7806 -0.4467
 5860TIP3    H139215   5.741   5.089   8.166  0.5704 -0.8943 -0.5413
 5860TIP3    H239216   5.807   5.102   8.030  0.1968  0.1834 -0.6308
 5861TIP3   OH239217   5.508   2.470   0.864  0.5516  0.4438  0.2027
 5861TIP3    H139218   5.437   2.418   0.900  0.9971  0.4781  1.1747
 5861TIP3    H239219   5.539   2.523   0.937 -0.1797  2.4344 -0.8573
 5862TIP3   OH239220   3.445   2.435   1.612  0.5342 -0.2765 -0.3848
 5862TIP3    H139221   3.444   2.452   1.518  1.4529 -1.8717 -0.7225
 5862TIP3    H239222   3.358   2.461   1.642  0.5957  1.2727 -1.4688
 5863TIP3   OH239223   2.435   1.454   2.174  0.1518  0.0546  0.5133
 5863TIP3    H139224   2.419   1.487   2.262  3.0640 -0.5662  1.4137
 5863TIP3    H239225   2.400   1.365   2.176 -3.3869  1.2830 -0.3681
 5864TIP3   OH239226   4.199   1.959   2.834  0.1005 -0.2600 -0.0500
 5864TIP3    H139227   4.116   2.004   2.817  0.0766 -0.7056 -1.1606
 5864TIP3    H239228   4.264   2.030   2.836  0.1105 -0.1562 -2.0936
 5865TIP3   OH239229   6.559   5.055   2.052 -0.1962 -0.1592 -0.1385
 5865TIP3    H139230   6.554   4.962   2.069  0.7202 -0.0788  0.6300
 5865TIP3    H239231   6.567   5.096   2.138  1.9888  0.4279 -0.5568
 5866TIP3   OH239232   4.433   0.953   7.511  0.1991 -0.0678 -0.0801
 5866TIP3    H139233   4.484   0.964   7.431  1.8441 -2.7518  0.4890
 5866TIP3    H239234   4.486   0.994   7.579  0.4075 -0.6525  0.1174
 5867TIP3   OH239235   0.450   2.133   7.430  0.2831  0.4808 -0.1110
 5867TIP3    H139236   0.486   2.083   7.504  0.5395 -1.5115 -1.5072
 5867TIP3    H239237   0.495   2.098   7.353 -2.7301 -0.3249 -1.6595
 5868TIP3   OH239238   2.720   4.623   8.433  0.1023 -0.0486  0.0876
 5868TIP3    H139239   2.789   4.558   8.422 -0.6137 -0.6127 -1.2530
 5868TIP3    H239240   2.652   4.578   8.482 -0.2016 -0.1576 -0.4368
 5869TIP3   OH239241   4.587   1.066   1.978 -0.4379 -0.2422 -0.7831
 5869TIP3    H139242   4.576   0.987   2.031 -0.4704  0.3923  0.1987
 5869TIP3    H239243   4.594   1.034   1.888  1.5828 -1.5259 -0.2429
 5870TIP3   OH239244   2.635   0.494   8.399 -0.2072 -0.0004  0.2817
 5870TIP3    H139245   2.542   0.488   8.377 -0.1657  0.7927 -0.1186
 5870TIP3    H239246   2.669   0.405   8.385 -0.5009  0.1285 -1.4536
 5871TIP3   OH239247   6.849   1.568   7.436  0.0606  0.4388 -0.2130
 5871TIP3    H139248   6.938   1.552   7.405  0.7368 -3.4558  2.9093
 5871TIP3    H239249   6.803   1.485   7.420 -2.4121  1.6303  0.1809
 5872TIP3   OH239250   2.960   4.224   6.915  0.2490 -0.1372  0.2893
 5872TIP3    H139251   2.970   4.316   6.890  3.7744 -0.1006  1.2393
 5872TIP3    H239252   2.871   4.201   6.888 -1.0297  3.7061  0.6789
 5873TIP3   OH239253   4.172   3.853   1.299  0.1876  0.3459 -0.0198
 5873TIP3    H139254   4.171   3.919   1.368  0.5620  1.1779 -0.7825
 5873TIP3    H239255   4.087   3.810   1.305 -0.0730  0.9178  0.4719
 5874TIP3   OH239256   4.184   4.818   0.959  0.0235 -0.5601 -0.0286
 5874TIP3    H139257   4.203   4.811   1.052  0.9611  0.9553 -0.0723
 5874TIP3    H239258   4.144   4.734   0.936  1.1471 -1.5391  1.4118
 5875TIP3   OH239259   0.928   5.238   0.709  0.6893 -0.4688  0.3204
 5875TIP3    H139260   0.909   5.164   0.766  1.9594 -2.0440 -1.1594
 5875TIP3    H239261   1.015   5.218   0.673 -0.1456  0.2715 -2.3298
 5876TIP3   OH239262   0.260   1.387   8.125  0.3275 -0.0543 -0.1152
 5876TIP3    H139263   0.251   1.391   8.030 -2.2040  2.4132  0.0862
 5876TIP3    H239264   0.215   1.306   8.150 -3.8646  1.7692 -0.8344
 5877TIP3   OH239265   4.473   4.236   0.560 -0.4956 -0.1949 -0.4988
 5877TIP3    H139266   4.459   4.321   0.519  0.1545  0.7743  1.1595
 5877TIP3    H239267   4.449   4.172   0.494 -3.2346  1.2742 -1.0342
 5878TIP3   OH239268   0.008   0.458   8.238 -0.5450 -1.1658 -0.8735
 5878TIP3    H139269  -0.068   0.478   8.293  1.3206  1.4039  1.0379
 5878TIP3    H239270   0.063   0.403   8.293  0.7495  0.3432 -0.5810
 5879TIP3   OH239271   1.982   5.117   7.618  0.7021  0.2249  0.0457
 5879TIP3    H139272   1.981   5.033   7.572 -0.3486 -1.4779  2.8752
 5879TIP3    H239273   2.059   5.162   7.584  0.9917 -1.6001 -2.0009
 5880TIP3   OH239274   3.897   6.446   1.823  0.1933 -0.1300 -0.0648
 5880TIP3    H139275   3.847   6.432   1.743 -0.3315  2.1590 -0.2094
 5880TIP3    H239276   3.988   6.428   1.798 -0.2399 -2.0365 -0.4146
 5881TIP3   OH239277   5.661   3.074   1.708 -0.3860 -0.5458  0.7070
 5881TIP3    H139278   5.705   3.068   1.793 -1.0625 -0.6273  1.0612
 5881TIP3    H239279   5.569   3.091   1.730 -0.6910 -1.2526  0.0094
 5882TIP3   OH239280   5.730   4.184   7.665 -0.7717  0.3551  0.3861
 5882TIP3    H139281   5.716   4.114   7.728 -0.3879  0.0121  0.0978
 5882TIP3    H239282   5.658   4.175   7.603 -0.4935 -0.0523  0.1154
 5883TIP3   OH239283   4.185   2.888   8.155  0.0846  0.1254 -0.3314
 5883TIP3    H139284   4.205   2.973   8.195 -0.4181  0.8939 -1.6614
 5883TIP3    H239285   4.128   2.909   8.081 -1.3207 -1.5217  0.2233
 5884TIP3   OH239286   0.530   1.284   7.589  0.1924  1.1990 -0.3383
 5884TIP3    H139287   0.520   1.318   7.678 -1.2916  0.1204 -0.0427
 5884TIP3    H239288   0.495   1.353   7.533 -3.3022  0.1441  0.2804
 5885TIP3   OH239289   0.352   5.528   7.947 -0.1281  0.0792 -0.0609
 5885TIP3    H139290   0.303   5.607   7.924 -0.3147 -0.0651 -0.1633
 5885TIP3    H239291   0.374   5.538   8.039 -0.5444  0.0424  0.0433
 5886TIP3   OH239292   4.451   2.885   2.100  0.2320  0.2829 -0.4106
 5886TIP3    H139293   4.369   2.898   2.146 -0.5675 -0.2668 -1.6232
 5886TIP3    H239294   4.499   2.967   2.112 -0.5968  0.6991  0.1138
 5887TIP3   OH239295   3.539   6.022   0.145  0.2745  0.1866  0.1048
 5887TIP3    H139296   3.488   6.081   0.090 -0.0938  0.3214  0.5766
 5887TIP3    H239297   3.556   6.073   0.225 -1.3882 -0.8298  1.1863
 5888TIP3   OH239298   6.131   1.248   0.140 -0.2370  0.1456  0.0046
 5888TIP3    H139299   6.059   1.185   0.133  1.1957 -1.4677 -1.1269
 5888TIP3    H239300   6.165   1.235   0.229 -0.7781  0.2727  0.2328
 5889TIP3   OH239301   4.625   4.363   7.331  0.3356  0.4091  0.1393
 5889TIP3    H139302   4.661   4.388   7.416 -0.7278 -2.6753  1.6495
 5889TIP3    H239303   4.586   4.277   7.346 -1.3419  0.4531 -3.1181
 5890TIP3   OH239304   4.375   5.293   8.357 -0.2029  0.1645 -0.5035
 5890TIP3    H139305   4.392   5.335   8.442  0.9698  0.7443 -0.9970
 5890TIP3    H239306   4.285   5.261   8.364 -0.0915  0.0663  1.0169
 5891TIP3   OH239307   3.086   0.974   7.553  0.0092 -0.7517  0.1102
 5891TIP3    H139308   3.086   1.004   7.644 -1.9328 -1.8636  0.5640
 5891TIP3    H239309   3.100   1.052   7.501  0.1600  0.0738  1.3503
 5892TIP3   OH239310   1.427   5.890   0.844  0.2640  0.3429  0.1169
 5892TIP3    H139311   1.441   5.981   0.872  0.4090  1.1469 -2.3461
 5892TIP3    H239312   1.498   5.841   0.885 -0.4243  1.0853  2.3570
 5893TIP3   OH239313   5.837   1.458   7.516 -0.6491 -0.3113 -0.7606
 5893TIP3    H139314   5.830   1.393   7.446  0.2678 -1.7158  0.3916
 5893TIP3    H239315   5.833   1.407   7.597  2.0433  0.8112  0.1839
 5894TIP3   OH239316   0.005   1.929   0.188 -0.0596  0.2262  0.1574
 5894TIP3    H139317   0.049   1.999   0.139  0.1390 -0.0255 -0.0268
 5894TIP3    H239318   0.032   1.943   0.279 -0.9480  1.0850  0.3032
 5895TIP3   OH239319   4.548   5.747   6.529  0.0383 -0.0183  0.2737
 5895TIP3    H139320   4.578   5.826   6.483  0.5687 -0.9214 -0.9821
 5895TIP3    H239321   4.521   5.779   6.615 -0.1158  1.5966 -0.3273
 5896TIP3   OH239322   2.695   2.233   8.323  0.3162 -0.1159  0.1969
 5896TIP3    H139323   2.680   2.281   8.405 -0.7093  0.3961 -0.2768
 5896TIP3    H239324   2.613   2.188   8.306  0.8246 -0.9654 -0.0882
 5897TIP3   OH239325   5.623   6.284   6.947 -0.4190 -0.0739 -0.3086
 5897TIP3    H139326   5.638   6.376   6.927  0.5027  0.0766  0.9697
 5897TIP3    H239327   5.710   6.249   6.968 -0.9728 -0.8073  0.8954
 5898TIP3   OH239328   5.515   0.441   0.096  0.1107  0.2175  1.1063
 5898TIP3    H139329   5.427   0.405   0.109  1.2630 -3.0438  0.8913
 5898TIP3    H239330   5.508   0.496   0.018 -1.8420  0.5947  1.4973
 5899TIP3   OH239331   1.601   4.206   6.837 -0.9392 -0.0449  0.1011
 5899TIP3    H139332   1.657   4.284   6.842 -0.2835 -0.5116  0.0962
 5899TIP3    H239333   1.514   4.238   6.862 -0.6261  0.6393  0.3465
 5900TIP3   OH239334   5.884   3.208   7.081  0.3464 -0.3095 -0.3782
 5900TIP3    H139335   5.880   3.169   7.168 -0.9602  2.0134  0.6792
 5900TIP3    H239336   5.976   3.231   7.068  0.5979 -0.9461  0.2418
 5901TIP3   OH239337   2.585   6.057   1.089 -0.0093  0.3478 -0.3652
 5901TIP3    H139338   2.651   6.118   1.055 -0.6482  0.5129 -1.3510
 5901TIP3    H239339   2.543   6.021   1.011 -1.5023  0.7085  0.2307
 5902TIP3   OH239340   0.238   4.136   7.835 -0.0960 -0.1959  0.7215
 5902TIP3    H139341   0.213   4.045   7.822  1.1718 -0.6996  1.5587
 5902TIP3    H239342   0.330   4.139   7.810  0.2618  0.5152  1.9982
 5903TIP3   OH239343   6.542   6.646   8.526  0.4507 -0.1252  0.2815
 5903TIP3    H139344   6.613   6.588   8.498 -1.4342 -2.9413  0.9377
 5903TIP3    H239345   6.489   6.659   8.447 -1.1021 -2.4406  0.8270
 5904TIP3   OH239346   3.996   0.308   2.064  0.4792 -0.3097  0.2694
 5904TIP3    H139347   4.054   0.380   2.088  1.5552 -0.8064 -0.7874
 5904TIP3    H239348   4.050   0.250   2.011 -1.3374 -0.1211 -1.8965
 5905TIP3   OH239349   6.474   3.410   7.310 -1.2168 -0.4147  0.0289
 5905TIP3    H139350   6.446   3.365   7.389 -0.3291 -1.7591 -0.3857
 5905TIP3    H239351   6.543   3.471   7.340 -1.0297 -0.7694  0.3215
 5906TIP3   OH239352   5.931   4.005   7.028  0.3117 -0.4371  0.0872
 5906TIP3    H139353   5.994   4.057   6.978 -0.9491 -1.3405 -2.6390
 5906TIP3    H239354   5.972   3.919   7.038  0.5787 -0.2460  0.6686
 5907TIP3   OH239355   1.538   3.779   8.459 -0.1198 -0.0332 -0.5102
 5907TIP3    H139356   1.538   3.804   8.552 -0.2234 -0.4592 -0.3949
 5907TIP3    H239357   1.448   3.791   8.430 -0.6386 -2.0987  0.0527
 5908TIP3   OH239358   4.944   3.070   6.921  0.2114  1.1012  0.2020
 5908TIP3    H139359   4.938   3.161   6.891 -0.4549  0.7453 -0.8090
 5908TIP3    H239360   5.029   3.040   6.890  0.1139  1.1615 -0.1306
 5909TIP3   OH239361   6.659   4.213   8.062  0.0953  0.1435  0.1926
 5909TIP3    H139362   6.581   4.166   8.033  0.9517 -0.9208 -0.4789
 5909TIP3    H239363   6.730   4.178   8.007  0.9897  1.3198  0.5535
 5910TIP3   OH239364   2.846   4.213   6.121 -0.0963  0.0396 -0.6419
 5910TIP3    H139365   2.897   4.165   6.187  0.2742  0.9446 -0.2449
 5910TIP3    H239366   2.756   4.207   6.152  0.0892  0.5762  0.0462
 5911TIP3   OH239367   3.047   2.950   7.329 -0.1671 -0.5547 -0.4257
 5911TIP3    H139368   3.114   3.018   7.320  1.0629 -1.6827 -0.0254
 5911TIP3    H239369   3.094   2.873   7.360 -1.6508 -1.4029 -0.1736
 5912TIP3   OH239370   3.623   4.063   0.430 -0.0751  0.0038 -0.2398
 5912TIP3    H139371   3.585   4.151   0.428 -0.7622 -0.3075 -1.6042
 5912TIP3    H239372   3.590   4.020   0.351 -0.2323 -1.6912  0.6930
 5913TIP3   OH239373   2.996   6.530   6.792  0.2105 -0.0399 -0.1720
 5913TIP3    H139374   2.999   6.623   6.813  1.4581  0.0615 -0.7182
 5913TIP3    H239375   3.043   6.487   6.863  0.4119 -0.1591 -0.3755
 5914TIP3   OH239376   1.331   2.432   8.356  0.0596  0.1361  0.2539
 5914TIP3    H139377   1.408   2.479   8.387 -0.0771  0.4086  0.1835
 5914TIP3    H239378   1.259   2.493   8.370 -0.1236 -0.0662  0.1920
 5915TIP3   OH239379   1.095   6.899   0.833 -0.1869 -0.1341 -0.6733
 5915TIP3    H139380   1.097   6.992   0.809 -1.0286  0.1628  0.3307
 5915TIP3    H239381   1.185   6.869   0.820  0.1060  0.8307 -0.9573
 5916TIP3   OH239382   6.570   4.582   7.588  0.5554  0.1086  0.3792
 5916TIP3    H139383   6.498   4.645   7.583 -0.9037 -1.5704 -1.6427
 5916TIP3    H239384   6.542   4.520   7.656  0.8318  0.2787  0.6509
 5917TIP3   OH239385   1.320   5.079   8.495  0.9662  0.1807  0.0006
 5917TIP3    H139386   1.281   5.148   8.549  0.1164 -0.4297  0.1909
 5917TIP3    H239387   1.342   5.122   8.413  1.1540  0.8486  0.3928
 5918TIP3   OH239388   6.382   6.407   7.402  0.6186  0.5521  0.5443
 5918TIP3    H139389   6.442   6.336   7.377 -1.0029 -0.3677 -0.9593
 5918TIP3    H239390   6.378   6.463   7.325  0.3066  1.1669  1.0034
 5919TIP3   OH239391   1.631   6.349   0.914  0.4315  0.7526  0.4144
 5919TIP3    H139392   1.615   6.309   0.829 -0.9846  0.0247  0.9849
 5919TIP3    H239393   1.698   6.415   0.898 -0.5798  1.3808 -1.4738
 5920TIP3   OH239394   3.001   3.898   2.397  0.9936  0.1017 -0.1320
 5920TIP3    H139395   2.927   3.850   2.435  1.7417 -0.3778  0.7675
 5920TIP3    H239396   2.986   3.989   2.421 -1.1189  0.6499 -2.9286
 5921TIP3   OH239397   0.256   3.023   7.165  0.6263 -0.1078  0.1365
 5921TIP3    H139398   0.247   3.033   7.259 -0.5055 -1.6731  0.2398
 5921TIP3    H239399   0.350   3.029   7.149  0.9990 -1.4774  1.5967
 5922TIP3   OH239400   1.402   4.013   7.672  0.1634 -0.3391 -0.7588
 5922TIP3    H139401   1.391   4.059   7.589  1.5338 -1.4987 -1.6397
 5922TIP3    H239402   1.343   4.057   7.732 -0.0108  1.2826 -2.0497
 5923TIP3   OH239403   1.800   1.473   7.532 -0.0808 -0.1890  0.3814
 5923TIP3    H139404   1.878   1.452   7.482 -0.1144 -0.2496  0.3543
 5923TIP3    H239405   1.833   1.516   7.611  0.0183 -0.7719  0.6651
 5924TIP3   OH239406   3.464   6.040   8.070 -0.1929 -0.7670 -0.1512
 5924TIP3    H139407   3.422   6.116   8.109 -1.3128  0.0587 -2.7317
 5924TIP3    H239408   3.422   5.965   8.112 -0.1687  0.0271  1.3415
 5925TIP3   OH239409   6.238   6.741   1.980  0.2172 -0.2977 -0.0893
 5925TIP3    H139410   6.291   6.819   1.994  0.0224  0.2609 -2.1524
 5925TIP3    H239411   6.285   6.671   2.026  0.7807  0.8571  1.1616
 5926TIP3   OH239412   5.813   5.031   6.918 -0.3807 -0.0371  0.2007
 5926TIP3    H139413   5.823   4.992   6.831 -0.2286 -0.8351  0.5637
 5926TIP3    H239414   5.899   5.068   6.937 -0.7639  1.2678 -0.5048
 5927TIP3   OH239415   2.426   0.461   8.146 -0.0279  0.0950  0.0753
 5927TIP3    H139416   2.400   0.382   8.195  1.4034 -1.2480 -1.2076
 5927TIP3    H239417   2.347   0.514   8.144 -0.5722 -0.5143  2.4326
 5928TIP3   OH239418   0.359   1.744   1.774  0.3351 -0.5985  0.8462
 5928TIP3    H139419   0.441   1.735   1.726  0.1442 -0.8188  0.5574
 5928TIP3    H239420   0.293   1.707   1.716 -0.0980  0.3475  0.7172
 5929TIP3   OH239421   2.345   1.646   0.113  0.4879 -0.8973  0.3123
 5929TIP3    H139422   2.440   1.634   0.107  0.7373  0.2590  1.4146
 5929TIP3    H239423   2.327   1.721   0.057  0.3358 -0.7074  0.6126
 5930TIP3   OH239424   0.149   2.297   0.311 -0.1666 -0.2783 -0.0675
 5930TIP3    H139425   0.055   2.280   0.312 -0.3390  0.5906 -0.6400
 5930TIP3    H239426   0.167   2.328   0.222  0.3821  1.0418  0.4839
 5931TIP3   OH239427   4.341   1.207   7.233  0.8795 -0.3297  0.2285
 5931TIP3    H139428   4.422   1.166   7.265 -0.3058 -2.1471  1.0135
 5931TIP3    H239429   4.315   1.155   7.158 -0.2276 -0.5449  0.7462
 5932TIP3   OH239430   3.672   3.528   0.336  0.0237 -0.1990 -0.3164
 5932TIP3    H139431   3.713   3.540   0.421  1.4978 -0.4840 -0.9458
 5932TIP3    H239432   3.659   3.617   0.303  0.6468 -0.1053 -0.3247
 5933TIP3   OH239433   3.272   3.683   6.485 -0.4514 -0.0087 -0.0703
 5933TIP3    H139434   3.309   3.766   6.454 -0.2320 -0.0025  0.2032
 5933TIP3    H239435   3.287   3.622   6.414  1.4108 -0.3839  0.5864
 5934TIP3   OH239436   3.997   1.265   7.075  0.0227  0.3482  0.1304
 5934TIP3    H139437   3.906   1.258   7.107  0.0951  0.7890  0.4540
 5934TIP3    H239438   4.005   1.196   7.010 -0.5081  0.2152  0.1979
 5935TIP3   OH239439   1.485   1.635   7.833  0.5593 -0.1264  0.0449
 5935TIP3    H139440   1.474   1.598   7.920  1.6879  0.3405  0.3985
 5935TIP3    H239441   1.546   1.708   7.845 -0.1032  0.6210 -0.9554
 5936TIP3   OH239442   0.246   4.829   0.968  0.2945  0.2555  0.1978
 5936TIP3    H139443   0.225   4.798   1.056  1.7353  1.3497  0.9744
 5936TIP3    H239444   0.315   4.894   0.982  0.0665  0.9461 -1.6964
 5937TIP3   OH239445   3.172   5.301   7.043  0.2157 -0.2641  0.3682
 5937TIP3    H139446   3.174   5.388   7.004 -0.6501 -1.0030 -1.4537
 5937TIP3    H239447   3.103   5.255   6.995  1.6737 -2.4311  0.2100
 5938TIP3   OH239448   5.720   2.758   0.632 -0.6096  0.5052 -0.6059
 5938TIP3    H139449   5.737   2.757   0.538  0.4777  0.8166 -0.4328
 5938TIP3    H239450   5.647   2.819   0.643  0.5750  2.0880 -1.0743
 5939TIP3   OH239451   0.252   1.178   0.558  0.2674 -0.1884 -0.0468
 5939TIP3    H139452   0.309   1.141   0.490  1.4793 -1.9627  1.8479
 5939TIP3    H239453   0.277   1.271   0.562  1.5290 -0.4764 -0.6844
 5940TIP3   OH239454   3.459   1.922   1.095 -0.2493  0.2336  0.0425
 5940TIP3    H139455   3.418   1.968   1.168 -0.8537 -0.1776 -0.0323
 5940TIP3    H239456   3.411   1.950   1.017  0.3874  0.6649 -0.2055
 5941TIP3   OH239457   4.840   5.317   6.533  0.0010  0.1220 -0.3371
 5941TIP3    H139458   4.878   5.242   6.578 -1.0695 -0.2906 -0.1023
 5941TIP3    H239459   4.907   5.386   6.540 -0.3316  0.2773  2.4186
 5942TIP3   OH239460   3.089   6.041   2.550 -0.0530 -0.0271  0.4273
 5942TIP3    H139461   3.131   6.057   2.466 -0.9570 -0.1593 -0.0543
 5942TIP3    H239462   3.160   6.013   2.607  0.2315 -2.1852 -0.8830
 5943TIP3   OH239463   4.520   2.202   7.783 -0.4938  0.0828 -0.2085
 5943TIP3    H139464   4.513   2.286   7.739  0.9495  0.1582 -0.3342
 5943TIP3    H239465   4.495   2.138   7.717 -2.4387  0.4212  0.1327
 5944TIP3   OH239466   6.743   1.719   7.655 -0.5202  0.2034 -0.0716
 5944TIP3    H139467   6.750   1.655   7.584  0.2405  0.3479 -0.1303
 5944TIP3    H239468   6.670   1.687   7.708  0.2309 -1.0683  0.2441
 5945TIP3   OH239469   2.157   1.933   0.153 -0.9312  0.3526  0.4197
 5945TIP3    H139470   2.165   1.902   0.062 -0.3114 -0.9607  0.8957
 5945TIP3    H239471   2.114   1.860   0.199 -0.4626  0.6538  1.3591
 5946TIP3   OH239472   0.412   3.582   7.027 -0.0187 -0.0847  0.2310
 5946TIP3    H139473   0.492   3.550   7.069  0.2273  0.3028  0.0726
 5946TIP3    H239474   0.440   3.661   6.981  0.2259 -1.6304 -2.5023
 5947TIP3   OH239475   2.622   4.019   0.801 -0.9594  0.1357 -0.2204
 5947TIP3    H139476   2.630   3.928   0.829  1.9203 -0.1947 -1.7906
 5947TIP3    H239477   2.656   4.070   0.875  0.6160 -0.3291 -0.5867
 5948TIP3   OH239478   4.543   1.497   0.734  0.1032 -0.4122  0.5753
 5948TIP3    H139479   4.492   1.417   0.720  0.6997 -0.9961  1.6177
 5948TIP3    H239480   4.495   1.565   0.687 -0.6876 -1.2836  0.0938
 5949TIP3   OH239481   5.670   3.433   1.809 -0.0804  0.4120 -0.3598
 5949TIP3    H139482   5.667   3.525   1.782 -0.2691  0.5283  0.0525
 5949TIP3    H239483   5.763   3.409   1.801 -0.2746  0.0886 -2.2630
 5950TIP3   OH239484   2.546   2.724   0.056 -0.0501 -0.0654 -0.1118
 5950TIP3    H139485   2.636   2.716   0.025 -0.4110  0.7474 -1.4230
 5950TIP3    H239486   2.547   2.801   0.112  0.2811 -0.6903  0.7784
 5951TIP3   OH239487   6.576   6.498   2.505  0.2590 -0.2517 -0.3012
 5951TIP3    H139488   6.504   6.469   2.449 -0.0158 -1.7720  0.7508
 5951TIP3    H239489   6.580   6.593   2.493 -0.9903 -0.3120 -1.4462
 5952TIP3   OH239490   4.197   5.432   6.712  0.0025 -0.2723  0.0295
 5952TIP3    H139491   4.257   5.363   6.740 -1.4032 -1.0665  1.2341
 5952TIP3    H239492   4.158   5.398   6.632 -1.1899 -1.2410  0.9806
 5953TIP3   OH239493   2.543   0.156   1.445  0.3962 -0.2081  0.6243
 5953TIP3    H139494   2.558   0.128   1.536 -0.0047 -0.5588  0.5835
 5953TIP3    H239495   2.582   0.087   1.392 -2.1525 -1.6881  0.4968
 5954TIP3   OH239496   1.569   4.889   8.056  0.4158  0.3159  0.2090
 5954TIP3    H139497   1.479   4.891   8.023  0.9623  0.7102 -1.3310
 5954TIP3    H239498   1.602   4.978   8.043  0.9700  0.2308  0.9589
 5955TIP3   OH239499   1.155   3.351   7.817  0.4012 -0.0018  0.6864
 5955TIP3    H139500   1.088   3.342   7.885 -0.0009 -0.1495  0.2765
 5955TIP3    H239501   1.156   3.266   7.772 -1.6118  1.0218 -1.5497
 5956TIP3   OH239502   1.411   4.475   6.844  0.9914  0.1808  0.8566
 5956TIP3    H139503   1.491   4.519   6.816  0.7272  0.1742  0.0908
 5956TIP3    H239504   1.421   4.467   6.939  2.4733 -0.9431  0.6452
 5957TIP3   OH239505   6.946   6.769   0.643 -0.3684 -0.0717 -0.5029
 5957TIP3    H139506   6.862   6.736   0.613 -0.9942 -0.3434  1.4350
 5957TIP3    H239507   6.949   6.859   0.611 -1.5974  0.0914 -0.2044
 5958TIP3   OH239508   4.969   0.465   1.069  0.5399 -0.1235  0.0232
 5958TIP3    H139509   4.880   0.455   1.035  0.7193  0.5954 -0.6797
 5958TIP3    H239510   4.969   0.417   1.152  0.0349 -1.7711 -0.8906
 5959TIP3   OH239511   2.328   3.558   1.390  0.0023  0.2694 -0.2888
 5959TIP3    H139512   2.306   3.511   1.309  1.2859 -0.0542 -0.4586
 5959TIP3    H239513   2.412   3.522   1.417  0.2582  1.3773  0.4318
 5960TIP3   OH239514   2.182   1.882   7.784 -0.4149 -0.2732 -0.3046
 5960TIP3    H139515   2.139   1.796   7.777  0.4539 -0.7749  0.3063
 5960TIP3    H239516   2.110   1.943   7.799 -0.9701 -1.0271  0.2010
 5961TIP3   OH239517   2.487   6.608   7.233 -0.6416 -0.0487 -0.3716
 5961TIP3    H139518   2.452   6.578   7.149 -1.9761  0.9516 -0.2165
 5961TIP3    H239519   2.414   6.596   7.294 -0.9955  2.6983 -0.1529
 5962TIP3   OH239520   5.355   4.087   0.895  0.4118 -0.2166  0.6584
 5962TIP3    H139521   5.410   4.117   0.823 -0.9053 -1.5959 -1.0390
 5962TIP3    H239522   5.265   4.107   0.866 -0.2939 -2.7424  0.8727
 5963TIP3   OH239523   6.458   5.463   6.939 -0.4495  0.1121 -0.1109
 5963TIP3    H139524   6.429   5.554   6.946  0.0634  0.2289  0.5730
 5963TIP3    H239525   6.398   5.424   6.875 -2.3272  0.2695  1.4424
 5964TIP3   OH239526   5.003   2.489   7.221 -0.5319 -0.0125  0.2583
 5964TIP3    H139527   4.963   2.531   7.297 -0.7878  1.9395 -0.8871
 5964TIP3    H239528   4.937   2.495   7.152  0.5572  0.4611 -0.7892
 5965TIP3   OH239529   3.878   3.435   7.450  0.6193  0.5588  0.3137
 5965TIP3    H139530   3.894   3.341   7.447 -3.1099 -0.1934 -0.7251
 5965TIP3    H239531   3.830   3.449   7.531 -2.2882  0.7635 -1.3048
 5966TIP3   OH239532   1.486   6.098   0.149 -0.1248  0.6262 -0.2125
 5966TIP3    H139533   1.482   6.184   0.106 -1.0382 -0.7342 -3.0861
 5966TIP3    H239534   1.400   6.088   0.190  0.1760  1.2828  0.5960
 5967TIP3   OH239535   1.573   0.480   7.946  0.5657 -0.4214 -0.6076
 5967TIP3    H139536   1.647   0.538   7.926 -0.4670  1.0886 -0.2515
 5967TIP3    H239537   1.561   0.428   7.867  1.3306  0.0843 -1.0692
 5968TIP3   OH239538   6.769   3.017   1.171 -0.5502 -0.2099 -0.3196
 5968TIP3    H139539   6.777   2.969   1.088  0.2786 -2.3449  0.9231
 5968TIP3    H239540   6.853   3.061   1.181 -0.2038 -0.9145 -0.0655
 5969TIP3   OH239541   3.283   3.918   1.720 -0.3528  0.1663  0.3409
 5969TIP3    H139542   3.263   3.831   1.685  1.0428 -0.6251  1.3649
 5969TIP3    H239543   3.377   3.928   1.705 -0.3191  1.0940  1.0977
 5970TIP3   OH239544   3.867   3.948   0.348  0.1511 -0.0657 -0.2095
 5970TIP3    H139545   3.933   4.007   0.385  0.9990 -1.3823  0.4552
 5970TIP3    H239546   3.784   3.992   0.365  0.7079  0.6186  0.8852
 5971TIP3   OH239547   6.459   6.643   8.249 -0.3177 -0.3177 -0.0849
 5971TIP3    H139548   6.410   6.649   8.167 -0.3883  0.1616 -0.0077
 5971TIP3    H239549   6.540   6.690   8.231  0.5033 -1.7974 -0.4879
 5972TIP3   OH239550   4.570   6.641   7.073 -0.3995  0.2971 -0.5491
 5972TIP3    H139551   4.524   6.629   6.990  2.3199  0.6250 -2.1955
 5972TIP3    H239552   4.601   6.731   7.071 -0.2399  0.3021  0.8476
 5973TIP3   OH239553   1.191   0.391   7.230  0.5154 -0.6728  0.3625
 5973TIP3    H139554   1.270   0.419   7.184  0.7616  0.8181  1.6142
 5973TIP3    H239555   1.158   0.471   7.272 -1.0832 -1.4803  0.7174
 5974TIP3   OH239556   4.770   0.683   8.453  0.4509  0.0401 -0.0628
 5974TIP3    H139557   4.743   0.672   8.362  1.1231  0.0393 -0.2680
 5974TIP3    H239558   4.775   0.778   8.465  1.3271  0.0382 -0.3290
 5975TIP3   OH239559   1.163   2.900   7.526 -0.9871  0.3866 -0.1596
 5975TIP3    H139560   1.122   2.829   7.477 -0.2944  1.0722 -1.8289
 5975TIP3    H239561   1.193   2.860   7.607 -0.3590 -1.3189 -1.1778
 5976TIP3   OH239562   2.897   5.545   1.736  0.0697  0.0333  0.6788
 5976TIP3    H139563   2.807   5.573   1.756 -0.7649 -0.4561 -2.0000
 5976TIP3    H239564   2.907   5.462   1.782 -0.2163  0.8475  2.3078
 5977TIP3   OH239565   2.149   6.931   7.587 -0.4432  0.5868 -0.2210
 5977TIP3    H139566   2.081   6.866   7.600 -0.8257  0.1067 -3.7229
 5977TIP3    H239567   2.219   6.906   7.648 -1.9064 -1.0717  0.8445
 5978TIP3   OH239568   0.640   4.236   1.532  0.3916  0.4353 -0.3196
 5978TIP3    H139569   0.658   4.295   1.459  0.3602  1.6776  0.6353
 5978TIP3    H239570   0.615   4.294   1.604 -2.7563 -0.8696 -0.1818
 5979TIP3   OH239571   5.522   0.462   1.875 -0.2373 -0.4559 -0.5390
 5979TIP3    H139572   5.460   0.495   1.940 -0.8982 -0.0487 -1.3628
 5979TIP3    H239573   5.592   0.421   1.927  0.5536  2.0653  0.5340
 5980TIP3   OH239574   2.322   0.188   7.157  0.3595 -0.5976 -0.2158
 5980TIP3    H139575   2.278   0.124   7.213  0.2612  0.4076  0.8945
 5980TIP3    H239576   2.413   0.186   7.186  0.5682 -0.9616 -0.8814
 5981TIP3   OH239577   1.787   0.819   7.171  0.5851  0.0876 -0.0490
 5981TIP3    H139578   1.875   0.858   7.169  0.3832  1.1681  3.9371
 5981TIP3    H239579   1.801   0.727   7.148  2.6240  0.3836 -0.1931
 5982TIP3   OH239580   5.756   2.025   2.070 -0.1792 -0.6051 -0.1818
 5982TIP3    H139581   5.835   2.050   2.119 -1.9959  1.9364  1.7198
 5982TIP3    H239582   5.737   1.936   2.101  2.0468 -1.4390 -0.9763
 5983TIP3   OH239583   6.393   1.007   1.984 -0.4739 -0.6396  0.4308
 5983TIP3    H139584   6.427   1.064   2.053 -2.8066  1.3462  0.0599
 5983TIP3    H239585   6.298   1.010   1.995 -0.9934  0.2090 -3.1330
 5984TIP3   OH239586   2.441   1.878   1.503 -0.1618  0.4038  0.5071
 5984TIP3    H139587   2.427   1.960   1.455 -2.7138 -1.2594 -1.9062
 5984TIP3    H239588   2.353   1.844   1.519  0.8128 -1.8935  1.4600
 5985TIP3   OH239589   0.166   2.405   0.582 -0.0500  0.7137 -0.3309
 5985TIP3    H139590   0.224   2.402   0.659  1.4430  1.5928 -1.3730
 5985TIP3    H239591   0.184   2.323   0.536 -2.7606 -1.0197  1.4314
 5986TIP3   OH239592   1.431   0.232   0.433  0.7624  0.2852 -0.5948
 5986TIP3    H139593   1.355   0.229   0.492  1.5402 -1.3746  0.4298
 5986TIP3    H239594   1.436   0.323   0.405 -0.6144  0.7970  0.6345
 5987TIP3   OH239595   3.556   6.659   1.869  0.1230  0.4470 -0.7015
 5987TIP3    H139596   3.516   6.592   1.814  0.2342  1.1568 -1.6876
 5987TIP3    H239597   3.521   6.642   1.957 -0.9838 -0.0105 -1.2033
 5988TIP3   OH239598   1.497   4.427   1.065 -0.6311 -0.0446 -0.1457
 5988TIP3    H139599   1.516   4.427   0.971  1.3740 -0.4361  0.2265
 5988TIP3    H239600   1.563   4.369   1.103 -1.3851  0.1389  1.5199
 5989TIP3   OH239601   4.155   1.776   0.525  0.0607  0.6590  0.0276
 5989TIP3    H139602   4.067   1.757   0.559  0.4103 -2.2017 -0.3958
 5989TIP3    H239603   4.140   1.799   0.433 -0.2591  0.2614 -0.0239
 5990TIP3   OH239604   1.035   2.106   2.083 -0.0009 -0.1301  0.1567
 5990TIP3    H139605   1.111   2.070   2.127  0.5336 -1.9069 -2.0521
 5990TIP3    H239606   0.960   2.073   2.133  0.5779 -1.9834 -0.1570
 5991TIP3   OH239607   1.235   5.400   7.829 -0.2718 -0.2212 -0.0451
 5991TIP3    H139608   1.275   5.343   7.895  1.5898  0.3015 -0.6380
 5991TIP3    H239609   1.154   5.355   7.804 -2.0051  0.4018  3.7800
 5992TIP3   OH239610   2.758   0.408   1.301  0.3825 -0.1199  0.2796
 5992TIP3    H139611   2.828   0.347   1.281  0.3250 -0.1827  0.2716
 5992TIP3    H239612   2.719   0.430   1.216 -0.0674 -0.6313  0.3522
 5993TIP3   OH239613   5.846   1.151   7.794 -0.6870  0.3264 -0.4541
 5993TIP3    H139614   5.796   1.094   7.853 -1.0447  2.2379  1.2241
 5993TIP3    H239615   5.780   1.189   7.736 -0.9693  1.3507  0.4842
 5994TIP3   OH239616   5.706   5.662   0.171 -0.3676 -0.5271 -0.0470
 5994TIP3    H139617   5.632   5.612   0.207 -2.3106  0.6722 -2.0790
 5994TIP3    H239618   5.664   5.732   0.120  2.2211  1.4486  0.3362
 5995TIP3   OH239619   6.328   2.983   1.080  0.4828 -0.1518 -0.3158
 5995TIP3    H139620   6.323   3.070   1.119 -0.3004 -0.8566  1.2382
 5995TIP3    H239621   6.347   2.999   0.987 -0.8242  1.7139 -0.3080
 5996TIP3   OH239622   3.035   2.007   0.655 -0.4162  1.0134  0.2118
 5996TIP3    H139623   2.969   1.978   0.592 -0.0616 -1.6353  0.9703
 5996TIP3    H239624   3.118   2.003   0.607 -0.4323  1.4204  0.1435
 5997TIP3   OH239625   2.317   0.606   6.600  0.5975  0.6121  0.6932
 5997TIP3    H139626   2.330   0.523   6.554 -3.1839  0.3599 -0.2977
 5997TIP3    H239627   2.392   0.660   6.575  0.9229 -1.0237 -2.2867
 5998TIP3   OH239628   4.658   6.592   1.051 -0.0719 -0.3878  0.4035
 5998TIP3    H139629   4.731   6.544   1.013  0.1348 -0.3131  0.7022
 5998TIP3    H239630   4.680   6.684   1.035  0.4678 -0.3085  1.4877
 5999TIP3   OH239631   6.417   2.729   1.907 -0.1202 -0.5289 -0.2475
 5999TIP3    H139632   6.424   2.681   1.824  1.0434 -1.2085  0.2077
 5999TIP3    H239633   6.347   2.684   1.954 -0.2128 -0.6827 -0.5259
 6000TIP3   OH239634   3.551   4.785   0.079  0.3386  0.2457  0.1096
 6000TIP3    H139635   3.486   4.802   0.011 -0.0451 -1.3219  0.0490
 6000TIP3    H239636   3.537   4.855   0.143 -1.4872 -0.1071  0.1561
 6001TIP3   OH239637   3.885   5.059   6.797 -0.1053 -0.3052 -0.4466
 6001TIP3    H139638   3.832   5.128   6.838 -2.5170 -1.7528 -0.8921
 6001TIP3    H239639   3.957   5.105   6.755 -0.3180  1.6816  1.2181
 6002TIP3   OH239640   3.171   6.420   2.636  0.2605 -0.1631 -0.6087
 6002TIP3    H139641   3.132   6.498   2.675  0.4643 -0.4262  0.1369
 6002TIP3    H239642   3.262   6.444   2.620  0.3458 -0.2726 -0.2967
 6003TIP3   OH239643   3.641   2.712   6.309  0.6441  0.4641 -0.5564
 6003TIP3    H139644   3.719   2.765   6.325  0.5358  0.7900 -1.0570
 6003TIP3    H239645   3.569   2.767   6.339  0.7726 -1.9761  5.4866
 6004TIP3   OH239646   0.867   5.769   7.490 -0.2871  0.4626  0.4498
 6004TIP3    H139647   0.808   5.703   7.453  0.1318  0.0500  0.5180
 6004TIP3    H239648   0.842   5.850   7.446 -1.7264  0.5351  1.3388
 6005TIP3   OH239649   6.476   4.879   1.081 -0.1378 -0.8296 -0.3309
 6005TIP3    H139650   6.483   4.784   1.085  0.6925 -0.7427  0.6715
 6005TIP3    H239651   6.493   4.908   1.171  0.3071  0.3032 -0.7630
 6006TIP3   OH239652   0.241   1.922   6.529 -0.1931 -0.0808  0.0695
 6006TIP3    H139653   0.305   1.976   6.576  0.5655 -0.6857 -0.2442
 6006TIP3    H239654   0.294   1.856   6.483 -0.9818 -0.1043 -0.8468
 6007TIP3   OH239655   0.445   2.261   6.707  0.2902 -0.0128 -0.0987
 6007TIP3    H139656   0.495   2.234   6.630  0.3056 -0.7318  0.1658
 6007TIP3    H239657   0.501   2.327   6.749  0.3829  0.2197 -0.5715
 6008TIP3   OH239658   1.497   4.966   0.083 -0.1573  0.2975  0.4016
 6008TIP3    H139659   1.433   5.005   0.023  0.5193  1.1280  0.1930
 6008TIP3    H239660   1.578   4.961   0.032  0.0915 -0.2207  0.8361
 6009TIP3   OH239661   0.220   5.197   1.572  0.2483 -0.1096  0.1567
 6009TIP3    H139662   0.269   5.173   1.650  1.0188  1.1931  0.0975
 6009TIP3    H239663   0.155   5.260   1.602  0.4089  0.2385 -0.2157
 6010TIP3   OH239664   0.231   6.158   0.736 -0.0532 -0.7566  0.0589
 6010TIP3    H139665   0.224   6.231   0.675  1.6343 -0.3666  0.2667
 6010TIP3    H239666   0.163   6.097   0.708 -1.8913  1.0922  0.2199
 6011TIP3   OH239667   4.494   4.373   1.508 -0.2408 -0.6259  0.3595
 6011TIP3    H139668   4.522   4.390   1.418  0.7585 -1.8639  0.4047
 6011TIP3    H239669   4.544   4.435   1.561  0.8568 -1.3758  0.2383
 6012TIP3   OH239670   1.391   3.396   6.953 -0.2263  0.1605 -0.1546
 6012TIP3    H139671   1.368   3.488   6.964 -1.4627  0.0645 -1.5988
 6012TIP3    H239672   1.309   3.349   6.964  0.0596 -0.6103 -1.1818
 6013TIP3   OH239673   4.657   1.603   6.795 -0.2066  0.0401  0.2629
 6013TIP3    H139674   4.712   1.554   6.733  1.2789 -0.1055  1.6314
 6013TIP3    H239675   4.624   1.537   6.855 -0.5167  0.3542  0.4404
 6014TIP3   OH239676   2.349   3.135   1.922 -0.1619 -0.1186 -0.2811
 6014TIP3    H139677   2.409   3.107   1.853  0.2592 -0.3264  0.1589
 6014TIP3    H239678   2.263   3.102   1.894  0.3124 -1.9528  0.2332
 6015TIP3   OH239679   0.306   2.861   0.623  0.1561 -0.2004  0.0404
 6015TIP3    H139680   0.308   2.908   0.539 -0.1924 -0.8385 -0.3363
 6015TIP3    H239681   0.376   2.796   0.616  0.2506 -0.1283  0.3197
 6016TIP3   OH239682   2.181   2.198   1.050  0.4455 -0.6580 -0.4197
 6016TIP3    H139683   2.112   2.253   1.014  0.2584 -1.2666 -1.0292
 6016TIP3    H239684   2.262   2.246   1.034  0.1832  0.0057  0.1937
 6017TIP3   OH239685   3.913   4.577   1.236  0.3474 -0.1609  0.2971
 6017TIP3    H139686   4.000   4.616   1.231  0.9703 -1.5782 -0.5219
 6017TIP3    H239687   3.854   4.646   1.206  1.4732  0.0386 -1.6466
 6018TIP3   OH239688   6.025   2.399   0.515 -0.2216 -0.5277 -0.1517
 6018TIP3    H139689   5.959   2.389   0.446  0.7432  1.5660 -1.4758
 6018TIP3    H239690   6.022   2.492   0.538  0.0399 -1.0344  2.1028
 6019TIP3   OH239691   2.158   4.311   7.699 -0.6270  0.1493 -0.1139
 6019TIP3    H139692   2.142   4.401   7.727  1.8801  0.5060  0.3839
 6019TIP3    H239693   2.246   4.291   7.732 -1.4099 -2.7618  0.4399
 6020TIP3   OH239694   3.552   3.079   6.525  0.3132  0.5908 -0.1522
 6020TIP3    H139695   3.515   3.105   6.610  2.9759  3.8941  0.2464
 6020TIP3    H239696   3.645   3.063   6.544  0.6461 -0.1257 -2.1868
 6021TIP3   OH239697   4.149   2.397   7.805 -0.1665  0.1912 -0.1126
 6021TIP3    H139698   4.134   2.420   7.714 -0.1648  0.1078 -0.1340
 6021TIP3    H239699   4.165   2.303   7.804 -2.8689 -0.3554  0.2771
 6022TIP3   OH239700   5.815   0.266   7.987  0.0389  0.0370 -0.0221
 6022TIP3    H139701   5.765   0.213   7.925 -1.6639  1.3900  0.0811
 6022TIP3    H239702   5.828   0.350   7.942  0.6257  0.3205  0.6550
 6023TIP3   OH239703   1.912   4.601   1.673  0.1741  0.8969  0.2930
 6023TIP3    H139704   1.867   4.667   1.727 -1.8702  0.1669 -0.4226
 6023TIP3    H239705   1.848   4.531   1.664  2.4553 -1.4920  1.4494
 6024TIP3   OH239706   6.504   3.660   7.860  0.6825 -0.3429 -0.5868
 6024TIP3    H139707   6.517   3.616   7.777  1.9529 -0.4772 -0.3272
 6024TIP3    H239708   6.540   3.748   7.846 -0.2357  0.0490 -0.5554
 6025TIP3   OH239709   2.783   5.570   2.624 -0.7483 -0.5738 -0.1090
 6025TIP3    H139710   2.743   5.517   2.554 -1.2948  0.0299 -0.2711
 6025TIP3    H239711   2.868   5.530   2.638 -0.1636 -0.0619 -1.8884
 6026TIP3   OH239712   3.204   6.530   7.769 -0.5296  0.1432  0.1686
 6026TIP3    H139713   3.188   6.546   7.677  0.4807  3.2706  0.4107
 6026TIP3    H239714   3.136   6.579   7.815  1.3781  2.2145  1.0158
 6027TIP3   OH239715   4.019   6.285   7.236  0.1803 -0.2766  0.0060
 6027TIP3    H139716   4.029   6.379   7.254  2.7011 -0.5240  0.2679
 6027TIP3    H239717   4.025   6.279   7.141  0.1795 -0.1723 -0.0014
 6028TIP3   OH239718   6.165   1.561   1.917  0.0858 -0.4105  0.1779
 6028TIP3    H139719   6.218   1.547   1.838  1.6554  1.0448  0.9227
 6028TIP3    H239720   6.167   1.476   1.961 -0.6472 -1.1938 -1.2070
 6029TIP3   OH239721   5.243   4.819   0.499 -0.2801 -0.0194 -1.0897
 6029TIP3    H139722   5.230   4.845   0.590  0.0399 -1.1560 -0.7014
 6029TIP3    H239723   5.280   4.731   0.504  2.3923  0.9367 -2.2509
 6030TIP3   OH239724   6.393   0.994   7.221 -0.1087  0.5139 -0.3056
 6030TIP3    H139725   6.321   1.020   7.163 -0.9181 -0.8667  0.0323
 6030TIP3    H239726   6.444   1.074   7.233 -2.1795  1.8251  0.2931
 6031TIP3   OH239727   3.092   0.871   2.057 -0.3734 -0.3337  1.0242
 6031TIP3    H139728   3.119   0.896   2.145  0.3355 -1.0870  1.0400
 6031TIP3    H239729   3.030   0.939   2.030  1.3209  1.3324  1.1101
 6032TIP3   OH239730   5.082   1.150   2.471  0.3685  0.1391  0.1647
 6032TIP3    H139731   5.176   1.134   2.458  1.1206  4.5028 -1.5514
 6032TIP3    H239732   5.074   1.171   2.564  0.3496 -3.1722  1.0581
 6033TIP3   OH239733   6.479   0.987   8.085  0.4373  0.3758  0.2023
 6033TIP3    H139734   6.403   0.929   8.092 -0.5999  1.7891  1.1013
 6033TIP3    H239735   6.548   0.931   8.048 -1.2839 -0.7068 -1.5842
 6034TIP3   OH239736   1.827   1.075   1.184  0.4640  0.1225  0.5672
 6034TIP3    H139737   1.789   1.022   1.114  1.5798 -0.7247  0.5790
 6034TIP3    H239738   1.896   1.125   1.141  0.1725  0.7232  0.7831
 6035TIP3   OH239739   0.527   4.008   0.475  0.1167  0.2272  0.5254
 6035TIP3    H139740   0.487   3.941   0.531  2.0188  0.1853  1.9530
 6035TIP3    H239741   0.510   4.090   0.521 -2.0712  0.7828 -1.1407
 6036TIP3   OH239742   0.210   4.060   1.232  0.3104  0.1057  0.7628
 6036TIP3    H139743   0.147   4.032   1.299  0.4242  0.3066  0.9560
 6036TIP3    H239744   0.173   4.140   1.196 -0.5252 -0.8302 -0.5080
 6037TIP3   OH239745   3.981   1.456   8.177 -0.1289  0.0836 -0.3457
 6037TIP3    H139746   3.927   1.468   8.255  1.8305  0.5196  1.0235
 6037TIP3    H239747   3.920   1.426   8.110 -2.1697  1.1666  0.9136
 6038TIP3   OH239748   2.852   5.907   0.915 -0.3464 -0.5085 -0.6994
 6038TIP3    H139749   2.829   5.981   0.971 -0.2150 -1.4858  0.6993
 6038TIP3    H239750   2.875   5.947   0.831  0.4153  1.0985  0.2202
 6039TIP3   OH239751   1.275   6.654   6.740 -0.3068  0.0689  0.1290
 6039TIP3    H139752   1.348   6.712   6.722 -0.0115 -0.2571  0.2696
 6039TIP3    H239753   1.218   6.661   6.663 -0.2099  0.4417  0.0902
 6040TIP3   OH239754   0.409   2.614   7.109 -0.3733  0.4299 -0.2903
 6040TIP3    H139755   0.465   2.692   7.107  0.8655 -0.4436 -1.5103
 6040TIP3    H239756   0.382   2.602   7.018 -0.9664 -0.2910 -0.0296
 6041TIP3   OH239757   3.706   2.263   7.634  0.0223 -0.2933  0.2359
 6041TIP3    H139758   3.665   2.234   7.715  0.3037  0.4499  0.6584
 6041TIP3    H239759   3.689   2.357   7.631  0.9994 -0.1129  0.0100
 6042TIP3   OH239760   3.815   6.925   6.561  0.2737  0.2977  0.0253
 6042TIP3    H139761   3.738   6.878   6.594  1.5531 -0.9676  1.3466
 6042TIP3    H239762   3.779   6.998   6.511 -1.8562 -2.0578 -2.1832
 6043TIP3   OH239763   2.229   0.398   7.560  0.1306  0.5112  0.8746
 6043TIP3    H139764   2.189   0.429   7.479 -0.8112  2.6320  2.0617
 6043TIP3    H239765   2.225   0.473   7.619  0.0396 -1.1644  3.1609
 6044TIP3   OH239766   3.209   1.962   2.130  0.3069 -0.0159  0.1423
 6044TIP3    H139767   3.137   2.025   2.138  0.9603  1.0117 -1.4278
 6044TIP3    H239768   3.166   1.878   2.118 -0.6077  0.2885  1.1800
 6045TIP3   OH239769   5.703   0.084   0.557  0.0826 -0.0276 -0.2979
 6045TIP3    H139770   5.778   0.140   0.576 -0.3093  0.1945  0.6367
 6045TIP3    H239771   5.734   0.026   0.488  1.0512  0.1831 -0.0578
 6046TIP3   OH239772   1.939   4.383   2.052  0.5776  0.2484  0.2141
 6046TIP3    H139773   1.933   4.476   2.030 -1.7613  0.5266  1.7219
 6046TIP3    H239774   2.013   4.378   2.112  1.9543  0.7463 -1.3420
 6047TIP3   OH239775   6.498   2.517   8.333  0.3818 -0.1391 -0.1400
 6047TIP3    H139776   6.482   2.493   8.424 -0.9530  0.5802 -0.1512
 6047TIP3    H239777   6.508   2.612   8.335  0.0110 -0.0775 -0.7737
 6048TIP3   OH239778   6.388   1.393   2.433 -0.1295 -0.2317 -0.1242
 6048TIP3    H139779   6.350   1.357   2.513  0.9848  0.9778  1.0149
 6048TIP3    H239780   6.447   1.462   2.464  0.9148 -0.2297 -1.9511
 6049TIP3   OH239781   6.105   6.277   0.841  0.1767  0.2991 -0.1710
 6049TIP3    H139782   6.196   6.301   0.824 -0.1097  0.4734 -1.5887
 6049TIP3    H239783   6.090   6.200   0.786 -1.5006  2.3417 -2.8256
 6050TIP3   OH239784   5.964   0.641   1.056 -0.6265 -0.2488 -0.1519
 6050TIP3    H139785   5.986   0.633   1.149 -1.1666  0.1381  0.0135
 6050TIP3    H239786   5.935   0.732   1.046  0.8781  0.1581 -1.0200
 6051TIP3   OH239787   2.266   3.758   8.583  0.1773  0.4665  0.1195
 6051TIP3    H139788   2.358   3.736   8.600  0.6439  1.5515 -0.8653
 6051TIP3    H239789   2.245   3.826   8.647 -0.3720 -0.7024  1.2247
 6052TIP3   OH239790   4.736   3.055   8.239 -0.0373 -0.3374 -0.3956
 6052TIP3    H139791   4.808   3.031   8.299 -0.9416 -0.9734  0.4714
 6052TIP3    H239792   4.663   2.999   8.266 -0.3440 -1.0296 -2.4388
 6053TIP3   OH239793   2.824   5.703   1.137 -0.3851  0.7684  0.6324
 6053TIP3    H139794   2.797   5.789   1.106 -4.5108 -0.2745  0.6436
 6053TIP3    H239795   2.881   5.669   1.068  0.9833  3.2736  0.4434
 6054TIP3   OH239796   2.059   2.042   7.443 -0.2002  0.1156  0.0639
 6054TIP3    H139797   2.069   2.104   7.515  0.6450 -0.9738  0.9324
 6054TIP3    H239798   1.965   2.027   7.436 -0.4745  1.9172 -0.5703
 6055TIP3   OH239799   4.287   5.675   2.634  0.3577  0.4647 -0.1256
 6055TIP3    H139800   4.206   5.692   2.587 -0.2051 -0.7603  0.3480
 6055TIP3    H239801   4.274   5.588   2.672  1.0153  1.1475  1.7760
 6056TIP3   OH239802   3.876   0.882   2.156 -0.0493  0.0926  0.0647
 6056TIP3    H139803   3.913   0.913   2.239  0.8081 -1.3019  0.2427
 6056TIP3    H239804   3.943   0.823   2.121 -0.2749  0.8879 -1.7819
 6057TIP3   OH239805   4.893   3.100   7.750  0.3030 -0.3095  0.7307
 6057TIP3    H139806   4.881   3.040   7.823 -0.5166 -1.9127 -0.6437
 6057TIP3    H239807   4.930   3.179   7.789 -2.0455 -0.3102  3.1820
 6058TIP3   OH239808   0.401   5.458   2.318  0.2918  0.0124 -0.0901
 6058TIP3    H139809   0.349   5.535   2.339  1.3722  0.7180  0.1084
 6058TIP3    H239810   0.338   5.392   2.290 -0.7831  0.5267  1.0320
 6059TIP3   OH239811   1.342   6.029   1.786  0.6287 -0.0440  0.4973
 6059TIP3    H139812   1.334   5.937   1.813  2.0011 -0.3281  0.0087
 6059TIP3    H239813   1.413   6.063   1.840  0.6300  0.5226  0.1407
 6060TIP3   OH239814   1.351   0.321   7.781  0.0389  0.1462 -1.1626
 6060TIP3    H139815   1.355   0.373   7.700 -1.7329  1.5399 -0.4373
 6060TIP3    H239816   1.322   0.384   7.848  0.6250 -1.1641  0.3840
 6061TIP3   OH239817   2.379   0.090   2.275  0.6299 -1.0938  0.0520
 6061TIP3    H139818   2.361   0.027   2.345 -0.3555  1.3146  2.1284
 6061TIP3    H239819   2.297   0.097   2.227  0.8177 -1.5456 -0.3446
 6062TIP3   OH239820   6.094   1.411   1.338  0.1536  0.1039 -0.6016
 6062TIP3    H139821   6.142   1.405   1.421  0.8673  0.8495 -0.9473
 6062TIP3    H239822   6.137   1.347   1.281  0.9703  0.9831 -1.0072
 6063TIP3   OH239823   4.760   3.660   2.319  0.3989  0.6424  0.4183
 6063TIP3    H139824   4.700   3.622   2.383 -1.0647  3.5217  0.9427
 6063TIP3    H239825   4.741   3.614   2.238 -0.2158 -0.7066  1.2901
 6064TIP3   OH239826   2.179   1.645   2.094  0.2164  0.2076 -0.0123
 6064TIP3    H139827   2.113   1.585   2.129  0.8708 -0.7297 -0.3576
 6064TIP3    H239828   2.137   1.731   2.098 -1.1047 -0.3902 -0.3764
 6065TIP3   OH239829   5.408   5.377   1.261  0.2668 -0.1152  0.2160
 6065TIP3    H139830   5.442   5.352   1.347 -0.1902 -4.0270 -0.5477
 6065TIP3    H239831   5.317   5.349   1.263 -0.8267  3.0371 -0.4383
 6066TIP3   OH239832   4.328   3.636   6.709  0.5742 -0.1090 -0.3077
 6066TIP3    H139833   4.299   3.644   6.800 -0.0409  1.4782 -0.6121
 6066TIP3    H239834   4.270   3.695   6.661  1.4860 -0.2466 -1.5962
 6067TIP3   OH239835   1.146   4.401   0.832  0.4716  0.9442  0.3985
 6067TIP3    H139836   1.108   4.477   0.789  2.7495  2.2794  0.6383
 6067TIP3    H239837   1.126   4.413   0.925 -0.7824  0.2151  0.2619
 6068TIP3   OH239838   6.303   4.015   0.457  0.2100  0.9280 -0.1707
 6068TIP3    H139839   6.363   4.076   0.415  1.3964  0.6932  1.1342
 6068TIP3    H239840   6.303   4.039   0.549 -0.1755 -0.3241  0.1850
 6069TIP3   OH239841   5.056   3.926   1.501 -0.0873 -0.1033  0.4952
 6069TIP3    H139842   5.122   3.980   1.458  1.3585  0.2502  2.9372
 6069TIP3    H239843   4.991   3.989   1.533  0.3921 -0.0296  1.3472
 6070TIP3   OH239844   6.665   2.738   8.085 -0.1345 -0.1613 -0.2865
 6070TIP3    H139845   6.729   2.806   8.063  1.1306 -1.5984 -1.2214
 6070TIP3    H239846   6.609   2.732   8.008 -1.2210  0.8517  0.3959
 6071TIP3   OH239847   2.696   3.049   8.386 -0.7538 -0.2888 -0.2450
 6071TIP3    H139848   2.758   2.988   8.426 -0.7600 -1.7812 -2.3803
 6071TIP3    H239849   2.750   3.118   8.349 -0.6886  0.5293  1.2543
 6072TIP3   OH239850   3.913   1.574   0.395  0.4126  0.1615  0.1220
 6072TIP3    H139851   3.898   1.551   0.303 -3.1538  0.0951  0.5909
 6072TIP3    H239852   3.959   1.498   0.431  2.3699  0.4124 -1.6282
 6073TIP3   OH239853   5.607   5.473   6.546 -0.5554 -0.1181  0.3054
 6073TIP3    H139854   5.528   5.479   6.492  0.5865  0.0856 -1.3839
 6073TIP3    H239855   5.642   5.386   6.528 -1.2994 -0.9180  2.4182
 6074TIP3   OH239856   2.898   6.024   0.691 -0.3471 -0.0169 -0.0642
 6074TIP3    H139857   2.867   6.113   0.677  2.3315  0.8285 -1.2438
 6074TIP3    H239858   2.883   5.980   0.607 -0.5231 -0.3070  0.1194
 6075TIP3   OH239859   4.220   1.819   7.875 -0.3549  0.1532 -0.4353
 6075TIP3    H139860   4.229   1.771   7.793  0.1596 -0.2756 -0.1339
 6075TIP3    H239861   4.126   1.832   7.885 -0.6585 -2.2267  0.2757
 6076TIP3   OH239862   5.415   2.029   8.506 -0.3258 -0.0799 -0.1244
 6076TIP3    H139863   5.445   2.098   8.446 -0.4844 -0.2930 -0.4491
 6076TIP3    H239864   5.377   2.077   8.580  1.2337  0.2148  0.5333
 6077TIP3   OH239865   2.929   5.589   8.559  0.0075  0.5115 -0.5533
 6077TIP3    H139866   2.926   5.685   8.564 -1.1252  0.4865 -0.3946
 6077TIP3    H239867   2.975   5.562   8.638  1.1773  0.9520 -1.0699
 6078TIP3   OH239868   1.939   4.125   0.546  0.2859  0.4647  0.1954
 6078TIP3    H139869   1.859   4.073   0.545 -0.8627  2.1587  0.5663
 6078TIP3    H239870   1.946   4.161   0.457 -0.5666  2.0063  0.7068
 6079TIP3   OH239871   2.423   3.773   7.664 -0.0987 -0.4851  0.1553
 6079TIP3    H139872   2.397   3.819   7.584 -0.9922 -0.5511  0.4029
 6079TIP3    H239873   2.413   3.680   7.644 -1.8243 -0.4761  0.8190
 6080TIP3   OH239874   3.417   6.264   8.229 -0.4360  0.3366 -0.0298
 6080TIP3    H139875   3.340   6.320   8.217 -0.3181  0.1278 -1.9004
 6080TIP3    H239876   3.491   6.320   8.206 -0.1457  0.0589  0.2306
 6081TIP3   OH239877   0.936   0.374   1.405 -0.3698  0.6611  0.6918
 6081TIP3    H139878   0.954   0.423   1.325  2.2409 -1.3911 -0.1336
 6081TIP3    H239879   0.861   0.319   1.383 -0.0701  0.5737 -0.1444
 6082TIP3   OH239880   6.528   1.884   0.304  0.4803  0.3262 -0.0180
 6082TIP3    H139881   6.451   1.850   0.257 -0.8906 -0.1143  2.3792
 6082TIP3    H239882   6.596   1.818   0.289 -1.2033 -2.0461  1.9858
 6083TIP3   OH239883   2.145   2.904   2.314 -0.2726  0.2586  0.2523
 6083TIP3    H139884   2.064   2.868   2.350  0.1011 -0.4243  0.4239
 6083TIP3    H239885   2.121   2.991   2.285 -1.0859  0.0494  0.2651
 6084TIP3   OH239886   3.034   0.313   2.407  0.5379  0.1187  0.5963
 6084TIP3    H139887   3.080   0.393   2.432 -1.3541  0.9700  1.6108
 6084TIP3    H239888   3.018   0.267   2.490 -0.5089 -0.0805  0.3076
 6085TIP3   OH239889   5.396   3.586   2.394  0.6945  0.2921 -0.3959
 6085TIP3    H139890   5.420   3.512   2.339 -0.8442 -2.7186  2.6329
 6085TIP3    H239891   5.477   3.606   2.443  0.7005 -0.5475 -0.0461
 6086TIP3   OH239892   5.522   3.894   1.504  0.6298  0.2592  0.2098
 6086TIP3    H139893   5.569   3.962   1.456  2.3184 -0.1350  1.2548
 6086TIP3    H239894   5.486   3.938   1.581 -0.5702  0.5075 -0.4641
 6087TIP3   OH239895   3.302   3.991   0.258 -0.3930 -0.1316  0.0185
 6087TIP3    H139896   3.268   3.941   0.332  0.4150 -0.8041 -0.0598
 6087TIP3    H239897   3.274   4.081   0.275  0.3820 -0.1516  1.5167
 6088TIP3   OH239898   4.350   0.007   1.789  0.1496 -0.1488 -0.1449
 6088TIP3    H139899   4.344  -0.057   1.859  0.3601  0.1886  0.1851
 6088TIP3    H239900   4.265   0.051   1.790  0.4992  0.5423  0.5724
 6089TIP3   OH239901   5.808   5.135   1.264 -0.6599  0.0257  0.3054
 6089TIP3    H139902   5.794   5.228   1.246 -1.1764  0.5143  2.8795
 6089TIP3    H239903   5.882   5.134   1.325 -0.9344 -1.2256  0.6354
 6090TIP3   OH239904   0.088   4.948   0.342  0.4267 -0.6284  0.0195
 6090TIP3    H139905   0.019   4.893   0.378  1.2061 -1.0123  0.9775
 6090TIP3    H239906   0.076   5.033   0.384  1.3820 -1.0968  1.3235
 6091TIP3   OH239907   5.471   5.637   7.201 -0.4476  0.1208  0.2788
 6091TIP3    H139908   5.442   5.659   7.289  0.3430 -1.4378  0.9777
 6091TIP3    H239909   5.562   5.666   7.198 -0.1497 -0.7714  0.3648
 6092TIP3   OH239910   1.933   2.049   6.952  0.1335 -0.5788 -0.5260
 6092TIP3    H139911   1.880   2.029   6.875 -0.7376 -4.3191  0.8035
 6092TIP3    H239912   2.021   2.061   6.918 -0.8940  2.4331 -2.4551
 6093TIP3   OH239913   5.760   2.276   0.589 -0.5681  0.0702  0.5737
 6093TIP3    H139914   5.668   2.278   0.563 -0.7500 -2.0026  0.8803
 6093TIP3    H239915   5.775   2.360   0.633 -2.6019  0.0414  1.4190
 6094TIP3   OH239916   2.719   1.117   7.022  0.7345 -0.2996  0.1720
 6094TIP3    H139917   2.693   1.073   7.103 -1.5752  2.5333  1.1350
 6094TIP3    H239918   2.783   1.183   7.049 -0.6322  1.1949 -0.0893
 6095TIP3   OH239919   1.055   0.113   1.243 -0.4161 -0.6187 -0.2228
 6095TIP3    H139920   1.023   0.180   1.304  0.7457  2.5002 -2.7332
 6095TIP3    H239921   1.147   0.104   1.264 -0.3512 -0.6681 -0.5239
 6096TIP3   OH239922   3.440   0.822   2.183 -0.2204  0.0943  0.0683
 6096TIP3    H139923   3.410   0.907   2.215  1.1679  0.1171  1.4571
 6096TIP3    H239924   3.388   0.759   2.234 -0.0433  0.1283  0.2955
 6097TIP3   OH239925   6.019   1.374   6.688 -0.2840  0.2376  0.4579
 6097TIP3    H139926   6.108   1.409   6.688 -0.0973 -0.2327  0.0610
 6097TIP3    H239927   6.029   1.282   6.712 -0.5702 -0.0465 -0.4894
 6098TIP3   OH239928   5.076   6.161   0.394  0.4791 -0.2486  0.2498
 6098TIP3    H139929   5.133   6.144   0.318  0.2189  2.3343 -0.6375
 6098TIP3    H239930   5.113   6.107   0.464  2.0953 -1.0412 -1.1285
 6099TIP3   OH239931   1.394   4.281   7.532  0.0761  0.2741  0.0103
 6099TIP3    H139932   1.313   4.319   7.498  0.1342 -1.4110 -2.1951
 6099TIP3    H239933   1.460   4.303   7.466  1.3955  1.3245  1.6060
 6100TIP3   OH239934   6.004   0.815   1.731  0.1115 -0.0161  0.3347
 6100TIP3    H139935   5.980   0.746   1.792 -2.4164 -0.0041 -0.5441
 6100TIP3    H239936   6.099   0.824   1.741 -0.0242 -0.9756  3.1699
 6101TIP3   OH239937   5.938   3.433   8.305  0.2748  0.0062 -0.5145
 6101TIP3    H139938   5.948   3.509   8.248 -0.0565 -1.1279 -2.1496
 6101TIP3    H239939   5.869   3.381   8.265  0.2959 -1.0385  0.7237
 6102TIP3   OH239940   3.966   4.530   0.704  0.0435  0.2011  0.8256
 6102TIP3    H139941   4.045   4.502   0.657  1.0432  1.3405  1.7343
 6102TIP3    H239942   3.941   4.612   0.662 -0.7827 -0.2444  0.4283
 6103TIP3   OH239943   6.951   0.864   8.409 -0.6356  0.5902  0.2100
 6103TIP3    H139944   6.979   0.819   8.489 -1.6540  0.8286  0.7150
 6103TIP3    H239945   6.896   0.936   8.440 -0.3176  1.2369 -0.6693
 6104TIP3   OH239946   6.743   3.551   0.856 -0.0909  0.5357  0.4631
 6104TIP3    H139947   6.710   3.578   0.771 -1.1617 -0.0711  0.6780
 6104TIP3    H239948   6.819   3.496   0.836  0.2454  1.1767 -0.0593
 6105TIP3   OH239949   2.906   5.104   7.222 -0.2997  0.5813 -0.1878
 6105TIP3    H139950   2.936   5.159   7.295  0.9210  0.2419 -0.4105
 6105TIP3    H239951   2.953   5.022   7.233  0.9037  0.9612 -2.0572
 6106TIP3   OH239952   6.313   0.963   6.870  0.3824 -0.4326 -0.0215
 6106TIP3    H139953   6.408   0.956   6.861  0.2444 -1.1841 -1.1097
 6106TIP3    H239954   6.283   0.872   6.871 -0.4982 -0.2306 -2.1130
 6107TIP3   OH239955   1.967   0.559   1.843  0.2483 -0.4845 -0.1019
 6107TIP3    H139956   1.995   0.544   1.753 -0.1350  1.4404 -0.5875
 6107TIP3    H239957   2.038   0.608   1.883 -0.7370  1.1169 -0.2250
 6108TIP3   OH239958   6.294   2.512   1.409  0.1863 -0.0458 -0.0809
 6108TIP3    H139959   6.287   2.602   1.439  0.6751  0.1834 -0.6312
 6108TIP3    H239960   6.388   2.494   1.408  0.0550 -1.0195  1.3263
 6109TIP3   OH239961   1.816   6.900   7.021 -0.2811  0.2663 -0.1731
 6109TIP3    H139962   1.873   6.854   7.083  0.7987  0.1172 -1.2375
 6109TIP3    H239963   1.822   6.992   7.047  1.0101  0.3467 -0.6653
 6110TIP3   OH239964   3.097   3.836   7.039  0.1089  0.3921  0.0003
 6110TIP3    H139965   3.005   3.840   7.013  0.1111  0.9034  0.0666
 6110TIP3    H239966   3.105   3.900   7.110  1.0580  2.2474 -1.6778
 6111TIP3   OH239967   3.062   4.955   8.427 -0.5616 -0.1496  0.4153
 6111TIP3    H139968   3.062   4.912   8.512  0.5252  0.4870  0.7602
 6111TIP3    H239969   3.056   4.884   8.364 -1.1361 -0.6463  1.0206
 6112TIP3   OH239970   4.895   1.030   0.603 -0.0942 -0.2511 -0.2291
 6112TIP3    H139971   4.847   0.953   0.572 -0.5517 -0.1224  0.1502
 6112TIP3    H239972   4.831   1.081   0.652  0.1500  0.5018 -0.6785
 6113TIP3   OH239973   2.684   5.526   8.300 -0.4799  0.0314 -0.0430
 6113TIP3    H139974   2.673   5.587   8.373  0.1758 -1.2039  1.1315
 6113TIP3    H239975   2.595   5.501   8.276 -0.6830 -0.3178  1.0161
 6114TIP3   OH239976   5.150   4.263   1.611  0.6043 -0.1361  0.0644
 6114TIP3    H139977   5.206   4.332   1.647  0.2574  1.0474 -1.5161
 6114TIP3    H239978   5.185   4.248   1.523 -0.5596 -0.5357 -0.3498
 6115TIP3   OH239979   4.065   4.091   6.362 -0.2214 -0.2959  0.0108
 6115TIP3    H139980   3.990   4.119   6.415  0.3907 -1.3194  1.4933
 6115TIP3    H239981   4.121   4.168   6.355 -0.9794  0.2399 -0.3962
 6116TIP3   OH239982   3.891   3.897   7.794  0.1495  0.0775 -0.3560
 6116TIP3    H139983   3.976   3.941   7.799  0.5650 -0.7666  0.2949
 6116TIP3    H239984   3.912   3.804   7.793 -0.7613 -0.1388 -0.4598
 6117TIP3   OH239985   5.731   6.134   8.184  0.2018 -0.3149 -0.1941
 6117TIP3    H139986   5.770   6.065   8.237  2.7375  2.0890  1.3149
 6117TIP3    H239987   5.699   6.089   8.105 -0.4886 -3.4806  1.7173
 6118TIP3   OH239988   4.212   3.625   6.977 -0.5352  0.1148  0.4932
 6118TIP3    H139989   4.220   3.662   7.065 -1.6125 -0.8049  1.0063
 6118TIP3    H239990   4.248   3.537   6.985  0.3644  0.3988 -0.2779
 6119TIP3   OH239991   2.787   3.607   0.470 -0.0823 -0.0186  0.4156
 6119TIP3    H139992   2.830   3.599   0.386 -0.6523 -0.7124  0.1774
 6119TIP3    H239993   2.732   3.685   0.462 -0.2712 -0.1828  0.0740
 6120TIP3   OH239994   0.530   4.828   2.480 -0.2156 -0.0743  0.5462
 6120TIP3    H139995   0.473   4.903   2.495  0.5808  0.6755 -0.0905
 6120TIP3    H239996   0.614   4.855   2.517  1.4396  1.2615 -3.6385
 6121TIP3   OH239997   1.393   1.116   6.898 -0.4221  0.0440  0.4821
 6121TIP3    H139998   1.448   1.137   6.823 -2.4277 -1.1546 -1.4031
 6121TIP3    H239999   1.446   1.056   6.951  0.4853 -0.2299 -0.7092
 6122TIP3   OH240000   1.583   1.835   0.285 -0.1686 -0.1456  0.4476
 6122TIP3    H140001   1.634   1.910   0.254  1.2622 -1.2475  0.0159
 6122TIP3    H240002   1.528   1.812   0.211  1.4082 -1.1935 -0.4716
 6123TIP3   OH240003   5.215   4.891   0.190 -0.0504 -0.0986 -0.5426
 6123TIP3    H140004   5.140   4.843   0.156 -0.7604 -0.1358  0.9850
 6123TIP3    H240005   5.232   4.853   0.276  1.9353 -0.2912 -0.9600
 6124TIP3   OH240006   2.729   1.449   0.024  0.2880  0.3758  0.2579
 6124TIP3    H140007   2.650   1.396   0.031  0.8473 -0.5270 -0.1799
 6124TIP3    H240008   2.763   1.431  -0.063  1.4296  0.0989  0.7409
 6125TIP3   OH240009   0.202   2.188   8.240 -0.4084  0.9268 -1.0919
 6125TIP3    H140010   0.207   2.200   8.145  2.0806 -2.8698 -1.6489
 6125TIP3    H240011   0.111   2.210   8.262 -2.1143 -1.2041 -4.9535
 6126TIP3   OH240012   4.373   4.670   1.261 -0.4837 -0.2478 -0.7584
 6126TIP3    H140013   4.393   4.597   1.202  0.8033 -0.3764 -0.1816
 6126TIP3    H240014   4.319   4.631   1.330  0.0014 -0.6009 -0.5772
 6127TIP3   OH240015   3.648   0.261   2.548 -0.1240 -0.4481 -0.2094
 6127TIP3    H140016   3.559   0.294   2.540  0.3492  1.1380  0.5382
 6127TIP3    H240017   3.683   0.305   2.626  1.1051 -1.5331 -0.1110
 6128TIP3   OH240018   2.888   0.631   1.918  0.2908 -0.4242  0.7242
 6128TIP3    H140019   2.813   0.689   1.928  0.6221 -0.1043  1.4439
 6128TIP3    H240020   2.855   0.545   1.947 -0.2122 -0.6215 -0.3907
 6129TIP3   OH240021   1.867   6.686   7.944 -0.8082  0.4927  0.0810
 6129TIP3    H140022   1.952   6.686   7.988 -1.3447 -3.3398  1.4726
 6129TIP3    H240023   1.870   6.613   7.883 -2.5010  1.4711 -1.2990
 6130TIP3   OH240024   3.430   2.609   0.839 -0.3872 -0.0648  0.0492
 6130TIP3    H140025   3.504   2.648   0.886 -1.6640 -0.8388  2.9279
 6130TIP3    H240026   3.470   2.544   0.782  1.2461  0.2997  0.7184
 6131TIP3   OH240027   2.850   4.032   6.724 -0.2774  0.4243 -0.2608
 6131TIP3    H140028   2.887   4.112   6.686  2.7100 -0.1778  1.1302
 6131TIP3    H240029   2.828   3.978   6.648  2.1317  0.7169 -1.2564
 6132TIP3   OH240030   5.517   4.131   7.491  0.0441 -0.3189 -0.1341
 6132TIP3    H140031   5.477   4.074   7.425 -0.1315 -0.6421  0.2464
 6132TIP3    H240032   5.449   4.141   7.558  0.7634 -1.2886  0.7677
 6133TIP3   OH240033   6.056   1.812   1.951  0.4481 -0.1024  0.3990
 6133TIP3    H140034   6.117   1.739   1.944  0.1350 -0.5150  1.6405
 6133TIP3    H240035   6.022   1.806   2.041 -0.1921  1.0824  0.2568
 6134TIP3   OH240036   4.605   0.915   8.335  0.0746  0.3077  0.5332
 6134TIP3    H140037   4.543   0.865   8.282  1.5702 -0.0406 -0.9588
 6134TIP3    H240038   4.554   0.991   8.365 -2.4613 -2.2164  3.4181
 6135TIP3   OH240039   5.375   2.008   6.677  0.5401 -0.1078  0.2817
 6135TIP3    H140040   5.288   1.973   6.699  0.7646 -0.5799  0.4147
 6135TIP3    H240041   5.434   1.933   6.684  0.9185  0.1541 -0.0799
 6136TIP3   OH240042   4.040   3.924   1.788  0.2116 -0.2892 -0.0137
 6136TIP3    H140043   3.976   3.854   1.798  0.1733 -0.2865 -0.2335
 6136TIP3    H240044   4.117   3.893   1.836 -0.1387 -0.0502  0.7214
 6137TIP3   OH240045   6.950   5.830   8.420 -0.0470  0.1556 -0.1866
 6137TIP3    H140046   6.940   5.843   8.514 -1.5118 -3.0605  0.2397
 6137TIP3    H240047   7.041   5.799   8.410  1.5129  4.2508 -0.5150
 6138TIP3   OH240048   4.720   0.386   0.948  0.3362  0.0527  0.2811
 6138TIP3    H140049   4.728   0.457   0.885 -0.1990  0.3257  0.5167
 6138TIP3    H240050   4.732   0.307   0.897 -0.4034  0.2568 -0.2214
 6139TIP3   OH240051   4.202   1.430   7.770 -0.4521  0.0332 -0.4982
 6139TIP3    H140052   4.214   1.520   7.739  0.4889  0.1178  0.0644
 6139TIP3    H240053   4.234   1.375   7.699  4.2036  0.2472  1.0947
 6140TIP3   OH240054   5.606   6.353   7.973 -0.3161  0.2530 -0.3871
 6140TIP3    H140055   5.695   6.317   7.975  0.0775  1.1754 -0.3197
 6140TIP3    H240056   5.605   6.408   7.894 -1.0389 -0.2490 -0.7407
 6141TIP3   OH240057   2.956   4.090   7.806 -0.1713  0.1369 -0.1443
 6141TIP3    H140058   2.999   4.021   7.856  1.3172  0.4708 -0.9265
 6141TIP3    H240059   2.970   4.169   7.858 -0.3915  0.1498 -0.1015
 6142TIP3   OH240060   6.038   5.462   8.198 -0.1974  0.1747  0.0474
 6142TIP3    H140061   6.043   5.424   8.286 -0.0856  1.1120  0.4588
 6142TIP3    H240062   5.946   5.457   8.174 -0.1818 -0.3605  0.0870
 6143TIP3   OH240063   1.195   5.514   8.249 -0.4587  0.1535  0.6070
 6143TIP3    H140064   1.160   5.464   8.323 -0.8422  1.3520  1.2578
 6143TIP3    H240065   1.267   5.565   8.286  0.4733 -0.5223 -0.2272
 6144TIP3   OH240066   0.005   0.085   2.106 -0.3433 -0.1190 -0.4000
 6144TIP3    H140067   0.003   0.087   2.202  1.2591 -0.5591 -0.3170
 6144TIP3    H240068   0.098   0.071   2.085 -0.8988 -1.9436 -1.9743
 6145TIP3   OH240069   6.929   3.019   0.432  0.2553 -0.0819 -0.2641
 6145TIP3    H140070   6.901   2.962   0.360  0.9949 -0.0172 -0.6038
 6145TIP3    H240071   6.951   2.959   0.504 -1.2562 -0.1208  0.2132
 6146TIP3   OH240072   0.658   3.620   7.652  0.5372  0.2156  0.4915
 6146TIP3    H140073   0.633   3.641   7.562  0.0157 -1.6294  0.1469
 6146TIP3    H240074   0.750   3.593   7.646  1.0813  1.8835  0.8610
 6147TIP3   OH240075   6.099   4.932   0.737 -0.0945  0.0544 -0.0414
 6147TIP3    H140076   6.143   4.952   0.820 -1.6534  2.8983  0.2483
 6147TIP3    H240077   6.149   4.981   0.671  0.1125 -0.8028 -0.5409
 6148TIP3   OH240078   3.378   6.639   1.523 -0.3107  0.3580 -0.5535
 6148TIP3    H140079   3.306   6.684   1.566  1.0454  1.2692  0.8492
 6148TIP3    H240080   3.404   6.570   1.584  1.5700  1.6054  0.1560
 6149TIP3   OH240081   4.487   6.720   0.544  0.5475 -0.0759  0.0706
 6149TIP3    H140082   4.488   6.639   0.494 -1.1330 -0.5619  0.7712
 6149TIP3    H240083   4.441   6.783   0.487 -1.2073 -0.5816  0.8748
 6150TIP3   OH240084   5.158   6.004   0.622 -0.4504 -0.6773  0.3658
 6150TIP3    H140085   5.152   6.051   0.706  0.3474 -1.0961  0.6678
 6150TIP3    H240086   5.122   5.917   0.640  0.8007 -1.1643  0.5989
 6151TIP3   OH240087   6.157   3.636   1.242  0.1483 -0.7361 -0.3943
 6151TIP3    H140088   6.182   3.677   1.159 -0.0393 -2.4526 -1.3346
 6151TIP3    H240089   6.082   3.687   1.272  2.6937  2.5857  0.9421
 6152TIP3   OH240090   4.198   6.428   7.908 -0.4000  0.5210  0.0604
 6152TIP3    H140091   4.194   6.426   7.812  0.2390 -1.9723  0.0132
 6152TIP3    H240092   4.191   6.336   7.934 -0.2415  1.1149  2.4079
 6153TIP3   OH240093   2.521   4.570   0.684  0.5117  0.6947 -0.3163
 6153TIP3    H140094   2.501   4.579   0.590 -0.5923 -0.2855 -0.1976
 6153TIP3    H240095   2.589   4.503   0.688  1.7884  1.9321 -0.5108
 6154TIP3   OH240096   4.472   0.472   8.578 -0.1534 -0.4193  0.0940
 6154TIP3    H140097   4.457   0.408   8.647 -0.1794 -1.7714 -1.1093
 6154TIP3    H240098   4.563   0.458   8.552  0.6919  1.8432  1.5400
 6155TIP3   OH240099   1.873   2.990   0.215 -0.2318  0.5436  0.1231
 6155TIP3    H140100   1.798   2.959   0.163  0.1693 -0.0983 -0.0851
 6155TIP3    H240101   1.920   3.049   0.157 -0.3892  0.6876  0.1400
 6156TIP3   OH240102   4.164   1.124   2.104  0.2731 -0.4171  0.1019
 6156TIP3    H140103   4.077   1.157   2.127  0.1846 -0.0124 -0.8009
 6156TIP3    H240104   4.198   1.089   2.187 -1.2559 -1.7763  0.2075
 6157TIP3   OH240105   3.606   5.025   0.337  0.1312 -0.1795 -0.0651
 6157TIP3    H140106   3.608   4.935   0.371  1.9221  0.6116  2.1597
 6157TIP3    H240107   3.691   5.062   0.362 -1.1129  2.5921  0.4309
 6158TIP3   OH240108   6.400   2.352   7.187  0.7367 -0.1680  0.7282
 6158TIP3    H140109   6.325   2.301   7.157  2.4008 -2.1525 -0.2529
 6158TIP3    H240110   6.467   2.338   7.121  2.1543  1.1771  1.8011
 6159TIP3   OH240111   6.194   0.672   0.227 -0.2381  0.2054 -0.5208
 6159TIP3    H140112   6.099   0.670   0.218 -0.3584 -0.7077  0.6612
 6159TIP3    H240113   6.226   0.619   0.154 -0.6236  0.5591 -0.9541
 6160TIP3   OH240114   0.778   1.770   6.778  0.1890 -0.4756  0.1586
 6160TIP3    H140115   0.774   1.676   6.762 -0.1207 -0.2426 -1.2493
 6160TIP3    H240116   0.861   1.798   6.738 -0.1196 -0.0289 -0.1780
 6161TIP3   OH240117   1.432   3.095   2.300 -0.6421  0.5479 -0.3946
 6161TIP3    H140118   1.457   3.003   2.307 -0.5380  0.5584 -0.6554
 6161TIP3    H240119   1.417   3.122   2.391 -0.4884  0.3269 -0.3030
 6162TIP3   OH240120   4.307   3.711   2.152 -0.2856 -0.2568 -0.5529
 6162TIP3    H140121   4.371   3.644   2.131 -1.2979 -1.0065 -1.3674
 6162TIP3    H240122   4.351   3.768   2.216  0.6176 -1.6327  0.0850
 6163TIP3   OH240123   1.248   6.862   7.574  0.5030 -0.6111  0.1747
 6163TIP3    H140124   1.299   6.934   7.610  1.5202 -1.7622  1.1065
 6163TIP3    H240125   1.189   6.836   7.644 -1.1178  0.4091 -0.7411
 6164TIP3   OH240126   1.700   5.118   7.996 -0.4008 -0.4249 -0.1300
 6164TIP3    H140127   1.767   5.143   8.060  0.1136 -1.2180 -0.3394
 6164TIP3    H240128   1.738   5.142   7.911 -0.7516 -0.0762 -0.1872
 6165TIP3   OH240129   4.586   3.200   0.358  0.3376 -0.2531 -1.0033
 6165TIP3    H140130   4.564   3.259   0.430 -0.8652 -0.7960 -0.8940
 6165TIP3    H240131   4.643   3.134   0.397  0.5989  0.0831 -0.8152
 6166TIP3   OH240132   1.850   4.048   7.877  0.2985  0.6844 -0.0215
 6166TIP3    H140133   1.876   4.106   7.806  0.0153  2.1300  1.0201
 6166TIP3    H240134   1.763   4.016   7.852  0.3771  0.8533 -0.5116
 6167TIP3   OH240135   1.751   2.295   1.553  0.4342 -0.0563 -0.0821
 6167TIP3    H140136   1.678   2.233   1.552  0.3744  0.0131  0.0257
 6167TIP3    H240137   1.827   2.241   1.532  0.3161 -0.0811 -0.4636
 6168TIP3   OH240138   5.825   0.495   7.449 -0.8962 -1.0807  0.1510
 6168TIP3    H140139   5.904   0.500   7.395 -0.9711  0.5240  0.1338
 6168TIP3    H240140   5.755   0.526   7.392 -1.2653 -0.9576  0.6631
 6169TIP3   OH240141   5.937   1.911   8.375  0.2455 -0.3671  0.5888
 6169TIP3    H140142   5.865   1.875   8.426 -0.7184  1.9944  1.0270
 6169TIP3    H240143   6.016   1.886   8.423 -0.3159 -2.0099  0.7180
 6170TIP3   OH240144   4.755   3.698   7.398 -0.0577 -0.5188  0.0733
 6170TIP3    H140145   4.789   3.647   7.325  0.8622  0.2805 -0.0901
 6170TIP3    H240146   4.715   3.634   7.457 -0.4250 -1.2169 -0.9196
 6171TIP3   OH240147   6.544   4.830   7.366 -0.4627 -0.0234  0.5439
 6171TIP3    H140148   6.554   4.925   7.358 -0.2482 -0.1009 -0.1342
 6171TIP3    H240149   6.628   4.794   7.337  0.2732 -0.3498  2.8837
 6172TIP3   OH240150   4.959   3.229   1.771 -0.0744 -0.7100 -0.1781
 6172TIP3    H140151   5.052   3.222   1.750  0.0898 -1.6724  0.7522
 6172TIP3    H240152   4.916   3.176   1.704  0.1593 -1.1145 -0.0200
 6173TIP3   OH240153   0.464   0.885   1.304  0.1934  0.3357 -0.2488
 6173TIP3    H140154   0.438   0.891   1.212  1.3038 -2.3266 -0.8348
 6173TIP3    H240155   0.390   0.842   1.347  1.2697 -2.2523 -0.8196
 6174TIP3   OH240156   1.862   0.576   8.158 -0.3114 -1.0575 -0.2866
 6174TIP3    H140157   1.807   0.606   8.086 -1.5276  0.9142  1.3552
 6174TIP3    H240158   1.833   0.486   8.174 -2.1622 -0.5114 -0.3144
 6175TIP3   OH240159   0.718   5.835   1.565  0.7006 -0.1639 -0.3410
 6175TIP3    H140160   0.649   5.882   1.518  1.4509  0.8039 -0.5164
 6175TIP3    H240161   0.687   5.745   1.570 -0.3755  0.1670 -0.7914
 6176TIP3   OH240162   0.972   4.006   1.804  0.5410  0.0985 -0.5348
 6176TIP3    H140163   1.007   3.988   1.717 -0.7366 -0.1155 -1.0259
 6176TIP3    H240164   1.044   3.985   1.864  0.1089 -4.0968 -1.2000
 6177TIP3   OH240165   0.090   0.666   2.020  0.5257 -0.2110  0.0323
 6177TIP3    H140166   0.171   0.718   2.024 -0.4861  1.4494 -0.1275
 6177TIP3    H240167   0.101   0.600   2.089  2.0170 -0.0312  0.0070
 6178TIP3   OH240168   6.919   4.143   7.984  0.5280 -0.0954  0.1816
 6178TIP3    H140169   6.957   4.179   8.065 -0.0244 -4.2541  2.5716
 6178TIP3    H240170   6.986   4.083   7.950 -0.4462 -0.7340 -0.6686
 6179TIP3   OH240171   0.383   4.352   1.992 -0.1952 -0.1503  0.0845
 6179TIP3    H140172   0.329   4.421   2.031 -0.4816  0.0860 -0.7185
 6179TIP3    H240173   0.409   4.298   2.066 -0.9899  0.1160  0.5730
 6180TIP3   OH240174   2.675   1.370   7.997 -0.0490 -0.6847 -0.0955
 6180TIP3    H140175   2.609   1.427   7.956  0.5637 -0.5451 -0.8953
 6180TIP3    H240176   2.732   1.431   8.044  0.3596 -0.6685 -0.6049
 6181TIP3   OH240177   5.837   0.427   0.976 -0.3396 -0.0877 -0.0524
 6181TIP3    H140178   5.883   0.508   0.997 -1.7438  1.2906 -1.9864
 6181TIP3    H240179   5.796   0.400   1.058  0.1573  1.1419  0.6165
 6182TIP3   OH240180   1.678   5.415   0.062 -0.0251  0.7066  0.4495
 6182TIP3    H140181   1.747   5.350   0.074 -2.0447 -1.2306  2.5147
 6182TIP3    H240182   1.707   5.491   0.113  0.6497 -0.0373  1.2049
 6183TIP3   OH240183   2.197   4.724   0.299  0.0844  0.4679  0.1613
 6183TIP3    H140184   2.152   4.804   0.273  2.6257  1.9487  0.0576
 6183TIP3    H240185   2.199   4.727   0.395 -0.9535 -0.1787  0.2215
 6184TIP3   OH240186   2.924   0.004   8.052  0.4324 -0.1067 -0.0239
 6184TIP3    H140187   2.854  -0.003   7.987  1.2673 -1.6955 -0.8174
 6184TIP3    H240188   2.897   0.077   8.108 -0.9883  0.4361 -1.3245
 6185TIP3   OH240189   1.078   0.943   7.492 -0.6592 -0.0339  0.2976
 6185TIP3    H140190   1.054   1.033   7.515 -0.9375  0.0333 -0.2165
 6185TIP3    H240191   1.062   0.938   7.397 -0.6470 -0.6246  0.3222
 6186TIP3   OH240192   2.225   4.080   1.871  0.5688 -1.3900 -0.4173
 6186TIP3    H140193   2.133   4.099   1.854 -0.3009 -2.5893  2.3359
 6186TIP3    H240194   2.223   4.009   1.935  3.4267 -1.2693 -0.0706
 6187TIP3   OH240195   2.446   5.874   0.939  0.0139 -0.1101 -0.3080
 6187TIP3    H140196   2.367   5.914   0.975  1.2492  1.4646  0.8124
 6187TIP3    H240197   2.467   5.802   0.999  0.4404  0.6605  0.4931
 6188TIP3   OH240198   3.177   5.129   1.025 -0.5095  0.6006  0.5273
 6188TIP3    H140199   3.082   5.123   1.034 -0.4160 -0.8259  0.8052
 6188TIP3    H240200   3.210   5.047   1.061  0.8458  1.1354  0.5692
 6189TIP3   OH240201   4.812   1.383   7.677 -0.1935 -0.0932  0.6316
 6189TIP3    H140202   4.829   1.474   7.654  1.6709 -0.6118 -0.1940
 6189TIP3    H240203   4.767   1.346   7.601  0.7817 -0.3276  0.1510
 6190TIP3   OH240204   0.884   5.261   1.173  0.5707  0.0927 -0.5170
 6190TIP3    H140205   0.916   5.309   1.250  1.4060  0.0869 -0.8512
 6190TIP3    H240206   0.791   5.283   1.168  0.6052  0.4264  0.2519
 6191TIP3   OH240207   3.762   0.443   1.766 -0.0499  0.2263 -0.4757
 6191TIP3    H140208   3.834   0.441   1.703  0.7321  1.4325  0.3427
 6191TIP3    H240209   3.696   0.498   1.724  0.0153  0.1300 -0.7089
 6192TIP3   OH240210   2.225   5.717   7.681  0.1017 -0.1440 -0.1421
 6192TIP3    H140211   2.169   5.673   7.617 -0.5676 -2.5887  1.9597
 6192TIP3    H240212   2.172   5.792   7.710 -0.9609 -0.8440 -0.1890
 6193TIP3   OH240213   2.128   0.513   7.856  0.0497 -0.0549  0.3368
 6193TIP3    H140214   2.173   0.553   7.930 -0.0143 -0.3594  0.5407
 6193TIP3    H240215   2.185   0.532   7.781 -0.4204  1.1803  0.2725
 6194TIP3   OH240216   5.783   4.607   7.385 -0.4199  0.3961  0.1478
 6194TIP3    H140217   5.719   4.536   7.395 -2.4465  2.0995 -0.1734
 6194TIP3    H240218   5.829   4.586   7.304  0.2781 -1.4427  0.9481
 6195TIP3   OH240219   0.493   5.570   0.233 -0.2196  0.1266 -0.0749
 6195TIP3    H140220   0.542   5.532   0.307  2.2260  0.2789 -1.5011
 6195TIP3    H240221   0.402   5.567   0.261  0.4228 -1.5685  2.1780
 6196TIP3   OH240222   3.026   6.638   2.670 -0.2714  0.0133 -0.5250
 6196TIP3    H140223   2.935   6.666   2.681  0.2749  2.7354 -2.2280
 6196TIP3    H240224   3.078   6.716   2.690  1.8120 -1.6975  1.2295
 6197TIP3   OH240225   1.787   3.271   2.030  0.7420  0.2591  0.4497
 6197TIP3    H140226   1.711   3.259   2.087 -0.4254  1.3770 -0.7876
 6197TIP3    H240227   1.822   3.357   2.055 -1.2530  1.9503 -1.9914
 6198TIP3   OH240228   3.878   6.853   1.426  0.0450  0.7248 -0.1044
 6198TIP3    H140229   3.801   6.807   1.394  0.0932  1.3633 -1.1922
 6198TIP3    H240230   3.938   6.783   1.453 -0.6518  0.2119  0.1450
 6199TIP3   OH240231   4.170   3.237   7.809 -0.4213 -0.0819 -0.1831
 6199TIP3    H140232   4.191   3.214   7.900 -2.4824 -1.4814  0.0080
 6199TIP3    H240233   4.249   3.213   7.760  0.5521  0.2415  1.1530
 6200TIP3   OH240234   5.523   2.173   8.276 -0.0467 -0.0694 -0.2254
 6200TIP3    H140235   5.576   2.126   8.212 -0.0008 -0.3488  0.0131
 6200TIP3    H240236   5.496   2.253   8.232 -1.1953 -0.9028 -1.1100
 6201TIP3   OH240237   2.562   1.061   7.249 -0.8093  0.3495  0.1894
 6201TIP3    H140238   2.527   1.150   7.248 -0.0968  0.6243 -1.0550
 6201TIP3    H240239   2.521   1.021   7.326 -0.9885  1.7986  0.8803
 6202TIP3   OH240240   1.476   2.198   1.450 -0.8692 -0.2232  0.1993
 6202TIP3    H140241   1.448   2.273   1.398 -3.3242 -0.1485  1.4867
 6202TIP3    H240242   1.404   2.183   1.512  0.6512 -2.0770  1.6602
 6203TIP3   OH240243   4.139   6.471   2.270 -0.4454 -0.0596 -0.2266
 6203TIP3    H140244   4.202   6.543   2.259 -0.8874  0.5294  0.9419
 6203TIP3    H240245   4.065   6.512   2.315 -1.2326 -0.9762 -0.6829
 6204TIP3   OH240246   0.267   6.679   0.574  0.3599  0.2688 -0.4145
 6204TIP3    H140247   0.180   6.682   0.614 -0.3028 -0.6543 -1.7118
 6204TIP3    H240248   0.302   6.767   0.587  0.0322  0.1282  1.7779
 6205TIP3   OH240249   5.576   5.698   1.373  0.1372  0.1532  0.3451
 6205TIP3    H140250   5.664   5.717   1.404 -0.8297  2.5024  1.9268
 6205TIP3    H240251   5.568   5.746   1.291  0.3412 -0.1549  0.1414
 6206TIP3   OH240252   3.095   6.036   6.732  0.4127  0.0105  0.0677
 6206TIP3    H140253   3.100   5.993   6.817  0.0430 -1.4518 -0.6083
 6206TIP3    H240254   3.147   5.980   6.674 -0.7717 -0.0066 -1.0315
 6207TIP3   OH240255   0.980   2.800   8.210  0.1699 -0.3983 -0.3167
 6207TIP3    H140256   1.037   2.816   8.135  1.4502 -1.0735  0.4822
 6207TIP3    H240257   0.961   2.706   8.207  1.1732 -0.6610  0.8227
 6208TIP3   OH240258   2.898   3.465   7.638  0.6793  0.4221  0.2717
 6208TIP3    H140259   2.825   3.442   7.581  0.5025 -1.5838  1.2148
 6208TIP3    H240260   2.885   3.558   7.657 -0.4746  0.5934 -1.1708
 6209TIP3   OH240261   5.816   5.504   7.615  0.0316  0.3716  0.0876
 6209TIP3    H140262   5.852   5.447   7.546  1.7706  0.8686  0.5358
 6209TIP3    H240263   5.822   5.592   7.578  1.8003  0.7464  1.1360
 6210TIP3   OH240264   3.410   4.368   5.753 -0.0566 -0.1897 -0.4415
 6210TIP3    H140265   3.455   4.295   5.797 -0.1169 -0.7565 -1.2940
 6210TIP3    H240266   3.374   4.329   5.673 -3.0037 -0.0334  0.6796
 6211TIP3   OH240267   0.704   2.978   0.077  0.0513 -0.1572 -0.0312
 6211TIP3    H140268   0.693   2.952  -0.015  1.1570  1.0226 -0.5262
 6211TIP3    H240269   0.655   3.059   0.085  1.0764  0.4725  0.0404
 6212TIP3   OH240270   1.778   3.884   1.486  0.0364 -0.1563  0.2289
 6212TIP3    H140271   1.725   3.932   1.550  0.3474  1.0530 -0.3788
 6212TIP3    H240272   1.718   3.823   1.444 -0.2905 -0.5815  1.2854
 6213TIP3   OH240273   4.964   4.403   1.023 -0.2052  0.0081  0.0655
 6213TIP3    H140274   5.040   4.462   1.026  0.1544 -0.4818  1.4437
 6213TIP3    H240275   4.950   4.379   1.114 -1.8128 -0.1976 -0.2133
 6214TIP3   OH240276   6.177   6.025   0.101  0.0293 -0.8541  0.3354
 6214TIP3    H140277   6.261   5.985   0.123 -0.3717 -1.0749  1.5573
 6214TIP3    H240278   6.139   5.966   0.035  1.2294 -0.2248 -0.9844
 6215TIP3   OH240279   5.821   3.781   1.397  0.2717 -0.1016 -0.6048
 6215TIP3    H140280   5.745   3.818   1.352 -0.7746 -1.2630  0.1431
 6215TIP3    H240281   5.896   3.824   1.356 -0.7185  0.1980 -2.2038
 6216TIP3   OH240282   0.957   0.309   0.431  0.2163 -0.3035 -0.0100
 6216TIP3    H140283   0.985   0.400   0.433 -1.4533  0.2378  1.6669
 6216TIP3    H240284   0.910   0.300   0.349 -1.9512  1.1621  0.9860
 6217TIP3   OH240285   0.419   6.821   1.418 -0.6277 -0.3109 -0.3547
 6217TIP3    H140286   0.503   6.810   1.373  0.0610  0.4674  0.6865
 6217TIP3    H240287   0.424   6.764   1.494 -0.5359  0.6134  0.3569
 6218TIP3   OH240288   5.427   1.610   0.219  0.3503 -0.0583  0.4287
 6218TIP3    H140289   5.488   1.624   0.147  0.9394 -1.0968  0.7177
 6218TIP3    H240290   5.393   1.522   0.207 -1.2735  0.5555  0.1635
 6219TIP3   OH240291   3.542   3.126   1.302 -0.1670  0.1042  0.8115
 6219TIP3    H140292   3.485   3.182   1.355 -1.3425 -0.0350 -0.2861
 6219TIP3    H240293   3.594   3.187   1.250 -1.4377  0.2138 -0.3730
 6220TIP3   OH240294   1.155   4.154   6.728  0.5341 -0.2297  0.6126
 6220TIP3    H140295   1.159   4.238   6.681 -1.7166 -0.4461 -0.1007
 6220TIP3    H240296   1.209   4.168   6.805  1.4040  1.3820 -0.2240
 6221TIP3   OH240297   3.274   5.292   7.303  0.5952 -0.1047 -0.2249
 6221TIP3    H140298   3.244   5.310   7.214  2.8014  1.4810 -0.7105
 6221TIP3    H240299   3.272   5.196   7.310 -3.1068 -0.1945 -0.6213
 6222TIP3   OH240300   3.604   5.536   1.810 -0.3713 -0.1471  0.1210
 6222TIP3    H140301   3.678   5.593   1.830 -0.5400  0.0941  0.0614
 6222TIP3    H240302   3.643   5.459   1.769  0.1148 -1.1447  2.3164
 6223TIP3   OH240303   5.913   1.394   7.130 -0.0258  0.2198 -0.4344
 6223TIP3    H140304   5.947   1.455   7.065  0.4293 -0.5731 -0.9551
 6223TIP3    H240305   5.889   1.316   7.080 -2.0790  0.5118 -0.0058
 6224TIP3   OH240306   2.408   5.140   1.288 -0.2778  0.7052  0.0276
 6224TIP3    H140307   2.403   5.117   1.381  0.5244  1.5093  0.2874
 6224TIP3    H240308   2.429   5.058   1.244  1.1127  0.6300  0.7663
 6225TIP3   OH240309   5.596   6.527   7.770 -0.1904  0.0951 -0.6142
 6225TIP3    H140310   5.677   6.549   7.723  1.3292 -0.8697  1.3942
 6225TIP3    H240311   5.549   6.610   7.778  2.3029  1.4722  1.1613
 6226TIP3   OH240312   2.307   0.457   1.933  0.5839 -0.2107  0.0814
 6226TIP3    H140313   2.356   0.452   2.015  1.7902 -1.8723 -0.6733
 6226TIP3    H240314   2.335   0.380   1.884 -1.3388 -0.1455 -1.2343
 6227TIP3   OH240315   6.878   3.337   6.994 -0.6735  0.0046 -0.3758
 6227TIP3    H140316   6.913   3.413   6.947  0.8628 -1.1190 -1.1131
 6227TIP3    H240317   6.955   3.294   7.031 -1.3412 -1.9269 -1.1107
 6228TIP3   OH240318   2.441   6.240   7.485  0.5043 -0.3429  0.4913
 6228TIP3    H140319   2.433   6.302   7.558  2.1231  0.7290 -0.1836
 6228TIP3    H240320   2.535   6.231   7.470  0.3933 -3.5934  1.0153
 6229TIP3   OH240321   5.496   1.022   1.123 -0.0217  0.0613  0.0490
 6229TIP3    H140322   5.525   1.037   1.213  1.2119 -0.6029 -0.2185
 6229TIP3    H240323   5.419   0.966   1.132  0.3821 -0.4092  0.6766
 6230TIP3   OH240324   1.335   0.288   1.394 -0.3857  0.1606 -0.7293
 6230TIP3    H140325   1.425   0.264   1.376 -0.5663 -2.5771  1.3298
 6230TIP3    H240326   1.292   0.205   1.415 -2.8050  1.6240  0.5715
 6231TIP3   OH240327   2.494   1.296   0.063  0.4039  0.3262 -0.6449
 6231TIP3    H140328   2.562   1.228   0.056  1.1205  1.0962 -1.4488
 6231TIP3    H240329   2.412   1.247   0.069  0.9690 -0.6184 -0.2557
 6232TIP3   OH240330   4.454   2.287   0.179  0.5481 -0.0831  0.3534
 6232TIP3    H140331   4.382   2.291   0.117  0.5816 -1.8971  0.1279
 6232TIP3    H240332   4.458   2.374   0.218 -0.8860  0.4378 -0.5969
 6233TIP3   OH240333   6.741   4.890   0.514 -0.4752 -0.0808 -0.1374
 6233TIP3    H140334   6.647   4.877   0.504 -0.7059  1.2626  0.1686
 6233TIP3    H240335   6.780   4.815   0.469 -1.6281  0.8852 -2.9645
 6234TIP3   OH240336   0.283   2.714   7.916 -0.2199 -0.3214 -0.5441
 6234TIP3    H140337   0.285   2.692   8.009  1.3189  2.9920  0.3951
 6234TIP3    H240338   0.370   2.751   7.899 -0.5023 -0.7287 -3.3091
 6235TIP3   OH240339   0.030   3.352   2.697 -0.3445  0.3504  0.4159
 6235TIP3    H140340  -0.051   3.307   2.671  1.0757 -1.1089 -1.8153
 6235TIP3    H240341   0.042   3.420   2.631  0.7861 -0.1471  0.0898
 6236TIP3   OH240342   0.337   0.454   7.404  0.0398 -0.2102 -0.5220
 6236TIP3    H140343   0.421   0.485   7.438 -0.4856  0.7571 -0.0452
 6236TIP3    H240344   0.360   0.394   7.333  1.1389 -0.9581  0.4311
 6237TIP3   OH240345   6.493   1.989   1.560  0.1541 -0.0907 -0.1399
 6237TIP3    H140346   6.425   1.991   1.493 -0.3618 -1.4757  0.3337
 6237TIP3    H240347   6.558   1.927   1.526 -0.7195 -1.7854  1.1958
 6238TIP3   OH240348   4.386   0.745   0.064 -0.1189  0.4044 -0.2648
 6238TIP3    H140349   4.446   0.718   0.133  0.0848  2.0320  0.2401
 6238TIP3    H240350   4.392   0.676  -0.002 -0.2268 -1.1240  1.2665
 6239TIP3   OH240351   3.158   2.942   1.470 -0.2191  0.5886 -0.5312
 6239TIP3    H140352   3.111   2.874   1.423  1.4028 -0.5576 -0.5882
 6239TIP3    H240353   3.213   2.984   1.404  2.7607 -1.6227  0.2669
 6240TIP3   OH240354   3.692   1.964   1.209  0.3863 -0.4831  0.2654
 6240TIP3    H140355   3.605   1.950   1.172  0.1134  1.1663  0.2071
 6240TIP3    H240356   3.690   1.918   1.293 -1.6161  1.9328  1.6823
 6241TIP3   OH240357   6.170   6.605   7.816  0.0666  0.2274  0.8321
 6241TIP3    H140358   6.191   6.543   7.746  0.6163 -0.5334  1.6440
 6241TIP3    H240359   6.111   6.668   7.775  0.3605 -0.2038 -0.3116
 6242TIP3   OH240360   5.462   4.148   0.625 -0.5052 -0.1215  0.2503
 6242TIP3    H140361   5.495   4.229   0.664  0.4466 -0.2071 -0.3242
 6242TIP3    H240362   5.498   4.149   0.536 -0.3720 -1.2284  0.2819
 6243TIP3   OH240363   6.092   0.114   8.528 -0.1987 -0.6430 -0.0377
 6243TIP3    H140364   6.071   0.180   8.462 -0.8510 -1.1289 -0.3329
 6243TIP3    H240365   6.184   0.094   8.513  0.1803  0.6233  0.4528
 6244TIP3   OH240366   1.643   4.349   1.967 -0.8902 -0.1646 -0.1507
 6244TIP3    H140367   1.598   4.394   1.895 -1.5617 -0.9014 -0.2129
 6244TIP3    H240368   1.651   4.415   2.035  0.6527  0.8338 -1.2472
 6245TIP3   OH240369   4.672   0.019   1.173  0.1170 -0.0864  0.0917
 6245TIP3    H140370   4.647   0.110   1.192 -0.3042 -0.4909  1.5548
 6245TIP3    H240371   4.628  -0.001   1.090  1.1570  1.4041 -0.8784
 6246TIP3   OH240372   4.089   6.336   8.293 -0.3370  0.1965  0.0652
 6246TIP3    H140373   3.997   6.320   8.271 -0.2382 -0.8776  0.3783
 6246TIP3    H240374   4.137   6.268   8.247  0.5687  2.0028 -1.8633
 6247TIP3   OH240375   1.590   2.060   8.366  0.1150  0.4294  0.3162
 6247TIP3    H140376   1.568   2.058   8.273  0.7026  1.2973  0.1441
 6247TIP3    H240377   1.654   2.131   8.374  2.1809 -1.4029  0.9263
 6248TIP3   OH240378   1.990   3.160   0.825 -0.0012  0.0993 -0.2151
 6248TIP3    H140379   1.963   3.235   0.879 -0.0840  0.7140 -1.0911
 6248TIP3    H240380   2.082   3.176   0.805 -0.1066  0.1314 -0.6730
 6249TIP3   OH240381   0.568   3.926   0.034 -0.5019 -0.2544  0.1591
 6249TIP3    H140382   0.573   4.005   0.087  1.4011 -1.0367  1.2427
 6249TIP3    H240383   0.498   3.944  -0.029 -1.9921  1.2067  2.0927
 6250TIP3   OH240384   2.606   3.273   8.532  0.2514 -0.4313  0.2737
 6250TIP3    H140385   2.530   3.299   8.584  1.0816  1.2068  0.7113
 6250TIP3    H240386   2.610   3.177   8.542 -1.6936 -0.5547  0.2732
 6251TIP3   OH240387   4.888   6.405   7.462 -0.5117  0.0466 -0.0472
 6251TIP3    H140388   4.826   6.421   7.391  0.3178 -0.5053 -0.9159
 6251TIP3    H240389   4.931   6.323   7.439  1.2573  0.8988 -0.0026
 6252TIP3   OH240390   5.568   1.615   7.482 -0.0336 -0.6719  0.2857
 6252TIP3    H140391   5.635   1.547   7.487 -0.4319 -1.2490 -1.4453
 6252TIP3    H240392   5.486   1.569   7.500 -0.2667 -0.5921 -0.5468
 6253TIP3   OH240393   2.168   1.124   7.884 -0.4648 -0.4086  0.3690
 6253TIP3    H140394   2.200   1.125   7.974 -2.2540  0.1616  1.0554
 6253TIP3    H240395   2.236   1.169   7.834  1.1554 -1.8272  1.1753
 6254TIP3   OH240396   0.125   1.420   0.003 -0.1514  0.4263 -0.3427
 6254TIP3    H140397   0.196   1.482  -0.013 -0.6287  1.2006  0.4924
 6254TIP3    H240398   0.167   1.334   0.001  0.8121  0.8768  0.1647
 6255TIP3   OH240399   1.748   2.325   2.206  0.2549 -0.3762  0.0516
 6255TIP3    H140400   1.790   2.397   2.159 -0.3460  0.6969  1.1364
 6255TIP3    H240401   1.785   2.329   2.294 -0.2626 -0.9967  0.3015
 6256TIP3   OH240402   4.415   6.485   1.141 -0.1448  0.0661  0.0632
 6256TIP3    H140403   4.432   6.394   1.117  1.6123 -0.0981  1.6793
 6256TIP3    H240404   4.487   6.534   1.102 -0.8936  0.7409 -0.5098
 6257TIP3   OH240405   0.341   4.200   1.685  0.0199  0.2703 -0.1569
 6257TIP3    H140406   0.434   4.178   1.687 -0.0145  0.0547 -0.6494
 6257TIP3    H240407   0.332   4.262   1.613  0.1655  2.2482  1.4414
 6258TIP3   OH240408   6.904   1.421   0.805  0.4009  0.2350  0.1811
 6258TIP3    H140409   6.966   1.463   0.864  0.0939  2.3219 -0.8739
 6258TIP3    H240410   6.959   1.386   0.734  0.6716 -1.3521  1.1327
 6259TIP3   OH240411   1.308   3.760   7.650 -0.2302  0.8945  0.2216
 6259TIP3    H140412   1.330   3.849   7.678  2.1836  0.0972  1.1627
 6259TIP3    H240413   1.327   3.705   7.726  1.3982 -0.7530 -1.2554
 6260TIP3   OH240414   5.718   5.292   0.704  0.2219 -0.0036 -0.0125
 6260TIP3    H140415   5.697   5.245   0.785 -0.9987  0.4690 -0.0426
 6260TIP3    H240416   5.647   5.355   0.693  0.0230 -0.4695 -1.7855
 6261TIP3   OH240417   6.893   2.644   0.967 -0.0514  0.0812  0.1585
 6261TIP3    H140418   6.898   2.601   0.882 -2.3036 -0.7219  0.3628
 6261TIP3    H240419   6.913   2.736   0.949  0.7506 -0.2920 -0.9824
 6262TIP3   OH240420   3.845   6.888   6.254 -0.2736 -0.1250  0.5671
 6262TIP3    H140421   3.822   6.978   6.278  0.9162  0.9563 -1.9670
 6262TIP3    H240422   3.928   6.872   6.298  1.4385  1.4984 -1.8436
 6263TIP3   OH240423   1.350   3.006   1.819 -0.4539 -0.2192  0.3362
 6263TIP3    H140424   1.427   3.063   1.822 -0.3016 -0.4273  0.4451
 6263TIP3    H240425   1.365   2.941   1.889 -0.6964 -0.3000  0.3159
 6264TIP3   OH240426   5.741   1.660   0.418 -0.1395 -0.1118  0.4140
 6264TIP3    H140427   5.662   1.659   0.364  0.2399 -1.9834 -0.1817
 6264TIP3    H240428   5.755   1.568   0.442  2.7578 -0.1313 -0.8901
 6265TIP3   OH240429   4.614   3.657   6.312  0.1849  0.3531  0.4120
 6265TIP3    H140430   4.617   3.593   6.241 -2.7494  0.3070  0.1939
 6265TIP3    H240431   4.627   3.605   6.391  1.6181  0.1178  0.0401
 6266TIP3   OH240432   0.373   0.088   7.034 -0.2090 -0.5277  0.1779
 6266TIP3    H140433   0.371   0.053   7.123 -2.1238 -1.4034 -0.1512
 6266TIP3    H240434   0.288   0.130   7.023 -1.2377 -2.9169 -2.1134
 6267TIP3   OH240435   1.516   6.884   8.221  0.4554 -0.9379  0.0281
 6267TIP3    H140436   1.545   6.804   8.176 -0.7023 -1.6325  0.4468
 6267TIP3    H240437   1.458   6.927   8.158 -0.4614 -1.4522  0.4966
 6268TIP3   OH240438   1.205   1.660   7.703 -0.5405 -0.6613 -0.2613
 6268TIP3    H140439   1.233   1.570   7.689 -0.6183 -1.0281  1.6469
 6268TIP3    H240440   1.284   1.713   7.691  0.1538 -1.2922  1.2960
 6269TIP3   OH240441   5.926   0.125   8.213 -0.1057  0.0548  0.1744
 6269TIP3    H140442   5.904   0.033   8.197  0.9946 -0.4233  1.2461
 6269TIP3    H240443   5.902   0.170   8.133 -1.6048 -0.9990  0.0015
 6270TIP3   OH240444   1.035   3.993   1.515  0.5190  0.1972 -0.2933
 6270TIP3    H140445   1.031   4.012   1.422  1.0759 -0.1723 -0.3979
 6270TIP3    H240446   1.128   3.996   1.537  0.3509  0.8129  0.3656
 6271TIP3   OH240447   5.385   2.375   8.110 -0.1680 -0.0586  0.1573
 6271TIP3    H140448   5.422   2.387   8.022  0.5169 -0.6784  0.3527
 6271TIP3    H240449   5.307   2.321   8.096 -1.0352  1.2343 -0.2539
 6272TIP3   OH240450   4.447   6.497   8.568 -0.2342 -0.0223  0.3041
 6272TIP3    H140451   4.489   6.534   8.490  0.1144  1.0685  0.9791
 6272TIP3    H240452   4.356   6.527   8.563  0.0221  0.8809  0.7947
 6273TIP3   OH240453   6.006   5.290   0.628 -0.4597  0.5002  0.4981
 6273TIP3    H140454   5.981   5.267   0.539  0.5291  1.5551 -0.0725
 6273TIP3    H240455   5.923   5.291   0.676 -1.2540  1.6954 -0.8238
 6274TIP3   OH240456   3.442   0.044   1.019 -0.5415  0.0987  0.1080
 6274TIP3    H140457   3.450   0.069   0.927 -1.5552  1.8375  0.4500
 6274TIP3    H240458   3.528   0.065   1.057  0.4302 -2.0884 -0.6971
 6275TIP3   OH240459   6.721   1.346   2.278 -0.0534  0.3438 -0.3390
 6275TIP3    H140460   6.760   1.300   2.353  0.5006  0.8270 -0.3209
 6275TIP3    H240461   6.711   1.436   2.308 -2.3303  0.0105  0.0745
 6276TIP3   OH240462   0.756   1.698   1.441 -0.1830  0.2582  0.1707
 6276TIP3    H140463   0.783   1.789   1.451 -0.9222  0.7214 -1.7295
 6276TIP3    H240464   0.838   1.650   1.429  0.1187  0.9221 -0.5080
 6277TIP3   OH240465   5.725   0.064   7.450 -0.1512  0.2222 -0.2345
 6277TIP3    H140466   5.718   0.133   7.384 -2.2941 -1.0065 -1.3891
 6277TIP3    H240467   5.654   0.082   7.512 -0.7531 -0.9108 -0.5618
 6278TIP3   OH240468   0.973   6.946   8.108  0.1414 -0.1261 -0.3880
 6278TIP3    H140469   0.981   6.948   8.013  0.8609 -2.0123 -0.3919
 6278TIP3    H240470   0.879   6.939   8.124  0.1195 -1.5153 -1.0296
 6279TIP3   OH240471   0.792   5.855   7.215 -0.2875 -0.6546 -0.5077
 6279TIP3    H140472   0.721   5.807   7.171 -0.5400 -2.1872  1.4292
 6279TIP3    H240473   0.763   5.947   7.212 -0.1833 -0.6179 -3.5947
 6280TIP3   OH240474   2.545   5.967   6.147 -0.6247  0.4803  0.3797
 6280TIP3    H140475   2.604   5.977   6.072 -0.0016  1.0261  0.9295
 6280TIP3    H240476   2.523   6.057   6.173 -0.7105  0.2998  0.9457
 6281TIP3   OH240477   1.075   5.866   1.140 -0.4178  0.2745 -0.0429
 6281TIP3    H140478   1.024   5.786   1.125  1.2445 -0.7431 -0.5083
 6281TIP3    H240479   1.048   5.894   1.228 -1.0554 -0.7870  0.1286
 6282TIP3   OH240480   0.932   6.024   0.804 -0.5098 -0.3182 -0.9094
 6282TIP3    H140481   0.970   6.108   0.831 -0.2701 -0.1715 -1.6613
 6282TIP3    H240482   0.841   6.046   0.782 -1.0085 -0.6380  0.7333
 6283TIP3   OH240483   0.571   4.581   7.356 -0.5484 -0.2840  0.1665
 6283TIP3    H140484   0.593   4.556   7.446  0.2102 -0.3878 -0.0391
 6283TIP3    H240485   0.511   4.512   7.325 -0.8801 -0.2012  0.6160
 6284TIP3   OH240486   2.603   4.623   1.020 -0.1986 -0.0143 -0.8298
 6284TIP3    H140487   2.692   4.589   1.021 -0.7920 -1.7111 -1.3779
 6284TIP3    H240488   2.598   4.681   1.096  1.4563  0.3761 -0.9945
 6285TIP3   OH240489   0.022   3.654   1.087 -0.6710 -0.2731  0.5687
 6285TIP3    H140490   0.097   3.702   1.054 -0.0040 -1.9277 -0.4208
 6285TIP3    H240491  -0.049   3.718   1.089  0.2621  0.8228 -0.3895
 6286TIP3   OH240492   5.390   5.176   7.986  0.4398  0.5270 -0.3944
 6286TIP3    H140493   5.486   5.180   7.984  0.6291 -1.2503  1.4027
 6286TIP3    H240494   5.367   5.201   8.075 -0.7928  0.9547 -0.8126
 6287TIP3   OH240495   5.580   4.175   0.373 -0.5923  0.0654 -0.4469
 6287TIP3    H140496   5.513   4.172   0.306  1.1687 -3.1555 -2.3406
 6287TIP3    H240497   5.591   4.083   0.400  1.8295  0.6741  0.9990
 6288TIP3   OH240498   5.444   1.475   6.815 -0.3642  0.4228  0.7386
 6288TIP3    H140499   5.446   1.430   6.899 -0.6199 -1.7747 -0.3552
 6288TIP3    H240500   5.350   1.484   6.795 -0.2978  0.6507  0.5250
 6289TIP3   OH240501   1.510   5.337   1.122 -0.3210  0.1628  0.0303
 6289TIP3    H140502   1.447   5.394   1.165  1.6472  1.8925  0.7852
 6289TIP3    H240503   1.523   5.376   1.035 -0.3979 -0.2706 -0.1785
 6290TIP3   OH240504   1.214   4.455   1.105  0.0325 -0.0702 -0.2432
 6290TIP3    H140505   1.240   4.432   1.193  0.1146  1.1292  0.0616
 6290TIP3    H240506   1.289   4.433   1.050  0.1418 -0.4109  0.0427
 6291TIP3   OH240507   2.905   4.198   0.803 -0.1813 -0.2846  0.5531
 6291TIP3    H140508   2.882   4.105   0.798  1.1348 -0.6127  0.3947
 6291TIP3    H240509   2.985   4.200   0.856 -0.2057  0.7664  0.5639
 6292TIP3   OH240510   5.286   6.731   8.087 -0.7174 -0.0409 -0.5216
 6292TIP3    H140511   5.347   6.657   8.085 -0.5629  0.0592  0.1948
 6292TIP3    H240512   5.264   6.747   7.995 -0.8089 -1.0179 -0.6750
 6293TIP3   OH240513   3.876   2.021   2.486 -0.5646 -0.0191  0.3928
 6293TIP3    H140514   3.827   2.094   2.522 -2.3346  0.3659 -2.4856
 6293TIP3    H240515   3.965   2.033   2.519 -1.4614  1.6502  2.4214
 6294TIP3   OH240516   6.660   2.837   2.355 -0.3223  0.2058  1.1228
 6294TIP3    H140517   6.641   2.926   2.387  0.3919 -0.3187  3.1495
 6294TIP3    H240518   6.575   2.804   2.325 -1.1325  0.6786  2.7798
 6295TIP3   OH240519   3.313   2.551   1.306 -0.2402 -0.5772  0.2161
 6295TIP3    H140520   3.282   2.615   1.371  0.2618 -0.9872  0.8750
 6295TIP3    H240521   3.340   2.604   1.232  1.0367  0.0848  1.1040
 6296TIP3   OH240522   5.918   0.952   8.076  0.9050  0.1805  0.3007
 6296TIP3    H140523   5.914   0.858   8.090 -0.1771  0.2727  0.6862
 6296TIP3    H240524   5.828   0.978   8.057  1.1013  1.2074  0.6790
 6297TIP3   OH240525   5.306   1.249   1.240  0.9231  0.1424 -0.1539
 6297TIP3    H140526   5.300   1.255   1.144 -1.9698 -1.2272 -0.1765
 6297TIP3    H240527   5.396   1.224   1.257  1.1251 -1.2109 -2.6884
 6298TIP3   OH240528   6.004   3.716   7.257  0.0442 -0.3428 -0.0655
 6298TIP3    H140529   6.088   3.671   7.264  0.0840 -0.4267 -0.9664
 6298TIP3    H240530   5.980   3.708   7.164 -1.2416 -0.8300  0.2862
 6299TIP3   OH240531   2.888   0.284   6.698 -0.6370 -0.3727 -0.2308
 6299TIP3    H140532   2.885   0.189   6.708  1.1918 -0.4395 -0.0263
 6299TIP3    H240533   2.874   0.317   6.787  0.8124 -0.5336  0.0770
 6300TIP3   OH240534   5.796   6.625   8.099  0.0789 -0.1810 -0.1969
 6300TIP3    H140535   5.836   6.583   8.175 -2.3993 -1.8673  0.3004
 6300TIP3    H240536   5.786   6.555   8.035  0.8357  0.9118 -1.5699
 6301TIP3   OH240537   4.109   3.517   0.966 -0.1164  0.4562 -0.3642
 6301TIP3    H140538   4.147   3.590   1.015  0.2072 -0.0613  0.1681
 6301TIP3    H240539   4.075   3.459   1.033  3.4462 -2.0470 -0.4312
 6302TIP3   OH240540   2.945   5.378   1.984  0.0284 -0.0632 -1.0870
 6302TIP3    H140541   2.896   5.296   1.987  1.7397 -1.1186 -0.3973
 6302TIP3    H240542   2.894   5.438   2.038 -0.3415 -1.2235 -0.0932
 6303TIP3   OH240543   4.202   2.954   0.063 -0.2404 -0.2492 -0.8676
 6303TIP3    H140544   4.177   3.013   0.135  1.5559 -1.3662  0.7695
 6303TIP3    H240545   4.221   2.871   0.106  0.9699 -0.9328 -2.6296
 6304TIP3   OH240546   2.757   5.149   6.999  0.3259 -0.7459 -0.2085
 6304TIP3    H140547   2.787   5.125   7.087 -0.2686  0.6966  0.4368
 6304TIP3    H240548   2.666   5.178   7.012  0.5618  0.4877 -1.1015
 6305TIP3   OH240549   2.762   3.276   1.871 -0.1331  0.2077 -0.2317
 6305TIP3    H140550   2.714   3.346   1.916 -1.0660 -0.8332  0.4466
 6305TIP3    H240551   2.737   3.287   1.779 -0.6648  0.4665 -0.0655
 6306TIP3   OH240552   5.996   0.633   1.341  0.4524  0.1769 -0.2971
 6306TIP3    H140553   5.952   0.685   1.409 -1.9621 -1.5613 -0.4139
 6306TIP3    H240554   6.089   0.637   1.364 -0.1063  1.0863  2.0752
 6307TIP3   OH240555   0.389   2.028   0.188  0.4411 -0.5520  0.5211
 6307TIP3    H140556   0.450   2.066   0.125 -0.0972 -0.4580  0.0543
 6307TIP3    H240557   0.405   1.934   0.183  3.0333 -0.3890  2.9447
 6308TIP3   OH240558   4.172   1.988   2.283  0.3805  0.5764  0.0535
 6308TIP3    H140559   4.145   2.078   2.268 -2.0621 -0.0141  0.4459
 6308TIP3    H240560   4.165   1.976   2.378 -1.2822 -0.5222 -0.1601
 6309TIP3   OH240561   3.429   0.653   2.901  0.5508 -0.0705  0.1745
 6309TIP3    H140562   3.416   0.747   2.887  1.8399  0.1694  0.4664
 6309TIP3    H240563   3.393   0.611   2.823 -2.5969  0.4250  1.1992
 6310TIP3   OH240564   1.631   4.909   7.488  0.6257  0.2015 -0.2167
 6310TIP3    H140565   1.718   4.875   7.467  1.3127  0.1250  2.4259
 6310TIP3    H240566   1.641   5.004   7.487  0.7983  0.1891  0.2963
 6311TIP3   OH240567   6.910   1.797   7.942 -0.0972 -0.2010  0.1731
 6311TIP3    H140568   6.851   1.870   7.923  1.0626  0.6226 -0.3374
 6311TIP3    H240569   6.851   1.724   7.962 -1.3185  0.2561 -1.5506
 6312TIP3   OH240570   5.911   4.867   1.099 -0.1562 -0.6350  0.1697
 6312TIP3    H140571   5.958   4.948   1.119 -0.0005 -0.8305  0.6035
 6312TIP3    H240572   5.865   4.886   1.017 -0.3730  0.0014  0.4301
 6313TIP3   OH240573   2.737   3.937   1.335  0.1300 -0.1944 -0.0010
 6313TIP3    H140574   2.651   3.908   1.306  0.1498 -0.1909 -0.0622
 6313TIP3    H240575   2.779   3.857   1.368  0.3062 -0.2969 -0.4650
 6314TIP3   OH240576   5.008   6.749   1.373 -0.5293  0.0160 -0.2618
 6314TIP3    H140577   5.038   6.678   1.430 -1.7489 -0.2039  0.1242
 6314TIP3    H240578   5.017   6.714   1.284  1.2913  0.3253 -0.2405
 6315TIP3   OH240579   3.817   5.403   7.952 -0.8799  0.1181 -0.2183
 6315TIP3    H140580   3.870   5.470   7.910 -2.6394  2.7177  1.3717
 6315TIP3    H240581   3.802   5.338   7.884  4.5756 -1.1476 -0.6416
 6316TIP3   OH240582   5.099   2.848   1.269  0.1971  0.3188 -0.1634
 6316TIP3    H140583   5.023   2.812   1.315 -0.6194  0.4513 -1.3554
 6316TIP3    H240584   5.173   2.798   1.303 -0.6402 -1.0364 -0.2296
 6317TIP3   OH240585   5.949   3.411   1.547 -0.4815  0.0976 -0.1599
 6317TIP3    H140586   5.919   3.320   1.556 -0.9657  0.1877 -0.7294
 6317TIP3    H240587   5.897   3.445   1.474  1.3386  0.1299 -1.5186
 6318TIP3   OH240588   0.941   3.200   0.269 -0.1686 -0.5271 -0.4588
 6318TIP3    H140589   0.887   3.140   0.321 -1.5078  0.6342 -0.4589
 6318TIP3    H240590   1.026   3.201   0.314 -0.6168 -1.2166  0.4367
 6319TIP3   OH240591   5.650   3.063   2.503 -0.5001  0.1290  0.0895
 6319TIP3    H140592   5.609   3.042   2.419  1.2298 -0.7662 -0.5640
 6319TIP3    H240593   5.678   2.979   2.538 -2.0616  0.3732  2.0811
 6320TIP3   OH240594   4.555   2.183   1.058 -0.8121  0.3882  0.3949
 6320TIP3    H140595   4.552   2.088   1.064  1.4514  0.3028  1.0496
 6320TIP3    H240596   4.540   2.202   0.965  0.6340 -0.7625 -0.1133
 6321TIP3   OH240597   6.590   6.742   7.864  0.2508 -0.4885  0.1418
 6321TIP3    H140598   6.553   6.667   7.910  1.3374 -1.5577 -0.6768
 6321TIP3    H240599   6.520   6.807   7.863 -1.0225 -1.8341  0.0436
 6322TIP3   OH240600   5.247   4.272   0.018 -0.1450 -0.1088 -0.5435
 6322TIP3    H140601   5.176   4.277  -0.045 -0.8315 -0.2154  0.2158
 6322TIP3    H240602   5.246   4.356   0.064 -0.8888 -0.7361  0.6331
 6323TIP3   OH240603   3.883   0.196   8.160  0.6017 -0.5297  0.2322
 6323TIP3    H140604   3.815   0.137   8.128  0.9637 -1.4630  1.1169
 6323TIP3    H240605   3.955   0.187   8.098  0.7111 -1.1470  0.4434
 6324TIP3   OH240606   1.043   6.292   0.439  0.4461  0.4514  0.0825
 6324TIP3    H140607   1.107   6.248   0.496  0.2613 -0.2089 -0.2071
 6324TIP3    H240608   0.980   6.223   0.417  2.4044 -0.3656 -3.8003
 6325TIP3   OH240609   5.182   3.845   1.954 -0.3036 -0.0924 -0.1635
 6325TIP3    H140610   5.106   3.896   1.983 -0.3589  0.0513 -0.5510
 6325TIP3    H240611   5.254   3.908   1.956 -0.8139  0.7799 -3.0532
 6326TIP3   OH240612   3.988   6.336   6.302  0.9719 -0.6377 -0.2195
 6326TIP3    H140613   4.064   6.359   6.248  1.0472  0.3883  0.2935
 6326TIP3    H240614   4.024   6.326   6.390  0.5255 -0.1632  0.0230
 6327TIP3   OH240615   1.213   1.469   8.234 -0.0922  0.4675  0.4968
 6327TIP3    H140616   1.295   1.514   8.216 -0.1209  0.0044 -0.9247
 6327TIP3    H240617   1.202   1.408   8.160 -1.0615 -0.4054  1.3165
 6328TIP3   OH240618   4.543   5.083   1.809 -0.2207 -0.2808 -0.1435
 6328TIP3    H140619   4.595   5.015   1.767  0.7929  0.7906 -0.6929
 6328TIP3    H240620   4.556   5.160   1.754 -1.2491  0.3885  0.5230
 6329TIP3   OH240621   2.628   2.799   7.518  0.3706  0.1638 -0.1816
 6329TIP3    H140622   2.561   2.761   7.461 -0.9492  0.3191  1.1942
 6329TIP3    H240623   2.685   2.725   7.541 -0.4176 -0.3693  0.0893
 6330TIP3   OH240624   5.772   6.922   8.394 -0.8139  0.1992 -0.1754
 6330TIP3    H140625   5.750   6.975   8.470 -1.7164 -0.1091 -0.2056
 6330TIP3    H240626   5.822   6.981   8.337 -1.9438  1.0888 -0.2868
 6331TIP3   OH240627   0.335   1.473   2.452 -0.0371 -0.1694 -0.2637
 6331TIP3    H140628   0.298   1.561   2.462 -1.4874 -0.7352 -0.4489
 6331TIP3    H240629   0.288   1.436   2.377 -2.0794 -2.3798  1.9207
 6332TIP3   OH240630   6.686   5.759   7.342  0.2358 -0.9440 -0.1939
 6332TIP3    H140631   6.762   5.799   7.299  1.8047 -1.7965  1.6454
 6332TIP3    H240632   6.701   5.665   7.336 -1.0045 -1.1582 -0.2987
 6333TIP3   OH240633   3.869   3.339   2.458 -0.2156  0.1147 -0.3791
 6333TIP3    H140634   3.844   3.263   2.510 -1.5005  1.0628  0.4518
 6333TIP3    H240635   3.900   3.303   2.375 -0.8039 -1.3033 -0.0023
 6334TIP3   OH240636   3.687   1.319   0.678 -0.2797 -0.1151 -0.0426
 6334TIP3    H140637   3.710   1.396   0.626  2.1139 -0.3977  0.4629
 6334TIP3    H240638   3.674   1.249   0.614 -0.1049  0.1801 -0.4009
 6335TIP3   OH240639   4.361   5.228   0.718 -0.4939  1.0172 -0.8543
 6335TIP3    H140640   4.451   5.243   0.688 -0.6210  1.5800 -0.9675
 6335TIP3    H240641   4.309   5.232   0.638 -0.4009 -1.3169 -1.0794
 6336TIP3   OH240642   4.420   3.049   6.806 -0.1309  0.4057 -0.0138
 6336TIP3    H140643   4.331   3.015   6.814 -0.5920  1.0449 -1.7823
 6336TIP3    H240644   4.464   2.988   6.748  0.5568  0.1542  0.7694
 6337TIP3   OH240645   5.888   5.092   7.242  0.3055 -0.1009  0.0903
 6337TIP3    H140646   5.840   5.012   7.221  1.3994 -1.0085  0.9259
 6337TIP3    H240647   5.886   5.096   7.338 -0.5093  1.3813  0.0325
 6338TIP3   OH240648   4.804   2.676   7.733 -0.1815  0.4435  0.1174
 6338TIP3    H140649   4.711   2.692   7.749 -0.2163 -0.1813  0.5500
 6338TIP3    H240650   4.811   2.581   7.719  0.6038  0.2504  1.6166
 6339TIP3   OH240651   3.407   5.758   2.629  0.1007 -0.3538  0.1573
 6339TIP3    H140652   3.358   5.833   2.661 -0.2469 -0.1957 -0.7115
 6339TIP3    H240653   3.499   5.782   2.638  0.0643 -0.7748  2.1025
 6340TIP3   OH240654   2.470   3.186   1.065  0.3578  0.4377  0.5896
 6340TIP3    H140655   2.438   3.096   1.062 -0.3196  0.6982 -0.4904
 6340TIP3    H240656   2.535   3.191   0.995 -0.5344  1.1162 -0.2205
 6341TIP3   OH240657   3.930   3.890   2.090 -0.0853  0.2087 -0.1925
 6341TIP3    H140658   4.007   3.945   2.073 -0.5843  0.6820 -0.9991
 6341TIP3    H240659   3.966   3.808   2.124  0.7365  0.6574  0.0354
 6342TIP3   OH240660   0.612   3.766   8.346 -0.3657 -0.3701 -0.6327
 6342TIP3    H140661   0.527   3.752   8.305 -0.5022 -2.1034  0.1559
 6342TIP3    H240662   0.592   3.805   8.431 -0.4008 -0.9877 -0.3532
 6343TIP3   OH240663   2.491   2.702   1.146 -0.2613  0.0882  0.3629
 6343TIP3    H140664   2.535   2.640   1.205 -1.1322 -0.6329  0.2757
 6343TIP3    H240665   2.552   2.776   1.139  0.6188 -0.5801  0.7878
 6344TIP3   OH240666   1.666   1.933   7.401  0.0953  0.0326  0.8147
 6344TIP3    H140667   1.607   1.860   7.419 -0.8192  0.1619 -1.3335
 6344TIP3    H240668   1.740   1.893   7.355  0.2058  0.2774  0.7794
 6345TIP3   OH240669   1.463   5.291   1.485  1.0211 -0.1742  0.1066
 6345TIP3    H140670   1.489   5.382   1.470  0.9511 -0.1860 -0.0872
 6345TIP3    H240671   1.527   5.258   1.549  1.6647 -0.2882 -0.5757
 6346TIP3   OH240672   3.047   6.805   6.833  0.4796 -0.0775 -0.7511
 6346TIP3    H140673   2.988   6.860   6.782 -0.6127  0.5314  1.0664
 6346TIP3    H240674   3.091   6.867   6.892 -0.0192 -0.9811  0.6241
 6347TIP3   OH240675   1.533   1.228   0.328  0.3228  0.4390 -0.5348
 6347TIP3    H140676   1.579   1.179   0.396  1.3704 -0.9258 -2.1637
 6347TIP3    H240677   1.601   1.279   0.285  0.0834 -0.3496 -1.9142
 6348TIP3   OH240678   2.325   4.434   1.184 -0.0617 -0.4195  0.1980
 6348TIP3    H140679   2.365   4.356   1.222  0.1265 -0.1134  0.6464
 6348TIP3    H240680   2.343   4.428   1.090 -1.3478 -1.6710  0.0025
 6349TIP3   OH240681   6.216   1.189   0.401 -0.1417 -0.3557 -0.0627
 6349TIP3    H140682   6.224   1.100   0.433  0.1204 -0.2681  0.1205
 6349TIP3    H240683   6.231   1.244   0.479 -1.7915 -0.1599  0.1641
 6350TIP3   OH240684   6.743   2.281   1.527  0.6187 -0.0516 -0.1284
 6350TIP3    H140685   6.727   2.310   1.617 -0.3664  0.0201 -0.3179
 6350TIP3    H240686   6.772   2.190   1.536 -0.6599 -0.4460  0.2018
 6351TIP3   OH240687   1.807   3.277   7.918  0.0286 -0.3777  0.0508
 6351TIP3    H140688   1.805   3.367   7.951 -0.5158 -0.4714  0.2807
 6351TIP3    H240689   1.877   3.277   7.853 -1.0756  0.6586 -1.1991
 6352TIP3   OH240690   5.938   4.938   1.941 -0.8135 -0.0708  0.6540
 6352TIP3    H140691   5.853   4.960   1.979 -0.0685  0.4547  2.0950
 6352TIP3    H240692   5.947   4.998   1.867 -2.1547 -0.8873 -0.2097
 6353TIP3   OH240693   6.802   0.656   0.323 -0.1737 -0.1428 -0.3142
 6353TIP3    H140694   6.730   0.634   0.264  0.9003 -0.8606 -1.4107
 6353TIP3    H240695   6.761   0.706   0.394 -1.7875 -0.8352 -0.7189
 6354TIP3   OH240696   1.337   2.679   1.047 -0.3338  0.3226  0.2165
 6354TIP3    H140697   1.298   2.759   1.011  1.1149  0.8641 -0.2396
 6354TIP3    H240698   1.427   2.680   1.014 -0.2083 -1.3694  0.4351
 6355TIP3   OH240699   0.750   0.729   7.339 -0.2724  0.6418 -0.3069
 6355TIP3    H140700   0.808   0.726   7.414 -0.3570  2.5156 -0.1178
 6355TIP3    H240701   0.682   0.792   7.363 -1.4671 -0.2410 -1.1794
 6356TIP3   OH240702   1.748   2.338   7.441  0.0804 -0.1659 -0.0379
 6356TIP3    H140703   1.833   2.301   7.419 -0.6102 -2.3067  0.6187
 6356TIP3    H240704   1.702   2.267   7.487 -1.6513  1.2839  0.6004
 6357TIP3   OH240705   0.184   4.973   1.410 -0.1930 -0.2900  0.4087
 6357TIP3    H140706   0.232   4.928   1.479  0.3176  0.5557  0.6160
 6357TIP3    H240707   0.173   5.062   1.443  1.9221  0.7584 -1.4616
 6358TIP3   OH240708   3.970   5.920   1.837 -0.2216  0.2732 -1.0819
 6358TIP3    H140709   4.057   5.881   1.831 -0.3827 -0.0016 -1.6821
 6358TIP3    H240710   3.965   5.953   1.927  0.4195  0.1049 -0.9779
 6359TIP3   OH240711   5.667   3.372   7.986 -0.7669  0.0585 -0.5552
 6359TIP3    H140712   5.662   3.311   8.060 -1.0952  1.1782  0.3705
 6359TIP3    H240713   5.748   3.347   7.940 -1.1200 -1.3407 -0.4678
 6360TIP3   OH240714   6.844   2.215   2.204 -0.2021 -0.3779  0.2477
 6360TIP3    H140715   6.895   2.212   2.285 -1.8923  1.6949  1.5021
 6360TIP3    H240716   6.899   2.264   2.143  0.4702 -0.6352  0.6351
 6361TIP3   OH240717   2.974   3.516   7.946 -0.7406 -0.4162  0.7415
 6361TIP3    H140718   2.980   3.518   7.851 -3.2987  3.3265  0.4130
 6361TIP3    H240719   3.060   3.545   7.977 -0.5077  0.3419 -0.5550
 6362TIP3   OH240720   5.046   6.019   7.681 -0.0280 -0.3371 -0.2739
 6362TIP3    H140721   5.120   6.078   7.682  0.8749 -1.4440  0.1473
 6362TIP3    H240722   5.019   6.017   7.589  1.5400 -1.2013 -0.7468
 6363TIP3   OH240723   2.271   6.311   6.766  0.2857  0.4005 -0.2402
 6363TIP3    H140724   2.305   6.398   6.744  2.3038  0.1919  1.7243
 6363TIP3    H240725   2.262   6.312   6.861  2.1669 -2.0990  0.0603
 6364TIP3   OH240726   6.417   3.777   8.435  0.1010 -0.4482  0.4006
 6364TIP3    H140727   6.419   3.872   8.447  1.4151 -0.3472 -0.3978
 6364TIP3    H240728   6.455   3.763   8.349 -2.1204 -1.5850 -0.4925
 6365TIP3   OH240729   6.813   6.313   6.998 -0.1441 -0.5658 -0.3801
 6365TIP3    H140730   6.864   6.386   6.964 -0.4863 -0.4033 -0.5447
 6365TIP3    H240731   6.852   6.236   6.957  1.0207 -0.6159  0.7191
 6366TIP3   OH240732   1.856   4.555   0.035  0.7036 -0.2001 -0.3507
 6366TIP3    H140733   1.915   4.501  -0.018 -0.9770 -0.9644 -1.5402
 6366TIP3    H240734   1.792   4.589  -0.027 -1.1736 -0.8815  1.1109
 6367TIP3   OH240735   3.175   1.649   0.592 -0.2164  0.3492 -0.0125
 6367TIP3    H140736   3.181   1.704   0.670  0.6252 -1.8497  1.5915
 6367TIP3    H240737   3.092   1.674   0.551 -0.5202  1.7977  1.3952
 6368TIP3   OH240738   0.253   4.957   0.657 -0.3914 -0.2798  0.1344
 6368TIP3    H140739   0.253   4.907   0.576  0.4754 -1.9505  1.1122
 6368TIP3    H240740   0.335   5.007   0.655 -0.1501 -0.6748  0.1932
 6369TIP3   OH240741   3.000   4.621   6.797  0.1662 -0.2152 -0.1954
 6369TIP3    H140742   2.991   4.542   6.744  1.7763 -0.5023 -0.1118
 6369TIP3    H240743   2.986   4.592   6.887 -2.4723  0.2541 -0.3730
 6370TIP3   OH240744   0.505   2.260   7.036  0.0076 -0.0005 -0.3862
 6370TIP3    H140745   0.412   2.250   7.057  0.5545  0.2679  2.5768
 6370TIP3    H240746   0.542   2.172   7.044  0.3763  0.2382  0.6018
 6371TIP3   OH240747   6.561   0.808   7.296 -0.0087  0.5927  0.3917
 6371TIP3    H140748   6.498   0.869   7.258  0.9441  0.8164 -0.9116
 6371TIP3    H240749   6.646   0.835   7.260  0.3574 -1.9958 -0.9629
 6372TIP3   OH240750   3.243   5.654   0.144  0.4238  0.6542 -0.0449
 6372TIP3    H140751   3.198   5.738   0.143 -0.9296 -0.0174  0.3735
 6372TIP3    H240752   3.312   5.661   0.078 -0.5005  1.6427 -0.9314
 6373TIP3   OH240753   2.036   0.035   1.445  0.3007  0.0503  0.0835
 6373TIP3    H140754   2.091   0.093   1.497 -1.9552  2.4308  0.0570
 6373TIP3    H240755   1.947   0.050   1.478 -0.9533 -0.0638 -2.8552
 6374TIP3   OH240756   4.362   4.435   0.393 -0.4234  0.1993 -0.5792
 6374TIP3    H140757   4.425   4.467   0.329 -0.9781  1.5755 -0.4666
 6374TIP3    H240758   4.298   4.386   0.342 -0.6184  0.9068 -1.0183
 6375TIP3   OH240759   4.177   5.449   2.460  0.5250 -0.2670 -0.0386
 6375TIP3    H140760   4.107   5.513   2.472  0.2258 -0.4707 -0.6167
 6375TIP3    H240761   4.244   5.496   2.411  0.0681 -0.5318 -0.9557
 6376TIP3   OH240762   6.050   4.130   1.774 -0.3853  0.0145  0.4277
 6376TIP3    H140763   5.961   4.096   1.768  0.0825 -1.2315  0.0737
 6376TIP3    H240764   6.040   4.225   1.779 -1.7275 -0.1112  0.4569
 6377TIP3   OH240765   4.623   4.284   7.615 -0.2040  0.0728 -0.1591
 6377TIP3    H140766   4.679   4.362   7.621  1.1012 -0.3541 -4.1347
 6377TIP3    H240767   4.678   4.212   7.646  0.4861  0.0693 -1.3352
 6378TIP3   OH240768   0.670   6.698   7.193 -0.1164  0.6095  0.0232
 6378TIP3    H140769   0.660   6.627   7.129  2.0904 -0.4630  0.7878
 6378TIP3    H240770   0.584   6.704   7.235  0.1636 -3.1966  1.4797
 6379TIP3   OH240771   1.484   3.047   8.163  0.1541  0.4091  0.0590
 6379TIP3    H140772   1.476   3.037   8.068  0.6422  1.3726 -0.0922
 6379TIP3    H240773   1.420   2.985   8.199 -1.2640  1.2629 -0.9137
 6380TIP3   OH240774   1.457   5.520   1.787  0.4223  0.0086 -0.2521
 6380TIP3    H140775   1.546   5.549   1.807 -0.4138  1.6991  1.3374
 6380TIP3    H240776   1.413   5.517   1.872 -1.0937 -0.5678 -1.0201
 6381TIP3   OH240777   0.487   0.268   0.696 -0.0749  0.1455 -0.1612
 6381TIP3    H140778   0.454   0.249   0.607 -0.6325  0.9455 -0.1354
 6381TIP3    H240779   0.441   0.348   0.722 -1.2903 -1.0398  1.5546
 6382TIP3   OH240780   1.333   4.515   7.690 -0.0522 -0.3785 -0.4033
 6382TIP3    H140781   1.404   4.574   7.666 -1.2258  0.9723 -0.6271
 6382TIP3    H240782   1.369   4.427   7.675  1.7663  0.2389  0.0590
 6383TIP3   OH240783   3.676   3.895   7.129  0.4294  0.2721  0.0195
 6383TIP3    H140784   3.660   3.878   7.222 -1.1636  1.5874  0.0268
 6383TIP3    H240785   3.633   3.978   7.111  0.6050  0.0044 -1.9380
 6384TIP3   OH240786   3.481   4.744   7.084  0.2111 -0.6009  0.4512
 6384TIP3    H140787   3.546   4.727   7.152  1.5154  0.3630 -0.5098
 6384TIP3    H240788   3.515   4.700   7.006  1.3292  2.3615 -0.8633
 6385TIP3   OH240789   3.764   2.357   8.012 -0.4907 -0.6228 -0.4077
 6385TIP3    H140790   3.754   2.270   7.973 -1.1016 -0.4118 -0.7367
 6385TIP3    H240791   3.679   2.376   8.052  0.0228 -0.6867  0.7530
 6386TIP3   OH240792   6.337   5.812   8.323  0.1416 -0.2761 -0.0218
 6386TIP3    H140793   6.317   5.839   8.233 -2.4986  1.5309  1.0200
 6386TIP3    H240794   6.373   5.890   8.364 -2.1360  0.0644  1.4530
 6387TIP3   OH240795   3.548   2.581   1.876 -0.2925  0.3849 -0.1972
 6387TIP3    H140796   3.597   2.566   1.796  0.4381  2.6743 -0.2661
 6387TIP3    H240797   3.456   2.579   1.849 -0.0930 -0.1252 -0.8355
 6388TIP3   OH240798   6.158   2.235   8.351  0.0817  0.4698 -0.9265
 6388TIP3    H140799   6.175   2.301   8.419 -1.2631 -1.3760  1.3720
 6388TIP3    H240800   6.167   2.151   8.397  0.6511 -0.9417 -3.4591
 6389TIP3   OH240801   6.179   0.695   7.603  0.0556 -0.2181  0.8505
 6389TIP3    H140802   6.223   0.642   7.670  2.1354  0.9469  0.4859
 6389TIP3    H240803   6.225   0.779   7.605 -0.4224  0.1671 -1.4142
 6390TIP3   OH240804   3.840   3.007   1.585  0.4164  0.0407 -0.9588
 6390TIP3    H140805   3.754   2.965   1.591  0.3627 -0.0182 -1.9430
 6390TIP3    H240806   3.828   3.077   1.521  0.6366  1.2505  0.2760
 6391TIP3   OH240807   5.591   2.705   2.877  0.0511 -0.2955 -0.2138
 6391TIP3    H140808   5.589   2.800   2.872  0.2904 -0.3455 -1.6926
 6391TIP3    H240809   5.680   2.682   2.849 -0.7565 -1.0442 -2.3530
 6392TIP3   OH240810   4.077   1.000   0.560  0.0983  0.8018 -0.8047
 6392TIP3    H140811   3.982   1.004   0.573  0.0838  0.8814 -0.9251
 6392TIP3    H240812   4.087   0.984   0.466  0.2199  3.1817 -1.2670
 6393TIP3   OH240813   5.447   0.081   7.235  0.1102  0.0660  0.3077
 6393TIP3    H140814   5.538   0.111   7.236  0.2714 -0.4225  1.0937
 6393TIP3    H240815   5.448  -0.001   7.284 -0.5665 -0.5121 -0.6055
 6394TIP3   OH240816   3.384   3.776   0.102  0.5638 -0.1850 -0.0294
 6394TIP3    H140817   3.338   3.845   0.150  0.8510  0.1120 -0.1746
 6394TIP3    H240818   3.399   3.813   0.015  0.6963 -0.4411 -0.1185
 6395TIP3   OH240819   4.586   6.525   7.526  0.1948  0.0851  0.5995
 6395TIP3    H140820   4.553   6.436   7.515 -0.4037  0.4462 -0.6888
 6395TIP3    H240821   4.656   6.533   7.462 -0.8059  1.0242 -0.4224
 6396TIP3   OH240822   5.332   1.717   0.460  0.1099  0.6619  0.2509
 6396TIP3    H140823   5.403   1.676   0.509  0.1542 -0.0344 -0.3821
 6396TIP3    H240824   5.328   1.668   0.378 -0.4909  1.2944 -0.1079
 6397TIP3   OH240825   3.904   5.745   0.307  0.3065  0.7701 -0.1919
 6397TIP3    H140826   3.958   5.807   0.355  2.5443  0.2912 -1.9118
 6397TIP3    H240827   3.884   5.789   0.225 -0.3597  0.2195 -0.3354
 6398TIP3   OH240828   1.764   2.942   0.972 -0.2292 -0.5939  0.4726
 6398TIP3    H140829   1.827   2.964   0.904 -1.4053  0.3404 -0.3590
 6398TIP3    H240830   1.806   2.969   1.054 -0.0969  1.3002 -0.1909
 6399TIP3   OH240831   2.806   5.364   0.992  0.3712 -0.3101  0.1231
 6399TIP3    H140832   2.714   5.368   1.016  0.0794 -1.4464 -0.6792
 6399TIP3    H240833   2.838   5.454   1.002 -0.7197  0.0235  0.7687
 6400TIP3   OH240834   6.042   1.155   1.546 -0.4555 -0.1987 -0.4616
 6400TIP3    H140835   6.079   1.103   1.475 -1.0458  0.9358 -1.6542
 6400TIP3    H240836   6.116   1.174   1.604  0.0608 -1.0371 -0.8428
 6401TIP3   OH240837   0.977   1.265   1.337  0.0688  0.8501 -0.0584
 6401TIP3    H140838   1.056   1.290   1.290 -0.1120  2.1889  0.2978
 6401TIP3    H240839   0.927   1.212   1.274  1.6867 -0.9132  0.0750
 6402TIP3   OH240840   0.438   6.010   6.913 -0.5115 -0.1652  0.9060
 6402TIP3    H140841   0.421   6.071   6.841  2.5292  0.7480  0.8210
 6402TIP3    H240842   0.364   6.021   6.972 -1.6691  1.1617 -0.7031
 6403TIP3   OH240843   6.764   0.983   1.746  0.6208 -0.2142 -0.3405
 6403TIP3    H140844   6.812   0.901   1.735 -1.0455 -1.3591  0.5596
 6403TIP3    H240845   6.787   1.013   1.835 -2.6781 -2.5214  1.5127
 6404TIP3   OH240846   4.914   2.241   8.396 -0.2520  0.3865 -0.0489
 6404TIP3    H140847   4.896   2.325   8.353  1.7789  0.9801  0.1204
 6404TIP3    H240848   4.878   2.251   8.484 -0.1003  1.0678 -0.0582
 6405TIP3   OH240849   3.080   4.859   7.878 -0.2812  0.0652  0.0068
 6405TIP3    H140850   3.100   4.935   7.932  1.4372  0.1159 -0.6683
 6405TIP3    H240851   2.986   4.846   7.891 -0.2124  0.9736  1.8225
 6406TIP3   OH240852   5.983   2.938   0.928 -0.2530  0.0687  0.6596
 6406TIP3    H140853   5.937   3.021   0.936  0.1596  0.3130  0.5288
 6406TIP3    H240854   5.931   2.876   0.980 -0.9180  0.2539  0.2319
 6407TIP3   OH240855   1.700   0.330   8.542  0.2800  0.5220 -0.0954
 6407TIP3    H140856   1.794   0.324   8.524  0.8471  1.8137  1.9980
 6407TIP3    H240857   1.659   0.273   8.477  2.5357 -0.4206 -0.7934
 6408TIP3   OH240858   1.377   4.529   6.297 -0.2188  0.7551  0.6635
 6408TIP3    H140859   1.328   4.472   6.237  1.5862 -0.9487  0.7222
 6408TIP3    H240860   1.316   4.545   6.369 -0.8635 -1.0222  0.5721
 6409TIP3   OH240861   0.098   3.496   8.332  0.1691 -0.5876 -0.2402
 6409TIP3    H140862   0.003   3.485   8.337  0.4248 -3.7382 -0.7910
 6409TIP3    H240863   0.121   3.475   8.242  1.6602 -2.9452  0.6114
 6410TIP3   OH240864   4.025   5.316   0.722  0.4421 -0.0609  0.7186
 6410TIP3    H140865   4.011   5.399   0.677 -2.4857 -0.5532  0.4587
 6410TIP3    H240866   4.079   5.265   0.663 -0.3068  0.6096 -0.5930
 6411TIP3   OH240867   6.466   6.385   8.303 -0.2882 -0.5154 -0.2874
 6411TIP3    H140868   6.557   6.357   8.303 -0.3288 -0.9253  2.6311
 6411TIP3    H240869   6.469   6.479   8.287  0.6538 -0.5253 -0.1845
 6412TIP3   OH240870   6.118   4.675   0.947  0.3075  0.2052  0.2695
 6412TIP3    H140871   6.095   4.758   0.988  2.1271  2.4053 -2.7135
 6412TIP3    H240872   6.062   4.671   0.869  0.1522 -1.4871  0.4374
 6413TIP3   OH240873   5.251   0.262   1.860  0.3051 -0.5824  0.1449
 6413TIP3    H140874   5.206   0.307   1.931  1.4856 -1.4030  1.4427
 6413TIP3    H240875   5.287   0.183   1.900  0.5845 -1.3141 -1.4745
 6414TIP3   OH240876   5.531   0.337   1.512  0.3425 -0.5044  0.0514
 6414TIP3    H140877   5.563   0.273   1.449  1.6307  1.3221 -1.2485
 6414TIP3    H240878   5.523   0.418   1.462  1.0907  0.9398  2.1532
 6415TIP3   OH240879   6.078   5.172   1.422 -0.3231  0.3885 -0.2877
 6415TIP3    H140880   6.013   5.233   1.457 -2.2532 -3.1360  3.0347
 6415TIP3    H240881   6.162   5.209   1.448 -1.4146  1.4441  2.0919
 6416TIP3   OH240882   2.479   3.977   7.867  0.0209  0.5893  0.0960
 6416TIP3    H140883   2.448   3.892   7.835  1.9334 -0.2738  0.4162
 6416TIP3    H240884   2.542   4.005   7.801  0.1751  1.2828  0.5326
 6417TIP3   OH240885   4.580   5.213   7.690  0.1263  0.0659 -0.3007
 6417TIP3    H140886   4.541   5.186   7.773 -1.7572 -1.9374 -1.7163
 6417TIP3    H240887   4.570   5.308   7.688  0.4593  0.1964  1.8303
 6418TIP3   OH240888   1.870   1.206   0.494 -0.1511 -0.9058 -0.3274
 6418TIP3    H140889   1.849   1.270   0.426  0.5631  1.7764  1.8117
 6418TIP3    H240890   1.787   1.159   0.509 -1.1743  0.6793 -0.8080
 6419TIP3   OH240891   1.565   3.015   6.575  0.1223 -0.3587  0.0322
 6419TIP3    H140892   1.552   3.077   6.502 -0.0481 -0.1071  0.2754
 6419TIP3    H240893   1.552   3.068   6.654 -0.2899 -0.7639  0.2390
 6420TIP3   OH240894   3.234   1.124   7.367  0.3254  0.1911 -0.1059
 6420TIP3    H140895   3.281   1.178   7.303  1.2786  0.7770  1.0508
 6420TIP3    H240896   3.303   1.077   7.414 -0.2392  0.9634  1.5383
 6421TIP3   OH240897   4.129   6.722   0.927 -0.1947  0.6164 -0.2429
 6421TIP3    H140898   4.067   6.777   0.976 -0.5235  0.7421 -0.7915
 6421TIP3    H240899   4.191   6.784   0.890  0.8779  0.4190  1.1261
 6422TIP3   OH240900   2.554   4.219   0.250  0.1282 -0.7921 -0.4334
 6422TIP3    H140901   2.534   4.214   0.344 -1.7941 -1.2179 -0.8194
 6422TIP3    H240902   2.577   4.129   0.226 -1.6487 -1.2005 -0.7787
 6423TIP3   OH240903   4.003   0.217   0.261  0.1840  0.1398 -0.3026
 6423TIP3    H140904   4.005   0.298   0.209 -0.7611  0.1297 -0.3749
 6423TIP3    H240905   3.975   0.150   0.199  0.2052 -0.0981 -0.0540
 6424TIP3   OH240906   5.527   6.228   7.656 -0.4157  0.3800 -0.1209
 6424TIP3    H140907   5.559   6.289   7.722 -0.7980 -0.5302  0.9191
 6424TIP3    H240908   5.514   6.283   7.578  0.8272  1.3116  0.2929
 6425TIP3   OH240909   2.148   3.879   6.571  0.1781 -0.2331  0.1058
 6425TIP3    H140910   2.131   3.839   6.486  1.4031 -0.6423  0.0341
 6425TIP3    H240911   2.064   3.917   6.598 -0.1564  0.1443 -1.4058
 6426TIP3   OH240912   0.443   4.376   8.455  0.8250  0.5314  0.2285
 6426TIP3    H140913   0.423   4.437   8.525 -0.2177  0.6276 -0.1331
 6426TIP3    H240914   0.512   4.321   8.490  0.1818  0.4473  1.4084
 6427TIP3   OH240915   2.346   6.900   8.297 -0.3668  0.4359 -0.5208
 6427TIP3    H140916   2.344   6.820   8.246  2.0079  0.8320 -1.3381
 6427TIP3    H240917   2.429   6.941   8.275 -0.1473  1.6458  2.1487
 6428TIP3   OH240918   1.828   2.528   1.415  0.0704 -0.2907 -0.0963
 6428TIP3    H140919   1.783   2.455   1.459 -0.9061 -0.9560 -2.0610
 6428TIP3    H240920   1.895   2.485   1.362  0.6655  0.4095  0.0868
 6429TIP3   OH240921   3.995   4.190   7.295  0.1712 -0.3596 -0.4962
 6429TIP3    H140922   4.086   4.214   7.311  0.1478 -1.3061  1.2530
 6429TIP3    H240923   3.968   4.142   7.373 -1.5976 -0.7973 -1.3148
 6430TIP3   OH240924   2.830   2.405   1.744 -0.5710  0.1772 -0.7775
 6430TIP3    H140925   2.792   2.323   1.776  1.5562 -0.2168  1.0162
 6430TIP3    H240926   2.823   2.465   1.819  0.6075  0.6403 -1.0206
 6431TIP3   OH240927   5.783   0.842   0.373 -0.3905 -0.2158 -0.8351
 6431TIP3    H140928   5.869   0.810   0.399 -0.2486  1.3148  0.7680
 6431TIP3    H240929   5.732   0.763   0.356  0.9817 -1.1776 -0.6702
 6432TIP3   OH240930   6.802   3.541   2.259  0.2506  0.0884  0.5517
 6432TIP3    H140931   6.841   3.538   2.171  0.8724  0.1699  0.8166
 6432TIP3    H240932   6.724   3.594   2.249 -0.5168 -1.1350 -0.2697
 6433TIP3   OH240933   6.775   5.551   6.516 -0.2148  0.6564  0.9473
 6433TIP3    H140934   6.799   5.641   6.494  1.9763  0.0203  0.5025
 6433TIP3    H240935   6.858   5.507   6.531 -1.3070 -0.6940  3.7934
 6434TIP3   OH240936   2.495   5.043   7.405  0.0265  0.6571 -0.2474
 6434TIP3    H140937   2.544   5.120   7.376  0.4136  0.3240 -0.4972
 6434TIP3    H240938   2.563   4.981   7.432 -0.2504  0.1198 -0.7785
 6435TIP3   OH240939   1.416   1.534   1.062  0.1103  0.6357  0.1131
 6435TIP3    H140940   1.470   1.520   1.140  0.6139  0.9060 -0.1793
 6435TIP3    H240941   1.469   1.591   1.006 -0.8302  1.6143  0.1850
 6436TIP3   OH240942   0.643   3.952   6.586 -0.1323  0.5730  0.5499
 6436TIP3    H140943   0.681   3.910   6.508 -0.0906 -1.4815  1.5983
 6436TIP3    H240944   0.552   3.922   6.586 -0.7797  2.4212  0.1004
 6437TIP3   OH240945   5.136   2.699   6.911  0.0382 -0.3290 -0.0170
 6437TIP3    H140946   5.053   2.746   6.918  0.2790 -0.0724  1.4024
 6437TIP3    H240947   5.110   2.607   6.901 -0.4685 -0.4514  1.9113
 6438TIP3   OH240948   4.663   1.671   0.495 -0.4803  0.8385 -0.8412
 6438TIP3    H140949   4.695   1.641   0.581 -0.4684 -1.6705 -1.6208
 6438TIP3    H240950   4.569   1.655   0.499 -0.5338  1.0911 -1.1515
 6439TIP3   OH240951   6.188   5.651   8.024  0.0048 -0.0798  0.2133
 6439TIP3    H140952   6.156   5.604   7.946 -1.0579  0.0241  0.5670
 6439TIP3    H240953   6.152   5.601   8.098 -0.5344  0.8676  0.6049
 6440TIP3   OH240954   2.274   3.648   7.145 -0.7012  0.0818 -0.7639
 6440TIP3    H140955   2.345   3.685   7.093 -1.9182  1.3812 -1.5770
 6440TIP3    H240956   2.221   3.600   7.082 -0.7154 -0.6368 -0.2158
 6441TIP3   OH240957   4.312   6.479   6.379  0.1573  0.6015 -0.3925
 6441TIP3    H140958   4.367   6.550   6.413  1.7053 -0.9359  0.5081
 6441TIP3    H240959   4.223   6.505   6.399  0.7160  2.1009  0.2756
 6442TIP3   OH240960   2.864   4.853   7.551 -0.4184  0.1456  0.0979
 6442TIP3    H140961   2.900   4.772   7.516 -0.0629  0.9199 -1.4033
 6442TIP3    H240962   2.769   4.840   7.548 -0.3580 -0.9491  1.7478
 6443TIP3   OH240963   1.594   3.916   7.839  0.1333 -0.4802  0.1572
 6443TIP3    H140964   1.560   3.904   7.927 -0.2243 -0.7084 -0.0118
 6443TIP3    H240965   1.520   3.949   7.788 -0.5845 -3.3279 -0.8034
 6444TIP3   OH240966   1.074   3.879   7.131  0.8799 -0.1296  0.8121
 6444TIP3    H140967   1.095   3.837   7.048  2.9752  1.7856  0.2634
 6444TIP3    H240968   1.009   3.946   7.109  0.3667 -0.5614  0.9951
 6445TIP3   OH240969   2.876   6.749   7.513 -0.3071 -0.1691 -0.0134
 6445TIP3    H140970   2.930   6.828   7.517  2.3734 -1.9007  0.0133
 6445TIP3    H240971   2.828   6.748   7.595  0.1984  1.0381  0.3141
 6446TIP3   OH240972   6.295   4.815   1.444  0.1242 -0.3313  0.5066
 6446TIP3    H140973   6.325   4.887   1.499  0.6499  1.0185 -1.4644
 6446TIP3    H240974   6.199   4.825   1.442  0.1881  0.2871  0.3124
 6447TIP3   OH240975   1.381   2.781   1.995  0.8472  0.0010  0.4582
 6447TIP3    H140976   1.465   2.753   2.034  0.9037  0.5017  0.7079
 6447TIP3    H240977   1.321   2.787   2.070  0.7214  0.1230  0.3476
 6448TIP3   OH240978   5.245   4.245   8.046 -0.6608 -0.2864 -0.0815
 6448TIP3    H140979   5.253   4.245   7.951 -0.2744  2.7373 -0.1326
 6448TIP3    H240980   5.330   4.216   8.078 -0.5820 -0.6935 -0.6511
 6449TIP3   OH240981   4.766   2.853   7.297  0.4114 -0.1600  0.0852
 6449TIP3    H140982   4.767   2.884   7.388  1.1848  0.6553 -0.1907
 6449TIP3    H240983   4.674   2.842   7.276  0.2274 -0.6140  1.0507
 6450TIP3   OH240984   5.025   1.569   7.893  0.3967 -0.2663 -0.7850
 6450TIP3    H140985   5.061   1.520   7.967  0.7983  1.8656  0.5089
 6450TIP3    H240986   4.961   1.629   7.932  1.5397  1.8093 -1.9460
 6451TIP3   OH240987   5.662   4.592   0.582 -1.2821  0.1934  0.2682
 6451TIP3    H140988   5.707   4.510   0.564  0.3434  1.2139 -0.5849
 6451TIP3    H240989   5.699   4.654   0.519 -2.9508  1.4268  0.4420
 6452TIP3   OH240990   4.713   0.342   2.174 -0.4598 -0.1014 -0.0755
 6452TIP3    H140991   4.705   0.436   2.156  0.9921  0.1651  0.5399
 6452TIP3    H240992   4.797   0.318   2.135  0.1056 -0.7027  1.4635
 6453TIP3   OH240993   5.864   5.081   7.511  0.2419  0.2623  0.2755
 6453TIP3    H140994   5.856   4.989   7.536 -1.7738  0.6275  1.2212
 6453TIP3    H240995   5.951   5.108   7.541  0.4241 -1.0424  0.9728
 6454TIP3   OH240996   2.801   5.332   0.238 -0.1900  0.0326 -0.0748
 6454TIP3    H140997   2.817   5.358   0.329 -0.1524  0.9715 -0.3472
 6454TIP3    H240998   2.867   5.378   0.187 -0.7419  0.1707 -0.6729
 6455TIP3   OH240999   6.023   6.827   0.069  0.0057 -0.0837 -0.1878
 6455TIP3    H141000   6.058   6.899   0.017 -0.3520  0.1881 -0.0486
 6455TIP3    H241001   6.071   6.832   0.152  0.7425 -0.6574 -0.5653
 6456TIP3   OH241002   5.725   0.928   1.310  0.2849  0.1750  0.0574
 6456TIP3    H141003   5.740   0.856   1.371  1.8069  1.4220  1.2387
 6456TIP3    H241004   5.701   1.003   1.365  1.3516  1.2528 -0.8657
 6457TIP3   OH241005   0.929   2.513   8.188 -0.1919 -0.1840  0.7089
 6457TIP3    H141006   0.865   2.463   8.239  0.5477 -0.8939  0.9666
 6457TIP3    H241007   0.900   2.504   8.097 -1.0859  0.4499  0.9168
 6458TIP3   OH241008   6.263   5.341   8.017 -0.7710  0.0211  0.4101
 6458TIP3    H141009   6.187   5.373   8.067 -1.2862 -2.5058  1.3930
 6458TIP3    H241010   6.232   5.338   7.927 -1.5797 -0.1739  0.6787
 6459TIP3   OH241011   3.541   4.394   7.426 -0.1128  0.4274 -0.3912
 6459TIP3    H141012   3.545   4.301   7.449 -1.8875  0.2387 -0.6759
 6459TIP3    H241013   3.532   4.439   7.510 -0.6928  0.2067 -0.3254
 6460TIP3   OH241014   3.897   0.097   2.262 -0.5569 -0.0268  0.5490
 6460TIP3    H141015   3.871   0.105   2.170  1.4951  2.7632  0.0738
 6460TIP3    H241016   3.953   0.019   2.264 -1.5471 -0.7889 -0.2904
 6461TIP3   OH241017   4.044   3.853   6.251  0.3100  0.9685  0.7039
 6461TIP3    H141018   3.971   3.849   6.190  1.5967 -1.3116 -0.8610
 6461TIP3    H241019   4.038   3.939   6.291 -3.3941  0.7567  0.9279
 6462TIP3   OH241020   5.908   1.178   8.203  0.4454 -0.3090  0.2550
 6462TIP3    H141021   5.921   1.247   8.138  2.9248 -1.2183 -0.3435
 6462TIP3    H241022   5.903   1.097   8.152  0.5178 -0.8448  1.0760
 6463TIP3   OH241023   3.745   1.242   7.168 -0.3517 -0.3284  0.0549
 6463TIP3    H141024   3.698   1.209   7.092 -0.7864 -1.9031  0.9472
 6463TIP3    H241025   3.713   1.188   7.241  1.3822 -0.1105  1.0318
 6464TIP3   OH241026   3.266   3.834   0.890 -0.3111  0.0423 -0.0985
 6464TIP3    H141027   3.252   3.869   0.802  0.4186 -3.1137 -1.6421
 6464TIP3    H241028   3.359   3.850   0.908 -0.1941 -0.2426 -0.4201
 6465TIP3   OH241029   1.680   3.475   1.108 -0.2248 -0.3680  0.1415
 6465TIP3    H141030   1.594   3.518   1.111 -0.0039  0.0010  1.7529
 6465TIP3    H241031   1.742   3.542   1.136  0.8166 -0.2214 -2.2404
 6466TIP3   OH241032   4.693   6.158   7.515 -0.1463 -0.3066 -0.3505
 6466TIP3    H141033   4.699   6.179   7.608  0.9001  1.2390 -0.7247
 6466TIP3    H241034   4.638   6.227   7.478  1.8636  0.8839 -1.3179
 6467TIP3   OH241035   0.046   0.820   7.079 -0.1971 -0.3083 -0.1360
 6467TIP3    H141036  -0.039   0.865   7.081 -0.6728 -1.1819 -0.1120
 6467TIP3    H241037   0.056   0.783   7.166  0.6466  0.5377  0.1469
 6468TIP3   OH241038   1.189   0.205   0.595 -0.0742 -0.6154  0.1614
 6468TIP3    H141039   1.125   0.236   0.531  1.9794  1.5427 -0.9903
 6468TIP3    H241040   1.150   0.226   0.680 -0.8941  0.6917 -0.5120
 6469TIP3   OH241041   2.700   6.889   1.591 -0.7082  0.9970  0.0527
 6469TIP3    H141042   2.737   6.892   1.503 -1.5191  0.5298 -0.3218
 6469TIP3    H241043   2.753   6.824   1.637  0.3761  1.9842  0.2465
 6470TIP3   OH241044   4.185   0.397   8.504  0.3113 -0.1179  0.2495
 6470TIP3    H141045   4.195   0.347   8.422  0.7514  2.7482 -1.5922
 6470TIP3    H241046   4.271   0.393   8.545 -0.4020 -3.2268  1.7406
 6471TIP3   OH241047   1.512   5.082   7.231  0.1158  0.1664 -0.3157
 6471TIP3    H141048   1.445   5.016   7.250 -0.6418  0.4042 -2.0151
 6471TIP3    H241049   1.595   5.035   7.241 -0.3368 -0.4686  0.5646
 6472TIP3   OH241050   4.280   2.889   2.794 -0.7123 -0.2597  0.4416
 6472TIP3    H141051   4.297   2.846   2.710  0.0840 -0.5268  0.7318
 6472TIP3    H241052   4.184   2.891   2.801 -0.8243  0.9400 -1.0699
 6473TIP3   OH241053   6.682   0.897   6.341 -0.6365  0.3048  0.1916
 6473TIP3    H141054   6.646   0.808   6.340 -3.3814  1.3351 -0.1292
 6473TIP3    H241055   6.764   0.890   6.292 -1.7850 -1.6969 -1.6109
 6474TIP3   OH241056   1.400   0.086   6.939  0.0557 -0.1463  0.2799
 6474TIP3    H141057   1.463   0.142   6.893  0.1780 -0.0217  0.5935
 6474TIP3    H241058   1.319   0.138   6.942  0.1370 -0.0272  0.4730
 6475TIP3   OH241059   3.466   2.201   0.444  0.1675  0.2557  0.1372
 6475TIP3    H141060   3.474   2.288   0.404 -1.2797  0.4075  0.1301
 6475TIP3    H241061   3.431   2.218   0.531  0.0785 -0.3100  0.2150
 6476TIP3   OH241062   5.532   4.231   1.078 -0.3793 -0.2373 -0.2463
 6476TIP3    H141063   5.592   4.195   1.012  3.2522  0.0454  2.5878
 6476TIP3    H241064   5.551   4.325   1.079 -1.9199  0.0952 -0.1731
 6477TIP3   OH241065   0.156   1.545   7.323 -0.2688  0.2982  0.3949
 6477TIP3    H141066   0.243   1.505   7.334 -0.0955  0.3839 -0.5707
 6477TIP3    H241067   0.115   1.493   7.253 -0.4763  1.0982 -0.0871
 6478TIP3   OH241068   2.596   2.976   0.168  0.0603 -0.5353 -0.0382
 6478TIP3    H141069   2.579   2.965   0.261  0.0048 -2.1342 -0.2096
 6478TIP3    H241070   2.671   3.035   0.164 -0.0497 -0.3129  1.0070
 6479TIP3   OH241071   1.113   6.773   0.102  0.4364 -0.8214  0.5340
 6479TIP3    H141072   1.181   6.800   0.040 -0.3187 -0.3526 -0.1069
 6479TIP3    H241073   1.038   6.752   0.047  0.0279 -1.2448  1.2449
 6480TIP3   OH241074   6.568   0.756   8.383 -0.7549  0.4473 -0.8239
 6480TIP3    H141075   6.525   0.697   8.322 -0.7419 -0.6957  0.2533
 6480TIP3    H241076   6.508   0.763   8.457  0.5309 -0.5948  0.3731
 6481TIP3   OH241077   6.465   3.254   1.660 -0.1731  0.1869  0.3984
 6481TIP3    H141078   6.538   3.313   1.678 -0.4706  0.8297 -0.4211
 6481TIP3    H241079   6.506   3.177   1.618  0.1043  0.2477  0.5552
 6482TIP3   OH241080   2.658   1.343   0.684 -0.5734 -0.0383  0.0573
 6482TIP3    H141081   2.719   1.313   0.617 -1.0814  1.1591 -0.9951
 6482TIP3    H241082   2.627   1.262   0.726  1.5296 -0.6816  0.4941
 6483TIP3   OH241083   3.915   5.120   0.559  0.3002  0.2721 -0.1629
 6483TIP3    H141084   3.883   5.171   0.485 -0.7938 -1.1515 -0.7156
 6483TIP3    H241085   3.861   5.150   0.633 -0.0560  0.2139 -0.3961
 6484TIP3   OH241086   5.796   6.022   2.235  0.6681 -0.2113 -0.4728
 6484TIP3    H141087   5.798   6.110   2.197  1.6972 -0.1439 -0.3095
 6484TIP3    H241088   5.739   6.029   2.311  1.3948  0.5252  0.0165
 6485TIP3   OH241089   5.513   4.878   0.587 -0.6156 -0.1769  0.1828
 6485TIP3    H141090   5.434   4.824   0.594 -0.2864 -0.7669 -0.4719
 6485TIP3    H241091   5.556   4.846   0.507  0.1597  0.2978  0.4035
 6486TIP3   OH241092   5.803   2.054   1.236  0.9602 -0.0236  0.0622
 6486TIP3    H141093   5.865   2.109   1.188  0.1994 -1.5650 -2.9281
 6486TIP3    H241094   5.717   2.088   1.211  0.5195 -0.4562  0.9362
 6487TIP3   OH241095   3.824   5.413   8.232 -0.2525  0.3441  0.0030
 6487TIP3    H141096   3.837   5.426   8.138 -0.6172 -0.1335 -0.1161
 6487TIP3    H241097   3.804   5.501   8.266 -2.0880  0.2385 -0.6886
 6488TIP3   OH241098   6.660   1.888   1.337  0.2285 -0.0846  0.0600
 6488TIP3    H141099   6.577   1.860   1.299  1.3239  0.3509 -2.8992
 6488TIP3    H241100   6.727   1.848   1.281  1.9984  0.6335  1.5568
 6489TIP3   OH241101   6.008   5.830   0.227  0.3043 -0.2275  0.0598
 6489TIP3    H141102   6.001   5.853   0.134 -0.5211 -0.5166  0.0433
 6489TIP3    H241103   5.924   5.858   0.265  0.5308 -0.3521  0.6649
 6490TIP3   OH241104   5.436   2.545   1.151 -0.1002  0.2880 -0.4009
 6490TIP3    H141105   5.513   2.586   1.191  0.2965 -0.0822 -0.7789
 6490TIP3    H241106   5.379   2.526   1.225 -1.2219  3.3298 -0.3512
 6491TIP3   OH241107   3.473   1.464   2.724  0.2391 -0.4218  0.1920
 6491TIP3    H141108   3.467   1.536   2.661  0.7048 -0.6949 -0.1783
 6491TIP3    H241109   3.564   1.468   2.755  0.4583 -1.2411 -0.3167
 6492TIP3   OH241110   2.805   6.106   1.565  0.1290  0.6238  0.7156
 6492TIP3    H141111   2.844   6.052   1.496  0.0360  0.3328  0.8881
 6492TIP3    H241112   2.746   6.046   1.611 -1.9928  1.4709 -0.7071
 6493TIP3   OH241113   2.620   1.581   1.938  0.3488 -0.3604  0.6307
 6493TIP3    H141114   2.670   1.556   1.860 -0.7783 -1.2160  0.1489
 6493TIP3    H241115   2.682   1.572   2.010  0.6636 -2.3686  0.1713
 6494TIP3   OH241116   4.977   4.807   1.165 -0.0945  0.5569  0.2982
 6494TIP3    H141117   4.964   4.791   1.071  1.6894 -0.3228  0.1601
 6494TIP3    H241118   5.022   4.891   1.169  0.0651  0.4692  0.3474
 6495TIP3   OH241119   1.054   4.569   8.417  0.5944  0.2091  0.2829
 6495TIP3    H141120   0.974   4.528   8.449  0.9722 -0.6643  0.1274
 6495TIP3    H241121   1.039   4.663   8.429 -1.1057  0.1699 -1.2364
 6496TIP3   OH241122   5.097   4.732   8.224  0.3372 -0.1548  0.0876
 6496TIP3    H141123   5.071   4.823   8.235  0.7545 -0.2169  1.9015
 6496TIP3    H241124   5.187   4.729   8.257  0.9082 -0.9220 -1.4403
 6497TIP3   OH241125   5.829   5.644   6.583  0.4115 -0.7491 -0.0585
 6497TIP3    H141126   5.793   5.694   6.510  0.3481 -0.2089  0.3383
 6497TIP3    H241127   5.772   5.567   6.590 -0.9058  0.2570  0.7806
 6498TIP3   OH241128   3.217   3.608   1.378 -0.3735 -0.3665 -0.3343
 6498TIP3    H141129   3.234   3.540   1.312 -0.0713 -0.1020 -0.5296
 6498TIP3    H241130   3.138   3.652   1.346 -0.0361 -0.0202 -0.7005
 6499TIP3   OH241131   0.524   5.905   1.385  0.2559  0.3556 -0.4096
 6499TIP3    H141132   0.531   5.821   1.340 -0.8595  0.0159  0.0086
 6499TIP3    H241133   0.531   5.970   1.315 -0.3835 -0.1350 -0.9501
 6500TIP3   OH241134   6.463   2.414   2.062  0.5623  0.1163  0.6009
 6500TIP3    H141135   6.406   2.489   2.044 -1.1495 -1.1675  0.4996
 6500TIP3    H241136   6.523   2.446   2.130  1.5326  2.3235 -1.1640
 6501TIP3   OH241137   0.555   4.615   8.066  0.5578  0.4447 -0.1746
 6501TIP3    H141138   0.534   4.541   8.123  0.9594  1.8605  1.9775
 6501TIP3    H241139   0.568   4.577   7.980  2.5979 -2.2667  1.1820
 6502TIP3   OH241140   0.283   5.425   1.962  0.0622  0.1929  0.3809
 6502TIP3    H141141   0.270   5.418   2.056  0.8219 -1.4415  0.3969
 6502TIP3    H241142   0.378   5.417   1.950 -0.0160  0.4771 -0.5168
 6503TIP3   OH241143   3.817   5.207   0.986 -0.5002  0.1867 -0.3770
 6503TIP3    H141144   3.866   5.216   0.904 -1.8119  0.1657 -1.1731
 6503TIP3    H241145   3.844   5.122   1.021  0.6093  0.5081 -0.4008
 6504TIP3   OH241146   6.571   4.598   0.615  0.0790  0.2445 -0.1214
 6504TIP3    H141147   6.506   4.640   0.672 -0.0720  0.7871 -0.6832
 6504TIP3    H241148   6.649   4.590   0.669  0.0728  1.1498  0.0340
 6505TIP3   OH241149   5.475   6.232   1.715  0.0987 -0.0418 -0.4142
 6505TIP3    H141150   5.448   6.280   1.793 -0.8019  0.3465 -0.9443
 6505TIP3    H241151   5.571   6.226   1.722  0.0144 -0.1588  0.7843
 6506TIP3   OH241152   1.658   4.899   1.611 -0.0939 -0.0428  0.1936
 6506TIP3    H141153   1.716   4.838   1.657 -0.8362  0.0030  1.2275
 6506TIP3    H241154   1.574   4.852   1.605 -0.5438  0.6980  0.5905
 6507TIP3   OH241155   1.025   5.316   7.451 -0.4623 -0.0372 -0.3364
 6507TIP3    H141156   1.071   5.237   7.480  2.5942  1.3275 -1.0144
 6507TIP3    H241157   1.023   5.372   7.529  1.4494  0.8909 -0.8916
 6508TIP3   OH241158   2.961   4.123   1.594 -0.0659 -0.4388  0.5136
 6508TIP3    H141159   2.880   4.148   1.550 -0.3837 -2.4555 -0.1926
 6508TIP3    H241160   2.949   4.030   1.615  2.2815 -0.9815 -0.1863
 6509TIP3   OH241161   5.940   5.955   7.248  0.3709  0.0152 -0.6064
 6509TIP3    H141162   5.995   6.032   7.257 -0.7249  0.7177  0.4134
 6509TIP3    H241163   5.884   5.956   7.326 -2.2268  0.2845 -2.3395
 6510TIP3   OH241164   5.462   2.886   7.178 -0.1211  0.1403 -0.8107
 6510TIP3    H141165   5.381   2.880   7.229  0.4562 -0.0790  0.1040
 6510TIP3    H241166   5.528   2.916   7.241  0.4389  0.6689 -1.6282
 6511TIP3   OH241167   5.035   6.107   8.350 -0.4958 -0.2521 -0.1123
 6511TIP3    H141168   5.057   6.048   8.278 -0.7190 -0.6405  0.1361
 6511TIP3    H241169   5.058   6.058   8.429  1.8916  1.0127  0.0630
 6512TIP3   OH241170   2.913   6.199   0.338 -0.0665 -0.3239  0.4016
 6512TIP3    H141171   2.856   6.264   0.380  0.5501  0.1525  0.5117
 6512TIP3    H241172   2.993   6.247   0.316 -0.8914 -0.1199 -2.6961
 6513TIP3   OH241173   5.992   5.880   8.553 -0.3109 -0.0390  0.3546
 6513TIP3    H141174   5.966   5.789   8.545  0.2678 -0.3271  1.5411
 6513TIP3    H241175   5.990   5.914   8.463 -2.6009 -0.6145  0.1333
 6514TIP3   OH241176   1.103   2.526   0.945  0.4234 -0.0133  0.0376
 6514TIP3    H141177   1.042   2.599   0.954 -0.2081 -0.7808  3.1301
 6514TIP3    H241178   1.185   2.558   0.983  1.2334  0.1496 -1.7356
 6515TIP3   OH241179   2.288   1.057   1.061  0.5880 -0.0051 -0.0166
 6515TIP3    H141180   2.312   1.143   1.097 -1.1419  0.6292 -0.2552
 6515TIP3    H241181   2.288   0.999   1.137 -0.3235  0.7165  0.5698
 6516TIP3   OH241182   4.984   2.082   8.086  0.5049  0.0088  0.0383
 6516TIP3    H141183   5.073   2.096   8.119  0.3148  0.6013  0.3286
 6516TIP3    H241184   4.951   2.171   8.069  0.4187 -0.2651 -1.2915
 6517TIP3   OH241185   2.254   1.815   8.089  0.4612  0.1359 -0.5465
 6517TIP3    H141186   2.308   1.786   8.016 -0.3917 -0.3926 -0.9780
 6517TIP3    H241187   2.279   1.757   8.162  1.9182  1.2009 -0.1383
 6518TIP3   OH241188   1.655   0.812   2.154 -0.2283  0.2146 -0.1619
 6518TIP3    H141189   1.642   0.780   2.243  0.5000  1.1551  0.2936
 6518TIP3    H241190   1.677   0.734   2.103 -1.4273 -0.4556  0.2986
 6519TIP3   OH241191   1.500   5.338   7.256 -0.1862 -0.0356 -0.0550
 6519TIP3    H141192   1.515   5.368   7.166 -2.5727  0.7055 -0.2860
 6519TIP3    H241193   1.514   5.244   7.253 -0.1562 -0.0116 -1.1957
 6520TIP3   OH241194   2.169   1.313   0.355 -0.4637  0.1283 -0.3359
 6520TIP3    H141195   2.131   1.226   0.343 -2.9150  0.9906  0.4470
 6520TIP3    H241196   2.172   1.325   0.450  2.0994  0.0450 -0.3562
 6521TIP3   OH241197   6.464   5.716   7.944  0.3767  0.0538  0.3832
 6521TIP3    H141198   6.502   5.790   7.991 -0.7043  0.1522  1.1255
 6521TIP3    H241199   6.377   5.705   7.981  0.1066 -0.9121 -0.4700
 6522TIP3   OH241200   6.727   1.758   0.205  0.3409  0.6482  0.4684
 6522TIP3    H141201   6.800   1.819   0.190 -0.3466  0.9622 -1.9610
 6522TIP3    H241202   6.759   1.674   0.173 -0.3219  0.7902 -0.6209
 6523TIP3   OH241203   0.791   4.736   0.850 -0.5249  0.0056 -0.4350
 6523TIP3    H141204   0.769   4.778   0.933  2.2193  0.4599  0.1709
 6523TIP3    H241205   0.780   4.804   0.784  0.0754  0.5322 -0.0067
 6524TIP3   OH241206   5.055   1.206   8.258 -0.2081 -0.2041 -0.3865
 6524TIP3    H141207   5.120   1.232   8.192 -1.1928  1.8479 -0.6497
 6524TIP3    H241208   5.035   1.288   8.304 -0.4133 -1.3726  1.7077
 6525TIP3   OH241209   3.595   1.115   1.734  0.2478  0.2388 -0.1690
 6525TIP3    H141210   3.575   1.024   1.711  0.6644  0.4538 -1.4960
 6525TIP3    H241211   3.673   1.137   1.682  0.0513  1.3998 -0.0171
 6526TIP3   OH241212   1.389   6.296   1.163 -0.2114 -0.3059 -1.1299
 6526TIP3    H141213   1.335   6.375   1.157  1.6690  1.3467  1.3373
 6526TIP3    H241214   1.329   6.229   1.195 -1.1945  1.0480  0.0170
 6527TIP3   OH241215   6.490   3.763   6.738 -0.3016 -0.3077  0.5243
 6527TIP3    H141216   6.565   3.821   6.734  0.3654 -1.0890  1.3213
 6527TIP3    H241217   6.430   3.797   6.671  0.8314  0.2060 -0.2666
 6528TIP3   OH241218   6.308   5.642   1.266  0.1535  0.3806 -0.3521
 6528TIP3    H141219   6.225   5.647   1.219  0.3270 -3.9727 -1.5110
 6528TIP3    H241220   6.375   5.648   1.197  0.8371  2.1189  0.3884
 6529TIP3   OH241221   5.292   2.699   2.091 -0.1704  0.0469 -0.5546
 6529TIP3    H141222   5.242   2.620   2.113 -0.3938 -0.4264 -2.5795
 6529TIP3    H241223   5.345   2.674   2.016 -1.6387  2.2670 -2.5019
 6530TIP3   OH241224   3.481   4.809   0.986  0.7095  0.2494  0.7883
 6530TIP3    H141225   3.534   4.882   0.955 -0.5708  1.3143  1.0214
 6530TIP3    H241226   3.462   4.829   1.078  2.5072 -1.7060  1.6566
 6531TIP3   OH241227   0.010   3.130   2.322  0.0841  0.1226 -0.1647
 6531TIP3    H141228   0.021   3.035   2.312 -0.5306  0.0917 -0.5839
 6531TIP3    H241229   0.043   3.166   2.239 -0.8746  0.1768 -0.5398
 6532TIP3   OH241230   4.890   2.359   8.013 -0.3423  0.2444 -0.3897
 6532TIP3    H141231   4.972   2.401   7.989  0.0626 -0.2202  0.1698
 6532TIP3    H241232   4.858   2.411   8.087  0.2952 -0.5787  0.4795
 6533TIP3   OH241233   3.466   6.899   8.437  0.5428  0.2664  0.5877
 6533TIP3    H141234   3.444   6.821   8.386  0.6238  1.7600 -1.9078
 6533TIP3    H241235   3.559   6.890   8.456  0.6723 -0.0550 -0.1365
 6534TIP3   OH241236   4.711   2.753   8.390  0.9767  0.5218  0.5529
 6534TIP3    H141237   4.789   2.809   8.395  0.7989  1.2493 -2.5274
 6534TIP3    H241238   4.640   2.812   8.364  0.0919 -0.6337  0.2610
 6535TIP3   OH241239   6.616   4.378   8.559  0.3381 -0.5761 -0.2622
 6535TIP3    H141240   6.532   4.399   8.600  0.8313  1.2113 -0.0936
 6535TIP3    H241241   6.594   4.356   8.469 -0.4105 -1.2525  0.0677
 6536TIP3   OH241242   0.573   3.414   8.179 -0.0473 -0.4496  0.7123
 6536TIP3    H141243   0.659   3.410   8.220 -0.3213 -3.4759  1.2210
 6536TIP3    H241244   0.590   3.413   8.085  0.4592  2.1011  0.6956
 6537TIP3   OH241245   5.679   5.299   0.155  0.1084 -0.0240  0.2360
 6537TIP3    H141246   5.624   5.373   0.180 -0.5892 -0.9825  1.7172
 6537TIP3    H241247   5.766   5.337   0.142 -0.3001  1.1010  0.6701
 6538TIP3   OH241248   4.087   0.765   7.904 -0.3366  0.1108 -0.0897
 6538TIP3    H141249   4.111   0.810   7.985 -0.6130  1.0940 -0.5358
 6538TIP3    H241250   4.165   0.771   7.849 -0.2758 -0.2157 -0.0373
 6539TIP3   OH241251   5.694   4.927   2.503 -0.0431 -0.2315 -0.2191
 6539TIP3    H141252   5.668   4.838   2.480 -1.8225  0.2364 -0.1193
 6539TIP3    H241253   5.647   4.983   2.442  1.4367  0.6392 -0.6012
 6540TIP3   OH241254   6.269   1.482   0.894  0.6478  0.3170 -0.2728
 6540TIP3    H141255   6.331   1.490   0.967  0.4608 -1.1008  0.0723
 6540TIP3    H241256   6.209   1.555   0.905  1.5337  1.0073  0.0959
 6541TIP3   OH241257   3.624   3.153   7.190 -0.1056 -0.3368 -0.1186
 6541TIP3    H141258   3.658   3.070   7.156  1.5101  0.0327  0.4643
 6541TIP3    H241259   3.564   3.128   7.259  0.0415 -1.0319 -0.2364
 6542TIP3   OH241260   6.557   0.621   1.148  0.2471  0.5388 -0.0352
 6542TIP3    H141261   6.577   0.644   1.239  0.0088  0.9142 -0.0733
 6542TIP3    H241262   6.552   0.706   1.104 -0.5546  0.4092 -0.2076
 6543TIP3   OH241263   6.842   5.905   7.651  0.1558 -0.2063  0.5877
 6543TIP3    H141264   6.922   5.914   7.704 -0.0500  1.2369  0.6902
 6543TIP3    H241265   6.872   5.923   7.562  0.2006 -1.0848  0.4159
 6544TIP3   OH241266   2.565   2.608   8.343 -0.2403 -1.0105  0.1822
 6544TIP3    H141267   2.556   2.547   8.269  0.4167 -0.6544 -0.2015
 6544TIP3    H241268   2.541   2.557   8.420  1.8467 -2.2502  0.0773
 6545TIP3   OH241269   4.896   5.610   0.862  0.4609  0.1380  0.0603
 6545TIP3    H141270   4.852   5.694   0.877  0.6913  0.1207  0.9039
 6545TIP3    H241271   4.836   5.545   0.899  1.1470  0.1110  1.1812
 6546TIP3   OH241272   5.215   5.158   7.713 -0.1086  0.0732  0.0609
 6546TIP3    H141273   5.228   5.149   7.807 -0.6809 -0.1204  0.1238
 6546TIP3    H241274   5.283   5.103   7.674 -0.2097 -0.2709  0.3673
 6547TIP3   OH241275   6.513   4.380   0.862  0.5389  0.3111 -0.5645
 6547TIP3    H141276   6.569   4.457   0.876 -0.2237  0.4160  2.6888
 6547TIP3    H241277   6.558   4.309   0.908 -0.9219 -0.0617  0.3723
 6548TIP3   OH241278   3.937   2.415   1.409  0.6133 -0.0531 -0.3392
 6548TIP3    H141279   3.967   2.411   1.319 -0.9692  0.3622 -0.9140
 6548TIP3    H241280   3.892   2.332   1.424 -0.5829  0.5437 -0.4983
 6549TIP3   OH241281   2.759   2.046   1.115  0.4434 -0.5466 -0.2574
 6549TIP3    H141282   2.771   2.007   1.028 -0.4424 -2.3869  0.4027
 6549TIP3    H241283   2.670   2.023   1.140  0.4140  0.6498  0.8220
 6550TIP3   OH241284   1.328   2.166   8.451  0.1327 -0.0456 -0.5814
 6550TIP3    H141285   1.338   2.257   8.425  2.2839  0.3853  1.4176
 6550TIP3    H241286   1.418   2.131   8.453 -0.2250 -1.1215  2.0763
 6551TIP3   OH241287   0.964   4.169   0.709 -0.2385  0.2278  0.0676
 6551TIP3    H141288   0.984   4.105   0.777 -2.0963  0.1681  0.6070
 6551TIP3    H241289   1.027   4.240   0.723  1.6643 -1.2896 -0.3647
 6552TIP3   OH241290   6.147   3.078   7.104 -0.6130  0.7481 -0.1147
 6552TIP3    H141291   6.137   2.996   7.055 -2.0065  0.2615  0.9254
 6552TIP3    H241292   6.192   3.052   7.185 -2.3394  0.7232  0.8685
 6553TIP3   OH241293   1.075   1.967   7.455 -0.3804 -0.6374  0.0780
 6553TIP3    H141294   1.158   1.971   7.407  0.2677 -3.1994  0.8295
 6553TIP3    H241295   1.015   1.923   7.395 -0.3515 -1.3923  0.5965
 6554TIP3   OH241296   3.448   0.457   6.890 -0.1136  0.0549  0.0440
 6554TIP3    H141297   3.371   0.513   6.894  0.2828  0.5261  1.3445
 6554TIP3    H241298   3.477   0.464   6.799 -1.5642 -0.0967 -0.4547
 6555TIP3   OH241299   3.808   1.007   0.906 -0.1949 -0.3599 -0.2145
 6555TIP3    H141300   3.823   1.099   0.886  0.6911 -0.5725 -0.5491
 6555TIP3    H241301   3.728   0.985   0.857  0.0725  0.0073 -0.8338
 6556TIP3   OH241302   0.151   1.155   8.257  0.0959 -0.3620  0.4214
 6556TIP3    H141303   0.187   1.067   8.254 -1.5665 -1.0923  0.7852
 6556TIP3    H241304   0.060   1.143   8.284 -0.0034  1.5171  1.0827
 6557TIP3   OH241305   4.063   2.911   2.352  0.2071 -0.0562 -0.3080
 6557TIP3    H141306   4.008   2.879   2.423 -0.6844 -1.2564 -1.4923
 6557TIP3    H241307   4.018   2.988   2.319  0.3722  0.2182  0.0952
 6558TIP3   OH241308   3.038   1.658   8.427  0.0521  0.8177  0.0366
 6558TIP3    H141309   3.108   1.710   8.387  0.9174  0.7457  1.3712
 6558TIP3    H241310   2.972   1.722   8.454 -0.2429  0.9217 -0.8908
 6559TIP3   OH241311   5.084   5.630   7.048  0.0455  0.3932 -0.0162
 6559TIP3    H141312   5.039   5.600   7.127 -1.7158  1.6738 -0.4708
 6559TIP3    H241313   5.054   5.571   6.979 -0.4575  0.8741 -0.2095
 6560TIP3   OH241314   6.055   2.036   7.456  0.3191  0.1073 -0.1957
 6560TIP3    H141315   6.065   1.942   7.444  0.0211 -0.0075  0.4101
 6560TIP3    H241316   6.142   2.066   7.482  0.4092 -0.0048 -0.3658
 6561TIP3   OH241317   0.637   3.898   7.189  0.4565  0.1049  0.4427
 6561TIP3    H141318   0.558   3.950   7.201 -0.8332 -1.7052  0.1707
 6561TIP3    H241319   0.696   3.955   7.139 -0.9320  1.2430  0.0570
 6562TIP3   OH241320   3.315   5.830   7.413 -0.1678  0.4471 -0.1010
 6562TIP3    H141321   3.301   5.736   7.400 -1.1805  0.2846  1.8059
 6562TIP3    H241322   3.230   5.870   7.394 -0.3151  0.7233  1.0628
 6563TIP3   OH241323   1.653   6.457   1.643 -0.5422 -0.0441  0.2471
 6563TIP3    H141324   1.685   6.545   1.621 -1.4129  0.0330 -0.8591
 6563TIP3    H241325   1.704   6.430   1.719 -1.1512  1.9553  1.4424
 6564TIP3   OH241326   1.236   6.642   7.866  0.0475  0.3162  0.3363
 6564TIP3    H141327   1.291   6.587   7.810  1.0222  0.2781  1.3123
 6564TIP3    H241328   1.149   6.603   7.859  0.2657 -0.0371 -0.6838
 6565TIP3   OH241329   0.237   5.705   7.510  0.3898  0.2132  0.4131
 6565TIP3    H141330   0.257   5.785   7.461 -0.5552  0.5872  0.6175
 6565TIP3    H241331   0.166   5.663   7.460  1.2757 -0.8240 -0.0229
 6566TIP3   OH241332   2.355   5.754   0.484 -0.1279 -0.2201 -0.0573
 6566TIP3    H141333   2.293   5.704   0.537 -0.4874  0.1018 -0.1670
 6566TIP3    H241334   2.437   5.748   0.531 -0.5822  0.5705  0.8803
 6567TIP3   OH241335   3.095   3.828   6.688 -0.0987  0.5248 -0.7884
 6567TIP3    H141336   3.031   3.877   6.740  0.4425  0.0757  0.3416
 6567TIP3    H241337   3.168   3.813   6.748  0.1464 -0.8497 -1.3908
 6568TIP3   OH241338   0.247   0.877   8.272  0.1622 -0.2166  0.1150
 6568TIP3    H141339   0.236   0.805   8.209 -1.2094 -0.3353  0.4706
 6568TIP3    H241340   0.171   0.871   8.329  1.2400  0.0611  1.6461
 6569TIP3   OH241341   4.380   5.767   1.597 -0.3178  0.5265 -0.0694
 6569TIP3    H141342   4.462   5.717   1.595  0.5525  1.8843  0.3166
 6569TIP3    H241343   4.347   5.755   1.686 -0.3858  0.2331 -0.1315
 6570TIP3   OH241344   6.455   5.596   7.701 -0.3893 -0.1883  0.0799
 6570TIP3    H141345   6.454   5.642   7.785  4.0297 -1.7730  1.2695
 6570TIP3    H241346   6.517   5.646   7.647  0.8633 -1.9888 -0.2520
 6571TIP3   OH241347   3.170   3.907   7.871  0.0816  0.8869  0.5474
 6571TIP3    H141348   3.131   3.883   7.788  2.1024 -1.9194  0.2524
 6571TIP3    H241349   3.184   3.823   7.916  4.4857  1.6511  1.0725
 6572TIP3   OH241350   3.211   3.504   6.178  0.4255 -0.0594 -0.3139
 6572TIP3    H141351   3.118   3.497   6.154 -0.3940  5.5282 -0.2226
 6572TIP3    H241352   3.258   3.478   6.099 -1.2331 -1.3971 -0.9264
 6573TIP3   OH241353   3.731   0.517   0.678  0.4061  0.2880 -0.7356
 6573TIP3    H141354   3.649   0.527   0.726  1.1357  0.4956  0.5307
 6573TIP3    H241355   3.708   0.532   0.587 -1.1739 -0.8085 -0.5503
 6574TIP3   OH241356   4.715   5.599   0.632 -0.0697 -0.3465  0.1704
 6574TIP3    H141357   4.654   5.528   0.652  0.5226 -0.8325  0.2647
 6574TIP3    H241358   4.790   5.583   0.689  0.6539 -0.4294 -0.7811
 6575TIP3   OH241359   2.792   5.469   6.807  0.8593  0.0780 -0.3313
 6575TIP3    H141360   2.818   5.523   6.733 -0.7453 -0.2441 -1.1875
 6575TIP3    H241361   2.785   5.531   6.881 -0.2055  0.9336 -1.1114
 6576TIP3   OH241362   6.949   0.775   1.792  0.0541  0.3812  0.1423
 6576TIP3    H141363   6.965   0.693   1.839 -0.8289 -1.7083 -2.8732
 6576TIP3    H241364   7.019   0.834   1.821  0.7755 -1.4334  2.3743
 6577TIP3   OH241365   5.672   1.056   8.024  0.3261 -0.0727  0.4581
 6577TIP3    H141366   5.618   1.008   7.962  0.9813  2.0638 -1.9378
 6577TIP3    H241367   5.609   1.091   8.088 -0.2334 -3.2193  1.8238
 6578TIP3   OH241368   3.504   1.916   7.694 -0.5635  0.5001 -0.2809
 6578TIP3    H141369   3.517   1.989   7.755 -0.3408  0.7544 -0.6274
 6578TIP3    H241370   3.452   1.955   7.623  0.2742  0.5411 -0.8797
 6579TIP3   OH241371   5.277   4.520   1.084  0.0818  0.0745  0.8660
 6579TIP3    H141372   5.278   4.497   1.177  1.2203 -1.1708  0.5727
 6579TIP3    H241373   5.363   4.558   1.067  0.4748 -1.1403  0.0068
 6580TIP3   OH241374   2.591   6.643   6.624  0.3354  0.3118 -0.2058
 6580TIP3    H141375   2.632   6.729   6.621  0.1958  0.6668  3.3324
 6580TIP3    H241376   2.661   6.583   6.649 -0.2613  0.0988  1.0723
 6581TIP3   OH241377   0.645   5.394   0.086 -0.2370  0.2924 -0.0780
 6581TIP3    H141378   0.696   5.464   0.126 -0.8043  0.2578  0.7313
 6581TIP3    H241379   0.554   5.422   0.094 -0.4985 -0.6544  0.5380
 6582TIP3   OH241380   1.374   0.068   7.762 -0.0826  0.5031  0.3278
 6582TIP3    H141381   1.351   0.161   7.768 -0.5541  0.3033  1.9759
 6582TIP3    H241382   1.360   0.034   7.850  1.0315 -0.9272 -0.0134
 6583TIP3   OH241383   6.513   4.299   8.304  0.1387  0.0321  0.1979
 6583TIP3    H141384   6.578   4.287   8.235 -0.6961 -0.6100 -0.4987
 6583TIP3    H241385   6.450   4.361   8.266 -1.2695 -1.6480 -0.3363
 6584TIP3   OH241386   0.470   0.868   7.403  0.3451 -0.7386  0.1233
 6584TIP3    H141387   0.427   0.944   7.443  1.7391  0.2352 -0.1793
 6584TIP3    H241388   0.463   0.799   7.469  0.4600  0.1177  1.0439
 6585TIP3   OH241389   3.148   2.610   0.777 -0.5499  0.2568  0.2012
 6585TIP3    H141390   3.243   2.610   0.760 -0.5695 -0.1007  0.0843
 6585TIP3    H241391   3.141   2.592   0.871 -0.5428 -1.7557 -0.1269
 6586TIP3   OH241392   4.809   2.936   1.173 -0.2497  0.3026 -0.2208
 6586TIP3    H141393   4.903   2.947   1.162 -0.5559  1.0835 -2.8346
 6586TIP3    H241394   4.775   3.025   1.178 -0.7513  0.0471  2.8432
 6587TIP3   OH241395   0.750   3.953   0.315  0.2506  0.1475  0.3780
 6587TIP3    H141396   0.742   4.019   0.246 -1.3687 -2.7273 -2.4893
 6587TIP3    H241397   0.664   3.954   0.358  1.2290  1.8722  2.4650
 6588TIP3   OH241398   5.331   5.159   0.788 -0.4594  0.0994 -0.0613
 6588TIP3    H141399   5.274   5.190   0.858 -0.8231  1.9451 -1.1164
 6588TIP3    H241400   5.273   5.109   0.731 -0.5720  0.2070 -0.0417
 6589TIP3   OH241401   6.853   0.152   0.581 -0.2031  0.0041 -0.2860
 6589TIP3    H141402   6.940   0.181   0.610  0.8519 -1.8540 -1.3770
 6589TIP3    H241403   6.814   0.230   0.541  2.0280  0.3097 -2.1139
 6590TIP3   OH241404   6.015   4.910   1.453  0.2491  0.0516 -0.4090
 6590TIP3    H141405   5.978   4.913   1.541  1.4483 -0.7129  0.1452
 6590TIP3    H241406   6.062   4.994   1.444 -0.6833  0.5523 -0.7054
 6591TIP3   OH241407   1.003   2.956   8.420 -0.2661 -0.3457  0.4115
 6591TIP3    H141408   0.974   2.892   8.355 -3.2946  0.5982  0.6825
 6591TIP3    H241409   0.988   3.041   8.378  0.8572  0.2400  1.1494
 6592TIP3   OH241410   0.510   3.104   1.049 -0.2047  0.3864 -0.0328
 6592TIP3    H141411   0.534   3.012   1.033  0.3890  0.0264  2.4495
 6592TIP3    H241412   0.512   3.144   0.963  3.5273 -1.0397 -0.8195
 6593TIP3   OH241413   5.441   5.212   8.273 -0.4012 -0.4854  0.1129
 6593TIP3    H141414   5.478   5.205   8.361  1.2423 -0.2866 -0.5146
 6593TIP3    H241415   5.403   5.299   8.269  0.0956 -0.2489  0.4324
 6594TIP3   OH241416   6.021   4.215   6.481  0.0263  0.2750  0.2322
 6594TIP3    H141417   6.098   4.237   6.429 -1.5261 -0.2819 -2.4405
 6594TIP3    H241418   5.973   4.298   6.488 -0.6174  0.0003 -0.7634
 6595TIP3   OH241419   3.409   6.901   0.159 -0.5870 -0.6063  0.2487
 6595TIP3    H141420   3.424   6.829   0.220  1.2807 -1.3129 -0.9620
 6595TIP3    H241421   3.345   6.865   0.097 -0.3769 -0.8841  0.1899
 6596TIP3   OH241422   3.460   6.447   1.725  0.1188  0.3729 -0.2231
 6596TIP3    H141423   3.509   6.392   1.663 -1.1427 -0.3273 -0.6342
 6596TIP3    H241424   3.444   6.390   1.800 -2.0410 -0.2104 -1.0494
 6597TIP3   OH241425   3.907   6.768   0.719 -0.5772  0.2239  0.2248
 6597TIP3    H141426   3.918   6.761   0.814  0.4863  0.2375  0.1138
 6597TIP3    H241427   3.979   6.717   0.683 -0.4913  0.8909 -0.5753
 6598TIP3   OH241428   4.068   5.565   1.471  0.3970 -0.2048  0.0326
 6598TIP3    H141429   4.127   5.501   1.511  1.2044 -0.3379 -1.2936
 6598TIP3    H241430   3.997   5.575   1.533  0.6817 -1.7659  0.6430
 6599TIP3   OH241431   6.659   5.791   0.827  0.0891 -0.4646 -0.8559
 6599TIP3    H141432   6.748   5.766   0.801  0.1518  0.3488 -1.5000
 6599TIP3    H241433   6.672   5.857   0.895 -0.0396 -0.8086 -0.4939
 6600TIP3   OH241434   2.749   0.436   2.034  0.5000  0.3475  0.1039
 6600TIP3    H141435   2.659   0.441   2.066  0.4487 -1.4924  0.3166
 6600TIP3    H241436   2.798   0.397   2.106  1.4670  1.2432 -0.0542
 6601TIP3   OH241437   0.672   2.846   8.408 -0.1691 -0.5226 -0.1292
 6601TIP3    H141438   0.753   2.794   8.405  0.4307  0.4131 -0.6531
 6601TIP3    H241439   0.602   2.783   8.392  0.3129 -1.6180  1.7038
 6602TIP3   OH241440   3.037   0.703   1.652  0.1884 -0.1328  0.6762
 6602TIP3    H141441   3.123   0.726   1.687  0.4440 -0.4031  0.2334
 6602TIP3    H241442   2.984   0.683   1.729  0.5251  0.0216  0.9486
 6603TIP3   OH241443   0.555   3.968   7.508 -0.1482 -0.3671  0.2269
 6603TIP3    H141444   0.649   3.958   7.522  0.1242  0.9288 -0.5540
 6603TIP3    H241445   0.526   4.022   7.582 -0.2401 -0.5491  0.3251
 6604TIP3   OH241446   6.397   1.916   7.914  0.3237  0.3263 -0.6210
 6604TIP3    H141447   6.331   1.919   7.983  1.6832  0.7871  0.7148
 6604TIP3    H241448   6.470   1.967   7.949  1.1878  0.2849 -2.2743
 6605TIP3   OH241449   3.509   2.551   0.399  0.0766  0.1519 -0.4972
 6605TIP3    H141450   3.594   2.561   0.442  0.0186 -1.1997 -0.0227
 6605TIP3    H241451   3.467   2.637   0.408  0.4889  0.2038  1.2649
 6606TIP3   OH241452   6.380   5.326   8.574  0.6414 -0.2137  0.1053
 6606TIP3    H141453   6.291   5.318   8.607  0.6094 -0.0619  0.0544
 6606TIP3    H241454   6.389   5.254   8.511 -0.0114  0.7841 -1.1829
 6607TIP3   OH241455   6.676   5.844   2.228  0.4355  0.7246 -0.4375
 6607TIP3    H141456   6.732   5.915   2.259  1.2301 -0.3095  0.5883
 6607TIP3    H241457   6.587   5.878   2.239  0.7985  1.5843 -0.0050
 6608TIP3   OH241458   1.373   0.096   6.634  0.4538 -0.3029  0.6975
 6608TIP3    H141459   1.374   0.129   6.724 -1.0634 -2.4696  1.5983
 6608TIP3    H241460   1.297   0.139   6.594  1.9547  1.7792 -0.0984
 6609TIP3   OH241461   6.521   4.808   2.462 -0.7154  0.2145  0.0952
 6609TIP3    H141462   6.519   4.892   2.417  1.4004  0.1208 -0.2868
 6609TIP3    H241463   6.461   4.753   2.413 -0.2971  0.8271 -1.1360
 6610TIP3   OH241464   6.865   4.445   6.525  0.0675 -0.2528 -0.6523
 6610TIP3    H141465   6.960   4.433   6.535 -0.1552 -1.1000  0.6026
 6610TIP3    H241466   6.826   4.387   6.590 -1.3220  0.2910 -0.9632
 6611TIP3   OH241467   3.151   6.704   1.656  0.1448 -0.0253  0.1750
 6611TIP3    H141468   3.153   6.629   1.716  0.9504 -1.0028 -1.0203
 6611TIP3    H241469   3.139   6.780   1.713  0.6298 -0.9356  1.5503
 6612TIP3   OH241470   2.613   1.851   1.817  0.0787  0.0644 -0.4491
 6612TIP3    H141471   2.580   1.904   1.889  0.0458 -0.2689 -0.2170
 6612TIP3    H241472   2.653   1.775   1.859  0.8700  0.3120 -0.7443
 6613TIP3   OH241473   0.826   0.789   1.016  0.6276  0.0054  0.0575
 6613TIP3    H141474   0.775   0.721   0.972  0.2483  0.8236 -0.7892
 6613TIP3    H241475   0.894   0.741   1.063 -1.3237 -1.2149  1.8706
 6614TIP3   OH241476   2.516   1.577   0.740  0.3781 -0.0810  0.1900
 6614TIP3    H141477   2.462   1.588   0.662  0.4288 -0.1526  0.1445
 6614TIP3    H241478   2.561   1.494   0.726  0.2116 -0.2059  0.4029
 6615TIP3   OH241479   3.067   4.849   7.166 -0.6272 -0.2388  0.2528
 6615TIP3    H141480   3.087   4.778   7.105  1.2449  0.7828 -0.4301
 6615TIP3    H241481   3.153   4.882   7.193 -1.4317  0.8668  1.6306
 6616TIP3   OH241482   2.065   0.668   6.669 -0.1454  0.2005  0.2061
 6616TIP3    H141483   2.158   0.649   6.657 -0.1978  0.9728 -1.7126
 6616TIP3    H241484   2.043   0.628   6.753  1.7270 -0.6624  0.3275
 6617TIP3   OH241485   4.024   4.336   6.922  0.1720  0.2325  0.0724
 6617TIP3    H141486   3.981   4.406   6.873  1.1477 -1.4411 -3.5352
 6617TIP3    H241487   4.098   4.379   6.965  0.3056  1.5937 -1.4002
 6618TIP3   OH241488   3.737   3.735   6.473 -0.9681  0.0798  0.5108
 6618TIP3    H141489   3.726   3.790   6.395 -1.2931  0.0693  0.5444
 6618TIP3    H241490   3.686   3.656   6.453 -2.3186  0.7133  1.3409
 6619TIP3   OH241491   3.521   2.505   0.104 -0.0899 -0.1965 -0.4319
 6619TIP3    H141492   3.534   2.508   0.199  0.3967 -1.0250 -0.4524
 6619TIP3    H241493   3.451   2.441   0.091  1.0405 -1.4263 -0.6991
 6620TIP3   OH241494   5.909   5.699   7.404 -0.0580 -0.1856 -0.2572
 6620TIP3    H141495   5.938   5.610   7.383 -1.0742 -1.1154  1.8635
 6620TIP3    H241496   5.957   5.756   7.344  1.8782 -2.0400 -0.5771
 6621TIP3   OH241497   5.106   1.661   1.090  0.4497  0.0162 -0.2135
 6621TIP3    H141498   5.114   1.680   1.183  1.9775  1.1109 -0.5281
 6621TIP3    H241499   5.100   1.566   1.085 -2.4575  0.0181  1.1375
 6622TIP3   OH241500   0.797   5.981   7.717  0.1554  0.0638 -0.3558
 6622TIP3    H141501   0.846   6.043   7.771  0.3207  0.2716 -0.7427
 6622TIP3    H241502   0.864   5.925   7.678  0.0016 -0.4259  0.0676
 6623TIP3   OH241503   2.726   3.329   6.330 -0.2048  0.4565 -0.5813
 6623TIP3    H141504   2.681   3.385   6.394  0.6672 -0.6371  1.0721
 6623TIP3    H241505   2.755   3.254   6.381  1.2322 -0.1003 -2.1358
 6624TIP3   OH241506   5.380   6.683   7.484 -0.5421  0.5790 -0.4047
 6624TIP3    H141507   5.431   6.635   7.419  1.0517  1.1674  0.3479
 6624TIP3    H241508   5.308   6.722   7.435  0.1091  0.2742 -1.6392
 6625TIP3   OH241509   1.424   6.308   8.551 -0.1663 -0.4868 -0.1071
 6625TIP3    H141510   1.341   6.345   8.579 -0.5703 -2.5584  1.7713
 6625TIP3    H241511   1.404   6.261   8.470 -0.4634  0.3095 -0.4990
 6626TIP3   OH241512   4.536   1.244   1.568 -0.1434  0.1063 -0.4094
 6626TIP3    H141513   4.599   1.265   1.636 -0.9561  1.7015 -0.1243
 6626TIP3    H241514   4.574   1.280   1.488 -0.4969  0.7012 -0.3100
 6627TIP3   OH241515   5.061   0.699   1.130 -0.4115  0.1825 -0.2549
 6627TIP3    H141516   5.037   0.750   1.052 -0.8827  0.9411  0.3730
 6627TIP3    H241517   5.020   0.614   1.117 -0.4933  0.3059 -0.8283
 6628TIP3   OH241518   6.651   3.174   7.045  0.4094  0.4649  0.2044
 6628TIP3    H141519   6.740   3.206   7.056  0.6046 -0.3347  1.0597
 6628TIP3    H241520   6.651   3.133   6.959  1.2956 -0.8131  0.7744
 6629TIP3   OH241521   1.849   1.814   2.403 -0.1550  0.2070  0.3872
 6629TIP3    H141522   1.825   1.750   2.470 -0.6142 -1.4658 -1.3039
 6629TIP3    H241523   1.825   1.773   2.320 -0.0719  2.4114 -0.8112
 6630TIP3   OH241524   4.832   5.733   7.970  0.0948  0.1730  0.2389
 6630TIP3    H141525   4.798   5.736   7.881 -0.1920  1.6510  0.3706
 6630TIP3    H241526   4.874   5.818   7.983  0.9496 -0.3682  1.2067
 6631TIP3   OH241527   4.613   4.666   0.638 -0.5497 -0.0372  0.2798
 6631TIP3    H141528   4.659   4.622   0.709  0.1921 -0.8792 -0.6864
 6631TIP3    H241529   4.677   4.669   0.566 -1.2229  0.9194 -0.3065
 6632TIP3   OH241530   4.559   2.610   8.573  0.6547  0.1402 -0.1433
 6632TIP3    H141531   4.610   2.636   8.496 -0.2163  1.6126 -0.2462
 6632TIP3    H241532   4.468   2.613   8.544  0.3491  0.1719  0.7933
 6633TIP3   OH241533   2.200   5.247   8.228  0.3763 -0.3583  0.3560
 6633TIP3    H141534   2.170   5.273   8.315 -0.5022 -0.6477  0.1522
 6633TIP3    H241535   2.247   5.165   8.242 -1.7452 -1.6870  0.3275
 6634TIP3   OH241536   1.810   6.182   7.734 -0.1908  0.0230  0.4766
 6634TIP3    H141537   1.839   6.170   7.644  0.2164 -0.2393  0.6390
 6634TIP3    H241538   1.769   6.099   7.758  0.0090 -0.0319  0.6401
 6635TIP3   OH241539   5.775   6.059   1.498  0.3982 -0.3213 -0.2252
 6635TIP3    H141540   5.724   6.100   1.428 -0.3278  1.4143  1.2365
 6635TIP3    H241541   5.756   5.966   1.489 -1.2934  0.0562 -1.0874
 6636TIP3   OH241542   0.510   4.084   7.813  0.8008  0.3330  0.2516
 6636TIP3    H141543   0.578   4.090   7.880 -1.0544 -1.5713  2.5411
 6636TIP3    H241544   0.498   3.990   7.800 -0.8923  0.6282 -0.5715
 6637TIP3   OH241545   3.862   1.614   7.846  0.3384 -0.2446 -0.4189
 6637TIP3    H141546   3.869   1.703   7.880  0.3982 -0.5939  0.4936
 6637TIP3    H241547   3.882   1.623   7.753  0.9872  0.5961 -0.2138
 6638TIP3   OH241548   5.864   4.908   0.204  0.1908 -0.0414  0.6183
 6638TIP3    H141549   5.954   4.920   0.233  1.0953 -0.3226 -1.8097
 6638TIP3    H241550   5.865   4.936   0.112 -1.7179 -1.9628 -0.0612
 6639TIP3   OH241551   3.635   3.459   6.419 -0.4437 -0.4397 -0.5016
 6639TIP3    H141552   3.694   3.388   6.393 -0.5770 -0.0050 -2.1112
 6639TIP3    H241553   3.549   3.418   6.424 -0.1612 -0.9158  1.1311
 6640TIP3   OH241554   1.991   2.074   7.718 -0.1355  0.3427 -0.2925
 6640TIP3    H141555   1.970   2.144   7.780  1.5070  1.5043 -0.9807
 6640TIP3    H241556   1.906   2.036   7.696 -0.8582  0.6317  1.7861
 6641TIP3   OH241557   5.754   3.486   0.136  0.3034 -0.5787 -0.0948
 6641TIP3    H141558   5.755   3.406   0.188  2.1227 -0.1727  0.5504
 6641TIP3    H241559   5.808   3.467   0.059 -2.1908 -1.1093 -1.8714
 6642TIP3   OH241560   5.017   5.751   0.333 -0.3104 -0.1991 -0.6601
 6642TIP3    H141561   4.937   5.698   0.336 -0.8790  0.6217 -0.9971
 6642TIP3    H241562   5.006   5.807   0.256 -1.5026  3.1265  1.6805
 6643TIP3   OH241563   6.731   2.331   8.437  0.4380  0.3119 -0.3535
 6643TIP3    H141564   6.753   2.238   8.436  0.9532  0.3600 -3.3865
 6643TIP3    H241565   6.640   2.335   8.407 -0.3634  0.7418  1.9095
 6644TIP3   OH241566   3.839   3.907   0.797 -0.0765  0.3989 -0.3727
 6644TIP3    H141567   3.856   3.972   0.865 -0.6434  0.3614 -0.1905
 6644TIP3    H241568   3.891   3.831   0.823 -1.6923 -0.2716  1.0214
 6645TIP3   OH241569   2.765   2.362   7.400 -0.2969  0.4979 -0.3600
 6645TIP3    H141570   2.789   2.355   7.308 -1.3240 -0.8154 -0.5573
 6645TIP3    H241571   2.828   2.424   7.437 -0.3178  1.6085 -2.0848
 6646TIP3   OH241572   1.201   0.266   2.534 -0.1505  0.2256 -0.1265
 6646TIP3    H141573   1.176   0.180   2.567 -0.1048  0.3357  0.2066
 6646TIP3    H241574   1.138   0.285   2.464  1.2523 -1.0747 -1.8063
 6647TIP3   OH241575   0.149   1.267   7.598 -0.2128  0.9405  0.6867
 6647TIP3    H141576   0.118   1.193   7.650  0.6588  0.3808  0.4292
 6647TIP3    H241577   0.137   1.343   7.654  1.3318  0.2722  2.0044
 6648TIP3   OH241578   0.245   3.300   0.104  0.4290 -0.3941 -0.1167
 6648TIP3    H141579   0.229   3.288   0.198 -1.5836  0.4707 -0.2946
 6648TIP3    H241580   0.158   3.295   0.064  1.3355 -1.6361 -2.0793
 6649TIP3   OH241581   2.945   0.504   7.415  0.2682 -0.1798  0.2184
 6649TIP3    H141582   2.954   0.417   7.454 -2.3973 -0.7585 -0.2893
 6649TIP3    H241583   2.999   0.501   7.336  0.6474 -1.1766  0.5018
 6650TIP3   OH241584   2.990   3.157   1.959  0.3107  0.4636 -0.0831
 6650TIP3    H141585   2.921   3.220   1.940 -1.1272 -0.8122  0.6625
 6650TIP3    H241586   2.997   3.157   2.055  0.4603 -0.2923 -0.0851
 6651TIP3   OH241587   4.207   2.343   1.314 -0.1897 -0.2411 -0.1367
 6651TIP3    H141588   4.196   2.375   1.404 -3.0401 -0.5348 -0.2758
 6651TIP3    H241589   4.277   2.397   1.278  0.7670  0.1556  2.1130
 6652TIP3   OH241590   2.917   2.474   0.689  0.1994 -0.1928  0.3236
 6652TIP3    H141591   2.923   2.445   0.780 -0.6838 -1.3412  0.0419
 6652TIP3    H241592   2.991   2.532   0.678  0.6296 -0.4502  1.6314
 6653TIP3   OH241593   5.274   6.903   0.288 -0.4517  0.0263  0.2987
 6653TIP3    H141594   5.224   6.826   0.314  1.2745 -1.3638 -0.2296
 6653TIP3    H241595   5.258   6.912   0.194 -0.3487  0.0716  0.2849
 6654TIP3   OH241596   4.378   4.429   8.353  0.1136  0.4359  0.2571
 6654TIP3    H141597   4.376   4.446   8.447 -0.2681  1.2751  0.1067
 6654TIP3    H241598   4.291   4.454   8.322  0.4062  0.6784 -0.3992
 6655TIP3   OH241599   5.512   5.238   8.536 -0.0680  0.0615  0.6888
 6655TIP3    H141600   5.587   5.247   8.595  2.2589 -0.6844 -1.9816
 6655TIP3    H241601   5.443   5.291   8.578  2.3649  2.0575  2.5194
 6656TIP3   OH241602   0.402   2.773   7.484  0.2038  0.4981  0.2258
 6656TIP3    H141603   0.343   2.755   7.411  0.1467 -1.2085  0.6462
 6656TIP3    H241604   0.490   2.757   7.448  0.1311 -1.1476  0.7039
 6657TIP3   OH241605   6.335   1.168   7.930  0.5301  0.5475 -0.0607
 6657TIP3    H141606   6.374   1.171   7.843 -0.4055 -0.8960 -0.5704
 6657TIP3    H241607   6.396   1.115   7.981 -0.2284 -0.9211 -0.6090
 6658TIP3   OH241608   2.527   4.652   8.092 -0.1927  0.0973 -0.3555
 6658TIP3    H141609   2.445   4.690   8.125  0.0038  0.4504 -0.2782
 6658TIP3    H241610   2.521   4.559   8.117  0.9548  0.7277  2.7401
 6659TIP3   OH241611   2.951   3.013   7.649 -0.3257 -0.5012 -0.0544
 6659TIP3    H141612   2.968   2.953   7.576 -1.3496  0.1262 -0.8423
 6659TIP3    H241613   2.858   3.035   7.641 -0.3916 -0.1897  1.2832
 6660TIP3   OH241614   0.313   6.743   0.931  0.3608  0.0816  0.3265
 6660TIP3    H141615   0.221   6.728   0.910  0.5445 -0.5875 -0.0184
 6660TIP3    H241616   0.314   6.755   1.026 -0.2308  1.2959  0.2114
 6661TIP3   OH241617   2.807   3.750   8.577  0.5138 -0.0610  0.5195
 6661TIP3    H141618   2.839   3.803   8.504 -2.0251 -0.1292 -0.7503
 6661TIP3    H241619   2.784   3.666   8.538 -1.2830  0.0285  1.2633
 6662TIP3   OH241620   4.780   0.404   1.323  0.0147  0.5629 -0.1902
 6662TIP3    H141621   4.838   0.336   1.289 -0.1535 -0.2927  1.1879
 6662TIP3    H241622   4.837   0.460   1.376 -0.0749  0.8341 -0.3743
 6663TIP3   OH241623   3.265   6.570   8.490  0.1539  0.0695 -0.3450
 6663TIP3    H141624   3.178   6.537   8.466  0.2386  0.6493 -1.4800
 6663TIP3    H241625   3.275   6.544   8.582 -0.3834 -1.7748 -0.7716
 6664TIP3   OH241626   0.013   0.707   7.827 -0.1862  0.0951 -0.5251
 6664TIP3    H141627   0.041   0.789   7.785  0.8386 -0.7659 -1.6033
 6664TIP3    H241628   0.077   0.643   7.797  0.7638 -0.5619  2.5890
 6665TIP3   OH241629   3.058   5.503   0.531 -0.4887 -0.2709  0.2236
 6665TIP3    H141630   3.113   5.446   0.478  0.0051  0.6398 -0.2667
 6665TIP3    H241631   3.115   5.576   0.554 -0.5852 -0.7906  2.2990
 6666TIP3   OH241632   5.179   1.975   1.108 -0.3459  0.0010  0.0165
 6666TIP3    H141633   5.127   1.938   1.179  3.0517 -0.2210  2.6036
 6666TIP3    H241634   5.202   2.063   1.138  1.2832 -0.1486 -0.6750
 6667TIP3   OH241635   2.946   2.932   8.499  0.9959 -0.2593  0.2535
 6667TIP3    H141636   2.901   2.849   8.514 -2.4194  1.3336 -0.0907
 6667TIP3    H241637   2.972   2.929   8.407  0.4849 -0.8070  0.1218
 6668TIP3   OH241638   2.763   3.896   7.940  0.3777 -0.1771 -0.2846
 6668TIP3    H141639   2.791   3.896   8.031 -1.4749  0.0791  0.3152
 6668TIP3    H241640   2.685   3.842   7.938 -1.2137  2.0028 -1.1744
 6669TIP3   OH241641   1.937   0.024   7.275 -0.1102 -0.4425 -0.2580
 6669TIP3    H141642   1.885  -0.038   7.326  0.2945 -0.7923 -0.2671
 6669TIP3    H241643   2.006  -0.029   7.236  0.7139  0.1236  0.3814
 6670TIP3   OH241644   6.423   5.122   8.138 -1.0337  0.6526  0.5434
 6670TIP3    H141645   6.394   5.182   8.069  0.4841  1.3256  0.4497
 6670TIP3    H241646   6.439   5.040   8.092  0.9846  1.3841 -0.1635
 6671TIP3   OH241647   0.475   2.203   1.821 -0.0420 -0.5034  0.1898
 6671TIP3    H141648   0.500   2.227   1.910  0.0739 -0.7191  0.2170
 6671TIP3    H241649   0.554   2.161   1.785 -0.2332 -0.8172  0.1380
 6672TIP3   OH241650   3.225   4.532   1.241 -0.4395 -0.2769 -0.2177
 6672TIP3    H141651   3.303   4.539   1.295 -0.3477  0.2138 -0.4106
 6672TIP3    H241652   3.153   4.523   1.303 -0.6631  3.0303  0.1396
 6673TIP3   OH241653   4.379   6.938   0.425  0.0782 -0.0558 -0.1113
 6673TIP3    H141654   4.291   6.956   0.457  0.6240  3.1255 -0.0334
 6673TIP3    H241655   4.408   7.022   0.388  1.4261 -2.0734 -4.2837
 6674TIP3   OH241656   6.953   6.912   1.342 -0.2558 -0.1598  0.3760
 6674TIP3    H141657   6.983   6.841   1.398 -0.5941 -1.4500 -1.0025
 6674TIP3    H241658   6.873   6.945   1.384 -1.4428 -2.2109 -0.1420
 6675TIP3   OH241659   4.482   2.403   7.249 -0.2024 -0.5079  0.5285
 6675TIP3    H141660   4.388   2.403   7.235  0.0418  0.0126 -1.3595
 6675TIP3    H241661   4.518   2.354   7.175  0.9211 -2.4688  2.2437
 6676TIP3   OH241662   1.594   6.473   7.998 -0.3074 -0.1765 -0.3015
 6676TIP3    H141663   1.587   6.441   7.908  0.5646  0.1433 -0.4946
 6676TIP3    H241664   1.509   6.453   8.038 -1.0133  0.4677 -1.4484
 6677TIP3   OH241665   0.095   4.788   6.852 -0.3001 -0.1139 -0.4288
 6677TIP3    H141666   0.156   4.729   6.807  0.3970  0.3753 -0.1484
 6677TIP3    H241667   0.070   4.851   6.785  0.2705  0.2591 -0.3011
 6678TIP3   OH241668   5.376   3.103   0.051  0.3795 -0.1841  0.4365
 6678TIP3    H141669   5.431   3.037   0.009  0.3037 -0.4255  0.7126
 6678TIP3    H241670   5.288   3.064   0.050  0.1686  0.2716 -0.1672
 6679TIP3   OH241671   5.339   0.818   1.688  0.1558  0.9222 -0.2015
 6679TIP3    H141672   5.417   0.773   1.721 -1.0980 -1.1364  0.1598
 6679TIP3    H241673   5.373   0.890   1.635  2.2789  0.2615  0.1702
 6680TIP3   OH241674   4.977   0.755   6.455 -0.8799 -0.2779 -0.0224
 6680TIP3    H141675   5.054   0.809   6.436  1.2554 -3.1190 -0.2061
 6680TIP3    H241676   4.903   0.808   6.427  1.0428  2.3464 -0.5422
 6681TIP3   OH241677   3.736   2.696   0.805  0.0199 -0.1503 -0.4112
 6681TIP3    H141678   3.709   2.676   0.715 -2.7325 -0.0140  0.2874
 6681TIP3    H241679   3.818   2.744   0.795 -1.0864  1.4521 -3.0250
 6682TIP3   OH241680   5.737   3.529   1.416 -0.1678 -0.1374  0.0504
 6682TIP3    H141681   5.751   3.624   1.423 -1.9242  0.1261  0.4509
 6682TIP3    H241682   5.716   3.515   1.324 -0.5862 -0.0298  0.1284
 6683TIP3   OH241683   5.053   3.666   1.515  0.1620  0.0109 -0.6682
 6683TIP3    H141684   4.988   3.644   1.448 -1.0313 -0.1187  0.4821
 6683TIP3    H241685   5.042   3.760   1.529 -1.1825 -0.3241  0.8794
 6684TIP3   OH241686   2.479   4.877   0.327 -0.1040  0.2005 -0.1011
 6684TIP3    H141687   2.570   4.874   0.296 -1.0984 -0.2555 -3.3174
 6684TIP3    H241688   2.461   4.788   0.358 -0.0551 -0.3417 -1.5510
 6685TIP3   OH241689   6.617   5.931   8.054  0.0489 -0.3867  0.1828
 6685TIP3    H141690   6.641   6.020   8.078 -0.3669 -0.7339  2.1072
 6685TIP3    H241691   6.694   5.896   8.010 -0.5189  1.5544 -2.6041
 6686TIP3   OH241692   1.590   3.149   6.829 -0.0971 -0.6507 -0.4354
 6686TIP3    H141693   1.550   3.194   6.903 -0.2541 -1.8538  0.2412
 6686TIP3    H241694   1.648   3.214   6.790 -0.4016  0.1665  0.4343
 6687TIP3   OH241695   5.039   2.655   8.244 -0.3679 -0.0607  0.1265
 6687TIP3    H141696   5.020   2.672   8.151 -1.0102 -1.4922 -0.0239
 6687TIP3    H241697   4.955   2.628   8.281  0.1820 -0.8599  0.8091
 6688TIP3   OH241698   0.686   1.235   8.363 -0.2016  0.0701 -0.8847
 6688TIP3    H141699   0.745   1.247   8.289 -0.3962  1.1929 -0.8682
 6688TIP3    H241700   0.621   1.172   8.332  1.0203 -1.2701 -0.8728
 6689TIP3   OH241701   2.901   3.666   0.778  0.3050 -0.0053 -0.1588
 6689TIP3    H141702   2.878   3.591   0.724  1.0095  1.5288 -2.7801
 6689TIP3    H241703   2.816   3.698   0.811 -0.2567 -0.4040 -1.1847
 6690TIP3   OH241704   1.641   4.495   6.548  0.1501  0.4360  0.2767
 6690TIP3    H141705   1.718   4.439   6.557  0.2678  0.2808 -1.4494
 6690TIP3    H241706   1.634   4.540   6.632  1.1345 -0.7872  1.0489
 6691TIP3   OH241707   4.829   4.609   7.986  0.3155  0.0442  0.4270
 6691TIP3    H141708   4.903   4.635   7.932  1.5901 -0.2773  1.9501
 6691TIP3    H241709   4.799   4.527   7.947  0.5055  0.3731 -0.4303
 6692TIP3   OH241710   4.005   6.493   8.083 -0.3365  0.5623 -0.0123
 6692TIP3    H141711   4.026   6.480   8.176 -0.6446 -1.2595 -0.1590
 6692TIP3    H241712   4.084   6.465   8.036 -0.8311 -0.2917 -0.3488
 6693TIP3   OH241713   1.879   2.997   7.324 -0.1681 -0.2026  0.2679
 6693TIP3    H141714   1.916   2.924   7.374 -0.4438 -0.8342 -0.4290
 6693TIP3    H241715   1.794   3.013   7.364 -1.1549 -1.8536 -1.0294
 6694TIP3   OH241716   2.501   2.862   1.529  0.3765 -0.3005  0.7437
 6694TIP3    H141717   2.563   2.895   1.464 -1.3279 -0.2287 -0.9659
 6694TIP3    H241718   2.546   2.789   1.571  1.4700 -0.5051 -0.7046
 6695TIP3   OH241719   0.744   1.202   7.347  0.3192  0.4776  0.4222
 6695TIP3    H141720   0.761   1.202   7.441 -1.0152 -0.9267  0.7007
 6695TIP3    H241721   0.656   1.239   7.339  0.2425  0.1645 -0.2363
 6696TIP3   OH241722   4.772   5.841   0.916 -0.1683 -0.2281 -0.4708
 6696TIP3    H141723   4.698   5.892   0.950 -0.7701 -1.9957  1.0746
 6696TIP3    H241724   4.846   5.901   0.919 -1.1078  0.9517  0.0043
 6697TIP3   OH241725   2.798   3.159   6.532 -0.4288 -0.0841  0.5985
 6697TIP3    H141726   2.869   3.159   6.596 -0.4462  2.5874  0.7520
 6697TIP3    H241727   2.774   3.067   6.522  2.5435 -1.0150  1.0666
 6698TIP3   OH241728   6.681   6.854   8.131 -0.3044  0.2855  0.5380
 6698TIP3    H141729   6.727   6.818   8.054 -0.1248 -0.0129  0.7804
 6698TIP3    H241730   6.739   6.833   8.205 -1.7956 -2.0372  1.1606
 6699TIP3   OH241731   3.276   4.458   0.196  0.5102  0.1943 -0.3338
 6699TIP3    H141732   3.191   4.494   0.171  0.4155 -0.3682 -0.8414
 6699TIP3    H241733   3.328   4.463   0.116  0.7893  0.0627 -0.1610
 6700TIP3   OH241734   5.956   3.799   7.782 -0.8401 -0.5321  0.5447
 6700TIP3    H141735   5.906   3.854   7.721  0.0487 -1.3659 -1.0187
 6700TIP3    H241736   5.899   3.724   7.798 -0.6110 -0.8887 -0.2514
 6701TIP3   OH241737   6.044   2.309   1.375 -0.7749 -0.6944  0.3723
 6701TIP3    H141738   6.024   2.395   1.411 -0.3037 -0.1744 -0.5689
 6701TIP3    H241739   6.028   2.248   1.447 -3.4649 -0.0998  0.3586
 6702TIP3   OH241740   1.445   1.058   1.448 -0.2855 -0.1116 -0.1455
 6702TIP3    H141741   1.442   1.153   1.460 -0.9119 -0.1650  0.1312
 6702TIP3    H241742   1.530   1.033   1.485 -0.4209  0.2564  0.4432
 6703TIP3   OH241743   0.570   2.744   0.512 -0.3784 -0.0877  0.3506
 6703TIP3    H141744   0.550   2.651   0.504 -1.0419  0.1320 -0.8079
 6703TIP3    H241745   0.657   2.754   0.473 -1.7697  0.2767 -3.0184
 6704TIP3   OH241746   6.905   2.330   0.125 -0.1846 -0.0252 -0.1651
 6704TIP3    H141747   6.822   2.360   0.162 -1.1078 -1.3569 -1.0368
 6704TIP3    H241748   6.910   2.374   0.040 -1.5438 -2.1145 -1.4485
 6705TIP3   OH241749   3.117   6.142   1.777  0.1172 -0.5884  0.3122
 6705TIP3    H141750   3.158   6.198   1.711  0.6331 -1.5533 -0.2053
 6705TIP3    H241751   3.169   6.062   1.776 -0.5829 -1.0661  1.0720
 6706TIP3   OH241752   4.041   4.187   6.684  0.2644 -0.0271  0.2240
 6706TIP3    H141753   4.136   4.179   6.669  0.3962  0.0718  0.9926
 6706TIP3    H241754   4.034   4.239   6.764 -0.4272 -0.8523  0.7087
 6707TIP3   OH241755   4.146   4.531   0.955  0.2289  1.0280 -0.5990
 6707TIP3    H141756   4.116   4.440   0.958  2.1985  0.3082 -1.3917
 6707TIP3    H241757   4.129   4.559   0.865 -0.0331  1.3370 -0.4561
 6708TIP3   OH241758   0.090   4.340   6.223  0.2051 -0.4520  0.7693
 6708TIP3    H141759   0.022   4.314   6.160 -0.9738 -0.1112  1.8688
 6708TIP3    H241760   0.161   4.278   6.208 -0.0592 -0.4166 -0.8538
 6709TIP3   OH241761   0.273   3.852   0.284 -0.1390  0.4052  0.2077
 6709TIP3    H141762   0.353   3.815   0.323 -0.7331 -0.9621  0.2088
 6709TIP3    H241763   0.250   3.790   0.215 -0.5083  1.4643 -0.6352
 6710TIP3   OH241764   2.764   6.421   1.771  0.3751  0.3139 -0.1587
 6710TIP3    H141765   2.672   6.438   1.789  0.2942  0.4125 -0.6635
 6710TIP3    H241766   2.799   6.389   1.855  0.3130  1.9950  0.5386
 6711TIP3   OH241767   6.908   4.345   7.780  0.5036  0.6727  0.5112
 6711TIP3    H141768   6.904   4.280   7.851  2.0283 -0.2067 -0.1586
 6711TIP3    H241769   6.870   4.299   7.704  1.6453  0.4898  0.0191
 6712TIP3   OH241770   5.753   6.390   2.435 -0.2479  0.1140 -0.1876
 6712TIP3    H141771   5.808   6.364   2.361 -0.8358  0.8500 -0.8973
 6712TIP3    H241772   5.664   6.364   2.410 -0.2115 -1.5410  1.1661
 6713TIP3   OH241773   0.392   2.358   7.554  0.2274 -0.2729 -0.4341
 6713TIP3    H141774   0.370   2.334   7.644 -1.9477  0.5377 -0.6744
 6713TIP3    H241775   0.422   2.277   7.514  2.4754 -0.3926  1.3216
 6714TIP3   OH241776   5.457   0.323   1.056 -0.0967 -0.3510 -0.4452
 6714TIP3    H141777   5.470   0.386   0.985 -0.2257 -0.5705 -0.6639
 6714TIP3    H241778   5.529   0.341   1.117 -0.5156  0.4471 -0.1781
 6715TIP3   OH241779   3.083   6.950   7.577 -0.0544  0.1627  0.2363
 6715TIP3    H141780   3.156   6.993   7.532  0.1459 -0.2914  0.1226
 6715TIP3    H241781   3.090   6.981   7.668 -0.1535  0.6787  0.0756
 6716TIP3   OH241782   5.526   1.156   7.547  0.4959 -0.0148 -0.1161
 6716TIP3    H141783   5.558   1.068   7.527 -1.1581 -0.7483  0.2646
 6716TIP3    H241784   5.483   1.186   7.467 -1.2290 -0.6644  0.5180
 6717TIP3   OH241785   5.487   5.492   8.070 -0.1907  0.3484 -0.3423
 6717TIP3    H141786   5.514   5.584   8.065 -0.9211  0.5252 -1.3789
 6717TIP3    H241787   5.514   5.455   7.985 -1.0124 -0.0716 -0.4289
 6718TIP3   OH241788   6.172   4.400   6.717 -0.0565 -0.1775 -0.7712
 6718TIP3    H141789   6.251   4.454   6.724  0.5481 -0.7798 -2.5609
 6718TIP3    H241790   6.116   4.447   6.656 -0.7346 -0.2022 -0.1852
 6719TIP3   OH241791   1.154   2.059   6.731 -0.1173  0.0379 -0.0377
 6719TIP3    H141792   1.239   2.101   6.747  0.1803 -0.3308 -0.6075
 6719TIP3    H241793   1.174   1.965   6.732 -0.2360 -0.0342 -1.6353
 6720TIP3   OH241794   0.603   2.693   2.198  0.0972  0.3253  0.4106
 6720TIP3    H141795   0.613   2.789   2.199  2.3034  0.1592  0.4736
 6720TIP3    H241796   0.585   2.670   2.290 -0.4189  0.6626  0.3995
 6721TIP3   OH241797   2.703   2.777   6.542  0.6018  0.0867  0.3270
 6721TIP3    H141798   2.624   2.828   6.563  1.0924  0.3667  1.5573
 6721TIP3    H241799   2.721   2.799   6.451 -1.2447 -0.6697 -0.2793
 6722TIP3   OH241800   3.218   2.022   0.053 -0.4959  1.1760  0.6446
 6722TIP3    H141801   3.251   1.959  -0.011 -2.4586  0.1815  0.5570
 6722TIP3    H241802   3.216   1.974   0.136 -2.5575  0.8798  0.4635
 6723TIP3   OH241803   3.140   2.682   7.718 -0.4925 -0.4374 -0.3822
 6723TIP3    H141804   3.234   2.689   7.706 -0.6419  1.4304 -0.6716
 6723TIP3    H241805   3.125   2.705   7.809 -0.8746  2.0121 -1.0028
 6724TIP3   OH241806   1.374   3.174   8.498 -1.2338 -0.2989  0.1302
 6724TIP3    H141807   1.398   3.089   8.534 -2.2576 -0.1938  1.0916
 6724TIP3    H241808   1.454   3.204   8.453 -1.2665 -2.3786 -1.5010
 6725TIP3   OH241809   4.299   3.868   7.577 -0.0877 -0.0716 -0.4830
 6725TIP3    H141810   4.362   3.863   7.506  0.5590 -0.0383  0.0833
 6725TIP3    H241811   4.303   3.959   7.606 -0.6454  0.0171 -0.6580
 6726TIP3   OH241812   1.457   0.463   7.236  0.3309  0.1327  0.2985
 6726TIP3    H141813   1.464   0.401   7.308 -0.9598 -1.4022 -0.8162
 6726TIP3    H241814   1.510   0.423   7.166  0.8046  1.1237  0.0742
 6727TIP3   OH241815   0.921   4.827   1.525 -0.2209 -0.0587  0.6878
 6727TIP3    H141816   0.829   4.855   1.516 -0.1701 -0.2077 -0.4347
 6727TIP3    H241817   0.934   4.765   1.453  0.4160 -0.9830  1.5827
 6728TIP3   OH241818   3.177   2.374   1.484  0.1644  0.9189  0.1855
 6728TIP3    H141819   3.088   2.411   1.488 -0.4049 -0.1730 -1.2335
 6728TIP3    H241820   3.222   2.427   1.419 -0.2369  0.0133 -0.8694
 6729TIP3   OH241821   0.155   0.189   0.375  0.3687  0.2447 -0.0238
 6729TIP3    H141822   0.156   0.188   0.471  1.1008 -1.1423 -0.0019
 6729TIP3    H241823   0.203   0.268   0.351 -1.1050  1.3919  0.7282
 6730TIP3   OH241824   0.260   0.431   0.347  0.6893 -0.3844  0.1494
 6730TIP3    H141825   0.259   0.482   0.428  1.9438 -0.1620  0.0486
 6730TIP3    H241826   0.351   0.437   0.316 -0.1295  1.0845 -2.2471
 6731TIP3   OH241827   2.557   5.384   2.257 -0.3098  0.1383 -0.1230
 6731TIP3    H141828   2.620   5.400   2.327 -1.1410  2.1459  0.2375
 6731TIP3    H241829   2.485   5.337   2.300 -0.0803 -0.1052 -0.0073
 6732TIP3   OH241830   4.826   3.802   0.581  0.2028 -0.4671 -0.1497
 6732TIP3    H141831   4.737   3.836   0.575 -0.4166 -2.0150 -0.2118
 6732TIP3    H241832   4.833   3.771   0.672  1.3383  1.3089  0.4141
 6733TIP3   OH241833   0.344   6.642   8.515  0.3083 -0.5275 -0.3999
 6733TIP3    H141834   0.336   6.586   8.592 -0.4550  0.4330  0.2291
 6733TIP3    H241835   0.257   6.679   8.503  1.0369  1.3405 -0.1817
 6734TIP3   OH241836   0.385   3.615   1.572  0.1311  0.4587 -0.0633
 6734TIP3    H141837   0.370   3.706   1.550 -1.5015  0.5908  1.3395
 6734TIP3    H241838   0.344   3.566   1.501 -0.0216  0.8219 -0.2279
 6735TIP3   OH241839   3.907   2.214   0.089  0.1994  0.2442  0.1914
 6735TIP3    H141840   3.881   2.186   0.177 -1.4136 -0.2328 -0.4081
 6735TIP3    H241841   3.827   2.208   0.037  1.2827 -0.2224 -1.5051
 6736TIP3   OH241842   0.670   2.257   0.228  0.5661 -0.0847 -0.2764
 6736TIP3    H141843   0.728   2.239   0.302  0.4576  2.5227  0.5349
 6736TIP3    H241844   0.586   2.220   0.254  0.7251  0.1278  0.5698
 6737TIP3   OH241845   6.523   5.671   1.961 -0.0251 -0.0223 -0.2767
 6737TIP3    H141846   6.528   5.648   2.054  0.4137 -1.3402 -0.6085
 6737TIP3    H241847   6.446   5.727   1.954 -0.3779 -0.3487  0.7931
 6738TIP3   OH241848   2.106   6.603   1.033 -0.3808 -0.2161 -0.0327
 6738TIP3    H141849   2.036   6.597   1.098 -0.0656  0.5542  0.3903
 6738TIP3    H241850   2.181   6.560   1.074 -0.0996  0.5194  0.2412
 6739TIP3   OH241851   6.162   2.601   1.689 -0.2138  0.1998  0.4288
 6739TIP3    H141852   6.201   2.631   1.607  2.6538 -1.9808  0.8187
 6739TIP3    H241853   6.098   2.668   1.711  0.6791  2.1479 -2.2814
 6740TIP3   OH241854   0.901   0.870   1.813 -0.2599  0.0377  0.2085
 6740TIP3    H141855   0.969   0.851   1.748  0.4207  0.8361  0.6750
 6740TIP3    H241856   0.867   0.784   1.837 -0.6143 -0.2630 -1.2979
 6741TIP3   OH241857   2.881   1.124   1.365  0.0623 -0.0651  0.2390
 6741TIP3    H141858   2.870   1.062   1.438 -1.2769 -0.6933 -0.4749
 6741TIP3    H241859   2.900   1.068   1.289  0.2214  0.4990 -0.1408
 6742TIP3   OH241860   5.045   2.822   2.667  0.6397 -0.6308 -0.1288
 6742TIP3    H141861   5.048   2.791   2.757  0.0907 -0.3961 -0.0237
 6742TIP3    H241862   5.039   2.743   2.614  0.1466 -0.7411  0.0868
 6743TIP3   OH241863   3.044   5.523   1.003  0.6130 -0.0904 -0.1881
 6743TIP3    H141864   3.115   5.587   0.995  1.5920 -1.0185  0.7518
 6743TIP3    H241865   3.067   5.453   0.943  0.2888 -0.2145 -0.1704
 6744TIP3   OH241866   6.754   5.505   1.378 -0.0137 -0.2906  0.0834
 6744TIP3    H141867   6.817   5.434   1.373  0.7374  0.3831 -0.2671
 6744TIP3    H241868   6.756   5.533   1.470 -0.3300 -0.7273  0.2267
 6745TIP3   OH241869   4.556   1.974   1.499 -0.9018  0.3980  0.0695
 6745TIP3    H141870   4.590   1.885   1.510 -0.9507  0.3817  0.0898
 6745TIP3    H241871   4.466   1.969   1.531 -0.5437  0.7366  1.1595
 6746TIP3   OH241872   0.280   6.890   7.273  0.3387 -0.5292  0.4139
 6746TIP3    H141873   0.340   6.820   7.301 -0.4071 -0.8667  1.2025
 6746TIP3    H241874   0.201   6.844   7.246  0.7753 -0.1686 -1.6696
 6747TIP3   OH241875   4.381   5.936   0.552  0.2038 -0.2061 -0.6771
 6747TIP3    H141876   4.453   5.988   0.587  0.3509 -1.2511  0.6260
 6747TIP3    H241877   4.424   5.867   0.501  0.2202 -1.3947  0.8697
 6748TIP3   OH241878   1.741   5.614   0.238 -0.1453  0.7691  0.3809
 6748TIP3    H141879   1.730   5.565   0.319 -1.1670  0.3934  0.0282
 6748TIP3    H241880   1.833   5.641   0.239  0.2780 -0.6092  0.8899
 6749TIP3   OH241881   2.528   2.233   0.256  0.0367 -0.9325  0.3350
 6749TIP3    H141882   2.526   2.219   0.161 -2.0532 -0.8613  0.3098
 6749TIP3    H241883   2.456   2.179   0.289  0.7795 -1.0158  1.8984
 6750TIP3   OH241884   3.577   2.054   7.233  0.1268 -0.2316 -0.3977
 6750TIP3    H141885   3.489   2.087   7.217 -0.0470 -0.5488 -0.0989
 6750TIP3    H241886   3.564   1.972   7.281  0.5407 -0.8539 -1.3101
 6751TIP3   OH241887   6.682   1.545   1.166  0.0897 -0.2007 -0.6476
 6751TIP3    H141888   6.759   1.492   1.186 -0.1649 -0.4548 -0.3392
 6751TIP3    H241889   6.718   1.628   1.134  0.5143  0.0542  0.4260
 6752TIP3   OH241890   0.064   2.593   2.145  0.4251 -0.0306  0.0676
 6752TIP3    H141891   0.158   2.582   2.130  0.3436  0.4430 -0.8942
 6752TIP3    H241892   0.024   2.518   2.102  0.4235 -0.9954  1.6763
 6753TIP3   OH241893   5.385   6.075   8.444 -0.6351 -0.6541 -0.3014
 6753TIP3    H141894   5.452   6.115   8.499 -0.4546 -0.6918 -0.4955
 6753TIP3    H241895   5.391   6.122   8.361 -2.0659  0.6137  0.2603
 6754TIP3   OH241896   5.637   5.997   7.968 -0.2111 -0.3249  0.5631
 6754TIP3    H141897   5.545   6.019   7.951  0.3860  1.4659 -0.6092
 6754TIP3    H241898   5.664   5.944   7.893 -0.2617 -0.7945  0.8740
 6755TIP3   OH241899   6.066   1.283   7.835 -0.3410  0.7719  0.0505
 6755TIP3    H141900   5.998   1.225   7.801  1.0415  0.1399 -1.8165
 6755TIP3    H241901   6.133   1.223   7.868 -0.6596  1.3800  1.9079
 6756TIP3   OH241902   4.265   1.870   1.828  0.4784  0.0889 -0.2523
 6756TIP3    H141903   4.202   1.909   1.889 -1.0532 -0.7188 -1.2621
 6756TIP3    H241904   4.270   1.778   1.854 -0.6650 -0.4064 -1.6917
 6757TIP3   OH241905   2.307   3.063   0.091  0.7292  0.1610 -0.0229
 6757TIP3    H141906   2.398   3.036   0.103  0.4695 -1.2081 -0.9412
 6757TIP3    H241907   2.256   2.989   0.123 -0.0143 -1.4517 -4.2906
 6758TIP3   OH241908   5.446   5.248   7.470 -0.1373 -0.1269  0.3559
 6758TIP3    H141909   5.491   5.283   7.393  0.0316  0.8310  0.8621
 6758TIP3    H241910   5.517   5.218   7.527 -0.2877 -1.4455 -0.1246
 6759TIP3   OH241911   1.460   3.239   0.460  0.9210  0.1976 -0.2100
 6759TIP3    H141912   1.465   3.250   0.555 -1.0841  0.2863 -0.0832
 6759TIP3    H241913   1.550   3.251   0.430  1.4655  0.9334  1.5977
 6760TIP3   OH241914   0.281   3.494   0.980 -0.0198  0.2920  0.0229
 6760TIP3    H141915   0.194   3.500   1.019 -0.6947 -1.6538 -1.0399
 6760TIP3    H241916   0.335   3.454   1.050 -0.6294 -0.8939 -0.1566
 6761TIP3   OH241917   3.450   3.124   6.789 -0.6084  0.1167 -0.1349
 6761TIP3    H141918   3.419   3.213   6.800  2.5765  1.1504  1.9717
 6761TIP3    H241919   3.376   3.069   6.815 -1.6353  2.2398  1.8241
 6762TIP3   OH241920   4.902   3.608   1.297  0.6550  0.2931  0.0076
 6762TIP3    H141921   4.887   3.613   1.203  1.7861  1.8050 -0.1150
 6762TIP3    H241922   4.815   3.593   1.334  0.4266 -2.3592 -1.3535
 6763TIP3   OH241923   5.669   5.515   1.546 -0.1763 -0.4741 -0.2910
 6763TIP3    H141924   5.595   5.455   1.559  0.5176 -0.8635  2.5016
 6763TIP3    H241925   5.652   5.556   1.461 -1.4193 -3.5733 -1.7226
 6764TIP3   OH241926   1.862   0.310   7.983 -0.3427 -0.0359  0.0608
 6764TIP3    H141927   1.857   0.316   7.887  1.6161  0.4367 -0.0467
 6764TIP3    H241928   1.929   0.243   7.999 -0.7943 -0.2498  1.1204
 6765TIP3   OH241929   4.306   4.069   0.908  0.3879  0.0282 -0.4144
 6765TIP3    H141930   4.378   4.012   0.934  2.6025  3.1012  0.9321
 6765TIP3    H241931   4.246   4.013   0.860  2.0032 -3.4735  1.3128
 6766TIP3   OH241932   3.790   1.459   0.127 -0.2000  0.3497  0.2963
 6766TIP3    H141933   3.728   1.525   0.095  0.7712  1.7009  1.1360
 6766TIP3    H241934   3.742   1.415   0.198 -1.1248 -0.3841 -0.7511
 6767TIP3   OH241935   1.184   2.698   2.732  0.2304  0.5348 -0.3954
 6767TIP3    H141936   1.256   2.635   2.731  1.3176  1.6657  1.1432
 6767TIP3    H241937   1.156   2.705   2.641  1.2937 -0.7908 -0.8527
 6768TIP3   OH241938   5.533   4.977   7.781  0.7311  0.3007  0.1389
 6768TIP3    H141939   5.459   4.939   7.734 -0.3562 -0.3980  2.2565
 6768TIP3    H241940   5.576   4.901   7.821 -1.0176  1.0083  3.8167
 6769TIP3   OH241941   1.628   5.197   6.878 -0.2594  0.2192 -0.4366
 6769TIP3    H141942   1.570   5.235   6.812 -0.5806 -0.0723 -0.3218
 6769TIP3    H241943   1.634   5.263   6.947 -3.9281 -1.3624  1.6641
 6770TIP3   OH241944   6.556   0.819   1.867  0.6280 -0.2760  0.3448
 6770TIP3    H141945   6.507   0.871   1.931  1.6178 -0.4369  1.2651
 6770TIP3    H241946   6.605   0.884   1.816 -0.9909 -0.0632 -1.0208
 6771TIP3   OH241947   4.827   4.952   0.351 -0.4739  0.5643 -1.0011
 6771TIP3    H141948   4.743   4.926   0.313 -0.9712  2.6427 -1.4626
 6771TIP3    H241949   4.856   4.875   0.401 -4.3249  0.8347  2.1344
 6772TIP3   OH241950   0.062   5.845   2.302  0.3044 -0.4910  0.2653
 6772TIP3    H141951  -0.017   5.886   2.337 -0.3637 -0.4069 -1.2907
 6772TIP3    H241952   0.086   5.897   2.226  0.0463 -2.3088 -1.1303
 6773TIP3   OH241953   5.239   5.906   1.396 -0.2928 -0.3974  0.1194
 6773TIP3    H141954   5.250   5.984   1.451  0.8492 -0.9495  0.7146
 6773TIP3    H241955   5.257   5.937   1.307 -0.3533  0.1303  0.2877
 6774TIP3   OH241956   0.278   1.786   0.804 -0.1758  0.4888 -0.4464
 6774TIP3    H141957   0.250   1.877   0.813 -0.4359  0.4542 -0.8961
 6774TIP3    H241958   0.270   1.767   0.711  0.0434  0.0576 -0.3801
 6775TIP3   OH241959   3.565   2.434   1.302 -0.2513 -0.1985 -0.1530
 6775TIP3    H141960   3.583   2.423   1.208  0.2635  0.5579 -0.1491
 6775TIP3    H241961   3.469   2.436   1.308 -0.2884 -0.2846 -0.6559
 6776TIP3   OH241962   4.216   6.158   7.420  0.0991  0.4659  0.1666
 6776TIP3    H141963   4.216   6.063   7.413  1.9890  0.5227 -1.6166
 6776TIP3    H241964   4.150   6.187   7.357  0.0461  0.3589  0.1727
 6777TIP3   OH241965   1.241   2.244   0.898 -0.1977  0.4447  0.0209
 6777TIP3    H141966   1.256   2.251   0.993  0.7665 -0.3305 -0.0648
 6777TIP3    H241967   1.175   2.175   0.890 -1.2039  1.3635  0.1861
 6778TIP3   OH241968   5.263   6.169   1.525 -0.0031 -0.4740  0.1592
 6778TIP3    H141969   5.177   6.182   1.567 -0.2532  0.8041 -0.6731
 6778TIP3    H241970   5.326   6.199   1.590 -0.4675  3.1889 -0.8561
 6779TIP3   OH241971   0.134   3.236   0.362  0.2180 -0.2658 -0.1091
 6779TIP3    H141972   0.055   3.183   0.359  0.9212 -1.2960 -1.3569
 6779TIP3    H241973   0.194   3.187   0.417 -0.0819  0.6611  1.0831
 6780TIP3   OH241974   3.315   4.832   2.491  0.0597  0.2874 -0.5489
 6780TIP3    H141975   3.261   4.776   2.435 -1.9878  0.7479  0.8525
 6780TIP3    H241976   3.293   4.921   2.466  1.8171  0.5390 -1.3870
 6781TIP3   OH241977   4.718   0.260   2.449 -0.6444 -0.1107 -0.7121
 6781TIP3    H141978   4.751   0.334   2.501 -2.5439 -0.6779  1.4952
 6781TIP3    H241979   4.721   0.291   2.359  1.0724  1.6569 -0.1129
 6782TIP3   OH241980   0.174   4.624   1.627  0.6771  0.3449  0.2442
 6782TIP3    H141981   0.154   4.549   1.682  2.0312  0.7406  1.3410
 6782TIP3    H241982   0.089   4.654   1.595 -0.1457 -0.0427  1.9529
 6783TIP3   OH241983   4.410   6.228   1.024 -0.3887 -0.2746 -0.0171
 6783TIP3    H141984   4.445   6.145   0.992  1.3462  0.6879 -0.7984
 6783TIP3    H241985   4.320   6.230   0.993 -0.0518 -1.2887 -1.1275
 6784TIP3   OH241986   6.428   4.122   7.409  0.3554  0.5074 -0.3000
 6784TIP3    H141987   6.494   4.130   7.340  0.2883  1.8410 -0.2363
 6784TIP3    H241988   6.430   4.206   7.454 -2.8151  1.4313 -1.5786
 6785TIP3   OH241989   3.163   6.744   8.079 -0.2689 -0.2037 -0.6027
 6785TIP3    H141990   3.097   6.778   8.139  0.3646  1.2314 -0.6709
 6785TIP3    H241991   3.117   6.730   7.996 -0.4937  0.8204 -0.6628
 6786TIP3   OH241992   6.681   4.067   7.307 -0.4470  0.4309  0.0697
 6786TIP3    H141993   6.748   4.122   7.349  0.2573  1.3592 -2.1068
 6786TIP3    H241994   6.662   3.999   7.371  1.3611  1.1155  1.4198
 6787TIP3   OH241995   5.466   2.316   0.658 -0.2692 -0.0437 -0.0750
 6787TIP3    H141996   5.457   2.396   0.709  1.0404 -0.2562  0.5375
 6787TIP3    H241997   5.470   2.246   0.723 -0.2282 -0.4869 -0.5442
 6788TIP3   OH241998   6.826   3.559   7.970 -0.0894 -0.5562  0.1982
 6788TIP3    H141999   6.775   3.609   8.034  1.3622 -1.1311  1.9243
 6788TIP3    H242000   6.817   3.468   7.999 -0.7749 -1.0491 -1.4751
 6789TIP3   OH242001   0.150   1.959   8.373 -0.4009 -0.1959  0.1048
 6789TIP3    H142002   0.179   2.028   8.313  2.9406 -0.2422  1.4712
 6789TIP3    H242003   0.157   1.999   8.460  2.3164 -2.3153  1.0019
 6790TIP3   OH242004   2.283   5.775   7.156 -0.1656  0.6626  0.6701
 6790TIP3    H142005   2.206   5.736   7.198 -0.8371  1.7439  0.4943
 6790TIP3    H242006   2.248   5.848   7.105  0.8237  0.2967 -0.5726
 6791TIP3   OH242007   4.116   6.546   6.574  0.5689 -0.3320  0.1574
 6791TIP3    H142008   4.108   6.547   6.670  0.7775 -1.0806  0.1876
 6791TIP3    H242009   4.114   6.453   6.551 -2.7674 -0.1435 -0.8662
 6792TIP3   OH242010   6.030   5.517   8.491  0.3887  0.1489 -0.1611
 6792TIP3    H142011   5.976   5.575   8.438  0.4943  0.5172  0.1224
 6792TIP3    H242012   6.094   5.575   8.532  0.0755 -0.0631  0.6607
 6793TIP3   OH242013   6.079   1.103   6.809  1.6357 -0.1779  0.2856
 6793TIP3    H142014   6.044   1.145   6.888 -1.4158  0.2753 -1.1731
 6793TIP3    H242015   6.154   1.052   6.840  0.6045  0.0221  3.4435
 6794TIP3   OH242016   0.931   1.428   0.371  0.4554 -0.3123  0.5503
 6794TIP3    H142017   0.966   1.467   0.291 -1.7329 -0.4238 -0.5420
 6794TIP3    H242018   0.864   1.491   0.400  0.5179 -0.7661  1.7381
 6795TIP3   OH242019   4.189   5.237   0.492  0.0708  0.0656 -0.1305
 6795TIP3    H142020   4.123   5.235   0.423  1.3570 -1.4353 -1.3827
 6795TIP3    H242021   4.252   5.303   0.464  0.8483 -0.8862 -0.6596
 6796TIP3   OH242022   4.965   4.322   7.808 -0.0517 -0.2002  0.0836
 6796TIP3    H142023   4.978   4.280   7.893  0.8023 -0.9082 -0.3730
 6796TIP3    H242024   4.871   4.337   7.803 -0.2775 -1.2870  0.6371
 6797TIP3   OH242025   2.680   1.422   6.920  0.3998  0.8842  0.4903
 6797TIP3    H142026   2.724   1.414   7.004  1.0400 -0.9226  0.0294
 6797TIP3    H242027   2.734   1.483   6.870  0.9683  0.6564  0.8146
 6798TIP3   OH242028   1.694   0.741   8.387 -0.5917 -0.3108 -0.2937
 6798TIP3    H142029   1.732   0.673   8.331 -2.0595 -1.1111 -0.3864
 6798TIP3    H242030   1.732   0.822   8.355  1.4068 -1.0880 -0.0240
 6799TIP3   OH242031   4.548   1.841   2.361  0.0099 -0.3285 -0.2831
 6799TIP3    H142032   4.477   1.784   2.392 -0.0254  0.2753  0.8076
 6799TIP3    H242033   4.628   1.801   2.397  0.2268 -0.8764 -1.3169
 6800TIP3   OH242034   4.022   1.497   1.420  0.3630  0.1312 -0.1840
 6800TIP3    H142035   4.100   1.551   1.424  1.7527 -1.6644 -1.1921
 6800TIP3    H242036   4.052   1.409   1.445 -1.0630 -0.8427 -1.6073
 6801TIP3   OH242037   3.755   0.318   0.056  0.1032  1.1974 -0.1933
 6801TIP3    H142038   3.740   0.333  -0.037  0.0284  0.8858 -0.2319
 6801TIP3    H242039   3.737   0.225   0.069 -0.2255  1.3133  0.1989
 6802TIP3   OH242040   6.693   4.773   0.159  0.7438 -0.0763 -0.3208
 6802TIP3    H142041   6.704   4.688   0.201 -1.3795 -0.6293 -0.7681
 6802TIP3    H242042   6.613   4.764   0.107  2.4680  1.0113 -3.3982
 6803TIP3   OH242043   5.322   1.258   2.160  0.4513  0.1630  0.1803
 6803TIP3    H142044   5.251   1.295   2.213  1.0527  0.0826  1.0665
 6803TIP3    H242045   5.315   1.163   2.172  0.4869  0.1354 -0.0163
 6804TIP3   OH242046   6.229   4.161   0.949 -0.0399  0.5334  0.7091
 6804TIP3    H142047   6.134   4.149   0.943  0.1323 -0.0739 -1.8140
 6804TIP3    H242048   6.240   4.256   0.961 -0.9467  0.9875 -1.6508
 6805TIP3   OH242049   6.202   6.502   0.196 -0.0774 -0.1517 -0.2538
 6805TIP3    H142050   6.217   6.407   0.192  0.5543 -0.2871  2.8713
 6805TIP3    H242051   6.290   6.540   0.200 -0.3502  0.4641  0.0183
 6806TIP3   OH242052   6.604   2.133   7.050 -0.1751  0.3135  0.0386
 6806TIP3    H142053   6.563   2.099   6.971 -0.7049 -0.0104  0.4459
 6806TIP3    H242054   6.635   2.220   7.026  0.4180 -0.1084 -0.7611
 6807TIP3   OH242055   6.853   6.175   7.352 -0.5475 -0.0582  0.2100
 6807TIP3    H142056   6.902   6.169   7.434 -1.7508 -1.3477  0.8700
 6807TIP3    H242057   6.857   6.087   7.315 -2.3469 -0.2186  0.3088
 6808TIP3   OH242058   5.838   4.346   0.662 -0.1762  0.3157  0.1117
 6808TIP3    H142059   5.840   4.269   0.605 -1.0367 -0.6311  1.3156
 6808TIP3    H242060   5.930   4.369   0.676  0.0677 -0.1030 -0.7618
 6809TIP3   OH242061   4.230   1.747   1.110 -0.1639 -0.2138  0.0963
 6809TIP3    H142062   4.307   1.764   1.165  0.0596  1.0040 -0.5673
 6809TIP3    H242063   4.163   1.806   1.142 -0.4122 -0.3508 -0.1619
 6810TIP3   OH242064   4.387   2.553   1.760  0.3356  0.0992 -0.3581
 6810TIP3    H142065   4.360   2.561   1.851  2.5354  3.2663  0.1850
 6810TIP3    H242066   4.478   2.522   1.765  0.2202 -0.4971 -1.5538
 6811TIP3   OH242067   0.315   3.083   7.416 -0.0705 -0.0908 -0.6399
 6811TIP3    H142068   0.267   3.086   7.499 -0.1432 -0.5958 -0.6563
 6811TIP3    H242069   0.390   3.027   7.434  0.9040  1.2336 -0.4316
 6812TIP3   OH242070   1.506   2.972   0.318 -1.0263 -0.4559  0.1134
 6812TIP3    H142071   1.563   2.950   0.392 -0.3224  0.9238  0.0215
 6812TIP3    H242072   1.493   3.066   0.326 -2.3719 -0.5698 -0.5437
 6813TIP3   OH242073   3.805   4.172   1.523  0.3734  0.4608 -0.4440
 6813TIP3    H142074   3.713   4.170   1.552  0.1922 -0.9260 -1.0295
 6813TIP3    H242075   3.845   4.239   1.577 -0.7566  0.3565  0.5800
 6814TIP3   OH242076   6.530   5.722   1.096 -0.2866  0.1296 -1.0173
 6814TIP3    H142077   6.520   5.808   1.137 -0.2920 -0.0441 -0.6508
 6814TIP3    H242078   6.531   5.740   1.002 -1.7397  0.3910 -0.9999
 6815TIP3   OH242079   1.038   1.329   7.497 -0.4426 -0.2922 -0.3845
 6815TIP3    H142080   0.958   1.300   7.453  0.1037 -0.5130 -1.2536
 6815TIP3    H242081   1.032   1.424   7.498 -1.8678 -0.3191  1.7781
 6816TIP3   OH242082   1.281   5.635   6.963  0.1081  0.0945 -0.3489
 6816TIP3    H142083   1.346   5.693   7.004  0.9466 -0.3501 -1.0187
 6816TIP3    H242084   1.263   5.675   6.878 -2.2480  1.4630  0.7272
 6817TIP3   OH242085   6.313   6.952   7.875 -0.4134  0.0248 -0.0818
 6817TIP3    H142086   6.227   6.994   7.884 -0.5073  0.0049 -0.8491
 6817TIP3    H242087   6.372   7.023   7.851 -0.1520  0.0865  0.7084
 6818TIP3   OH242088   1.141   2.985   7.845 -0.0858 -0.0479  0.2369
 6818TIP3    H142089   1.078   2.928   7.800 -1.1710 -1.0641  2.8766
 6818TIP3    H242090   1.089   3.059   7.875  0.1167 -0.4755  1.6956
 6819TIP3   OH242091   0.958   3.778   1.113 -0.7170  0.4342 -0.3236
 6819TIP3    H142092   0.887   3.716   1.099 -1.0445  0.7947 -0.2779
 6819TIP3    H242093   0.956   3.796   1.207 -1.2444  1.2434 -0.4809
 6820TIP3   OH242094   0.579   5.161   1.664  0.0548  0.1286  0.3307
 6820TIP3    H142095   0.638   5.217   1.714  0.4430 -1.4484  1.6928
 6820TIP3    H242096   0.502   5.151   1.720  0.3120 -1.3022  0.4695
 6821TIP3   OH242097   2.977   2.078   7.866 -0.1209  0.7620  0.0756
 6821TIP3    H142098   2.890   2.107   7.837 -0.0414  1.3809  0.4312
 6821TIP3    H242099   2.979   2.098   7.959  0.4583  0.8850  0.0415
 6822TIP3   OH242100   1.119   1.265   7.741 -0.0623  0.9483 -0.0302
 6822TIP3    H142101   1.076   1.294   7.660 -0.7939  2.5602  0.8768
 6822TIP3    H242102   1.212   1.279   7.726  0.0752 -1.0958 -1.4517
 6823TIP3   OH242103   0.552   6.265   1.665  0.0466  0.0164 -0.0607
 6823TIP3    H142104   0.461   6.266   1.636 -0.1838  0.9923  0.6553
 6823TIP3    H242105   0.598   6.315   1.597 -0.0880  0.2049 -0.0151
 6824TIP3   OH242106   5.657   5.191   7.667  0.1538  0.1193 -0.5363
 6824TIP3    H142107   5.617   5.118   7.714 -0.0965 -0.4706 -1.6306
 6824TIP3    H242108   5.719   5.149   7.607 -0.1226  0.7938 -1.3021
 6825TIP3   OH242109   1.312   2.946   2.573  0.2824 -0.1570 -0.1809
 6825TIP3    H142110   1.341   2.864   2.613 -0.8751 -1.2435 -1.4750
 6825TIP3    H242111   1.314   2.930   2.479  1.3624  1.7931 -0.5603
 6826TIP3   OH242112   6.749   3.377   1.288 -0.5816  0.1433  0.5389
 6826TIP3    H142113   6.708   3.305   1.337 -0.7706 -0.0245  0.1445
 6826TIP3    H242114   6.692   3.388   1.211  0.7337 -0.8882 -0.6522
 6827TIP3   OH242115   4.740   1.994   2.599  0.4838 -0.9806 -0.2175
 6827TIP3    H142116   4.765   1.909   2.562  1.5086 -1.2062  0.9359
 6827TIP3    H242117   4.659   1.977   2.646  1.8163 -1.8752  1.8758
 6828TIP3   OH242118   0.422   6.114   8.568 -0.4338 -0.2890 -0.4722
 6828TIP3    H142119   0.470   6.035   8.593 -1.0306 -0.6850 -0.5444
 6828TIP3    H242120   0.487   6.184   8.570  0.0153 -0.7142 -0.0232
 6829TIP3   OH242121   4.482   0.810   1.979 -0.1450  0.3461 -0.6024
 6829TIP3    H142122   4.478   0.773   1.891  1.3991  1.9468 -1.4004
 6829TIP3    H242123   4.400   0.783   2.020  0.2194 -2.6273 -1.5912
 6830TIP3   OH242124   3.264   0.257   0.690  0.3855  0.0020 -0.0942
 6830TIP3    H142125   3.313   0.175   0.694 -0.5326 -0.6572 -1.6010
 6830TIP3    H242126   3.301   0.305   0.617  0.3103  0.5333  0.2083
 6831TIP3   OH242127   4.345   0.350   2.134 -0.2805 -0.0300  0.4881
 6831TIP3    H142128   4.388   0.364   2.218 -0.9285  0.8890  0.6764
 6831TIP3    H242129   4.299   0.432   2.116 -0.4485 -0.3430 -0.5889
 6832TIP3   OH242130   4.548   6.750   7.699 -0.2008 -0.0582 -0.0070
 6832TIP3    H142131   4.571   6.823   7.641  0.1184 -0.2231 -0.0921
 6832TIP3    H242132   4.564   6.672   7.646  0.1611 -0.2128  0.3254
 6833TIP3   OH242133   1.056   4.667   0.731  0.6943 -0.3130 -0.0908
 6833TIP3    H142134   1.115   4.743   0.738  1.6892 -1.2070  2.3064
 6833TIP3    H242135   0.976   4.694   0.775  0.7100 -0.3543 -0.0370
 6834TIP3   OH242136   3.592   3.733   1.780 -0.1076  0.5608 -0.4275
 6834TIP3    H142137   3.567   3.794   1.711  0.5223  0.3933 -0.8045
 6834TIP3    H242138   3.629   3.788   1.849 -1.6826  0.8368  0.2319
 6835TIP3   OH242139   2.764   2.553   1.236  0.0205  0.0346 -0.0317
 6835TIP3    H142140   2.684   2.526   1.282  0.1497  2.1128  1.5388
 6835TIP3    H242141   2.813   2.472   1.223 -1.7282 -1.1098  0.1361
 6836TIP3   OH242142   4.924   4.417   6.202  0.2617  0.6062 -0.2083
 6836TIP3    H142143   4.838   4.457   6.213  0.3332  0.6024  0.4078
 6836TIP3    H242144   4.983   4.472   6.253  0.6538  0.6870 -0.7326
 6837TIP3   OH242145   1.379   6.627   1.688  0.0686  0.3353 -0.0295
 6837TIP3    H142146   1.457   6.577   1.662  0.6016  0.8611  0.5239
 6837TIP3    H242147   1.326   6.564   1.737 -0.1975 -0.2171 -1.0024
 6838TIP3   OH242148   2.588   6.268   7.101 -0.6918 -0.2166 -0.0536
 6838TIP3    H142149   2.631   6.274   7.186  1.2529  0.2132 -1.0198
 6838TIP3    H242150   2.589   6.175   7.079 -0.7038 -0.2639  0.1478
 6839TIP3   OH242151   2.525   3.919   0.269  0.4288 -0.1789  0.3002
 6839TIP3    H142152   2.524   3.883   0.357 -0.3015 -0.5583  0.1487
 6839TIP3    H242153   2.436   3.952   0.255  0.0639 -1.5483 -0.8526
 6840TIP3   OH242154   3.523   5.602   0.668  0.1544  0.2074  0.6236
 6840TIP3    H142155   3.608   5.597   0.624 -0.2392  0.7841 -0.2288
 6840TIP3    H242156   3.483   5.517   0.652  0.0389  0.3915 -0.1025
 6841TIP3   OH242157   6.170   3.820   7.500  0.0292  0.0813  0.3903
 6841TIP3    H142158   6.117   3.803   7.578 -0.3845 -1.3149 -0.1767
 6841TIP3    H242159   6.108   3.817   7.427  0.5136  0.7708 -0.0692
 6842TIP3   OH242160   4.904   2.886   7.566  0.2046  0.2395 -0.4632
 6842TIP3    H142161   4.852   2.848   7.637  0.1687 -0.1593 -0.7053
 6842TIP3    H242162   4.938   2.968   7.604 -0.6970  0.5755 -0.3395
 6843TIP3   OH242163   4.240   2.708   0.184  0.4854  0.4825  0.5307
 6843TIP3    H142164   4.265   2.661   0.105  1.1308  1.5547  0.0773
 6843TIP3    H242165   4.320   2.751   0.214  0.5907 -0.9523  2.5548
 6844TIP3   OH242166   4.142   3.937   7.846  0.4936  0.4609  0.0298
 6844TIP3    H142167   4.205   3.941   7.918 -0.5668 -0.8157  1.0707
 6844TIP3    H242168   4.178   3.872   7.786  1.5748  1.8034 -0.8325
 6845TIP3   OH242169   4.969   3.974   6.137 -0.4155  0.4542 -0.6101
 6845TIP3    H142170   4.961   3.878   6.136  0.5902  0.3633 -1.7754
 6845TIP3    H242171   4.943   4.001   6.049 -2.7326  1.4822  0.3077
 6846TIP3   OH242172   4.839   2.031   7.780  0.2940  0.3388 -0.1294
 6846TIP3    H142173   4.755   2.012   7.821  0.7370 -1.2492  0.0800
 6846TIP3    H242174   4.893   2.067   7.850  0.8644 -1.8291  0.5951
 6847TIP3   OH242175   3.656   2.896   1.912 -0.6174 -0.0980  0.0842
 6847TIP3    H142176   3.569   2.857   1.910 -0.4486 -0.6627  1.9504
 6847TIP3    H242177   3.662   2.937   1.998  0.4742  1.1230 -0.5389
 6848TIP3   OH242178   2.270   4.001   0.186 -0.1546 -0.0677  0.4428
 6848TIP3    H142179   2.255   4.012   0.280 -1.1358  0.8384  0.1930
 6848TIP3    H242180   2.182   4.004   0.148  0.2260 -0.6081 -0.4904
 6849TIP3   OH242181   6.318   6.714   8.018  0.0887  0.2933  0.0152
 6849TIP3    H142182   6.274   6.657   7.955 -0.5862  0.4790  0.3172
 6849TIP3    H242183   6.322   6.799   7.974 -2.5779  1.0718  1.1414
 6850TIP3   OH242184   4.159   4.648   7.309  0.6418  0.1187 -0.1177
 6850TIP3    H142185   4.117   4.724   7.271 -0.3700 -0.8253 -0.9327
 6850TIP3    H242186   4.235   4.631   7.253  0.6043  0.2556 -0.2081
 6851TIP3   OH242187   5.099   0.558   7.658  0.0288  0.1233 -0.1063
 6851TIP3    H142188   5.066   0.556   7.569  1.1783  1.1927 -0.5774
 6851TIP3    H242189   5.157   0.482   7.664 -0.5998 -0.3579 -0.0326
 6852TIP3   OH242190   2.104   5.776   1.154  0.1667 -0.2207 -0.2450
 6852TIP3    H142191   2.012   5.759   1.171 -0.2084 -0.6468 -2.3799
 6852TIP3    H242192   2.150   5.703   1.196 -0.2603  0.8679  2.2607
 6853TIP3   OH242193   3.881   1.160   0.265 -0.5093  0.8835  0.2280
 6853TIP3    H142194   3.956   1.106   0.242 -1.1226 -0.5365  1.4180
 6853TIP3    H242195   3.841   1.182   0.181  1.2399  1.7362 -0.4392
 6854TIP3   OH242196   2.416   6.952   0.758 -0.2324  0.2169  0.4644
 6854TIP3    H142197   2.437   7.013   0.687 -0.6333 -1.3571 -1.0903
 6854TIP3    H242198   2.349   6.997   0.810 -0.5846  1.0731 -0.6911
 6855TIP3   OH242199   6.292   4.638   2.786 -0.3795  0.1166 -0.0068
 6855TIP3    H142200   6.210   4.593   2.765 -0.7978  0.9193 -0.1475
 6855TIP3    H242201   6.276   4.729   2.760  1.0257  0.0353 -1.2915
 6856TIP3   OH242202   1.896   1.066   7.332  0.2827  0.0024  0.4705
 6856TIP3    H142203   1.924   1.031   7.248  1.2754  0.5525  0.5533
 6856TIP3    H242204   1.837   1.139   7.309  1.9565  1.3326  0.1689
 6857TIP3   OH242205   2.056   0.299   1.089 -0.0032 -0.6518 -0.4850
 6857TIP3    H142206   2.130   0.241   1.109  0.7285 -0.2820 -1.9710
 6857TIP3    H242207   2.089   0.387   1.108 -1.1090 -0.6432  1.7600
 6858TIP3   OH242208   1.962   6.636   2.300 -0.0093 -0.5361 -0.2051
 6858TIP3    H142209   1.928   6.550   2.276 -0.9488 -0.0358 -0.7353
 6858TIP3    H242210   1.927   6.652   2.388 -1.3461  0.0504 -0.8161
 6859TIP3   OH242211   5.326   3.807   6.721 -0.0173 -0.4204 -0.4403
 6859TIP3    H142212   5.402   3.749   6.723 -1.0084 -1.7318  0.4533
 6859TIP3    H242213   5.356   3.884   6.672  1.3064 -1.6969 -1.7149
 6860TIP3   OH242214   2.789   0.455   6.508  0.3555  0.0486  0.0598
 6860TIP3    H142215   2.761   0.417   6.425  2.3723 -0.2211 -0.5519
 6860TIP3    H242216   2.849   0.390   6.544  1.5895  1.3631  0.4257
 6861TIP3   OH242217   6.841   3.661   7.227 -0.1453 -0.1905 -0.5934
 6861TIP3    H142218   6.785   3.696   7.157  0.8342  1.9747 -0.3848
 6861TIP3    H242219   6.898   3.598   7.182  0.6317  1.3343 -1.8628
 6862TIP3   OH242220   6.380   2.647   7.320  0.0263 -0.2677 -0.6688
 6862TIP3    H142221   6.295   2.613   7.346 -0.0803 -0.0152 -0.6840
 6862TIP3    H242222   6.426   2.571   7.284  0.0988 -0.5766  0.0466
 6863TIP3   OH242223   6.175   1.774   7.485 -0.0710  0.2143  0.3611
 6863TIP3    H142224   6.216   1.761   7.399 -1.6753 -0.1086 -0.4046
 6863TIP3    H242225   6.228   1.842   7.527  0.6134  0.5579 -0.9884
 6864TIP3   OH242226   6.590   1.087   0.719  0.3682 -0.4563  0.1307
 6864TIP3    H142227   6.577   1.165   0.665 -0.1068  0.4729  1.4951
 6864TIP3    H242228   6.591   1.014   0.658 -2.0620  0.3396 -0.9792
 6865TIP3   OH242229   0.528   6.483   8.158 -0.1307  0.0857 -0.3899
 6865TIP3    H142230   0.467   6.490   8.084  1.3104 -0.4343 -1.6791
 6865TIP3    H242231   0.551   6.390   8.161 -1.6485 -0.3215  2.0199
 6866TIP3   OH242232   4.641   0.986   1.707 -0.1038  0.7327  0.5557
 6866TIP3    H142233   4.644   1.044   1.630  0.4758  1.4578  1.1152
 6866TIP3    H242234   4.678   0.904   1.676  2.5730  1.7905  0.6764
 6867TIP3   OH242235   0.537   3.545   2.078 -0.7047  0.5156 -0.3395
 6867TIP3    H142236   0.551   3.479   2.146 -0.1759 -0.8356 -1.7151
 6867TIP3    H242237   0.450   3.580   2.097 -0.9295 -0.4552  0.5220
 6868TIP3   OH242238   3.076   3.434   6.429  0.4481  0.0597 -0.5481
 6868TIP3    H142239   3.038   3.447   6.343 -1.1965  1.8810  0.3683
 6868TIP3    H242240   3.087   3.339   6.437 -1.1397 -0.2926 -2.0369
 6869TIP3   OH242241   2.644   3.647   2.318 -0.8033 -0.0576 -0.1045
 6869TIP3    H142242   2.729   3.632   2.276 -0.6996 -0.9532  0.3957
 6869TIP3    H242243   2.656   3.726   2.370 -0.8375  0.8867 -1.4811
 6870TIP3   OH242244   2.365   3.218   2.303 -0.0362 -0.2154 -0.2947
 6870TIP3    H142245   2.383   3.245   2.393 -2.1880  1.1800 -0.1931
 6870TIP3    H242246   2.270   3.226   2.295 -0.1332 -2.3152 -2.1010
 6871TIP3   OH242247   2.301   4.161   6.487  0.0842 -0.1674 -0.1218
 6871TIP3    H142248   2.370   4.108   6.447  1.4706  0.5829  1.1761
 6871TIP3    H242249   2.226   4.152   6.427  0.0093 -3.9542  0.2838
 6872TIP3   OH242250   5.693   5.854   2.757 -0.1565  0.0851  0.1361
 6872TIP3    H142251   5.741   5.919   2.706  0.2496 -0.0506  0.3418
 6872TIP3    H242252   5.758   5.819   2.818 -0.6525  0.2955  0.7923
 6873TIP3   OH242253   3.397   5.606   1.994 -0.1717  0.3305  0.1280
 6873TIP3    H142254   3.377   5.543   2.063 -1.0097 -1.5450 -1.7204
 6873TIP3    H242255   3.482   5.580   1.960  0.1452  1.1198  0.2837
 6874TIP3   OH242256   4.255   6.140   1.446 -0.4450  0.2603 -0.0848
 6874TIP3    H142257   4.249   6.235   1.450 -0.0422  0.3119 -0.6158
 6874TIP3    H242258   4.338   6.123   1.400 -0.7873 -0.3346 -0.4944
 6875TIP3   OH242259   1.272   2.590   7.506  0.2893 -0.3162  0.3875
 6875TIP3    H142260   1.220   2.623   7.432  0.4618  2.8446  1.5082
 6875TIP3    H242261   1.350   2.553   7.465 -0.5246 -0.4881 -1.1012
 6876TIP3   OH242262   5.374   5.486   8.354 -0.3557  0.5845  0.4782
 6876TIP3    H142263   5.394   5.472   8.262  0.2495  0.9436  0.5559
 6876TIP3    H242264   5.421   5.565   8.378 -0.3123  0.3596  1.1633
 6877TIP3   OH242265   6.273   4.888   0.233 -0.1116  0.0574 -0.0754
 6877TIP3    H142266   6.218   4.956   0.273  0.9917  1.7150 -1.2301
 6877TIP3    H242267   6.288   4.919   0.143  2.8777 -0.1526  0.2453
 6878TIP3   OH242268   0.481   1.757   7.403  0.0732  0.2714 -0.5028
 6878TIP3    H142269   0.545   1.786   7.469 -0.4125  0.5831 -0.1570
 6878TIP3    H242270   0.396   1.778   7.442 -0.2104  1.2803 -1.5971
 6879TIP3   OH242271   3.996   6.473   0.156 -0.1791 -0.0942 -0.2672
 6879TIP3    H142272   4.000   6.470   0.061 -2.1634  0.3880 -0.4113
 6879TIP3    H242273   4.087   6.474   0.184  0.5222 -2.7758 -2.0426
 6880TIP3   OH242274   2.696   2.914   0.621  0.1741  0.0054 -0.0785
 6880TIP3    H142275   2.649   2.886   0.542  0.3509  0.1573 -0.2396
 6880TIP3    H242276   2.700   3.010   0.614 -3.0042  0.4463  1.8940
 6881TIP3   OH242277   2.003   2.597   1.039  0.7415 -0.5560 -0.5049
 6881TIP3    H142278   1.947   2.674   1.040  2.1221  0.5074 -1.4725
 6881TIP3    H242279   2.025   2.581   1.131  0.9237  0.5746 -0.3446
 6882TIP3   OH242280   6.274   3.231   8.093  0.3580  0.1163 -0.3529
 6882TIP3    H142281   6.269   3.269   8.181  0.5400 -0.7869  0.0616
 6882TIP3    H242282   6.329   3.291   8.044  2.9589 -0.9312  1.0479
 6883TIP3   OH242283   0.499   5.480   0.915  0.3878  0.2908  0.5932
 6883TIP3    H142284   0.407   5.453   0.912  1.0391 -2.1632  1.0887
 6883TIP3    H242285   0.496   5.571   0.945 -1.8385  0.1004  1.1286
 6884TIP3   OH242286   4.942   6.184   7.330 -0.7061 -0.6014 -0.2513
 6884TIP3    H142287   4.935   6.132   7.250 -1.3994 -0.6493 -0.1685
 6884TIP3    H242288   4.856   6.175   7.372 -0.5945  0.0206  0.1233
 6885TIP3   OH242289   4.333   2.952   0.471 -0.0004  0.1972 -0.2614
 6885TIP3    H142290   4.253   2.975   0.519 -0.4403 -0.4818 -0.6458
 6885TIP3    H242291   4.355   3.030   0.421 -1.0235  0.0530 -0.9611
 6886TIP3   OH242292   1.942   5.847   0.422  0.3520  0.4313 -0.1468
 6886TIP3    H142293   1.972   5.763   0.388 -0.7073  1.0059 -2.7494
 6886TIP3    H242294   2.006   5.870   0.489  1.8418 -1.4794 -0.8272
 6887TIP3   OH242295   1.212   5.630   0.867  0.3834 -0.5422  0.0002
 6887TIP3    H142296   1.178   5.543   0.889  1.5156 -1.4778 -1.7126
 6887TIP3    H242297   1.136   5.688   0.870 -0.2844 -1.4403  1.7657
 6888TIP3   OH242298   2.660   5.319   1.969 -0.5038 -0.4046  0.1961
 6888TIP3    H142299   2.688   5.248   2.026  2.0485  0.8487  0.6574
 6888TIP3    H242300   2.633   5.389   2.029 -3.6668 -1.1009 -0.2479
 6889TIP3   OH242301   5.036   6.933   6.909  0.5468  1.0883  0.2347
 6889TIP3    H142302   5.129   6.956   6.915  0.7786 -0.1715  2.8250
 6889TIP3    H242303   4.991   7.003   6.956  0.6034 -0.0226  2.0647
 6890TIP3   OH242304   2.174   4.519   0.695  0.3529  0.1280  0.1700
 6890TIP3    H142305   2.174   4.513   0.791 -0.0427  0.9677  0.2254
 6890TIP3    H242306   2.085   4.495   0.670  0.6455 -0.7761 -0.0437
 6891TIP3   OH242307   5.954   4.022   6.300  0.5472 -0.0068 -0.2870
 6891TIP3    H142308   5.960   4.093   6.363 -1.1698  0.1208 -0.2251
 6891TIP3    H242309   6.042   4.017   6.261  1.6943 -0.1675  2.1445
 6892TIP3   OH242310   2.344   2.015   1.738  0.3636 -0.3672 -0.0059
 6892TIP3    H142311   2.429   1.998   1.697  0.1236 -1.7554  0.0207
 6892TIP3    H242312   2.356   1.989   1.829  0.9665  2.9344  0.9866
 6893TIP3   OH242313   1.626   0.180   7.794 -0.3086 -0.1690 -0.1335
 6893TIP3    H142314   1.540   0.140   7.803  0.3316 -1.6566 -0.3340
 6893TIP3    H242315   1.687   0.112   7.822  0.8935  0.3296 -1.4187
 6894TIP3   OH242316   6.537   1.702   8.574  0.4262  0.7155  0.1500
 6894TIP3    H142317   6.498   1.636   8.630  0.3107  2.1123  1.8253
 6894TIP3    H242318   6.624   1.717   8.612  1.7141 -0.6519 -2.0873
 6895TIP3   OH242319   0.491   1.742   2.029 -0.3956  1.0742 -0.6328
 6895TIP3    H142320   0.415   1.762   2.084 -0.7395  0.8686 -1.0339
 6895TIP3    H242321   0.463   1.761   1.940  0.4919  2.3828 -0.6661
 6896TIP3   OH242322   4.376   0.453   0.373 -0.5095  0.7925 -0.3444
 6896TIP3    H142323   4.295   0.492   0.405 -1.1446 -0.8611  0.1674
 6896TIP3    H242324   4.348   0.389   0.307  0.6049  2.1873 -2.2695
 6897TIP3   OH242325   2.423   5.493   8.212 -0.8117  0.2956  0.3587
 6897TIP3    H142326   2.334   5.527   8.220 -0.2843  1.6847  0.4949
 6897TIP3    H242327   2.416   5.424   8.146 -1.9160  0.6539  0.0870
 6898TIP3   OH242328   4.656   6.476   6.466 -0.0928 -0.1397 -0.2732
 6898TIP3    H142329   4.684   6.488   6.375 -0.9256 -0.9182 -0.6410
 6898TIP3    H242330   4.592   6.545   6.481 -0.2442 -0.2533 -0.3996
 6899TIP3   OH242331   3.614   4.219   1.227 -0.1974  0.1731 -0.4817
 6899TIP3    H142332   3.531   4.187   1.191 -0.3324  0.6840 -0.6323
 6899TIP3    H242333   3.658   4.262   1.154  0.5292 -0.7041 -0.5795
 6900TIP3   OH242334   0.149   3.039   8.001 -0.2701  0.6415 -0.4357
 6900TIP3    H142335   0.233   3.076   7.975  0.4654 -0.3540  0.4224
 6900TIP3    H242336   0.159   2.945   7.988  0.7250 -0.2114  4.5277
 6901TIP3   OH242337   3.009   6.605   6.214 -0.3123  0.0818 -0.2895
 6901TIP3    H142338   2.967   6.691   6.220  1.3145  0.8620  2.7819
 6901TIP3    H242339   2.979   6.558   6.292  2.7694 -0.0196  1.0025
 6902TIP3   OH242340   3.402   6.176   8.527  0.4488 -0.0228  0.2932
 6902TIP3    H142341   3.308   6.184   8.544  0.0513 -1.8393 -0.7283
 6902TIP3    H242342   3.408   6.164   8.432  1.5393 -1.4341  0.5097
 6903TIP3   OH242343   1.740   5.369   7.484 -0.1264  0.3152  0.1807
 6903TIP3    H142344   1.770   5.433   7.420  0.7550 -1.0158 -0.7930
 6903TIP3    H242345   1.704   5.297   7.431 -0.6924 -0.1985  1.2216
 6904TIP3   OH242346   0.524   6.310   7.577 -0.4375 -0.3986  0.4854
 6904TIP3    H142347   0.481   6.231   7.545  1.7938 -2.1675  1.5010
 6904TIP3    H242348   0.533   6.295   7.672 -0.3535  1.2976  0.7744
 6905TIP3   OH242349   0.655   5.860   0.367  1.0061 -0.5882  0.2233
 6905TIP3    H142350   0.619   5.781   0.327 -1.9713 -0.0698  1.6382
 6905TIP3    H242351   0.661   5.839   0.461  0.2119  0.8197  0.6117
 6906TIP3   OH242352   4.625   5.290   0.608  0.6871 -0.2292 -0.0734
 6906TIP3    H142353   4.710   5.273   0.648  0.5659 -0.9357 -0.0910
 6906TIP3    H242354   4.645   5.311   0.517  0.9900  1.7490  0.4075
 6907TIP3   OH242355   0.212   1.393   0.774  0.6851 -0.3008 -0.1001
 6907TIP3    H142356   0.202   1.441   0.691  0.7445  0.7507  0.4833
 6907TIP3    H242357   0.280   1.441   0.821  1.0616 -1.2338  0.3309
 6908TIP3   OH242358   4.839   1.241   1.437  0.6018 -0.0338  0.2079
 6908TIP3    H142359   4.792   1.297   1.375 -0.6080 -1.3636 -0.1453
 6908TIP3    H242360   4.871   1.168   1.384  0.4927 -0.6481  0.9644
 6909TIP3   OH242361   1.046   6.647   0.648 -0.2023 -0.3046 -0.4748
 6909TIP3    H142362   1.070   6.691   0.567  2.0463  0.3959  0.4809
 6909TIP3    H242363   1.032   6.718   0.711 -0.9464 -0.8617  0.0066
 6910TIP3   OH242364   6.290   1.676   2.638 -0.1198 -0.1391  0.6094
 6910TIP3    H142365   6.336   1.705   2.717 -0.1229 -1.2658  1.0447
 6910TIP3    H242366   6.359   1.638   2.583 -0.4691 -1.6522  1.1788
 6911TIP3   OH242367   0.199   2.704   7.653  0.0993  0.3024 -0.4290
 6911TIP3    H142368   0.221   2.705   7.746 -0.2558  1.2239 -0.3416
 6911TIP3    H242369   0.284   2.704   7.608  0.2977 -2.0296 -0.1311
 6912TIP3   OH242370   5.803   0.751   1.555 -0.9328  0.6543  0.0977
 6912TIP3    H142371   5.733   0.816   1.564 -0.8272  0.9727 -1.1165
 6912TIP3    H242372   5.864   0.771   1.625 -0.1873  2.8189 -1.0780
 6913TIP3   OH242373   5.445   0.612   8.489 -0.6313  0.4278  0.2072
 6913TIP3    H142374   5.493   0.690   8.519  0.5260 -0.2564  0.1917
 6913TIP3    H242375   5.441   0.622   8.394 -1.9353  1.2564  0.3148
 6914TIP3   OH242376   2.533   3.531   0.814 -0.1756  0.2944 -0.1706
 6914TIP3    H142377   2.583   3.475   0.754 -1.0732 -1.6687  0.8089
 6914TIP3    H242378   2.443   3.498   0.807 -0.0987 -1.0219  3.2266
 6915TIP3   OH242379   2.069   4.952   0.234  0.1668  1.0683  0.3922
 6915TIP3    H142380   1.974   4.943   0.225  0.3775  0.5482 -1.8877
 6915TIP3    H242381   2.080   5.034   0.283 -1.4576  2.3467 -1.2177
 6916TIP3   OH242382   6.947   0.797   6.721  0.3115  0.2189 -0.0280
 6916TIP3    H142383   6.884   0.727   6.703 -1.4751  1.7403  0.0212
 6916TIP3    H242384   6.893   0.872   6.747  2.1770  1.5011  0.3438
 6917TIP3   OH242385   6.777   4.862   2.323  0.5534 -0.2011  0.3004
 6917TIP3    H142386   6.794   4.955   2.337 -1.9337  0.8787 -2.6229
 6917TIP3    H242387   6.689   4.848   2.357  1.1862 -1.7680  1.4318
 6918TIP3   OH242388   0.270   6.223   8.370 -0.1224  0.6465  0.2223
 6918TIP3    H142389   0.309   6.163   8.434 -1.4023  1.0900  1.4876
 6918TIP3    H242390   0.217   6.283   8.423  1.0379  2.8945 -0.9698
 6919TIP3   OH242391   1.097   3.133   0.568  0.6924  0.8189 -0.0304
 6919TIP3    H142392   1.065   3.195   0.633  0.7705  1.2027 -0.3551
 6919TIP3    H242393   1.096   3.182   0.485  0.1506  0.1982 -0.4050
 6920TIP3   OH242394   2.346   4.932   7.956  0.3606  0.1622 -0.2900
 6920TIP3    H142395   2.270   4.944   7.899 -0.5373 -0.8969  0.6401
 6920TIP3    H242396   2.312   4.944   8.044  1.0235 -1.3936  0.2082
 6921TIP3   OH242397   6.613   2.320   1.098  0.3162 -0.4651 -0.4891
 6921TIP3    H142398   6.519   2.302   1.099  0.1853  0.2315  0.0045
 6921TIP3    H242399   6.622   2.404   1.141  0.9501  0.5741 -2.5220
 6922TIP3   OH242400   2.102   3.431   0.290 -0.3813  0.1009  0.2550
 6922TIP3    H142401   2.024   3.440   0.235 -0.2034 -0.3226 -0.0731
 6922TIP3    H242402   2.083   3.485   0.367 -0.9849  0.0302  0.1655
 6923TIP3   OH242403   2.921   6.928   7.153 -0.2728  0.3168 -0.1217
 6923TIP3    H142404   3.013   6.926   7.181 -0.6553 -1.4821  1.2641
 6923TIP3    H242405   2.898   6.835   7.145 -1.7956  0.7609 -1.0685
 6924TIP3   OH242406   3.409   3.483   5.963  0.3195  0.3210  0.6214
 6924TIP3    H142407   3.383   3.568   5.927 -0.8635 -0.4006 -0.2800
 6924TIP3    H242408   3.473   3.505   6.031  1.2800  1.8369 -0.6966
 6925TIP3   OH242409   3.026   4.314   0.547 -0.0706 -0.2528  0.6014
 6925TIP3    H142410   2.969   4.389   0.527  0.7431  0.5711  1.2780
 6925TIP3    H242411   3.021   4.306   0.642  1.8812  0.6273  0.8193
 6926TIP3   OH242412   4.275   5.851   0.075  1.1452 -0.2608  0.2372
 6926TIP3    H142413   4.250   5.883  -0.012 -0.3953 -0.2814  0.6557
 6926TIP3    H242414   4.232   5.910   0.136  0.2828 -1.6224  0.9984
 6927TIP3   OH242415   4.132   0.067   1.404 -0.0676  0.2229  0.5981
 6927TIP3    H142416   4.044   0.076   1.442 -0.1039 -0.5685  0.7200
 6927TIP3    H242417   4.178   0.145   1.432 -0.9921  1.0669 -0.1660
 6928TIP3   OH242418   5.966   6.065   7.574 -0.2975 -0.0403 -0.3288
 6928TIP3    H142419   5.891   6.080   7.516  0.9798 -0.7172 -2.2572
 6928TIP3    H242420   6.033   6.126   7.542 -0.2174  1.0763  1.8312
 6929TIP3   OH242421   1.916   2.805   7.768 -0.2284 -0.2818  0.0525
 6929TIP3    H142422   1.853   2.850   7.824 -1.4859 -1.2109 -0.5537
 6929TIP3    H242423   1.981   2.770   7.829 -0.4693  0.4305  0.7311
 6930TIP3   OH242424   4.903   2.438   2.063  0.6263  0.4529  0.2027
 6930TIP3    H142425   4.893   2.463   1.971  0.4656 -1.4212 -0.3242
 6930TIP3    H242426   4.972   2.372   2.063 -0.1816 -0.4312  1.2601
 6931TIP3   OH242427   2.723   3.225   7.344 -0.1178  0.0189 -0.1838
 6931TIP3    H142428   2.661   3.273   7.289  2.1062  1.5885 -1.4569
 6931TIP3    H242429   2.755   3.290   7.406 -0.4892 -1.0532  1.1985
 6932TIP3   OH242430   3.653   6.241   1.073 -0.1183  0.1269 -0.3589
 6932TIP3    H142431   3.572   6.211   1.031  0.4551 -0.9477 -0.7298
 6932TIP3    H242432   3.723   6.197   1.025  0.5979 -0.4194  1.1221
 6933TIP3   OH242433   0.597   4.789   8.258  0.2075 -0.0253 -0.2487
 6933TIP3    H142434   0.589   4.733   8.180 -0.4362  1.8793 -1.6138
 6933TIP3    H242435   0.519   4.768   8.310 -0.3935  0.0978 -1.0860
 6934TIP3   OH242436   5.128   5.321   1.330  0.2570  0.4186 -0.4582
 6934TIP3    H142437   5.065   5.250   1.329 -0.3775  0.9688 -2.1582
 6934TIP3    H242438   5.075   5.401   1.330  0.9574  0.9438  1.2208
 6935TIP3   OH242439   0.833   1.645   7.263 -0.5300  0.4893 -0.3514
 6935TIP3    H142440   0.743   1.665   7.238 -0.7006 -1.2157 -1.2181
 6935TIP3    H242441   0.854   1.565   7.215  0.4664 -0.7886  2.0549
 6936TIP3   OH242442   0.574   5.426   0.451  0.2299 -0.1021 -0.3975
 6936TIP3    H142443   0.566   5.330   0.445  0.2373 -0.0498 -1.3856
 6936TIP3    H242444   0.631   5.440   0.526 -0.0540 -0.8633 -0.0223
 6937TIP3   OH242445   1.091   1.072   0.384  0.8772 -0.6696 -0.3984
 6937TIP3    H142446   1.145   1.151   0.380 -0.6713  0.4723  0.3558
 6937TIP3    H242447   1.082   1.052   0.477 -0.7107 -0.2868 -0.4334
 6938TIP3   OH242448   1.038   3.176   1.210 -0.1256  0.2677  0.2610
 6938TIP3    H142449   1.058   3.205   1.121  0.0020 -0.2542  0.1139
 6938TIP3    H242450   0.956   3.128   1.201  1.1273 -1.9692 -0.0520
 6939TIP3   OH242451   0.882   1.588   1.687  0.0285 -0.2200 -0.3100
 6939TIP3    H142452   0.953   1.652   1.693 -1.1131  1.1475 -0.9754
 6939TIP3    H242453   0.874   1.570   1.593 -0.5984 -0.2462 -0.2559
 6940TIP3   OH242454   4.287   2.516   1.065  0.2507 -0.0056  0.4041
 6940TIP3    H142455   4.323   2.452   1.002 -0.5300 -0.5036  0.4549
 6940TIP3    H242456   4.351   2.517   1.136 -0.0663 -1.2712  0.7357
 6941TIP3   OH242457   6.356   1.318   2.014  0.6491  0.4405 -0.4472
 6941TIP3    H142458   6.272   1.343   2.052 -0.0230  1.3944 -2.4389
 6941TIP3    H242459   6.417   1.316   2.088 -0.9516  0.4896  0.9121
 6942TIP3   OH242460   5.765   3.864   0.169  0.5200  0.1682  0.6369
 6942TIP3    H142461   5.685   3.836   0.213 -0.1900  0.3150 -0.5294
 6942TIP3    H242462   5.834   3.812   0.210 -0.1884 -0.0927  1.5358
 6943TIP3   OH242463   2.122   1.798   1.818 -0.1144 -0.1017 -0.4608
 6943TIP3    H142464   2.080   1.728   1.768 -0.1298 -0.9768  0.7278
 6943TIP3    H242465   2.214   1.774   1.821 -0.3895 -1.1059  1.5068
 6944TIP3   OH242466   0.713   6.257   6.926  0.0206 -0.0814  0.7067
 6944TIP3    H142467   0.742   6.241   6.836  0.1492  2.6410  0.1724
 6944TIP3    H242468   0.654   6.185   6.945 -0.8490 -0.1980 -1.9455
 6945TIP3   OH242469   6.380   3.783   7.257 -0.1426  0.1949 -0.2937
 6945TIP3    H142470   6.340   3.776   7.344  0.7612 -0.6369  0.0717
 6945TIP3    H242471   6.336   3.717   7.204 -0.9431  0.9398 -0.5913
 6946TIP3   OH242472   2.057   4.065   8.056 -0.2922  0.2565  0.1952
 6946TIP3    H142473   2.031   3.991   8.110 -0.0471  0.6980  0.9263
 6946TIP3    H242474   2.000   4.059   7.979 -1.8676  0.6119  1.2803
 6947TIP3   OH242475   5.773   3.392   0.549 -0.4716  0.3139  0.4014
 6947TIP3    H142476   5.696   3.436   0.514  0.8128  2.7979  0.5186
 6947TIP3    H242477   5.738   3.319   0.600 -2.5598 -0.9121 -2.5055
 6948TIP3   OH242478   5.266   4.466   1.352  0.1844  0.4394 -0.3325
 6948TIP3    H142479   5.220   4.502   1.427 -0.9833  2.0305 -1.7349
 6948TIP3    H242480   5.353   4.445   1.385  0.8939  4.2860  0.7546
 6949TIP3   OH242481   2.790   3.133   0.914 -0.2856  0.3449  0.3370
 6949TIP3    H142482   2.715   3.167   0.866  0.6397  2.0015 -0.0121
 6949TIP3    H242483   2.853   3.109   0.847 -1.0920 -2.8366  0.5152
 6950TIP3   OH242484   3.603   2.069   1.640 -0.0531 -0.2644 -0.2118
 6950TIP3    H142485   3.624   2.004   1.707  0.4552  1.0149  0.9202
 6950TIP3    H242486   3.508   2.077   1.642  0.0704  2.5848  3.2658
 6951TIP3   OH242487   6.725   1.043   7.804  0.5413 -0.3417  0.0137
 6951TIP3    H142488   6.728   1.138   7.815  1.9276 -0.4678  1.1688
 6951TIP3    H242489   6.666   1.028   7.731  1.2619  1.4793 -0.9981
 6952TIP3   OH242490   6.706   1.067   7.053  0.4239  0.0090  0.1448
 6952TIP3    H142491   6.682   1.124   7.126 -0.0820 -0.5851  0.4462
 6952TIP3    H242492   6.785   1.108   7.017 -0.3755  1.3649 -0.1600
 6953TIP3   OH242493   3.346   3.853   2.004 -0.6523  0.4947 -0.3063
 6953TIP3    H142494   3.292   3.901   1.941 -1.1927  0.1808 -0.0851
 6953TIP3    H242495   3.436   3.869   1.975 -0.8623  0.9663 -0.7158
 6954TIP3   OH242496   5.362   4.594   0.569 -0.1372 -0.0342 -0.2106
 6954TIP3    H142497   5.448   4.618   0.602 -0.2183  1.6048 -1.1050
 6954TIP3    H242498   5.379   4.526   0.504  0.1050 -2.5342  2.2880
 6955TIP3   OH242499   5.081   0.183   7.514  0.4839 -0.2477  0.1145
 6955TIP3    H142500   5.140   0.236   7.568 -0.4182  1.0372 -0.1113
 6955TIP3    H242501   5.136   0.114   7.479  1.4191 -0.2597  1.5046
 6956TIP3   OH242502   0.095   3.025   1.172 -0.0389  0.5837 -0.1472
 6956TIP3    H142503   0.131   3.077   1.244  0.6219  0.2301 -0.2211
 6956TIP3    H242504   0.150   2.947   1.168  0.1915  0.7935 -1.3133
 6957TIP3   OH242505   5.668   0.650   6.967 -0.2771  0.3755 -0.3972
 6957TIP3    H142506   5.628   0.571   6.929 -0.6123  0.2121  0.2709
 6957TIP3    H242507   5.595   0.711   6.978 -0.2115  0.3623  0.1188
 6958TIP3   OH242508   6.125   1.759   2.362  0.0811 -0.3069 -0.0144
 6958TIP3    H142509   6.046   1.770   2.309  0.6460 -0.0264 -0.8165
 6958TIP3    H242510   6.163   1.676   2.331  0.6789  0.1054 -0.4171
 6959TIP3   OH242511   5.757   3.820   7.309  0.3990 -0.9570  0.3539
 6959TIP3    H142512   5.841   3.776   7.295  1.2844  0.7090  0.2195
 6959TIP3    H242513   5.728   3.845   7.222  0.4848 -0.2518  0.5231
 6960TIP3   OH242514   6.128   1.684   1.031  0.3538  0.2938 -0.2497
 6960TIP3    H142515   6.036   1.665   1.046  0.0892  0.8845 -1.0620
 6960TIP3    H242516   6.131   1.778   1.012  1.2209  0.4435  0.5108
 6961TIP3   OH242517   0.368   4.717   7.649 -0.0206 -0.3815 -0.0399
 6961TIP3    H142518   0.363   4.742   7.557 -1.1856 -0.6615 -0.0653
 6961TIP3    H242519   0.448   4.664   7.655  0.4871  0.2885 -0.7189
 6962TIP3   OH242520   1.150   6.771   1.688  0.1741 -0.0455  0.1867
 6962TIP3    H142521   1.226   6.716   1.707 -0.7890 -1.4935  0.0201
 6962TIP3    H242522   1.079   6.708   1.674 -1.0308  1.2743  0.2544
 6963TIP3   OH242523   1.594   0.343   7.018  0.1158  0.3803  0.1633
 6963TIP3    H142524   1.660   0.277   7.040 -1.7086 -1.2689  1.0333
 6963TIP3    H242525   1.594   0.346   6.922  0.3390 -0.8201  0.1089
 6964TIP3   OH242526   6.727   2.469   0.286  0.2037  0.3870  0.2132
 6964TIP3    H142527   6.813   2.503   0.313  0.6937 -1.7385  1.5916
 6964TIP3    H242528   6.665   2.533   0.319  1.0557 -0.1361  3.1621
 6965TIP3   OH242529   4.943   5.063   7.161 -0.1045  0.4054 -0.2204
 6965TIP3    H142530   4.895   5.000   7.215  1.6998 -0.5379  0.3430
 6965TIP3    H242531   4.923   5.037   7.071  0.2208 -0.6705  0.0040
 6966TIP3   OH242532   3.637   0.579   8.281  0.7163 -0.2455  0.1368
 6966TIP3    H142533   3.553   0.536   8.268 -0.5352  1.9344  0.5924
 6966TIP3    H242534   3.686   0.519   8.339 -0.7432 -1.2539  0.3716
 6967TIP3   OH242535   1.009   2.005   1.106  0.7040 -0.0288 -0.2554
 6967TIP3    H142536   0.965   1.989   1.022  0.9314  0.6526 -0.5069
 6967TIP3    H242537   1.102   2.006   1.085  0.8527 -1.3283  0.2580
 6968TIP3   OH242538   5.899   5.069   1.692 -0.0687 -0.7815 -0.1606
 6968TIP3    H142539   5.805   5.076   1.707 -0.0838 -0.4181 -0.4337
 6968TIP3    H242540   5.921   5.144   1.637  0.9044  0.8989  2.3394
 6969TIP3   OH242541   3.208   5.144   0.615  0.5400  0.3235 -0.3063
 6969TIP3    H142542   3.297   5.111   0.628 -0.0301 -0.7802  1.2288
 6969TIP3    H242543   3.181   5.174   0.702 -0.9357 -0.3039 -0.5185
 6970TIP3   OH242544   3.531   1.664   1.526 -0.6106 -0.1521  0.3777
 6970TIP3    H142545   3.478   1.743   1.539 -0.4204  0.1306 -0.5154
 6970TIP3    H242546   3.541   1.627   1.614  0.1574  1.3664  0.9589
 6971TIP3   OH242547   6.069   2.031   7.874 -0.3060 -0.2853  0.4885
 6971TIP3    H142548   6.101   2.038   7.964  2.0876 -0.6155 -0.2600
 6971TIP3    H242549   6.079   1.938   7.852  0.8215  0.0611 -0.6363
 6972TIP3   OH242550   0.596   0.512   7.451  0.6897 -0.0786  0.3556
 6972TIP3    H142551   0.604   0.601   7.484  2.0576 -0.6835  1.7784
 6972TIP3    H242552   0.610   0.521   7.357  1.8039  1.1166  0.5920
 6973TIP3   OH242553   3.149   2.491   1.043 -0.1119 -0.4908  0.5024
 6973TIP3    H142554   3.160   2.399   1.066  0.1077  0.0953  2.9795
 6973TIP3    H242555   3.226   2.534   1.078  1.7761  0.2578 -3.8824
 6974TIP3   OH242556   1.295   4.662   7.279 -0.1610 -0.3976  0.0891
 6974TIP3    H142557   1.326   4.697   7.363 -2.2266 -0.8592  1.0970
 6974TIP3    H242558   1.369   4.610   7.246  1.2866  1.1278  0.7768
 6975TIP3   OH242559   3.902   2.090   7.710  0.2110  0.0169 -0.2419
 6975TIP3    H142560   3.846   2.165   7.691 -0.8656 -0.3121  1.4391
 6975TIP3    H242561   3.882   2.026   7.642 -0.1373  0.5840 -0.6786
 6976TIP3   OH242562   2.181   5.662   6.829  0.1912 -0.3686 -0.1172
 6976TIP3    H142563   2.243   5.735   6.834 -0.3531  0.0249  1.1483
 6976TIP3    H242564   2.233   5.590   6.795  0.7326  0.5979 -1.4616
 6977TIP3   OH242565   5.802   4.190   8.207  0.6401  0.4660 -0.5603
 6977TIP3    H142566   5.864   4.208   8.278 -0.5726  0.3980  0.5478
 6977TIP3    H242567   5.857   4.178   8.130  2.0356  0.0374  0.4623
 6978TIP3   OH242568   4.645   4.931   1.310 -0.3594  0.3756 -0.2079
 6978TIP3    H142569   4.637   4.840   1.282  0.0694 -0.1788  1.3726
 6978TIP3    H242570   4.674   4.978   1.231  0.3837 -1.0215 -0.7959
 6979TIP3   OH242571   2.148   3.054   1.521 -0.2791  0.0327  0.0134
 6979TIP3    H142572   2.117   3.037   1.610 -0.0788 -1.8567 -0.2507
 6979TIP3    H242573   2.184   3.143   1.525 -1.7260  0.6089  1.4016
 6980TIP3   OH242574   5.336   0.779   2.326 -0.1310 -0.2679  0.3961
 6980TIP3    H142575   5.343   0.775   2.422 -0.8812 -1.2706  0.4169
 6980TIP3    H242576   5.294   0.697   2.301  0.4218 -0.1971 -0.8403
 6981TIP3   OH242577   5.768   4.276   0.920 -0.2813 -0.2640 -0.3540
 6981TIP3    H142578   5.767   4.311   0.831 -0.8893 -0.7173 -0.5345
 6981TIP3    H242579   5.823   4.198   0.914  0.3812  0.1759 -0.1365
 6982TIP3   OH242580   1.890   5.947   6.085  0.2790 -0.6021 -0.4524
 6982TIP3    H142581   1.811   6.001   6.079 -1.1266 -2.2568  1.4616
 6982TIP3    H242582   1.927   5.969   6.171 -1.0646 -3.3999  0.9997
 6983TIP3   OH242583   3.034   1.672   0.351  0.5337 -0.2550 -0.1053
 6983TIP3    H142584   3.006   1.618   0.277  0.8354 -0.0291 -0.3881
 6983TIP3    H242585   2.955   1.717   0.379  0.3250 -0.6736 -0.0087
 6984TIP3   OH242586   3.377   5.168   1.769 -0.1637 -0.2099  0.1101
 6984TIP3    H142587   3.365   5.193   1.860 -2.3928  0.5591 -0.3380
 6984TIP3    H242588   3.407   5.077   1.773 -0.2829 -0.2075  1.5844
 6985TIP3   OH242589   3.379   2.761   6.967  0.1172  0.2665  0.8822
 6985TIP3    H142590   3.368   2.811   6.887  0.5180  1.1846  1.3878
 6985TIP3    H242591   3.378   2.826   7.037  0.6134 -0.4308  1.5602
 6986TIP3   OH242592   2.830   3.848   6.905  0.4105  0.0594  0.2683
 6986TIP3    H142593   2.739   3.846   6.934  0.2894 -1.3139 -0.1108
 6986TIP3    H242594   2.835   3.921   6.844 -1.0155 -1.1867 -1.4333
 6987TIP3   OH242595   2.601   0.070   0.992  0.2418 -1.0410 -0.0449
 6987TIP3    H142596   2.634   0.089   0.904  2.5394 -0.9632  0.7926
 6987TIP3    H242597   2.607   0.153   1.038  1.9460 -1.7244  1.0423
 6988TIP3   OH242598   0.701   5.119   8.018  0.3851 -0.2925 -0.1475
 6988TIP3    H142599   0.623   5.160   8.055  0.6195 -0.4170  0.5060
 6988TIP3    H242600   0.670   5.077   7.938 -0.0893  0.1833 -0.2178
 6989TIP3   OH242601   3.051   1.622   1.190 -0.2257  0.0726  0.4983
 6989TIP3    H142602   3.041   1.690   1.124  1.7223 -0.9883 -0.9793
 6989TIP3    H242603   3.141   1.630   1.221 -0.5236 -0.6756  1.6449
 6990TIP3   OH242604   3.063   3.328   0.454 -0.0861 -0.2355  0.1854
 6990TIP3    H142605   3.012   3.390   0.402  1.0586 -0.1708 -0.8867
 6990TIP3    H242606   3.131   3.297   0.395  0.7568 -0.7756  1.4107
 6991TIP3   OH242607   6.524   2.818   1.557 -0.6850 -0.4947 -0.2347
 6991TIP3    H142608   6.489   2.737   1.596 -1.2818 -0.1377 -0.0231
 6991TIP3    H242609   6.479   2.888   1.603  1.2624  0.0355  1.0069
 6992TIP3   OH242610   0.853   1.599   1.982  0.3468  0.0293  0.4197
 6992TIP3    H142611   0.910   1.590   1.906 -1.1724 -1.2935 -0.6374
 6992TIP3    H242612   0.893   1.543   2.049  0.2477 -0.9766 -0.3442
 6993TIP3   OH242613   2.444   3.536   0.267 -0.4668 -0.1480 -0.4097
 6993TIP3    H142614   2.491   3.576   0.194 -1.2633  0.7297 -0.4575
 6993TIP3    H242615   2.394   3.464   0.227 -0.7252  0.1863 -0.6902
 6994TIP3   OH242616   5.438   6.564   1.201  0.3987 -0.4096  0.3258
 6994TIP3    H142617   5.385   6.634   1.239  0.6652 -0.4297  0.7396
 6994TIP3    H242618   5.389   6.483   1.222 -1.4861 -0.2043 -2.6879
 6995TIP3   OH242619   1.666   2.863   0.553 -0.2699 -0.1894  0.0902
 6995TIP3    H142620   1.745   2.911   0.528  0.8312 -1.1942  1.5019
 6995TIP3    H242621   1.697   2.776   0.576 -1.9563 -0.9620 -0.3788
 6996TIP3   OH242622   2.757   2.992   1.895  0.1142 -0.0219  0.1815
 6996TIP3    H142623   2.773   2.963   1.805  1.5940  0.7118  0.1844
 6996TIP3    H242624   2.772   3.087   1.893 -2.8039  0.5365  0.5763
 6997TIP3   OH242625   5.640   3.158   6.211  0.0275  0.1078  0.2405
 6997TIP3    H142626   5.620   3.111   6.130  0.8237 -0.1127  0.1660
 6997TIP3    H242627   5.659   3.248   6.182  1.9587 -0.3435 -0.0420
 6998TIP3   OH242628   2.786   6.403   6.704 -0.2298 -0.2680 -0.0994
 6998TIP3    H142629   2.852   6.457   6.748 -1.0911  1.3197 -0.6394
 6998TIP3    H242630   2.716   6.395   6.769 -0.1215 -0.7083 -0.0377
 6999TIP3   OH242631   2.066   1.023   1.744  0.2591  0.3881 -0.2263
 6999TIP3    H142632   2.004   0.992   1.678  0.0244  3.2231 -1.4539
 6999TIP3    H242633   2.014   1.080   1.801  1.5158  2.1105 -0.7477
 7000TIP3   OH242634   6.676   5.365   8.267  0.0731  0.5929 -0.5366
 7000TIP3    H142635   6.684   5.460   8.275  0.5788  0.5694 -0.7438
 7000TIP3    H242636   6.582   5.349   8.274  0.1878  0.7855  2.7187
 7001TIP3   OH242637   3.854   2.234   1.791  0.4357  0.1539  0.0478
 7001TIP3    H142638   3.823   2.190   1.870  2.2202  0.0793  0.7424
 7001TIP3    H242639   3.888   2.164   1.736 -0.4148  0.2548 -0.6362
 7002TIP3   OH242640   5.736   2.659   0.136 -0.4239 -0.1595 -0.1345
 7002TIP3    H142641   5.800   2.636   0.203 -0.3883 -0.8907 -0.4148
 7002TIP3    H242642   5.675   2.719   0.180 -0.8803 -1.2822  0.7929
 7003TIP3   OH242643   1.902   4.395   8.365  0.5140  0.1225  0.0200
 7003TIP3    H142644   1.831   4.356   8.315  0.8074  1.0172 -1.1278
 7003TIP3    H242645   1.962   4.323   8.383  0.6371 -0.1203 -1.3376
 7004TIP3   OH242646   5.476   1.466   1.675  0.8885 -0.0166  0.2353
 7004TIP3    H142647   5.526   1.391   1.709  0.4681 -0.1781  0.5112
 7004TIP3    H242648   5.511   1.480   1.587  0.9530 -0.5567  0.1703
 7005TIP3   OH242649   4.099   6.374   1.656 -0.5184  0.5920 -0.1625
 7005TIP3    H142650   4.057   6.292   1.681  0.7123 -0.5638 -1.6520
 7005TIP3    H242651   4.084   6.381   1.562  0.5874  1.3264 -0.3096
 7006TIP3   OH242652   0.535   3.198   0.394 -0.2063 -0.2265  0.2984
 7006TIP3    H142653   0.480   3.192   0.473 -0.6686 -0.2183 -0.0210
 7006TIP3    H242654   0.493   3.140   0.331 -0.6270  0.8098 -0.4016
 7007TIP3   OH242655   0.033   5.094   7.909  0.0513  0.5077 -0.0648
 7007TIP3    H142656   0.112   5.089   7.855  0.7072 -1.3175  0.9783
 7007TIP3    H242657   0.012   5.187   7.911  1.0688  0.8385 -1.9004
 7008TIP3   OH242658   4.711   6.742   1.725  0.5576 -0.1264  0.3860
 7008TIP3    H142659   4.687   6.689   1.802 -1.0337 -0.4311 -0.2940
 7008TIP3    H242660   4.733   6.677   1.658 -0.7307  0.0489 -0.2374
 7009TIP3   OH242661   2.008   4.777   6.950  0.5466  0.2656  0.0476
 7009TIP3    H142662   2.057   4.838   6.894 -0.9005  1.2954 -0.1545
 7009TIP3    H242663   1.920   4.815   6.956  0.4954 -0.1096  2.5734
 7010TIP3   OH242664   2.577   2.316   0.918 -0.3035 -0.0366  0.8611
 7010TIP3    H142665   2.517   2.365   0.974 -0.8285 -0.5422  0.7515
 7010TIP3    H242666   2.532   2.233   0.901 -0.1604  0.1134 -0.3371
 7011TIP3   OH242667   1.597   3.887   1.243 -0.2471  0.2949 -0.0382
 7011TIP3    H142668   1.565   3.809   1.198  1.4776  0.0174 -0.8388
 7011TIP3    H242669   1.628   3.945   1.173 -1.3388  1.6600  0.5519
 7012TIP3   OH242670   3.949   1.360   7.807 -0.4621  0.0738  0.2695
 7012TIP3    H142671   3.899   1.437   7.836  0.1419  1.4690 -2.1221
 7012TIP3    H242672   4.039   1.391   7.802  0.1672 -1.4659  1.3160
 7013TIP3   OH242673   2.436   0.608   0.256 -0.1351  0.6214 -0.8579
 7013TIP3    H142674   2.494   0.601   0.331 -0.3373  0.7759 -0.6875
 7013TIP3    H242675   2.459   0.533   0.201 -2.0429 -1.2699  0.7646
 7014TIP3   OH242676   4.988   0.168   0.577 -0.4990  0.0756 -0.2925
 7014TIP3    H142677   5.037   0.229   0.522  0.9826 -0.7503  0.0589
 7014TIP3    H242678   5.021   0.184   0.665 -1.3890 -0.0081  0.0635
 7015TIP3   OH242679   2.771   1.374   1.346 -0.3312 -0.0294 -0.5703
 7015TIP3    H142680   2.821   1.294   1.330  1.2641  0.2200  2.5084
 7015TIP3    H242681   2.684   1.354   1.312 -0.1346 -3.3181  0.4873
 7016TIP3   OH242682   1.453   6.449   0.553  0.0131 -0.6136  0.1383
 7016TIP3    H142683   1.441   6.388   0.481  1.4682 -0.9914  0.1824
 7016TIP3    H242684   1.539   6.428   0.588  1.4864  2.7492 -1.0907
 7017TIP3   OH242685   2.284   0.257   1.296  0.1527 -0.5739  0.1110
 7017TIP3    H142686   2.254   0.212   1.375  2.6869  0.5057  1.8080
 7017TIP3    H242687   2.319   0.188   1.240 -2.9581 -1.5465 -0.8788
 7018TIP3   OH242688   3.663   4.347   0.690 -0.3509 -0.3338 -0.1535
 7018TIP3    H142689   3.573   4.373   0.707 -0.5786 -0.8331 -0.5734
 7018TIP3    H242690   3.665   4.326   0.596  0.2720 -0.0409 -0.2095
 7019TIP3   OH242691   3.963   2.518   6.986  0.5263 -0.4159  0.6847
 7019TIP3    H142692   3.993   2.449   6.928 -0.2699  0.7115 -1.1558
 7019TIP3    H242693   3.913   2.473   7.054  1.2533 -1.7462  0.3650
 7020TIP3   OH242694   6.654   0.742   1.365 -0.0261  0.2195 -0.2545
 7020TIP3    H142695   6.700   0.806   1.310 -1.3022  0.6080 -0.9110
 7020TIP3    H242696   6.713   0.727   1.439  0.7468  1.3820 -0.6063
 7021TIP3   OH242697   0.796   4.099   7.076  0.1245 -0.1590  0.2160
 7021TIP3    H142698   0.766   4.190   7.088 -1.2063 -0.5774  0.2454
 7021TIP3    H242699   0.753   4.071   6.995  1.1624 -0.5229 -0.2163
 7022TIP3   OH242700   1.588   4.288   0.512 -0.4841  0.3599 -0.3981
 7022TIP3    H142701   1.597   4.193   0.516 -0.3005  0.3834 -0.2220
 7022TIP3    H242702   1.504   4.303   0.469  0.3341  0.1191 -2.1744
 7023TIP3   OH242703   0.477   1.091   8.244  0.0323 -0.3133  0.3715
 7023TIP3    H142704   0.514   1.075   8.157 -0.3237 -0.1188  0.1840
 7023TIP3    H242705   0.383   1.096   8.230 -0.1958 -1.9791  1.0256
 7024TIP3   OH242706   5.028   1.723   6.974  0.2504  0.2433  0.5537
 7024TIP3    H142707   4.989   1.643   7.010 -0.9005 -0.2578 -1.6239
 7024TIP3    H242708   4.953   1.779   6.954  0.8008  0.4914 -0.9655
 7025TIP3   OH242709   1.116   5.532   1.718 -0.1305 -0.2825 -0.0072
 7025TIP3    H142710   1.064   5.452   1.709 -3.3758  1.7299 -0.3673
 7025TIP3    H242711   1.054   5.603   1.707  3.0173  2.3999 -2.1842
 7026TIP3   OH242712   0.630   2.139   1.305 -0.5924 -0.0934 -0.1550
 7026TIP3    H142713   0.665   2.067   1.252 -0.2316  0.7477 -1.0750
 7026TIP3    H242714   0.537   2.144   1.281 -0.6393 -0.2910 -0.0254
 7027TIP3   OH242715   4.049   0.262   7.294  0.5377  0.1826  0.4040
 7027TIP3    H142716   4.081   0.304   7.214 -0.6810 -0.2582 -0.3363
 7027TIP3    H242717   4.069   0.169   7.282  1.7584  0.3173  1.3155
 7028TIP3   OH242718   2.009   5.305   2.130  0.0456 -0.1676 -0.1898
 7028TIP3    H142719   2.030   5.222   2.088  0.8907 -1.0051  1.7623
 7028TIP3    H242720   1.928   5.288   2.179  0.6317 -0.1132  0.8401
 7029TIP3   OH242721   5.103   5.259   0.945  0.2414  0.1475 -0.5578
 7029TIP3    H142722   5.025   5.284   0.895 -1.4162  1.4693  2.4258
 7029TIP3    H242723   5.081   5.173   0.982  0.6313  0.0653 -0.5093
 7030TIP3   OH242724   6.529   2.823   7.852 -0.5227  0.4689 -0.1243
 7030TIP3    H142725   6.513   2.766   7.777 -0.4108  0.3532 -0.0621
 7030TIP3    H242726   6.573   2.900   7.816 -1.2316  0.7963 -0.2990
 7031TIP3   OH242727   6.048   5.227   8.587  0.2058 -0.4324  0.0291
 7031TIP3    H142728   6.070   5.263   8.673 -2.3226  0.3360  0.4295
 7031TIP3    H242729   6.018   5.302   8.536 -0.1527 -1.1851 -0.9056
 7032TIP3   OH242730   5.502   3.755   7.420 -0.3745  0.5742  0.1203
 7032TIP3    H142731   5.440   3.826   7.405  0.7961  1.6893  0.4076
 7032TIP3    H242732   5.579   3.779   7.370 -0.9567 -2.0116 -2.2446
 7033TIP3   OH242733   1.841   4.827   1.813 -0.3198  0.3218  1.0059
 7033TIP3    H142734   1.876   4.909   1.777  0.6679 -0.0567  1.0642
 7033TIP3    H242735   1.781   4.854   1.882 -0.8746  1.0170  0.2679
 7034TIP3   OH242736   1.968   2.436   7.810 -0.6467  0.7501 -0.0798
 7034TIP3    H142737   2.016   2.446   7.728 -0.4411 -1.6856 -0.3124
 7034TIP3    H242738   1.882   2.474   7.791 -0.5114  0.4787 -1.3367
 7035TIP3   OH242739   3.290   6.925   1.270  0.1911 -0.0190  1.0725
 7035TIP3    H142740   3.305   6.942   1.177 -2.6856 -1.7675  0.1679
 7035TIP3    H242741   3.328   7.000   1.315  0.7688  1.3784 -1.5666
 7036TIP3   OH242742   5.457   5.365   1.575 -0.0536  0.8481  0.5909
 7036TIP3    H142743   5.417   5.279   1.559 -0.2864  0.9788  0.4678
 7036TIP3    H242744   5.449   5.379   1.669  2.1159 -0.3293  1.0292
 7037TIP3   OH242745   4.465   5.672   1.040 -0.2711  0.6835  0.0110
 7037TIP3    H142746   4.477   5.579   1.061  1.3959  1.1278  1.2946
 7037TIP3    H242747   4.445   5.673   0.946  2.0348 -0.8711 -0.5876
 7038TIP3   OH242748   1.017   1.602   7.489 -0.0164  0.5040 -0.0689
 7038TIP3    H142749   0.945   1.633   7.435 -1.5030  1.1467  2.1328
 7038TIP3    H242750   1.021   1.664   7.562  0.5742 -1.3760  1.5942
 7039TIP3   OH242751   6.853   6.592   8.058  0.0651  0.3231  0.3142
 7039TIP3    H142752   6.876   6.623   8.146  0.7564 -2.3838  1.2071
 7039TIP3    H242753   6.874   6.498   8.060 -2.4974 -0.4209 -1.8504
 7040TIP3   OH242754   6.291   2.993   0.799 -0.1783  0.5090  0.3232
 7040TIP3    H142755   6.259   2.903   0.810  1.5969 -0.2157 -0.1591
 7040TIP3    H242756   6.211   3.045   0.787 -1.2773 -0.9051  1.1308
 7041TIP3   OH242757   1.493   3.948   7.376  0.0210 -0.3289 -0.1192
 7041TIP3    H142758   1.583   3.941   7.344 -0.9862 -3.0036 -2.9260
 7041TIP3    H242759   1.490   3.891   7.453  0.6853 -0.4916 -0.2054
 7042TIP3   OH242760   1.281   0.720   7.514 -0.0493 -0.3013  0.2181
 7042TIP3    H142761   1.192   0.693   7.492 -1.2245  2.2057  1.4264
 7042TIP3    H242762   1.313   0.762   7.434 -0.7748  0.6390  0.4055
 7043TIP3   OH242763   6.698   0.307   7.265  0.1141  0.6410 -0.5400
 7043TIP3    H142764   6.686   0.392   7.307  0.7298  0.6244 -0.3296
 7043TIP3    H242765   6.702   0.327   7.171 -0.1489  0.7941 -0.5207
 7044TIP3   OH242766   4.951   6.682   7.526  0.2184 -0.0553  0.2775
 7044TIP3    H142767   5.032   6.649   7.564 -1.1139  0.1291  3.6778
 7044TIP3    H242768   4.894   6.605   7.522 -0.1561  0.2310  0.0538
 7045TIP3   OH242769   0.766   2.848   6.534  0.4644  0.0518  0.0223
 7045TIP3    H142770   0.824   2.782   6.496  0.8371 -0.1593  0.9362
 7045TIP3    H242771   0.726   2.805   6.609 -0.8135  0.2313 -0.5288
 7046TIP3   OH242772   6.813   6.435   7.634 -0.5071 -0.1307 -0.2132
 7046TIP3    H142773   6.797   6.372   7.704  1.0388  0.9457  1.1810
 7046TIP3    H242774   6.727   6.474   7.618 -1.0666 -1.0462  0.4216
 7047TIP3   OH242775   1.596   5.814   8.027 -0.2289 -0.3243 -0.4213
 7047TIP3    H142776   1.639   5.730   8.045 -0.1337 -0.0948  0.4664
 7047TIP3    H242777   1.502   5.794   8.031 -0.3010 -0.9521 -2.9327
 7048TIP3   OH242778   4.319   5.089   1.276  0.3643 -0.0154  0.7047
 7048TIP3    H142779   4.259   5.021   1.308  0.1452  0.1942  0.7461
 7048TIP3    H242780   4.261   5.153   1.234  0.3954  0.9302  2.0229
 7049TIP3   OH242781   2.060   3.257   7.036 -0.3033  0.2650 -0.5840
 7049TIP3    H142782   2.120   3.201   6.986  1.0544  1.0684  0.0790
 7049TIP3    H242783   2.084   3.346   7.010  0.6160  0.7251  1.6143
 7050TIP3   OH242784   5.807   4.958   8.259 -0.6492  0.1073 -0.9062
 7050TIP3    H142785   5.826   4.890   8.324 -2.8781 -0.0550 -0.3284
 7050TIP3    H242786   5.746   4.915   8.198 -0.8762  1.1349 -1.4176
 7051TIP3   OH242787   5.091   1.395   1.728  0.3339 -0.1739  0.3854
 7051TIP3    H142788   5.034   1.333   1.774 -0.2015 -1.1767 -1.5359
 7051TIP3    H242789   5.180   1.365   1.746  0.1326 -0.5988  0.6863
 7052TIP3   OH242790   0.141   4.675   7.432  0.1490  0.1773  0.3993
 7052TIP3    H142791   0.161   4.596   7.482  0.4822  1.1920  1.9405
 7052TIP3    H242792   0.055   4.702   7.465 -0.1588  0.2210 -0.4350
 7053TIP3   OH242793   0.650   2.787   7.327 -0.5944 -0.1555  0.2217
 7053TIP3    H142794   0.621   2.702   7.293 -2.1468 -0.4849  2.1414
 7053TIP3    H242795   0.621   2.850   7.262 -3.9293 -0.6991  1.0101
 7054TIP3   OH242796   2.155   5.341   0.168 -0.2827 -0.4160 -0.2607
 7054TIP3    H142797   2.170   5.425   0.213 -1.1658 -0.7795  0.7698
 7054TIP3    H242798   2.243   5.303   0.159  0.1162  0.5453 -0.6228
 7055TIP3   OH242799   0.616   2.860   0.912  0.3859  0.1367 -0.0954
 7055TIP3    H142800   0.693   2.843   0.967  1.3455  0.1546 -1.3934
 7055TIP3    H242801   0.561   2.783   0.923 -0.0746  0.6784  1.8645
 7056TIP3   OH242802   5.826   5.753   1.463  0.1349  0.4012  0.6267
 7056TIP3    H142803   5.899   5.806   1.433  0.7042  0.0681  1.3939
 7056TIP3    H242804   5.866   5.675   1.501 -0.6341  0.0221  0.6908
 7057TIP3   OH242805   5.462   6.377   7.159  0.5279 -0.4031 -0.1663
 7057TIP3    H142806   5.417   6.305   7.115  0.6444 -0.0089 -0.9554
 7057TIP3    H242807   5.553   6.347   7.166  0.5049 -0.4753 -0.1755
 7058TIP3   OH242808   6.541   5.460   1.196  0.8643 -0.0342 -0.3495
 7058TIP3    H142809   6.541   5.544   1.149  0.9754  1.4223  2.0717
 7058TIP3    H242810   6.599   5.475   1.271 -1.6373 -1.1535  1.9632
 7059TIP3   OH242811   3.379   1.465   0.204  0.8924 -0.3459  0.4784
 7059TIP3    H142812   3.315   1.467   0.133  0.8899  0.8737  0.4901
 7059TIP3    H242813   3.345   1.400   0.265  0.3769 -0.6892 -0.1547
 7060TIP3   OH242814   5.848   0.719   0.039  0.2858 -0.0759 -0.1674
 7060TIP3    H142815   5.883   0.648   0.092 -0.6172 -0.8968 -0.6386
 7060TIP3    H242816   5.845   0.683  -0.050 -0.3976  0.4696 -0.3730
 7061TIP3   OH242817   6.863   1.896   2.689  0.2498  0.1542 -0.5537
 7061TIP3    H142818   6.952   1.862   2.690  0.0025 -0.4971  0.3496
 7061TIP3    H242819   6.807   1.819   2.695 -0.2961  0.6520  3.9905
 7062TIP3   OH242820   3.340   2.736   1.098 -0.2554  0.1217  0.1975
 7062TIP3    H142821   3.338   2.825   1.133  1.0806  0.3201 -0.2026
 7062TIP3    H242822   3.375   2.745   1.009 -0.6865 -0.7351 -0.0748
 7063TIP3   OH242823   5.161   1.436   8.083  0.5815 -0.4982  0.1088
 7063TIP3    H142824   5.244   1.466   8.122  1.9347 -0.8130 -2.3643
 7063TIP3    H242825   5.186   1.363   8.027 -1.3953 -0.5816 -0.7221
 7064TIP3   OH242826   4.008   1.473   1.907  0.0246 -0.3213  0.3185
 7064TIP3    H142827   3.985   1.407   1.971  2.1124 -0.0648  1.4161
 7064TIP3    H242828   4.042   1.424   1.832 -0.0372 -0.5375  0.4337
 7065TIP3   OH242829   2.806   3.391   0.780  0.4166 -0.1615 -0.2209
 7065TIP3    H142830   2.876   3.360   0.837  0.9715  1.0078 -0.2328
 7065TIP3    H242831   2.820   3.345   0.698  0.9164 -0.2693 -0.0790
 7066TIP3   OH242832   0.783   1.094   1.132  0.5651 -0.2667 -0.1543
 7066TIP3    H142833   0.731   1.092   1.212  0.2200  1.7237 -0.2899
 7066TIP3    H242834   0.784   1.003   1.102 -1.2222 -0.6641  0.8636
 7067TIP3   OH242835   0.457   2.694   8.350  0.4891 -0.1319 -0.2799
 7067TIP3    H142836   0.411   2.619   8.312 -1.1499 -0.5837  2.2948
 7067TIP3    H242837   0.435   2.691   8.443  0.9134  3.1809  0.0664
 7068TIP3   OH242838   3.130   5.991   0.887  0.6560 -0.0611 -0.2950
 7068TIP3    H142839   3.071   5.925   0.924  1.0645 -0.9313 -1.1667
 7068TIP3    H242840   3.091   6.013   0.803 -0.5672  2.3118  0.8073
 7069TIP3   OH242841   2.213   6.330   8.227 -0.3113 -0.4961  0.1365
 7069TIP3    H142842   2.287   6.268   8.226 -0.0488 -0.1806 -0.3504
 7069TIP3    H242843   2.149   6.289   8.284  0.7525 -0.1822  1.6223
 7070TIP3   OH242844   6.049   5.990   6.891  0.2960 -0.3743 -0.3736
 7070TIP3    H142845   6.125   6.020   6.841  1.2650  1.5223  2.0475
 7070TIP3    H242846   6.086   5.954   6.972 -1.3472 -0.1938  0.5002
 7071TIP3   OH242847   6.343   1.635   6.575 -0.3973 -0.0966  0.6106
 7071TIP3    H142848   6.383   1.697   6.636  2.4538 -1.5359  0.3909
 7071TIP3    H242849   6.287   1.580   6.630 -1.5720  1.4882  1.0793
 7072TIP3   OH242850   0.800   6.731   7.454 -0.0553  0.0932 -0.2672
 7072TIP3    H142851   0.832   6.817   7.427 -0.5877  0.3863  0.0257
 7072TIP3    H242852   0.743   6.703   7.382  0.0213  0.0421 -0.3075
 7073TIP3   OH242853   6.664   1.292   7.907  0.3250  0.1011  0.0402
 7073TIP3    H142854   6.690   1.382   7.928 -2.3548  0.6082  1.6129
 7073TIP3    H242855   6.634   1.256   7.991 -0.4888 -1.5976 -0.9304
 7074TIP3   OH242856   6.203   3.616   0.154  0.7221  0.3105  0.0950
 7074TIP3    H142857   6.176   3.645   0.067  0.8143  1.5349  0.4575
 7074TIP3    H242858   6.273   3.677   0.179 -0.4388  1.0565  1.7175
 7075TIP3   OH242859   0.659   2.222   0.814 -0.0837  0.7089  0.0218
 7075TIP3    H142860   0.746   2.244   0.845  0.2944 -0.5836 -0.0486
 7075TIP3    H242861   0.654   2.126   0.823 -1.4959  0.7612  0.0482
 7076TIP3   OH242862   6.130   6.348   6.700  0.1346 -0.0111 -0.1682
 7076TIP3    H142863   6.196   6.297   6.652  0.4129  0.3276 -0.1499
 7076TIP3    H242864   6.125   6.431   6.653 -1.1913 -0.4760 -0.9180
 7077TIP3   OH242865   6.219   2.757   1.152  0.4716 -0.0500  0.1148
 7077TIP3    H142866   6.262   2.729   1.233 -1.5067  0.7097  1.5328
 7077TIP3    H242867   6.243   2.849   1.142 -0.4843  0.2791  0.7170
 7078TIP3   OH242868   3.907   5.371   6.661  0.5391 -0.6345  0.3230
 7078TIP3    H142869   3.920   5.282   6.629  0.0768  0.3416 -2.9083
 7078TIP3    H242870   3.823   5.397   6.624  1.4244  1.6752 -0.2197
 7079TIP3   OH242871   3.771   2.395   8.348  0.0988 -0.0417  0.0983
 7079TIP3    H142872   3.753   2.482   8.313  0.6654 -0.2673 -0.7765
 7079TIP3    H242873   3.835   2.410   8.418  0.5194  0.2077 -0.3338
 7080TIP3   OH242874   6.899   2.569   0.722  0.4932  0.5587 -0.5082
 7080TIP3    H142875   6.948   2.549   0.642  1.1768 -0.3860  0.1194
 7080TIP3    H242876   6.835   2.498   0.729  1.4789 -0.2741  0.5830
 7081TIP3   OH242877   4.111   3.593   0.344  0.6053 -1.0770 -0.0046
 7081TIP3    H142878   4.034   3.598   0.401  0.6383  2.5295 -0.0592
 7081TIP3    H242879   4.076   3.609   0.256  1.3902  2.0135  0.1178
 7082TIP3   OH242880   1.390   0.725   1.448  0.1045 -0.4617  0.2879
 7082TIP3    H142881   1.393   0.775   1.366 -0.6353  0.7444  0.9662
 7082TIP3    H242882   1.312   0.671   1.441 -0.8433  0.7860  0.7993
 7083TIP3   OH242883   3.917   4.966   1.492  0.2358 -0.4652  0.3453
 7083TIP3    H142884   3.825   4.987   1.509  0.0972 -0.4374 -0.4134
 7083TIP3    H242885   3.966   5.030   1.545 -0.1612 -1.1025  1.5281
 7084TIP3   OH242886   2.840   1.119   7.975  0.5990 -0.1972 -0.0455
 7084TIP3    H142887   2.796   1.034   7.975  2.0548 -1.0189  1.7760
 7084TIP3    H242888   2.769   1.183   7.976 -0.5299 -1.4123  0.2105
 7085TIP3   OH242889   5.849   3.940   7.523 -0.2880  0.0897 -0.0584
 7085TIP3    H142890   5.798   3.879   7.471 -0.3819 -1.0405  1.3116
 7085TIP3    H242891   5.789   4.012   7.543 -0.1946  0.6346 -1.6158
 7086TIP3   OH242892   3.765   2.009   7.019  0.6198  0.3230 -0.9389
 7086TIP3    H142893   3.854   2.018   7.054  0.5855 -1.6483 -0.1764
 7086TIP3    H242894   3.708   2.020   7.096  0.1701  1.8951 -1.4783
 7087TIP3   OH242895   0.114   5.945   0.996 -0.0161  0.1725 -0.5669
 7087TIP3    H142896   0.160   5.934   0.912  1.1126 -1.4364  0.2150
 7087TIP3    H242897   0.157   5.884   1.055  0.1009  2.2020  1.5824
 7088TIP3   OH242898   5.165   4.482   7.914 -0.0540 -0.3847 -0.4011
 7088TIP3    H142899   5.228   4.475   7.842 -1.4915  2.1596 -2.0605
 7088TIP3    H242900   5.088   4.435   7.882 -1.0105  1.4872 -1.0081
 7089TIP3   OH242901   0.862   2.764   0.497 -0.1412  0.1487  0.3248
 7089TIP3    H142902   0.892   2.811   0.576  2.9690 -0.4500 -0.3506
 7089TIP3    H242903   0.849   2.834   0.432 -0.4191  0.4539  0.7000
 7090TIP3   OH242904   6.818   0.065   7.237 -0.2034 -0.8666  0.0791
 7090TIP3    H142905   6.844   0.051   7.328 -0.7322  0.0939  0.3945
 7090TIP3    H242906   6.760   0.142   7.240  0.8540  0.0285 -1.2436
 7091TIP3   OH242907   6.313   1.273   1.203  0.3449 -0.1593  0.2935
 7091TIP3    H142908   6.400   1.239   1.222  0.5891 -0.5272 -1.3424
 7091TIP3    H242909   6.326   1.368   1.194  0.5714 -0.2107  0.0763
 7092TIP3   OH242910   2.264   5.543   0.671 -0.3269 -0.1633  0.2182
 7092TIP3    H142911   2.224   5.567   0.755 -0.3482 -0.4030  0.2771
 7092TIP3    H242912   2.321   5.469   0.692  0.2663  0.2758  0.1591
 7093TIP3   OH242913   6.855   0.686   1.541  0.0372 -0.1901  0.2688
 7093TIP3    H142914   6.890   0.733   1.616  0.2416  0.8773 -0.4720
 7093TIP3    H242915   6.927   0.630   1.511 -0.2677 -1.1494  1.2654
 7094TIP3   OH242916   0.725   0.458   0.713  0.0110  0.0256 -0.0509
 7094TIP3    H142917   0.670   0.380   0.705 -0.9233  0.7058 -0.4629
 7094TIP3    H242918   0.722   0.499   0.626  1.2298  0.0524 -0.1020
 7095TIP3   OH242919   2.748   0.160   1.785 -0.1041  0.3571 -0.2865
 7095TIP3    H142920   2.749   0.096   1.713  0.3519  0.6104 -0.5155
 7095TIP3    H242921   2.822   0.218   1.765  0.6153 -0.1287  0.9005
 7096TIP3   OH242922   0.937   6.616   2.151 -0.0987 -0.2181  0.0716
 7096TIP3    H142923   0.984   6.670   2.215  0.8759  0.1801 -0.9422
 7096TIP3    H242924   1.005   6.563   2.110 -0.4631  0.5471 -1.6128
 7097TIP3   OH242925   2.356   4.046   1.168 -0.2000  0.3021  0.0303
 7097TIP3    H142926   2.429   4.106   1.185 -0.5527  0.3479  1.5563
 7097TIP3    H242927   2.284   4.080   1.222 -0.8038 -0.7538 -0.0796
 7098TIP3   OH242928   0.637   6.276   0.292 -0.4879  0.0475 -0.0672
 7098TIP3    H142929   0.612   6.270   0.200 -0.5580  1.1975 -0.1323
 7098TIP3    H242930   0.679   6.361   0.301 -0.5388 -0.0197  0.9824
 7099TIP3   OH242931   6.310   0.249   1.989  0.3675  0.0455  0.3519
 7099TIP3    H142932   6.226   0.262   2.033  0.0986 -0.3263 -0.0376
 7099TIP3    H242933   6.303   0.300   1.909  0.5730  0.1314  0.3887
 7100TIP3   OH242934   1.683   5.248   6.414  0.3407 -0.0005 -0.0418
 7100TIP3    H142935   1.754   5.309   6.394  0.8798  0.0835  1.8986
 7100TIP3    H242936   1.725   5.162   6.412  0.6533  0.0874  1.5873
 7101TIP3   OH242937   6.300   5.828   1.882 -0.1322 -1.2130 -0.0165
 7101TIP3    H142938   6.229   5.884   1.913  0.4919 -0.6664  0.4495
 7101TIP3    H242939   6.337   5.874   1.806  0.2328 -1.1000  0.2256
 7102TIP3   OH242940   2.551   2.122   0.681  0.2254 -0.1866 -0.2509
 7102TIP3    H142941   2.630   2.170   0.655 -0.4997  0.6049 -1.0847
 7102TIP3    H242942   2.577   2.030   0.682  0.7199 -0.1090 -2.3282
 7103TIP3   OH242943   1.468   5.426   8.447  0.4518  0.3695  0.5877
 7103TIP3    H142944   1.521   5.410   8.525  0.9617 -3.7502 -0.3517
 7103TIP3    H242945   1.514   5.379   8.377 -2.2918  0.0987 -1.1980
 7104TIP3   OH242946   2.677   5.933   7.548  0.1092 -0.9354  0.7348
 7104TIP3    H142947   2.692   5.842   7.574 -2.3000 -1.2155  1.4381
 7104TIP3    H242948   2.631   5.972   7.623  1.2563  0.9377  0.5201
 7105TIP3   OH242949   0.676   1.585   0.151 -0.4845 -0.0109 -0.4126
 7105TIP3    H142950   0.614   1.538   0.097  0.7653 -0.1332 -1.8197
 7105TIP3    H242951   0.758   1.537   0.142  0.4110  1.4518 -0.5409
 7106TIP3   OH242952   6.194   3.302   0.101 -0.4478  0.4993 -0.1927
 7106TIP3    H142953   6.281   3.329   0.130 -0.2050  0.9018 -1.2535
 7106TIP3    H242954   6.151   3.383   0.075  0.3088 -0.0028 -3.4957
 7107TIP3   OH242955   0.815   1.705   0.803 -0.4343  0.3654  0.0206
 7107TIP3    H142956   0.796   1.665   0.887  0.5156  0.0958  0.1106
 7107TIP3    H242957   0.908   1.691   0.789 -0.9531 -1.6689 -2.1331
 7108TIP3   OH242958   6.196   6.352   8.471  0.1003  0.7225 -0.1289
 7108TIP3    H142959   6.273   6.402   8.446  0.1384  0.6159 -0.2265
 7108TIP3    H242960   6.131   6.418   8.494 -0.0564  0.8389 -0.8713
 7109TIP3   OH242961   5.583   1.242   1.939  0.2228  0.5843  0.1125
 7109TIP3    H142962   5.638   1.167   1.916 -1.8565 -0.2575 -2.6620
 7109TIP3    H242963   5.545   1.219   2.023  1.1614 -0.5513  0.2538
 7110TIP3   OH242964   1.198   3.919   7.405  0.8765 -0.3613  0.1688
 7110TIP3    H142965   1.138   3.921   7.331 -1.3732 -3.9866  1.6234
 7110TIP3    H242966   1.285   3.925   7.365 -0.2785  0.7229 -2.4304
 7111TIP3   OH242967   1.356   5.765   1.865  0.4522  0.3286  0.7811
 7111TIP3    H142968   1.379   5.689   1.811  1.3266  0.6022  0.7598
 7111TIP3    H242969   1.346   5.730   1.953 -0.2141  0.0133  0.5925
 7112TIP3   OH242970   1.011   3.716   1.576 -0.9881 -0.2891  0.0702
 7112TIP3    H142971   0.924   3.709   1.615 -0.4201  0.4304  1.5457
 7112TIP3    H242972   1.022   3.809   1.558 -0.6282 -0.4142 -0.3657
 7113TIP3   OH242973   1.823   1.728   1.980  0.0412  0.4711 -0.1847
 7113TIP3    H142974   1.834   1.689   2.067  0.0634 -1.0781 -0.8371
 7113TIP3    H242975   1.807   1.653   1.922 -0.5628  1.5136 -1.4264
 7114TIP3   OH242976   4.054   4.587   0.334 -0.2146  0.1321  0.0397
 7114TIP3    H142977   4.135   4.632   0.310 -0.4884  0.9558  0.6006
 7114TIP3    H242978   4.010   4.569   0.251  0.0811  0.5817 -0.2169
 7115TIP3   OH242979   3.760   4.401   1.374  0.1144 -0.2162 -0.6248
 7115TIP3    H142980   3.817   4.450   1.314  0.0260  1.0773  0.2920
 7115TIP3    H242981   3.759   4.312   1.339  0.3306  0.4108 -2.3376
 7116TIP3   OH242982   4.426   0.755   1.712  0.2731  0.4664  0.3148
 7116TIP3    H142983   4.408   0.708   1.630 -0.7616  0.0507  0.7548
 7116TIP3    H242984   4.464   0.838   1.684  3.1026 -0.9480 -0.4681
 7117TIP3   OH242985   0.161   5.161   0.870  0.1245  0.0604  0.1159
 7117TIP3    H142986   0.248   5.194   0.844 -0.0952 -1.1174 -2.4184
 7117TIP3    H242987   0.102   5.198   0.804 -0.7962 -1.6717 -0.0594
 7118TIP3   OH242988   2.781   3.722   6.222 -0.0536 -0.0844 -0.1457
 7118TIP3    H142989   2.686   3.731   6.225 -0.0493 -0.2059  1.7754
 7118TIP3    H242990   2.804   3.732   6.129 -2.0158 -1.0536 -0.7711
 7119TIP3   OH242991   2.476   2.779   2.397  0.1121 -0.1584 -0.0581
 7119TIP3    H142992   2.387   2.761   2.426 -0.1522  1.1184 -0.0255
 7119TIP3    H242993   2.515   2.693   2.382 -1.2414 -0.7269 -0.4188
 7120TIP3   OH242994   3.398   2.988   7.814 -0.1629 -0.3285 -0.3610
 7120TIP3    H142995   3.455   2.962   7.742  0.3960 -1.3311  0.4127
 7120TIP3    H242996   3.331   3.042   7.773  1.9168  1.8420 -1.1645
 7121TIP3   OH242997   6.196   4.288   1.238 -0.9965  0.4359 -0.6869
 7121TIP3    H142998   6.181   4.343   1.161  0.0124 -1.4361 -2.3195
 7121TIP3    H242999   6.166   4.201   1.211 -0.2272 -0.3540  0.8805
 7122TIP3   OH243000   4.228   1.128   0.084  0.3273 -0.2801 -0.1587
 7122TIP3    H143001   4.144   1.164   0.057 -0.1625 -1.0255  0.3207
 7122TIP3    H243002   4.209   1.036   0.103  0.9881 -0.1683  1.1405
 7123TIP3   OH243003   0.204   2.251   7.981 -0.4978  0.4942  0.7604
 7123TIP3    H143004   0.271   2.202   7.934  1.9386  3.0487  1.3171
 7123TIP3    H243005   0.176   2.320   7.920 -0.9949  0.7882  1.2982
 7124TIP3   OH243006   0.569   4.288   2.543 -0.0943  0.4647 -0.3181
 7124TIP3    H143007   0.486   4.241   2.533  0.0383  0.2329 -0.3275
 7124TIP3    H243008   0.546   4.380   2.530 -0.5135  0.5020  0.6274
 7125TIP3   OH243009   0.779   1.201   7.627  0.2556 -0.2651  0.1280
 7125TIP3    H143010   0.687   1.176   7.632  0.3645 -0.6064  0.5117
 7125TIP3    H243011   0.802   1.228   7.716  0.6805 -0.7567  0.1778
 7126TIP3   OH243012   4.221   3.944   2.014 -0.2958 -0.1309 -0.0306
 7126TIP3    H143013   4.258   3.869   2.060 -0.1688 -0.8482 -1.2705
 7126TIP3    H243014   4.296   3.998   1.990 -0.1678 -0.7524 -1.0924
 7127TIP3   OH243015   1.199   2.778   8.019  0.2882  0.3619 -0.5666
 7127TIP3    H143016   1.197   2.700   7.964 -1.1577  0.6971 -1.0296
 7127TIP3    H243017   1.216   2.850   7.958 -1.0657  0.7042 -0.5716
 7128TIP3   OH243018   4.516   4.930   8.399  0.2115  0.1717 -0.2604
 7128TIP3    H143019   4.511   4.849   8.349  1.9797  0.6582 -1.3114
 7128TIP3    H243020   4.595   4.974   8.366 -0.9100  2.5092  0.0010
 7129TIP3   OH243021   6.157   4.835   2.614 -0.3706 -0.2188  0.2266
 7129TIP3    H143022   6.099   4.904   2.581  0.1232  1.2791  2.2771
 7129TIP3    H243023   6.128   4.820   2.704  1.8100 -0.0525  1.0219
 7130TIP3   OH243024   0.788   0.937   7.902 -0.1264 -0.4974  0.4567
 7130TIP3    H143025   0.858   0.970   7.846  0.1339 -1.4803  0.1883
 7130TIP3    H243026   0.833   0.899   7.978 -0.2960 -1.7972 -0.0617
 7131TIP3   OH243027   0.214   6.147   6.537  0.0420 -0.0701  0.2081
 7131TIP3    H143028   0.186   6.074   6.593 -0.4544  0.1761  0.2882
 7131TIP3    H243029   0.197   6.117   6.448  1.3586 -0.6842  0.1462
 7132TIP3   OH243030   5.773   3.361   7.395  0.1344 -0.5155 -0.1986
 7132TIP3    H143031   5.724   3.343   7.475  1.0402 -0.6660  0.3449
 7132TIP3    H243032   5.707   3.385   7.330 -0.5942 -0.1975  0.6498
 7133TIP3   OH243033   4.823   0.600   0.773  0.5664 -0.3453 -0.1027
 7133TIP3    H143034   4.769   0.666   0.730  0.7489 -0.6994 -0.8797
 7133TIP3    H243035   4.909   0.610   0.733  1.5612  1.2523  2.1634
 7134TIP3   OH243036   3.280   4.263   7.324 -0.3298 -0.5065  0.0350
 7134TIP3    H143037   3.328   4.346   7.321  3.1105 -2.2849  0.2698
 7134TIP3    H243038   3.245   4.260   7.413 -1.8484  1.2741 -0.4323
 7135TIP3   OH243039   0.959   5.515   8.076 -0.2819  0.4057  0.6035
 7135TIP3    H143040   0.947   5.584   8.011  1.0494  1.6341  1.5978
 7135TIP3    H243041   1.048   5.528   8.109  0.5591 -2.6801 -0.1572
 7136TIP3   OH243042   6.024   6.127   7.832  0.0326  0.1841 -0.0682
 7136TIP3    H143043   6.002   6.097   7.744 -1.2114  1.4001 -0.2159
 7136TIP3    H243044   6.032   6.047   7.884 -0.5145 -0.5017 -1.0066
 7137TIP3   OH243045   2.885   6.679   8.182 -0.4650  0.0042  0.1056
 7137TIP3    H143046   2.865   6.771   8.201 -2.2809 -0.0417 -1.2809
 7137TIP3    H243047   2.799   6.637   8.174  0.3054 -2.2540  2.4228
 7138TIP3   OH243048   4.091   6.566   6.855  0.0558  0.1529 -0.0990
 7138TIP3    H143049   4.093   6.480   6.897 -0.5328 -0.0728 -0.5241
 7138TIP3    H243050   4.030   6.617   6.909  0.1912  0.2193 -0.0085
 7139TIP3   OH243051   4.225   6.728   0.130 -0.3698 -0.5680  0.0095
 7139TIP3    H143052   4.183   6.730   0.216 -1.2749  1.0650 -0.4211
 7139TIP3    H243053   4.153   6.718   0.068  0.2327 -1.3435 -0.5876
 7140TIP3   OH243054   3.674   2.168   8.493  0.0911  0.2294  0.4507
 7140TIP3    H143055   3.710   2.237   8.437 -0.0250 -0.3621 -0.3719
 7140TIP3    H243056   3.606   2.212   8.544  1.9263  1.3646  2.0333
 7141TIP3   OH243057   3.658   0.402   7.169 -0.4031  0.2622 -0.7362
 7141TIP3    H143058   3.697   0.486   7.146  0.0037  0.2312 -0.1765
 7141TIP3    H243059   3.711   0.369   7.242 -0.2973 -0.6701 -1.2160
 7142TIP3   OH243060   6.212   4.202   8.217  0.1297  0.0024 -1.0144
 7142TIP3    H143061   6.237   4.289   8.246  0.2356 -0.8191  1.6747
 7142TIP3    H243062   6.130   4.183   8.264 -1.1491 -0.5210 -3.2915
 7143TIP3   OH243063   0.426   6.546   7.620  0.1122 -0.7662 -0.1044
 7143TIP3    H143064   0.478   6.468   7.606 -0.4328 -1.6512  2.3543
 7143TIP3    H243065   0.338   6.522   7.591  0.5844  0.1130 -2.4897
 7144TIP3   OH243066   6.005   6.343   0.516  0.1154  0.0105  1.2348
 7144TIP3    H143067   5.987   6.275   0.581 -1.3254  0.8364  1.7380
 7144TIP3    H243068   6.100   6.339   0.503  0.1591 -1.5666  1.8228
 7145TIP3   OH243069   1.638   3.711   7.110 -0.0657 -0.3768  0.1806
 7145TIP3    H143070   1.640   3.752   7.197  1.5285 -2.3346  1.1518
 7145TIP3    H243071   1.634   3.785   7.049 -1.8148  1.0421  1.8957
 7146TIP3   OH243072   1.999   2.423   0.540  0.4481  0.0648  0.0133
 7146TIP3    H143073   2.056   2.370   0.483  0.2054 -1.0704  0.7971
 7146TIP3    H243074   2.049   2.434   0.621 -0.7478 -1.7018  1.0516
 7147TIP3   OH243075   5.006   6.922   8.149 -0.0897  0.6232 -0.4505
 7147TIP3    H143076   5.038   6.865   8.079  0.0145  1.6802 -1.2961
 7147TIP3    H243077   4.920   6.886   8.173 -0.5231  0.7429 -1.7506
 7148TIP3   OH243078   1.689   5.774   6.980  0.7176  0.9331  0.0086
 7148TIP3    H143079   1.648   5.736   6.903 -1.3867  1.9616  0.5496
 7148TIP3    H243080   1.781   5.786   6.954  0.0331  1.5146 -2.4444
 7149TIP3   OH243081   1.136   3.458   1.864  0.4409 -0.0330 -0.0094
 7149TIP3    H143082   1.145   3.411   1.781  0.5856 -0.1980  0.0987
 7149TIP3    H243083   1.220   3.444   1.908  0.2954 -0.1004  0.2453
 7150TIP3   OH243084   6.818   2.716   8.363  0.0810 -0.3042  0.2335
 7150TIP3    H143085   6.792   2.745   8.450 -0.1104 -0.8622  0.3656
 7150TIP3    H243086   6.752   2.652   8.338  0.9393 -1.2374  0.2902
 7151TIP3   OH243087   5.218   4.760   7.965  0.7166  0.5368  0.2904
 7151TIP3    H143088   5.182   4.699   8.029 -0.7039 -0.5749 -1.4837
 7151TIP3    H243089   5.274   4.818   8.016  0.5926 -1.0433  2.3382
 7152TIP3   OH243090   6.931   1.915   7.621 -0.5889 -0.3693 -0.4259
 7152TIP3    H143091   6.876   1.994   7.620 -0.6976 -0.4483 -0.9018
 7152TIP3    H243092   6.869   1.842   7.625 -0.4794 -0.4316  0.9007
 7153TIP3   OH243093   3.786   6.381   7.411  0.2805  0.7764  0.2692
 7153TIP3    H143094   3.824   6.437   7.343  0.4641  1.6958  1.1248
 7153TIP3    H243095   3.859   6.363   7.471 -0.0906  0.6940  0.6985
 7154TIP3   OH243096   4.134   2.482   8.083 -0.3164 -0.1482  0.9069
 7154TIP3    H143097   4.065   2.416   8.093  0.0018 -0.3268  2.0367
 7154TIP3    H243098   4.143   2.493   7.988 -3.3870  1.4526  0.6629
 7155TIP3   OH243099   4.784   0.783   1.583  0.3029 -0.9358 -0.0912
 7155TIP3    H143100   4.786   0.688   1.581  1.1182 -0.9159 -1.0897
 7155TIP3    H243101   4.809   0.810   1.495 -2.6331  0.2086 -0.6903
 7156TIP3   OH243102   2.740   1.909   1.578  0.5636 -0.8636  0.9612
 7156TIP3    H143103   2.699   1.872   1.657  0.7114 -2.5006  0.3112
 7156TIP3    H243104   2.692   1.990   1.562 -1.4482 -1.9745  1.0578
 7157TIP3   OH243105   6.664   3.686   0.617  0.3316 -0.2193  0.2189
 7157TIP3    H143106   6.691   3.756   0.558  0.1192 -0.5368 -0.2576
 7157TIP3    H243107   6.569   3.680   0.607  0.2754 -0.1833  0.6932
 7158TIP3   OH243108   5.299   4.921   2.324 -1.0541  0.0250 -0.2306
 7158TIP3    H143109   5.369   4.931   2.388 -0.0906  0.0717 -1.2496
 7158TIP3    H243110   5.284   5.010   2.291 -3.2190  0.4145  1.5815
 7159TIP3   OH243111   5.884   1.505   1.178  0.1338 -0.4527  0.1425
 7159TIP3    H143112   5.950   1.460   1.231  2.2163  1.6406 -0.5332
 7159TIP3    H243113   5.869   1.588   1.223  0.8404  0.7335 -1.7132
 7160TIP3   OH243114   1.645   6.377   0.309 -0.6133  0.1801 -0.5625
 7160TIP3    H143115   1.602   6.462   0.310 -0.3881  0.2985  0.5229
 7160TIP3    H243116   1.687   6.371   0.394  0.2927 -0.5579 -1.0490
 7161TIP3   OH243117   6.777   4.270   7.560 -0.0503  0.2233 -0.0917
 7161TIP3    H143118   6.836   4.231   7.495  0.2087  0.3734  0.0508
 7161TIP3    H243119   6.705   4.306   7.508  0.4809  0.9306 -0.3577
 7162TIP3   OH243120   6.118   2.460   0.910 -0.1321 -0.3012  0.0096
 7162TIP3    H143121   6.157   2.514   0.841 -0.0097 -0.3400  0.0490
 7162TIP3    H243122   6.098   2.377   0.866 -0.0360 -0.3331  0.0247
 7163TIP3   OH243123   1.050   6.319   1.251 -0.4283 -0.3006  0.1411
 7163TIP3    H143124   0.984   6.332   1.183 -1.2105  0.5762  1.0485
 7163TIP3    H243125   1.001   6.300   1.330  0.4262 -0.2672  0.6946
 7164TIP3   OH243126   6.227   2.776   1.468 -0.1830  0.3184  0.1973
 7164TIP3    H143127   6.155   2.815   1.420 -0.7387  1.5539  1.9251
 7164TIP3    H243128   6.267   2.849   1.515  2.2833 -0.3154 -0.7525
 7165TIP3   OH243129   0.092   0.844   6.467  0.1956 -0.2677  0.2100
 7165TIP3    H143130   0.185   0.822   6.479  0.1741  0.1917  1.4022
 7165TIP3    H243131   0.053   0.828   6.553 -1.2553 -2.3587 -0.7631
 7166TIP3   OH243132   5.865   1.741   7.341  0.4236  0.4829 -0.7354
 7166TIP3    H143133   5.879   1.768   7.250 -1.6572  1.8998 -0.6824
 7166TIP3    H243134   5.774   1.762   7.359  0.3562 -1.1865  1.2327
 7167TIP3   OH243135   4.514   3.343   7.266 -0.1307  0.1385 -0.0267
 7167TIP3    H143136   4.549   3.301   7.187 -0.1278 -0.1353  0.1203
 7167TIP3    H243137   4.423   3.364   7.244 -0.9248 -2.2158  0.7569
 7168TIP3   OH243138   6.139   6.590   6.509  0.0870 -0.2605 -0.3368
 7168TIP3    H143139   6.098   6.611   6.425  0.6299  0.0941 -0.5209
 7168TIP3    H243140   6.138   6.673   6.557  0.7854 -0.1852 -0.4342
 7169TIP3   OH243141   3.921   4.762   2.468  0.1595  0.1499 -0.1327
 7169TIP3    H143142   4.000   4.781   2.518 -0.8953 -0.6236  1.9539
 7169TIP3    H243143   3.948   4.765   2.376  1.6040  4.5978  0.2166
 7170TIP3   OH243144   1.315   1.500   0.183  0.0697 -0.7402 -0.0409
 7170TIP3    H143145   1.404   1.486   0.217  0.1966  0.0275 -0.0341
 7170TIP3    H243146   1.299   1.425   0.126 -0.4930 -2.5787  2.3649
 7171TIP3   OH243147   2.379   4.649   0.086  0.4733 -0.0438  0.0387
 7171TIP3    H143148   2.441   4.720   0.068 -0.5652  0.6188 -1.1184
 7171TIP3    H243149   2.330   4.678   0.162  0.0452  0.5097 -0.4367
 7172TIP3   OH243150   3.552   2.106   1.973 -0.0743  0.3872 -0.1063
 7172TIP3    H143151   3.509   2.052   1.907 -0.7030  0.5069  0.2019
 7172TIP3    H243152   3.530   2.065   2.057  0.6239  0.3031  0.0442
 7173TIP3   OH243153   2.064   1.638   7.745 -0.3245 -0.1311  0.2869
 7173TIP3    H143154   2.111   1.586   7.680  0.5203  0.2039  0.6172
 7173TIP3    H243155   2.070   1.587   7.826  2.1859  1.2840  1.1110
 7174TIP3   OH243156   0.725   5.339   6.354  0.1970  0.2159 -0.5182
 7174TIP3    H143157   0.820   5.352   6.359 -0.0308  2.2983 -0.6999
 7174TIP3    H243158   0.689   5.428   6.348 -1.5546 -0.5675 -4.0583
 7175TIP3   OH243159   1.545   5.321   6.649  0.0970  0.5426  0.1253
 7175TIP3    H143160   1.584   5.300   6.565 -0.5808  1.6742 -0.4984
 7175TIP3    H243161   1.470   5.377   6.628 -1.2082 -0.6621  1.3701
 7176TIP3   OH243162   2.499   6.701   1.427 -0.0146 -0.1868  0.7797
 7176TIP3    H143163   2.565   6.632   1.431  1.4560  1.1747  1.0865
 7176TIP3    H243164   2.520   6.749   1.347 -0.5990  0.2874  0.9044
 7177LIG     O143165   4.422   3.766   6.031  0.0463  0.3684  0.5986
 7177LIG     O243166   4.445   4.219   6.071 -0.4440  0.0683 -0.1154
 7177LIG     N143167   4.636   4.110   6.009 -0.3606  0.8302 -0.8776
 7177LIG     N243168   4.695   3.768   5.899 -0.3849  0.0857  0.3529
 7177LIG     N343169   4.445   3.988   6.074  0.2739 -0.1196 -0.0708
 7177LIG     N443170   4.804   3.971   5.900 -1.0632 -0.5974  0.2129
 7177LIG     C143171   4.610   3.864   5.959  0.0410 -0.2438 -0.0272
 7177LIG     C243172   4.682   3.982   5.964  0.3710 -0.1019  0.2126
 7177LIG     C343173   4.487   3.866   6.019 -0.4002 -0.1464 -0.1450
 7177LIG     C443174   4.507   4.114   6.055  0.1643 -0.2937  0.5547
 7177LIG     C543175   4.806   3.846   5.860 -0.6034  0.3015 -0.1905
 7177LIG     C643176   4.711   4.234   5.986  0.8052  0.2447 -0.5057
 7177LIG     C743177   4.667   3.628   5.870  0.3711 -0.2907 -0.4832
 7177LIG     C843178   4.310   3.985   6.136 -0.6859 -0.0014 -0.8005
 7177LIG     H143179   4.894   3.797   5.820 -1.5803 -0.9880 -0.8376
 7177LIG     H243180   4.697   4.256   5.879 -1.4624  2.1353  0.1104
 7177LIG     H343181   4.822   4.224   5.991  0.6513 -1.1030  2.4244
 7177LIG     H443182   4.683   4.317   6.055  1.8078  0.9197 -0.8969
 7177LIG     H543183   4.732   3.569   5.938 -0.1425  1.1131  1.3268
 7177LIG     H643184   4.683   3.597   5.765 -0.0348  0.0603 -0.6522
 7177LIG     H743185   4.561   3.603   5.893  0.1750  0.3260 -0.6911
 7177LIG     H843186   4.285   3.886   6.180 -0.7358 -0.4281 -1.7579
 7177LIG     H943187   4.236   4.017   6.060 -0.8257  2.2442  0.1914
 7177LIG    H1043188   4.309   4.066   6.212 -1.2002 -1.6307  0.9980
   6.95341   6.95341   8.58709
