Title
43188
    1CHL1    C3    1   2.729   1.337   5.559 -1.0457  0.7092  0.0120
    1CHL1    H3    2   2.802   1.253   5.559  0.2251  1.7632  0.6235
    1CHL1    O3    3   2.746   1.412   5.680  0.1063 -0.7223  0.1856
    1CHL1   H3'    4   2.680   1.482   5.684 -1.2331 -1.9096 -0.4669
    1CHL1    C4    5   2.749   1.434   5.438  0.6361  0.2607  0.7483
    1CHL1   H4A    6   2.680   1.519   5.454  2.0518  1.6788 -0.3194
    1CHL1   H4B    7   2.854   1.472   5.438  0.3181  1.2600 -1.1241
    1CHL1    C5    8   2.728   1.365   5.298 -0.4432  0.7314 -0.3269
    1CHL1    C6    9   2.819   1.355   5.203  0.0073  0.1890  0.1847
    1CHL1    H6   10   2.918   1.398   5.223 -0.3062  0.2302  1.8123
    1CHL1    C7   11   2.794   1.284   5.070 -0.0415  1.0580 -0.6368
    1CHL1   H7A   12   2.829   1.351   4.989 -1.4253  0.8275 -1.4435
    1CHL1   H7B   13   2.843   1.184   5.066 -3.2605 -0.6201 -2.7521
    1CHL1    C8   14   2.643   1.252   5.047 -0.2697 -0.1444 -0.0566
    1CHL1    H8   15   2.610   1.355   5.020 -0.5320 -0.6228 -1.6564
    1CHL1   C14   16   2.617   1.154   4.932 -0.9809 -0.4374  0.4783
    1CHL1   H14   17   2.641   1.051   4.967  0.2502 -0.6659 -0.9008
    1CHL1   C15   18   2.693   1.173   4.799  0.4701  0.3115 -0.3065
    1CHL1  H15A   19   2.694   1.280   4.771 -0.1920  0.2793 -0.4825
    1CHL1  H15B   20   2.800   1.145   4.788  1.1356  1.7368  1.9126
    1CHL1   C16   21   2.610   1.095   4.696 -0.6527 -0.4710 -0.4683
    1CHL1  H16A   22   2.608   1.134   4.593  0.6326 -2.8158 -1.4714
    1CHL1  H16B   23   2.665   0.999   4.681 -0.8994 -0.5398 -0.9427
    1CHL1   C17   24   2.472   1.064   4.756 -0.2667 -0.3487  0.2108
    1CHL1   H17   25   2.463   0.957   4.785  0.0335 -1.2842 -2.8205
    1CHL1   C13   26   2.468   1.153   4.884 -0.1968 -0.5087 -0.4021
    1CHL1   C18   27   2.416   1.293   4.847 -0.5585  0.7923  0.3335
    1CHL1  H18A   28   2.432   1.354   4.938 -0.1223  0.6946  0.3272
    1CHL1  H18B   29   2.470   1.329   4.756 -2.4232 -0.9055 -1.5481
    1CHL1  H18C   30   2.306   1.289   4.834 -0.6149  0.7881  0.7835
    1CHL1   C12   31   2.400   1.095   5.008 -0.1832 -0.4798 -0.3022
    1CHL1  H12A   32   2.293   1.102   4.977 -0.4191 -3.0791 -0.2686
    1CHL1  H12B   33   2.436   0.994   5.036 -1.6331 -0.7569  0.7220
    1CHL1   C11   34   2.419   1.173   5.142  0.4591  0.1998 -0.0555
    1CHL1  H11A   35   2.346   1.257   5.135  0.1278 -0.2352 -2.4437
    1CHL1  H11B   36   2.392   1.107   5.227  0.8527 -0.0609 -0.1325
    1CHL1    C9   37   2.566   1.202   5.172 -0.1408 -0.2834 -1.0328
    1CHL1    H9   38   2.610   1.105   5.204 -1.1946  0.0927  1.8054
    1CHL1   C10   39   2.586   1.296   5.298  0.2068 -0.3742  0.0910
    1CHL1   C19   40   2.483   1.419   5.304 -0.0555 -0.2951  0.5755
    1CHL1  H19A   41   2.490   1.478   5.210  0.8743 -1.2650  0.0035
    1CHL1  H19B   42   2.380   1.380   5.318 -0.3745  0.2273 -0.2186
    1CHL1  H19C   43   2.505   1.491   5.385 -1.6619 -0.8689  1.5715
    1CHL1    C1   44   2.567   1.203   5.426 -0.7588  0.2600 -0.1283
    1CHL1   H1A   45   2.466   1.159   5.438 -1.0851  0.4383 -1.8826
    1CHL1   H1B   46   2.642   1.122   5.416 -0.5615  0.5303 -0.9735
    1CHL1    C2   47   2.593   1.276   5.564 -0.5375 -0.2046 -0.2845
    1CHL1   H2A   48   2.581   1.214   5.656 -1.7860  1.0336  0.4152
    1CHL1   H2B   49   2.515   1.354   5.570  0.0733  0.5235 -1.5822
    1CHL1   C20   50   2.354   1.081   4.659  0.8753  0.2135 -0.3966
    1CHL1   H20   51   2.351   1.186   4.622 -0.0295  0.1838 -0.4493
    1CHL1   C21   52   2.215   1.048   4.726 -0.8023  0.7737 -0.7222
    1CHL1  H21A   53   2.207   0.943   4.763  1.0202  0.0342 -2.2589
    1CHL1  H21B   54   2.144   1.069   4.643 -0.1102  1.9110 -1.0483
    1CHL1  H21C   55   2.187   1.127   4.799 -1.0950 -0.8558  1.0085
    1CHL1   C22   56   2.385   0.996   4.533  1.1924  0.0041  0.1493
    1CHL1  H22A   57   2.483   1.015   4.484  0.4989 -0.3998 -1.4362
    1CHL1  H22B   58   2.383   0.890   4.566 -0.2279  0.4974  1.8599
    1CHL1   C23   59   2.286   1.018   4.425 -0.6537  0.1066  0.4074
    1CHL1  H23A   60   2.189   0.970   4.450 -0.9200  1.2041  1.6084
    1CHL1  H23B   61   2.272   1.126   4.402  1.0540  0.7701  2.1712
    1CHL1   C24   62   2.335   0.946   4.294  0.7789  0.5339  0.0776
    1CHL1  H24A   63   2.413   1.009   4.246 -0.0668  0.5952 -1.2802
    1CHL1  H24B   64   2.368   0.840   4.297 -1.7159 -0.5216 -3.2376
    1CHL1   C25   65   2.219   0.933   4.187 -0.1442  0.3636 -0.1678
    1CHL1   H25   66   2.268   0.895   4.095 -0.3350 -1.0191  0.2882
    1CHL1   C26   67   2.109   0.829   4.220  0.1937 -1.0124 -0.7039
    1CHL1  H26A   68   2.032   0.827   4.141  0.5898  2.2379 -1.3139
    1CHL1  H26B   69   2.157   0.729   4.229  1.6297 -0.4908 -2.0475
    1CHL1  H26C   70   2.050   0.864   4.307 -0.2097  2.3168 -2.1468
    1CHL1   C27   71   2.152   1.066   4.151 -0.4926  0.0563  0.1924
    1CHL1  H27A   72   2.083   1.099   4.232 -0.3746 -0.9821  0.7416
    1CHL1  H27B   73   2.223   1.150   4.137  1.2903 -1.5145 -0.5800
    1CHL1  H27C   74   2.093   1.057   4.057 -1.2474  2.6559  0.3610
    2CHL1    C3   75   3.126   1.872   6.218  0.0159 -0.6163 -0.4243
    2CHL1    H3   76   3.096   1.962   6.160 -0.8813  0.0457  1.0080
    2CHL1    O3   77   3.103   1.886   6.357 -0.3329  0.0630  0.0210
    2CHL1   H3'   78   3.137   1.805   6.395 -1.4993 -1.8521 -2.6745
    2CHL1    C4   79   3.058   1.744   6.159 -0.0108 -0.1404 -0.0116
    2CHL1   H4A   80   3.084   1.651   6.214  1.1416 -0.1972 -0.6067
    2CHL1   H4B   81   2.951   1.771   6.169  0.9110  3.2906  2.4457
    2CHL1    C5   82   3.098   1.715   6.014  0.6552 -0.9389 -0.1707
    2CHL1    C6   83   3.011   1.706   5.917  0.0454  0.5646  0.3170
    2CHL1    H6   84   2.902   1.692   5.927  0.0069 -0.7898 -1.5457
    2CHL1    C7   85   3.044   1.683   5.772  0.3193 -0.4189  0.9545
    2CHL1   H7A   86   2.984   1.599   5.731  0.1592  1.3115 -2.6867
    2CHL1   H7B   87   3.034   1.778   5.715  0.2885  0.4376  2.3211
    2CHL1    C8   88   3.191   1.639   5.754 -0.0083 -0.1591 -0.2986
    2CHL1    H8   89   3.201   1.539   5.802  0.9632  0.2826  0.4385
    2CHL1   C14   90   3.235   1.638   5.608 -0.9673  0.6081  0.0674
    2CHL1   H14   91   3.231   1.744   5.574 -4.9463  0.3256 -0.7499
    2CHL1   C15   92   3.153   1.548   5.513 -0.3182 -0.4839  0.1639
    2CHL1  H15A   93   3.122   1.449   5.552 -1.3756 -0.4071 -0.4412
    2CHL1  H15B   94   3.055   1.593   5.487  0.1557  0.8999  0.6516
    2CHL1   C16   95   3.242   1.538   5.391 -0.0363 -0.2971 -0.4801
    2CHL1  H16A   96   3.250   1.429   5.371  1.0758 -0.7964  2.2977
    2CHL1  H16B   97   3.199   1.589   5.302  0.0437 -0.8407 -0.8396
    2CHL1   C17   98   3.384   1.572   5.431  0.2347 -0.4022  0.8050
    2CHL1   H17   99   3.389   1.678   5.401 -0.2565 -0.4784  0.4432
    2CHL1   C13  100   3.379   1.585   5.584  0.2083  0.1336 -1.1406
    2CHL1   C18  101   3.400   1.442   5.635  0.0965  0.1324 -0.3166
    2CHL1  H18A  102   3.404   1.435   5.746  0.5482  0.5423 -0.3016
    2CHL1  H18B  103   3.323   1.376   5.591  0.4326 -1.3443  1.1998
    2CHL1  H18C  104   3.499   1.397   5.610 -1.1758 -3.0269 -0.0546
    2CHL1   C12  105   3.466   1.698   5.643 -0.3520 -0.3443  0.3081
    2CHL1  H12A  106   3.575   1.680   5.629  0.9837  5.2351  1.4062
    2CHL1  H12B  107   3.465   1.794   5.588  1.4293 -2.1594 -3.2249
    2CHL1   C11  108   3.445   1.712   5.796  0.5491 -0.8272  0.1869
    2CHL1  H11A  109   3.472   1.617   5.847  0.4917 -1.3079 -0.6617
    2CHL1  H11B  110   3.506   1.794   5.838  1.5879 -1.8707  0.7762
    2CHL1    C9  111   3.286   1.728   5.836  0.4564 -0.1619 -0.4344
    2CHL1    H9  112   3.266   1.831   5.801 -1.6687  0.1408  1.4344
    2CHL1   C10  113   3.245   1.728   5.981  0.1200 -0.9793  0.5685
    2CHL1   C19  114   3.309   1.604   6.049 -0.3450  0.9091  0.0353
    2CHL1  H19A  115   3.418   1.625   6.054 -0.4371  1.0154  3.1502
    2CHL1  H19B  116   3.291   1.589   6.157  1.0967 -2.5874 -0.0620
    2CHL1  H19C  117   3.282   1.508   6.001  1.3077 -0.2165  1.2474
    2CHL1    C1  118   3.309   1.859   6.043  1.0228  0.1442  0.4367
    2CHL1   H1A  119   3.418   1.857   6.022  1.2311  3.0828  0.7355
    2CHL1   H1B  120   3.253   1.938   5.989  1.0975 -0.0053  0.1437
    2CHL1    C2  121   3.273   1.873   6.188  0.5602 -0.5759 -0.0018
    2CHL1   H2A  122   3.321   1.964   6.227 -1.9515  1.3026 -0.9942
    2CHL1   H2B  123   3.319   1.793   6.250  1.3773  1.5225  2.2060
    2CHL1   C20  124   3.504   1.500   5.356  0.4513  0.4581  0.3518
    2CHL1   H20  125   3.482   1.395   5.383  2.1648 -0.0402 -0.0988
    2CHL1   C21  126   3.640   1.541   5.408 -0.2006 -0.4434 -0.1969
    2CHL1  H21A  127   3.658   1.646   5.378  0.1922 -0.6146 -0.5662
    2CHL1  H21B  128   3.724   1.484   5.364  1.0527  0.9242  0.3690
    2CHL1  H21C  129   3.660   1.541   5.517  1.1012  1.1186 -0.4092
    2CHL1   C22  130   3.491   1.511   5.203 -0.6234 -0.2536  0.0060
    2CHL1  H22A  131   3.408   1.445   5.171 -2.0784 -0.2911  3.4145
    2CHL1  H22B  132   3.470   1.619   5.184  1.1670  0.1871  0.3021
    2CHL1   C23  133   3.625   1.484   5.130  0.1391 -0.3145  0.6256
    2CHL1  H23A  134   3.688   1.575   5.131 -1.6835  1.0601 -1.0600
    2CHL1  H23B  135   3.693   1.404   5.166  0.9555 -0.0642 -0.3239
    2CHL1   C24  136   3.588   1.451   4.983 -0.6252  0.0156 -0.4221
    2CHL1  H24A  137   3.524   1.361   4.977 -0.9822  0.3548 -2.9581
    2CHL1  H24B  138   3.538   1.539   4.937  0.3588  0.2699 -1.0388
    2CHL1   C25  139   3.713   1.417   4.892 -0.8320  0.1507 -0.6313
    2CHL1   H25  140   3.764   1.324   4.924  0.1770  0.6682 -0.7120
    2CHL1   C26  141   3.669   1.385   4.752  0.2576  0.5431  0.7092
    2CHL1  H26A  142   3.588   1.309   4.754 -0.8236  1.6172 -0.2876
    2CHL1  H26B  143   3.632   1.480   4.706  2.2199  0.6266 -0.8733
    2CHL1  H26C  144   3.759   1.359   4.692 -1.2457  0.2213 -1.5480
    2CHL1   C27  145   3.818   1.529   4.889 -0.8220 -0.4914 -0.4069
    2CHL1  H27A  146   3.778   1.619   4.837 -0.7969  0.1758  0.6896
    2CHL1  H27B  147   3.846   1.564   4.990  0.9485  0.3029 -1.1356
    2CHL1  H27C  148   3.913   1.499   4.840  0.0613  0.3870  0.7269
    3CHL1    C3  149   2.560   0.952   5.878  0.4277  0.2641  0.2768
    3CHL1    H3  150   2.536   1.047   5.827 -1.2913 -1.3685 -2.1657
    3CHL1    O3  151   2.551   0.955   6.024  0.8004 -0.1705 -0.1232
    3CHL1   H3'  152   2.457   0.958   6.046  0.7124  0.3165 -0.5447
    3CHL1    C4  153   2.471   0.840   5.828 -0.5996 -0.8051  0.2387
    3CHL1   H4A  154   2.490   0.740   5.872  0.5720 -1.6037 -1.9166
    3CHL1   H4B  155   2.362   0.851   5.849 -1.1514 -1.9241 -1.7485
    3CHL1    C5  156   2.487   0.826   5.676  1.0988 -0.4566 -0.0348
    3CHL1    C6  157   2.374   0.835   5.598  0.5905  0.2544  0.3230
    3CHL1    H6  158   2.278   0.850   5.648 -0.0771 -0.1502 -0.8110
    3CHL1    C7  159   2.377   0.801   5.446 -0.8491 -0.0460  0.5630
    3CHL1   H7A  160   2.299   0.725   5.424 -0.4576  0.1951 -1.9734
    3CHL1   H7B  161   2.362   0.894   5.386  0.8006 -0.6280 -0.8186
    3CHL1    C8  162   2.512   0.731   5.398  0.2520 -0.0503  0.2204
    3CHL1    H8  163   2.523   0.624   5.426 -0.8302 -0.5473 -1.1453
    3CHL1   C14  164   2.528   0.747   5.245 -0.2185  0.4314 -0.6420
    3CHL1   H14  165   2.517   0.856   5.228  1.4451  1.1234  2.1067
    3CHL1   C15  166   2.415   0.686   5.161 -0.0748 -0.2646 -0.0106
    3CHL1  H15A  167   2.396   0.585   5.204  0.9753 -0.1634  0.7171
    3CHL1  H15B  168   2.323   0.750   5.162  0.3376  0.3718 -1.2364
    3CHL1   C16  169   2.477   0.669   5.024 -0.5294  0.1732  1.0398
    3CHL1  H16A  170   2.475   0.561   4.996  1.4562 -0.8195  4.1669
    3CHL1  H16B  171   2.407   0.722   4.956 -0.4146 -0.2738  0.5658
    3CHL1   C17  172   2.622   0.726   5.031  0.0319  0.0116  0.1345
    3CHL1   H17  173   2.620   0.837   5.026  0.8034  0.0883  1.2502
    3CHL1   C13  174   2.661   0.703   5.176  0.6594 -0.1785 -0.0375
    3CHL1   C18  175   2.688   0.553   5.202  0.8857 -0.3195  0.6766
    3CHL1  H18A  176   2.790   0.517   5.179  1.2186  0.0668  1.5166
    3CHL1  H18B  177   2.668   0.535   5.310 -1.3012 -1.1105  0.2069
    3CHL1  H18C  178   2.614   0.492   5.145 -0.5356  0.5894  1.4778
    3CHL1   C12  179   2.775   0.776   5.243  0.5087 -0.4385  0.5497
    3CHL1  H12A  180   2.875   0.737   5.213  0.6058 -0.9507  1.5134
    3CHL1  H12B  181   2.755   0.883   5.219  0.2027  0.0101  2.6741
    3CHL1   C11  182   2.768   0.778   5.395  0.1498  0.4093 -0.5071
    3CHL1  H11A  183   2.824   0.690   5.433 -2.7684 -1.4775 -0.1782
    3CHL1  H11B  184   2.825   0.864   5.434 -1.1575  0.5170  1.3072
    3CHL1    C9  185   2.636   0.798   5.469 -0.0066  0.8773  0.3142
    3CHL1    H9  186   2.616   0.908   5.462  0.0205  0.8037 -1.0518
    3CHL1   C10  187   2.628   0.789   5.622 -0.0845  0.2318  0.2739
    3CHL1   C19  188   2.669   0.643   5.674 -0.2065  0.9035  0.0222
    3CHL1  H19A  189   2.697   0.650   5.781  1.0620  1.1486 -0.3072
    3CHL1  H19B  190   2.585   0.573   5.654  0.9609 -0.6591  0.4421
    3CHL1  H19C  191   2.762   0.609   5.624 -0.9645  0.6024 -1.2323
    3CHL1    C1  192   2.729   0.900   5.684  1.1010  0.3478  0.3227
    3CHL1   H1A  193   2.833   0.862   5.670  0.1158 -2.0871 -0.8711
    3CHL1   H1B  194   2.719   0.991   5.621 -1.1262  0.5952  0.9378
    3CHL1    C2  195   2.709   0.920   5.838  0.2968  0.0841 -0.1947
    3CHL1   H2A  196   2.761   1.014   5.862  2.6900 -1.7644  2.5262
    3CHL1   H2B  197   2.734   0.832   5.901  0.8273 -0.5601 -1.2662
    3CHL1   C20  198   2.719   0.675   4.922  0.3880 -0.0256  0.0562
    3CHL1   H20  199   2.749   0.570   4.942  3.2802  1.0284  2.0417
    3CHL1   C21  200   2.844   0.760   4.924  0.3533  0.2620 -0.5236
    3CHL1  H21A  201   2.925   0.710   4.866  0.5357  0.2023 -0.2247
    3CHL1  H21B  202   2.887   0.778   5.025 -1.5997 -3.8100  1.3142
    3CHL1  H21C  203   2.821   0.854   4.870  0.3974  0.5389 -0.0604
    3CHL1   C22  204   2.642   0.683   4.790 -0.7067 -0.2138  0.1203
    3CHL1  H22A  205   2.572   0.598   4.773  1.6220 -2.1281 -0.4196
    3CHL1  H22B  206   2.592   0.783   4.787 -0.1915  0.0279 -1.4163
    3CHL1   C23  207   2.728   0.663   4.669 -0.4605  0.2183  0.0585
    3CHL1  H23A  208   2.792   0.753   4.659  0.5259 -0.3643  0.9868
    3CHL1  H23B  209   2.791   0.573   4.680  0.7330  0.7157 -2.0603
    3CHL1   C24  210   2.655   0.654   4.531 -0.1755  0.4981 -0.3956
    3CHL1  H24A  211   2.607   0.554   4.537 -0.8017  0.8326  0.2584
    3CHL1  H24B  212   2.570   0.724   4.529 -0.6774  0.1053  2.3686
    3CHL1   C25  213   2.748   0.670   4.410  0.1385  0.5193 -0.7154
    3CHL1   H25  214   2.788   0.773   4.418 -0.2136  0.5316  1.7761
    3CHL1   C26  215   2.864   0.582   4.406 -0.1722  0.2157  0.4363
    3CHL1  H26A  216   2.942   0.614   4.478  0.0458  2.3091 -0.6524
    3CHL1  H26B  217   2.839   0.474   4.411  1.4395 -0.1712  0.6469
    3CHL1  H26C  218   2.907   0.599   4.305 -0.9524 -1.2742 -0.1762
    3CHL1   C27  219   2.657   0.661   4.282  0.0477  0.0445  0.7436
    3CHL1  H27A  220   2.718   0.649   4.190 -1.3633 -3.9492  0.1458
    3CHL1  H27B  221   2.599   0.568   4.298 -0.8464  0.7162  1.5661
    3CHL1  H27C  222   2.604   0.757   4.263  0.8015  0.8109  2.2890
    4CHL1    C3  223   3.395   0.341   6.269 -0.6123 -0.2542 -0.5909
    4CHL1    H3  224   3.401   0.450   6.250  0.5764 -0.1329  0.3949
    4CHL1    O3  225   3.399   0.315   6.409 -0.4305 -0.0373 -1.0974
    4CHL1   H3'  226   3.401   0.219   6.415 -2.1451 -0.0902 -0.7929
    4CHL1    C4  227   3.253   0.302   6.223 -0.7427  0.0559 -0.0270
    4CHL1   H4A  228   3.241   0.193   6.236  3.3418 -0.4551  0.9245
    4CHL1   H4B  229   3.183   0.351   6.294 -1.4421 -0.9455 -0.0179
    4CHL1    C5  230   3.233   0.350   6.081  0.1527  0.1188 -0.5244
    4CHL1    C6  231   3.136   0.447   6.059 -0.0047  0.7496  1.2697
    4CHL1    H6  232   3.077   0.462   6.150  1.1288 -0.2573  2.1967
    4CHL1    C7  233   3.093   0.492   5.923 -0.2714 -0.3771  0.0158
    4CHL1   H7A  234   2.990   0.474   5.887 -0.0076 -1.5716 -0.1616
    4CHL1   H7B  235   3.120   0.600   5.929  4.4304 -1.2785 -0.7449
    4CHL1    C8  236   3.184   0.431   5.810 -1.1473 -0.9100 -0.1440
    4CHL1    H8  237   3.134   0.333   5.794 -0.5950 -1.2856  0.3765
    4CHL1   C14  238   3.193   0.520   5.691  0.7086  0.1470  0.3087
    4CHL1   H14  239   3.252   0.607   5.730 -0.0342  0.6459  0.3395
    4CHL1   C15  240   3.064   0.583   5.638 -0.1396  0.7005  0.0020
    4CHL1  H15A  241   2.972   0.521   5.642  0.0445  0.3519 -0.9492
    4CHL1  H15B  242   3.038   0.680   5.686 -0.4260  0.2709  0.7325
    4CHL1   C16  243   3.110   0.615   5.494 -0.0086  0.5596 -0.0908
    4CHL1  H16A  244   3.042   0.561   5.425  0.7439  1.4506 -1.5785
    4CHL1  H16B  245   3.090   0.723   5.477  0.6560  0.9443  1.3379
    4CHL1   C17  246   3.260   0.582   5.473 -0.2841  0.0666 -0.0173
    4CHL1   H17  247   3.325   0.660   5.518 -2.1558  0.1440  2.7788
    4CHL1   C13  248   3.277   0.467   5.568 -0.6675  0.0501 -0.4930
    4CHL1   C18  249   3.217   0.341   5.517  0.0981 -0.2834  0.0437
    4CHL1  H18A  250   3.107   0.355   5.507  0.0450 -0.1711  0.7369
    4CHL1  H18B  251   3.246   0.318   5.412 -0.1690 -0.7481  0.0680
    4CHL1  H18C  252   3.223   0.254   5.585  0.1220  1.1358  1.9634
    4CHL1   C12  253   3.423   0.441   5.620  0.5911 -0.3169  0.4453
    4CHL1  H12A  254   3.478   0.391   5.537  0.4002  0.5422 -0.2099
    4CHL1  H12B  255   3.475   0.534   5.651  0.8879 -0.2237 -0.3201
    4CHL1   C11  256   3.416   0.351   5.740 -0.0538  1.0181 -0.3981
    4CHL1  H11A  257   3.387   0.248   5.710  1.1964  0.7149 -0.6015
    4CHL1  H11B  258   3.518   0.346   5.783 -0.3088  0.5507  0.1649
    4CHL1    C9  259   3.320   0.403   5.854 -0.3320  0.1232  0.7523
    4CHL1    H9  260   3.358   0.504   5.877 -0.4675  0.3869 -0.1442
    4CHL1   C10  261   3.340   0.311   5.985  1.4193 -0.3089  0.7012
    4CHL1   C19  262   3.308   0.167   5.955  0.4370  0.6367 -0.4591
    4CHL1  H19A  263   3.205   0.142   5.920  0.2883  0.1420  0.3177
    4CHL1  H19B  264   3.376   0.126   5.877 -2.3133  0.5098 -2.9886
    4CHL1  H19C  265   3.316   0.109   6.049 -1.3470  2.4677  0.9097
    4CHL1    C1  266   3.491   0.327   6.040  0.7878  0.3568  0.2484
    4CHL1   H1A  267   3.573   0.282   5.981  0.4785 -0.3237  0.3344
    4CHL1   H1B  268   3.519   0.435   6.040  0.8621  0.4815 -3.9233
    4CHL1    C2  269   3.499   0.272   6.181  0.2289 -0.2751  0.0283
    4CHL1   H2A  270   3.601   0.299   6.217  0.1040  0.8448 -0.4080
    4CHL1   H2B  271   3.500   0.161   6.189  1.9303 -0.3912 -1.1065
    4CHL1   C20  272   3.310   0.575   5.329  0.7617  0.3063 -0.3256
    4CHL1   H20  273   3.282   0.474   5.292  0.2720  0.9867 -1.8905
    4CHL1   C21  274   3.461   0.566   5.325  0.0975 -0.5277  0.0780
    4CHL1  H21A  275   3.499   0.463   5.334  0.4923 -0.5567 -1.5807
    4CHL1  H21B  276   3.512   0.624   5.406 -0.2043  0.3415 -0.3408
    4CHL1  H21C  277   3.506   0.593   5.227  0.5273 -4.0767 -0.8410
    4CHL1   C22  278   3.248   0.680   5.233 -0.2713  0.5494  0.3251
    4CHL1  H22A  279   3.140   0.698   5.249 -0.7241 -0.5012 -1.3869
    4CHL1  H22B  280   3.297   0.778   5.252 -1.2282  1.4934 -1.8128
    4CHL1   C23  281   3.266   0.638   5.086 -0.9085  0.2060  0.4368
    4CHL1  H23A  282   3.256   0.725   5.018  2.8626  0.1846 -0.3985
    4CHL1  H23B  283   3.371   0.603   5.070 -0.5908  1.0575  0.6263
    4CHL1   C24  284   3.163   0.545   5.042 -0.2591 -0.0905 -0.2852
    4CHL1  H24A  285   3.145   0.466   5.118 -1.6476 -0.5997 -1.0961
    4CHL1  H24B  286   3.066   0.598   5.038 -0.4048 -0.0442  2.2792
    4CHL1   C25  287   3.184   0.479   4.908  0.0952  0.5998  0.5893
    4CHL1   H25  288   3.190   0.560   4.832 -1.5590  1.0582  0.9025
    4CHL1   C26  289   3.320   0.386   4.912 -0.4488  0.0338 -0.0690
    4CHL1  H26A  290   3.411   0.448   4.930 -0.3029  0.5316 -2.2386
    4CHL1  H26B  291   3.306   0.315   4.996  1.6917  0.2750  0.5572
    4CHL1  H26C  292   3.329   0.329   4.817 -0.8875 -0.8124  0.3875
    4CHL1   C27  293   3.061   0.388   4.869  0.6284 -0.3558 -0.1178
    4CHL1  H27A  294   2.958   0.429   4.872  0.3606 -1.0511  1.8691
    4CHL1  H27B  295   3.074   0.338   4.771 -1.5411 -0.2980 -0.4840
    4CHL1  H27C  296   3.052   0.303   4.940 -1.4274  2.2062  2.9354
    5CHL1    C3  297   3.759   2.388   6.030  0.7366  0.6877 -0.1414
    5CHL1    H3  298   3.861   2.423   6.004  0.6682  0.6045 -0.5288
    5CHL1    O3  299   3.748   2.366   6.170  0.1387  0.2476  0.2029
    5CHL1   H3'  300   3.797   2.432   6.220  1.2169 -1.2026  1.1657
    5CHL1    C4  301   3.655   2.496   5.988 -1.0331  0.1257  0.2849
    5CHL1   H4A  302   3.550   2.470   6.014 -0.3080  0.2057  3.7684
    5CHL1   H4B  303   3.690   2.577   6.055  1.9465 -0.9021  0.0877
    5CHL1    C5  304   3.667   2.522   5.838 -0.2365 -0.0468  0.7737
    5CHL1    C6  305   3.708   2.638   5.785  0.4382 -0.3228  0.4188
    5CHL1    H6  306   3.732   2.718   5.857 -1.8382  0.5139  0.3290
    5CHL1    C7  307   3.736   2.667   5.648  0.9898 -0.0129  0.7875
    5CHL1   H7A  308   3.693   2.766   5.623  1.2845  0.6600  2.7946
    5CHL1   H7B  309   3.844   2.689   5.632  1.0412  0.2787  1.4767
    5CHL1    C8  310   3.676   2.561   5.551 -0.5742 -0.1154 -0.0487
    5CHL1    H8  311   3.568   2.586   5.540 -0.9322 -1.6012 -0.1118
    5CHL1   C14  312   3.740   2.578   5.413 -0.5152  0.0901  0.2462
    5CHL1   H14  313   3.848   2.554   5.421 -0.8361 -1.6647 -0.2545
    5CHL1   C15  314   3.729   2.712   5.336  0.0093 -0.3586 -0.5950
    5CHL1  H15A  315   3.622   2.737   5.354  0.1293 -0.8667  0.9908
    5CHL1  H15B  316   3.796   2.788   5.382 -2.1325  1.4171 -0.2418
    5CHL1   C16  317   3.762   2.671   5.191 -0.2861  0.0394  0.0526
    5CHL1  H16A  318   3.683   2.718   5.130 -1.2014 -1.8845 -0.3149
    5CHL1  H16B  319   3.862   2.711   5.163  0.1347  0.7986  2.3473
    5CHL1   C17  320   3.775   2.515   5.185 -0.0686 -0.0081 -0.5473
    5CHL1   H17  321   3.877   2.479   5.209 -0.2495 -0.5381 -0.5511
    5CHL1   C13  322   3.691   2.472   5.307 -0.5627 -0.1770  0.3893
    5CHL1   C18  323   3.543   2.486   5.274  0.2236 -0.1201 -1.2469
    5CHL1  H18A  324   3.509   2.396   5.218  3.3917 -1.7077 -0.8311
    5CHL1  H18B  325   3.489   2.496   5.371  2.2582  1.1752 -0.1881
    5CHL1  H18C  326   3.533   2.577   5.211 -0.5558 -0.1814 -1.2194
    5CHL1   C12  327   3.725   2.336   5.369 -0.4233 -0.6265  0.1848
    5CHL1  H12A  328   3.702   2.252   5.300  0.2628  0.3298 -1.2661
    5CHL1  H12B  329   3.835   2.331   5.386 -0.3458 -3.3276 -0.7319
    5CHL1   C11  330   3.654   2.318   5.497 -0.3378  0.2294 -0.2735
    5CHL1  H11A  331   3.544   2.325   5.482 -0.2985  1.4255 -0.1076
    5CHL1  H11B  332   3.677   2.220   5.543  0.1762  0.7151  0.5310
    5CHL1    C9  333   3.701   2.421   5.601  0.0269 -0.3523  0.2274
    5CHL1    H9  334   3.811   2.407   5.597  0.0282 -0.3391 -3.4014
    5CHL1   C10  335   3.645   2.396   5.745  0.4258  0.1494  0.2486
    5CHL1   C19  336   3.492   2.360   5.740 -0.2101  0.2265 -0.5284
    5CHL1  H19A  337   3.476   2.264   5.687  0.9281 -1.0139  1.2609
    5CHL1  H19B  338   3.445   2.344   5.840 -0.3779  0.1713 -0.6179
    5CHL1  H19C  339   3.439   2.441   5.687 -1.2268  0.6854  1.1258
    5CHL1    C1  340   3.733   2.279   5.805  0.0211 -0.3843 -0.6225
    5CHL1   H1A  341   3.688   2.187   5.762 -0.6448  0.8908 -2.8016
    5CHL1   H1B  342   3.838   2.300   5.777  0.2657  0.0125  0.5215
    5CHL1    C2  343   3.734   2.252   5.958  0.2095 -0.6209  0.0894
    5CHL1   H2A  344   3.804   2.171   5.988  0.7986  0.0439  0.5480
    5CHL1   H2B  345   3.631   2.220   5.985 -0.5150  1.3935 -0.1192
    5CHL1   C20  346   3.750   2.460   5.039 -0.7523 -0.3962 -0.7100
    5CHL1   H20  347   3.650   2.492   5.004 -0.1578  3.4834  0.6376
    5CHL1   C21  348   3.750   2.305   5.031 -0.0031 -0.3929  0.2733
    5CHL1  H21A  349   3.659   2.257   5.073 -1.1890 -1.1238 -2.8635
    5CHL1  H21B  350   3.840   2.274   5.088  0.8632  1.1301 -0.2325
    5CHL1  H21C  351   3.762   2.265   4.928  2.0934  0.0754  0.2949
    5CHL1   C22  352   3.853   2.524   4.936 -0.0534  0.5937 -0.3472
    5CHL1  H22A  353   3.877   2.631   4.953  0.6944  0.1855  1.4776
    5CHL1  H22B  354   3.949   2.470   4.941 -0.4150  0.0307  1.3560
    5CHL1   C23  355   3.792   2.508   4.797  0.1250 -0.2040 -0.1556
    5CHL1  H23A  356   3.735   2.413   4.794 -0.2984 -0.0176  1.2916
    5CHL1  H23B  357   3.716   2.588   4.780  0.5353  0.3074  0.3684
    5CHL1   C24  358   3.895   2.510   4.682  0.4516  0.5904  0.8786
    5CHL1  H24A  359   3.962   2.599   4.693  0.5931  0.4151  1.4647
    5CHL1  H24B  360   3.962   2.424   4.705  0.8093  0.6590  0.1391
    5CHL1   C25  361   3.860   2.477   4.539 -0.2544 -0.0465 -0.0179
    5CHL1   H25  362   3.837   2.368   4.537  1.7911 -0.5131 -1.2487
    5CHL1   C26  363   3.728   2.547   4.503  0.2300 -0.6000  0.5916
    5CHL1  H26A  364   3.703   2.515   4.400  1.6995 -1.6045  0.5146
    5CHL1  H26B  365   3.642   2.522   4.569 -0.4241 -1.1764 -0.4489
    5CHL1  H26C  366   3.739   2.658   4.510  2.1186 -0.8052  1.6454
    5CHL1   C27  367   3.967   2.508   4.451 -0.7414  0.7372 -0.5226
    5CHL1  H27A  368   4.000   2.611   4.477 -1.4095  0.9029 -0.3146
    5CHL1  H27B  369   4.050   2.436   4.462 -0.5584  0.8291 -1.2133
    5CHL1  H27C  370   3.941   2.508   4.343 -0.9219  3.5728 -0.5587
    6CHL1    C3  371   6.288   0.757   6.468  0.1845 -0.1623  0.2636
    6CHL1    H3  372   6.269   0.649   6.446  0.5287 -0.0267 -0.7599
    6CHL1    O3  373   6.242   0.798   6.601 -0.7399  0.4027  0.5865
    6CHL1   H3'  374   6.157   0.755   6.603 -0.7012  0.2703 -0.3988
    6CHL1    C4  375   6.431   0.797   6.446 -0.9565  0.5405  0.1587
    6CHL1   H4A  376   6.430   0.906   6.464 -0.4900  1.2661 -3.5618
    6CHL1   H4B  377   6.508   0.754   6.514  0.6654  0.7292 -1.4852
    6CHL1    C5  378   6.468   0.761   6.300 -0.1176  0.0903 -1.1053
    6CHL1    C6  379   6.568   0.676   6.274  0.4875 -0.0863  0.3541
    6CHL1    H6  380   6.631   0.650   6.360 -0.4601  3.0811  2.1829
    6CHL1    C7  381   6.609   0.635   6.133  0.3703 -0.1536  0.1529
    6CHL1   H7A  382   6.720   0.629   6.121  0.2594 -2.6466 -0.1053
    6CHL1   H7B  383   6.581   0.529   6.122  0.9664 -0.4215  1.1321
    6CHL1    C8  384   6.557   0.734   6.027  1.0095  0.5154  0.0704
    6CHL1    H8  385   6.608   0.831   6.042  1.2496  0.4598 -0.3678
    6CHL1   C14  386   6.583   0.677   5.889  0.0718  0.2768 -0.0896
    6CHL1   H14  387   6.515   0.590   5.880  0.6965 -0.3549  1.1617
    6CHL1   C15  388   6.730   0.637   5.865  0.2901 -0.3143 -0.0436
    6CHL1  H15A  389   6.805   0.706   5.909  0.0691  0.6338 -1.1209
    6CHL1  H15B  390   6.749   0.538   5.913 -0.8420 -0.4293  0.1909
    6CHL1   C16  391   6.744   0.635   5.713 -0.1196 -0.5695  0.4065
    6CHL1  H16A  392   6.825   0.709   5.698 -1.8229  2.0521  2.9996
    6CHL1  H16B  393   6.768   0.533   5.678 -1.0607 -0.4170 -0.7361
    6CHL1   C17  394   6.616   0.693   5.648 -0.5725  0.3271  0.5543
    6CHL1   H17  395   6.551   0.605   5.629 -0.3015  0.2386  0.0127
    6CHL1   C13  396   6.547   0.767   5.772  0.0626  0.8174 -0.5364
    6CHL1   C18  397   6.630   0.901   5.782 -0.3027  0.4002  0.8914
    6CHL1  H18A  398   6.634   0.948   5.681  1.2957  1.1582  1.2781
    6CHL1  H18B  399   6.593   0.979   5.852 -0.5775 -0.1864  1.4076
    6CHL1  H18C  400   6.737   0.886   5.808 -0.4506  1.9728  2.5687
    6CHL1   C12  401   6.394   0.792   5.778 -0.4163  0.1553 -0.1489
    6CHL1  H12A  402   6.365   0.869   5.702 -1.0430 -0.0625 -0.1427
    6CHL1  H12B  403   6.331   0.703   5.755 -3.7104  1.5858  2.4059
    6CHL1   C11  404   6.355   0.848   5.921  0.6292  0.0762 -0.6748
    6CHL1  H11A  405   6.380   0.955   5.931  1.2212 -0.2022  1.3615
    6CHL1  H11B  406   6.244   0.841   5.932  0.6918 -2.2807 -0.8365
    6CHL1    C9  407   6.408   0.764   6.042 -0.3235 -0.2007  0.0522
    6CHL1    H9  408   6.356   0.666   6.041 -0.4902 -0.1471 -2.3065
    6CHL1   C10  409   6.375   0.822   6.188  0.5433 -0.4921 -0.8692
    6CHL1   C19  410   6.378   0.974   6.189  0.0845  0.1547  0.2088
    6CHL1  H19A  411   6.382   1.011   6.294 -1.4692 -2.0792  1.1440
    6CHL1  H19B  412   6.469   1.015   6.141  0.8491 -0.6793  0.9068
    6CHL1  H19C  413   6.293   1.019   6.134 -0.6537 -1.6348 -0.1766
    6CHL1    C1  414   6.231   0.780   6.226  0.3816  0.1384  0.3229
    6CHL1   H1A  415   6.157   0.834   6.163  1.0288  3.7435  2.3857
    6CHL1   H1B  416   6.209   0.673   6.208 -1.8636  1.0206 -3.3225
    6CHL1    C2  417   6.189   0.818   6.371  0.3787 -0.0161  0.5738
    6CHL1   H2A  418   6.086   0.791   6.402 -1.0042  1.9497 -1.9868
    6CHL1   H2B  419   6.187   0.929   6.372  0.7185  0.0472 -1.7256
    6CHL1   C20  420   6.627   0.755   5.511 -0.4298 -0.3270  0.1840
    6CHL1   H20  421   6.687   0.848   5.510  0.4598 -0.8913 -0.4010
    6CHL1   C21  422   6.486   0.802   5.454  0.4290  0.6076  0.0966
    6CHL1  H21A  423   6.439   0.885   5.510  1.4942  1.5552 -0.3554
    6CHL1  H21B  424   6.417   0.716   5.463  0.8930 -0.3589 -3.8691
    6CHL1  H21C  425   6.503   0.825   5.346  0.0621  0.3974 -0.0061
    6CHL1   C22  426   6.695   0.674   5.398 -0.0066  0.0452  0.3914
    6CHL1  H22A  427   6.791   0.628   5.431  1.3732  1.3875 -1.5851
    6CHL1  H22B  428   6.633   0.586   5.370  1.7559 -0.6489 -1.6690
    6CHL1   C23  429   6.734   0.755   5.265 -0.3202 -0.2391  0.6513
    6CHL1  H23A  430   6.643   0.798   5.218 -0.1804  1.4223  1.8225
    6CHL1  H23B  431   6.806   0.838   5.281  1.2017 -0.4898 -3.7444
    6CHL1   C24  432   6.806   0.669   5.151 -0.3813  0.0327 -0.1012
    6CHL1  H24A  433   6.822   0.738   5.065 -0.1269 -0.3021 -0.3264
    6CHL1  H24B  434   6.902   0.631   5.192  0.0349  0.2833 -0.8393
    6CHL1   C25  435   6.722   0.553   5.095 -0.4944  0.0141  0.5930
    6CHL1   H25  436   6.694   0.500   5.189  0.7620  2.6231  2.5800
    6CHL1   C26  437   6.597   0.599   5.019  0.3836  0.0872  0.5900
    6CHL1  H26A  438   6.522   0.646   5.086 -1.3453 -1.9940  0.2553
    6CHL1  H26B  439   6.628   0.669   4.938 -1.2442  1.3575  1.0040
    6CHL1  H26C  440   6.542   0.520   4.963  0.7152 -1.0160  1.7767
    6CHL1   C27  441   6.809   0.463   5.005 -0.2540 -0.1953 -0.6856
    6CHL1  H27A  442   6.756   0.367   4.989  0.1795 -0.9616  1.9838
    6CHL1  H27B  443   6.852   0.502   4.910  1.7022 -0.5329  0.0115
    6CHL1  H27C  444   6.890   0.431   5.075 -0.0175 -0.3167 -1.0111
    7CHL1    C3  445   6.767   5.731   6.439 -0.8156  0.3375  0.5628
    7CHL1    H3  446   6.746   5.624   6.418  0.6033  0.5558 -2.5269
    7CHL1    O3  447   6.794   5.753   6.577 -0.1779  0.3267  0.1117
    7CHL1   H3'  448   6.805   5.846   6.595 -0.1592  0.2801  0.3412
    7CHL1    C4  449   6.888   5.771   6.357 -0.6941 -0.9255 -0.0893
    7CHL1   H4A  450   6.937   5.868   6.382 -2.8854  0.6206 -1.4333
    7CHL1   H4B  451   6.966   5.701   6.393  0.0061  0.0496  0.3523
    7CHL1    C5  452   6.864   5.761   6.207  0.4304  0.2680  0.1452
    7CHL1    C6  453   6.948   5.692   6.124 -0.1901 -0.1850 -0.0310
    7CHL1    H6  454   7.043   5.648   6.157 -0.1976  1.2668  2.1668
    7CHL1    C7  455   6.929   5.699   5.971  0.0618  0.4559 -0.0961
    7CHL1   H7A  456   7.026   5.733   5.929  0.7166  1.2286  1.9282
    7CHL1   H7B  457   6.900   5.607   5.916 -1.2936  0.7880  0.0319
    7CHL1    C8  458   6.828   5.800   5.924  0.3299 -0.4474 -1.0716
    7CHL1    H8  459   6.869   5.903   5.924  1.5877 -0.8957 -3.0111
    7CHL1   C14  460   6.786   5.768   5.786 -0.3341 -0.0626 -0.0418
    7CHL1   H14  461   6.731   5.671   5.791 -1.2876  0.1196 -3.7641
    7CHL1   C15  462   6.896   5.757   5.686  0.2729  0.3166 -0.5522
    7CHL1  H15A  463   6.974   5.833   5.708  0.4517  0.4136 -1.4833
    7CHL1  H15B  464   6.937   5.654   5.690  0.6955  0.4301 -1.8074
    7CHL1   C16  465   6.834   5.774   5.555 -0.0690  0.5925  0.0362
    7CHL1  H16A  466   6.886   5.862   5.512 -1.9929  1.8373  0.1647
    7CHL1  H16B  467   6.840   5.684   5.489 -0.7295  0.3259  0.3271
    7CHL1   C17  468   6.682   5.796   5.583  0.0194 -0.1090  0.5575
    7CHL1   H17  469   6.634   5.697   5.593 -0.9293  0.4638  1.8520
    7CHL1   C13  470   6.684   5.856   5.723 -0.0760  0.2419 -0.4186
    7CHL1   C18  471   6.727   6.002   5.715 -0.5272 -0.1943  0.7769
    7CHL1  H18A  472   6.806   6.023   5.640 -0.2158 -0.3112  1.0676
    7CHL1  H18B  473   6.639   6.058   5.678  0.0204 -0.0941 -0.4394
    7CHL1  H18C  474   6.747   6.048   5.814 -0.1449  0.1704  0.5356
    7CHL1   C12  475   6.550   5.849   5.810  0.4318 -0.3135 -0.1164
    7CHL1  H12A  476   6.463   5.916   5.791  0.6691  0.0751  0.1348
    7CHL1  H12B  477   6.499   5.751   5.817  0.4859 -0.2224  2.5680
    7CHL1   C11  478   6.588   5.891   5.951 -0.2038  0.6255 -0.0337
    7CHL1  H11A  479   6.603   6.000   5.964 -0.1159  0.5958  0.1073
    7CHL1  H11B  480   6.501   5.858   6.012  1.4495  0.0551  2.1382
    7CHL1    C9  481   6.706   5.812   6.018  0.2443  0.0055  0.0153
    7CHL1    H9  482   6.659   5.711   6.023  0.4758 -0.0607  1.4373
    7CHL1   C10  483   6.735   5.839   6.163  0.4889 -0.7262 -0.8997
    7CHL1   C19  484   6.750   5.991   6.185 -0.4366  0.6115 -0.0278
    7CHL1  H19A  485   6.649   6.033   6.171 -0.1090  1.2119 -0.6305
    7CHL1  H19B  486   6.790   6.005   6.288  1.5452  2.2393 -0.9435
    7CHL1  H19C  487   6.818   6.034   6.109  0.4080 -0.8650 -0.1533
    7CHL1    C1  488   6.608   5.798   6.250 -0.2966  0.5477 -0.2269
    7CHL1   H1A  489   6.522   5.856   6.209 -0.7332 -0.3765 -0.6763
    7CHL1   H1B  490   6.577   5.693   6.230  1.5535 -0.0004 -0.3875
    7CHL1    C2  491   6.637   5.798   6.400 -0.3133  0.1520 -0.2055
    7CHL1   H2A  492   6.554   5.750   6.456  2.1392 -1.0463  2.6958
    7CHL1   H2B  493   6.639   5.904   6.434 -1.5683  0.0723  0.1850
    7CHL1   C20  494   6.611   5.872   5.473 -0.2156  0.1754 -0.3373
    7CHL1   H20  495   6.664   5.970   5.469 -0.2452  0.1809 -0.6336
    7CHL1   C21  496   6.462   5.894   5.513 -0.0638  0.4909  0.1409
    7CHL1  H21A  497   6.400   5.932   5.429 -0.0889  2.2809  0.9175
    7CHL1  H21B  498   6.450   5.968   5.595  0.1337 -0.0596  0.6748
    7CHL1  H21C  499   6.424   5.798   5.553 -0.7277  0.0034 -1.6114
    7CHL1   C22  500   6.630   5.806   5.329 -0.6503 -0.7391 -0.5780
    7CHL1  H22A  501   6.737   5.806   5.298 -0.6018 -0.9809 -0.4085
    7CHL1  H22B  502   6.605   5.698   5.336  0.9991 -1.0439  1.9484
    7CHL1   C23  503   6.548   5.865   5.214 -0.1484 -0.1964 -0.1240
    7CHL1  H23A  504   6.438   5.866   5.228 -0.5200  0.3504 -2.6167
    7CHL1  H23B  505   6.570   5.972   5.191  1.2856 -0.6310 -0.9361
    7CHL1   C24  506   6.571   5.775   5.090 -0.4120  0.6180  0.4117
    7CHL1  H24A  507   6.678   5.746   5.086 -0.7129 -0.7317  1.2821
    7CHL1  H24B  508   6.501   5.688   5.091 -1.2097  1.2415 -0.1688
    7CHL1   C25  509   6.544   5.853   4.959 -0.1623  0.2802 -0.4163
    7CHL1   H25  510   6.605   5.946   4.965 -0.3687  0.3505  3.5309
    7CHL1   C26  511   6.606   5.751   4.856  0.1941 -0.7137 -0.6753
    7CHL1  H26A  512   6.703   5.709   4.892  0.0566 -0.1976  0.3426
    7CHL1  H26B  513   6.531   5.670   4.842  0.5568 -1.3443  0.7765
    7CHL1  H26C  514   6.630   5.793   4.756  3.0254  2.1158  0.9823
    7CHL1   C27  515   6.391   5.878   4.924  0.0708  0.3896  0.6538
    7CHL1  H27A  516   6.339   5.784   4.953 -0.4252  0.8346  1.2126
    7CHL1  H27B  517   6.358   5.964   4.986  2.4826  1.6604  0.3023
    7CHL1  H27C  518   6.376   5.900   4.816 -1.7889  3.1397  1.3871
    8CHL1    C3  519   5.788   1.119   6.266 -0.0792  0.4221 -0.1510
    8CHL1    H3  520   5.686   1.084   6.240  0.1636 -1.1261  0.8523
    8CHL1    O3  521   5.813   1.139   6.402  0.7435  0.2359 -0.7105
    8CHL1   H3'  522   5.790   1.058   6.450  0.8717 -0.6232 -2.0430
    8CHL1    C4  523   5.884   1.008   6.209 -0.1301 -0.6310 -0.2557
    8CHL1   H4A  524   5.989   1.039   6.230  0.0514 -0.4631 -1.3109
    8CHL1   H4B  525   5.879   0.914   6.267  0.2357 -0.4949  0.0017
    8CHL1    C5  526   5.880   0.998   6.058  0.0859 -0.1926 -0.6974
    8CHL1    C6  527   5.854   0.879   6.008  0.3354 -0.5601  0.2159
    8CHL1    H6  528   5.861   0.789   6.071  0.5215  0.5222  1.7973
    8CHL1    C7  529   5.838   0.854   5.864  0.3325 -0.0138  0.9347
    8CHL1   H7A  530   5.889   0.759   5.834 -2.4805 -1.5199  0.5990
    8CHL1   H7B  531   5.734   0.842   5.826  0.1681  2.6261  0.3398
    8CHL1    C8  532   5.894   0.969   5.778 -0.3742  1.1740  0.3986
    8CHL1    H8  533   6.003   0.949   5.791 -0.9604 -1.8120  1.6092
    8CHL1   C14  534   5.857   0.948   5.625  0.3732 -0.5229 -0.3961
    8CHL1   H14  535   5.746   0.949   5.624  0.3464 -1.8619 -1.7738
    8CHL1   C15  536   5.891   0.812   5.566  0.3503 -0.2286 -0.5082
    8CHL1  H15A  537   5.991   0.773   5.595  0.1526  0.1176  0.6754
    8CHL1  H15B  538   5.808   0.744   5.594  0.2298  1.2492  3.2639
    8CHL1   C16  539   5.891   0.834   5.409  0.0185  0.2280  0.1490
    8CHL1  H16A  540   5.989   0.810   5.362 -0.7533  1.3234 -2.1922
    8CHL1  H16B  541   5.812   0.771   5.362 -0.3898  1.4387 -0.8370
    8CHL1   C17  542   5.853   0.985   5.393  0.4648  0.0808  0.6957
    8CHL1   H17  543   5.743   0.994   5.385  0.3081 -0.5148  1.9096
    8CHL1   C13  544   5.895   1.047   5.528 -0.1110  0.3486 -0.5887
    8CHL1   C18  545   6.046   1.052   5.518 -0.3210 -0.2611  0.4943
    8CHL1  H18A  546   6.096   0.965   5.471 -0.0243  0.2762 -0.2086
    8CHL1  H18B  547   6.062   1.140   5.453  0.2912  1.0604  2.3335
    8CHL1  H18C  548   6.099   1.072   5.614 -0.5731  3.1182  0.0499
    8CHL1   C12  549   5.834   1.183   5.581  0.2614  0.8338  0.2720
    8CHL1  H12A  550   5.874   1.267   5.520 -1.3328  1.9806  0.7274
    8CHL1  H12B  551   5.723   1.187   5.574 -0.0274 -1.6855  2.2044
    8CHL1   C11  552   5.886   1.221   5.725 -0.2299  0.3742 -0.4369
    8CHL1  H11A  553   5.997   1.234   5.723 -0.3156  1.1366 -1.6343
    8CHL1  H11B  554   5.841   1.316   5.760 -1.6735  0.1562 -1.6223
    8CHL1    C9  555   5.851   1.105   5.825  0.1703  0.0340  0.0603
    8CHL1    H9  556   5.742   1.092   5.807  0.4952 -1.1356 -1.2449
    8CHL1   C10  557   5.882   1.121   5.977  0.3811 -0.9199 -0.0939
    8CHL1   C19  558   6.026   1.179   5.975  0.4514  0.0054 -0.0479
    8CHL1  H19A  559   6.097   1.109   5.926  1.2351 -0.6543  1.9219
    8CHL1  H19B  560   6.027   1.280   5.928  2.7562 -1.4340 -3.5859
    8CHL1  H19C  561   6.068   1.180   6.078 -2.1199  2.1176  1.1035
    8CHL1    C1  562   5.781   1.221   6.036 -0.3076  0.3073  0.0531
    8CHL1   H1A  563   5.790   1.320   5.985 -1.5575  0.2156 -0.4027
    8CHL1   H1B  564   5.676   1.189   6.017  0.4328 -3.5475  1.6124
    8CHL1    C2  565   5.797   1.247   6.181 -0.3252  0.0503  0.0840
    8CHL1   H2A  566   5.701   1.298   6.207 -0.7463 -0.8905  0.4128
    8CHL1   H2B  567   5.885   1.307   6.213  0.8047 -1.4658 -0.0779
    8CHL1   C20  568   5.903   1.037   5.254 -0.2667 -0.5212 -0.7363
    8CHL1   H20  569   6.014   1.040   5.242 -0.4367  2.6409 -2.5911
    8CHL1   C21  570   5.849   1.181   5.239 -0.1059 -0.5658 -0.7457
    8CHL1  H21A  571   5.879   1.228   5.143  0.8789  1.5790  0.5447
    8CHL1  H21B  572   5.895   1.242   5.320  1.5486 -1.9876 -0.5540
    8CHL1  H21C  573   5.738   1.180   5.246 -0.1463 -0.2511 -1.3135
    8CHL1   C22  574   5.853   0.950   5.126  0.3709 -0.3595 -0.8897
    8CHL1  H22A  575   5.907   0.853   5.135  0.4271 -0.3016 -0.6045
    8CHL1  H22B  576   5.744   0.929   5.135  0.5979 -1.3848 -0.3037
    8CHL1   C23  577   5.901   1.011   4.991  0.1942 -0.3138  0.2376
    8CHL1  H23A  578   5.846   1.107   4.978 -0.6271 -0.5174  1.9034
    8CHL1  H23B  579   6.009   1.033   4.987  0.0538  0.5533  0.8719
    8CHL1   C24  580   5.861   0.931   4.869 -0.0380 -0.3668  0.0071
    8CHL1  H24A  581   5.916   0.834   4.871  0.8232  0.0494 -1.9084
    8CHL1  H24B  582   5.754   0.904   4.880 -0.3538  0.4234 -1.0165
    8CHL1   C25  583   5.879   0.992   4.730 -0.0124 -0.3159  0.2476
    8CHL1   H25  584   5.796   1.064   4.716  1.3036  1.2193 -0.0183
    8CHL1   C26  585   6.001   1.072   4.698 -0.5244  0.0250 -0.3790
    8CHL1  H26A  586   6.026   1.145   4.777 -0.4691  0.3696 -0.7142
    8CHL1  H26B  587   6.072   0.988   4.686 -0.9835 -0.8059  2.1288
    8CHL1  H26C  588   5.985   1.118   4.598 -0.0485  0.0347 -0.4507
    8CHL1   C27  589   5.851   0.887   4.615  0.0987 -0.5132 -0.3244
    8CHL1  H27A  590   5.938   0.819   4.604  0.9566  0.5836 -0.4863
    8CHL1  H27B  591   5.762   0.823   4.634  1.2238 -2.3759 -1.0878
    8CHL1  H27C  592   5.839   0.937   4.517  1.3562 -0.0540 -0.2654
    9CHL1    C3  593   3.818   6.147   6.087  0.3072  0.2536  0.2449
    9CHL1    H3  594   3.916   6.096   6.089  0.0458 -0.2442  0.6379
    9CHL1    O3  595   3.768   6.123   6.221  0.2484  0.3733 -0.3628
    9CHL1   H3'  596   3.792   6.196   6.279  2.1673 -1.8308  1.7880
    9CHL1    C4  597   3.840   6.295   6.066  0.2960 -0.4517  0.1332
    9CHL1   H4A  598   3.764   6.355   6.120  1.3185 -0.6542  1.8868
    9CHL1   H4B  599   3.928   6.321   6.129  0.2068 -0.6866  0.3532
    9CHL1    C5  600   3.872   6.340   5.923 -0.4597  0.1143  0.6486
    9CHL1    C6  601   3.965   6.432   5.901 -0.0396  0.4133  0.0757
    9CHL1    H6  602   4.020   6.467   5.990 -0.1134 -0.5414  0.5169
    9CHL1    C7  603   3.994   6.497   5.769 -0.1675  0.6199 -0.3168
    9CHL1   H7A  604   3.995   6.607   5.787  0.9212  0.3735  1.3736
    9CHL1   H7B  605   4.085   6.457   5.719 -0.1254 -1.1506  1.0657
    9CHL1    C8  606   3.884   6.453   5.660  0.3808  0.7180  0.7766
    9CHL1    H8  607   3.792   6.513   5.677  0.1653  0.5922  0.0831
    9CHL1   C14  608   3.932   6.480   5.512  0.4224  0.5078 -0.0925
    9CHL1   H14  609   4.022   6.417   5.491 -1.0533 -1.3985 -1.0242
    9CHL1   C15  610   3.982   6.621   5.472 -0.6474  0.6431 -0.1942
    9CHL1  H15A  611   3.908   6.685   5.524  0.2245  3.2248 -1.9379
    9CHL1  H15B  612   4.088   6.640   5.501 -0.5702  1.7156 -1.1103
    9CHL1   C16  613   3.969   6.617   5.320 -0.0529 -0.0435  0.0566
    9CHL1  H16A  614   3.894   6.692   5.286  0.0317  0.2830  0.5764
    9CHL1  H16B  615   4.067   6.649   5.277  0.8562  0.4047  2.3500
    9CHL1   C17  616   3.909   6.476   5.275 -0.0734 -0.4849  0.0159
    9CHL1   H17  617   4.000   6.414   5.262  2.5443  2.4582  2.3739
    9CHL1   C13  618   3.834   6.425   5.404  1.2999 -0.6335  0.7113
    9CHL1   C18  619   3.703   6.511   5.404 -0.4147  0.4145 -0.4447
    9CHL1  H18A  620   3.674   6.525   5.510 -1.6710 -0.0015 -0.7159
    9CHL1  H18B  621   3.716   6.613   5.362  1.4031  0.0018 -0.9488
    9CHL1  H18C  622   3.619   6.462   5.350  0.2126 -1.4286  0.1778
    9CHL1   C12  623   3.807   6.274   5.421 -0.3045  0.9016 -0.2016
    9CHL1  H12A  624   3.736   6.223   5.352 -2.3786  1.8260  1.1274
    9CHL1  H12B  625   3.905   6.224   5.424 -0.1567  1.0216 -1.8682
    9CHL1   C11  626   3.748   6.248   5.561  0.2329 -0.3711 -0.7250
    9CHL1  H11A  627   3.651   6.298   5.582  0.3521 -0.2812 -0.3732
    9CHL1  H11B  628   3.724   6.141   5.578 -0.3938 -0.2147 -0.6149
    9CHL1    C9  629   3.844   6.300   5.677 -0.0650  0.3061  0.4261
    9CHL1    H9  630   3.936   6.241   5.656  0.2567  0.7498  0.5685
    9CHL1   C10  631   3.790   6.276   5.816  0.2385  0.6775  0.1792
    9CHL1   C19  632   3.644   6.342   5.838 -0.5086  0.5448 -0.1820
    9CHL1  H19A  633   3.558   6.297   5.785 -1.2814  1.4416  0.2980
    9CHL1  H19B  634   3.613   6.339   5.945  1.1649 -0.0029  0.3322
    9CHL1  H19C  635   3.642   6.447   5.802 -1.1482  1.2166  1.7140
    9CHL1    C1  636   3.767   6.119   5.843  0.4121  0.4774  0.0142
    9CHL1   H1A  637   3.697   6.072   5.771  0.6095 -0.3068  0.3230
    9CHL1   H1B  638   3.866   6.070   5.828  0.1396  0.3730 -1.5782
    9CHL1    C2  639   3.719   6.083   5.985 -0.7085 -0.3668  0.0607
    9CHL1   H2A  640   3.724   5.974   6.006 -1.4624 -1.0712 -2.9156
    9CHL1   H2B  641   3.613   6.111   6.004 -0.2837  2.0942 -0.7613
    9CHL1   C20  642   3.844   6.477   5.135  0.4231 -0.1739  0.5677
    9CHL1   H20  643   3.757   6.546   5.146  0.0187 -0.6257  0.2135
    9CHL1   C21  644   3.772   6.339   5.113  0.1118 -0.0323 -0.1423
    9CHL1  H21A  645   3.685   6.318   5.179 -0.2587 -1.6816 -1.1119
    9CHL1  H21B  646   3.840   6.256   5.139  0.1876 -0.6733 -2.1995
    9CHL1  H21C  647   3.733   6.337   5.009 -0.7379  0.3233  0.1540
    9CHL1   C22  648   3.928   6.520   5.019  1.0609 -0.0567 -0.5859
    9CHL1  H22A  649   3.997   6.605   5.032 -0.0132  0.7307  0.1908
    9CHL1  H22B  650   3.991   6.430   5.001 -0.6511 -2.1124  2.5710
    9CHL1   C23  651   3.846   6.562   4.895  0.6094  0.7609  0.7827
    9CHL1  H23A  652   3.764   6.491   4.874  0.0405  1.2561  1.3109
    9CHL1  H23B  653   3.796   6.657   4.925  0.7009  0.7998  0.8157
    9CHL1   C24  654   3.935   6.588   4.770 -0.4823 -0.2225  0.1558
    9CHL1  H24A  655   4.015   6.662   4.790  1.8584 -2.0809 -1.7564
    9CHL1  H24B  656   4.002   6.501   4.751  1.5965  1.3361  0.0866
    9CHL1   C25  657   3.854   6.644   4.651  0.4217  0.0450  0.1650
    9CHL1   H25  658   3.797   6.737   4.671 -2.0238 -1.2086 -0.5843
    9CHL1   C26  659   3.939   6.653   4.524  0.0913 -0.2086 -0.3612
    9CHL1  H26A  660   4.045   6.688   4.533  0.5414 -1.3823 -0.8685
    9CHL1  H26B  661   3.964   6.549   4.492  0.9540 -0.6891  1.7119
    9CHL1  H26C  662   3.886   6.706   4.443 -1.1677  2.9500  2.3056
    9CHL1   C27  663   3.733   6.545   4.628 -0.5702 -0.3066  0.0180
    9CHL1  H27A  664   3.771   6.444   4.604 -1.0837 -0.0172 -2.2431
    9CHL1  H27B  665   3.652   6.546   4.703 -1.0629  0.5739 -0.5006
    9CHL1  H27C  666   3.687   6.583   4.533  0.1910 -2.5183 -1.3108
   10CHL1    C3  667   4.093   2.165   6.232 -0.5490  0.1202 -0.2170
   10CHL1    H3  668   3.993   2.212   6.218 -0.5656 -0.3184 -1.6877
   10CHL1    O3  669   4.128   2.153   6.368 -0.7768  0.0320 -0.0941
   10CHL1   H3'  670   4.217   2.116   6.371 -0.6682  0.3431  1.4154
   10CHL1    C4  671   4.087   2.018   6.188 -0.2499 -0.1889  0.5354
   10CHL1   H4A  672   4.181   1.970   6.221  0.0588 -1.3239 -1.8019
   10CHL1   H4B  673   4.007   1.974   6.252 -1.6202 -0.3360 -1.2080
   10CHL1    C5  674   4.062   1.998   6.041 -0.1833  0.6995  0.3275
   10CHL1    C6  675   3.965   1.914   6.004 -0.0957  0.5645 -0.0909
   10CHL1    H6  676   3.914   1.861   6.085 -0.7268  1.6889  0.2706
   10CHL1    C7  677   3.928   1.879   5.863  0.2727  0.4605  0.2967
   10CHL1   H7A  678   3.945   1.770   5.850 -0.1221  0.1851  1.9064
   10CHL1   H7B  679   3.823   1.914   5.852  0.6948  2.1033  1.1449
   10CHL1    C8  680   4.018   1.956   5.760 -0.2979 -0.1139 -0.4996
   10CHL1    H8  681   4.112   1.897   5.755 -1.4139 -2.4309  2.5385
   10CHL1   C14  682   3.950   1.957   5.623 -0.1268 -0.0951 -0.4464
   10CHL1   H14  683   3.852   2.008   5.631 -1.0814 -1.8587 -0.3228
   10CHL1   C15  684   3.907   1.816   5.568  0.8397 -0.0715 -0.2046
   10CHL1  H15A  685   3.979   1.733   5.590 -0.1316 -1.1230 -0.8735
   10CHL1  H15B  686   3.806   1.792   5.607 -0.5936  4.0128 -0.9823
   10CHL1   C16  687   3.910   1.846   5.422  0.0228 -0.6950  0.1884
   10CHL1  H16A  688   3.994   1.791   5.373 -0.1106  0.1069 -0.9932
   10CHL1  H16B  689   3.822   1.830   5.356  0.8212 -0.0683 -1.0857
   10CHL1   C17  690   3.945   1.996   5.401 -0.0596  0.3217  0.6088
   10CHL1   H17  691   3.860   2.067   5.407 -1.1602 -0.8917  0.0005
   10CHL1   C13  692   4.037   2.026   5.521 -0.4405 -0.0104  0.9691
   10CHL1   C18  693   4.181   1.952   5.508 -0.0056 -0.3117  0.4562
   10CHL1  H18A  694   4.230   1.948   5.608  1.8827 -0.7459 -0.4326
   10CHL1  H18B  695   4.168   1.849   5.471  1.2549 -1.3622  2.7091
   10CHL1  H18C  696   4.243   2.005   5.432 -0.9049  0.3085  0.1333
   10CHL1   C12  697   4.043   2.169   5.569 -0.8654 -0.9376  0.5554
   10CHL1  H12A  698   4.088   2.237   5.493 -1.6174  0.8730  1.6796
   10CHL1  H12B  699   3.939   2.204   5.581 -1.0535 -1.8160  1.6086
   10CHL1   C11  700   4.118   2.179   5.702 -0.0730  0.2718 -0.3672
   10CHL1  H11A  701   4.225   2.152   5.697 -0.2090 -0.3633  0.0166
   10CHL1  H11B  702   4.115   2.284   5.738 -0.1466  0.1350  0.0326
   10CHL1    C9  703   4.055   2.090   5.811 -0.4238 -0.2909 -0.4248
   10CHL1    H9  704   3.954   2.136   5.820 -0.2714  0.2732 -1.4986
   10CHL1   C10  705   4.138   2.091   5.946 -0.6897  0.0386  0.0030
   10CHL1   C19  706   4.279   2.024   5.937 -0.2559 -0.4657  0.4627
   10CHL1  H19A  707   4.323   2.065   5.843 -2.5826 -0.1830 -0.5937
   10CHL1  H19B  708   4.337   2.044   6.029 -0.1641  0.9643  0.1255
   10CHL1  H19C  709   4.273   1.916   5.912  0.9658 -0.3950 -0.2472
   10CHL1    C1  710   4.158   2.232   6.000  0.4679 -0.9245 -0.0959
   10CHL1   H1A  711   4.228   2.287   5.934  0.1622 -0.2044  0.1645
   10CHL1   H1B  712   4.070   2.300   5.995  0.6465 -0.7988 -4.0389
   10CHL1    C2  713   4.198   2.245   6.153 -0.3480 -0.0553  0.3682
   10CHL1   H2A  714   4.202   2.351   6.184 -0.7861  0.2118 -0.4557
   10CHL1   H2B  715   4.293   2.192   6.172 -0.4760 -0.6992 -0.6778
   10CHL1   C20  716   3.998   2.017   5.253 -0.7136 -0.4831  0.2048
   10CHL1   H20  717   4.081   1.945   5.235 -1.5753 -1.3464 -0.3835
   10CHL1   C21  718   4.056   2.159   5.242 -0.2027 -0.8384  0.0883
   10CHL1  H21A  719   4.073   2.189   5.136  2.0444  0.5953  0.7770
   10CHL1  H21B  720   4.153   2.174   5.295 -0.8412 -0.2349  1.1151
   10CHL1  H21C  721   3.983   2.234   5.280 -1.7851 -2.2651 -0.0436
   10CHL1   C22  722   3.897   1.981   5.138 -0.1014  0.0824 -1.1462
   10CHL1  H22A  723   3.866   1.875   5.157 -3.6155  1.3198  1.0609
   10CHL1  H22B  724   3.813   2.053   5.142  1.2608  1.6922 -0.3815
   10CHL1   C23  725   3.950   1.991   4.996  0.5478 -0.5478  0.1737
   10CHL1  H23A  726   3.973   2.095   4.965 -0.3959 -0.0286  1.1590
   10CHL1  H23B  727   4.045   1.932   4.991  0.5898 -0.6604  1.7998
   10CHL1   C24  728   3.850   1.927   4.895 -0.1249  0.1002 -0.0830
   10CHL1  H24A  729   3.840   1.817   4.911  2.6265 -0.6905 -2.8856
   10CHL1  H24B  730   3.750   1.975   4.898  0.4153  1.5232 -2.4180
   10CHL1   C25  731   3.898   1.932   4.749  0.6095  0.2040  0.7497
   10CHL1   H25  732   3.815   1.890   4.688 -0.3485  2.2241  0.5679
   10CHL1   C26  733   3.905   2.084   4.689  0.7967  0.8647 -0.3571
   10CHL1  H26A  734   3.807   2.130   4.713  0.4774  0.1070 -0.2104
   10CHL1  H26B  735   3.981   2.141   4.747 -2.8155  1.7596  3.9865
   10CHL1  H26C  736   3.923   2.079   4.579  0.5743  1.8951 -0.4506
   10CHL1   C27  737   4.019   1.845   4.714 -0.7822 -0.1324  0.3479
   10CHL1  H27A  738   4.044   1.837   4.606  0.1203 -0.7513  0.5961
   10CHL1  H27B  739   4.108   1.889   4.763  0.1178 -0.2444 -1.1262
   10CHL1  H27C  740   4.015   1.735   4.726 -0.6063 -0.0170  1.5208
   11CHL1    C3  741   6.836   6.674   6.444  0.6278  0.2384 -0.2773
   11CHL1    H3  742   6.727   6.659   6.429  0.5911  1.5620 -1.6164
   11CHL1    O3  743   6.866   6.712   6.585 -0.5448 -0.1086  0.1238
   11CHL1   H3'  744   6.958   6.738   6.576 -1.0921  1.6517 -1.0821
   11CHL1    C4  745   6.925   6.555   6.390 -0.4389  0.0029  0.0769
   11CHL1   H4A  746   7.028   6.596   6.404  0.2487 -0.9565 -1.7919
   11CHL1   H4B  747   6.914   6.465   6.453 -3.4058  1.4698  1.8446
   11CHL1    C5  748   6.879   6.531   6.247  0.2493 -0.6941  0.2919
   11CHL1    C6  749   6.817   6.420   6.203  0.6509  0.2640  0.3866
   11CHL1    H6  750   6.804   6.354   6.290 -0.0446  0.4660  0.4395
   11CHL1    C7  751   6.756   6.384   6.070  0.2855 -0.4319 -0.1384
   11CHL1   H7A  752   6.796   6.287   6.034 -0.2687 -0.0469 -1.8966
   11CHL1   H7B  753   6.645   6.391   6.074  0.4034  2.1852  2.6664
   11CHL1    C8  754   6.811   6.481   5.964 -0.0837  0.2242  0.1125
   11CHL1    H8  755   6.916   6.450   5.945  0.0929 -1.0538  2.7186
   11CHL1   C14  756   6.725   6.472   5.835 -0.6993 -0.6039  0.3598
   11CHL1   H14  757   6.625   6.506   5.869 -0.0014  2.0049  0.0070
   11CHL1   C15  758   6.714   6.335   5.775  0.2001 -0.6169 -0.5352
   11CHL1  H15A  759   6.816   6.294   5.790  0.2687 -0.1046  0.4635
   11CHL1  H15B  760   6.647   6.267   5.832  0.8987 -0.4508  0.5184
   11CHL1   C16  761   6.665   6.359   5.634  0.5412  0.0462  0.1833
   11CHL1  H16A  762   6.726   6.310   5.555  0.2070  0.9752 -0.6758
   11CHL1  H16B  763   6.566   6.313   5.611  0.1545  0.9333  0.0010
   11CHL1   C17  764   6.673   6.513   5.611 -0.9757  0.6513  0.6311
   11CHL1   H17  765   6.566   6.536   5.626 -1.6974 -0.5101 -2.1258
   11CHL1   C13  766   6.758   6.570   5.724  0.0055  0.1470  0.3064
   11CHL1   C18  767   6.908   6.553   5.688 -0.5063  0.0694 -0.1473
   11CHL1  H18A  768   6.976   6.540   5.775 -0.9242 -0.8370  0.0473
   11CHL1  H18B  769   6.922   6.457   5.635 -2.8749 -0.1228 -0.5316
   11CHL1  H18C  770   6.952   6.634   5.626 -1.2342 -1.3973 -2.7249
   11CHL1   C12  771   6.741   6.713   5.776  0.6078 -0.1317  0.5606
   11CHL1  H12A  772   6.771   6.783   5.695  0.7570 -1.2163 -0.3520
   11CHL1  H12B  773   6.634   6.732   5.799  1.1953 -0.0381  3.5940
   11CHL1   C11  774   6.833   6.734   5.899 -0.6380  0.5787 -0.1075
   11CHL1  H11A  775   6.940   6.733   5.870 -0.0247  1.1137  1.9439
   11CHL1  H11B  776   6.807   6.835   5.937 -0.2195  0.1745  1.3308
   11CHL1    C9  777   6.805   6.629   6.013 -0.5211 -0.3687 -0.2844
   11CHL1    H9  778   6.697   6.644   6.033 -0.7133 -1.8772 -0.1242
   11CHL1   C10  779   6.882   6.657   6.149  0.0138  0.9783 -0.0182
   11CHL1   C19  780   7.029   6.672   6.104  0.0906  0.9932 -0.0360
   11CHL1  H19A  781   7.052   6.766   6.049  3.1650  1.4367  1.8080
   11CHL1  H19B  782   7.082   6.675   6.201  0.9221 -0.9212 -0.3856
   11CHL1  H19C  783   7.056   6.582   6.045 -0.9251  1.1811 -0.8361
   11CHL1    C1  784   6.820   6.777   6.215 -0.0262  0.1215  0.4091
   11CHL1   H1A  785   6.826   6.866   6.149 -1.8003  0.2309  0.3459
   11CHL1   H1B  786   6.709   6.775   6.221 -0.0865  1.9368  0.5647
   11CHL1    C2  787   6.859   6.799   6.357  0.0074  0.1391 -0.7675
   11CHL1   H2A  788   6.805   6.888   6.395  1.1994  0.4136  0.3984
   11CHL1   H2B  789   6.967   6.828   6.360 -0.6951  2.9394 -0.0763
   11CHL1   C20  790   6.720   6.552   5.469  0.2020  0.1818  0.3081
   11CHL1   H20  791   6.817   6.509   5.435  0.0228  0.1191 -0.1313
   11CHL1   C21  792   6.723   6.702   5.450  0.1421 -0.3854 -0.0582
   11CHL1  H21A  793   6.826   6.731   5.481 -0.1424 -0.2920  0.8035
   11CHL1  H21B  794   6.654   6.756   5.517  1.7338  0.1671  1.2039
   11CHL1  H21C  795   6.713   6.724   5.341  4.7935 -0.7975 -0.7953
   11CHL1   C22  796   6.615   6.494   5.361  0.3095  0.2191 -1.0902
   11CHL1  H22A  797   6.559   6.407   5.401 -0.2618  0.9621 -0.2494
   11CHL1  H22B  798   6.546   6.578   5.338 -0.6099 -0.0208  0.6338
   11CHL1   C23  799   6.679   6.447   5.235  0.1062  0.8406 -0.1156
   11CHL1  H23A  800   6.749   6.524   5.197 -1.8155  1.6471 -2.2604
   11CHL1  H23B  801   6.756   6.372   5.261  1.7951  1.8143 -2.0207
   11CHL1   C24  802   6.575   6.398   5.124  0.9848  0.7669  0.3571
   11CHL1  H24A  803   6.501   6.329   5.169  1.9444 -0.3742  0.2196
   11CHL1  H24B  804   6.522   6.490   5.091 -2.1953 -1.0590 -0.0297
   11CHL1   C25  805   6.623   6.308   5.009 -0.2339 -0.0257 -0.2198
   11CHL1   H25  806   6.709   6.247   5.044 -0.8435 -0.4190  0.6298
   11CHL1   C26  807   6.512   6.227   4.943  0.0438 -0.2789  0.1256
   11CHL1  H26A  808   6.437   6.294   4.897  0.3939  0.2531  0.3156
   11CHL1  H26B  809   6.557   6.175   4.855 -1.3821  0.5283 -1.1210
   11CHL1  H26C  810   6.465   6.148   5.005 -1.5026 -0.5289 -1.3006
   11CHL1   C27  811   6.679   6.405   4.902 -0.2269 -0.2026 -0.2891
   11CHL1  H27A  812   6.708   6.343   4.814  0.4281 -1.7261  0.9577
   11CHL1  H27B  813   6.617   6.492   4.871  0.1174 -0.3653 -1.4967
   11CHL1  H27C  814   6.771   6.462   4.928 -0.3895  0.3597 -0.9261
   12CHL1    C3  815   0.236   5.318   5.946  0.3061  0.2358 -0.5167
   12CHL1    H3  816   0.239   5.428   5.953  1.1543  0.1093  1.9649
   12CHL1    O3  817   0.259   5.280   6.080  0.0916 -0.1147 -0.2573
   12CHL1   H3'  818   0.351   5.299   6.101  0.4650 -0.2833 -1.6480
   12CHL1    C4  819   0.107   5.260   5.894 -0.4125 -0.3951 -0.1402
   12CHL1   H4A  820   0.112   5.153   5.925 -2.6549 -0.2599  0.8675
   12CHL1   H4B  821   0.025   5.298   5.958  0.1675 -1.9432  1.6101
   12CHL1    C5  822   0.083   5.281   5.749 -0.3629 -0.3944  0.3706
   12CHL1    C6  823  -0.017   5.350   5.702 -0.3957 -0.2741 -0.2737
   12CHL1    H6  824  -0.092   5.395   5.769 -2.2962 -1.0327 -1.7926
   12CHL1    C7  825  -0.040   5.376   5.557  0.1686  0.2565 -1.0112
   12CHL1   H7A  826  -0.148   5.373   5.530  0.1843  1.8326 -1.3654
   12CHL1   H7B  827   0.001   5.477   5.534  0.2822  0.1646 -1.2175
   12CHL1    C8  828   0.036   5.267   5.472 -0.4808  0.3512 -0.9869
   12CHL1    H8  829  -0.019   5.175   5.501 -0.9557  1.2342  1.1399
   12CHL1   C14  830   0.022   5.291   5.318  0.0158  0.3804  0.1866
   12CHL1   H14  831   0.064   5.391   5.298  3.4309 -1.2420 -1.5153
   12CHL1   C15  832  -0.125   5.302   5.261 -0.3666  0.3444  0.2165
   12CHL1  H15A  833  -0.189   5.217   5.293  2.6195 -3.0296 -1.9097
   12CHL1  H15B  834  -0.177   5.385   5.312  0.8450  0.8889  0.5963
   12CHL1   C16  835  -0.109   5.308   5.112 -0.7636  0.0134  0.2519
   12CHL1  H16A  836  -0.183   5.240   5.065  0.8969 -1.0317 -0.9509
   12CHL1  H16B  837  -0.111   5.411   5.069  0.1473 -0.9129 -2.1657
   12CHL1   C17  838   0.037   5.246   5.089 -0.2555  0.1078  0.0534
   12CHL1   H17  839   0.098   5.335   5.064  1.5533 -1.2123 -0.4335
   12CHL1   C13  840   0.096   5.194   5.226  0.1440 -0.0498 -0.8864
   12CHL1   C18  841   0.041   5.058   5.255 -0.1086 -0.0539 -0.6148
   12CHL1  H18A  842   0.065   5.012   5.353  3.8777 -2.0858 -2.2729
   12CHL1  H18B  843  -0.070   5.060   5.255 -0.2023 -2.5958 -0.6594
   12CHL1  H18C  844   0.080   4.990   5.176  2.4132  1.4052 -0.7655
   12CHL1   C12  845   0.248   5.198   5.260 -0.7583  0.2499 -0.2610
   12CHL1  H12A  846   0.294   5.109   5.212 -1.6924  0.3954 -1.4761
   12CHL1  H12B  847   0.307   5.289   5.237  1.9832 -1.5989 -1.0999
   12CHL1   C11  848   0.276   5.174   5.412  0.7473  0.1199 -0.1309
   12CHL1  H11A  849   0.264   5.065   5.427  0.8266  0.3867  2.2607
   12CHL1  H11B  850   0.384   5.188   5.436  0.5597  2.5469 -0.4749
   12CHL1    C9  851   0.182   5.258   5.511 -0.6446 -0.6947  0.3949
   12CHL1    H9  852   0.224   5.361   5.502  1.9535 -1.5737  1.4628
   12CHL1   C10  853   0.194   5.222   5.660 -0.6184 -0.3823  1.1827
   12CHL1   C19  854   0.187   5.067   5.669  0.4533  0.3714 -0.5158
   12CHL1  H19A  855   0.189   5.045   5.778  0.1924 -0.3101 -0.6445
   12CHL1  H19B  856   0.092   5.033   5.623  0.8918 -1.7235  0.0384
   12CHL1  H19C  857   0.269   5.014   5.616  0.3980  1.4704 -1.7676
   12CHL1    C1  858   0.335   5.275   5.708 -0.4429  0.5004  0.3037
   12CHL1   H1A  859   0.403   5.209   5.650 -1.1081 -0.8193  0.9970
   12CHL1   H1B  860   0.341   5.380   5.672  0.5051  0.5526  0.5777
   12CHL1    C2  861   0.359   5.269   5.865 -0.5892  0.6794  0.9599
   12CHL1   H2A  862   0.440   5.337   5.897  1.7573 -1.5660  0.1833
   12CHL1   H2B  863   0.381   5.166   5.900 -0.2984  0.6090  0.5811
   12CHL1   C20  864   0.042   5.151   4.969 -0.3574 -0.5684 -0.2998
   12CHL1   H20  865  -0.006   5.057   5.003  0.7459 -0.6838  1.0322
   12CHL1   C21  866   0.195   5.127   4.928  0.6076  0.5795  0.7883
   12CHL1  H21A  867   0.201   5.068   4.834 -1.8289 -0.6562  1.3111
   12CHL1  H21B  868   0.244   5.078   5.015 -1.1142  0.6618  1.8477
   12CHL1  H21C  869   0.247   5.222   4.906  0.1538  0.4245 -1.1763
   12CHL1   C22  870  -0.030   5.206   4.834 -0.1697 -0.0789  0.2515
   12CHL1  H22A  871   0.001   5.132   4.756  2.3221  1.3962 -0.2769
   12CHL1  H22B  872  -0.139   5.195   4.848 -0.5851  1.4819 -1.3794
   12CHL1   C23  873   0.003   5.343   4.782 -0.4913  0.1448 -0.0388
   12CHL1  H23A  874  -0.040   5.410   4.859 -1.5565  0.4229 -0.8547
   12CHL1  H23B  875   0.111   5.365   4.767 -0.7654  1.3472 -0.3721
   12CHL1   C24  876  -0.080   5.360   4.656 -0.0344  0.2821  0.4519
   12CHL1  H24A  877  -0.050   5.298   4.569 -1.4901  2.1061 -1.4406
   12CHL1  H24B  878  -0.178   5.322   4.692  0.4782 -0.9626  0.5943
   12CHL1   C25  879  -0.101   5.503   4.621 -0.1172  0.2897 -0.7704
   12CHL1   H25  880  -0.143   5.559   4.707 -2.2378  1.7313 -2.5898
   12CHL1   C26  881   0.019   5.570   4.572  0.3805 -0.3938  0.2200
   12CHL1  H26A  882   0.092   5.584   4.654  0.5071  0.1938  0.0085
   12CHL1  H26B  883   0.076   5.510   4.497 -0.8069 -0.7289 -0.4353
   12CHL1  H26C  884   0.012   5.670   4.524  1.4876 -0.4933 -0.1806
   12CHL1   C27  885  -0.219   5.504   4.521 -0.0798 -0.1474 -0.0235
   12CHL1  H27A  886  -0.175   5.466   4.426  1.5377 -1.4308  1.1793
   12CHL1  H27B  887  -0.306   5.445   4.559  0.5865 -1.1736 -0.0349
   12CHL1  H27C  888  -0.245   5.610   4.504 -0.3503 -0.2315 -0.1328
   13CHL1    C3  889   0.363   6.202   6.303 -0.1965 -0.0712 -0.1921
   13CHL1    H3  890   0.259   6.239   6.319 -0.5913 -1.1221 -0.2536
   13CHL1    O3  891   0.411   6.161   6.433  0.6914 -0.2989 -0.4992
   13CHL1   H3'  892   0.329   6.124   6.469 -0.2861  0.3466 -1.9664
   13CHL1    C4  893   0.366   6.086   6.204 -0.3009  0.2460 -0.2508
   13CHL1   H4A  894   0.467   6.039   6.206  0.7210  2.3332  0.2458
   13CHL1   H4B  895   0.288   6.016   6.243  0.0329 -0.3270 -0.5923
   13CHL1    C5  896   0.341   6.126   6.060  0.6901  0.1557  0.1909
   13CHL1    C6  897   0.234   6.075   5.998  0.6882 -0.3964 -0.0327
   13CHL1    H6  898   0.175   5.994   6.045  0.4446  0.7146  1.6756
   13CHL1    C7  899   0.205   6.106   5.854 -0.3324  0.2344  0.4396
   13CHL1   H7A  900   0.186   6.012   5.799  2.1088  0.4000 -0.8260
   13CHL1   H7B  901   0.113   6.167   5.841  1.0914  2.2888 -0.6901
   13CHL1    C8  902   0.322   6.177   5.774 -0.1933  0.1518  0.0210
   13CHL1    H8  903   0.403   6.103   5.755 -0.3403  0.6026 -2.8559
   13CHL1   C14  904   0.284   6.234   5.646 -0.2056 -0.3980 -0.6984
   13CHL1   H14  905   0.215   6.315   5.677  1.7249  0.5269  1.5233
   13CHL1   C15  906   0.195   6.148   5.547 -0.9870  0.4223  0.1388
   13CHL1  H15A  907   0.227   6.042   5.554 -1.0428  0.4983  1.8487
   13CHL1  H15B  908   0.089   6.161   5.579 -1.2635 -1.8828  0.2858
   13CHL1   C16  909   0.232   6.209   5.409 -0.5053 -0.7996  0.0279
   13CHL1  H16A  910   0.292   6.125   5.368 -0.1833  0.3504 -2.0150
   13CHL1  H16B  911   0.149   6.235   5.339  0.9256  1.6553 -0.8736
   13CHL1   C17  912   0.320   6.338   5.432  0.6412  0.4371  0.2239
   13CHL1   H17  913   0.236   6.410   5.444  1.1100  0.8525  1.0976
   13CHL1   C13  914   0.394   6.312   5.566  0.0423 -0.2127 -0.2364
   13CHL1   C18  915   0.507   6.210   5.543 -0.1246  0.5131  0.3140
   13CHL1  H18A  916   0.549   6.182   5.642 -1.4171  0.8077  0.9709
   13CHL1  H18B  917   0.484   6.116   5.487  1.8811 -0.4357  0.9987
   13CHL1  H18C  918   0.582   6.268   5.486  0.6856 -0.9192 -0.1280
   13CHL1   C12  919   0.433   6.436   5.654  0.4374  0.4623  0.4671
   13CHL1  H12A  920   0.520   6.498   5.623  2.2064 -1.3972  1.4634
   13CHL1  H12B  921   0.339   6.495   5.655 -0.2728 -0.6252 -0.3610
   13CHL1   C11  922   0.476   6.381   5.799 -0.3901  0.0605 -0.3839
   13CHL1  H11A  923   0.580   6.341   5.789  0.2898  1.4761  0.6610
   13CHL1  H11B  924   0.489   6.468   5.866 -1.7293  0.6340 -0.8486
   13CHL1    C9  925   0.375   6.288   5.865  0.4410 -0.5903  0.4109
   13CHL1    H9  926   0.289   6.357   5.877 -0.4729 -1.2106 -1.9490
   13CHL1   C10  927   0.433   6.237   6.004 -0.2864  0.2696  0.2275
   13CHL1   C19  928   0.575   6.173   5.989 -0.3110  0.0974 -0.0494
   13CHL1  H19A  929   0.650   6.249   5.959 -0.8271 -0.0419 -1.7553
   13CHL1  H19B  930   0.610   6.117   6.079 -0.7914  2.0052  1.3779
   13CHL1  H19C  931   0.563   6.097   5.909  1.9525 -0.5594  0.1429
   13CHL1    C1  932   0.443   6.347   6.104 -0.5160 -0.0476  0.5856
   13CHL1   H1A  933   0.520   6.419   6.069 -1.1146 -0.2499 -1.2709
   13CHL1   H1B  934   0.348   6.403   6.113 -0.4719  0.2478 -0.6107
   13CHL1    C2  935   0.466   6.305   6.251  0.1564  0.4915 -0.2239
   13CHL1   H2A  936   0.442   6.388   6.320 -0.9759 -0.8721  1.1059
   13CHL1   H2B  937   0.569   6.267   6.268 -1.0747 -2.3340  1.7755
   13CHL1   C20  938   0.395   6.383   5.306  0.5585  0.6250  0.3460
   13CHL1   H20  939   0.482   6.319   5.282 -1.3038 -1.8323 -0.1896
   13CHL1   C21  940   0.451   6.521   5.338 -0.4400  0.2813  0.3323
   13CHL1  H21A  941   0.519   6.523   5.426 -1.0211 -0.1417  0.8084
   13CHL1  H21B  942   0.361   6.579   5.368  0.6723  0.9092  2.7263
   13CHL1  H21C  943   0.499   6.571   5.252  0.7494 -0.1402  0.7313
   13CHL1   C22  944   0.307   6.402   5.181 -0.3611  0.3614 -1.3538
   13CHL1  H22A  945   0.236   6.320   5.157 -1.3193  1.1370 -1.2470
   13CHL1  H22B  946   0.258   6.500   5.198 -0.6899  0.1305 -0.9683
   13CHL1   C23  947   0.385   6.412   5.048 -0.4331 -0.1601 -0.7558
   13CHL1  H23A  948   0.481   6.465   5.070 -0.5323 -0.1105 -0.4321
   13CHL1  H23B  949   0.418   6.315   5.005  1.0931 -1.2174  2.4963
   13CHL1   C24  950   0.311   6.497   4.943 -0.3016  0.4369  0.4749
   13CHL1  H24A  951   0.220   6.542   4.987 -0.7305 -0.5000  0.5721
   13CHL1  H24B  952   0.372   6.585   4.911 -1.1094  1.6494  2.1171
   13CHL1   C25  953   0.277   6.429   4.813 -0.3142 -0.0516  0.1174
   13CHL1   H25  954   0.373   6.398   4.766 -0.0592  1.8372 -0.7287
   13CHL1   C26  955   0.189   6.304   4.827  0.4985  0.1493  0.3249
   13CHL1  H26A  956   0.088   6.324   4.869  0.3161  1.4696 -0.6852
   13CHL1  H26B  957   0.162   6.250   4.734 -1.6307 -2.4289  2.2440
   13CHL1  H26C  958   0.240   6.223   4.884  1.5732 -0.8074 -1.8942
   13CHL1   C27  959   0.214   6.526   4.711  0.0758 -0.1897  0.2251
   13CHL1  H27A  960   0.184   6.467   4.622 -1.4793  3.8199 -2.1688
   13CHL1  H27B  961   0.124   6.586   4.737  0.1227  0.5146 -1.1453
   13CHL1  H27C  962   0.292   6.602   4.687  0.8896  0.0573  3.1935
   14CHL1    C3  963   0.639   2.499   6.138  0.1758 -0.1033  0.4374
   14CHL1    H3  964   0.745   2.525   6.115  0.0483 -0.0336 -0.0803
   14CHL1    O3  965   0.622   2.520   6.277  0.5057  0.3198 -0.1572
   14CHL1   H3'  966   0.563   2.447   6.297  1.7086 -0.9233 -0.9373
   14CHL1    C4  967   0.548   2.586   6.051  0.4393 -0.4767 -0.4472
   14CHL1   H4A  968   0.443   2.580   6.089  0.3287  0.7984 -0.5381
   14CHL1   H4B  969   0.593   2.686   6.067  0.1929 -0.4331  0.0004
   14CHL1    C5  970   0.550   2.545   5.909 -0.1609  0.0263  0.1955
   14CHL1    C6  971   0.585   2.636   5.814 -0.6659 -0.1055  1.0186
   14CHL1    H6  972   0.611   2.741   5.835 -0.2563 -0.2667  1.3163
   14CHL1    C7  973   0.585   2.603   5.665  0.2482 -0.8440 -0.3347
   14CHL1   H7A  974   0.560   2.687   5.596  2.4214 -0.2175 -0.4381
   14CHL1   H7B  975   0.687   2.578   5.628 -0.0178  0.6825 -2.2671
   14CHL1    C8  976   0.499   2.476   5.630  0.3181 -0.1841 -0.4299
   14CHL1    H8  977   0.392   2.504   5.642 -0.3620 -2.5244 -0.5491
   14CHL1   C14  978   0.529   2.443   5.485 -0.1352  0.5958 -0.3270
   14CHL1   H14  979   0.638   2.429   5.469  0.3865  2.9755  0.7302
   14CHL1   C15  980   0.503   2.546   5.379  0.0250  0.0346 -0.8572
   14CHL1  H15A  981   0.400   2.585   5.396 -0.7035 -2.5983  1.6381
   14CHL1  H15B  982   0.574   2.630   5.365  2.4545 -1.5204  1.2977
   14CHL1   C16  983   0.501   2.455   5.249  0.0071  0.1233 -0.3294
   14CHL1  H16A  984   0.411   2.473   5.187 -1.6258 -1.6972  1.3746
   14CHL1  H16B  985   0.587   2.477   5.183  0.4017  2.3640  0.8317
   14CHL1   C17  986   0.506   2.311   5.297 -0.2246  0.8322  0.2203
   14CHL1   H17  987   0.616   2.292   5.296 -0.0431  1.8075  0.2848
   14CHL1   C13  988   0.455   2.312   5.444  0.4548  0.2036  0.4135
   14CHL1   C18  989   0.303   2.319   5.451  0.1114  0.0843 -0.0284
   14CHL1  H18A  990   0.271   2.404   5.387 -1.2431 -0.1697  0.2777
   14CHL1  H18B  991   0.255   2.227   5.412  0.0621  0.7430 -1.5732
   14CHL1  H18C  992   0.273   2.333   5.557 -0.5138  1.5181 -0.3637
   14CHL1   C12  993   0.497   2.197   5.535 -0.0163  0.5406  0.5070
   14CHL1  H12A  994   0.437   2.106   5.517 -0.3470  0.7280  0.6514
   14CHL1  H12B  995   0.605   2.174   5.519 -0.0955  0.0170  0.7118
   14CHL1   C11  996   0.484   2.226   5.689  0.0598 -0.5761 -0.6371
   14CHL1  H11A  997   0.376   2.224   5.716  0.5201 -0.4645  1.3481
   14CHL1  H11B  998   0.541   2.146   5.741  3.4644  2.4326  0.6677
   14CHL1    C9  999   0.540   2.366   5.732 -0.0528  0.5401 -0.4116
   14CHL1    H9 1000   0.649   2.364   5.709  0.3161 -0.5266  1.2412
   14CHL1   C10 1001   0.511   2.397   5.878  0.3403 -0.3589 -0.5315
   14CHL1   C19 1002   0.363   2.376   5.921 -0.5017  0.1930 -1.3240
   14CHL1  H19A 1003   0.306   2.432   5.844 -0.9151  2.7954  0.7140
   14CHL1  H19B 1004   0.348   2.266   5.918  0.8123 -0.0902  0.5654
   14CHL1  H19C 1005   0.340   2.421   6.020  1.0297  3.6010 -2.3538
   14CHL1    C1 1006   0.602   2.313   5.965  0.5085 -0.0966 -0.4255
   14CHL1   H1A 1007   0.568   2.208   5.955  0.5508 -0.2167  0.5928
   14CHL1   H1B 1008   0.707   2.323   5.930  1.2512 -0.1047  1.6580
   14CHL1    C2 1009   0.608   2.351   6.119 -0.4049  0.5850  0.0457
   14CHL1   H2A 1010   0.683   2.282   6.164  1.3856  2.0573 -0.5745
   14CHL1   H2B 1011   0.506   2.319   6.150 -1.3233 -0.2383 -3.3809
   14CHL1   C20 1012   0.438   2.210   5.198  0.0137  0.2321  0.8159
   14CHL1   H20 1013   0.334   2.240   5.175  0.1723  0.2394  0.0743
   14CHL1   C21 1014   0.428   2.070   5.252  0.1405 -0.1578 -0.4536
   14CHL1  H21A 1015   0.342   2.068   5.323 -0.6258  0.5529 -1.3316
   14CHL1  H21B 1016   0.520   2.032   5.300  0.9141  0.4713 -1.4048
   14CHL1  H21C 1017   0.403   1.993   5.176 -0.3393 -1.0766  0.6068
   14CHL1   C22 1018   0.509   2.212   5.057  0.0666 -0.0398 -0.0403
   14CHL1  H22A 1019   0.560   2.307   5.031  0.8245 -0.3604  0.2451
   14CHL1  H22B 1020   0.599   2.148   5.075  0.4992  0.8900  1.2468
   14CHL1   C23 1021   0.426   2.168   4.939  0.1726 -0.0772  0.0715
   14CHL1  H23A 1022   0.404   2.059   4.949 -1.3203  0.1811 -0.2535
   14CHL1  H23B 1023   0.334   2.224   4.912 -1.0810 -2.4384 -0.9120
   14CHL1   C24 1024   0.519   2.185   4.814  0.2405  0.0582 -0.1860
   14CHL1  H24A 1025   0.567   2.285   4.823 -1.1092  0.8247 -1.2299
   14CHL1  H24B 1026   0.601   2.110   4.821 -0.2060 -0.2986  3.0995
   14CHL1   C25 1027   0.461   2.184   4.668 -0.6667  0.0334 -0.0307
   14CHL1   H25 1028   0.373   2.251   4.678 -1.2904 -0.9402  1.6511
   14CHL1   C26 1029   0.572   2.223   4.576  0.1350  0.6392  0.0974
   14CHL1  H26A 1030   0.669   2.170   4.584  1.1151  2.2957 -0.2038
   14CHL1  H26B 1031   0.540   2.206   4.470  0.1376 -2.8709  0.5443
   14CHL1  H26C 1032   0.604   2.329   4.592 -1.5043  1.0560  0.7761
   14CHL1   C27 1033   0.394   2.052   4.633 -0.1975  0.4852 -0.4671
   14CHL1  H27A 1034   0.356   2.045   4.529 -2.3529  3.3789  0.0126
   14CHL1  H27B 1035   0.466   1.974   4.667  0.3606  1.5896  0.9955
   14CHL1  H27C 1036   0.300   2.030   4.688 -0.5361 -2.2200 -1.9607
   15CHL1    C3 1037   4.024   0.378   6.055 -0.5099 -0.3170  0.2460
   15CHL1    H3 1038   4.135   0.386   6.062 -0.4859 -1.2120  1.0660
   15CHL1    O3 1039   3.970   0.341   6.180 -0.0049  0.1078  0.3163
   15CHL1   H3' 1040   4.026   0.265   6.203 -1.5811 -0.7556  1.4629
   15CHL1    C4 1041   3.982   0.523   6.026 -0.1147  1.0698 -0.1667
   15CHL1   H4A 1042   3.873   0.526   6.051 -0.1669 -0.6149 -0.0337
   15CHL1   H4B 1043   4.030   0.586   6.104 -1.9937 -1.4531  3.3103
   15CHL1    C5 1044   4.010   0.581   5.890  0.0800  0.2975 -0.2550
   15CHL1    C6 1045   4.089   0.688   5.872 -0.8300 -0.3399  0.4568
   15CHL1    H6 1046   4.140   0.735   5.957 -1.6272  0.4024  0.5399
   15CHL1    C7 1047   4.124   0.743   5.736  0.1120 -0.5190  0.3643
   15CHL1   H7A 1048   4.131   0.854   5.742  2.9802 -0.6212  0.4031
   15CHL1   H7B 1049   4.229   0.717   5.714 -0.5250 -2.7253 -0.2742
   15CHL1    C8 1050   4.027   0.691   5.627 -0.6105  0.1189  0.6071
   15CHL1    H8 1051   3.924   0.725   5.651 -0.7055  0.3559 -0.1055
   15CHL1   C14 1052   4.075   0.733   5.495  0.2238  0.4649 -1.2945
   15CHL1   H14 1053   4.180   0.700   5.484 -0.0261 -1.1453  0.6236
   15CHL1   C15 1054   4.064   0.884   5.478 -0.5623  0.6076  0.1144
   15CHL1  H15A 1055   3.972   0.928   5.521 -0.5707  0.4445  0.2657
   15CHL1  H15B 1056   4.150   0.930   5.532 -0.7564 -1.2110  2.1514
   15CHL1   C16 1057   4.074   0.895   5.322 -0.1973 -0.8756 -0.3237
   15CHL1  H16A 1058   3.982   0.949   5.290 -0.7434 -1.2294  0.5898
   15CHL1  H16B 1059   4.160   0.959   5.293 -0.8429  0.2630  0.2066
   15CHL1   C17 1060   4.062   0.750   5.266  0.3875  0.6238 -0.0344
   15CHL1   H17 1061   4.165   0.711   5.255  0.5628  0.6773  1.3075
   15CHL1   C13 1062   3.993   0.669   5.376 -0.4423 -0.2284 -0.3875
   15CHL1   C18 1063   3.843   0.708   5.382 -0.3972 -0.2004 -0.0978
   15CHL1  H18A 1064   3.837   0.819   5.377  0.2978 -0.1639 -0.1294
   15CHL1  H18B 1065   3.786   0.658   5.300  1.9407  0.2409 -2.1274
   15CHL1  H18C 1066   3.802   0.691   5.483 -1.4030  0.8783 -0.2995
   15CHL1   C12 1067   4.011   0.514   5.373 -0.3288 -0.8174 -0.3025
   15CHL1  H12A 1068   3.943   0.474   5.295  0.5120 -2.7942 -0.0858
   15CHL1  H12B 1069   4.116   0.483   5.354 -0.2091 -0.4955 -0.1676
   15CHL1   C11 1070   3.961   0.464   5.506 -0.1252  0.0280  0.9494
   15CHL1  H11A 1071   3.851   0.480   5.508 -0.0147  1.9451 -2.3846
   15CHL1  H11B 1072   3.993   0.357   5.512  4.3619  1.1216  0.0049
   15CHL1    C9 1073   4.022   0.534   5.634 -0.4292 -0.4759 -0.2381
   15CHL1    H9 1074   4.129   0.505   5.639 -0.7798 -1.7185  3.6010
   15CHL1   C10 1075   3.962   0.492   5.773 -0.2812  0.5108 -0.2633
   15CHL1   C19 1076   3.809   0.489   5.770  0.2951  0.2858 -0.0333
   15CHL1  H19A 1077   3.751   0.484   5.865  0.2315  1.4446  0.0035
   15CHL1  H19B 1078   3.773   0.581   5.721  1.5287 -0.2810 -2.1569
   15CHL1  H19C 1079   3.769   0.403   5.712  0.1942 -1.4912  2.5033
   15CHL1    C1 1080   4.013   0.348   5.799  0.0058  0.3712 -0.2060
   15CHL1   H1A 1081   3.985   0.275   5.719  1.4298  0.6589 -1.0033
   15CHL1   H1B 1082   4.124   0.351   5.805  0.0046 -1.1454  1.1073
   15CHL1    C2 1083   3.977   0.287   5.945  0.0614  0.3965  0.4509
   15CHL1   H2A 1084   4.028   0.188   5.950 -0.6271 -0.1381 -1.8562
   15CHL1   H2B 1085   3.866   0.292   5.952 -0.0104  1.1258 -0.8881
   15CHL1   C20 1086   4.004   0.751   5.123 -0.6719 -0.0580 -0.0163
   15CHL1   H20 1087   3.907   0.806   5.127 -0.4533  0.2748  2.3877
   15CHL1   C21 1088   3.975   0.603   5.067  0.4129 -0.4330  0.7411
   15CHL1  H21A 1089   3.938   0.596   4.963 -4.5827  2.4350  2.0302
   15CHL1  H21B 1090   3.889   0.552   5.117 -1.5022  1.4419 -0.5119
   15CHL1  H21C 1091   4.073   0.551   5.078  0.7185 -0.4734 -1.7107
   15CHL1   C22 1092   4.093   0.835   5.027 -0.5010  0.3466  0.2283
   15CHL1  H22A 1093   4.123   0.923   5.088  0.9516 -0.4854  0.7564
   15CHL1  H22B 1094   4.178   0.776   4.985 -0.3811  0.9221 -0.3535
   15CHL1   C23 1095   4.028   0.887   4.901 -0.3716  0.2199 -0.4633
   15CHL1  H23A 1096   3.987   0.804   4.840 -0.9164  0.9405 -1.0852
   15CHL1  H23B 1097   3.944   0.954   4.930  2.2167  2.9978  1.2983
   15CHL1   C24 1098   4.124   0.959   4.806  0.5432  0.3143 -0.2343
   15CHL1  H24A 1099   4.172   1.043   4.862  0.3632  1.5985 -1.9184
   15CHL1  H24B 1100   4.198   0.884   4.772  0.2127 -0.6702  1.1031
   15CHL1   C25 1101   4.051   1.007   4.676  0.5006 -0.1983 -0.2243
   15CHL1   H25 1102   3.992   0.926   4.630  1.0564 -0.7861  0.0709
   15CHL1   C26 1103   3.967   1.130   4.715 -0.8171  0.1926  0.1654
   15CHL1  H26A 1104   3.881   1.107   4.781  0.2857  0.7380  1.8628
   15CHL1  H26B 1105   4.042   1.193   4.767  1.0647 -1.8522  0.0849
   15CHL1  H26C 1106   3.924   1.182   4.626  0.5990 -1.7140 -1.7468
   15CHL1   C27 1107   4.155   1.041   4.578  0.6763  0.1510 -0.0172
   15CHL1  H27A 1108   4.100   1.084   4.491  0.6590 -0.9089 -0.5471
   15CHL1  H27B 1109   4.225   1.118   4.616  0.5450  0.3457 -0.1665
   15CHL1  H27C 1110   4.214   0.955   4.540 -0.8964 -0.5656 -0.9447
   16CHL1    C3 1111   2.950   6.129   6.054 -0.4605 -0.2265 -0.5348
   16CHL1    H3 1112   2.850   6.109   6.011 -0.8474  0.3014  0.1109
   16CHL1    O3 1113   2.941   6.136   6.198  0.0619 -0.2012 -0.1761
   16CHL1   H3' 1114   3.027   6.119   6.238  0.6264  2.0283 -0.3382
   16CHL1    C4 1115   3.025   5.996   6.020 -0.4794  0.0075  0.5469
   16CHL1   H4A 1116   3.118   5.990   6.080 -0.8409 -2.3252  0.9752
   16CHL1   H4B 1117   2.970   5.907   6.059  1.2593 -1.5639 -0.3750
   16CHL1    C5 1118   3.067   5.984   5.875 -0.1003 -0.1797 -0.6176
   16CHL1    C6 1119   3.039   5.869   5.809 -0.4498 -0.3956 -0.4055
   16CHL1    H6 1120   2.993   5.785   5.864  0.3221 -0.1710  0.6099
   16CHL1    C7 1121   3.090   5.856   5.671  0.1756  0.4430  0.2848
   16CHL1   H7A 1122   3.121   5.750   5.658 -3.1888 -0.5067 -1.0447
   16CHL1   H7B 1123   3.014   5.864   5.591  0.0920  1.1772  0.4305
   16CHL1    C8 1124   3.197   5.961   5.634 -0.8600  0.2695 -0.2025
   16CHL1    H8 1125   3.290   5.930   5.687 -1.1616 -1.7975 -0.7783
   16CHL1   C14 1126   3.221   5.954   5.488 -0.5116  0.8401 -0.2246
   16CHL1   H14 1127   3.123   5.975   5.440 -0.9110  0.1638  0.2728
   16CHL1   C15 1128   3.265   5.821   5.431 -0.3721  0.4144  0.0062
   16CHL1  H15A 1129   3.352   5.778   5.486  1.1282  2.3335 -0.7486
   16CHL1  H15B 1130   3.182   5.747   5.428 -0.5016  0.4436  1.8710
   16CHL1   C16 1131   3.316   5.855   5.283  0.0324 -0.3236 -0.3848
   16CHL1  H16A 1132   3.422   5.823   5.286  0.2768  0.2973  3.6463
   16CHL1  H16B 1133   3.262   5.812   5.196 -1.3376  1.4132 -0.4451
   16CHL1   C17 1134   3.321   6.014   5.279  0.2352  0.4427 -0.4269
   16CHL1   H17 1135   3.223   6.049   5.242  0.0854 -0.4163 -0.8695
   16CHL1   C13 1136   3.325   6.057   5.432  0.2384 -0.0068  0.5304
   16CHL1   C18 1137   3.469   6.029   5.491  0.8359  0.0169  0.0169
   16CHL1  H18A 1138   3.456   6.047   5.600  2.3046 -0.1150  0.2357
   16CHL1  H18B 1139   3.503   5.924   5.483  0.5560  0.0321 -1.8793
   16CHL1  H18C 1140   3.541   6.104   5.451 -2.7403  2.2086 -3.0394
   16CHL1   C12 1141   3.265   6.201   5.453 -0.3047  1.1853 -0.7058
   16CHL1  H12A 1142   3.333   6.281   5.418  0.4076  0.9615  0.1101
   16CHL1  H12B 1143   3.180   6.204   5.381 -1.9283  2.7643  1.1571
   16CHL1   C11 1144   3.222   6.219   5.596  0.3035 -0.7619 -0.4478
   16CHL1  H11A 1145   3.312   6.254   5.651 -0.9610  2.0740 -0.0446
   16CHL1  H11B 1146   3.148   6.300   5.584  0.8066 -0.1113  0.7181
   16CHL1    C9 1147   3.145   6.099   5.664 -0.1364  0.0493 -0.2697
   16CHL1    H9 1148   3.042   6.094   5.622  0.3491 -3.8565 -1.3799
   16CHL1   C10 1149   3.129   6.115   5.820 -0.3704  0.1406 -0.3660
   16CHL1   C19 1150   3.269   6.126   5.886 -0.0239 -0.4585  0.9831
   16CHL1  H19A 1151   3.345   6.058   5.842  0.9216  0.8905  0.4691
   16CHL1  H19B 1152   3.314   6.227   5.879 -2.1934  0.4849 -0.2417
   16CHL1  H19C 1153   3.259   6.111   5.995 -1.5168 -0.9708  0.8001
   16CHL1    C1 1154   3.032   6.237   5.856  0.9286  0.4149  0.6346
   16CHL1   H1A 1155   3.063   6.335   5.814 -1.3362  0.9722  0.1142
   16CHL1   H1B 1156   2.937   6.217   5.802 -0.0502  0.0623  2.4141
   16CHL1    C2 1157   3.006   6.258   6.003  0.2259  0.8059 -0.0246
   16CHL1   H2A 1158   2.935   6.342   6.022 -2.0747 -0.9250 -0.4526
   16CHL1   H2B 1159   3.097   6.301   6.050 -0.0230  0.1471  1.0928
   16CHL1   C20 1160   3.416   6.078   5.181  0.1557 -0.6835  0.1546
   16CHL1   H20 1161   3.523   6.077   5.213 -0.5520  1.9947  3.1896
   16CHL1   C21 1162   3.395   6.228   5.174 -0.1561 -0.4105 -0.0905
   16CHL1  H21A 1163   3.432   6.285   5.262 -1.1805 -0.2473  0.2475
   16CHL1  H21B 1164   3.289   6.249   5.149  0.2234  0.4948 -1.0688
   16CHL1  H21C 1165   3.457   6.266   5.090  0.5738 -1.0848  0.1380
   16CHL1   C22 1166   3.407   6.016   5.040 -0.1899  0.0783  0.0826
   16CHL1  H22A 1167   3.477   6.062   4.967 -0.9368 -1.3316 -1.6117
   16CHL1  H22B 1168   3.467   5.923   5.050 -0.1228  0.1990  0.8635
   16CHL1   C23 1169   3.269   6.007   4.979 -0.0683 -0.3451 -0.5179
   16CHL1  H23A 1170   3.200   5.958   5.050  1.8758 -1.0379  0.9725
   16CHL1  H23B 1171   3.242   6.114   4.965 -0.1740 -0.3178 -0.1172
   16CHL1   C24 1172   3.259   5.946   4.844 -0.1931  0.4324  0.4399
   16CHL1  H24A 1173   3.313   5.996   4.761 -0.1164 -2.1333 -1.1779
   16CHL1  H24B 1174   3.303   5.844   4.849  1.0385  0.9551  0.3996
   16CHL1   C25 1175   3.116   5.939   4.791 -0.3737  0.1312  0.7701
   16CHL1   H25 1176   3.059   5.872   4.859  0.7146 -1.6085  0.0240
   16CHL1   C26 1177   3.043   6.068   4.802  1.0534 -1.2188 -0.3976
   16CHL1  H26A 1178   3.036   6.107   4.905 -0.1509 -1.4474 -0.3785
   16CHL1  H26B 1179   3.104   6.144   4.748  2.4452 -0.8756  1.5509
   16CHL1  H26C 1180   2.943   6.054   4.755  1.2597  0.6778 -1.5261
   16CHL1   C27 1181   3.109   5.876   4.649 -0.3004 -0.1965  0.1839
   16CHL1  H27A 1182   3.161   5.777   4.648  1.2799  0.5544  2.2165
   16CHL1  H27B 1183   3.003   5.855   4.622 -0.9205  1.8651  0.8571
   16CHL1  H27C 1184   3.131   5.938   4.560  1.7061 -3.0263 -1.4785
   17CHL1    C3 1185   1.329   3.380   5.897  0.4322  0.0515 -0.0499
   17CHL1    H3 1186   1.315   3.270   5.899  0.4424  0.0311  2.8550
   17CHL1    O3 1187   1.377   3.412   6.031 -0.1567  0.5247  0.5383
   17CHL1   H3' 1188   1.307   3.368   6.080 -0.9384 -1.0582 -1.8751
   17CHL1    C4 1189   1.446   3.423   5.795  0.2544 -0.3441 -0.1994
   17CHL1   H4A 1190   1.494   3.519   5.822 -0.6655  0.4159 -1.1501
   17CHL1   H4B 1191   1.520   3.341   5.801 -0.1891 -0.7310  0.0787
   17CHL1    C5 1192   1.397   3.425   5.654 -0.3620 -0.0809 -0.3050
   17CHL1    C6 1193   1.470   3.377   5.554 -1.2236  0.0946  0.0695
   17CHL1    H6 1194   1.572   3.341   5.574 -0.4822  1.9901 -0.1252
   17CHL1    C7 1195   1.441   3.374   5.409  0.6015 -0.9888  0.4474
   17CHL1   H7A 1196   1.525   3.401   5.341  0.5476 -0.9055  0.4147
   17CHL1   H7B 1197   1.414   3.268   5.388  0.5850 -0.4928 -2.4329
   17CHL1    C8 1198   1.314   3.462   5.382 -0.2904 -0.7226  0.0888
   17CHL1    H8 1199   1.353   3.566   5.383  1.5502 -1.3553 -0.1622
   17CHL1   C14 1200   1.261   3.424   5.244 -0.3242 -0.3354 -0.5960
   17CHL1   H14 1201   1.219   3.323   5.262 -0.9650  0.3903  2.4865
   17CHL1   C15 1202   1.356   3.404   5.125  0.5356 -0.0122  0.7498
   17CHL1  H15A 1203   1.420   3.492   5.102 -1.7460  1.7313  0.6500
   17CHL1  H15B 1204   1.403   3.305   5.112  0.5838  0.1596 -0.5310
   17CHL1   C16 1205   1.258   3.410   5.000  0.3306 -0.4985  0.1777
   17CHL1  H16A 1206   1.289   3.483   4.922 -1.0649 -0.1021 -0.0506
   17CHL1  H16B 1207   1.249   3.312   4.949 -3.6127  0.0046 -0.4212
   17CHL1   C17 1208   1.114   3.457   5.051 -0.4723 -0.1484  0.1932
   17CHL1   H17 1209   1.056   3.364   5.070 -0.1134 -0.1493  1.3537
   17CHL1   C13 1210   1.151   3.514   5.193  0.3374  0.7434 -0.7805
   17CHL1   C18 1211   1.187   3.662   5.172 -0.4457 -0.1865 -0.2147
   17CHL1  H18A 1212   1.226   3.720   5.258 -1.0556 -1.4945  0.9704
   17CHL1  H18B 1213   1.271   3.665   5.098 -0.6806  2.3664 -0.4621
   17CHL1  H18C 1214   1.101   3.724   5.139 -0.7848  0.9914  2.6440
   17CHL1   C12 1215   1.034   3.513   5.295  0.2104 -0.1238 -0.1820
   17CHL1  H12A 1216   0.958   3.592   5.277  2.1360  1.5868 -1.3058
   17CHL1  H12B 1217   0.984   3.414   5.287 -1.8432  0.8000  0.6117
   17CHL1   C11 1218   1.086   3.536   5.439 -0.1022  0.2128  0.1162
   17CHL1  H11A 1219   1.122   3.641   5.447 -2.0394  0.7685  2.6618
   17CHL1  H11B 1220   1.004   3.532   5.513  0.3351 -2.6560  0.5473
   17CHL1    C9 1221   1.206   3.450   5.483 -0.1895 -0.5547  0.1892
   17CHL1    H9 1222   1.177   3.342   5.490 -0.7014 -0.7070 -2.7947
   17CHL1   C10 1223   1.262   3.485   5.630  0.3670 -0.1172 -0.5883
   17CHL1   C19 1224   1.280   3.640   5.648  0.0067 -0.1295 -0.4046
   17CHL1  H19A 1225   1.185   3.697   5.639  1.5817  3.5586  3.0453
   17CHL1  H19B 1226   1.333   3.664   5.743  0.1853 -0.0579 -0.5239
   17CHL1  H19C 1227   1.355   3.676   5.575  0.5199  1.1129  0.6826
   17CHL1    C1 1228   1.161   3.437   5.734  0.6459 -0.0974  0.2105
   17CHL1   H1A 1229   1.060   3.481   5.722 -0.0910 -0.5344  3.6399
   17CHL1   H1B 1230   1.149   3.327   5.720  0.2594 -0.2004  1.2118
   17CHL1    C2 1231   1.201   3.462   5.879  0.4365  0.3073 -0.3005
   17CHL1   H2A 1232   1.129   3.417   5.951  0.5416 -0.1522 -0.4799
   17CHL1   H2B 1233   1.203   3.571   5.896 -1.2396  0.3144  0.0688
   17CHL1   C20 1234   1.045   3.534   4.939  0.2644 -0.2524  0.2580
   17CHL1   H20 1235   1.097   3.622   4.897  0.8746 -1.3139 -1.2808
   17CHL1   C21 1236   0.899   3.565   4.991 -0.3245  0.1013  0.0711
   17CHL1  H21A 1237   0.903   3.643   5.070  2.9476 -0.2280  0.3592
   17CHL1  H21B 1238   0.873   3.468   5.039 -0.6465 -0.9822 -2.1919
   17CHL1  H21C 1239   0.838   3.576   4.899  1.2454 -1.4741 -1.2223
   17CHL1   C22 1240   1.025   3.448   4.808 -0.7013  0.5756  0.5188
   17CHL1  H22A 1241   1.113   3.381   4.795 -1.9050 -1.1199  0.7570
   17CHL1  H22B 1242   0.941   3.379   4.833 -0.3570  0.8908  2.6969
   17CHL1   C23 1243   0.980   3.536   4.683 -0.5612 -0.2811  0.3387
   17CHL1  H23A 1244   0.913   3.474   4.620 -0.3356 -1.3221  1.1167
   17CHL1  H23B 1245   0.927   3.629   4.712  2.1720  1.5305 -0.0771
   17CHL1   C24 1246   1.098   3.570   4.586 -0.0311  0.4311  0.7290
   17CHL1  H24A 1247   1.186   3.616   4.636 -1.0221  1.5636  1.4849
   17CHL1  H24B 1248   1.125   3.471   4.543 -2.4825  0.0039  0.0213
   17CHL1   C25 1249   1.066   3.665   4.463  0.1011  0.1032 -0.2382
   17CHL1   H25 1250   0.977   3.626   4.409  0.1721 -2.6018  1.4228
   17CHL1   C26 1251   1.031   3.804   4.506 -0.0020  0.4705  0.0819
   17CHL1  H26A 1252   0.991   3.864   4.422 -1.7712 -0.0373  0.5269
   17CHL1  H26B 1253   0.949   3.798   4.581  1.0583 -0.1258  1.2232
   17CHL1  H26C 1254   1.120   3.852   4.553  0.3955  0.2316 -0.4180
   17CHL1   C27 1255   1.177   3.684   4.357  0.1845  0.6601 -0.0772
   17CHL1  H27A 1256   1.186   3.591   4.297 -2.7355  0.2684 -0.0747
   17CHL1  H27B 1257   1.152   3.763   4.282  1.7368  0.9866 -0.2882
   17CHL1  H27C 1258   1.268   3.712   4.414  1.0165  1.5757 -1.7617
   18CHL1    C3 1259   1.081   0.347   5.962 -0.4836  0.1208  0.7050
   18CHL1    H3 1260   0.981   0.316   5.925  0.3181 -1.9279  0.1088
   18CHL1    O3 1261   1.087   0.327   6.099 -0.1051  0.0443  0.3540
   18CHL1   H3' 1262   1.043   0.407   6.128 -0.6685  0.3776 -1.2951
   18CHL1    C4 1263   1.172   0.255   5.886 -0.2319  0.1955  0.7173
   18CHL1   H4A 1264   1.273   0.268   5.933 -0.5679  1.1835  1.2087
   18CHL1   H4B 1265   1.132   0.154   5.909 -3.1797  1.1620  0.2529
   18CHL1    C5 1266   1.178   0.286   5.737  0.3299  0.1892 -0.5342
   18CHL1    C6 1267   1.147   0.201   5.638  0.0354 -0.4263 -0.9563
   18CHL1    H6 1268   1.119   0.097   5.662 -1.1716 -0.1144 -0.9223
   18CHL1    C7 1269   1.156   0.232   5.487 -0.4085  0.6914  0.3605
   18CHL1   H7A 1270   1.196   0.142   5.436 -0.0873  1.0149  0.0430
   18CHL1   H7B 1271   1.057   0.263   5.447 -0.7465 -0.0094  0.6443
   18CHL1    C8 1272   1.257   0.351   5.469 -0.4217  0.0409  0.0830
   18CHL1    H8 1273   1.360   0.315   5.493 -1.0105 -1.9479 -0.1385
   18CHL1   C14 1274   1.249   0.398   5.323 -0.5387  0.4702 -0.1111
   18CHL1   H14 1275   1.142   0.425   5.316 -0.3917  0.9848 -0.3958
   18CHL1   C15 1276   1.271   0.288   5.215 -0.7601  0.0448  0.2831
   18CHL1  H15A 1277   1.356   0.224   5.247  0.5686  0.5837 -1.9516
   18CHL1  H15B 1278   1.180   0.225   5.205 -1.0146  0.1132  1.9056
   18CHL1   C16 1279   1.307   0.371   5.089  0.5172  0.2872 -0.1318
   18CHL1  H16A 1280   1.407   0.337   5.054  1.0299  0.4753  1.1265
   18CHL1  H16B 1281   1.235   0.360   5.005 -0.7155  2.0719  0.6169
   18CHL1   C17 1282   1.313   0.519   5.128  0.6186  0.1264  0.1429
   18CHL1   H17 1283   1.208   0.552   5.116  1.0086  2.6354  2.4047
   18CHL1   C13 1284   1.335   0.520   5.280  0.4110  0.3161 -0.4433
   18CHL1   C18 1285   1.485   0.476   5.306 -0.0523 -0.5859 -0.0050
   18CHL1  H18A 1286   1.504   0.371   5.274 -0.9217 -0.5509 -0.6381
   18CHL1  H18B 1287   1.563   0.534   5.252  1.0507  1.1063  3.1510
   18CHL1  H18C 1288   1.500   0.491   5.415  0.6321  1.5991 -0.3446
   18CHL1   C12 1289   1.280   0.637   5.365 -0.6975  0.3645  0.8417
   18CHL1  H12A 1290   1.334   0.733   5.350  1.7993 -1.2656 -1.5061
   18CHL1  H12B 1291   1.174   0.659   5.344 -0.1801  0.2118 -2.3951
   18CHL1   C11 1292   1.291   0.600   5.512  0.8324 -0.0037 -0.2179
   18CHL1  H11A 1293   1.400   0.593   5.530  1.5668 -1.0858 -4.1010
   18CHL1  H11B 1294   1.251   0.687   5.569  0.4093 -1.1301  1.2539
   18CHL1    C9 1295   1.220   0.473   5.557  0.4719  0.9505 -0.1940
   18CHL1    H9 1296   1.113   0.490   5.530  1.0320  1.8829 -2.0356
   18CHL1   C10 1297   1.221   0.429   5.708 -0.0975 -0.2857 -0.8867
   18CHL1   C19 1298   1.367   0.443   5.750  0.1380 -0.3719 -0.2237
   18CHL1  H19A 1299   1.432   0.390   5.678  1.1743 -1.4464  1.4404
   18CHL1  H19B 1300   1.401   0.549   5.754  2.2659 -0.9809 -0.8033
   18CHL1  H19C 1301   1.407   0.394   5.841  2.1260  0.1241 -0.7885
   18CHL1    C1 1302   1.129   0.527   5.787 -0.4861 -0.7574 -0.0490
   18CHL1   H1A 1303   1.166   0.631   5.780  1.0055 -1.3141 -0.6577
   18CHL1   H1B 1304   1.027   0.537   5.745 -0.2538  2.5916 -0.0570
   18CHL1    C2 1305   1.122   0.496   5.938 -0.0337  0.3031  0.7724
   18CHL1   H2A 1306   1.049   0.569   5.980 -0.5539  1.1036 -1.3897
   18CHL1   H2B 1307   1.217   0.520   5.989  0.4051 -1.7265  0.9860
   18CHL1   C20 1308   1.407   0.610   5.041 -0.4223  1.1950 -0.2097
   18CHL1   H20 1309   1.502   0.555   5.029 -0.6713  1.0599 -1.8594
   18CHL1   C21 1310   1.437   0.752   5.098 -0.4261  1.0829  0.1212
   18CHL1  H21A 1311   1.499   0.808   5.024  0.6964 -1.0401 -0.6406
   18CHL1  H21B 1312   1.495   0.756   5.193 -0.9273  0.9461  0.4314
   18CHL1  H21C 1313   1.340   0.802   5.116 -0.9816  0.1490 -0.1613
   18CHL1   C22 1314   1.360   0.634   4.901 -0.3948  0.1590  0.2207
   18CHL1  H22A 1315   1.262   0.685   4.889 -0.5779  0.0389  1.1378
   18CHL1  H22B 1316   1.434   0.696   4.845  1.2339 -0.9861  1.0407
   18CHL1   C23 1317   1.363   0.508   4.804  0.2664 -0.2542 -0.0510
   18CHL1  H23A 1318   1.457   0.454   4.826 -0.3110 -1.1766  0.1704
   18CHL1  H23B 1319   1.268   0.451   4.806 -0.7457  0.9160 -4.4872
   18CHL1   C24 1320   1.369   0.546   4.654  0.1413  0.0538  0.5359
   18CHL1  H24A 1321   1.285   0.614   4.627 -1.3073 -1.6648  0.4816
   18CHL1  H24B 1322   1.453   0.616   4.635 -1.2612  1.8377  0.6004
   18CHL1   C25 1323   1.374   0.425   4.561 -0.1251  0.8305 -0.8203
   18CHL1   H25 1324   1.465   0.365   4.582 -0.2798  1.6572  3.0764
   18CHL1   C26 1325   1.244   0.342   4.546  0.2257  0.1787  0.2429
   18CHL1  H26A 1326   1.270   0.256   4.480 -0.4229  1.0063 -1.1197
   18CHL1  H26B 1327   1.197   0.302   4.639 -0.1601 -1.1369 -0.4980
   18CHL1  H26C 1328   1.167   0.402   4.495 -0.3404 -0.3642  0.4474
   18CHL1   C27 1329   1.396   0.474   4.414 -0.6316  0.5163  0.2640
   18CHL1  H27A 1330   1.303   0.526   4.382 -0.7684 -1.3942 -2.8279
   18CHL1  H27B 1331   1.480   0.545   4.399  0.7307 -0.7254  1.6777
   18CHL1  H27C 1332   1.416   0.389   4.346  4.9941  3.5321 -2.5473
   19CHL1    C3 1333   6.656   3.682   6.148 -0.8003 -0.9493 -1.0314
   19CHL1    H3 1334   6.766   3.682   6.129 -0.5114 -1.2188  0.5618
   19CHL1    O3 1335   6.619   3.708   6.285 -0.8150 -0.5892 -0.1880
   19CHL1   H3' 1336   6.665   3.637   6.329  1.4883 -0.4827 -2.1861
   19CHL1    C4 1337   6.596   3.806   6.070  0.2980  0.1130  0.0410
   19CHL1   H4A 1338   6.488   3.804   6.097  0.4737  1.4774  0.9391
   19CHL1   H4B 1339   6.638   3.897   6.119  3.6399 -1.1326 -0.2019
   19CHL1    C5 1340   6.616   3.794   5.926  0.1203  0.8958  0.8955
   19CHL1    C6 1341   6.693   3.879   5.853 -0.4641  0.4780 -0.5953
   19CHL1    H6 1342   6.741   3.964   5.904 -0.4722  0.0839  0.0839
   19CHL1    C7 1343   6.710   3.874   5.701  0.0888  0.3719  0.0286
   19CHL1   H7A 1344   6.689   3.977   5.664 -1.5766  1.0482  2.5736
   19CHL1   H7B 1345   6.817   3.845   5.690  0.0385  0.6345 -1.2747
   19CHL1    C8 1346   6.618   3.766   5.638 -0.8031  0.2950 -0.3884
   19CHL1    H8 1347   6.521   3.819   5.633 -1.2897 -0.4760  0.5655
   19CHL1   C14 1348   6.673   3.733   5.501 -0.4138 -0.2418  0.6662
   19CHL1   H14 1349   6.776   3.695   5.522 -0.4316  0.5822  2.4644
   19CHL1   C15 1350   6.704   3.858   5.411  0.6420  0.0968 -0.1251
   19CHL1  H15A 1351   6.612   3.920   5.421  0.0576 -0.7356 -0.2157
   19CHL1  H15B 1352   6.793   3.910   5.453  0.3927  2.1902 -2.0071
   19CHL1   C16 1353   6.711   3.791   5.265 -0.5855  0.9599 -1.2349
   19CHL1  H16A 1354   6.636   3.852   5.210 -0.0043  1.9032 -1.0074
   19CHL1  H16B 1355   6.809   3.807   5.216 -1.5909  3.2931 -2.6485
   19CHL1   C17 1356   6.676   3.642   5.281  0.3838 -0.0685 -0.5044
   19CHL1   H17 1357   6.773   3.591   5.297  1.4361  2.2099  1.0083
   19CHL1   C13 1358   6.603   3.636   5.419 -0.1900  0.5096 -0.4642
   19CHL1   C18 1359   6.458   3.682   5.392  0.7496 -0.5899  0.1320
   19CHL1  H18A 1360   6.400   3.615   5.325 -1.3586  1.4943 -0.2489
   19CHL1  H18B 1361   6.397   3.686   5.485 -1.5664 -1.7003 -1.2455
   19CHL1  H18C 1362   6.457   3.783   5.346  0.6155  0.9722  3.3036
   19CHL1   C12 1363   6.604   3.501   5.498 -0.4565  0.5889 -0.8151
   19CHL1  H12A 1364   6.541   3.414   5.467 -0.6198  0.8591 -1.2437
   19CHL1  H12B 1365   6.703   3.450   5.498 -0.3467  0.7511 -2.2853
   19CHL1   C11 1366   6.552   3.516   5.643  0.0897  0.4821 -0.0322
   19CHL1  H11A 1367   6.441   3.521   5.638 -0.2188 -2.1487  1.6772
   19CHL1  H11B 1368   6.578   3.424   5.700 -1.3245 -0.2053 -0.4506
   19CHL1    C9 1369   6.610   3.641   5.719 -0.4122 -0.0640  0.4368
   19CHL1    H9 1370   6.718   3.616   5.734  0.1772  1.5468 -0.8693
   19CHL1   C10 1371   6.560   3.661   5.864 -0.1615  0.7513  0.4534
   19CHL1   C19 1372   6.407   3.671   5.865 -0.1710  0.5491 -0.2968
   19CHL1  H19A 1373   6.386   3.746   5.786 -0.1251  2.3976  1.3706
   19CHL1  H19B 1374   6.358   3.576   5.835  0.5116  0.9131 -2.7958
   19CHL1  H19C 1375   6.364   3.720   5.955 -0.2630  0.6211 -0.3802
   19CHL1    C1 1376   6.613   3.534   5.948  0.4977  0.1847  0.1560
   19CHL1   H1A 1377   6.555   3.443   5.920  0.7992 -0.2007  0.7507
   19CHL1   H1B 1378   6.720   3.507   5.943  0.1835 -1.0901 -0.1066
   19CHL1    C2 1379   6.592   3.557   6.098  0.8964 -0.0854 -0.2614
   19CHL1   H2A 1380   6.649   3.476   6.147  2.7841 -0.7791 -3.3189
   19CHL1   H2B 1381   6.485   3.557   6.130  1.2756 -0.7758  1.0816
   19CHL1   C20 1382   6.611   3.582   5.160 -0.0731 -0.0940  0.7160
   19CHL1   H20 1383   6.519   3.636   5.128 -0.3527 -0.9427  0.0635
   19CHL1   C21 1384   6.577   3.435   5.181  0.2175  0.1444 -0.0486
   19CHL1  H21A 1385   6.485   3.434   5.244 -2.2671 -1.6704 -3.3500
   19CHL1  H21B 1386   6.661   3.383   5.232  2.3555  1.3879 -2.1339
   19CHL1  H21C 1387   6.535   3.389   5.088 -2.4009 -0.0131  1.1161
   19CHL1   C22 1388   6.705   3.579   5.033 -0.4358  0.0122  0.0136
   19CHL1  H22A 1389   6.735   3.684   5.011 -2.5703  0.2155 -2.5010
   19CHL1  H22B 1390   6.797   3.526   5.065 -1.2457 -1.4357  0.0212
   19CHL1   C23 1391   6.636   3.519   4.901  1.2432 -0.4513  0.3545
   19CHL1  H23A 1392   6.709   3.544   4.822  0.0036  1.4228 -0.2803
   19CHL1  H23B 1393   6.623   3.410   4.916  1.9353 -0.3725  1.6919
   19CHL1   C24 1394   6.497   3.592   4.872  0.1122  0.4003 -0.6243
   19CHL1  H24A 1395   6.413   3.537   4.921  0.2811  0.0695 -0.7013
   19CHL1  H24B 1396   6.504   3.695   4.911  2.4307  1.1772 -2.8795
   19CHL1   C25 1397   6.459   3.602   4.727  0.2028 -0.5937 -0.9179
   19CHL1   H25 1398   6.537   3.663   4.675 -0.9661  2.0184  0.2061
   19CHL1   C26 1399   6.437   3.461   4.673  0.7592 -0.1920 -0.6173
   19CHL1  H26A 1400   6.351   3.414   4.725  1.5663  0.6315  1.5982
   19CHL1  H26B 1401   6.412   3.459   4.565  0.1950  0.0524 -0.4954
   19CHL1  H26C 1402   6.532   3.409   4.700 -0.1359 -0.4321  2.4786
   19CHL1   C27 1403   6.329   3.686   4.726 -0.3261  0.0375  0.5458
   19CHL1  H27A 1404   6.315   3.720   4.621  0.5863 -0.2170  0.3308
   19CHL1  H27B 1405   6.239   3.626   4.751  0.4105 -2.6237 -2.5145
   19CHL1  H27C 1406   6.317   3.769   4.799 -1.4005 -0.4140  0.9056
   20CHL1    C3 1407   5.806   5.176   6.519 -0.4457 -0.2193  0.8306
   20CHL1    H3 1408   5.838   5.071   6.503 -0.6000 -0.1261 -0.1374
   20CHL1    O3 1409   5.784   5.201   6.661 -0.3076 -0.1533  0.1307
   20CHL1   H3' 1410   5.732   5.282   6.662 -0.3587 -0.1871  1.0052
   20CHL1    C4 1411   5.927   5.260   6.472  0.3995  0.0451  0.3024
   20CHL1   H4A 1412   5.889   5.359   6.506 -0.8417 -0.6647  1.0968
   20CHL1   H4B 1413   6.014   5.233   6.535 -0.0142  1.6118  1.6343
   20CHL1    C5 1414   5.946   5.246   6.324  0.0070  0.4845  0.5755
   20CHL1    C6 1415   6.066   5.199   6.284  0.2386  0.6115  0.0414
   20CHL1    H6 1416   6.145   5.182   6.359 -0.8879 -2.2001  0.7365
   20CHL1    C7 1417   6.107   5.188   6.138  0.7235  0.0803  0.1763
   20CHL1   H7A 1418   6.193   5.256   6.119  0.3507  0.4448 -0.2512
   20CHL1   H7B 1419   6.127   5.082   6.111 -0.5421  0.0912 -0.9171
   20CHL1    C8 1420   5.995   5.237   6.044  0.2712  0.0924  0.5094
   20CHL1    H8 1421   5.996   5.346   6.023 -1.3294 -0.1113 -0.9129
   20CHL1   C14 1422   6.012   5.172   5.906 -0.0282  0.3759  0.0253
   20CHL1   H14 1423   5.998   5.063   5.919 -0.4990  0.5900  1.5387
   20CHL1   C15 1424   6.148   5.190   5.839 -0.0728 -0.6007 -0.2478
   20CHL1  H15A 1425   6.190   5.289   5.864 -1.8835  0.0155  0.4730
   20CHL1  H15B 1426   6.220   5.114   5.878 -1.0191 -0.8227  1.1519
   20CHL1   C16 1427   6.119   5.161   5.692 -0.2486 -0.2508  0.2531
   20CHL1  H16A 1428   6.166   5.242   5.631  1.5186 -1.5482 -0.2000
   20CHL1  H16B 1429   6.175   5.071   5.657  0.0695  0.4569 -1.1518
   20CHL1   C17 1430   5.964   5.153   5.670  1.0724 -0.2772  0.0853
   20CHL1   H17 1431   5.932   5.048   5.687 -0.2097 -0.1333 -1.2310
   20CHL1   C13 1432   5.912   5.221   5.795  0.0476 -0.5518  0.0379
   20CHL1   C18 1433   5.921   5.372   5.769 -0.3587 -0.1951  0.1478
   20CHL1  H18A 1434   5.825   5.408   5.726 -0.4064 -1.0750 -0.5242
   20CHL1  H18B 1435   5.937   5.427   5.864 -2.8280  1.3288 -0.2471
   20CHL1  H18C 1436   6.008   5.393   5.703 -0.8237 -2.2168 -1.2019
   20CHL1   C12 1437   5.767   5.187   5.848 -0.5816 -0.1730  0.9068
   20CHL1  H12A 1438   5.684   5.216   5.780  0.1111 -0.8329 -0.2509
   20CHL1  H12B 1439   5.756   5.077   5.860 -0.4733 -0.5174 -1.6062
   20CHL1   C11 1440   5.744   5.235   5.991  0.0775 -0.0025  0.9213
   20CHL1  H11A 1441   5.746   5.346   5.984  0.0687 -0.0594 -0.1783
   20CHL1  H11B 1442   5.639   5.209   6.015 -0.8658  3.1028  0.6791
   20CHL1    C9 1443   5.850   5.202   6.096 -0.7734  0.8633 -0.1411
   20CHL1    H9 1444   5.852   5.091   6.103  0.1862  0.7114 -2.2849
   20CHL1   C10 1445   5.819   5.267   6.239 -0.3872 -0.0926 -0.5202
   20CHL1   C19 1446   5.778   5.416   6.227 -0.0969 -0.3660 -0.5846
   20CHL1  H19A 1447   5.757   5.457   6.327 -0.3870 -1.2076 -0.2924
   20CHL1  H19B 1448   5.871   5.470   6.198  2.0613 -1.4744  3.5288
   20CHL1  H19C 1449   5.692   5.439   6.161 -0.9189  0.3855  0.7352
   20CHL1    C1 1450   5.693   5.190   6.299  0.3820 -0.3377  0.4223
   20CHL1   H1A 1451   5.599   5.211   6.243  0.4591 -2.2901 -0.5349
   20CHL1   H1B 1452   5.728   5.086   6.278  0.6522  0.0961 -1.4289
   20CHL1    C2 1453   5.680   5.207   6.447  0.0292  0.2732  0.2283
   20CHL1   H2A 1454   5.602   5.140   6.490  1.1712 -1.3291 -0.1287
   20CHL1   H2B 1455   5.651   5.314   6.456 -2.1672 -0.2093 -0.5872
   20CHL1   C20 1456   5.905   5.191   5.533 -0.7874  0.7128 -0.2556
   20CHL1   H20 1457   5.954   5.280   5.488 -1.0764  0.1857 -1.6754
   20CHL1   C21 1458   5.753   5.214   5.528  0.4022  0.8817  0.1583
   20CHL1  H21A 1459   5.710   5.219   5.425  1.6400 -1.9704 -0.6192
   20CHL1  H21B 1460   5.741   5.317   5.566 -2.2714  1.0761 -1.0135
   20CHL1  H21C 1461   5.713   5.136   5.596  0.1017  1.6057  0.8144
   20CHL1   C22 1462   5.951   5.079   5.438  0.1888  0.1600  0.4350
   20CHL1  H22A 1463   6.054   5.043   5.458 -0.2620 -0.9076  0.9150
   20CHL1  H22B 1464   5.886   4.990   5.452 -0.8588  0.9860  0.9991
   20CHL1   C23 1465   5.948   5.115   5.294 -0.4890  0.3977 -0.6413
   20CHL1  H23A 1466   5.841   5.130   5.267 -1.7754 -1.0774  2.9396
   20CHL1  H23B 1467   6.009   5.206   5.278  1.8166 -0.4196  2.4466
   20CHL1   C24 1468   5.995   5.005   5.197 -0.2363 -0.5057 -0.0179
   20CHL1  H24A 1469   6.101   4.980   5.220 -0.2838 -1.7048 -1.0129
   20CHL1  H24B 1470   5.942   4.908   5.205 -1.7469  0.4075  2.2137
   20CHL1   C25 1471   6.002   5.051   5.055 -0.8624 -0.0250  0.1328
   20CHL1   H25 1472   6.063   5.144   5.059 -0.6513 -0.1828  0.6137
   20CHL1   C26 1473   6.089   4.949   4.970 -0.5060 -0.9696  0.1964
   20CHL1  H26A 1474   6.189   4.960   5.016 -1.6195  1.9973  2.1826
   20CHL1  H26B 1475   6.048   4.846   4.964 -0.7137 -0.8774  0.0164
   20CHL1  H26C 1476   6.104   4.982   4.865  1.4899 -0.4811  0.6004
   20CHL1   C27 1477   5.868   5.070   4.993  0.7884  0.7987  0.2856
   20CHL1  H27A 1478   5.817   4.971   4.992  1.5216  0.4131 -0.6278
   20CHL1  H27B 1479   5.801   5.145   5.041  0.7982  0.8861  0.1642
   20CHL1  H27C 1480   5.890   5.098   4.887  2.3899 -0.8790  0.1252
   21CHL1    C3 1481   3.082   4.398   6.000  0.1664 -0.1922 -0.4205
   21CHL1    H3 1482   3.180   4.433   5.963  0.2570 -1.2507 -1.2464
   21CHL1    O3 1483   3.104   4.382   6.140  0.6844  0.1695  0.3253
   21CHL1   H3' 1484   3.024   4.339   6.173  1.8322 -0.6049  2.2318
   21CHL1    C4 1485   2.970   4.500   5.962  0.2264 -0.9760 -0.0371
   21CHL1   H4A 1486   2.870   4.481   6.007 -0.2716  2.1572  0.4319
   21CHL1   H4B 1487   3.005   4.598   6.002 -0.1344  0.5262 -3.1196
   21CHL1    C5 1488   2.958   4.504   5.806 -0.0694 -1.0400  0.3703
   21CHL1    C6 1489   2.978   4.621   5.735  0.0821 -0.1916 -0.2970
   21CHL1    H6 1490   2.998   4.714   5.790  1.7870  0.2587 -1.5817
   21CHL1    C7 1491   2.943   4.631   5.592  0.0722  0.0739  0.4251
   21CHL1   H7A 1492   2.887   4.724   5.568  2.1382  2.1732  3.1501
   21CHL1   H7B 1493   3.036   4.635   5.530  0.3735 -3.1284  0.4987
   21CHL1    C8 1494   2.882   4.499   5.530  0.3445 -0.5763 -0.0776
   21CHL1    H8 1495   2.774   4.515   5.551 -0.1920 -1.0558 -2.2813
   21CHL1   C14 1496   2.890   4.489   5.377  0.4500  0.2281  0.4996
   21CHL1   H14 1497   2.997   4.474   5.353  0.1742  0.8020 -1.2333
   21CHL1   C15 1498   2.853   4.618   5.303  0.5420 -0.6712 -0.8011
   21CHL1  H15A 1499   2.757   4.660   5.338  0.7745 -1.1308  0.4439
   21CHL1  H15B 1500   2.933   4.693   5.321 -0.6652 -0.3075  5.5128
   21CHL1   C16 1501   2.850   4.564   5.161  0.4699 -0.5455  0.0763
   21CHL1  H16A 1502   2.760   4.603   5.107  0.2236 -1.9870 -0.6052
   21CHL1  H16B 1503   2.941   4.595   5.106  0.4876 -0.3177  0.2310
   21CHL1   C17 1504   2.861   4.407   5.164  1.2203  0.2333  0.0668
   21CHL1   H17 1505   2.966   4.376   5.146  0.8888 -0.7773 -0.2321
   21CHL1   C13 1506   2.830   4.371   5.312  0.0633 -0.1972 -0.1555
   21CHL1   C18 1507   2.677   4.374   5.329  0.4615 -0.3441 -0.0512
   21CHL1  H18A 1508   2.652   4.352   5.435 -0.4924 -1.6815 -0.5184
   21CHL1  H18B 1509   2.613   4.459   5.297  0.1692 -0.5451 -0.0101
   21CHL1  H18C 1510   2.638   4.287   5.270  0.5592  0.1165 -0.8149
   21CHL1   C12 1511   2.886   4.238   5.374 -0.4970 -0.0556  1.0348
   21CHL1  H12A 1512   2.850   4.150   5.316  1.0592 -0.0425  0.0019
   21CHL1  H12B 1513   2.993   4.244   5.344 -0.4039  0.3715  1.4444
   21CHL1   C11 1514   2.875   4.239   5.527 -0.0710  0.1013  0.9473
   21CHL1  H11A 1515   2.767   4.229   5.552 -0.5040  3.6256  1.0083
   21CHL1  H11B 1516   2.928   4.147   5.560 -0.9931 -0.0153  2.1779
   21CHL1    C9 1517   2.933   4.364   5.594  0.4826 -0.3141  0.1217
   21CHL1    H9 1518   3.041   4.361   5.569  0.9422 -0.4305  2.0231
   21CHL1   C10 1519   2.937   4.366   5.746  0.6484 -0.3123  0.2768
   21CHL1   C19 1520   2.792   4.321   5.789 -0.6184 -0.4550  0.2596
   21CHL1  H19A 1521   2.777   4.338   5.898 -1.1849 -0.2817  0.1589
   21CHL1  H19B 1522   2.726   4.391   5.732  0.2354  1.4770  1.5415
   21CHL1  H19C 1523   2.778   4.211   5.779 -1.1816 -0.5165  1.5286
   21CHL1    C1 1524   3.044   4.260   5.792  0.6950  0.3696 -0.0832
   21CHL1   H1A 1525   3.010   4.159   5.759 -0.8341  0.4600  1.1355
   21CHL1   H1B 1526   3.145   4.285   5.752  1.5856 -2.2395  0.3111
   21CHL1    C2 1527   3.064   4.253   5.945 -0.2691 -0.5640 -0.0549
   21CHL1   H2A 1528   3.157   4.196   5.964 -0.4191 -0.2173  1.9728
   21CHL1   H2B 1529   2.988   4.192   5.998 -4.0527  0.1846 -4.0265
   21CHL1   C20 1530   2.781   4.343   5.050 -0.4356 -0.2524 -0.6208
   21CHL1   H20 1531   2.671   4.355   5.059 -0.3398  1.0829 -1.0106
   21CHL1   C21 1532   2.809   4.192   5.054 -0.0972  0.2708  0.1048
   21CHL1  H21A 1533   2.917   4.180   5.081  0.2415  1.3734 -0.7222
   21CHL1  H21B 1534   2.790   4.137   4.960 -1.6675 -3.2776  2.2720
   21CHL1  H21C 1535   2.746   4.144   5.132  0.2692  0.8025  0.7421
   21CHL1   C22 1536   2.804   4.400   4.907  0.1681 -0.4599  0.8371
   21CHL1  H22A 1537   2.726   4.359   4.839  2.2209 -2.7616 -0.2716
   21CHL1  H22B 1538   2.797   4.511   4.908  2.0931 -0.3099  0.9179
   21CHL1   C23 1539   2.942   4.391   4.853  0.5993  0.0436 -0.0657
   21CHL1  H23A 1540   3.012   4.438   4.926  0.6386  1.0076 -0.7084
   21CHL1  H23B 1541   2.970   4.285   4.835 -0.5709 -0.7251  2.2934
   21CHL1   C24 1542   2.955   4.455   4.709 -0.5226  0.2701  0.5168
   21CHL1  H24A 1543   2.876   4.430   4.636  2.7673 -1.9800 -2.5853
   21CHL1  H24B 1544   2.928   4.562   4.725  2.4398  1.0509  0.8526
   21CHL1   C25 1545   3.091   4.441   4.634  0.0614 -0.6228 -0.7494
   21CHL1   H25 1546   3.113   4.335   4.611  1.4212 -0.4238 -0.4694
   21CHL1   C26 1547   3.091   4.511   4.492 -0.9366 -0.4148  0.0404
   21CHL1  H26A 1548   3.078   4.620   4.513 -1.3442 -0.0910 -1.7747
   21CHL1  H26B 1549   3.190   4.506   4.443 -0.4624  1.7841  0.6275
   21CHL1  H26C 1550   3.008   4.463   4.436  1.1899 -1.3309 -2.4785
   21CHL1   C27 1551   3.204   4.497   4.718  0.5453  0.3558 -0.2017
   21CHL1  H27A 1552   3.229   4.427   4.800  1.4955 -1.0149 -1.5942
   21CHL1  H27B 1553   3.289   4.517   4.649  0.5926 -0.0349 -0.2586
   21CHL1  H27C 1554   3.176   4.598   4.755 -0.3321  0.8938 -2.1645
   22CHL1    C3 1555   6.136   4.830   6.517 -0.6513  0.0589 -0.0957
   22CHL1    H3 1556   6.081   4.927   6.509 -0.3657  0.1839 -0.5595
   22CHL1    O3 1557   6.165   4.835   6.655 -0.4537  0.4167 -1.0698
   22CHL1   H3' 1558   6.095   4.783   6.696  1.1598 -0.4290  0.7922
   22CHL1    C4 1559   6.042   4.713   6.480  0.2385 -0.2124  0.0880
   22CHL1   H4A 1560   6.086   4.620   6.521 -0.9809 -1.1240 -0.5766
   22CHL1   H4B 1561   5.954   4.719   6.548  0.6406 -1.0439  0.6945
   22CHL1    C5 1562   6.010   4.715   6.334  0.4987 -0.2494  0.8221
   22CHL1    C6 1563   5.886   4.730   6.298 -0.1297 -0.2548 -0.7342
   22CHL1    H6 1564   5.807   4.732   6.375 -0.2998  0.2169 -0.9173
   22CHL1    C7 1565   5.839   4.732   6.153 -0.0541  0.3299 -0.3670
   22CHL1   H7A 1566   5.744   4.673   6.150  0.5272 -0.5936 -1.3111
   22CHL1   H7B 1567   5.814   4.837   6.129 -1.4345 -0.2003 -1.4256
   22CHL1    C8 1568   5.952   4.692   6.054 -0.0843 -0.0233  0.4471
   22CHL1    H8 1569   5.969   4.583   6.067 -2.3614 -0.4948 -0.1562
   22CHL1   C14 1570   5.911   4.711   5.908  0.0796  0.0811  0.1952
   22CHL1   H14 1571   5.897   4.821   5.894 -1.8754  0.1837  2.3681
   22CHL1   C15 1572   5.773   4.649   5.873  0.3896  0.7691 -0.4143
   22CHL1  H15A 1573   5.776   4.549   5.921  0.3282  0.1916 -1.5881
   22CHL1  H15B 1574   5.679   4.702   5.901  0.3994  0.4322  0.2779
   22CHL1   C16 1575   5.789   4.645   5.720  0.1878  0.0347  0.8534
   22CHL1  H16A 1576   5.761   4.541   5.691 -1.0361  0.1005  1.7161
   22CHL1  H16B 1577   5.721   4.714   5.665  1.3440 -1.2696 -2.4731
   22CHL1   C17 1578   5.932   4.688   5.675 -0.2804 -0.3521  0.2346
   22CHL1   H17 1579   5.929   4.797   5.657  0.7227 -0.1213  1.3672
   22CHL1   C13 1580   6.019   4.673   5.805 -0.1957  0.6135  1.2904
   22CHL1   C18 1581   6.052   4.522   5.819  0.1087 -0.0033 -0.6831
   22CHL1  H18A 1582   6.115   4.482   5.738 -0.5010 -2.4077 -0.0375
   22CHL1  H18B 1583   6.104   4.503   5.916 -1.9496  0.2539  0.5332
   22CHL1  H18C 1584   5.956   4.466   5.814 -0.1065  0.3806 -0.8949
   22CHL1   C12 1585   6.132   4.771   5.823 -0.4351  0.2533  0.1533
   22CHL1  H12A 1586   6.217   4.751   5.753 -1.6470 -0.5180 -1.1446
   22CHL1  H12B 1587   6.108   4.877   5.803 -4.1073 -0.6968 -1.1813
   22CHL1   C11 1588   6.181   4.757   5.972 -0.6832 -0.3429 -0.0453
   22CHL1  H11A 1589   6.230   4.658   5.965 -2.0055 -0.9155 -2.6671
   22CHL1  H11B 1590   6.265   4.825   5.997  0.1593 -1.4711  0.2734
   22CHL1    C9 1591   6.074   4.766   6.086 -0.2854 -0.5121 -0.6338
   22CHL1    H9 1592   6.048   4.874   6.081  0.9205 -0.1994 -0.5224
   22CHL1   C10 1593   6.128   4.726   6.234  0.4136 -0.7054  0.1468
   22CHL1   C19 1594   6.193   4.586   6.242  0.2441 -0.3215  0.0151
   22CHL1  H19A 1595   6.140   4.512   6.178 -1.9572  1.2971 -0.1468
   22CHL1  H19B 1596   6.300   4.595   6.214 -0.1704  0.8695 -1.3087
   22CHL1  H19C 1597   6.185   4.545   6.345  0.7504  1.6704  0.8807
   22CHL1    C1 1598   6.228   4.830   6.289  0.0958 -0.5974 -0.0533
   22CHL1   H1A 1599   6.322   4.845   6.231  0.0517  2.3432  0.4743
   22CHL1   H1B 1600   6.178   4.928   6.277 -0.9505 -0.6417  3.0172
   22CHL1    C2 1601   6.268   4.829   6.438 -0.1328 -0.3198  0.4748
   22CHL1   H2A 1602   6.329   4.915   6.472 -1.7391  1.1072 -0.1266
   22CHL1   H2B 1603   6.316   4.731   6.461  1.4688 -0.4745 -2.8374
   22CHL1   C20 1604   5.978   4.616   5.551  0.2849  0.2401 -0.2061
   22CHL1   H20 1605   5.979   4.506   5.569 -0.0826  0.0316 -1.3665
   22CHL1   C21 1606   6.114   4.670   5.510 -0.0037  0.3117  0.0978
   22CHL1  H21A 1607   6.194   4.658   5.587 -0.7415 -4.8475  0.4024
   22CHL1  H21B 1608   6.109   4.779   5.490 -2.1152  0.3607  0.6659
   22CHL1  H21C 1609   6.148   4.623   5.415 -2.2121 -1.6283  0.1908
   22CHL1   C22 1610   5.874   4.644   5.437 -0.0886 -0.1727 -0.1798
   22CHL1  H22A 1611   5.782   4.583   5.448  0.1952 -1.0033 -2.0276
   22CHL1  H22B 1612   5.848   4.752   5.434 -1.7586 -0.5545 -1.0625
   22CHL1   C23 1613   5.926   4.607   5.291  0.2602  0.1608 -0.6533
   22CHL1  H23A 1614   5.991   4.691   5.257 -2.1001  1.7615 -1.4685
   22CHL1  H23B 1615   5.981   4.510   5.290  0.5887  0.3383 -1.7660
   22CHL1   C24 1616   5.816   4.596   5.176  0.3504 -0.1390 -0.2091
   22CHL1  H24A 1617   5.747   4.514   5.207  1.6719 -2.1542 -2.2406
   22CHL1  H24B 1618   5.773   4.698   5.181  1.5998  0.4568 -1.0799
   22CHL1   C25 1619   5.881   4.568   5.041 -0.2028  0.0378  0.2017
   22CHL1   H25 1620   5.971   4.633   5.032 -1.1675  1.2737 -0.8726
   22CHL1   C26 1621   5.937   4.420   5.026  0.5459 -0.9097  0.2724
   22CHL1  H26A 1622   5.858   4.350   5.060 -1.2990  2.2503  3.2087
   22CHL1  H26B 1623   5.962   4.409   4.918 -1.3503 -1.8302 -0.1093
   22CHL1  H26C 1624   6.024   4.417   5.094 -0.3736  1.5125  1.7190
   22CHL1   C27 1625   5.780   4.595   4.927  0.7843  0.2169  0.4066
   22CHL1  H27A 1626   5.699   4.518   4.920  0.0514  1.0820 -1.4494
   22CHL1  H27B 1627   5.739   4.698   4.920 -3.3926 -1.1785  1.1841
   22CHL1  H27C 1628   5.835   4.581   4.831 -0.6827  0.6331 -0.5334
   23CHL1    C3 1629   3.525   5.753   6.236  0.0737 -0.2546  0.4988
   23CHL1    H3 1630   3.465   5.688   6.303 -1.4697  1.5574  0.9657
   23CHL1    O3 1631   3.563   5.868   6.315 -0.2117  0.1675 -0.0702
   23CHL1   H3' 1632   3.620   5.917   6.255 -0.1869  0.2681  0.0347
   23CHL1    C4 1633   3.639   5.679   6.159  0.1584 -0.7990  0.5109
   23CHL1   H4A 1634   3.701   5.753   6.104  1.3311 -3.0263 -1.3674
   23CHL1   H4B 1635   3.698   5.630   6.239 -0.3847  0.4853  1.7409
   23CHL1    C5 1636   3.604   5.571   6.060  0.2456  0.1476  0.8104
   23CHL1    C6 1637   3.658   5.449   6.056 -0.2282 -0.0746  0.4947
   23CHL1    H6 1638   3.733   5.419   6.130  0.7563  1.6667  0.2614
   23CHL1    C7 1639   3.642   5.358   5.935  0.0450 -1.0281 -0.2085
   23CHL1   H7A 1640   3.746   5.337   5.901  0.9560 -0.0189  1.7537
   23CHL1   H7B 1641   3.596   5.261   5.964  0.2831 -1.4845 -1.3140
   23CHL1    C8 1642   3.560   5.414   5.818 -0.1329  0.0642  0.3836
   23CHL1    H8 1643   3.624   5.488   5.765 -2.9364  2.8586  0.6317
   23CHL1   C14 1644   3.513   5.303   5.725  0.0712  0.1059 -0.1108
   23CHL1   H14 1645   3.453   5.237   5.791  0.4389  0.9316  1.0710
   23CHL1   C15 1646   3.612   5.207   5.654  0.2731 -0.2773  0.0268
   23CHL1  H15A 1647   3.698   5.267   5.616  0.2498 -0.2664 -0.0082
   23CHL1  H15B 1648   3.644   5.133   5.730  1.4845 -1.6793 -1.7423
   23CHL1   C16 1649   3.530   5.152   5.532 -0.6342 -0.2793 -0.6089
   23CHL1  H16A 1650   3.592   5.164   5.441  0.2944 -1.7119 -0.1955
   23CHL1  H16B 1651   3.520   5.041   5.537  1.5229 -0.5917 -1.8503
   23CHL1   C17 1652   3.393   5.230   5.532  0.4607 -0.1416 -0.1858
   23CHL1   H17 1653   3.328   5.158   5.586 -1.5012  2.6054  1.3053
   23CHL1   C13 1654   3.421   5.355   5.618  0.2534 -0.9396 -0.8170
   23CHL1   C18 1655   3.499   5.468   5.536 -0.2113  0.7025 -0.1817
   23CHL1  H18A 1656   3.431   5.519   5.465  1.3253  1.7491 -0.9571
   23CHL1  H18B 1657   3.531   5.555   5.596 -2.8428  1.6169  0.0459
   23CHL1  H18C 1658   3.594   5.431   5.492 -0.1537  2.2849 -1.4672
   23CHL1   C12 1659   3.290   5.417   5.691 -0.0185  0.3929  0.7890
   23CHL1  H12A 1660   3.208   5.438   5.619  0.7539  2.8224  0.5145
   23CHL1  H12B 1661   3.252   5.345   5.766 -2.5605 -0.2236 -0.9543
   23CHL1   C11 1662   3.338   5.536   5.769  0.2447  0.6574 -0.0711
   23CHL1  H11A 1663   3.377   5.611   5.697 -1.8731  1.1270 -0.8104
   23CHL1  H11B 1664   3.259   5.596   5.820  1.6978  3.0440 -0.4834
   23CHL1    C9 1665   3.448   5.500   5.869  0.2454 -0.0276 -0.2731
   23CHL1    H9 1666   3.398   5.430   5.939  0.3168  0.3108  0.1145
   23CHL1   C10 1667   3.502   5.618   5.954 -0.2021 -0.0346  0.5993
   23CHL1   C19 1668   3.558   5.727   5.865 -0.1327  0.0615  0.3677
   23CHL1  H19A 1669   3.473   5.784   5.822 -0.9383 -2.0979 -1.0316
   23CHL1  H19B 1670   3.609   5.804   5.928  1.0596 -1.0288  0.7743
   23CHL1  H19C 1671   3.617   5.684   5.782  0.2109 -1.1718  1.2231
   23CHL1    C1 1672   3.387   5.686   6.039  0.2182 -0.6762  0.5203
   23CHL1   H1A 1673   3.305   5.719   5.972 -1.5235  0.1966  2.9481
   23CHL1   H1B 1674   3.326   5.613   6.097 -2.3511  0.8635 -0.0607
   23CHL1    C2 1675   3.431   5.803   6.129  0.2657  0.2429 -0.3202
   23CHL1   H2A 1676   3.343   5.838   6.187 -0.7419 -1.6490 -0.6227
   23CHL1   H2B 1677   3.486   5.884   6.077  1.2297  0.6795  1.2893
   23CHL1   C20 1678   3.324   5.251   5.392 -0.1004  0.1154 -0.3716
   23CHL1   H20 1679   3.373   5.343   5.354  1.4691 -1.0548 -1.3102
   23CHL1   C21 1680   3.173   5.274   5.409 -0.2695  0.2970  0.0388
   23CHL1  H21A 1681   3.137   5.284   5.304 -2.3056  3.1605  0.8967
   23CHL1  H21B 1682   3.160   5.380   5.439  0.0956  0.7490 -1.3293
   23CHL1  H21C 1683   3.116   5.200   5.469 -0.4229  0.9932  0.7669
   23CHL1   C22 1684   3.359   5.143   5.284 -0.4347 -0.7055  0.1944
   23CHL1  H22A 1685   3.323   5.173   5.184  3.2292  0.5977 -0.9116
   23CHL1  H22B 1686   3.470   5.134   5.282 -0.2677  0.6621  1.0820
   23CHL1   C23 1687   3.302   5.004   5.320 -0.0365 -0.3624  0.0022
   23CHL1  H23A 1688   3.338   4.966   5.418 -0.5306  0.9291  0.7082
   23CHL1  H23B 1689   3.191   5.004   5.311 -0.3237 -3.3558  2.0836
   23CHL1   C24 1690   3.352   4.898   5.215 -0.2012 -1.0826 -0.1031
   23CHL1  H24A 1691   3.309   4.913   5.113  1.8003 -1.7900 -1.0989
   23CHL1  H24B 1692   3.461   4.916   5.203  0.2355 -2.6692  1.1103
   23CHL1   C25 1693   3.335   4.761   5.262 -0.2525 -0.4156 -0.0684
   23CHL1   H25 1694   3.379   4.748   5.364 -1.1448 -0.5260  0.3111
   23CHL1   C26 1695   3.190   4.716   5.282 -0.5259  0.5769 -0.2340
   23CHL1  H26A 1696   3.190   4.617   5.333 -0.1974 -0.3815 -1.9998
   23CHL1  H26B 1697   3.151   4.783   5.362  1.4159 -1.4982  2.6556
   23CHL1  H26C 1698   3.122   4.711   5.194  1.9536 -2.2589 -2.1828
   23CHL1   C27 1699   3.401   4.659   5.168  0.3282 -0.1399  0.2341
   23CHL1  H27A 1700   3.507   4.680   5.142  0.2201 -0.6768 -0.7090
   23CHL1  H27B 1701   3.386   4.554   5.199  0.0452  0.0074  0.6085
   23CHL1  H27C 1702   3.350   4.673   5.070  1.4604 -0.9774 -0.5023
   24CHL1    C3 1703   5.954   2.430   6.499 -0.2077  0.1496  0.9723
   24CHL1    H3 1704   6.042   2.498   6.509  0.1808 -0.3183  0.7772
   24CHL1    O3 1705   5.888   2.425   6.626 -0.1457  0.0911 -0.4254
   24CHL1   H3' 1706   5.820   2.362   6.601  2.4054 -1.8334 -3.2182
   24CHL1    C4 1707   5.862   2.485   6.389  0.6833  0.3601 -0.0352
   24CHL1   H4A 1708   5.764   2.435   6.405 -0.1531  1.0161 -2.5948
   24CHL1   H4B 1709   5.847   2.594   6.406  0.4988  0.9530 -3.2830
   24CHL1    C5 1710   5.900   2.457   6.246 -0.4421  0.1571  0.9165
   24CHL1    C6 1711   5.893   2.561   6.157  0.6692 -0.3363  0.4668
   24CHL1    H6 1712   5.848   2.657   6.186 -0.9968 -1.8143  3.3539
   24CHL1    C7 1713   5.923   2.545   6.012  0.5196  0.6016  0.2518
   24CHL1   H7A 1714   5.846   2.594   5.950  1.0855  1.2226  0.0222
   24CHL1   H7B 1715   6.024   2.589   5.997  1.1225 -1.4097 -2.3672
   24CHL1    C8 1716   5.926   2.395   5.955  0.4636  0.3202 -1.0420
   24CHL1    H8 1717   5.822   2.359   5.965  0.6594  0.2352  1.0296
   24CHL1   C14 1718   5.983   2.384   5.816 -0.2555 -1.1886 -0.1845
   24CHL1   H14 1719   6.081   2.435   5.826 -1.0541  0.4250 -0.1069
   24CHL1   C15 1720   5.911   2.459   5.703 -0.3240 -0.3852 -0.4030
   24CHL1  H15A 1721   5.803   2.444   5.724 -0.1143 -2.5210 -0.6865
   24CHL1  H15B 1722   5.942   2.566   5.693 -0.4103 -0.3254 -0.0493
   24CHL1   C16 1723   5.955   2.384   5.577  0.5677 -0.5497 -0.0132
   24CHL1  H16A 1724   5.859   2.363   5.525  0.1258  1.7200 -0.2229
   24CHL1  H16B 1725   6.012   2.456   5.515  1.4816 -1.0023  0.2867
   24CHL1   C17 1726   6.043   2.267   5.625 -0.4057  0.7761  0.2049
   24CHL1   H17 1727   6.152   2.287   5.622  0.4451 -2.5150  2.8501
   24CHL1   C13 1728   5.998   2.239   5.768 -0.6702  0.4047 -0.1482
   24CHL1   C18 1729   5.860   2.169   5.770  0.6808  0.6904 -0.6324
   24CHL1  H18A 1730   5.788   2.224   5.705  0.5606 -0.2371 -1.2969
   24CHL1  H18B 1731   5.868   2.066   5.731 -0.0492 -0.2863  1.6166
   24CHL1  H18C 1732   5.823   2.156   5.874  0.1174  0.6203 -0.8424
   24CHL1   C12 1733   6.111   2.179   5.861  0.5227  0.2797 -0.3354
   24CHL1  H12A 1734   6.132   2.074   5.831  1.1942 -0.2205  1.6798
   24CHL1  H12B 1735   6.203   2.239   5.848  1.6464 -1.4752 -0.9607
   24CHL1   C11 1736   6.050   2.172   5.999  0.8363  0.2522  0.0640
   24CHL1  H11A 1737   5.972   2.093   6.007  0.6259  0.5634  1.2967
   24CHL1  H11B 1738   6.132   2.140   6.066 -0.7389  0.1253  2.0402
   24CHL1    C9 1739   6.006   2.312   6.059 -0.3304 -0.6877 -1.2493
   24CHL1    H9 1740   6.099   2.370   6.080 -1.8736  0.2766  4.6260
   24CHL1   C10 1741   5.952   2.323   6.207  0.5396 -0.1903  0.5535
   24CHL1   C19 1742   5.836   2.227   6.215 -0.9322  0.3371  0.6154
   24CHL1  H19A 1743   5.786   2.219   6.314  0.2845  1.8931  1.4046
   24CHL1  H19B 1744   5.761   2.253   6.138  0.9658  3.2821 -0.4396
   24CHL1  H19C 1745   5.882   2.130   6.186  1.7471  1.4661  0.7623
   24CHL1    C1 1746   6.064   2.290   6.312  0.0579 -0.6450 -0.5950
   24CHL1   H1A 1747   6.097   2.186   6.295 -0.2460 -0.4880 -2.2791
   24CHL1   H1B 1748   6.150   2.358   6.294 -0.6598  0.1995 -0.9137
   24CHL1    C2 1749   6.022   2.295   6.465  0.4954 -0.0119 -0.1339
   24CHL1   H2A 1750   6.115   2.281   6.525  1.8934  0.9861 -1.9636
   24CHL1   H2B 1751   5.946   2.214   6.475 -0.2528  0.5318 -1.2481
   24CHL1   C20 1752   6.031   2.148   5.530  0.1829 -0.0162 -0.2983
   24CHL1   H20 1753   5.926   2.114   5.522  0.0384  0.4521 -0.4131
   24CHL1   C21 1754   6.110   2.029   5.587 -0.2447  0.0463  0.6312
   24CHL1  H21A 1755   6.123   1.955   5.505  1.8309  2.0290 -0.9712
   24CHL1  H21B 1756   6.054   1.984   5.671 -0.6559  1.6578  1.2730
   24CHL1  H21C 1757   6.207   2.072   5.618 -1.3376  1.7523  1.9006
   24CHL1   C22 1758   6.076   2.184   5.390  0.1407  0.1574 -0.7837
   24CHL1  H22A 1759   6.022   2.278   5.365 -0.6499 -0.3564 -1.0466
   24CHL1  H22B 1760   6.185   2.196   5.409  0.1471 -0.5453 -0.3691
   24CHL1   C23 1761   6.049   2.089   5.277 -0.2806 -0.2748  0.2337
   24CHL1  H23A 1762   6.087   1.987   5.302  0.1482 -0.5715 -1.4773
   24CHL1  H23B 1763   5.938   2.082   5.276 -0.3885  0.9329 -1.6293
   24CHL1   C24 1764   6.112   2.143   5.151  0.4675 -0.0134  0.3190
   24CHL1  H24A 1765   6.070   2.246   5.138  1.3328  0.3114  0.0573
   24CHL1  H24B 1766   6.219   2.168   5.168  0.0493  1.5829  0.7674
   24CHL1   C25 1767   6.091   2.056   5.022  0.1865 -0.2542 -0.0193
   24CHL1   H25 1768   6.127   2.108   4.931 -2.1279  1.1725 -0.1928
   24CHL1   C26 1769   6.186   1.933   5.013 -0.1948  0.3718  0.2509
   24CHL1  H26A 1770   6.158   1.848   5.080 -0.9167  1.4475  1.3730
   24CHL1  H26B 1771   6.200   1.890   4.912 -0.1784  0.8525  0.0472
   24CHL1  H26C 1772   6.290   1.954   5.044 -0.2158 -0.3358  0.8200
   24CHL1   C27 1773   5.950   2.008   4.992  0.2047 -0.6367 -0.1841
   24CHL1  H27A 1774   5.939   1.939   4.907  1.0845 -0.6646 -0.2882
   24CHL1  H27B 1775   5.914   1.955   5.083  0.3537  1.8176  1.4078
   24CHL1  H27C 1776   5.884   2.096   4.975  0.3524 -0.4498  0.1798
   25CHL1    C3 1777   2.511   5.301   6.388 -0.2094 -0.1684  0.0713
   25CHL1    H3 1778   2.513   5.412   6.384  2.0129 -0.1263  0.6838
   25CHL1    O3 1779   2.562   5.272   6.517  0.3407  0.3612  0.5769
   25CHL1   H3' 1780   2.654   5.296   6.510  0.1534  0.4573 -2.8581
   25CHL1    C4 1781   2.367   5.250   6.368  0.1495 -0.9273  0.6707
   25CHL1   H4A 1782   2.374   5.145   6.406  0.2362 -1.5107 -0.8848
   25CHL1   H4B 1783   2.298   5.305   6.435  0.1702 -1.8525  1.4792
   25CHL1    C5 1784   2.321   5.262   6.226 -0.0026  0.1039  0.1844
   25CHL1    C6 1785   2.212   5.330   6.191  0.5859 -0.4657 -0.3746
   25CHL1    H6 1786   2.151   5.373   6.271 -0.8012  1.7600 -2.4725
   25CHL1    C7 1787   2.163   5.344   6.046 -0.1276  0.7098  0.3782
   25CHL1   H7A 1788   2.052   5.336   6.043 -0.1218  0.9274 -1.1125
   25CHL1   H7B 1789   2.191   5.445   6.010  0.2299  0.1812 -0.9003
   25CHL1    C8 1790   2.225   5.241   5.945 -0.2815 -0.5389  0.0159
   25CHL1    H8 1791   2.176   5.146   5.978  0.0714 -0.5844  0.4169
   25CHL1   C14 1792   2.205   5.279   5.802 -0.2401  0.0699  0.2811
   25CHL1   H14 1793   2.257   5.375   5.780  1.3726 -1.3333 -2.6693
   25CHL1   C15 1794   2.053   5.304   5.760 -0.6730 -0.1549  0.0480
   25CHL1  H15A 1795   1.993   5.222   5.805 -1.3308  0.4853  0.3629
   25CHL1  H15B 1796   2.015   5.405   5.789 -0.1958 -0.1993  0.8723
   25CHL1   C16 1797   2.061   5.270   5.606 -0.5582  0.7497 -0.3009
   25CHL1  H16A 1798   1.992   5.185   5.588  0.4362 -0.0132 -0.5999
   25CHL1  H16B 1799   2.036   5.366   5.558 -1.3764  1.1729  0.9100
   25CHL1   C17 1800   2.208   5.237   5.569 -0.0674 -0.6103 -0.2314
   25CHL1   H17 1801   2.244   5.341   5.549  1.0086 -1.0580 -0.6568
   25CHL1   C13 1802   2.266   5.187   5.697 -0.0287  0.0747  0.1101
   25CHL1   C18 1803   2.210   5.042   5.715  0.9777 -0.3439 -0.2258
   25CHL1  H18A 1804   2.256   4.979   5.635 -0.3300 -0.0836 -1.2245
   25CHL1  H18B 1805   2.227   4.999   5.816 -0.7853  1.7120  1.0314
   25CHL1  H18C 1806   2.100   5.039   5.700  1.1479  0.7698 -1.9575
   25CHL1   C12 1807   2.423   5.193   5.715  0.4692  0.6413 -0.1041
   25CHL1  H12A 1808   2.469   5.120   5.644 -1.2750 -2.1034  1.3942
   25CHL1  H12B 1809   2.476   5.284   5.682  2.3136 -0.8287 -1.4300
   25CHL1   C11 1810   2.447   5.146   5.858 -0.4541 -0.3415  0.7885
   25CHL1  H11A 1811   2.432   5.037   5.873  0.6573 -0.9267 -1.7324
   25CHL1  H11B 1812   2.557   5.145   5.874 -0.1240 -0.5080 -1.2093
   25CHL1    C9 1813   2.374   5.232   5.970 -0.4953  0.4824  0.2543
   25CHL1    H9 1814   2.405   5.335   5.945 -0.3510  0.2586 -0.5103
   25CHL1   C10 1815   2.422   5.197   6.117  0.4903 -0.5179 -0.6364
   25CHL1   C19 1816   2.400   5.047   6.135 -0.1083  0.3841  0.2559
   25CHL1  H19A 1817   2.292   5.029   6.113 -0.8039  2.2928  1.8524
   25CHL1  H19B 1818   2.461   4.990   6.061 -0.1330  0.0017  0.5236
   25CHL1  H19C 1819   2.417   5.007   6.237  0.0742 -1.9473 -0.6099
   25CHL1    C1 1820   2.568   5.250   6.140  1.1881 -0.3013  0.0385
   25CHL1   H1A 1821   2.641   5.202   6.072 -0.3981 -1.6290 -0.7918
   25CHL1   H1B 1822   2.575   5.359   6.115 -0.6230 -0.1216  0.2090
   25CHL1    C2 1823   2.607   5.234   6.288  0.3142  0.2066  0.1718
   25CHL1   H2A 1824   2.708   5.275   6.310  0.1490  1.0383 -0.5754
   25CHL1   H2B 1825   2.598   5.125   6.307 -1.9266  0.2521 -0.3592
   25CHL1   C20 1826   2.229   5.174   5.423  0.4440  0.8239  0.5654
   25CHL1   H20 1827   2.198   5.067   5.426 -0.3765  0.8777 -2.3681
   25CHL1   C21 1828   2.376   5.156   5.381 -0.6790  0.0137  0.7691
   25CHL1  H21A 1829   2.382   5.156   5.270  0.5089 -0.5395  0.8256
   25CHL1  H21B 1830   2.419   5.058   5.409 -3.1247 -1.5786 -0.6379
   25CHL1  H21C 1831   2.439   5.241   5.416 -0.0387 -0.1122 -0.0662
   25CHL1   C22 1832   2.152   5.250   5.306 -1.2268 -0.7787 -0.6259
   25CHL1  H22A 1833   2.152   5.182   5.219 -1.5188 -1.5652 -0.0174
   25CHL1  H22B 1834   2.046   5.264   5.337 -0.4905  0.9349  1.4100
   25CHL1   C23 1835   2.211   5.392   5.278  0.1852  0.0072 -0.1179
   25CHL1  H23A 1836   2.204   5.457   5.368 -0.6067 -1.0367  0.5852
   25CHL1  H23B 1837   2.318   5.375   5.254  1.1513  0.5431  3.2807
   25CHL1   C24 1838   2.144   5.454   5.156 -0.8476  0.0600  0.0960
   25CHL1  H24A 1839   2.184   5.557   5.145 -0.7935 -0.0268 -0.5520
   25CHL1  H24B 1840   2.178   5.392   5.070  2.5898 -1.0056  2.0429
   25CHL1   C25 1841   1.989   5.452   5.157  0.6388 -0.8561  0.2626
   25CHL1   H25 1842   1.956   5.346   5.154  0.1043 -0.6984  0.5133
   25CHL1   C26 1843   1.933   5.528   5.277 -0.0807  0.0591  0.4055
   25CHL1  H26A 1844   1.824   5.542   5.268 -0.5107 -2.7732  0.3583
   25CHL1  H26B 1845   1.951   5.489   5.380 -3.7525 -0.3664  1.0115
   25CHL1  H26C 1846   1.980   5.627   5.261 -0.0932 -0.3522 -2.7168
   25CHL1   C27 1847   1.929   5.518   5.034  0.4285 -0.1249  0.0729
   25CHL1  H27A 1848   1.818   5.526   5.041  0.2837 -1.7771  0.1631
   25CHL1  H27B 1849   1.961   5.623   5.022  1.4727 -0.3092  1.1043
   25CHL1  H27C 1850   1.958   5.446   4.954  0.9496  0.2348 -0.0610
   26CHL1    C3 1851   6.713   4.941   6.282 -0.3079  0.3440 -0.6396
   26CHL1    H3 1852   6.751   5.042   6.256  0.0212  0.5554  0.6225
   26CHL1    O3 1853   6.717   4.930   6.431  0.1215  0.9181 -0.5065
   26CHL1   H3' 1854   6.708   4.837   6.454  0.5623  1.1244  0.6048
   26CHL1    C4 1855   6.571   4.915   6.225  0.1465 -0.0173 -0.0152
   26CHL1   H4A 1856   6.532   4.817   6.260 -1.6353  0.2095 -1.2353
   26CHL1   H4B 1857   6.520   5.002   6.272  1.9870  1.5344 -0.7731
   26CHL1    C5 1858   6.580   4.927   6.076 -0.0096  0.0817  0.0676
   26CHL1    C6 1859   6.506   5.016   6.010  0.4575 -0.1442 -0.5242
   26CHL1    H6 1860   6.442   5.072   6.079  0.3367 -2.1436  1.0858
   26CHL1    C7 1861   6.496   5.028   5.864 -0.7845  0.0247  0.0140
   26CHL1   H7A 1862   6.389   5.046   5.839 -0.2094  3.5895 -0.5070
   26CHL1   H7B 1863   6.561   5.111   5.830  0.7966 -0.2273  2.2202
   26CHL1    C8 1864   6.545   4.900   5.794 -0.4622  1.2395 -0.5905
   26CHL1    H8 1865   6.462   4.826   5.801 -0.1680  1.0056  0.8900
   26CHL1   C14 1866   6.564   4.927   5.640  0.2418  0.6611  1.0311
   26CHL1   H14 1867   6.646   5.001   5.632  2.7789 -2.2090 -3.2460
   26CHL1   C15 1868   6.444   4.972   5.559 -0.2513 -0.3680 -0.2243
   26CHL1  H15A 1869   6.365   4.903   5.595  0.5603 -0.3843  1.6698
   26CHL1  H15B 1870   6.395   5.068   5.585 -0.5366  0.2821 -2.9183
   26CHL1   C16 1871   6.478   4.949   5.412 -0.0233  0.2289 -0.2791
   26CHL1  H16A 1872   6.396   4.891   5.364  1.6201 -1.6564 -0.9602
   26CHL1  H16B 1873   6.494   5.042   5.352 -2.3623  0.4464 -0.6686
   26CHL1   C17 1874   6.608   4.858   5.418  0.3365 -0.5749  0.5698
   26CHL1   H17 1875   6.690   4.931   5.402  0.6592 -0.3891  2.8667
   26CHL1   C13 1876   6.614   4.804   5.556 -0.1324  0.4397 -0.0030
   26CHL1   C18 1877   6.514   4.690   5.573  0.3890  0.7284 -0.2978
   26CHL1  H18A 1878   6.420   4.719   5.520  0.2194  1.1898  0.2431
   26CHL1  H18B 1879   6.525   4.597   5.513  1.6843  1.7235 -1.6445
   26CHL1  H18C 1880   6.483   4.669   5.678  0.4749  2.3468  0.0783
   26CHL1   C12 1881   6.758   4.769   5.612  0.4602  0.5509 -0.0152
   26CHL1  H12A 1882   6.800   4.676   5.569 -3.1028 -0.9128 -0.6991
   26CHL1  H12B 1883   6.823   4.857   5.593  2.1284 -0.8375 -1.0070
   26CHL1   C11 1884   6.750   4.734   5.767  0.6420  0.4718 -0.1638
   26CHL1  H11A 1885   6.690   4.641   5.777  2.6400 -1.0392 -1.5609
   26CHL1  H11B 1886   6.853   4.710   5.801  0.4819 -2.4310 -1.4434
   26CHL1    C9 1887   6.681   4.845   5.855  0.0707  0.2215  0.3604
   26CHL1    H9 1888   6.747   4.933   5.836 -3.0278  2.8158  0.7097
   26CHL1   C10 1889   6.680   4.828   6.009 -0.6007  0.3129 -0.4993
   26CHL1   C19 1890   6.626   4.682   6.028 -0.1775  0.8123 -0.2463
   26CHL1  H19A 1891   6.704   4.608   6.002 -1.5782  0.1793 -3.0978
   26CHL1  H19B 1892   6.591   4.667   6.132  0.8807  1.1324  0.1663
   26CHL1  H19C 1893   6.534   4.670   5.966 -0.5541  4.2011 -0.5189
   26CHL1    C1 1894   6.821   4.849   6.076  0.5704 -0.1699 -0.6907
   26CHL1   H1A 1895   6.895   4.775   6.040  1.1244 -0.2436  0.5465
   26CHL1   H1B 1896   6.871   4.945   6.050  2.0507 -0.1938  1.7660
   26CHL1    C2 1897   6.814   4.836   6.230 -0.0175 -0.3417 -0.2409
   26CHL1   H2A 1898   6.915   4.850   6.274 -0.5986  2.9295  0.3279
   26CHL1   H2B 1899   6.777   4.733   6.251 -0.2801 -0.4240 -1.0482
   26CHL1   C20 1900   6.609   4.756   5.299 -0.0044  0.3076 -0.4580
   26CHL1   H20 1901   6.529   4.683   5.322 -0.3066  0.2108 -1.7666
   26CHL1   C21 1902   6.743   4.678   5.314  0.4870 -0.3017  0.3180
   26CHL1  H21A 1903   6.825   4.744   5.349  0.3027 -0.4545  1.0569
   26CHL1  H21B 1904   6.772   4.645   5.212 -0.9484 -1.0666  0.1249
   26CHL1  H21C 1905   6.735   4.594   5.387 -0.3794  0.3404  0.9825
   26CHL1   C22 1906   6.597   4.819   5.163  0.6437  0.3026  0.2207
   26CHL1  H22A 1907   6.511   4.889   5.164  1.7227  1.7243  2.4253
   26CHL1  H22B 1908   6.689   4.876   5.142 -0.4895  2.1915  0.1236
   26CHL1   C23 1909   6.565   4.723   5.048 -0.0805 -0.5418 -0.2819
   26CHL1  H23A 1910   6.583   4.777   4.952  4.7044 -1.4090 -0.1108
   26CHL1  H23B 1911   6.642   4.643   5.040  0.8687  0.3060  0.1983
   26CHL1   C24 1912   6.424   4.669   5.056 -0.1475 -0.1166 -0.3807
   26CHL1  H24A 1913   6.453   4.594   5.133  0.7646  1.8143  1.2486
   26CHL1  H24B 1914   6.348   4.742   5.091  1.7503  1.4777  0.6020
   26CHL1   C25 1915   6.379   4.593   4.937  0.2343 -0.5767 -0.1491
   26CHL1   H25 1916   6.294   4.523   4.949  0.7376 -1.2954 -0.6658
   26CHL1   C26 1917   6.327   4.699   4.840  0.2815  0.2979  0.6446
   26CHL1  H26A 1918   6.267   4.783   4.882 -0.4416 -0.2747  0.7818
   26CHL1  H26B 1919   6.412   4.762   4.805 -1.0936  1.5733 -0.5111
   26CHL1  H26C 1920   6.278   4.660   4.748 -0.2049 -1.3468  1.5623
   26CHL1   C27 1921   6.488   4.501   4.877  0.5883  0.1907 -0.0343
   26CHL1  H27A 1922   6.447   4.454   4.785  0.3947  0.5392 -0.1314
   26CHL1  H27B 1923   6.578   4.557   4.843 -1.0729  3.3937  0.4579
   26CHL1  H27C 1924   6.516   4.422   4.949  0.3024 -0.1919 -0.3398
   27CHL1    C3 1925   6.357   2.571   6.514  0.5599 -0.3442 -1.0708
   27CHL1    H3 1926   6.292   2.483   6.495 -0.4773  0.7222 -2.7358
   27CHL1    O3 1927   6.381   2.571   6.653 -0.0772  0.1371  0.5647
   27CHL1   H3' 1928   6.427   2.490   6.672 -0.2616  0.2036  1.3407
   27CHL1    C4 1929   6.489   2.538   6.441  0.4393 -0.5028 -0.3977
   27CHL1   H4A 1930   6.571   2.612   6.456 -1.9048  1.9140  1.3469
   27CHL1   H4B 1931   6.527   2.438   6.471  0.5429 -0.4344 -0.3004
   27CHL1    C5 1932   6.452   2.524   6.297 -0.4891 -0.5653 -0.0690
   27CHL1    C6 1933   6.490   2.409   6.231 -0.1359 -0.6324 -0.3545
   27CHL1    H6 1934   6.536   2.326   6.287  0.8654  0.0632 -0.1343
   27CHL1    C7 1935   6.487   2.391   6.083  0.2976 -0.2012  0.1943
   27CHL1   H7A 1936   6.583   2.353   6.044 -0.0876 -2.6022  1.4125
   27CHL1   H7B 1937   6.416   2.309   6.059  0.6042 -0.3471 -0.2218
   27CHL1    C8 1938   6.452   2.523   6.014 -0.2790  0.4202  0.1277
   27CHL1    H8 1939   6.543   2.587   6.013 -0.7086  1.0561 -0.7676
   27CHL1   C14 1940   6.406   2.499   5.872 -0.0755  0.6358  0.0794
   27CHL1   H14 1941   6.313   2.440   5.888 -0.8605  0.5344 -3.9199
   27CHL1   C15 1942   6.507   2.420   5.786 -0.6265 -0.3068  0.8546
   27CHL1  H15A 1943   6.607   2.470   5.786 -1.2259  1.0221 -0.9059
   27CHL1  H15B 1944   6.529   2.315   5.815 -3.7359 -0.5163  2.8382
   27CHL1   C16 1945   6.455   2.439   5.646 -0.2928  0.4579  0.1682
   27CHL1  H16A 1946   6.543   2.468   5.585 -1.0182  2.9736  0.1871
   27CHL1  H16B 1947   6.421   2.341   5.606  1.1774  0.3898 -0.9916
   27CHL1   C17 1948   6.344   2.550   5.653  0.1449  0.0150  0.4129
   27CHL1   H17 1949   6.244   2.503   5.657 -0.4536  1.2585  0.5390
   27CHL1   C13 1950   6.371   2.625   5.791  0.3006  0.9790  0.3750
   27CHL1   C18 1951   6.493   2.720   5.763  0.0143  0.0375 -0.6437
   27CHL1  H18A 1952   6.570   2.684   5.691  0.6612 -0.7950  0.4271
   27CHL1  H18B 1953   6.451   2.809   5.713  1.4249  0.4411 -1.1544
   27CHL1  H18C 1954   6.536   2.749   5.862 -2.6395  0.3448  0.5067
   27CHL1   C12 1955   6.255   2.697   5.853  0.0051  0.2461 -0.3415
   27CHL1  H12A 1956   6.234   2.799   5.815  0.8178  0.5069 -0.1101
   27CHL1  H12B 1957   6.176   2.620   5.839  0.1096 -0.2679  1.5210
   27CHL1   C11 1958   6.287   2.721   6.003 -0.2635  0.4336 -0.7729
   27CHL1  H11A 1959   6.362   2.801   6.012 -1.0704  1.0701  0.5464
   27CHL1  H11B 1960   6.194   2.767   6.043 -0.6879 -0.9963 -0.0568
   27CHL1    C9 1961   6.337   2.598   6.088  0.5875  0.1308  0.2179
   27CHL1    H9 1962   6.251   2.528   6.096 -0.4768  1.3720  0.0717
   27CHL1   C10 1963   6.382   2.646   6.229 -0.7460  0.1693  0.0056
   27CHL1   C19 1964   6.493   2.756   6.225 -0.8847  0.5761 -0.8021
   27CHL1  H19A 1965   6.446   2.848   6.185  0.2233  0.9185 -1.3600
   27CHL1  H19B 1966   6.533   2.785   6.324 -1.2448  1.5673 -0.9397
   27CHL1  H19C 1967   6.582   2.716   6.172 -0.0180 -0.4590  1.3100
   27CHL1    C1 1968   6.259   2.690   6.317  0.5632 -0.0465  0.3112
   27CHL1   H1A 1969   6.212   2.783   6.279  0.7601 -0.8972 -2.2167
   27CHL1   H1B 1970   6.186   2.607   6.307 -2.2159  2.4419 -2.0195
   27CHL1    C2 1971   6.283   2.701   6.468 -0.0350 -0.5023  0.0134
   27CHL1   H2A 1972   6.180   2.714   6.510 -0.3007  0.3106 -0.8640
   27CHL1   H2B 1973   6.346   2.786   6.500  0.7059 -0.5067 -1.3739
   27CHL1   C20 1974   6.325   2.635   5.527 -0.0913 -0.0919  0.8304
   27CHL1   H20 1975   6.415   2.701   5.518  0.6195 -0.7440  2.6101
   27CHL1   C21 1976   6.191   2.709   5.519 -0.0581 -0.2413 -0.4406
   27CHL1  H21A 1977   6.194   2.794   5.447  1.3415 -3.2879 -4.3378
   27CHL1  H21B 1978   6.166   2.763   5.613  0.2125  1.1947 -1.1571
   27CHL1  H21C 1979   6.105   2.642   5.496  0.3174 -1.3136  1.1038
   27CHL1   C22 1980   6.331   2.543   5.393 -0.3689  0.1108  0.2605
   27CHL1  H22A 1981   6.410   2.465   5.389 -0.6216 -0.1458  0.2697
   27CHL1  H22B 1982   6.230   2.498   5.393 -0.6008  0.6259 -0.3207
   27CHL1   C23 1983   6.334   2.609   5.252  0.1328  0.7991 -0.2557
   27CHL1  H23A 1984   6.247   2.675   5.233 -1.9262 -1.1318  1.8484
   27CHL1  H23B 1985   6.429   2.667   5.253  0.9630 -0.4950 -0.8870
   27CHL1   C24 1986   6.326   2.500   5.140 -0.0065 -0.7308  0.5756
   27CHL1  H24A 1987   6.400   2.418   5.157  0.9386 -0.0946 -0.3825
   27CHL1  H24B 1988   6.228   2.449   5.151  0.4177 -1.6483  0.2165
   27CHL1   C25 1989   6.347   2.543   4.995 -0.9137  0.4160 -0.5355
   27CHL1   H25 1990   6.292   2.638   4.978  0.1267  0.9217 -1.2108
   27CHL1   C26 1991   6.498   2.559   4.959 -0.1927 -0.7250  0.0260
   27CHL1  H26A 1992   6.511   2.554   4.848 -2.7302 -0.3306 -0.3564
   27CHL1  H26B 1993   6.527   2.657   5.002 -3.0310  0.0156  0.4918
   27CHL1  H26C 1994   6.560   2.478   5.002  0.4905 -1.0591 -1.5026
   27CHL1   C27 1995   6.287   2.434   4.898 -0.4746  0.2878  0.4886
   27CHL1  H27A 1996   6.316   2.463   4.795  0.5823 -2.0065  0.0760
   27CHL1  H27B 1997   6.337   2.338   4.922 -0.1085  0.7706  1.7578
   27CHL1  H27C 1998   6.176   2.427   4.907 -0.5134 -3.5965 -1.0325
   28CHL1    C3 1999   6.385   4.195   6.122 -0.2395  0.3469 -0.2274
   28CHL1    H3 2000   6.492   4.196   6.093 -0.5427 -1.7577 -1.6130
   28CHL1    O3 2001   6.375   4.209   6.263 -0.4096 -0.3288 -0.5040
   28CHL1   H3' 2002   6.285   4.191   6.293 -0.5839 -1.0417 -1.3812
   28CHL1    C4 2003   6.315   4.309   6.046 -0.1450  0.1438  0.0962
   28CHL1   H4A 2004   6.208   4.303   6.078 -0.3313 -2.5972 -0.7133
   28CHL1   H4B 2005   6.360   4.402   6.084 -0.7288  0.0356  1.1138
   28CHL1    C5 2006   6.316   4.304   5.897  0.1523 -0.0881  0.0771
   28CHL1    C6 2007   6.357   4.406   5.816  0.0314 -0.2084 -0.3128
   28CHL1    H6 2008   6.396   4.500   5.858  0.4920  1.0366 -3.2809
   28CHL1    C7 2009   6.363   4.396   5.670  0.5330  0.7512  0.5533
   28CHL1   H7A 2010   6.320   4.486   5.621 -1.8261 -1.2444 -1.2383
   28CHL1   H7B 2011   6.463   4.378   5.626 -0.2190 -1.8892 -0.2165
   28CHL1    C8 2012   6.274   4.281   5.620  0.4805 -0.8415 -0.1186
   28CHL1    H8 2013   6.167   4.314   5.620  0.5216 -0.5393  2.0777
   28CHL1   C14 2014   6.316   4.250   5.474 -0.0193 -0.4115 -0.1491
   28CHL1   H14 2015   6.425   4.228   5.478 -0.1308 -1.0044  3.3792
   28CHL1   C15 2016   6.312   4.366   5.372 -0.3320 -0.3703 -0.2087
   28CHL1  H15A 2017   6.206   4.397   5.384 -0.3819  0.3454 -2.1414
   28CHL1  H15B 2018   6.386   4.447   5.388 -0.4070 -0.2210 -0.6092
   28CHL1   C16 2019   6.329   4.298   5.234  0.0179  1.4069 -0.5169
   28CHL1  H16A 2020   6.255   4.340   5.162 -2.1018  0.3029  0.9026
   28CHL1  H16B 2021   6.436   4.309   5.207  0.9234  1.2675  2.6452
   28CHL1   C17 2022   6.314   4.143   5.258  0.0234  0.2980 -0.3337
   28CHL1   H17 2023   6.415   4.099   5.268  0.4388  1.4237  0.5543
   28CHL1   C13 2024   6.250   4.134   5.400 -0.0473 -0.2048  0.2185
   28CHL1   C18 2025   6.094   4.147   5.391 -0.7457  0.6057  0.3689
   28CHL1  H18A 2026   6.059   4.044   5.366  0.0474  0.5751 -0.6494
   28CHL1  H18B 2027   6.042   4.169   5.487 -2.3130 -1.2427  0.0106
   28CHL1  H18C 2028   6.051   4.214   5.313 -1.1677 -2.1369 -1.9077
   28CHL1   C12 2029   6.293   4.006   5.479  0.5693 -0.3174  0.1187
   28CHL1  H12A 2030   6.242   3.921   5.430 -2.8412 -0.9896  4.2386
   28CHL1  H12B 2031   6.403   3.996   5.471  0.5671  1.2959 -3.2619
   28CHL1   C11 2032   6.247   4.022   5.622 -0.0826 -0.4419 -1.1975
   28CHL1  H11A 2033   6.137   4.013   5.622 -0.2293  1.0146 -0.8119
   28CHL1  H11B 2034   6.280   3.943   5.693  0.6340  0.6196 -0.3031
   28CHL1    C9 2035   6.302   4.147   5.695 -0.4139 -0.0106 -0.3105
   28CHL1    H9 2036   6.413   4.147   5.693 -0.4192  0.7268 -1.2552
   28CHL1   C10 2037   6.270   4.161   5.846  0.2199  0.3461  0.1428
   28CHL1   C19 2038   6.110   4.153   5.865  0.5910 -0.2676  0.3406
   28CHL1  H19A 2039   6.091   4.156   5.974 -0.6557  0.7472  0.1271
   28CHL1  H19B 2040   6.073   4.246   5.815  0.5461  0.0431  0.9412
   28CHL1  H19C 2041   6.058   4.072   5.810  0.3821  0.1128 -0.0366
   28CHL1    C1 2042   6.342   4.048   5.924 -0.3522 -0.2049  0.7372
   28CHL1   H1A 2043   6.308   3.948   5.890  0.9457 -0.0037 -1.3433
   28CHL1   H1B 2044   6.451   4.042   5.905  0.0640  1.2386  2.4643
   28CHL1    C2 2045   6.331   4.066   6.078 -0.4991  0.0456  0.5169
   28CHL1   H2A 2046   6.383   3.988   6.137 -0.4648 -0.7233 -0.5097
   28CHL1   H2B 2047   6.226   4.055   6.113  0.1885 -1.2500  2.3626
   28CHL1   C20 2048   6.241   4.073   5.138 -0.3162  0.4440  0.3385
   28CHL1   H20 2049   6.136   4.108   5.129 -1.1097 -1.9281 -0.1561
   28CHL1   C21 2050   6.244   3.918   5.142 -0.5919  0.2640  0.0601
   28CHL1  H21A 2051   6.348   3.882   5.158 -0.8519 -0.2224  0.7077
   28CHL1  H21B 2052   6.182   3.872   5.062 -1.3062  1.0910  0.1253
   28CHL1  H21C 2053   6.193   3.889   5.237 -2.2504 -2.2622 -1.4615
   28CHL1   C22 2054   6.301   4.110   4.996 -0.0791  0.6464  0.1057
   28CHL1  H22A 2055   6.223   4.070   4.927 -1.0347  1.2863  0.7897
   28CHL1  H22B 2056   6.284   4.217   4.975  0.7942  0.1988 -3.4497
   28CHL1   C23 2057   6.442   4.083   4.963  0.5141  0.7179 -0.9598
   28CHL1  H23A 2058   6.511   4.137   5.032 -1.2744 -1.4151  2.8023
   28CHL1  H23B 2059   6.464   3.974   4.967  0.8524  0.7782 -1.0749
   28CHL1   C24 2060   6.472   4.121   4.824 -0.2567  0.8510  0.2216
   28CHL1  H24A 2061   6.429   4.045   4.754  0.8802  0.1644  0.2571
   28CHL1  H24B 2062   6.423   4.220   4.805 -0.6127  0.3605 -1.7022
   28CHL1   C25 2063   6.622   4.123   4.789 -0.0376  0.2756 -0.5929
   28CHL1   H25 2064   6.681   4.201   4.842  1.7826 -0.1198 -1.9010
   28CHL1   C26 2065   6.692   3.990   4.818 -0.2514 -0.4946 -0.1033
   28CHL1  H26A 2066   6.794   3.998   4.776  0.1144  3.1587  1.1828
   28CHL1  H26B 2067   6.685   3.951   4.922 -0.1338  0.2058  0.1697
   28CHL1  H26C 2068   6.639   3.916   4.754 -1.6084 -0.6685  1.1675
   28CHL1   C27 2069   6.624   4.172   4.641  0.3465 -0.6179  0.3635
   28CHL1  H27A 2070   6.731   4.167   4.610  0.7539 -0.4649  1.6956
   28CHL1  H27B 2071   6.554   4.101   4.591 -0.9521  1.6554 -1.2041
   28CHL1  H27C 2072   6.586   4.276   4.636 -0.6808 -1.0377 -1.1789
   29CHL1    C3 2073   6.094   5.641   3.136 -0.0986 -0.0540 -0.1043
   29CHL1    H3 2074   6.172   5.691   3.197 -1.8026 -0.4989  2.5753
   29CHL1    O3 2075   6.112   5.624   2.993  0.1347 -0.1875  0.4511
   29CHL1   H3' 2076   6.077   5.540   2.961  0.5563  0.1295 -0.8847
   29CHL1    C4 2077   6.092   5.499   3.206 -0.6203 -0.3480 -0.8310
   29CHL1   H4A 2078   6.022   5.437   3.147 -0.6538 -0.6570 -0.4695
   29CHL1   H4B 2079   6.196   5.468   3.181 -0.3890  1.1278 -1.8670
   29CHL1    C5 2080   6.057   5.496   3.356  0.3275 -0.1900 -0.3723
   29CHL1    C6 2081   6.120   5.427   3.449  0.7762 -0.2378  0.2650
   29CHL1    H6 2082   6.200   5.358   3.418 -0.5828 -0.9972 -1.6890
   29CHL1    C7 2083   6.067   5.408   3.593  0.5392  0.1774 -0.0291
   29CHL1   H7A 2084   6.059   5.299   3.615  1.3902  0.3170  1.0686
   29CHL1   H7B 2085   6.146   5.437   3.665  1.5350  0.1058 -1.0614
   29CHL1    C8 2086   5.944   5.490   3.620 -0.0253  0.4035 -0.8046
   29CHL1    H8 2087   5.858   5.426   3.594  0.2516 -0.2956 -0.0243
   29CHL1   C14 2088   5.936   5.523   3.772 -0.5559  0.0332  0.3884
   29CHL1   H14 2089   6.019   5.593   3.795 -0.3415 -0.9013  2.6928
   29CHL1   C15 2090   5.949   5.409   3.874  0.4495 -0.1190  0.1696
   29CHL1  H15A 2091   5.882   5.332   3.831  1.1516  0.0849 -1.3654
   29CHL1  H15B 2092   6.050   5.363   3.879  0.8103  0.7810  1.7533
   29CHL1   C16 2093   5.896   5.469   4.013 -0.1009  0.6476 -0.1540
   29CHL1  H16A 2094   5.825   5.392   4.051  0.9874 -0.8421 -1.0393
   29CHL1  H16B 2095   5.983   5.483   4.081 -0.3541  1.0749  0.0859
   29CHL1   C17 2096   5.831   5.602   3.971  0.2688 -0.5549  0.3413
   29CHL1   H17 2097   5.912   5.678   3.974 -0.2147  0.1568 -2.0764
   29CHL1   C13 2098   5.808   5.601   3.816 -0.3675 -0.1759 -0.7429
   29CHL1   C18 2099   5.677   5.523   3.783  0.4906  0.0057 -0.9156
   29CHL1  H18A 2100   5.591   5.594   3.777  0.1594 -0.4409 -1.7214
   29CHL1  H18B 2101   5.681   5.478   3.681 -0.9384 -1.1313 -0.5139
   29CHL1  H18C 2102   5.659   5.447   3.862  0.9776  1.9570  1.1537
   29CHL1   C12 2103   5.806   5.734   3.738  1.0955 -0.4388 -0.2765
   29CHL1  H12A 2104   5.707   5.781   3.753  1.0666 -0.5711 -0.0438
   29CHL1  H12B 2105   5.882   5.806   3.775  0.9969 -0.0978 -0.7304
   29CHL1   C11 2106   5.817   5.712   3.586 -0.3730 -0.1023 -0.1352
   29CHL1  H11A 2107   5.729   5.650   3.557  0.1499 -0.9484  0.0488
   29CHL1  H11B 2108   5.814   5.804   3.524 -3.3516 -0.6288 -0.9014
   29CHL1    C9 2109   5.936   5.618   3.540 -0.3910  1.1367 -0.1885
   29CHL1    H9 2110   6.032   5.670   3.561  0.2343 -0.1671  0.2793
   29CHL1   C10 2111   5.937   5.588   3.389 -0.4217 -0.1720 -0.4598
   29CHL1   C19 2112   5.811   5.512   3.342  0.1270  0.6526  0.0473
   29CHL1  H19A 2113   5.804   5.491   3.233  0.5329 -0.2243  0.1835
   29CHL1  H19B 2114   5.802   5.415   3.395 -0.2888 -0.8091 -2.5407
   29CHL1  H19C 2115   5.715   5.564   3.364 -0.6927 -0.2092 -1.3483
   29CHL1    C1 2116   5.937   5.715   3.309  0.4245 -0.6021  0.4310
   29CHL1   H1A 2117   5.838   5.765   3.318 -0.7047 -2.7929  0.7491
   29CHL1   H1B 2118   6.012   5.790   3.344 -0.3612  0.0193  0.8013
   29CHL1    C2 2119   5.960   5.705   3.158 -0.1641 -0.3328  0.3300
   29CHL1   H2A 2120   5.968   5.808   3.118  0.5543  0.1687  1.7033
   29CHL1   H2B 2121   5.874   5.661   3.103 -0.5109  0.1658  0.4594
   29CHL1   C20 2122   5.716   5.641   4.064 -0.4529 -0.6181 -0.7911
   29CHL1   H20 2123   5.632   5.576   4.032 -0.9357 -0.3117 -0.1745
   29CHL1   C21 2124   5.685   5.793   4.036 -0.0224  0.4733 -0.9634
   29CHL1  H21A 2125   5.631   5.839   4.122 -0.5843  0.2938 -1.2184
   29CHL1  H21B 2126   5.618   5.795   3.948 -3.1183 -2.6177  1.0896
   29CHL1  H21C 2127   5.781   5.850   4.031 -0.0432  0.4824 -1.2810
   29CHL1   C22 2128   5.743   5.624   4.223  0.5925  0.1565 -0.3613
   29CHL1  H22A 2129   5.662   5.676   4.278 -1.5101 -2.9468 -0.3083
   29CHL1  H22B 2130   5.751   5.516   4.246  0.5268  0.2244 -0.0202
   29CHL1   C23 2131   5.882   5.678   4.274  0.2890  0.1607  0.1810
   29CHL1  H23A 2132   5.964   5.668   4.200 -0.3485 -0.9956 -0.3946
   29CHL1  H23B 2133   5.879   5.789   4.283 -1.7060  0.0332  2.3288
   29CHL1   C24 2134   5.938   5.621   4.407  0.7317  0.0592 -0.0187
   29CHL1  H24A 2135   5.854   5.626   4.479  1.0021 -2.4945  0.5656
   29CHL1  H24B 2136   5.967   5.514   4.405 -0.0101 -0.1496 -1.1904
   29CHL1   C25 2137   6.048   5.701   4.469 -0.6128 -0.0840  0.4768
   29CHL1   H25 2138   6.014   5.806   4.478 -1.3178 -0.0596 -1.7015
   29CHL1   C26 2139   6.078   5.652   4.608 -0.4743  0.1440 -0.6024
   29CHL1  H26A 2140   6.151   5.569   4.615  0.6815  1.1823  0.0959
   29CHL1  H26B 2141   6.144   5.728   4.655 -1.0686  0.3457 -0.0803
   29CHL1  H26C 2142   5.986   5.630   4.666  0.5208 -0.0766  0.9625
   29CHL1   C27 2143   6.173   5.700   4.384  0.2291  0.0169  0.8507
   29CHL1  H27A 2144   6.243   5.771   4.432  1.0243 -0.4516  0.4069
   29CHL1  H27B 2145   6.227   5.605   4.362  0.3751  0.8990 -3.6547
   29CHL1  H27C 2146   6.155   5.760   4.292  0.5267 -0.0349  0.7565
   30CHL1    C3 2147   0.256   5.474   2.776  0.1447 -0.7935 -0.4687
   30CHL1    H3 2148   0.303   5.385   2.823  1.2903 -0.7924 -1.5519
   30CHL1    O3 2149   0.218   5.435   2.643 -0.1652 -0.0564 -0.5594
   30CHL1   H3' 2150   0.303   5.408   2.609  0.7110  0.5609  1.0325
   30CHL1    C4 2151   0.133   5.516   2.853 -0.2976 -0.4884 -0.6197
   30CHL1   H4A 2152   0.076   5.587   2.790  1.4042  0.7565 -0.8103
   30CHL1   H4B 2153   0.077   5.422   2.871 -0.0762 -0.3676  0.8555
   30CHL1    C5 2154   0.156   5.584   2.991  0.4684  0.0142  0.0479
   30CHL1    C6 2155   0.081   5.545   3.096  0.1939  0.2911  0.2211
   30CHL1    H6 2156  -0.005   5.478   3.084  0.6342  0.0920 -2.7751
   30CHL1    C7 2157   0.095   5.585   3.235 -0.7976 -0.1693  0.1195
   30CHL1   H7A 2158  -0.003   5.606   3.284 -0.1549 -1.6261  2.1761
   30CHL1   H7B 2159   0.152   5.514   3.299 -0.0614 -0.4880 -0.8731
   30CHL1    C8 2160   0.192   5.705   3.244  0.6459 -0.9325 -0.2387
   30CHL1    H8 2161   0.128   5.790   3.213  0.6998 -0.6138  0.4883
   30CHL1   C14 2162   0.241   5.736   3.388  0.2362 -0.4408 -0.0049
   30CHL1   H14 2163   0.308   5.651   3.414 -0.1779 -0.0811  2.5208
   30CHL1   C15 2164   0.138   5.746   3.499 -0.7574  0.3821  0.4369
   30CHL1  H15A 2165   0.044   5.794   3.462  0.1875  1.1241 -1.0911
   30CHL1  H15B 2166   0.120   5.645   3.542  2.0102  0.5481  2.2159
   30CHL1   C16 2167   0.199   5.840   3.602  0.4858 -0.2717 -0.3099
   30CHL1  H16A 2168   0.141   5.935   3.604 -0.4560 -0.8275 -0.1022
   30CHL1  H16B 2169   0.204   5.794   3.703 -0.3649  1.9853  0.8438
   30CHL1   C17 2170   0.337   5.873   3.559 -1.2731 -0.0459  0.2549
   30CHL1   H17 2171   0.406   5.789   3.580  1.2002  2.1712  1.5536
   30CHL1   C13 2172   0.324   5.864   3.402 -0.3244  0.3744 -0.9362
   30CHL1   C18 2173   0.255   5.999   3.362 -0.0937  0.0510  0.8916
   30CHL1  H18A 2174   0.170   6.016   3.431 -1.0579 -3.3766  0.7299
   30CHL1  H18B 2175   0.322   6.087   3.348 -1.4741  1.1820  1.1093
   30CHL1  H18C 2176   0.220   5.974   3.260 -1.7718 -0.1403  1.4826
   30CHL1   C12 2177   0.455   5.838   3.324 -0.0204  0.0374 -0.6195
   30CHL1  H12A 2178   0.522   5.927   3.324 -1.1294  0.9717 -2.9276
   30CHL1  H12B 2179   0.513   5.749   3.356  1.0742  0.8805 -0.1976
   30CHL1   C11 2180   0.418   5.813   3.177  0.3559 -0.2481  0.8629
   30CHL1  H11A 2181   0.374   5.899   3.121  0.7012 -0.8674 -0.4008
   30CHL1  H11B 2182   0.507   5.789   3.114  0.2015 -0.7658  0.8412
   30CHL1    C9 2183   0.312   5.700   3.149  0.1398  0.1930  0.5301
   30CHL1    H9 2184   0.362   5.604   3.173 -0.5377 -0.4972 -0.7204
   30CHL1   C10 2185   0.271   5.682   2.997  0.0404 -0.1813  1.0046
   30CHL1   C19 2186   0.225   5.818   2.931 -0.1355  0.2203 -0.7072
   30CHL1  H19A 2187   0.165   5.876   3.004 -1.3086 -0.1586 -1.3465
   30CHL1  H19B 2188   0.314   5.883   2.917 -0.4926  0.9169  0.2192
   30CHL1  H19C 2189   0.178   5.798   2.832  0.5199 -0.1975 -0.9429
   30CHL1    C1 2190   0.388   5.640   2.911 -0.1174  0.5736 -0.5298
   30CHL1   H1A 2191   0.462   5.723   2.908  0.3502  0.1518 -0.8705
   30CHL1   H1B 2192   0.439   5.562   2.972  0.5910  1.7123  0.3706
   30CHL1    C2 2193   0.365   5.582   2.764 -0.1273 -0.2077 -0.2334
   30CHL1   H2A 2194   0.455   5.537   2.718 -1.0394 -0.9920 -1.3220
   30CHL1   H2B 2195   0.326   5.659   2.694  1.8580 -0.7130 -1.9772
   30CHL1   C20 2196   0.400   5.999   3.625  0.5965 -0.4866 -0.1647
   30CHL1   H20 2197   0.337   6.084   3.591  1.5519  0.7672  1.0876
   30CHL1   C21 2198   0.548   6.008   3.586 -0.0674 -0.1847 -0.3295
   30CHL1  H21A 2199   0.596   5.909   3.568 -2.2833 -1.3666 -0.1008
   30CHL1  H21B 2200   0.608   6.074   3.651 -1.3091 -0.3094  0.9846
   30CHL1  H21C 2201   0.545   6.062   3.488  1.0027 -0.9181 -0.7871
   30CHL1   C22 2202   0.391   5.995   3.782  0.5081  0.1643 -0.2292
   30CHL1  H22A 2203   0.424   6.095   3.814  1.3233 -0.6282  1.5195
   30CHL1  H22B 2204   0.285   5.992   3.815  0.8617 -2.0713  0.9310
   30CHL1   C23 2205   0.469   5.887   3.848  0.5463 -0.0728 -0.6846
   30CHL1  H23A 2206   0.432   5.787   3.818 -0.1246 -0.4147  1.1199
   30CHL1  H23B 2207   0.576   5.878   3.820  1.0907 -3.2035  1.7528
   30CHL1   C24 2208   0.465   5.882   4.002 -0.0884  0.1151 -1.0530
   30CHL1  H24A 2209   0.510   5.981   4.026  3.5101 -0.9597 -2.6232
   30CHL1  H24B 2210   0.363   5.891   4.045 -1.4094  1.1958 -4.1621
   30CHL1   C25 2211   0.541   5.770   4.066  0.2138  0.2161 -0.6887
   30CHL1   H25 2212   0.626   5.732   4.005  1.4302 -0.6652  1.4294
   30CHL1   C26 2213   0.592   5.813   4.201 -0.6762 -0.1265 -0.3019
   30CHL1  H26A 2214   0.629   5.728   4.263  0.9328  1.0857  0.4800
   30CHL1  H26B 2215   0.685   5.868   4.175 -0.9122  1.3071  1.6531
   30CHL1  H26C 2216   0.523   5.873   4.264  0.7061  1.1992  0.0057
   30CHL1   C27 2217   0.444   5.651   4.078 -0.1532  1.1495 -0.1658
   30CHL1  H27A 2218   0.412   5.608   3.981  0.1161 -1.6743  0.9144
   30CHL1  H27B 2219   0.487   5.567   4.136  2.3355 -0.3160 -3.7761
   30CHL1  H27C 2220   0.354   5.686   4.133 -1.4834 -0.9658 -0.8952
   31CHL1    C3 2221   0.243   6.533   2.605 -0.1934  0.9581  0.7917
   31CHL1    H3 2222   0.334   6.538   2.669 -0.1944 -0.0389  0.8836
   31CHL1    O3 2223   0.278   6.487   2.481  0.0812 -0.0968  0.2616
   31CHL1   H3' 2224   0.266   6.554   2.414  2.3093 -0.8642 -1.0030
   31CHL1    C4 2225   0.142   6.434   2.669 -0.0431  0.2964  0.2138
   31CHL1   H4A 2226   0.057   6.433   2.597  0.1595 -0.9003 -0.0264
   31CHL1   H4B 2227   0.176   6.329   2.671 -0.4943  0.1548  1.7781
   31CHL1    C5 2228   0.114   6.479   2.810  0.1029  0.1618  0.5940
   31CHL1    C6 2229   0.137   6.393   2.911 -0.6059  0.4369 -0.0716
   31CHL1    H6 2230   0.162   6.292   2.876  2.2424  1.0562 -0.1200
   31CHL1    C7 2231   0.115   6.420   3.055 -0.3729  0.4471 -0.6518
   31CHL1   H7A 2232   0.063   6.349   3.122  1.1987  0.4044  0.5952
   31CHL1   H7B 2233   0.219   6.436   3.091 -0.6506 -0.2087  0.4776
   31CHL1    C8 2234   0.051   6.558   3.081  0.1588 -0.1741 -0.0784
   31CHL1    H8 2235  -0.059   6.547   3.066  0.1060 -1.0523  0.9028
   31CHL1   C14 2236   0.077   6.611   3.222  0.0083 -0.4072  0.4839
   31CHL1   H14 2237   0.187   6.626   3.228 -0.1664  0.4221  2.1819
   31CHL1   C15 2238   0.048   6.513   3.337 -0.5411  1.4341  0.7321
   31CHL1  H15A 2239  -0.048   6.457   3.334 -0.1732  0.8304 -0.5130
   31CHL1  H15B 2240   0.118   6.427   3.341 -1.6294  0.4427 -0.5936
   31CHL1   C16 2241   0.050   6.599   3.461 -0.2800 -0.2667  0.4883
   31CHL1  H16A 2242  -0.036   6.582   3.529  0.5786 -0.0349  1.6884
   31CHL1  H16B 2243   0.139   6.587   3.527  0.0282  0.0911  0.1470
   31CHL1   C17 2244   0.064   6.753   3.416  0.4154 -0.6235 -0.7477
   31CHL1   H17 2245   0.173   6.776   3.410  0.2192  0.6309  0.2959
   31CHL1   C13 2246   0.022   6.746   3.269 -0.0263 -0.2659  1.2111
   31CHL1   C18 2247  -0.131   6.738   3.275  0.9068 -0.4124 -0.3696
   31CHL1  H18A 2248  -0.161   6.661   3.350 -0.2557  2.1395  1.9470
   31CHL1  H18B 2249  -0.182   6.836   3.288 -1.0899 -1.3877 -0.4579
   31CHL1  H18C 2250  -0.178   6.701   3.181  0.9698 -1.0574 -0.1547
   31CHL1   C12 2251   0.073   6.850   3.169  0.1302 -1.0569 -0.2294
   31CHL1  H12A 2252   0.023   6.949   3.183  0.9516 -0.6210 -0.3252
   31CHL1  H12B 2253   0.180   6.877   3.173 -0.3914  1.2890 -0.3228
   31CHL1   C11 2254   0.041   6.806   3.018  0.2457 -0.3052 -0.1174
   31CHL1  H11A 2255  -0.069   6.818   3.006  0.2095 -1.2722 -0.9185
   31CHL1  H11B 2256   0.085   6.878   2.947  2.5506 -2.5020 -1.0501
   31CHL1    C9 2257   0.100   6.669   2.981 -0.1907  0.4807  0.6929
   31CHL1    H9 2258   0.209   6.678   3.003 -0.3333 -0.3048  1.7872
   31CHL1   C10 2259   0.088   6.630   2.833  0.5382  0.7204 -0.4723
   31CHL1   C19 2260  -0.060   6.651   2.798 -0.3063  0.3066  0.1566
   31CHL1  H19A 2261  -0.096   6.754   2.819 -0.5067 -0.2235  2.7397
   31CHL1  H19B 2262  -0.076   6.631   2.690  0.0142  1.7517 -0.1801
   31CHL1  H19C 2263  -0.118   6.576   2.855  0.3447 -0.2445  0.0989
   31CHL1    C1 2264   0.179   6.728   2.743 -0.4472  0.7372  0.0440
   31CHL1   H1A 2265   0.131   6.828   2.734  0.7822  1.1785 -2.1419
   31CHL1   H1B 2266   0.277   6.739   2.795 -2.3934  5.0290  3.4981
   31CHL1    C2 2267   0.197   6.682   2.599 -0.0073  1.0272  0.0992
   31CHL1   H2A 2268   0.278   6.741   2.551  0.7643  1.4053  1.7932
   31CHL1   H2B 2269   0.102   6.678   2.542  1.5162 -1.2954 -2.5117
   31CHL1   C20 2270  -0.018   6.845   3.510  0.2006 -0.0636  0.0392
   31CHL1   H20 2271  -0.123   6.808   3.508  0.6805 -1.4321 -1.5502
   31CHL1   C21 2272  -0.010   6.993   3.455  0.2679  0.7127 -0.1348
   31CHL1  H21A 2273  -0.060   7.073   3.513  2.5607  2.1027  0.0529
   31CHL1  H21B 2274  -0.053   6.993   3.353 -1.9320 -0.8482  0.7250
   31CHL1  H21C 2275   0.096   7.028   3.451  0.1345  1.2395  0.7046
   31CHL1   C22 2276   0.030   6.837   3.655 -0.7421  0.0225 -0.3741
   31CHL1  H22A 2277  -0.047   6.890   3.715 -0.1968  0.3525  0.0512
   31CHL1  H22B 2278   0.030   6.734   3.695  0.6568  0.4320  0.8122
   31CHL1   C23 2279   0.170   6.894   3.688  0.4281 -0.1181  0.2564
   31CHL1  H23A 2280   0.239   6.821   3.641 -1.9981 -0.9374 -2.2910
   31CHL1  H23B 2281   0.187   6.990   3.635  0.6552  0.2835  1.0279
   31CHL1   C24 2282   0.202   6.923   3.840  0.0480 -0.2886  0.5247
   31CHL1  H24A 2283   0.188   6.826   3.891 -2.6789 -1.7935 -2.6958
   31CHL1  H24B 2284   0.310   6.948   3.836 -0.1098  0.3231 -0.4181
   31CHL1   C25 2285   0.125   7.032   3.908  0.3093 -0.4791 -0.6240
   31CHL1   H25 2286   0.016   7.019   3.891 -0.1509  1.1207  0.8253
   31CHL1   C26 2287   0.146   7.040   4.063 -0.0611 -0.0639 -0.6565
   31CHL1  H26A 2288   0.153   6.940   4.110  0.4946  0.5304  0.5513
   31CHL1  H26B 2289   0.230   7.108   4.090  0.3777 -1.0135  0.4802
   31CHL1  H26C 2290   0.061   7.096   4.107  1.0809  1.6203 -0.5051
   31CHL1   C27 2291   0.162   7.169   3.853 -0.2729 -0.2427 -0.3514
   31CHL1  H27A 2292   0.261   7.206   3.885 -1.1487  0.0085  2.2820
   31CHL1  H27B 2293   0.143   7.186   3.745 -1.5940  0.4674 -0.0299
   31CHL1  H27C 2294   0.099   7.240   3.910 -2.0317 -0.5496 -1.8160
   32CHL1    C3 2295   3.084   3.298   2.696 -0.3319 -0.2409  0.8988
   32CHL1    H3 2296   3.140   3.394   2.692  1.0759 -1.0845 -1.3926
   32CHL1    O3 2297   3.069   3.232   2.570 -0.4248  0.0591 -0.7712
   32CHL1   H3' 2298   3.084   3.298   2.502 -2.5621 -0.2102 -1.5866
   32CHL1    C4 2299   3.150   3.197   2.794 -0.4911 -0.0887 -0.0671
   32CHL1   H4A 2300   3.098   3.099   2.789 -2.6878  1.0464 -0.2571
   32CHL1   H4B 2301   3.251   3.177   2.752 -1.0146  0.4650 -1.6795
   32CHL1    C5 2302   3.158   3.255   2.930 -0.0424  0.3544  0.6327
   32CHL1    C6 2303   3.267   3.255   3.008 -0.1977  1.1066  0.0421
   32CHL1    H6 2304   3.363   3.214   2.974 -0.5995 -1.3470  1.6426
   32CHL1    C7 2305   3.272   3.298   3.153  0.1345  0.0373  0.4462
   32CHL1   H7A 2306   3.334   3.230   3.215  1.9207 -0.7218 -2.0159
   32CHL1   H7B 2307   3.327   3.395   3.155 -0.5825  0.4537  0.4436
   32CHL1    C8 2308   3.131   3.308   3.218 -0.9782 -0.9354  0.6009
   32CHL1    H8 2309   3.096   3.207   3.246 -0.4988 -1.1217  0.5335
   32CHL1   C14 2310   3.152   3.397   3.338 -0.1528 -1.2788 -0.0345
   32CHL1   H14 2311   3.179   3.492   3.286 -2.3337  0.0401  1.1032
   32CHL1   C15 2312   3.262   3.380   3.444 -0.7671 -0.2359 -0.7133
   32CHL1  H15A 2313   3.277   3.272   3.466  2.7859  0.6287  2.1559
   32CHL1  H15B 2314   3.356   3.428   3.412 -0.3028  1.4392  2.7698
   32CHL1   C16 2315   3.213   3.451   3.575  0.1681  0.5039  0.8629
   32CHL1  H16A 2316   3.195   3.375   3.654  1.6681  0.7235  1.4616
   32CHL1  H16B 2317   3.286   3.525   3.615 -0.2857  0.0717  2.5406
   32CHL1   C17 2318   3.075   3.506   3.537  0.4335  0.0215  0.3008
   32CHL1   H17 2319   3.087   3.607   3.492  0.2998  0.4797  1.2761
   32CHL1   C13 2320   3.024   3.414   3.415  0.0464  0.0238 -0.7811
   32CHL1   C18 2321   2.977   3.276   3.470  0.6795 -0.3118  0.1130
   32CHL1  H18A 2322   2.896   3.282   3.546  1.5623  0.8954  1.0011
   32CHL1  H18B 2323   2.951   3.206   3.388 -1.5976  0.2007  0.3238
   32CHL1  H18C 2324   3.064   3.231   3.521  0.7392  0.7834  1.0233
   32CHL1   C12 2325   2.921   3.485   3.326 -0.0581  0.0933  0.1921
   32CHL1  H12A 2326   2.821   3.484   3.374  0.1920 -2.0412  0.7728
   32CHL1  H12B 2327   2.952   3.589   3.302  0.4361  0.2881  1.5892
   32CHL1   C11 2328   2.904   3.403   3.190 -0.4178 -0.0880  0.1643
   32CHL1  H11A 2329   2.854   3.309   3.223  0.6383 -1.1984 -1.2580
   32CHL1  H11B 2330   2.830   3.454   3.125 -0.5849 -0.7380 -0.1666
   32CHL1    C9 2331   3.036   3.378   3.119 -0.3375  0.1823 -0.3178
   32CHL1    H9 2332   3.070   3.483   3.108  1.8651 -0.4117  0.2349
   32CHL1   C10 2333   3.023   3.312   2.982 -0.2468  0.5090  0.3582
   32CHL1   C19 2334   2.928   3.190   3.005 -0.5486  0.4123 -0.0521
   32CHL1  H19A 2335   2.970   3.121   3.081  0.0285  0.4313 -0.3513
   32CHL1  H19B 2336   2.828   3.228   3.034  1.1506  2.8049  3.3714
   32CHL1  H19C 2337   2.923   3.138   2.907 -0.1850  1.3246 -0.5688
   32CHL1    C1 2338   2.955   3.405   2.885 -0.5860  0.1512 -0.7074
   32CHL1   H1A 2339   2.850   3.414   2.921  0.3581 -0.8583  2.6464
   32CHL1   H1B 2340   3.005   3.504   2.883 -0.5178  0.1684  0.7088
   32CHL1    C2 2341   2.941   3.343   2.747 -0.3744 -0.2309  0.7595
   32CHL1   H2A 2342   2.898   3.424   2.684  2.2517 -0.3438 -1.3532
   32CHL1   H2B 2343   2.866   3.262   2.755 -0.5246 -0.1990 -0.1996
   32CHL1   C20 2344   2.986   3.532   3.658 -0.6911 -0.4959 -0.1167
   32CHL1   H20 2345   2.882   3.541   3.619 -0.0717 -0.7888 -1.9372
   32CHL1   C21 2346   3.025   3.675   3.712  0.2297 -0.0988 -0.1095
   32CHL1  H21A 2347   2.988   3.700   3.814  1.8985  1.4758  0.1682
   32CHL1  H21B 2348   2.976   3.754   3.652  0.8849  1.0918  0.8688
   32CHL1  H21C 2349   3.135   3.677   3.728  0.1390 -2.4812  1.1586
   32CHL1   C22 2350   2.998   3.436   3.780  0.0411  0.2225  0.5034
   32CHL1  H22A 2351   2.975   3.334   3.744 -0.5908  0.5826 -0.1368
   32CHL1  H22B 2352   3.101   3.432   3.822  0.8871 -0.4678 -1.5369
   32CHL1   C23 2353   2.888   3.456   3.886 -0.5139 -0.2268  0.8789
   32CHL1  H23A 2354   2.915   3.392   3.972  1.1317 -2.6858 -1.2992
   32CHL1  H23B 2355   2.883   3.564   3.913  2.5081  0.4425 -0.6692
   32CHL1   C24 2356   2.744   3.405   3.851  0.0450  0.2738  0.3469
   32CHL1  H24A 2357   2.708   3.465   3.765 -0.3033 -0.5009 -0.0617
   32CHL1  H24B 2358   2.752   3.301   3.811 -2.3013  0.3156 -0.3812
   32CHL1   C25 2359   2.636   3.397   3.965 -0.1038  0.1428  0.6055
   32CHL1   H25 2360   2.666   3.325   4.043  1.0318 -0.0295  0.0459
   32CHL1   C26 2361   2.610   3.537   4.024  0.6129  0.5811  0.0568
   32CHL1  H26A 2362   2.540   3.515   4.108 -0.7446 -0.5631 -1.2996
   32CHL1  H26B 2363   2.703   3.573   4.073  0.5945 -0.6421  1.0381
   32CHL1  H26C 2364   2.573   3.610   3.948  0.7887 -0.4341 -1.0434
   32CHL1   C27 2365   2.506   3.350   3.905 -0.0313 -0.1700  0.6522
   32CHL1  H27A 2366   2.469   3.428   3.835 -2.2245 -0.4650  1.3851
   32CHL1  H27B 2367   2.514   3.252   3.854  2.3152  0.1675  0.2555
   32CHL1  H27C 2368   2.431   3.340   3.986  0.6795 -3.0528  1.0898
   33CHL1    C3 2369   1.638   0.370   2.400 -0.1619 -0.3851 -0.1365
   33CHL1    H3 2370   1.595   0.465   2.362 -0.3829 -0.9780 -1.3989
   33CHL1    O3 2371   1.652   0.291   2.289  0.1947 -0.4482  0.8949
   33CHL1   H3' 2372   1.721   0.227   2.310  0.2982 -0.4436  0.5779
   33CHL1    C4 2373   1.772   0.381   2.466  0.5230 -0.3500 -0.4663
   33CHL1   H4A 2374   1.813   0.279   2.482 -0.0105 -0.4175  0.5848
   33CHL1   H4B 2375   1.848   0.428   2.400 -0.7455  2.3436 -0.1161
   33CHL1    C5 2376   1.770   0.451   2.600  0.3237 -0.1878 -0.3888
   33CHL1    C6 2377   1.847   0.562   2.611  0.0690  0.2223 -0.2283
   33CHL1    H6 2378   1.893   0.604   2.521 -1.1074  1.5765 -0.2235
   33CHL1    C7 2379   1.860   0.635   2.740 -0.4665  0.2198  0.7209
   33CHL1   H7A 2380   1.969   0.656   2.751 -0.1714 -1.0557  0.4084
   33CHL1   H7B 2381   1.803   0.730   2.733  0.8379  0.8967 -2.1406
   33CHL1    C8 2382   1.813   0.551   2.861  0.3656  0.1688 -0.5051
   33CHL1    H8 2383   1.901   0.484   2.874  0.0472  0.1396  2.0002
   33CHL1   C14 2384   1.792   0.640   2.986  0.0522 -0.3476 -0.1643
   33CHL1   H14 2385   1.714   0.714   2.957 -0.4319  0.1367  2.1696
   33CHL1   C15 2386   1.912   0.724   3.027 -0.3947 -0.5958  0.5340
   33CHL1  H15A 2387   2.004   0.662   3.035 -0.2309 -1.4647 -4.5319
   33CHL1  H15B 2388   1.937   0.804   2.954  0.9759 -1.8525 -0.4313
   33CHL1   C16 2389   1.868   0.786   3.165  0.6407  0.4662  0.6595
   33CHL1  H16A 2390   1.955   0.782   3.234  1.6107  0.1754 -0.5217
   33CHL1  H16B 2391   1.834   0.891   3.161 -0.1452  0.1909 -0.7942
   33CHL1   C17 2392   1.746   0.697   3.215 -0.0581  0.0904 -0.5400
   33CHL1   H17 2393   1.658   0.759   3.190 -0.8638 -0.3933  1.0080
   33CHL1   C13 2394   1.743   0.575   3.116  0.8503 -0.8809  0.3794
   33CHL1   C18 2395   1.837   0.466   3.164 -0.4665  0.1446 -0.3267
   33CHL1  H18A 2396   1.938   0.508   3.185 -0.3869 -0.9763  1.8032
   33CHL1  H18B 2397   1.797   0.411   3.252 -2.6164  1.2271 -0.5651
   33CHL1  H18C 2398   1.853   0.386   3.089 -0.8311 -1.9753  1.7245
   33CHL1   C12 2399   1.605   0.519   3.081  0.0760 -0.4295 -0.2603
   33CHL1  H12A 2400   1.555   0.471   3.168 -3.4096 -1.3891 -2.6078
   33CHL1  H12B 2401   1.540   0.606   3.057  0.4711  0.2448  0.9911
   33CHL1   C11 2402   1.611   0.419   2.960 -0.4088 -0.0753 -0.5763
   33CHL1  H11A 2403   1.668   0.331   2.998  1.1215  1.1776  0.1574
   33CHL1  H11B 2404   1.504   0.399   2.939 -0.6357  2.7267 -2.6046
   33CHL1    C9 2405   1.679   0.480   2.836 -0.3085  0.5634 -0.2904
   33CHL1    H9 2406   1.608   0.560   2.806 -0.7727 -0.1703 -1.1785
   33CHL1   C10 2407   1.687   0.382   2.711  0.4700 -0.2626 -0.3331
   33CHL1   C19 2408   1.757   0.248   2.743 -0.0471 -0.0515  0.1229
   33CHL1  H19A 2409   1.776   0.188   2.652 -1.5476 -1.2467  0.5328
   33CHL1  H19B 2410   1.858   0.261   2.788 -0.9747 -0.8995  2.6565
   33CHL1  H19C 2411   1.698   0.191   2.819  0.2063  2.3612  2.2766
   33CHL1    C1 2412   1.545   0.362   2.643  0.8779 -0.1708  0.1761
   33CHL1   H1A 2413   1.480   0.298   2.707 -0.0167 -0.9948 -1.4764
   33CHL1   H1B 2414   1.493   0.459   2.653  0.8068 -0.2718  0.8875
   33CHL1    C2 2415   1.537   0.310   2.497 -0.0309 -0.0512  0.5190
   33CHL1   H2A 2416   1.437   0.322   2.451  0.4053  2.9853  0.1884
   33CHL1   H2B 2417   1.557   0.200   2.501  1.4990  0.0989 -1.2633
   33CHL1   C20 2418   1.765   0.664   3.364  0.3442  0.4221 -0.2473
   33CHL1   H20 2419   1.855   0.604   3.386  0.9633  1.2581 -0.4274
   33CHL1   C21 2420   1.639   0.586   3.417  0.2829  0.0449  0.8012
   33CHL1  H21A 2421   1.652   0.558   3.524  0.6135 -0.8919  0.5183
   33CHL1  H21B 2422   1.614   0.491   3.367  4.4137 -1.9318  2.0458
   33CHL1  H21C 2423   1.548   0.651   3.410 -1.3638 -2.0774  1.4728
   33CHL1   C22 2424   1.769   0.797   3.446 -0.1588 -0.5035  0.5552
   33CHL1  H22A 2425   1.838   0.863   3.390 -2.3237 -0.5659 -2.4398
   33CHL1  H22B 2426   1.672   0.851   3.452 -0.0655 -0.3396  0.6076
   33CHL1   C23 2427   1.830   0.793   3.585  0.3498 -0.1321  0.8013
   33CHL1  H23A 2428   1.792   0.711   3.650 -2.1860 -0.5511 -1.0582
   33CHL1  H23B 2429   1.938   0.786   3.561  0.3430 -1.0402  0.9941
   33CHL1   C24 2430   1.810   0.930   3.657  0.6767 -0.1214 -0.2624
   33CHL1  H24A 2431   1.873   1.007   3.607 -0.2587  0.6814 -0.2346
   33CHL1  H24B 2432   1.710   0.975   3.642  1.3220  0.9513 -1.5339
   33CHL1   C25 2433   1.851   0.931   3.807  0.6819  0.8966  0.0299
   33CHL1   H25 2434   1.947   0.874   3.816  0.3659  0.2792 -0.4306
   33CHL1   C26 2435   1.886   1.066   3.862 -0.1334 -0.0526  0.0277
   33CHL1  H26A 2436   1.970   1.125   3.819 -1.0749  1.8500  0.6543
   33CHL1  H26B 2437   1.798   1.133   3.872 -0.9115 -0.9080 -0.8492
   33CHL1  H26C 2438   1.919   1.054   3.968 -0.2127  2.1402  0.3442
   33CHL1   C27 2439   1.748   0.864   3.903  0.4200  0.1092 -0.0675
   33CHL1  H27A 2440   1.735   0.759   3.868  2.6692 -0.6079  1.0431
   33CHL1  H27B 2441   1.797   0.873   4.003  0.2987 -0.8781  0.0978
   33CHL1  H27C 2442   1.652   0.920   3.904 -2.3986 -4.1338 -2.6588
   34CHL1    C3 2443   6.622   1.590   2.744  0.6399  0.3278 -0.2902
   34CHL1    H3 2444   6.711   1.532   2.776 -1.1148 -1.6040  1.4057
   34CHL1    O3 2445   6.597   1.566   2.604 -0.3437  0.0951  0.3383
   34CHL1   H3' 2446   6.667   1.608   2.554  1.7199 -1.0777  2.1048
   34CHL1    C4 2447   6.495   1.544   2.817  0.3027 -0.0918  0.6254
   34CHL1   H4A 2448   6.403   1.593   2.779 -1.4442 -1.2815  3.0691
   34CHL1   H4B 2449   6.486   1.438   2.786 -0.1489 -0.3370  1.5565
   34CHL1    C5 2450   6.510   1.568   2.964 -0.2498 -0.5440 -1.2002
   34CHL1    C6 2451   6.510   1.465   3.049  0.0196  0.1685 -0.5851
   34CHL1    H6 2452   6.499   1.364   3.008 -0.3669  0.3494 -0.9334
   34CHL1    C7 2453   6.519   1.476   3.200 -0.7957  0.7927 -0.5087
   34CHL1   H7A 2454   6.431   1.430   3.250  0.6434 -0.6595  0.8225
   34CHL1   H7B 2455   6.614   1.425   3.226  0.0529  1.2008 -2.5760
   34CHL1    C8 2456   6.534   1.626   3.251  0.0685 -0.2383  0.2617
   34CHL1    H8 2457   6.435   1.676   3.255 -1.3750 -3.0333  1.6488
   34CHL1   C14 2458   6.599   1.621   3.391 -0.1957 -0.3244 -0.0278
   34CHL1   H14 2459   6.699   1.574   3.376  0.3668  0.7260  0.3636
   34CHL1   C15 2460   6.533   1.535   3.503  0.5935 -0.2113  0.3529
   34CHL1  H15A 2461   6.424   1.556   3.502  0.7249  0.8180  2.3090
   34CHL1  H15B 2462   6.553   1.427   3.488  0.2365 -0.2905  0.4485
   34CHL1   C16 2463   6.589   1.598   3.634 -0.2815  0.2306 -0.4283
   34CHL1  H16A 2464   6.492   1.617   3.686 -1.6608 -4.2560 -0.8888
   34CHL1  H16B 2465   6.652   1.526   3.690 -0.1393 -0.4274 -1.3945
   34CHL1   C17 2466   6.663   1.722   3.594  0.1983  0.0866  1.4143
   34CHL1   H17 2467   6.768   1.685   3.585 -0.2818 -1.2205  0.8357
   34CHL1   C13 2468   6.621   1.759   3.453  0.8087 -0.5007 -0.4331
   34CHL1   C18 2469   6.476   1.833   3.464 -0.8706 -0.6151 -0.3543
   34CHL1  H18A 2470   6.482   1.930   3.517  1.0559 -0.6559 -0.4317
   34CHL1  H18B 2471   6.421   1.844   3.368 -0.7013  0.3647 -0.3535
   34CHL1  H18C 2472   6.412   1.762   3.521  1.4057 -2.4640  0.0469
   34CHL1   C12 2473   6.720   1.828   3.353 -0.3304 -0.0414  0.1543
   34CHL1  H12A 2474   6.745   1.931   3.386 -2.0812  0.7355 -0.8249
   34CHL1  H12B 2475   6.810   1.762   3.347 -0.5207 -0.3283  0.4051
   34CHL1   C11 2476   6.656   1.840   3.212  0.1030  0.1359 -0.1687
   34CHL1  H11A 2477   6.572   1.912   3.212 -1.1109 -0.9921 -4.9428
   34CHL1  H11B 2478   6.733   1.878   3.141 -0.4542 -1.7014 -1.8147
   34CHL1    C9 2479   6.613   1.712   3.149  0.1343 -0.0768  0.5168
   34CHL1    H9 2480   6.708   1.656   3.131 -0.6982 -0.8259 -1.9391
   34CHL1   C10 2481   6.550   1.709   3.006 -0.0081  0.7851  0.2058
   34CHL1   C19 2482   6.424   1.799   3.010 -0.0499  0.4861 -0.4589
   34CHL1  H19A 2483   6.395   1.822   2.905 -0.3409  0.0132 -0.4885
   34CHL1  H19B 2484   6.338   1.753   3.063  0.2692  0.8730  0.4098
   34CHL1  H19C 2485   6.443   1.898   3.056  0.7983  0.3042 -0.4026
   34CHL1    C1 2486   6.665   1.771   2.917 -0.2784 -0.2447  0.1899
   34CHL1   H1A 2487   6.658   1.882   2.926 -0.3444 -0.2454  0.1527
   34CHL1   H1B 2488   6.767   1.735   2.943  0.3629  0.3932 -1.3346
   34CHL1    C2 2489   6.642   1.741   2.768  0.2092 -0.3960 -0.1116
   34CHL1   H2A 2490   6.715   1.776   2.691 -1.0427 -1.0028 -1.6215
   34CHL1   H2B 2491   6.541   1.781   2.744 -0.2502 -1.6892 -0.4022
   34CHL1   C20 2492   6.658   1.830   3.703 -0.2894 -0.5349 -0.5504
   34CHL1   H20 2493   6.555   1.872   3.709 -0.2380 -0.3980 -0.6368
   34CHL1   C21 2494   6.747   1.952   3.656  0.1572  0.0914 -0.9654
   34CHL1  H21A 2495   6.770   2.016   3.744 -3.6216 -1.5030  1.4664
   34CHL1  H21B 2496   6.689   2.010   3.581 -0.2949  2.6379  1.1927
   34CHL1  H21C 2497   6.839   1.907   3.612  1.4459  1.5833  0.1093
   34CHL1   C22 2498   6.703   1.771   3.836 -0.0765  0.2572  0.0898
   34CHL1  H22A 2499   6.783   1.696   3.822  1.6515  1.9976  0.1859
   34CHL1  H22B 2500   6.742   1.860   3.891  1.0165 -1.2689  1.9212
   34CHL1   C23 2501   6.605   1.717   3.951 -0.4487 -0.4577 -0.0721
   34CHL1  H23A 2502   6.528   1.791   3.982 -0.6600 -1.3516  1.6364
   34CHL1  H23B 2503   6.555   1.621   3.924  0.1419 -1.7388  2.9025
   34CHL1   C24 2504   6.679   1.669   4.082 -0.3611  0.4143 -0.6207
   34CHL1  H24A 2505   6.763   1.601   4.057 -0.7077  0.1038 -0.9428
   34CHL1  H24B 2506   6.721   1.760   4.130  0.5352 -0.2434 -0.1183
   34CHL1   C25 2507   6.585   1.583   4.170 -0.5651 -0.6679 -0.6159
   34CHL1   H25 2508   6.528   1.511   4.108  0.3104 -1.3838 -0.6070
   34CHL1   C26 2509   6.657   1.497   4.270 -0.3721 -0.1734  0.2736
   34CHL1  H26A 2510   6.723   1.431   4.211  0.6450  0.9353  0.1296
   34CHL1  H26B 2511   6.717   1.565   4.335 -1.3279  1.1873 -0.2197
   34CHL1  H26C 2512   6.585   1.431   4.323 -2.6299 -0.4391 -2.8795
   34CHL1   C27 2513   6.481   1.675   4.239  0.0436 -0.2790  0.8958
   34CHL1  H27A 2514   6.532   1.763   4.285  0.5186 -0.6450  1.0828
   34CHL1  H27B 2515   6.423   1.730   4.162  0.0710 -0.5636  0.6738
   34CHL1  H27C 2516   6.419   1.623   4.315  1.2698 -0.4853  1.7944
   35CHL1    C3 2517   2.887   0.848   2.699  0.6434  0.6044 -0.0347
   35CHL1    H3 2518   2.863   0.740   2.710  2.0838  0.2062 -0.6145
   35CHL1    O3 2519   2.889   0.871   2.560  0.2945 -0.4725  0.4501
   35CHL1   H3' 2520   2.945   0.948   2.547 -1.2625  0.6745  0.1364
   35CHL1    C4 2521   2.771   0.926   2.766 -0.0770  0.9147 -0.0352
   35CHL1   H4A 2522   2.784   1.036   2.757  0.6900  0.8470  0.1706
   35CHL1   H4B 2523   2.679   0.900   2.709 -1.5392 -3.7438  3.7391
   35CHL1    C5 2524   2.763   0.891   2.919 -0.2135 -0.2284  0.2449
   35CHL1    C6 2525   2.655   0.835   2.971  0.3134 -0.0557  0.4231
   35CHL1    H6 2526   2.566   0.818   2.909  0.3503 -0.9149  0.6000
   35CHL1    C7 2527   2.643   0.801   3.113  0.1063  0.5016  0.5415
   35CHL1   H7A 2528   2.542   0.819   3.155  0.3786 -1.3200  2.1738
   35CHL1   H7B 2529   2.648   0.691   3.128 -0.1819  0.5443  0.9879
   35CHL1    C8 2530   2.750   0.859   3.203 -0.2747 -0.6949 -0.5592
   35CHL1    H8 2531   2.725   0.965   3.226 -2.3433 -1.8653  3.4691
   35CHL1   C14 2532   2.755   0.780   3.337  0.2487  0.1337  0.2662
   35CHL1   H14 2533   2.786   0.676   3.314 -0.2298 -0.1155  0.7212
   35CHL1   C15 2534   2.618   0.752   3.407 -0.8450 -0.4965 -0.3357
   35CHL1  H15A 2535   2.552   0.841   3.407  1.4468  1.3081 -0.5628
   35CHL1  H15B 2536   2.570   0.670   3.349 -0.9505 -1.3835  0.9612
   35CHL1   C16 2537   2.661   0.715   3.552  1.0310 -0.0030 -0.2938
   35CHL1  H16A 2538   2.612   0.778   3.628  1.0869  1.2135 -1.2325
   35CHL1  H16B 2539   2.626   0.610   3.566  1.5431 -0.2406 -0.7037
   35CHL1   C17 2540   2.816   0.725   3.564  0.0482 -0.4155 -0.1926
   35CHL1   H17 2541   2.860   0.629   3.530  1.2676 -0.2522  0.8595
   35CHL1   C13 2542   2.854   0.823   3.446  0.2260  1.0123 -0.3632
   35CHL1   C18 2543   2.818   0.972   3.488 -0.1597 -0.5800  0.2593
   35CHL1  H18A 2544   2.878   1.005   3.575 -0.0363 -0.6042  0.1832
   35CHL1  H18B 2545   2.839   1.039   3.402 -1.5548 -1.4087 -0.7826
   35CHL1  H18C 2546   2.711   0.984   3.516 -0.7491  0.7097 -2.2333
   35CHL1   C12 2547   2.994   0.822   3.386 -0.4219 -0.4549  0.8525
   35CHL1  H12A 2548   3.061   0.878   3.455 -0.8277  1.6002 -0.3589
   35CHL1  H12B 2549   3.042   0.722   3.379  1.0640  0.2745  0.0493
   35CHL1   C11 2550   3.009   0.898   3.244 -0.0697  1.0342 -0.5044
   35CHL1  H11A 2551   3.001   1.006   3.269 -0.5355  0.9654 -0.3598
   35CHL1  H11B 2552   3.111   0.876   3.204 -0.7990 -1.5549 -1.1023
   35CHL1    C9 2553   2.888   0.851   3.144 -0.3263  0.6720  0.2131
   35CHL1    H9 2554   2.917   0.745   3.132 -1.1427  0.4972 -0.3165
   35CHL1   C10 2555   2.897   0.911   3.001 -0.1373 -0.2034  0.7766
   35CHL1   C19 2556   2.934   1.053   3.022 -0.2380  0.0306  0.3084
   35CHL1  H19A 2557   3.045   1.057   3.009 -0.4885  2.4870 -1.9618
   35CHL1  H19B 2558   2.891   1.108   2.936  0.0092 -0.5668 -0.2043
   35CHL1  H19C 2559   2.886   1.086   3.116 -2.6012 -1.1727 -0.3985
   35CHL1    C1 2560   3.012   0.844   2.918 -0.1978 -0.1077 -0.0007
   35CHL1   H1A 2561   3.109   0.856   2.970 -1.0064  2.2824  1.0872
   35CHL1   H1B 2562   2.991   0.735   2.918 -1.2268  0.0677 -1.1211
   35CHL1    C2 2563   3.010   0.886   2.770  0.5912 -0.4076  0.5594
   35CHL1   H2A 2564   3.099   0.839   2.722  1.3922  1.8543 -0.2596
   35CHL1   H2B 2565   3.031   0.994   2.760 -1.4050 -0.0910 -0.4967
   35CHL1   C20 2566   2.856   0.770   3.708 -0.0048 -0.4531  0.0274
   35CHL1   H20 2567   2.808   0.870   3.724  1.5760  0.2887  0.3089
   35CHL1   C21 2568   3.008   0.765   3.718  0.6271  0.1657  0.2740
   35CHL1  H21A 2569   3.040   0.669   3.672  1.7977  1.3191 -1.4818
   35CHL1  H21B 2570   3.036   0.767   3.825  1.1853  2.3504  0.1452
   35CHL1  H21C 2571   3.055   0.850   3.663  2.4756 -0.3776  0.9311
   35CHL1   C22 2572   2.790   0.688   3.820 -0.5552  0.0447 -0.4506
   35CHL1  H22A 2573   2.835   0.724   3.915 -1.0823  0.1949 -0.2521
   35CHL1  H22B 2574   2.681   0.709   3.832 -0.6508  0.5360 -1.9807
   35CHL1   C23 2575   2.800   0.530   3.812 -0.1623  0.3456 -0.2100
   35CHL1  H23A 2576   2.719   0.497   3.743 -0.6721  1.4278 -0.1568
   35CHL1  H23B 2577   2.907   0.508   3.794  0.3156  1.9675  0.4452
   35CHL1   C24 2578   2.757   0.480   3.949  1.0962 -0.4700 -0.2120
   35CHL1  H24A 2579   2.812   0.537   4.027 -1.4054  0.7560  0.7631
   35CHL1  H24B 2580   2.650   0.504   3.967  1.6287  0.7213  1.7451
   35CHL1   C25 2581   2.769   0.323   3.975  0.7660  1.0107  0.0356
   35CHL1   H25 2582   2.699   0.280   3.900  2.0909 -2.8958  0.8013
   35CHL1   C26 2583   2.901   0.263   3.927 -0.6706  0.3484  0.2865
   35CHL1  H26A 2584   2.925   0.293   3.823 -0.2636 -0.8111  0.0391
   35CHL1  H26B 2585   2.979   0.306   3.994 -0.0633  0.1871 -0.3045
   35CHL1  H26C 2586   2.893   0.153   3.931  1.1083  0.0722 -1.8450
   35CHL1   C27 2587   2.739   0.278   4.116  0.6063  0.0361 -0.3140
   35CHL1  H27A 2588   2.640   0.316   4.148  0.6565  0.0574 -0.1826
   35CHL1  H27B 2589   2.743   0.167   4.120 -0.6557 -0.0743 -1.3873
   35CHL1  H27C 2590   2.812   0.303   4.196 -0.5243 -0.6524  0.9836
   36CHL1    C3 2591   4.164   3.320   2.898 -1.1739 -0.0616 -0.1902
   36CHL1    H3 2592   4.152   3.430   2.899 -0.4524  0.0228  1.4319
   36CHL1    O3 2593   4.114   3.258   2.781  0.3579  0.3489 -0.1179
   36CHL1   H3' 2594   4.193   3.222   2.740  0.7196  1.6148 -0.6102
   36CHL1    C4 2595   4.317   3.288   2.919  0.0601 -0.2033 -0.7124
   36CHL1   H4A 2596   4.332   3.179   2.907  1.6466 -0.0156 -0.5435
   36CHL1   H4B 2597   4.364   3.343   2.834 -2.6462  0.7190 -1.7462
   36CHL1    C5 2598   4.367   3.329   3.058  0.6855 -0.8257 -0.3628
   36CHL1    C6 2599   4.471   3.417   3.075 -0.4361 -0.5672  0.5067
   36CHL1    H6 2600   4.532   3.456   2.992 -1.2033 -0.7295 -0.1494
   36CHL1    C7 2601   4.520   3.461   3.210  0.4423 -0.4263  0.2989
   36CHL1   H7A 2602   4.631   3.451   3.210  0.3997 -0.9516  0.2988
   36CHL1   H7B 2603   4.490   3.565   3.234  0.4162 -0.9175  2.7077
   36CHL1    C8 2604   4.472   3.360   3.318 -0.0001  0.1434  0.1695
   36CHL1    H8 2605   4.528   3.265   3.313 -0.0074  0.2082 -1.5477
   36CHL1   C14 2606   4.507   3.423   3.450  0.5628  0.4187  0.7842
   36CHL1   H14 2607   4.450   3.517   3.460  0.0094 -0.0747  2.8530
   36CHL1   C15 2608   4.650   3.477   3.470  0.3021  0.2524  0.4140
   36CHL1  H15A 2609   4.716   3.399   3.427 -2.3780 -0.6941 -2.3276
   36CHL1  H15B 2610   4.675   3.579   3.433 -0.9000  0.4684  0.1580
   36CHL1   C16 2611   4.666   3.481   3.620  0.4993  0.8440  0.1026
   36CHL1  H16A 2612   4.734   3.394   3.636  0.0024  0.4536  0.1359
   36CHL1  H16B 2613   4.707   3.576   3.658 -2.5437  2.3042  0.0497
   36CHL1   C17 2614   4.534   3.436   3.681  0.2852 -1.2557  0.2004
   36CHL1   H17 2615   4.463   3.520   3.696  2.1092  0.0563  2.0121
   36CHL1   C13 2616   4.468   3.345   3.574 -0.3449 -0.4068 -0.5791
   36CHL1   C18 2617   4.532   3.201   3.571 -0.1952 -0.3042  0.1077
   36CHL1  H18A 2618   4.508   3.149   3.665 -1.5832 -0.5945 -0.3791
   36CHL1  H18B 2619   4.486   3.139   3.491  1.5143 -0.9440 -0.4251
   36CHL1  H18C 2620   4.642   3.208   3.557  0.0516 -2.3293  0.8560
   36CHL1   C12 2621   4.310   3.335   3.575  0.1333  0.3826  0.0762
   36CHL1  H12A 2622   4.264   3.274   3.656  1.0312  1.6010  1.5422
   36CHL1  H12B 2623   4.263   3.435   3.582 -1.4119 -0.3464  0.9062
   36CHL1   C11 2624   4.256   3.276   3.439  0.1912 -0.4530  0.1939
   36CHL1  H11A 2625   4.276   3.167   3.446 -3.0754 -1.0874  1.4137
   36CHL1  H11B 2626   4.146   3.290   3.442 -0.2492 -3.2125 -0.1620
   36CHL1    C9 2627   4.323   3.334   3.307  0.5460 -0.6654  0.1570
   36CHL1    H9 2628   4.281   3.437   3.312 -0.3482 -0.7597 -3.1164
   36CHL1   C10 2629   4.277   3.273   3.175  0.0704  0.5808  0.0826
   36CHL1   C19 2630   4.299   3.123   3.174  0.4355  0.6326  0.4063
   36CHL1  H19A 2631   4.399   3.090   3.210  0.9367  1.1674 -0.4416
   36CHL1  H19B 2632   4.225   3.077   3.242  0.9168 -1.1684 -0.2084
   36CHL1  H19C 2633   4.279   3.075   3.075  1.7012 -1.1320  0.9453
   36CHL1    C1 2634   4.132   3.313   3.157  0.2294  0.1596  0.3603
   36CHL1   H1A 2635   4.072   3.257   3.232 -0.5466  1.6572  0.8833
   36CHL1   H1B 2636   4.119   3.421   3.175 -0.9628 -0.0288  0.7123
   36CHL1    C2 2637   4.077   3.272   3.015  0.1770  0.5393  0.3096
   36CHL1   H2A 2638   3.973   3.310   3.006  0.3966  0.6918 -2.3555
   36CHL1   H2B 2639   4.069   3.162   3.012 -1.2089  0.6190  0.4411
   36CHL1   C20 2640   4.545   3.377   3.826 -1.1354  0.0702  0.4884
   36CHL1   H20 2641   4.594   3.279   3.806 -0.5048  0.4851 -0.0305
   36CHL1   C21 2642   4.411   3.348   3.892  0.2486  0.1874  0.5686
   36CHL1  H21A 2643   4.357   3.268   3.836  4.0694 -1.1032 -1.6399
   36CHL1  H21B 2644   4.352   3.441   3.905  1.1559  0.6306  1.6958
   36CHL1  H21C 2645   4.430   3.318   3.997 -0.3839 -1.8771  0.1388
   36CHL1   C22 2646   4.636   3.454   3.920 -0.0328  0.3871  0.5114
   36CHL1  H22A 2647   4.660   3.387   4.005  1.5261 -0.2366 -0.3718
   36CHL1  H22B 2648   4.737   3.451   3.872 -0.6593 -0.8147 -0.8275
   36CHL1   C23 2649   4.592   3.592   3.979 -0.0102  0.1571 -0.4635
   36CHL1  H23A 2650   4.619   3.682   3.919  1.2731  1.9309  2.5460
   36CHL1  H23B 2651   4.481   3.589   3.984  0.0318 -2.2268  0.2581
   36CHL1   C24 2652   4.633   3.613   4.126 -0.5816  0.0250 -0.0883
   36CHL1  H24A 2653   4.576   3.533   4.177  0.4340 -1.3334 -0.9892
   36CHL1  H24B 2654   4.743   3.597   4.135 -0.3442  1.3073 -0.5723
   36CHL1   C25 2655   4.608   3.753   4.182  0.1698  0.7260 -0.0096
   36CHL1   H25 2656   4.687   3.818   4.138 -1.4402  1.3796 -2.0919
   36CHL1   C26 2657   4.478   3.817   4.141  0.0089 -0.2031  0.5767
   36CHL1  H26A 2658   4.391   3.747   4.141 -0.2624  0.1290  0.3594
   36CHL1  H26B 2659   4.447   3.911   4.191 -1.4354  0.5912 -1.6649
   36CHL1  H26C 2660   4.490   3.849   4.035 -0.5877  1.4220  0.9735
   36CHL1   C27 2661   4.619   3.751   4.332 -0.8071  0.4419 -0.1982
   36CHL1  H27A 2662   4.540   3.694   4.385 -0.0463  0.1687  0.6623
   36CHL1  H27B 2663   4.714   3.699   4.358 -1.9821 -1.2061  0.9703
   36CHL1  H27C 2664   4.625   3.852   4.377 -1.1311  0.9833 -1.3351
   37CHL1    C3 2665   0.402   1.542   2.743  0.5999 -0.3602 -0.3846
   37CHL1    H3 2666   0.389   1.652   2.748 -3.4945 -0.7424  0.8465
   37CHL1    O3 2667   0.407   1.507   2.608 -0.0264  0.3828 -0.1863
   37CHL1   H3' 2668   0.317   1.520   2.576  0.4844 -2.1302 -3.0047
   37CHL1    C4 2669   0.531   1.486   2.815 -0.9420  0.5777  0.6862
   37CHL1   H4A 2670   0.535   1.378   2.787 -4.4111  0.6986 -0.8341
   37CHL1   H4B 2671   0.622   1.529   2.769  0.4018  1.3950  3.8892
   37CHL1    C5 2672   0.527   1.494   2.969 -0.5454  0.6686  0.0898
   37CHL1    C6 2673   0.629   1.552   3.034 -0.0217 -0.1165  0.0852
   37CHL1    H6 2674   0.716   1.591   2.979  0.2927  1.4457  1.5815
   37CHL1    C7 2675   0.628   1.587   3.176  0.3596 -0.2869  0.2531
   37CHL1   H7A 2676   0.731   1.580   3.215  0.7787  1.7211 -0.3948
   37CHL1   H7B 2677   0.593   1.693   3.182  1.0966 -0.1262  2.9108
   37CHL1    C8 2678   0.530   1.512   3.264  0.0502 -0.3982 -0.2803
   37CHL1    H8 2679   0.570   1.409   3.268 -0.4484 -0.5854 -0.0802
   37CHL1   C14 2680   0.508   1.585   3.400 -0.6921  0.4935  0.2967
   37CHL1   H14 2681   0.464   1.683   3.372 -0.8385  0.5047  0.5611
   37CHL1   C15 2682   0.636   1.619   3.486  0.1054  0.3752  0.6568
   37CHL1  H15A 2683   0.708   1.538   3.462 -0.9909 -0.4332  0.0252
   37CHL1  H15B 2684   0.685   1.713   3.454 -0.9686  0.2752 -1.4677
   37CHL1   C16 2685   0.580   1.624   3.628  0.3194 -0.5017 -0.2700
   37CHL1  H16A 2686   0.633   1.552   3.694 -0.0783 -0.4458  0.1168
   37CHL1  H16B 2687   0.586   1.725   3.676 -0.4164  0.0760 -1.3532
   37CHL1   C17 2688   0.424   1.599   3.619 -0.0088  0.3806 -0.6363
   37CHL1   H17 2689   0.380   1.695   3.586 -1.6756 -0.2270 -0.2843
   37CHL1   C13 2690   0.408   1.511   3.490  0.4347 -0.1686  0.4502
   37CHL1   C18 2691   0.454   1.366   3.511 -0.6037  0.4234  0.4139
   37CHL1  H18A 2692   0.390   1.307   3.580  1.9951 -2.2678  0.7686
   37CHL1  H18B 2693   0.464   1.303   3.420  1.8754  1.3003 -0.0110
   37CHL1  H18C 2694   0.552   1.363   3.564  0.3352  0.4706 -1.2638
   37CHL1   C12 2695   0.277   1.521   3.414 -0.3122  0.4117 -0.3438
   37CHL1  H12A 2696   0.198   1.480   3.480 -0.4060  1.5450  0.2840
   37CHL1  H12B 2697   0.251   1.629   3.403  1.4190  0.8032 -0.9280
   37CHL1   C11 2698   0.273   1.454   3.274  0.0092 -0.3553  0.3340
   37CHL1  H11A 2699   0.283   1.344   3.288  3.0941 -0.1229  0.8362
   37CHL1  H11B 2700   0.175   1.476   3.227 -0.5790 -2.1099  0.6570
   37CHL1    C9 2701   0.392   1.505   3.184 -0.1311 -0.0106 -0.2011
   37CHL1    H9 2702   0.365   1.613   3.189  0.3660  0.2205 -1.8541
   37CHL1   C10 2703   0.400   1.457   3.036  0.5765  0.2539  0.2824
   37CHL1   C19 2704   0.395   1.304   3.036  0.4024  0.0203  0.0886
   37CHL1  H19A 2705   0.476   1.261   3.099  0.1689  0.7839  0.9310
   37CHL1  H19B 2706   0.297   1.277   3.080  0.1793  2.1837  1.0458
   37CHL1  H19C 2707   0.393   1.260   2.934  0.0828  1.2667 -0.4640
   37CHL1    C1 2708   0.271   1.501   2.961  0.8855 -0.1609  0.2967
   37CHL1   H1A 2709   0.178   1.455   3.001  0.3586 -0.5738 -1.3042
   37CHL1   H1B 2710   0.264   1.611   2.978  1.5477  0.5300 -3.0902
   37CHL1    C2 2711   0.275   1.481   2.807  0.4877  0.3131 -0.0400
   37CHL1   H2A 2712   0.179   1.504   2.756  0.5260 -1.6822 -1.1290
   37CHL1   H2B 2713   0.290   1.374   2.780  1.3000  0.6786 -1.1343
   37CHL1   C20 2714   0.359   1.557   3.755 -0.3473 -0.0573 -0.3365
   37CHL1   H20 2715   0.385   1.451   3.776  2.2588  0.4956 -0.4859
   37CHL1   C21 2716   0.206   1.568   3.748  0.2996  0.2755  0.1182
   37CHL1  H21A 2717   0.172   1.659   3.694 -1.2901 -2.2775 -3.6124
   37CHL1  H21B 2718   0.159   1.566   3.849 -1.0922 -0.4410 -0.5134
   37CHL1  H21C 2719   0.166   1.480   3.693 -0.6299  0.3127  0.7124
   37CHL1   C22 2720   0.413   1.634   3.882  0.9667 -0.0003  0.0456
   37CHL1  H22A 2721   0.523   1.640   3.876  1.2165 -1.0995  2.3824
   37CHL1  H22B 2722   0.399   1.743   3.869  1.1834 -0.0617 -0.7715
   37CHL1   C23 2723   0.380   1.589   4.022  0.3857  0.1282  0.3718
   37CHL1  H23A 2724   0.276   1.613   4.052  0.0211  1.6720 -1.8763
   37CHL1  H23B 2725   0.396   1.479   4.021 -2.2704 -0.3337  1.3280
   37CHL1   C24 2726   0.462   1.653   4.136  0.2154 -0.2885  0.3790
   37CHL1  H24A 2727   0.562   1.604   4.143  0.2065 -0.0620  2.6252
   37CHL1  H24B 2728   0.471   1.757   4.099  1.5427  0.4463  2.5806
   37CHL1   C25 2729   0.394   1.656   4.276  0.0930  0.4562  0.6376
   37CHL1   H25 2730   0.302   1.718   4.264  0.3365  0.6751 -0.1693
   37CHL1   C26 2731   0.369   1.517   4.329  0.9064 -0.1210  0.2220
   37CHL1  H26A 2732   0.307   1.456   4.260 -0.7299 -0.6794  2.0841
   37CHL1  H26B 2733   0.467   1.466   4.341  0.8231  0.1256  2.3937
   37CHL1  H26C 2734   0.316   1.513   4.426 -3.7382  0.5281 -2.0301
   37CHL1   C27 2735   0.486   1.728   4.371  0.1826  0.2112 -0.8036
   37CHL1  H27A 2736   0.578   1.673   4.401 -0.0394  0.0224 -0.4679
   37CHL1  H27B 2737   0.494   1.838   4.355  0.4234  0.0622 -1.7710
   37CHL1  H27C 2738   0.440   1.717   4.472 -0.6757  0.4088 -1.1619
   38CHL1    C3 2739   3.648   0.092   2.687 -0.4772  0.1200 -0.4336
   38CHL1    H3 2740   3.728   0.162   2.718  0.6060 -1.4584  0.4977
   38CHL1    O3 2741   3.616   0.123   2.557  0.6596 -0.3652 -0.8417
   38CHL1   H3' 2742   3.521   0.114   2.552  0.6934 -0.1999 -2.4273
   38CHL1    C4 2743   3.700  -0.052   2.712  0.1104 -0.2230  0.3401
   38CHL1   H4A 2744   3.620  -0.122   2.683 -0.3400  0.7167 -0.7603
   38CHL1   H4B 2745   3.785  -0.083   2.648 -0.3232 -0.5529 -0.0707
   38CHL1    C5 2746   3.728  -0.070   2.863  0.5660  0.2922  0.7242
   38CHL1    C6 2747   3.851  -0.108   2.905  0.2017 -0.9425  0.2904
   38CHL1    H6 2748   3.922  -0.143   2.829 -0.9934 -0.2432 -1.2080
   38CHL1    C7 2749   3.886  -0.128   3.050 -0.4134 -0.1412 -0.1118
   38CHL1   H7A 2750   3.924  -0.232   3.062  1.1755  0.6210  1.8972
   38CHL1   H7B 2751   3.967  -0.060   3.083 -0.8254  0.4953 -0.3816
   38CHL1    C8 2752   3.764  -0.132   3.138  0.2285 -0.0398  0.1355
   38CHL1    H8 2753   3.702  -0.223   3.122 -1.7959  1.2737  0.1086
   38CHL1   C14 2754   3.810  -0.130   3.287  0.5055  0.2464  0.3488
   38CHL1   H14 2755   3.850  -0.027   3.299 -1.9631  1.1009  2.1705
   38CHL1   C15 2756   3.907  -0.236   3.338 -0.0786  0.0280 -0.4813
   38CHL1  H15A 2757   3.893  -0.323   3.270  1.7260  1.3260 -2.6489
   38CHL1  H15B 2758   4.014  -0.207   3.335  0.0369 -0.3829 -0.3146
   38CHL1   C16 2759   3.867  -0.271   3.485  0.5725 -0.6711 -0.0740
   38CHL1  H16A 2760   3.819  -0.371   3.485 -2.4379  0.6088 -2.2928
   38CHL1  H16B 2761   3.955  -0.273   3.553 -0.9389 -1.0504  1.9489
   38CHL1   C17 2762   3.752  -0.166   3.518  0.1650 -0.0381 -0.6336
   38CHL1   H17 2763   3.804  -0.070   3.541 -0.7346  0.4236 -0.5060
   38CHL1   C13 2764   3.691  -0.135   3.382 -0.4768 -0.6560  0.5445
   38CHL1   C18 2765   3.597  -0.248   3.348 -0.1994  0.2497  0.9355
   38CHL1  H18A 2766   3.545  -0.236   3.251  0.4837 -0.7796  0.4234
   38CHL1  H18B 2767   3.656  -0.342   3.343 -0.9666 -0.1789 -2.1120
   38CHL1  H18C 2768   3.522  -0.255   3.430 -0.0981  0.8786  1.0799
   38CHL1   C12 2769   3.617  -0.007   3.370 -0.6512  0.2424 -0.4265
   38CHL1  H12A 2770   3.530   0.009   3.437  1.4672  1.4719  2.2421
   38CHL1  H12B 2771   3.674   0.083   3.402 -2.0227  0.7688  0.6673
   38CHL1   C11 2772   3.574   0.016   3.222  0.7853  0.0971  0.8511
   38CHL1  H11A 2773   3.486  -0.047   3.200  1.6279 -0.9606  0.4239
   38CHL1  H11B 2774   3.544   0.123   3.225  2.1578  0.5486 -0.2359
   38CHL1    C9 2775   3.673  -0.012   3.108 -0.1601  0.0191  0.1714
   38CHL1    H9 2776   3.739   0.077   3.112 -0.7873  0.4843  0.2641
   38CHL1   C10 2777   3.623  -0.013   2.963 -0.6550  0.1252 -0.7113
   38CHL1   C19 2778   3.510  -0.126   2.955 -0.7830  0.9141 -0.5427
   38CHL1  H19A 2779   3.427  -0.106   3.026 -0.5774 -1.0890  0.3416
   38CHL1  H19B 2780   3.467  -0.134   2.853  1.1504  0.9375 -1.4174
   38CHL1  H19C 2781   3.541  -0.228   2.986 -3.7045  0.0109 -0.2904
   38CHL1    C1 2782   3.577   0.128   2.927  0.8085  0.6058  0.0677
   38CHL1   H1A 2783   3.495   0.160   2.995  0.3730 -0.7069  0.1983
   38CHL1   H1B 2784   3.663   0.198   2.941  0.7899  0.7963 -0.7308
   38CHL1    C2 2785   3.531   0.139   2.778 -0.7763 -0.2541 -0.1255
   38CHL1   H2A 2786   3.515   0.248   2.766 -1.1209 -0.2756  0.1070
   38CHL1   H2B 2787   3.441   0.082   2.747 -0.4541  0.4177 -2.4924
   38CHL1   C20 2788   3.666  -0.192   3.639  0.0578  0.0663  0.2771
   38CHL1   H20 2789   3.597  -0.274   3.611 -0.1666  0.8855 -1.7236
   38CHL1   C21 2790   3.575  -0.074   3.679  0.3363 -0.2349  0.1596
   38CHL1  H21A 2791   3.472  -0.066   3.637  0.0889  1.7847  1.0438
   38CHL1  H21B 2792   3.633   0.020   3.667  0.9576 -0.6013  0.2348
   38CHL1  H21C 2793   3.552  -0.072   3.788 -0.7795 -1.2076 -0.0287
   38CHL1   C22 2794   3.744  -0.250   3.760  0.0312 -0.9549  0.0459
   38CHL1  H22A 2795   3.824  -0.317   3.724  1.4675  2.0326 -2.8341
   38CHL1  H22B 2796   3.796  -0.166   3.811 -1.0500  0.2794 -0.8110
   38CHL1   C23 2797   3.644  -0.324   3.858 -0.6182  0.1573  0.4275
   38CHL1  H23A 2798   3.558  -0.263   3.892 -0.0408  0.3132  1.6495
   38CHL1  H23B 2799   3.593  -0.405   3.801 -1.8074  0.6917  0.7204
   38CHL1   C24 2800   3.706  -0.391   3.978 -0.7732  0.1565 -0.3836
   38CHL1  H24A 2801   3.638  -0.465   4.025 -0.1077  0.0256  0.4065
   38CHL1  H24B 2802   3.783  -0.448   3.921  1.3641  1.8470  0.6869
   38CHL1   C25 2803   3.769  -0.301   4.080  0.1660  0.7014 -1.0177
   38CHL1   H25 2804   3.830  -0.221   4.031 -0.7599  1.9946 -0.1455
   38CHL1   C26 2805   3.658  -0.233   4.172  0.4043  0.3103 -0.0466
   38CHL1  H26A 2806   3.596  -0.318   4.208  1.2311 -0.6674 -0.8712
   38CHL1  H26B 2807   3.706  -0.178   4.256 -2.0364  0.7124  1.1866
   38CHL1  H26C 2808   3.594  -0.167   4.109 -0.3578  0.3200  0.7055
   38CHL1   C27 2809   3.870  -0.370   4.175 -0.0447 -0.3196 -0.6681
   38CHL1  H27A 2810   3.816  -0.448   4.233 -1.1866  0.7063 -0.3264
   38CHL1  H27B 2811   3.948  -0.411   4.107 -0.2308  1.5551 -2.0825
   38CHL1  H27C 2812   3.909  -0.294   4.246  0.5377 -0.0111 -1.3067
   39CHL1    C3 2813   4.199   6.273   2.801 -0.1251 -0.0486  0.0957
   39CHL1    H3 2814   4.272   6.351   2.830 -2.1094  1.6658  0.6761
   39CHL1    O3 2815   4.175   6.273   2.661  0.4590  0.1354  0.1018
   39CHL1   H3' 2816   4.108   6.205   2.660  0.4022  0.1718 -1.5733
   39CHL1    C4 2817   4.259   6.137   2.853 -0.1923 -0.9474 -0.5426
   39CHL1   H4A 2818   4.176   6.067   2.831  0.7382 -3.0288  2.0592
   39CHL1   H4B 2819   4.354   6.116   2.799  0.9198  1.0783  0.5067
   39CHL1    C5 2820   4.276   6.139   3.002 -0.1924 -0.3724 -0.0855
   39CHL1    C6 2821   4.400   6.121   3.059  0.5212 -0.1408 -0.4460
   39CHL1    H6 2822   4.481   6.087   2.992  0.6840  0.3794 -0.5118
   39CHL1    C7 2823   4.416   6.116   3.212 -0.1370 -0.2234  0.1573
   39CHL1   H7A 2824   4.469   6.024   3.244 -0.8683 -0.0779  1.8627
   39CHL1   H7B 2825   4.483   6.198   3.246 -0.4953 -0.3942  1.3133
   39CHL1    C8 2826   4.286   6.124   3.288  0.0951  0.3831  0.0716
   39CHL1    H8 2827   4.247   6.020   3.288  0.5117  0.1882  1.7906
   39CHL1   C14 2828   4.317   6.158   3.435 -0.4610  0.0962  0.6494
   39CHL1   H14 2829   4.368   6.256   3.443 -1.1116  0.4035  1.1699
   39CHL1   C15 2830   4.424   6.068   3.516  0.3483  0.3668 -0.4076
   39CHL1  H15A 2831   4.428   5.963   3.480 -0.5414 -0.4404  1.7068
   39CHL1  H15B 2832   4.525   6.113   3.507  1.1401 -1.1228  0.6054
   39CHL1   C16 2833   4.381   6.086   3.665  0.6615  0.0285 -0.4901
   39CHL1  H16A 2834   4.342   5.992   3.709  1.6373 -0.3227 -0.3480
   39CHL1  H16B 2835   4.459   6.111   3.740 -0.9530 -2.7457  2.3720
   39CHL1   C17 2836   4.264   6.193   3.669  0.2478  0.0709 -0.8057
   39CHL1   H17 2837   4.318   6.289   3.679  2.4479 -1.2592  1.0689
   39CHL1   C13 2838   4.198   6.180   3.527 -0.1139 -0.2454  0.3942
   39CHL1   C18 2839   4.116   6.057   3.523 -0.1634 -0.0409  0.8489
   39CHL1  H18A 2840   4.015   6.081   3.564 -1.9372 -5.4291  0.3236
   39CHL1  H18B 2841   4.090   6.014   3.424  0.6376  3.0581 -0.8710
   39CHL1  H18C 2842   4.157   5.972   3.580 -0.1576 -1.9285 -1.8167
   39CHL1   C12 2843   4.119   6.291   3.461  0.1433  0.5552 -0.3895
   39CHL1  H12A 2844   4.023   6.310   3.515  1.3130  0.6975  1.7592
   39CHL1  H12B 2845   4.176   6.386   3.461  0.8331  0.2321  2.3220
   39CHL1   C11 2846   4.071   6.261   3.317 -0.2474  0.0737 -0.1383
   39CHL1  H11A 2847   4.005   6.172   3.310  0.4931 -0.4902 -0.0307
   39CHL1  H11B 2848   4.016   6.350   3.279  0.5372  1.2466  1.3406
   39CHL1    C9 2849   4.192   6.228   3.231 -0.4301  0.0060  0.3824
   39CHL1    H9 2850   4.246   6.325   3.228 -0.0509 -0.2030  0.2636
   39CHL1   C10 2851   4.154   6.192   3.084  0.3745  0.0372 -0.2877
   39CHL1   C19 2852   4.050   6.074   3.086 -0.0278 -0.2019 -0.4035
   39CHL1  H19A 2853   4.048   6.026   2.986  3.2683  1.8669 -1.6415
   39CHL1  H19B 2854   4.068   5.998   3.165 -1.0941 -0.6378 -0.5710
   39CHL1  H19C 2855   3.955   6.116   3.124 -0.5113 -2.4676  1.1090
   39CHL1    C1 2856   4.093   6.317   3.018 -0.1038 -0.2712  0.6207
   39CHL1   H1A 2857   4.005   6.357   3.073  0.8195  1.4743  0.8971
   39CHL1   H1B 2858   4.173   6.393   3.031  2.1348 -1.8987 -2.4594
   39CHL1    C2 2859   4.059   6.304   2.869 -0.4092  0.1064  0.2403
   39CHL1   H2A 2860   4.032   6.404   2.828  0.5446  1.4754  2.7178
   39CHL1   H2B 2861   3.977   6.232   2.852 -1.4550  0.9825  1.4286
   39CHL1   C20 2862   4.174   6.170   3.790 -0.2741  0.7478 -0.5353
   39CHL1   H20 2863   4.103   6.087   3.767 -0.4015  1.0531 -1.2481
   39CHL1   C21 2864   4.080   6.288   3.817 -0.0341 -0.7330  0.0835
   39CHL1  H21A 2865   4.024   6.283   3.912 -0.7211  4.5327  0.2380
   39CHL1  H21B 2866   4.002   6.289   3.738  0.4901 -2.4336 -0.5032
   39CHL1  H21C 2867   4.129   6.388   3.823  0.3149 -0.7245 -1.9372
   39CHL1   C22 2868   4.254   6.141   3.922  0.5244 -0.3813 -0.6832
   39CHL1  H22A 2869   4.327   6.058   3.908  0.1894 -0.5794 -1.3108
   39CHL1  H22B 2870   4.312   6.231   3.953  0.3754 -0.8533  1.0660
   39CHL1   C23 2871   4.164   6.101   4.042 -1.4144 -0.4812 -0.7317
   39CHL1  H23A 2872   4.091   6.179   4.073  0.8124  0.5922  2.1424
   39CHL1  H23B 2873   4.107   6.010   4.013 -2.0872  0.1941 -1.6178
   39CHL1   C24 2874   4.241   6.065   4.172  0.0006 -0.6178  0.4787
   39CHL1  H24A 2875   4.165   6.019   4.238 -1.0610  1.8909  1.1227
   39CHL1  H24B 2876   4.313   5.989   4.133  0.5786  0.2654 -0.2144
   39CHL1   C25 2877   4.318   6.178   4.250 -0.5240 -0.2472  0.2413
   39CHL1   H25 2878   4.384   6.233   4.179 -0.4447  0.4819  0.8750
   39CHL1   C26 2879   4.212   6.277   4.304 -0.7163  0.1843  0.7899
   39CHL1  H26A 2880   4.150   6.321   4.223  0.5870 -2.6189 -1.9711
   39CHL1  H26B 2881   4.155   6.218   4.379 -0.5070 -0.8653  0.1580
   39CHL1  H26C 2882   4.261   6.362   4.356 -0.0273 -1.7182  3.4471
   39CHL1   C27 2883   4.403   6.117   4.368  0.5973 -0.1903 -0.6495
   39CHL1  H27A 2884   4.469   6.201   4.398  0.7027 -0.8699  1.1640
   39CHL1  H27B 2885   4.343   6.079   4.453  0.9379  0.0575 -0.2969
   39CHL1  H27C 2886   4.463   6.034   4.323  0.0250 -0.5079 -0.8312
   40CHL1    C3 2887   0.650   4.669   2.855 -0.7228  0.1087  0.4404
   40CHL1    H3 2888   0.612   4.565   2.859  0.4925 -0.3568  0.3338
   40CHL1    O3 2889   0.688   4.708   2.726  0.6907  0.1233  0.2675
   40CHL1   H3' 2890   0.610   4.681   2.677 -1.5717 -0.2560  3.7611
   40CHL1    C4 2891   0.543   4.765   2.907  0.2779 -0.1003 -0.0780
   40CHL1   H4A 2892   0.557   4.871   2.876 -2.0670  0.0993 -0.6289
   40CHL1   H4B 2893   0.454   4.742   2.845 -0.2949  0.2519  0.6052
   40CHL1    C5 2894   0.510   4.771   3.051 -0.2851  0.4139 -0.1119
   40CHL1    C6 2895   0.387   4.755   3.107 -0.3374 -0.1130  0.4606
   40CHL1    H6 2896   0.302   4.744   3.038 -0.8774 -1.3967  1.2916
   40CHL1    C7 2897   0.354   4.760   3.250 -0.0505 -1.1744 -0.8326
   40CHL1   H7A 2898   0.265   4.827   3.250  0.9294  0.1674 -1.5534
   40CHL1   H7B 2899   0.346   4.655   3.284  1.4011 -1.3493 -0.9886
   40CHL1    C8 2900   0.468   4.814   3.341 -1.2851 -0.0326  0.7171
   40CHL1    H8 2901   0.474   4.922   3.317  0.4971 -0.1390  0.5398
   40CHL1   C14 2902   0.448   4.782   3.483 -0.1039  0.1129 -0.6404
   40CHL1   H14 2903   0.450   4.671   3.476  2.1094  0.1493 -1.5202
   40CHL1   C15 2904   0.310   4.816   3.551  0.4469 -0.3419  0.4041
   40CHL1  H15A 2905   0.275   4.912   3.506 -0.6000  0.9871  3.7047
   40CHL1  H15B 2906   0.239   4.731   3.536  1.6568 -1.1483 -1.0244
   40CHL1   C16 2907   0.343   4.833   3.700  0.1827 -0.3519 -0.5351
   40CHL1  H16A 2908   0.330   4.942   3.717 -0.5397 -0.6618  1.0907
   40CHL1  H16B 2909   0.267   4.796   3.772 -0.7369  2.9934  0.3945
   40CHL1   C17 2910   0.492   4.788   3.712  0.4885  0.4224 -0.7418
   40CHL1   H17 2911   0.484   4.677   3.712 -2.2939  0.5212 -1.9613
   40CHL1   C13 2912   0.556   4.828   3.580  0.7571 -0.2903 -0.0409
   40CHL1   C18 2913   0.570   4.982   3.565 -0.3097 -1.0511 -0.1428
   40CHL1  H18A 2914   0.472   5.022   3.596  0.6469 -0.8504  2.9006
   40CHL1  H18B 2915   0.648   5.018   3.635 -0.9516  0.4898 -0.1829
   40CHL1  H18C 2916   0.584   5.000   3.456 -0.5434 -0.4949 -0.0830
   40CHL1   C12 2917   0.685   4.758   3.536 -0.0326 -0.6396 -0.6245
   40CHL1  H12A 2918   0.770   4.801   3.593  0.4228  0.7266 -2.2429
   40CHL1  H12B 2919   0.670   4.650   3.556  0.5633 -0.6521 -0.1921
   40CHL1   C11 2920   0.717   4.779   3.388 -0.4466  0.0604  0.2993
   40CHL1  H11A 2921   0.778   4.871   3.380  2.5619 -1.9058 -1.6856
   40CHL1  H11B 2922   0.796   4.704   3.364 -0.0699  0.7534 -0.6955
   40CHL1    C9 2923   0.599   4.754   3.293 -0.1437  0.3118  0.5472
   40CHL1    H9 2924   0.591   4.643   3.297 -3.1857  0.4712  0.9359
   40CHL1   C10 2925   0.627   4.780   3.146  0.1967 -0.5986  0.0400
   40CHL1   C19 2926   0.670   4.933   3.123 -0.3453  0.1928  0.5914
   40CHL1  H19A 2927   0.766   4.943   3.179 -0.0547 -0.6742  0.2663
   40CHL1  H19B 2928   0.695   4.958   3.017 -0.9413  0.4609  0.5134
   40CHL1  H19C 2929   0.597   5.004   3.167 -1.7806 -0.1202 -1.1835
   40CHL1    C1 2930   0.733   4.677   3.106 -0.0555 -0.7317  0.1883
   40CHL1   H1A 2931   0.823   4.665   3.169 -0.4438 -1.4007  0.6310
   40CHL1   H1B 2932   0.679   4.580   3.117 -1.6629  0.1185  0.1371
   40CHL1    C2 2933   0.774   4.671   2.954 -0.7203 -0.7174 -0.5281
   40CHL1   H2A 2934   0.837   4.582   2.932 -0.3269 -0.4324 -0.5841
   40CHL1   H2B 2935   0.830   4.767   2.943 -2.2452  0.3245  0.3098
   40CHL1   C20 2936   0.550   4.838   3.848  0.1112 -0.8281 -0.2666
   40CHL1   H20 2937   0.575   4.945   3.838 -0.3343 -0.7922 -1.0180
   40CHL1   C21 2938   0.681   4.766   3.868 -0.8878  0.1302 -0.4141
   40CHL1  H21A 2939   0.744   4.772   3.777 -0.3936  3.0604  0.0370
   40CHL1  H21B 2940   0.669   4.664   3.912 -0.3007  0.4873  0.6156
   40CHL1  H21C 2941   0.741   4.828   3.938 -2.3677  0.0300  0.9981
   40CHL1   C22 2942   0.453   4.822   3.969 -0.6702  0.3868 -0.1985
   40CHL1  H22A 2943   0.501   4.849   4.066 -0.0515 -4.8995  1.2341
   40CHL1  H22B 2944   0.366   4.891   3.954 -0.6319  0.5617  0.3647
   40CHL1   C23 2945   0.398   4.675   3.980 -0.6452 -0.4847  0.3210
   40CHL1  H23A 2946   0.333   4.636   3.899  1.4516 -2.6070 -0.4602
   40CHL1  H23B 2947   0.483   4.604   3.973 -0.8160 -0.6077 -0.7242
   40CHL1   C24 2948   0.332   4.647   4.115 -0.1587 -0.0463 -0.4358
   40CHL1  H24A 2949   0.326   4.537   4.134 -1.0635 -0.0405 -0.6640
   40CHL1  H24B 2950   0.378   4.705   4.198 -0.2467 -0.0756 -0.3667
   40CHL1   C25 2951   0.187   4.703   4.119  0.2963 -0.2372 -0.2997
   40CHL1   H25 2952   0.215   4.806   4.089  0.3640  0.2269  1.2437
   40CHL1   C26 2953   0.084   4.650   4.018  0.1261  0.7198  1.0505
   40CHL1  H26A 2954   0.040   4.560   4.065  0.0467 -2.2725 -3.9989
   40CHL1  H26B 2955   0.001   4.720   3.994 -0.2567 -0.1228 -0.1755
   40CHL1  H26C 2956   0.127   4.612   3.923 -0.2221 -2.1751  1.9665
   40CHL1   C27 2957   0.123   4.704   4.260  0.0315  0.3318 -0.6446
   40CHL1  H27A 2958   0.198   4.734   4.337 -1.8456 -0.7331  1.7424
   40CHL1  H27B 2959   0.036   4.773   4.264  0.5110  0.9070  1.8985
   40CHL1  H27C 2960   0.085   4.609   4.305  0.8214  1.0062  1.5722
   41CHL1    C3 2961   1.182   2.396   2.727  0.2809  0.5840  0.4034
   41CHL1    H3 2962   1.274   2.365   2.780 -0.2684  2.0893  2.3695
   41CHL1    O3 2963   1.200   2.410   2.586 -0.0753 -0.1241  0.2247
   41CHL1   H3' 2964   1.255   2.338   2.555 -1.5747 -1.7671  1.2058
   41CHL1    C4 2965   1.061   2.316   2.759 -0.3854  0.1201  0.4430
   41CHL1   H4A 2966   0.974   2.366   2.711  1.0653  1.9181 -0.4428
   41CHL1   H4B 2967   1.065   2.221   2.702  0.5509 -0.5947  1.6591
   41CHL1    C5 2968   1.037   2.306   2.910  0.0927  0.0805 -0.6419
   41CHL1    C6 2969   1.045   2.188   2.973 -0.2832 -0.4933 -0.2303
   41CHL1    H6 2970   1.077   2.105   2.908  0.2788 -0.7155  0.3179
   41CHL1    C7 2971   1.007   2.169   3.115  0.3909  0.2542 -0.2489
   41CHL1   H7A 2972   0.934   2.085   3.117 -0.1961  0.7330 -0.7746
   41CHL1   H7B 2973   1.101   2.142   3.166 -0.1812 -1.1384  0.1058
   41CHL1    C8 2974   0.955   2.296   3.194  0.4091  0.2750  0.7192
   41CHL1    H8 2975   0.848   2.309   3.169  0.0606 -4.2428 -1.0321
   41CHL1   C14 2976   0.977   2.297   3.348 -0.0427  0.1007 -0.3519
   41CHL1   H14 2977   1.087   2.300   3.365 -0.0440  1.2203 -0.4543
   41CHL1   C15 2978   0.937   2.173   3.420 -0.2620  0.1161  0.2562
   41CHL1  H15A 2979   0.841   2.133   3.380 -1.0192  1.4058  0.7086
   41CHL1  H15B 2980   1.013   2.092   3.421 -2.3515 -1.9510  0.0401
   41CHL1   C16 2981   0.913   2.220   3.563  0.4463  0.5353  0.4902
   41CHL1  H16A 2982   0.807   2.198   3.588 -0.2251  0.4288 -2.1405
   41CHL1  H16B 2983   0.973   2.155   3.630 -0.7271  1.2170  2.2734
   41CHL1   C17 2984   0.950   2.370   3.561  0.7602  0.2273 -0.9496
   41CHL1   H17 2985   1.058   2.380   3.582  0.6128  0.2962 -0.1788
   41CHL1   C13 2986   0.931   2.422   3.423  0.2800  0.0863  0.1979
   41CHL1   C18 2987   0.776   2.450   3.395 -0.0020  0.0924  0.2239
   41CHL1  H18A 2988   0.727   2.361   3.442  1.0983 -0.6169  0.0627
   41CHL1  H18B 2989   0.731   2.548   3.419  1.9505  0.5664  2.2592
   41CHL1  H18C 2990   0.751   2.444   3.287 -1.5085 -1.3402  0.6074
   41CHL1   C12 2991   1.016   2.538   3.370  0.0345 -0.3458  0.1913
   41CHL1  H12A 2992   0.985   2.630   3.425 -1.6406  0.4292 -1.9191
   41CHL1  H12B 2993   1.125   2.522   3.382 -0.1990 -1.7237  0.6141
   41CHL1   C11 2994   0.989   2.549   3.226  0.0379 -0.1747  0.3106
   41CHL1  H11A 2995   0.883   2.572   3.201  0.6016  0.0260 -2.1869
   41CHL1  H11B 2996   1.050   2.634   3.187 -0.2936 -0.5119 -0.9955
   41CHL1    C9 2997   1.023   2.421   3.138  0.3636 -0.0801  0.9302
   41CHL1    H9 2998   1.132   2.405   3.151  0.7334 -0.1355 -1.6577
   41CHL1   C10 2999   1.013   2.439   2.980  0.3257  0.3017  0.5142
   41CHL1   C19 3000   0.873   2.496   2.949  0.5017 -0.2727  0.5525
   41CHL1  H19A 3001   0.848   2.593   2.997  0.3497  0.0650 -0.1989
   41CHL1  H19B 3002   0.885   2.511   2.840 -0.7430  1.3540  0.5877
   41CHL1  H19C 3003   0.784   2.433   2.971 -2.4249  3.3338  0.2304
   41CHL1    C1 3004   1.131   2.535   2.938  0.0787  0.6081  0.2263
   41CHL1   H1A 3005   1.105   2.639   2.966 -1.0566  0.7287 -1.1351
   41CHL1   H1B 3006   1.227   2.514   2.991 -0.2062  0.1723  0.5763
   41CHL1    C2 3007   1.156   2.539   2.782 -0.1183 -0.1159 -0.0818
   41CHL1   H2A 3008   1.247   2.598   2.760 -0.1854 -0.4696 -1.4029
   41CHL1   H2B 3009   1.068   2.582   2.730 -1.3722 -2.7330 -0.2927
   41CHL1   C20 3010   0.875   2.431   3.683 -0.3789  0.0952 -0.2585
   41CHL1   H20 3011   0.766   2.425   3.660 -1.0619 -3.2425  2.9381
   41CHL1   C21 3012   0.915   2.579   3.692  0.5157  0.5873  0.3432
   41CHL1  H21A 3013   1.021   2.597   3.722  0.0930  1.2593  1.5215
   41CHL1  H21B 3014   0.856   2.635   3.768  2.3927  2.1986  0.6775
   41CHL1  H21C 3015   0.891   2.633   3.598  0.1562 -0.7524 -0.3578
   41CHL1   C22 3016   0.912   2.370   3.819 -0.2581 -0.0893  0.3529
   41CHL1  H22A 3017   0.908   2.259   3.819  0.2851 -0.1127  0.1484
   41CHL1  H22B 3018   1.015   2.399   3.847 -0.8553  1.1049  1.3759
   41CHL1   C23 3019   0.826   2.428   3.932  0.0839  0.6908  0.1278
   41CHL1  H23A 3020   0.811   2.538   3.930 -0.0327  0.6700 -0.1293
   41CHL1  H23B 3021   0.726   2.383   3.914  0.7947 -0.3664 -1.4448
   41CHL1   C24 3022   0.872   2.371   4.071  0.1512 -0.4124  0.8815
   41CHL1  H24A 3023   0.843   2.265   4.086  0.1411 -0.3994  0.9579
   41CHL1  H24B 3024   0.983   2.379   4.076  0.2725 -1.7710  0.7640
   41CHL1   C25 3025   0.805   2.450   4.182 -0.4254  0.2426  0.4706
   41CHL1   H25 3026   0.704   2.474   4.141  0.5299  1.2061 -1.4234
   41CHL1   C26 3027   0.785   2.365   4.310 -1.2681  0.7430  0.2390
   41CHL1  H26A 3028   0.703   2.293   4.290 -0.8622  0.3504 -0.0524
   41CHL1  H26B 3029   0.880   2.308   4.323 -1.7849 -0.5800 -1.4531
   41CHL1  H26C 3030   0.759   2.437   4.390  0.0992 -0.1656  1.5580
   41CHL1   C27 3031   0.879   2.583   4.220 -0.2401  0.5880 -0.1297
   41CHL1  H27A 3032   0.967   2.553   4.280  0.2364  0.6864 -0.7720
   41CHL1  H27B 3033   0.918   2.630   4.127 -1.8247  1.0896 -0.5806
   41CHL1  H27C 3034   0.813   2.648   4.281  1.2991 -0.1085  2.4011
   42CHL1    C3 3035   2.028   6.079   2.877 -0.3261  0.1482 -0.4831
   42CHL1    H3 3036   2.081   5.986   2.905 -2.0486 -0.9388 -0.6973
   42CHL1    O3 3037   2.002   6.083   2.744  0.1985 -0.4006  0.7138
   42CHL1   H3' 3038   1.940   6.157   2.739 -2.0494 -2.2234 -0.2582
   42CHL1    C4 3039   1.897   6.093   2.957  0.0671  0.4946 -0.4587
   42CHL1   H4A 3040   1.841   6.178   2.913  1.5104  0.6786 -2.0616
   42CHL1   H4B 3041   1.844   5.999   2.931 -0.4924  0.3293  1.1819
   42CHL1    C5 3042   1.911   6.118   3.104 -0.4831  0.2878  0.4424
   42CHL1    C6 3043   1.845   6.051   3.199 -0.1892 -1.2868 -0.6039
   42CHL1    H6 3044   1.771   5.974   3.175 -0.4395 -1.4017  0.5067
   42CHL1    C7 3045   1.870   6.079   3.345  0.0991 -0.1366  0.1926
   42CHL1   H7A 3046   1.777   6.068   3.406 -0.2500  1.2135 -0.0666
   42CHL1   H7B 3047   1.942   6.007   3.391  1.2281  0.2844 -0.8670
   42CHL1    C8 3048   1.918   6.227   3.373  0.0983  0.2859 -0.1833
   42CHL1    H8 3049   1.840   6.293   3.331  2.1863  1.7686 -1.9248
   42CHL1   C14 3050   1.930   6.254   3.523 -0.1145 -1.5105 -0.5081
   42CHL1   H14 3051   2.013   6.187   3.555  0.2390 -1.1887 -0.7316
   42CHL1   C15 3052   1.811   6.221   3.610  0.3186 -0.3895 -0.0391
   42CHL1  H15A 3053   1.728   6.284   3.572  2.7819  3.8591  1.0171
   42CHL1  H15B 3054   1.794   6.112   3.627  1.3120 -0.3110  1.6626
   42CHL1   C16 3055   1.855   6.276   3.746  0.2920 -0.5833 -0.6435
   42CHL1  H16A 3056   1.772   6.334   3.793 -0.7159 -1.5372 -1.2314
   42CHL1  H16B 3057   1.881   6.202   3.825 -0.9772 -4.3979 -3.5525
   42CHL1   C17 3058   1.980   6.370   3.719  0.1189  0.7989  0.0210
   42CHL1   H17 3059   2.065   6.303   3.741 -1.0818 -0.9528 -0.4685
   42CHL1   C13 3060   1.981   6.391   3.564  0.3600 -0.2118  0.1715
   42CHL1   C18 3061   1.879   6.498   3.538 -0.3463  0.3480  0.1118
   42CHL1  H18A 3062   1.789   6.483   3.601  1.7235 -1.8548  2.7887
   42CHL1  H18B 3063   1.924   6.596   3.566 -1.2318  0.6158  0.6586
   42CHL1  H18C 3064   1.851   6.504   3.430 -1.6871 -0.1130  0.4057
   42CHL1   C12 3065   2.117   6.412   3.495 -0.8771 -0.2019 -0.2208
   42CHL1  H12A 3066   2.151   6.517   3.500  2.1021 -1.0818  0.2654
   42CHL1  H12B 3067   2.198   6.347   3.535  1.6018  1.8349 -1.6831
   42CHL1   C11 3068   2.097   6.393   3.345  0.4397  0.2970 -0.0316
   42CHL1  H11A 3069   2.042   6.484   3.313 -2.4495 -0.8656  1.2831
   42CHL1  H11B 3070   2.195   6.406   3.295  0.7682  1.3490  0.8501
   42CHL1    C9 3071   2.044   6.256   3.296 -0.5873  0.5741 -0.5964
   42CHL1    H9 3072   2.120   6.179   3.322 -1.1008 -0.4504 -2.0229
   42CHL1   C10 3073   2.015   6.228   3.142 -0.1037 -0.0488  0.4098
   42CHL1   C19 3074   1.956   6.368   3.086 -0.0936 -0.1129 -0.0764
   42CHL1  H19A 3075   2.012   6.462   3.108  1.4207 -0.7779 -0.9392
   42CHL1  H19B 3076   1.955   6.369   2.975  3.7060 -3.4469 -0.3876
   42CHL1  H19C 3077   1.852   6.384   3.120  0.0298  2.0810 -0.5853
   42CHL1    C1 3078   2.149   6.203   3.066  0.4440  0.1068  0.3401
   42CHL1   H1A 3079   2.215   6.292   3.076  0.9560 -0.2463  0.1449
   42CHL1   H1B 3080   2.194   6.111   3.110 -1.3953 -0.3352  1.4399
   42CHL1    C2 3081   2.134   6.192   2.907  0.3204 -1.0127 -0.1819
   42CHL1   H2A 3082   2.231   6.158   2.865  0.4231 -0.6460 -0.2439
   42CHL1   H2B 3083   2.099   6.293   2.875 -0.3711 -0.5141  1.9713
   42CHL1   C20 3084   1.996   6.491   3.805  0.2254 -0.6877 -0.2985
   42CHL1   H20 3085   1.921   6.572   3.790 -2.5018 -2.5127  2.2454
   42CHL1   C21 3086   2.138   6.541   3.792 -1.0966  0.1622  0.1057
   42CHL1  H21A 3087   2.150   6.591   3.694  1.3568  1.7836  1.1621
   42CHL1  H21B 3088   2.215   6.462   3.807 -1.3040  0.0220  0.4756
   42CHL1  H21C 3089   2.147   6.618   3.872 -2.3151 -1.3222  1.7728
   42CHL1   C22 3090   1.967   6.468   3.958 -0.6378  0.7277 -0.1382
   42CHL1  H22A 3091   1.857   6.451   3.961 -0.4960 -0.3943 -0.8426
   42CHL1  H22B 3092   2.019   6.376   3.993 -1.0424  0.1805 -0.9327
   42CHL1   C23 3093   1.984   6.578   4.063 -0.6410  0.5624  0.4951
   42CHL1  H23A 3094   2.092   6.590   4.084 -0.3110  0.4241 -0.9947
   42CHL1  H23B 3095   1.934   6.676   4.043 -0.1567  0.4906 -1.1472
   42CHL1   C24 3096   1.944   6.529   4.204  0.6372  0.7138 -0.1527
   42CHL1  H24A 3097   1.836   6.509   4.188  1.0372 -0.5508 -1.4811
   42CHL1  H24B 3098   1.994   6.433   4.228 -0.7470  0.2604  1.0104
   42CHL1   C25 3099   1.966   6.626   4.323 -1.0988 -0.0426  0.4593
   42CHL1   H25 3100   1.942   6.732   4.301  1.7938  0.5110 -0.4797
   42CHL1   C26 3101   1.892   6.575   4.443 -0.3960  0.2471 -0.2346
   42CHL1  H26A 3102   1.782   6.583   4.429 -0.2758 -1.0849 -2.2344
   42CHL1  H26B 3103   1.919   6.470   4.469 -0.9269  0.5768  1.8674
   42CHL1  H26C 3104   1.907   6.637   4.534 -1.0196  0.2768 -0.1514
   42CHL1   C27 3105   2.116   6.647   4.365  0.0214 -0.4925 -0.2309
   42CHL1  H27A 3106   2.167   6.699   4.281 -1.6878 -1.2792 -1.8127
   42CHL1  H27B 3107   2.115   6.709   4.458 -0.0083 -2.8492  1.4458
   42CHL1  H27C 3108   2.176   6.558   4.395  0.1435  0.5240  2.9358
   43CHL1    C3 3109   4.965   0.105   2.811  0.4690 -0.0944  0.2056
   43CHL1    H3 3110   4.899   0.195   2.809  1.4118  0.6343 -2.3095
   43CHL1    O3 3111   5.005   0.081   2.678  0.2603 -0.2141  0.0569
   43CHL1   H3' 3112   5.098   0.061   2.691  0.2847  0.3905  0.9235
   43CHL1    C4 3113   5.094   0.149   2.885  0.2265  0.4583 -0.2008
   43CHL1   H4A 3114   5.169   0.069   2.867  0.5023  0.6346  0.1445
   43CHL1   H4B 3115   5.127   0.246   2.840 -0.4772 -0.5256 -3.0489
   43CHL1    C5 3116   5.070   0.145   3.037 -0.7526 -1.0512  0.5047
   43CHL1    C6 3117   5.105   0.256   3.106 -0.6983  0.0581  0.4061
   43CHL1    H6 3118   5.158   0.338   3.056 -2.2968  1.6066  1.1706
   43CHL1    C7 3119   5.087   0.273   3.256  0.9369  0.8619 -0.8184
   43CHL1   H7A 3120   5.172   0.320   3.309 -1.0225  0.5286  2.9016
   43CHL1   H7B 3121   5.007   0.348   3.272  1.5139  1.3364 -0.1302
   43CHL1    C8 3122   5.038   0.144   3.325 -0.0750 -0.5305 -0.0882
   43CHL1    H8 3123   5.128   0.083   3.349  1.0382  2.0043  2.8001
   43CHL1   C14 3124   4.974   0.175   3.466  0.1940 -0.2214  0.6495
   43CHL1   H14 3125   4.878   0.228   3.449 -0.3670 -0.6850  2.2277
   43CHL1   C15 3126   5.055   0.269   3.563 -0.1334 -0.1055  0.2317
   43CHL1  H15A 3127   5.159   0.232   3.549 -0.9151 -1.4289 -2.8367
   43CHL1  H15B 3128   5.046   0.374   3.529 -0.6361 -0.2940 -0.2224
   43CHL1   C16 3129   4.998   0.238   3.704  0.2017  0.1681 -0.6014
   43CHL1  H16A 3130   5.083   0.238   3.776  0.2637  1.0994 -0.6577
   43CHL1  H16B 3131   4.928   0.320   3.730 -0.2779  0.0690 -1.5362
   43CHL1   C17 3132   4.906   0.116   3.685 -0.0907  1.3061  0.3381
   43CHL1   H17 3133   4.811   0.173   3.679 -0.1473  1.2004  0.2286
   43CHL1   C13 3134   4.946   0.054   3.545 -0.4858  0.4235  0.2070
   43CHL1   C18 3135   5.071  -0.036   3.569  0.2744 -0.1616 -0.3250
   43CHL1  H18A 3136   5.106  -0.072   3.470  0.9128  1.4378 -0.7157
   43CHL1  H18B 3137   5.152   0.021   3.618  0.2474 -1.1362  0.8818
   43CHL1  H18C 3138   5.039  -0.121   3.633  0.4997  0.8993  1.2505
   43CHL1   C12 3139   4.838  -0.018   3.460 -0.1393  0.6745 -0.7613
   43CHL1  H12A 3140   4.814  -0.119   3.500  0.3349  0.2584 -1.5107
   43CHL1  H12B 3141   4.750   0.050   3.461 -1.8212 -1.3818 -1.6111
   43CHL1   C11 3142   4.892  -0.055   3.317  0.2070 -0.4059 -0.6589
   43CHL1  H11A 3143   4.967  -0.137   3.324  0.6136  0.0667  0.7152
   43CHL1  H11B 3144   4.804  -0.102   3.266 -0.4424  1.9152 -1.8090
   43CHL1    C9 3145   4.942   0.067   3.237 -0.2060 -0.6146 -0.1365
   43CHL1    H9 3146   4.851   0.130   3.226 -0.0653 -0.5820 -1.2823
   43CHL1   C10 3147   4.993   0.032   3.099  0.3542  0.2194  0.3696
   43CHL1   C19 3148   5.082  -0.097   3.096  0.0759  0.3215  0.3007
   43CHL1  H19A 3149   5.176  -0.081   3.155  0.4866 -0.9187  0.0040
   43CHL1  H19B 3150   5.033  -0.184   3.144  0.5479  0.3343  0.8186
   43CHL1  H19C 3151   5.111  -0.114   2.990 -2.4654 -0.5518 -0.3057
   43CHL1    C1 3152   4.874   0.004   3.013 -0.0783 -0.0223 -0.3898
   43CHL1   H1A 3153   4.826  -0.088   3.053 -1.0622  0.3404 -0.7099
   43CHL1   H1B 3154   4.807   0.093   3.013  1.3279  1.0720 -0.1392
   43CHL1    C2 3155   4.902  -0.022   2.862  0.1018  0.0317  0.8285
   43CHL1   H2A 3156   4.810  -0.039   2.804 -1.2724 -1.1516  3.1950
   43CHL1   H2B 3157   4.969  -0.108   2.841 -1.9547 -1.3338 -0.3985
   43CHL1   C20 3158   4.888   0.019   3.809  0.8148 -0.5829 -0.3011
   43CHL1   H20 3159   4.981  -0.042   3.814  1.2144  0.0498 -0.0170
   43CHL1   C21 3160   4.776  -0.083   3.774  0.2583 -0.2409  0.2076
   43CHL1  H21A 3161   4.694  -0.031   3.720  0.5556  0.0517  0.0287
   43CHL1  H21B 3162   4.735  -0.126   3.868 -0.0259  0.2332  0.3048
   43CHL1  H21C 3163   4.812  -0.159   3.701  2.0338 -0.2748  1.0667
   43CHL1   C22 3164   4.858   0.102   3.937  0.0431  0.1751  0.2191
   43CHL1  H22A 3165   4.944   0.165   3.969 -0.5497  1.4417 -0.6401
   43CHL1  H22B 3166   4.778   0.171   3.903 -1.4002 -1.1428  0.8088
   43CHL1   C23 3167   4.794   0.024   4.057 -0.5048  0.1109  0.7725
   43CHL1  H23A 3168   4.700  -0.026   4.024  0.4489 -0.7308 -0.7687
   43CHL1  H23B 3169   4.861  -0.057   4.092  0.5613  0.7788  0.3319
   43CHL1   C24 3170   4.773   0.120   4.172 -0.0921 -0.1728 -0.0814
   43CHL1  H24A 3171   4.875   0.156   4.199 -0.4980 -0.8194  2.5004
   43CHL1  H24B 3172   4.727   0.215   4.138  0.0877  0.6203  1.7906
   43CHL1   C25 3173   4.711   0.073   4.295 -0.1961 -0.1029 -0.2460
   43CHL1   H25 3174   4.605   0.052   4.268  0.2218 -1.1768 -1.1435
   43CHL1   C26 3175   4.757  -0.061   4.348 -1.2129  0.8430  0.7887
   43CHL1  H26A 3176   4.749  -0.133   4.264 -1.1454  1.2233  0.4500
   43CHL1  H26B 3177   4.862  -0.059   4.386  0.4748  0.6765 -3.3213
   43CHL1  H26C 3178   4.698  -0.107   4.429 -1.1892  0.7915  0.7771
   43CHL1   C27 3179   4.717   0.176   4.417 -0.1880 -0.1755  0.0395
   43CHL1  H27A 3180   4.660   0.152   4.509 -2.4897  1.1064 -0.9847
   43CHL1  H27B 3181   4.826   0.184   4.440  0.5990 -2.7379 -2.2616
   43CHL1  H27C 3182   4.677   0.274   4.382  3.1445  1.1651 -0.4557
   44CHL1    C3 3183   0.594   6.666   2.854 -0.0479  0.5224  0.2325
   44CHL1    H3 3184   0.534   6.589   2.906  1.8927 -0.7844  0.6508
   44CHL1    O3 3185   0.557   6.664   2.720 -0.4030 -0.2991 -0.1784
   44CHL1   H3' 3186   0.610   6.733   2.679  2.9879 -0.7461  2.9452
   44CHL1    C4 3187   0.564   6.807   2.910  0.5203  0.3060 -0.1539
   44CHL1   H4A 3188   0.606   6.887   2.845 -0.7408  0.7112 -0.4920
   44CHL1   H4B 3189   0.455   6.819   2.893  0.6636 -0.3751 -1.6473
   44CHL1    C5 3190   0.597   6.816   3.058  0.6335  0.3009 -0.3494
   44CHL1    C6 3191   0.499   6.825   3.154  0.7731 -0.2065  0.8611
   44CHL1    H6 3192   0.392   6.824   3.127  0.2966 -2.0971  2.5662
   44CHL1    C7 3193   0.532   6.825   3.296  0.0910 -0.2250  0.4639
   44CHL1   H7A 3194   0.476   6.912   3.337 -0.3816  0.8179 -2.1881
   44CHL1   H7B 3195   0.484   6.736   3.342  0.6010 -0.4169  0.6229
   44CHL1    C8 3196   0.680   6.840   3.335  0.6167  1.0793  0.2204
   44CHL1    H8 3197   0.696   6.949   3.322  1.1362  0.8799 -0.9366
   44CHL1   C14 3198   0.707   6.789   3.479  0.4463  0.0966  0.8770
   44CHL1   H14 3199   0.711   6.679   3.464  2.1927  0.0866  1.1419
   44CHL1   C15 3200   0.603   6.821   3.589  0.0958 -0.0253 -0.3483
   44CHL1  H15A 3201   0.557   6.922   3.581 -1.6181 -0.7659 -0.1233
   44CHL1  H15B 3202   0.519   6.749   3.595  0.3929 -0.4394 -1.0769
   44CHL1   C16 3203   0.682   6.815   3.720 -0.0975  0.1975  1.1466
   44CHL1  H16A 3204   0.685   6.915   3.769 -0.6304  1.7569 -1.7742
   44CHL1  H16B 3205   0.636   6.748   3.796  3.5919 -2.3617  1.4073
   44CHL1   C17 3206   0.830   6.774   3.675 -0.0116  0.3393  0.1503
   44CHL1   H17 3207   0.827   6.662   3.675  2.1427  0.2381 -0.2119
   44CHL1   C13 3208   0.850   6.819   3.526  0.4202 -0.6024  0.2314
   44CHL1   C18 3209   0.884   6.968   3.524  0.3716 -0.2651  0.4793
   44CHL1  H18A 3210   0.803   7.024   3.575 -2.1226 -1.4534 -1.9321
   44CHL1  H18B 3211   0.985   6.993   3.564  0.7912 -0.3499 -0.5146
   44CHL1  H18C 3212   0.886   7.007   3.420  1.7847  0.3510  0.7156
   44CHL1   C12 3213   0.949   6.732   3.432 -0.6228 -0.0074 -0.0759
   44CHL1  H12A 3214   1.053   6.763   3.457 -0.2517 -1.4058  0.2033
   44CHL1  H12B 3215   0.938   6.623   3.449 -2.1810  0.3128  1.1648
   44CHL1   C11 3216   0.923   6.768   3.284  1.0445  0.3654  0.8186
   44CHL1  H11A 3217   0.974   6.863   3.260  2.6980 -0.5120  0.7102
   44CHL1  H11B 3218   0.975   6.694   3.219 -1.0800  1.0779 -1.8626
   44CHL1    C9 3219   0.773   6.762   3.243  0.2634 -0.2099  0.0931
   44CHL1    H9 3220   0.737   6.658   3.259 -3.5545  1.2008  1.5683
   44CHL1   C10 3221   0.745   6.786   3.088  0.1581  0.5038  0.3827
   44CHL1   C19 3222   0.809   6.904   3.031  0.1488 -0.4656  0.2075
   44CHL1  H19A 3223   0.790   6.915   2.922 -0.7568 -2.6772  0.0755
   44CHL1  H19B 3224   0.788   6.999   3.085 -1.9162 -1.0339  0.4963
   44CHL1  H19C 3225   0.920   6.897   3.041  0.2739  1.0959  0.1482
   44CHL1    C1 3226   0.782   6.652   3.019 -0.9159 -0.4013 -0.3696
   44CHL1   H1A 3227   0.893   6.640   3.024 -1.1393 -4.1762 -1.7194
   44CHL1   H1B 3228   0.730   6.566   3.064  0.7898 -0.4591  1.6147
   44CHL1    C2 3229   0.744   6.633   2.875  0.6080 -0.2091 -0.2352
   44CHL1   H2A 3230   0.764   6.534   2.829 -1.8191  0.0217 -1.9750
   44CHL1   H2B 3231   0.793   6.700   2.802 -2.1366  0.9803 -1.1156
   44CHL1   C20 3232   0.942   6.814   3.778  0.6873  0.2232  0.2447
   44CHL1   H20 3233   0.962   6.923   3.766  0.2242  0.5680  2.2742
   44CHL1   C21 3234   1.065   6.724   3.754  0.1994 -0.2062 -0.0371
   44CHL1  H21A 3235   1.091   6.718   3.646  0.0142 -0.7611 -0.0563
   44CHL1  H21B 3236   1.045   6.621   3.791 -1.4251 -0.4006 -1.3324
   44CHL1  H21C 3237   1.153   6.774   3.799  1.1269 -1.1328 -0.7742
   44CHL1   C22 3238   0.894   6.795   3.924 -0.3657 -0.3568 -0.0069
   44CHL1  H22A 3239   0.813   6.868   3.947  0.1728  0.0717  0.5468
   44CHL1  H22B 3240   0.851   6.694   3.938 -1.8721  0.0774 -1.2680
   44CHL1   C23 3241   0.997   6.796   4.042  0.4075 -0.3615 -0.0783
   44CHL1  H23A 3242   1.075   6.719   4.021  1.1200  0.5330 -0.7715
   44CHL1  H23B 3243   1.045   6.896   4.037 -0.1571 -0.1582 -2.3102
   44CHL1   C24 3244   0.932   6.765   4.186 -0.0843  0.1216  0.1071
   44CHL1  H24A 3245   0.845   6.833   4.198  0.6275  1.0483  0.1177
   44CHL1  H24B 3246   0.897   6.660   4.176 -1.2381  0.3718  1.3362
   44CHL1   C25 3247   1.031   6.790   4.306  0.0869 -0.0898  0.3758
   44CHL1   H25 3248   1.073   6.892   4.291  1.6624 -0.4430  2.1486
   44CHL1   C26 3249   0.961   6.801   4.445  0.3990 -0.6759  0.4064
   44CHL1  H26A 3250   1.036   6.824   4.524 -1.1728 -0.0632  1.7730
   44CHL1  H26B 3251   0.895   6.890   4.449  0.3635 -0.5441 -1.6590
   44CHL1  H26C 3252   0.898   6.713   4.469  0.6503 -0.4390  2.0250
   44CHL1   C27 3253   1.150   6.694   4.310  0.0420 -0.1010 -0.3702
   44CHL1  H27A 3254   1.223   6.725   4.387  1.6418  2.2474 -2.6578
   44CHL1  H27B 3255   1.109   6.591   4.318 -0.9349  0.3985  2.0659
   44CHL1  H27C 3256   1.207   6.700   4.215  1.0792 -0.1963  0.2307
   45CHL1    C3 3257   2.380   2.065   2.762 -0.9698 -1.6223  0.2231
   45CHL1    H3 3258   2.289   2.129   2.754  0.0499  0.2304  2.2216
   45CHL1    O3 3259   2.434   2.047   2.636  0.1348 -0.1507 -0.2335
   45CHL1   H3' 3260   2.409   1.955   2.624 -2.7814  0.5235 -0.0651
   45CHL1    C4 3261   2.495   2.149   2.831  0.1582  0.6240  0.6599
   45CHL1   H4A 3262   2.592   2.100   2.809 -0.1580 -3.0290  5.6648
   45CHL1   H4B 3263   2.495   2.247   2.778  0.2232  0.3750  0.1872
   45CHL1    C5 3264   2.472   2.178   2.977  0.3982 -0.6283 -0.0911
   45CHL1    C6 3265   2.458   2.299   3.031 -0.5498  0.0852 -0.3021
   45CHL1    H6 3266   2.466   2.390   2.970 -0.4943 -0.7401 -1.5540
   45CHL1    C7 3267   2.429   2.323   3.173  0.2356  1.0558  0.1597
   45CHL1   H7A 3268   2.501   2.400   3.209  2.7949 -0.9086 -0.4227
   45CHL1   H7B 3269   2.325   2.359   3.190  0.1817  0.8860  0.1890
   45CHL1    C8 3270   2.444   2.200   3.264 -0.0180 -0.5995 -0.0031
   45CHL1    H8 3271   2.555   2.197   3.261  0.1481  2.5921 -0.0903
   45CHL1   C14 3272   2.376   2.221   3.396 -0.1364 -0.2767  0.1652
   45CHL1   H14 3273   2.266   2.218   3.381  0.0699 -1.7491 -1.4152
   45CHL1   C15 3274   2.405   2.355   3.465  0.0741 -0.4416 -0.1906
   45CHL1  H15A 3275   2.510   2.387   3.450  0.2846 -1.3928 -0.8323
   45CHL1  H15B 3276   2.346   2.436   3.416  1.3226 -0.5970 -2.0436
   45CHL1   C16 3277   2.375   2.331   3.616 -0.6747 -0.1926 -0.1744
   45CHL1  H16A 3278   2.468   2.353   3.673  1.1584 -1.3854 -2.5214
   45CHL1  H16B 3279   2.284   2.393   3.626 -0.2653  0.7973 -2.1428
   45CHL1   C17 3280   2.335   2.182   3.624  0.0429 -0.2428  0.0076
   45CHL1   H17 3281   2.227   2.193   3.604  0.0877 -0.1960 -0.2156
   45CHL1   C13 3282   2.400   2.109   3.500  0.6018 -1.1159  0.4656
   45CHL1   C18 3283   2.546   2.089   3.531  0.3068 -0.1101  0.2284
   45CHL1  H18A 3284   2.590   2.071   3.431  2.2564  0.8082  0.8687
   45CHL1  H18B 3285   2.600   2.181   3.563  4.3094 -1.6810 -1.3291
   45CHL1  H18C 3286   2.577   2.001   3.593 -1.9240 -1.3617 -0.3331
   45CHL1   C12 3287   2.321   1.990   3.437 -0.2926 -0.4449 -0.2407
   45CHL1  H12A 3288   2.331   1.908   3.512  2.8889 -0.5654 -0.6714
   45CHL1  H12B 3289   2.214   2.015   3.417  0.2271  2.2845  0.0113
   45CHL1   C11 3290   2.388   1.954   3.299 -0.5694  0.9097  0.1186
   45CHL1  H11A 3291   2.491   1.921   3.326 -0.6865  1.9744  2.0934
   45CHL1  H11B 3292   2.331   1.871   3.252  0.3459  0.3590 -0.0346
   45CHL1    C9 3293   2.390   2.073   3.205  0.5566 -0.4714 -0.5420
   45CHL1    H9 3294   2.284   2.102   3.187  0.4529 -0.2950  0.3016
   45CHL1   C10 3295   2.447   2.046   3.065 -0.0042 -0.2590 -0.6803
   45CHL1   C19 3296   2.582   1.976   3.070 -0.1636  0.4617 -0.3795
   45CHL1  H19A 3297   2.653   2.036   3.131 -0.0431  0.3075 -0.3695
   45CHL1  H19B 3298   2.560   1.878   3.118 -2.1067 -0.2465 -2.5524
   45CHL1  H19C 3299   2.633   1.962   2.972 -0.8157 -2.9173 -0.3627
   45CHL1    C1 3300   2.341   1.961   2.993  0.4039  0.6171  0.3513
   45CHL1   H1A 3301   2.341   1.858   3.034  1.0640 -0.8989 -3.0548
   45CHL1   H1B 3302   2.239   2.002   3.009 -0.9675 -2.0261 -0.9201
   45CHL1    C2 3303   2.364   1.935   2.840  0.5890  0.5708 -0.1312
   45CHL1   H2A 3304   2.284   1.869   2.800  0.0876  0.6805  0.6811
   45CHL1   H2B 3305   2.458   1.875   2.840  1.9066  2.5125  0.0377
   45CHL1   C20 3306   2.345   2.114   3.757  0.1770 -0.4008 -0.5635
   45CHL1   H20 3307   2.448   2.074   3.764 -0.0073 -0.6087  1.8327
   45CHL1   C21 3308   2.238   2.002   3.770  0.3980  0.1042  0.2390
   45CHL1  H21A 3309   2.139   2.029   3.729  0.8412 -0.0495 -0.9838
   45CHL1  H21B 3310   2.239   1.967   3.875 -1.1282 -2.1163 -0.4100
   45CHL1  H21C 3311   2.274   1.920   3.704  1.3843 -1.1472  2.2173
   45CHL1   C22 3312   2.325   2.207   3.881 -0.2035 -0.1123  0.3746
   45CHL1  H22A 3313   2.400   2.288   3.876 -1.5327  1.1104 -0.6147
   45CHL1  H22B 3314   2.226   2.258   3.874 -0.1433 -0.1592 -0.8643
   45CHL1   C23 3315   2.340   2.139   4.019  0.1961 -0.0293 -0.1122
   45CHL1  H23A 3316   2.252   2.072   4.030 -0.6448  1.3091  1.8884
   45CHL1  H23B 3317   2.435   2.082   4.024 -0.3034 -0.7939  1.2859
   45CHL1   C24 3318   2.330   2.242   4.139 -0.0513 -0.7181 -0.9634
   45CHL1  H24A 3319   2.365   2.186   4.228  0.2474  1.7710  0.5960
   45CHL1  H24B 3320   2.401   2.326   4.121 -1.3755  1.2354  2.0332
   45CHL1   C25 3321   2.193   2.296   4.178 -0.1221  0.1653  0.0963
   45CHL1   H25 3322   2.147   2.325   4.081 -1.2672 -0.0114  0.5750
   45CHL1   C26 3323   2.100   2.195   4.242  0.5744  0.7327  0.1571
   45CHL1  H26A 3324   2.119   2.098   4.191  0.7505  0.7059  0.2700
   45CHL1  H26B 3325   2.120   2.190   4.352  1.4648  0.9557  0.0145
   45CHL1  H26C 3326   1.993   2.216   4.223  0.6567  0.8278 -0.1970
   45CHL1   C27 3327   2.198   2.415   4.268 -0.4826 -0.3384 -0.2027
   45CHL1  H27A 3328   2.246   2.505   4.224  1.9222 -1.4669 -0.0264
   45CHL1  H27B 3329   2.089   2.429   4.286 -0.8510  0.4079 -2.6305
   45CHL1  H27C 3330   2.257   2.388   4.358 -0.4378  0.6638  0.0836
   46CHL1    C3 3331   0.614   2.052   2.677  0.3808 -0.7651 -1.1192
   46CHL1    H3 3332   0.628   1.942   2.690  0.3513 -0.6677 -0.1672
   46CHL1    O3 3333   0.632   2.090   2.542 -0.2231  0.1899 -0.8375
   46CHL1   H3' 3334   0.601   2.180   2.534  0.9234  0.8176  1.1065
   46CHL1    C4 3335   0.475   2.086   2.729  1.0651 -0.1637  0.5714
   46CHL1   H4A 3336   0.451   2.192   2.704  2.8691  0.2653  0.5348
   46CHL1   H4B 3337   0.406   2.037   2.657  1.2594  2.7118 -1.7401
   46CHL1    C5 3338   0.458   2.041   2.871 -0.1094  0.4687  0.2242
   46CHL1    C6 3339   0.357   1.954   2.899  0.7017 -0.1143 -0.5901
   46CHL1    H6 3340   0.284   1.916   2.827 -0.4721 -0.4773  0.7339
   46CHL1    C7 3341   0.327   1.914   3.040  0.6490  0.5678 -0.6519
   46CHL1   H7A 3342   0.216   1.902   3.040  0.7339 -0.2422 -0.5318
   46CHL1   H7B 3343   0.372   1.813   3.046 -0.6992 -0.0073  0.4672
   46CHL1    C8 3344   0.387   2.022   3.133 -0.0305 -0.9680 -0.2393
   46CHL1    H8 3345   0.336   2.119   3.114 -1.5623 -1.1460  2.4851
   46CHL1   C14 3346   0.367   1.979   3.278 -0.0521  0.8582  0.1020
   46CHL1   H14 3347   0.405   1.875   3.287 -0.2479  0.8146  0.4334
   46CHL1   C15 3348   0.220   1.964   3.320 -0.7062 -0.0648  0.2496
   46CHL1  H15A 3349   0.162   2.058   3.307 -0.3660  0.3118  1.4255
   46CHL1  H15B 3350   0.166   1.877   3.275  1.9764 -1.5598 -0.2767
   46CHL1   C16 3351   0.234   1.947   3.475 -0.0904  0.3271  0.3699
   46CHL1  H16A 3352   0.166   2.017   3.529  0.7419  1.4891 -0.0623
   46CHL1  H16B 3353   0.220   1.838   3.492  0.3905 -0.1889 -2.2247
   46CHL1   C17 3354   0.376   1.996   3.519  0.1512  0.5007 -0.0716
   46CHL1   H17 3355   0.447   1.917   3.550  0.4081  0.8571  0.2649
   46CHL1   C13 3356   0.441   2.056   3.392  0.0714 -0.3724 -0.3347
   46CHL1   C18 3357   0.397   2.205   3.377 -0.0908  0.0788  0.0854
   46CHL1  H18A 3358   0.289   2.216   3.399  0.4168  2.4712  1.7161
   46CHL1  H18B 3359   0.442   2.279   3.447 -0.8204  0.0008  0.6465
   46CHL1  H18C 3360   0.390   2.243   3.272 -2.6033 -0.1919  0.1058
   46CHL1   C12 3361   0.587   2.034   3.358 -0.0003  0.5147  0.1392
   46CHL1  H12A 3362   0.641   2.076   3.445  0.1746 -0.8402  0.7011
   46CHL1  H12B 3363   0.600   1.924   3.356 -1.6691  0.2591  1.2360
   46CHL1   C11 3364   0.623   2.088   3.218 -0.1194 -0.0571 -0.4782
   46CHL1  H11A 3365   0.629   2.199   3.221 -2.5421  0.1463 -0.9347
   46CHL1  H11B 3366   0.723   2.049   3.191 -0.6661  0.2667 -3.3046
   46CHL1    C9 3367   0.541   2.029   3.103  0.6825  0.5846  0.3273
   46CHL1    H9 3368   0.578   1.925   3.093  0.7676  0.8091 -2.8162
   46CHL1   C10 3369   0.561   2.105   2.968  0.0860 -0.0153  0.1868
   46CHL1   C19 3370   0.528   2.258   2.986  0.1097 -0.1548  0.3783
   46CHL1  H19A 3371   0.443   2.279   3.056 -0.9056  1.2587 -1.1905
   46CHL1  H19B 3372   0.610   2.317   3.033 -0.7271  0.4898  1.0735
   46CHL1  H19C 3373   0.512   2.310   2.889  0.2788  0.2055  0.5407
   46CHL1    C1 3374   0.710   2.096   2.916  0.4642 -0.1425 -0.2618
   46CHL1   H1A 3375   0.776   2.168   2.969  2.0348 -0.9955 -0.9897
   46CHL1   H1B 3376   0.748   1.995   2.943  0.9995  0.3127  0.7054
   46CHL1    C2 3377   0.722   2.130   2.767 -0.6111  0.3412  0.0257
   46CHL1   H2A 3378   0.823   2.118   2.723  0.2110  1.2824  1.5792
   46CHL1   H2B 3379   0.707   2.239   2.754  0.7354  0.4788 -0.4691
   46CHL1   C20 3380   0.373   2.091   3.651  0.4375 -0.7990  1.2678
   46CHL1   H20 3381   0.313   2.181   3.627 -0.8542 -1.2121  2.7560
   46CHL1   C21 3382   0.516   2.133   3.681  0.2158  0.2567  0.2807
   46CHL1  H21A 3383   0.520   2.199   3.770  1.4742 -1.4925  1.5992
   46CHL1  H21B 3384   0.559   2.201   3.605  1.8205 -0.9117  0.0770
   46CHL1  H21C 3385   0.581   2.043   3.691 -1.7719 -1.4663 -1.3503
   46CHL1   C22 3386   0.301   2.018   3.764 -0.4525  0.5203 -0.3013
   46CHL1  H22A 3387   0.197   1.992   3.734 -0.6797  2.5002 -1.4020
   46CHL1  H22B 3388   0.361   1.926   3.781 -0.8686  0.2860 -0.0670
   46CHL1   C23 3389   0.297   2.098   3.893  0.3831 -0.0480  0.1120
   46CHL1  H23A 3390   0.402   2.110   3.927  0.5462  1.3347 -0.8060
   46CHL1  H23B 3391   0.261   2.202   3.877 -0.0371  0.8113  5.0507
   46CHL1   C24 3392   0.212   2.023   4.000  0.1667 -0.3617  0.3678
   46CHL1  H24A 3393   0.110   2.010   3.958 -0.1227  2.6534 -0.1267
   46CHL1  H24B 3394   0.256   1.922   4.011  2.4282  0.6781  1.5256
   46CHL1   C25 3395   0.193   2.093   4.143 -0.3747 -0.2806  0.3481
   46CHL1   H25 3396   0.136   2.018   4.202 -0.1128 -2.1909 -1.6999
   46CHL1   C26 3397   0.334   2.107   4.203 -0.2653  0.3652  0.3602
   46CHL1  H26A 3398   0.322   2.139   4.309 -0.5472 -3.2538  1.5635
   46CHL1  H26B 3399   0.388   2.010   4.199 -1.4461 -0.4075  1.9006
   46CHL1  H26C 3400   0.396   2.172   4.138  1.0601 -0.4124  0.8036
   46CHL1   C27 3401   0.128   2.230   4.127 -0.2705  0.1098 -0.0166
   46CHL1  H27A 3402   0.027   2.222   4.082  0.0393  1.1714 -0.9719
   46CHL1  H27B 3403   0.128   2.275   4.229  0.1149 -0.5711  0.2867
   46CHL1  H27C 3404   0.190   2.298   4.064 -0.2109  0.1660  0.1019
   47CHL1    C3 3405   3.618   2.905   2.992  0.9875  0.0689 -0.6210
   47CHL1    H3 3406   3.619   2.816   3.058 -2.3178  1.3458  1.3444
   47CHL1    O3 3407   3.587   2.879   2.855 -0.0705  0.0194  0.3060
   47CHL1   H3' 3408   3.639   2.936   2.798  0.7826 -0.7214  0.3153
   47CHL1    C4 3409   3.517   3.011   3.046 -0.2776  0.3155  0.1237
   47CHL1   H4A 3410   3.530   3.100   2.981  1.0971  0.2953  0.3313
   47CHL1   H4B 3411   3.417   2.966   3.028  0.5255 -0.3271 -3.4309
   47CHL1    C5 3412   3.550   3.043   3.192  0.2999 -0.2617 -0.2946
   47CHL1    C6 3413   3.468   3.008   3.289 -0.2040  0.9960 -0.1664
   47CHL1    H6 3414   3.373   2.959   3.263  0.8945 -2.4621  1.7142
   47CHL1    C7 3415   3.496   3.058   3.430  0.0055  0.4775  0.2989
   47CHL1   H7A 3416   3.412   3.107   3.482  0.8757  2.0100  0.3180
   47CHL1   H7B 3417   3.525   2.969   3.490 -1.4069  0.7524  1.4302
   47CHL1    C8 3418   3.611   3.164   3.439  0.1680 -0.6198 -0.0948
   47CHL1    H8 3419   3.572   3.259   3.396  1.8082  0.7421  1.2469
   47CHL1   C14 3420   3.649   3.195   3.588  0.3954 -0.1564  0.0124
   47CHL1   H14 3421   3.665   3.091   3.625  3.5276  0.2487  0.1122
   47CHL1   C15 3422   3.546   3.255   3.686 -1.0570  0.2153 -0.4311
   47CHL1  H15A 3423   3.496   3.340   3.634 -0.1302 -0.2647 -2.1967
   47CHL1  H15B 3424   3.470   3.179   3.714 -1.6191  1.3441  1.2454
   47CHL1   C16 3425   3.625   3.320   3.799  0.8999  0.1168 -0.3466
   47CHL1  H16A 3426   3.607   3.430   3.807  0.4937 -0.0270  0.8277
   47CHL1  H16B 3427   3.601   3.278   3.899 -0.9312  0.9036 -0.4075
   47CHL1   C17 3428   3.772   3.298   3.768 -0.4852 -0.5462  0.6011
   47CHL1   H17 3429   3.802   3.199   3.808 -2.6767 -0.4532  2.7256
   47CHL1   C13 3430   3.775   3.279   3.611 -0.6419 -0.1486 -0.7806
   47CHL1   C18 3431   3.771   3.417   3.544  0.1598 -0.6462 -0.2262
   47CHL1  H18A 3432   3.697   3.478   3.599 -0.0426 -0.9612 -0.1437
   47CHL1  H18B 3433   3.875   3.452   3.531  0.6314 -2.0963 -0.6353
   47CHL1  H18C 3434   3.730   3.404   3.442 -0.0691 -1.9395  0.0117
   47CHL1   C12 3435   3.889   3.185   3.549 -0.3799 -0.3860 -0.9635
   47CHL1  H12A 3436   3.993   3.217   3.572 -0.7546 -0.4349  0.9953
   47CHL1  H12B 3437   3.882   3.086   3.597 -0.0217  0.9303  2.0162
   47CHL1   C11 3438   3.865   3.177   3.401  0.7677  0.0124 -0.3878
   47CHL1  H11A 3439   3.897   3.269   3.348 -0.5342 -0.4378 -2.0119
   47CHL1  H11B 3440   3.936   3.104   3.356  0.9983 -0.7199  1.1034
   47CHL1    C9 3441   3.724   3.116   3.359 -0.2263 -0.0324 -0.1424
   47CHL1    H9 3442   3.724   3.010   3.395 -2.6819  0.4992  1.6637
   47CHL1   C10 3443   3.689   3.109   3.211 -0.1112  0.3210 -0.3419
   47CHL1   C19 3444   3.699   3.255   3.156 -0.7796 -0.1393  0.0922
   47CHL1  H19A 3445   3.669   3.253   3.049  2.0527 -0.9880 -0.7758
   47CHL1  H19B 3446   3.632   3.316   3.220 -1.8120 -0.2613 -0.8451
   47CHL1  H19C 3447   3.804   3.292   3.150 -0.1758 -1.4449  1.7869
   47CHL1    C1 3448   3.791   3.023   3.128 -0.4539 -0.0445  0.0925
   47CHL1   H1A 3449   3.885   3.081   3.115 -0.3373 -0.6442 -2.1683
   47CHL1   H1B 3450   3.800   2.934   3.193 -0.2362 -0.0447  0.0618
   47CHL1    C2 3451   3.753   2.978   2.992  0.9827  0.7247 -0.2260
   47CHL1   H2A 3452   3.836   2.912   2.958 -0.0709 -0.5163 -0.4722
   47CHL1   H2B 3453   3.753   3.059   2.915 -1.6350  0.0685 -1.0325
   47CHL1   C20 3454   3.871   3.403   3.836  0.5695 -0.0116 -0.2211
   47CHL1   H20 3455   3.854   3.502   3.791 -0.2200 -0.5206 -1.0853
   47CHL1   C21 3456   4.016   3.366   3.798 -0.1626  0.5040  0.1169
   47CHL1  H21A 3457   4.029   3.400   3.693 -0.4462  1.0116  0.2424
   47CHL1  H21B 3458   4.040   3.257   3.800 -0.2794  0.4229 -1.3747
   47CHL1  H21C 3459   4.089   3.420   3.862  1.5305  0.5772 -1.7446
   47CHL1   C22 3460   3.848   3.423   3.981 -0.2678  0.2419 -0.9785
   47CHL1  H22A 3461   3.911   3.503   4.025  2.1286 -0.9947 -1.9710
   47CHL1  H22B 3462   3.740   3.443   3.998 -0.6086 -1.5184 -0.9180
   47CHL1   C23 3463   3.874   3.294   4.063  0.0734 -0.0683 -0.3019
   47CHL1  H23A 3464   3.804   3.211   4.037  0.7440 -0.7037 -0.0899
   47CHL1  H23B 3465   3.978   3.269   4.033 -0.1358 -0.0526 -1.0880
   47CHL1   C24 3466   3.866   3.328   4.216  0.2963  0.0238  0.1921
   47CHL1  H24A 3467   3.950   3.398   4.238  0.4314  0.5017 -1.6691
   47CHL1  H24B 3468   3.777   3.384   4.252  0.5312 -1.0811  2.7528
   47CHL1   C25 3469   3.872   3.201   4.308  0.4539  0.2010  0.2040
   47CHL1   H25 3470   3.777   3.143   4.310  0.0443  0.8724  1.4138
   47CHL1   C26 3471   3.986   3.104   4.269  0.4514 -0.0351 -0.1614
   47CHL1  H26A 3472   4.083   3.157   4.276  1.0104 -1.2294  2.0662
   47CHL1  H26B 3473   3.990   3.021   4.342  1.2435 -0.4437 -0.6517
   47CHL1  H26C 3474   3.967   3.054   4.171 -2.4567 -1.4905  1.0359
   47CHL1   C27 3475   3.873   3.229   4.458 -0.9222  0.1938  0.1919
   47CHL1  H27A 3476   3.881   3.141   4.526  0.6074 -0.0987 -0.3299
   47CHL1  H27B 3477   3.959   3.295   4.483 -1.1527  0.7969 -0.6001
   47CHL1  H27C 3478   3.783   3.285   4.488 -0.4669  1.2199 -0.3286
   48CHL1    C3 3479   1.120   0.627   2.534  0.4756  0.3782  0.4012
   48CHL1    H3 3480   1.161   0.729   2.549  0.8111  0.3156 -0.0702
   48CHL1    O3 3481   1.137   0.601   2.399 -0.9971  0.6077  0.0497
   48CHL1   H3' 3482   1.128   0.505   2.398 -1.6808  0.6284 -2.2357
   48CHL1    C4 3483   1.194   0.524   2.623 -0.2990 -0.9255  0.6447
   48CHL1   H4A 3484   1.164   0.421   2.594  2.0190 -2.0431  1.9029
   48CHL1   H4B 3485   1.299   0.531   2.588 -0.1644 -1.0833  1.0175
   48CHL1    C5 3486   1.169   0.541   2.773 -0.6442 -0.3934  0.0641
   48CHL1    C6 3487   1.276   0.551   2.856 -0.5995  0.0728 -0.9488
   48CHL1    H6 3488   1.379   0.536   2.820 -0.0600 -1.4047  1.0348
   48CHL1    C7 3489   1.265   0.571   3.006 -0.1356  0.1951 -0.5942
   48CHL1   H7A 3490   1.344   0.516   3.061 -1.5404  0.3632  1.6917
   48CHL1   H7B 3491   1.278   0.678   3.033 -1.2250  0.3424 -0.6063
   48CHL1    C8 3492   1.119   0.566   3.068 -0.2785  0.0321  0.1143
   48CHL1    H8 3493   1.100   0.457   3.077 -2.8079  0.3522 -0.6655
   48CHL1   C14 3494   1.111   0.638   3.199  0.2005 -0.4216  0.4573
   48CHL1   H14 3495   1.138   0.745   3.189  2.1855 -0.9429 -0.4629
   48CHL1   C15 3496   1.204   0.585   3.311 -0.7956  0.0952 -0.5342
   48CHL1  H15A 3497   1.196   0.475   3.304  0.5808 -0.0498 -0.0041
   48CHL1  H15B 3498   1.306   0.627   3.299 -1.3072  1.7108  0.3855
   48CHL1   C16 3499   1.134   0.631   3.437  0.1710  0.2696  0.0917
   48CHL1  H16A 3500   1.122   0.544   3.506 -1.3433  0.2012 -0.2390
   48CHL1  H16B 3501   1.198   0.708   3.486  1.9057 -0.5857 -0.7340
   48CHL1   C17 3502   0.990   0.696   3.397  0.3708 -0.2527  0.0749
   48CHL1   H17 3503   1.010   0.802   3.371 -0.7835 -0.3929 -1.5263
   48CHL1   C13 3504   0.966   0.634   3.260 -0.1149  0.2951  0.1146
   48CHL1   C18 3505   0.922   0.486   3.288 -0.3382 -0.2604  0.1955
   48CHL1  H18A 3506   1.002   0.431   3.342 -0.7324 -1.2711 -0.2232
   48CHL1  H18B 3507   0.830   0.471   3.349 -1.1566  2.7298 -0.1361
   48CHL1  H18C 3508   0.924   0.429   3.192  1.2547  0.2581 -0.1073
   48CHL1   C12 3509   0.869   0.704   3.165 -0.1961 -0.2140  0.5374
   48CHL1  H12A 3510   0.767   0.691   3.207 -0.3929  1.9928  0.8275
   48CHL1  H12B 3511   0.904   0.807   3.146 -0.5144 -0.1220  0.4392
   48CHL1   C11 3512   0.882   0.643   3.021  0.1843  0.1571  0.0112
   48CHL1  H11A 3513   0.842   0.539   3.028 -0.3601  0.3949  0.5545
   48CHL1  H11B 3514   0.821   0.706   2.954 -0.8736 -0.9644 -0.1181
   48CHL1    C9 3515   1.023   0.641   2.961 -0.3069  1.1817 -0.2517
   48CHL1    H9 3516   1.059   0.746   2.961 -0.0810  1.1100 -1.1888
   48CHL1   C10 3517   1.026   0.574   2.817  0.3897 -0.1476 -0.4492
   48CHL1   C19 3518   0.954   0.433   2.822 -0.4416 -0.2200  0.0424
   48CHL1  H19A 3519   0.996   0.367   2.901 -0.1813 -1.4030 -1.0550
   48CHL1  H19B 3520   0.845   0.444   2.842 -0.0306  2.2223  1.3192
   48CHL1  H19C 3521   0.970   0.367   2.735 -1.3329 -0.8764  0.3581
   48CHL1    C1 3522   0.950   0.659   2.718  0.3740  0.6733  0.7933
   48CHL1   H1A 3523   0.843   0.641   2.741 -0.1784  0.6643 -1.4882
   48CHL1   H1B 3524   0.973   0.767   2.727 -0.4481  0.8404  0.9179
   48CHL1    C2 3525   0.972   0.620   2.568  0.3781 -0.1660  0.2941
   48CHL1   H2A 3526   0.910   0.692   2.510  0.6991 -0.3864 -0.3330
   48CHL1   H2B 3527   0.933   0.518   2.549  0.0906 -0.2222  1.1566
   48CHL1   C20 3528   0.893   0.700   3.516  0.2905  0.1583  1.0294
   48CHL1   H20 3529   0.893   0.594   3.549 -0.3399 -1.1597 -2.6798
   48CHL1   C21 3530   0.751   0.741   3.468  0.8326 -0.0845 -0.3392
   48CHL1  H21A 3531   0.775   0.835   3.415 -2.4997  1.5620  0.8110
   48CHL1  H21B 3532   0.688   0.759   3.557  0.8814  0.8269 -0.4808
   48CHL1  H21C 3533   0.722   0.654   3.404  1.4322 -0.7729  0.3004
   48CHL1   C22 3534   0.941   0.792   3.628 -0.1055  0.0383  1.0572
   48CHL1  H22A 3535   1.026   0.736   3.671 -0.9044 -2.3621 -0.3477
   48CHL1  H22B 3536   0.982   0.887   3.589 -1.9711  0.1486 -0.8145
   48CHL1   C23 3537   0.846   0.835   3.741  0.3142  0.3870  0.0624
   48CHL1  H23A 3538   0.782   0.919   3.707  1.7435  1.2774 -0.5339
   48CHL1  H23B 3539   0.780   0.752   3.775  0.9687 -0.5715 -0.9427
   48CHL1   C24 3540   0.921   0.881   3.868 -0.1676  0.5404  0.7387
   48CHL1  H24A 3541   0.984   0.797   3.906  2.1224  1.8344  0.0231
   48CHL1  H24B 3542   1.004   0.952   3.843  0.2331  0.9871  3.0913
   48CHL1   C25 3543   0.836   0.918   3.993  0.7170  0.5937  0.6709
   48CHL1   H25 3544   0.763   0.996   3.963  2.4380  1.9671 -0.1637
   48CHL1   C26 3545   0.759   0.801   4.056 -0.2264  0.6651  0.0832
   48CHL1  H26A 3546   0.704   0.831   4.148 -2.4639 -1.8863 -0.2961
   48CHL1  H26B 3547   0.675   0.776   3.987  0.9921 -0.9896 -0.8635
   48CHL1  H26C 3548   0.822   0.711   4.074 -1.1792 -0.2770 -1.1239
   48CHL1   C27 3549   0.931   0.983   4.094  0.3632  0.6700 -0.0067
   48CHL1  H27A 3550   0.871   0.995   4.186  2.0386 -3.3149  1.8385
   48CHL1  H27B 3551   1.024   0.926   4.119  0.5691  1.4844  1.1511
   48CHL1  H27C 3552   0.962   1.083   4.057 -1.1124  1.1602  0.0398
   49CHL1    C3 3553   2.575   2.885   3.033  0.9745  0.2280 -1.0757
   49CHL1    H3 3554   2.568   2.995   3.031 -0.6205  0.1538 -1.0890
   49CHL1    O3 3555   2.577   2.843   2.900  0.2914  0.7756 -0.2477
   49CHL1   H3' 3556   2.637   2.769   2.902 -0.5646  0.0589 -0.7147
   49CHL1    C4 3557   2.703   2.855   3.117  0.3087 -0.4958  0.7430
   49CHL1   H4A 3558   2.728   2.747   3.116 -0.5541 -0.7182 -1.2617
   49CHL1   H4B 3559   2.792   2.902   3.069  1.1313 -1.6577  1.0829
   49CHL1    C5 3560   2.685   2.893   3.268  0.8417 -1.0291 -0.3676
   49CHL1    C6 3561   2.769   2.970   3.345  0.0197 -0.0768  0.4122
   49CHL1    H6 3562   2.862   3.010   3.303 -0.3046 -0.4376 -0.6870
   49CHL1    C7 3563   2.752   2.992   3.490 -0.5760 -0.0143 -0.4762
   49CHL1   H7A 3564   2.853   2.987   3.536 -0.9645 -1.7258  0.2572
   49CHL1   H7B 3565   2.718   3.096   3.509  1.3663  0.6071 -0.1823
   49CHL1    C8 3566   2.660   2.894   3.557 -0.5697 -0.1830 -1.1834
   49CHL1    H8 3567   2.699   2.790   3.552  1.2427  0.4876 -2.2882
   49CHL1   C14 3568   2.641   2.935   3.699  0.1672 -0.0881  0.5470
   49CHL1   H14 3569   2.606   3.041   3.699  0.6336  0.0855 -1.1541
   49CHL1   C15 3570   2.764   2.937   3.785 -0.0824 -0.6045 -0.1708
   49CHL1  H15A 3571   2.831   2.849   3.773  0.9136  0.2178 -0.8598
   49CHL1  H15B 3572   2.817   3.028   3.749 -0.9656  0.1963  0.4870
   49CHL1   C16 3573   2.704   2.929   3.929  0.5137  0.0144 -0.1087
   49CHL1  H16A 3574   2.750   2.847   3.989 -3.0632 -0.9818  1.5903
   49CHL1  H16B 3575   2.723   3.031   3.967  0.9101  0.0077 -0.2845
   49CHL1   C17 3576   2.550   2.905   3.915  0.0691 -0.1620  0.1092
   49CHL1   H17 3577   2.502   3.005   3.901  0.1027 -0.4104 -2.0510
   49CHL1   C13 3578   2.539   2.846   3.780  0.6634  0.2549  0.5324
   49CHL1   C18 3579   2.586   2.694   3.787  0.3052  0.0587 -0.2804
   49CHL1  H18A 3580   2.593   2.664   3.680 -0.3542  0.2617 -0.3860
   49CHL1  H18B 3581   2.690   2.675   3.820  1.0458  2.5523 -0.9441
   49CHL1  H18C 3582   2.522   2.620   3.839 -0.1169  1.2832  0.9963
   49CHL1   C12 3583   2.405   2.862   3.704  0.6503  0.3089 -0.3189
   49CHL1  H12A 3584   2.334   2.788   3.747 -0.8137  1.4975 -0.6096
   49CHL1  H12B 3585   2.355   2.960   3.717 -2.9177 -1.1240 -1.8357
   49CHL1   C11 3586   2.412   2.825   3.550  0.5528 -0.0590 -0.5442
   49CHL1  H11A 3587   2.422   2.714   3.545 -1.3114 -0.3936  1.3627
   49CHL1  H11B 3588   2.322   2.869   3.502  0.5297 -0.9032 -1.3092
   49CHL1    C9 3589   2.533   2.895   3.473  0.8862  0.1442  0.2072
   49CHL1    H9 3590   2.502   3.002   3.472 -2.1595 -0.5969  1.6922
   49CHL1   C10 3591   2.548   2.843   3.331 -0.4324 -0.6663  0.1564
   49CHL1   C19 3592   2.561   2.684   3.337 -0.0482 -0.7052  0.1930
   49CHL1  H19A 3593   2.627   2.649   3.419 -0.3418 -0.7835  0.3996
   49CHL1  H19B 3594   2.457   2.646   3.350 -0.4771  0.0319 -0.9147
   49CHL1  H19C 3595   2.595   2.636   3.243 -1.1524  0.0655 -0.6317
   49CHL1    C1 3596   2.425   2.880   3.249 -0.5708  0.4359  0.3521
   49CHL1   H1A 3597   2.335   2.827   3.285 -0.4311 -0.2447 -0.2602
   49CHL1   H1B 3598   2.405   2.987   3.270  0.4529  0.8372 -0.5955
   49CHL1    C2 3599   2.442   2.836   3.099 -0.0699  0.2779 -0.1904
   49CHL1   H2A 3600   2.356   2.884   3.047 -1.2748 -1.2475  0.3283
   49CHL1   H2B 3601   2.438   2.726   3.092 -1.1152  0.3180 -0.3595
   49CHL1   C20 3602   2.501   2.824   4.034  0.0657  0.1553  0.0062
   49CHL1   H20 3603   2.561   2.733   4.052 -2.0233 -1.2070  0.5535
   49CHL1   C21 3604   2.353   2.787   4.025 -0.0746  0.3486  0.7376
   49CHL1  H21A 3605   2.333   2.728   4.117 -0.2366  0.8377  1.0222
   49CHL1  H21B 3606   2.337   2.719   3.939 -1.7573  1.4925  0.1103
   49CHL1  H21C 3607   2.283   2.873   4.016  2.2985  2.3171 -0.0722
   49CHL1   C22 3608   2.517   2.903   4.167 -0.1970  0.1795  0.0764
   49CHL1  H22A 3609   2.468   2.852   4.253 -1.5012 -1.6722 -1.6775
   49CHL1  H22B 3610   2.625   2.902   4.197  0.0992  0.6275 -0.9477
   49CHL1   C23 3611   2.463   3.047   4.166  0.0642 -0.6729 -0.0248
   49CHL1  H23A 3612   2.534   3.110   4.110  0.8372  0.0834  1.7189
   49CHL1  H23B 3613   2.369   3.055   4.108 -0.6632 -0.5926  1.1235
   49CHL1   C24 3614   2.449   3.099   4.307 -0.0278  0.3821 -0.1833
   49CHL1  H24A 3615   2.389   3.020   4.357 -0.8542 -0.6960 -2.7518
   49CHL1  H24B 3616   2.551   3.115   4.346  0.3286  0.1740 -1.0211
   49CHL1   C25 3617   2.380   3.237   4.325  0.1729 -0.7043 -0.3493
   49CHL1   H25 3618   2.442   3.316   4.277  0.2944  0.7727  2.0719
   49CHL1   C26 3619   2.237   3.238   4.270  0.0775 -0.4818  0.1438
   49CHL1  H26A 3620   2.200   3.342   4.285  0.9794  0.0169 -0.9626
   49CHL1  H26B 3621   2.231   3.192   4.169  1.1470  0.9926 -0.6178
   49CHL1  H26C 3622   2.171   3.186   4.343 -1.2553  1.6788  0.5589
   49CHL1   C27 3623   2.370   3.261   4.473  0.1482 -0.4977  0.0291
   49CHL1  H27A 3624   2.470   3.277   4.518 -0.5429 -1.6523  2.1247
   49CHL1  H27B 3625   2.299   3.339   4.508 -2.6224 -1.6143 -2.6474
   49CHL1  H27C 3626   2.338   3.171   4.530 -0.6579  0.7153  1.5565
   50CHL1    C3 3627   1.164   4.874   2.860  0.5921 -0.7031 -0.4223
   50CHL1    H3 3628   1.055   4.864   2.878  0.8141 -0.7436  0.9757
   50CHL1    O3 3629   1.215   4.838   2.734  0.3445  0.4022 -0.1011
   50CHL1   H3' 3630   1.311   4.844   2.733  0.3062  1.2644  0.2291
   50CHL1    C4 3631   1.207   5.024   2.887  0.7924  0.0604  0.6728
   50CHL1   H4A 3632   1.317   5.037   2.882  0.9513 -0.5103  2.2394
   50CHL1   H4B 3633   1.168   5.083   2.802  0.7590  0.9278  1.2826
   50CHL1    C5 3634   1.154   5.064   3.026  0.1641 -0.1446  0.1243
   50CHL1    C6 3635   1.074   5.173   3.043 -0.5824  0.2603 -0.3224
   50CHL1    H6 3636   1.034   5.231   2.959 -2.5347  1.6650  1.4607
   50CHL1    C7 3637   1.015   5.217   3.175  0.8058 -0.1841  0.1710
   50CHL1   H7A 3638   1.012   5.327   3.193 -1.2860 -0.1827  0.0549
   50CHL1   H7B 3639   0.908   5.186   3.176  0.2407  1.6132  1.1529
   50CHL1    C8 3640   1.076   5.147   3.297 -0.0917 -0.5527  0.0657
   50CHL1    H8 3641   1.174   5.195   3.317 -0.9086  0.8742  0.7736
   50CHL1   C14 3642   0.987   5.173   3.420 -0.0691  0.7737 -0.7920
   50CHL1   H14 3643   0.890   5.126   3.394 -1.1290  2.6158 -0.3085
   50CHL1   C15 3644   0.946   5.316   3.459 -0.5488 -0.4788  0.1832
   50CHL1  H15A 3645   1.032   5.385   3.447 -1.7273  0.7518 -1.7236
   50CHL1  H15B 3646   0.877   5.365   3.387  1.0021  1.4693 -0.0580
   50CHL1   C16 3647   0.897   5.291   3.600 -0.6521  0.5567 -0.1665
   50CHL1  H16A 3648   0.939   5.362   3.674 -0.3768 -1.6551  1.9572
   50CHL1  H16B 3649   0.786   5.298   3.606 -0.6615  0.5258 -0.3121
   50CHL1   C17 3650   0.939   5.147   3.648 -0.1658  0.2822 -0.2040
   50CHL1   H17 3651   0.854   5.077   3.634  1.0975 -1.5124  0.7577
   50CHL1   C13 3652   1.045   5.104   3.549  0.3678 -0.4248 -0.1501
   50CHL1   C18 3653   1.182   5.173   3.585 -0.1843 -0.8062  0.5714
   50CHL1  H18A 3654   1.248   5.170   3.496  0.5048 -0.2196  1.0567
   50CHL1  H18B 3655   1.171   5.281   3.606 -0.6184 -0.4824 -1.1407
   50CHL1  H18C 3656   1.224   5.121   3.673 -3.4397 -1.4967  1.8718
   50CHL1   C12 3657   1.057   4.956   3.523 -0.6542 -0.5056 -0.5099
   50CHL1  H12A 3658   1.105   4.921   3.616 -2.2737 -1.0948  0.1500
   50CHL1  H12B 3659   0.957   4.908   3.510 -0.5398 -0.4675 -1.6332
   50CHL1   C11 3660   1.145   4.922   3.397 -0.2044  0.6450 -0.3472
   50CHL1  H11A 3661   1.248   4.955   3.423 -0.1240 -1.7504  3.0565
   50CHL1  H11B 3662   1.160   4.813   3.384 -2.4234 -0.2751  3.2279
   50CHL1    C9 3663   1.099   5.001   3.270  0.0443 -0.4762 -0.1158
   50CHL1    H9 3664   0.999   4.965   3.239 -0.9244 -0.9795  3.2087
   50CHL1   C10 3665   1.197   4.973   3.142  0.8615  0.5882 -0.1010
   50CHL1   C19 3666   1.347   4.993   3.179  0.2060 -0.1828  0.3285
   50CHL1  H19A 3667   1.351   5.088   3.236  1.6519 -0.2261  0.3361
   50CHL1  H19B 3668   1.395   4.908   3.232  1.8159 -0.2620 -1.1690
   50CHL1  H19C 3669   1.397   5.007   3.081 -1.3732 -1.0936 -0.6627
   50CHL1    C1 3670   1.179   4.816   3.102  0.1482 -0.3520  0.2181
   50CHL1   H1A 3671   1.234   4.762   3.183  0.3348 -0.0442  0.2987
   50CHL1   H1B 3672   1.071   4.791   3.096 -0.8845  3.4186  0.9110
   50CHL1    C2 3673   1.232   4.783   2.964  0.4276 -0.1592  0.0088
   50CHL1   H2A 3674   1.206   4.678   2.941 -2.2378  0.4400  0.0381
   50CHL1   H2B 3675   1.342   4.795   2.952  0.3657  0.4765  0.0454
   50CHL1   C20 3676   0.971   5.135   3.798  0.3036 -0.1458  0.7056
   50CHL1   H20 3677   1.046   5.215   3.816 -0.6865  0.3212  3.0795
   50CHL1   C21 3678   1.015   5.000   3.844 -0.1307  0.1724  1.0086
   50CHL1  H21A 3679   0.956   4.913   3.807  0.7047 -0.3640  0.9117
   50CHL1  H21B 3680   1.016   4.989   3.955  2.4268  0.7902  1.1036
   50CHL1  H21C 3681   1.124   4.990   3.824 -0.4325 -1.5911  0.0253
   50CHL1   C22 3682   0.854   5.185   3.887 -0.2478  0.5485 -0.0274
   50CHL1  H22A 3683   0.796   5.265   3.838  2.9674  1.7494 -2.1878
   50CHL1  H22B 3684   0.797   5.089   3.891 -0.6262  0.7587  4.6481
   50CHL1   C23 3685   0.880   5.208   4.033 -0.6811  0.2015  0.3627
   50CHL1  H23A 3686   0.909   5.111   4.078  1.6591  0.5572 -0.2033
   50CHL1  H23B 3687   0.961   5.284   4.045 -0.8445  0.3328  0.6288
   50CHL1   C24 3688   0.753   5.271   4.092 -0.2648  0.2787  0.1351
   50CHL1  H24A 3689   0.716   5.358   4.034  1.0005  2.0056  1.8050
   50CHL1  H24B 3690   0.669   5.198   4.088  0.2606 -0.2856 -1.3504
   50CHL1   C25 3691   0.772   5.302   4.239  0.5885 -0.0650 -0.4524
   50CHL1   H25 3692   0.873   5.348   4.246  0.5742 -0.0463 -0.3738
   50CHL1   C26 3693   0.673   5.412   4.285 -0.1164  1.1192  0.6819
   50CHL1  H26A 3694   0.682   5.497   4.214  1.4532 -0.0138 -0.5718
   50CHL1  H26B 3695   0.569   5.375   4.286  0.3338 -0.3769 -1.1521
   50CHL1  H26C 3696   0.707   5.442   4.386  1.9300  1.9173 -0.1724
   50CHL1   C27 3697   0.767   5.176   4.328  0.3596 -0.0885 -0.2957
   50CHL1  H27A 3698   0.820   5.213   4.419  1.0123 -1.4175 -0.1181
   50CHL1  H27B 3699   0.661   5.145   4.340  0.1348 -0.6296 -3.1022
   50CHL1  H27C 3700   0.821   5.092   4.280  0.0376  0.6179 -1.9739
   51CHL1    C3 3701   3.423   1.492   2.840  0.5367 -0.2545  1.1648
   51CHL1    H3 3702   3.493   1.565   2.886  0.0357  1.1667 -0.2291
   51CHL1    O3 3703   3.428   1.503   2.698  0.0671 -0.4695 -0.0260
   51CHL1   H3' 3704   3.345   1.545   2.677 -0.4557 -0.2234  2.2455
   51CHL1    C4 3705   3.451   1.350   2.899 -0.6760  0.3601 -0.3030
   51CHL1   H4A 3706   3.386   1.271   2.855  0.3992  0.4840 -2.2524
   51CHL1   H4B 3707   3.548   1.308   2.865 -0.9278 -0.2638 -0.2578
   51CHL1    C5 3708   3.431   1.347   3.051 -0.2199 -0.1131 -0.1377
   51CHL1    C6 3709   3.528   1.291   3.129 -0.1915  0.3406 -0.0740
   51CHL1    H6 3710   3.616   1.242   3.087  1.0649  1.1704  1.4968
   51CHL1    C7 3711   3.522   1.277   3.276 -0.4698  0.8287 -0.2339
   51CHL1   H7A 3712   3.535   1.176   3.319  4.2549  0.6450 -1.5418
   51CHL1   H7B 3713   3.611   1.331   3.316 -1.2601  1.8678  0.1812
   51CHL1    C8 3714   3.388   1.333   3.333 -1.0894 -0.0327 -0.0629
   51CHL1    H8 3715   3.320   1.245   3.329 -1.1485  0.0625 -2.7844
   51CHL1   C14 3716   3.410   1.374   3.475 -0.8490 -0.2061 -0.7968
   51CHL1   H14 3717   3.454   1.476   3.478 -0.2689 -0.4730  1.5754
   51CHL1   C15 3718   3.502   1.289   3.567 -0.0156 -0.0012 -0.0369
   51CHL1  H15A 3719   3.488   1.181   3.546  0.3590  0.0932 -0.8164
   51CHL1  H15B 3720   3.612   1.304   3.557  0.1495  0.9333  2.4768
   51CHL1   C16 3721   3.455   1.330   3.713  0.1234 -0.2595 -0.3212
   51CHL1  H16A 3722   3.419   1.245   3.774 -0.5891 -0.9168 -1.6323
   51CHL1  H16B 3723   3.545   1.370   3.766 -0.3419  0.8236 -0.3236
   51CHL1   C17 3724   3.341   1.438   3.688  0.0529 -0.0231 -0.1723
   51CHL1   H17 3725   3.388   1.539   3.687 -2.3706  1.1707 -1.4705
   51CHL1   C13 3726   3.284   1.409   3.551 -0.2824 -0.1923  1.4103
   51CHL1   C18 3727   3.176   1.297   3.565 -0.3461  0.3422  0.1504
   51CHL1  H18A 3728   3.229   1.207   3.601 -0.6569  0.3373  0.5966
   51CHL1  H18B 3729   3.101   1.336   3.637 -0.5339  1.0960 -0.4233
   51CHL1  H18C 3730   3.128   1.266   3.469 -1.2008  0.8133  0.4133
   51CHL1   C12 3731   3.224   1.535   3.471  0.3975  0.6469 -0.6158
   51CHL1  H12A 3732   3.120   1.556   3.503  0.1183 -1.2936 -0.1238
   51CHL1  H12B 3733   3.289   1.625   3.474 -0.3543  1.1764  0.6391
   51CHL1   C11 3734   3.196   1.498   3.322  0.2626  0.2265 -0.6165
   51CHL1  H11A 3735   3.113   1.425   3.317 -1.6247  2.3033 -1.1540
   51CHL1  H11B 3736   3.162   1.591   3.271  0.0412  0.7619  0.4814
   51CHL1    C9 3737   3.325   1.443   3.254  0.2604  0.0683  0.1551
   51CHL1    H9 3738   3.407   1.517   3.269 -0.5454  1.0868 -0.3295
   51CHL1   C10 3739   3.300   1.414   3.100  0.3283  0.3253 -0.2064
   51CHL1   C19 3740   3.178   1.322   3.093  0.1925  0.3778  0.5176
   51CHL1  H19A 3741   3.186   1.237   3.165  1.7483  0.9629  1.0883
   51CHL1  H19B 3742   3.085   1.380   3.112 -1.5329 -1.1197 -2.6421
   51CHL1  H19C 3743   3.171   1.286   2.988  1.5364 -0.5367  0.7108
   51CHL1    C1 3744   3.267   1.540   3.028 -0.1237  0.1367 -0.4753
   51CHL1   H1A 3745   3.163   1.573   3.049  0.7066  1.7285  1.4905
   51CHL1   H1B 3746   3.334   1.621   3.065 -1.4765  1.0843  0.0392
   51CHL1    C2 3747   3.282   1.538   2.880 -0.5968 -0.7961 -0.4836
   51CHL1   H2A 3748   3.261   1.642   2.846  0.4093  1.5110  4.9238
   51CHL1   H2B 3749   3.203   1.470   2.841 -0.1452 -1.8152  0.3431
   51CHL1   C20 3750   3.249   1.449   3.806 -0.4664  0.0481  0.0032
   51CHL1   H20 3751   3.195   1.352   3.818 -0.4076 -0.1255 -1.0178
   51CHL1   C21 3752   3.151   1.567   3.784 -0.1029 -0.4871 -1.0745
   51CHL1  H21A 3753   3.183   1.647   3.714 -0.7107  1.7873  1.0922
   51CHL1  H21B 3754   3.112   1.611   3.878  0.3756  2.2375 -2.0461
   51CHL1  H21C 3755   3.069   1.503   3.743 -0.7700 -0.9663  0.9053
   51CHL1   C22 3756   3.325   1.483   3.935  0.3726 -0.0497 -0.5233
   51CHL1  H22A 3757   3.423   1.432   3.945 -0.1642 -1.1967 -0.8758
   51CHL1  H22B 3758   3.355   1.589   3.919 -1.1872  0.5953  0.6169
   51CHL1   C23 3759   3.252   1.466   4.068 -0.5971  0.1666  0.3047
   51CHL1  H23A 3760   3.141   1.461   4.060 -0.6529 -1.4313  1.4642
   51CHL1  H23B 3761   3.279   1.366   4.108  1.3572  0.2541 -0.6553
   51CHL1   C24 3762   3.298   1.575   4.165  0.5725  0.1688 -0.3255
   51CHL1  H24A 3763   3.409   1.566   4.169  0.5100 -1.1926 -1.2047
   51CHL1  H24B 3764   3.257   1.671   4.126 -2.2183 -0.6727  0.3207
   51CHL1   C25 3765   3.231   1.558   4.307  0.2363 -0.0260 -0.1900
   51CHL1   H25 3766   3.120   1.548   4.297  0.1107  1.4073 -0.5077
   51CHL1   C26 3767   3.282   1.434   4.385 -0.7905 -0.8808  0.0053
   51CHL1  H26A 3768   3.245   1.444   4.490  1.3788 -1.4210  0.8896
   51CHL1  H26B 3769   3.227   1.345   4.347 -1.5028 -0.9299  1.0838
   51CHL1  H26C 3770   3.392   1.425   4.368 -1.0742  1.8616 -5.3049
   51CHL1   C27 3771   3.256   1.681   4.397 -0.3838  0.5248  0.1519
   51CHL1  H27A 3772   3.365   1.674   4.420  0.6491 -1.9051 -4.3382
   51CHL1  H27B 3773   3.233   1.770   4.334  0.6540  0.5707 -0.1811
   51CHL1  H27C 3774   3.196   1.698   4.489 -0.1109  0.3861  0.3588
   52CHL1    C3 3775   0.639   4.039   3.044  0.0372 -0.6283 -0.1311
   52CHL1    H3 3776   0.641   3.934   3.081  1.6712 -0.9250 -0.9469
   52CHL1    O3 3777   0.681   4.049   2.906 -0.2329  0.1006  0.1551
   52CHL1   H3' 3778   0.768   4.009   2.906 -0.9197 -1.4667  0.1880
   52CHL1    C4 3779   0.493   4.078   3.058 -0.3193  0.0965 -0.2071
   52CHL1   H4A 3780   0.467   4.172   3.005 -0.5043 -0.4797 -1.1515
   52CHL1   H4B 3781   0.427   4.010   3.001 -0.3209 -1.6483  1.7488
   52CHL1    C5 3782   0.439   4.098   3.200  0.5823 -0.2628 -0.4319
   52CHL1    C6 3783   0.327   4.029   3.242 -0.0468  0.0142  0.0433
   52CHL1    H6 3784   0.285   3.957   3.171  0.2169 -1.0386  0.9271
   52CHL1    C7 3785   0.294   4.028   3.390  0.1354 -0.2780  0.3814
   52CHL1   H7A 3786   0.184   4.039   3.399  0.1548  1.4539 -0.8475
   52CHL1   H7B 3787   0.321   3.929   3.432 -1.8954 -0.3824  1.5891
   52CHL1    C8 3788   0.355   4.148   3.471 -0.1201 -1.1029 -0.3805
   52CHL1    H8 3789   0.302   4.238   3.432  1.0165 -0.1238  0.2566
   52CHL1   C14 3790   0.329   4.130   3.619  0.0339  0.5895 -0.9434
   52CHL1   H14 3791   0.379   4.033   3.641 -1.0821  0.0573 -0.6966
   52CHL1   C15 3792   0.183   4.110   3.664 -0.8761  0.3029 -0.2625
   52CHL1  H15A 3793   0.112   4.169   3.601 -1.8931 -2.3928 -1.7982
   52CHL1  H15B 3794   0.164   4.001   3.659  1.6503 -0.1928 -0.4636
   52CHL1   C16 3795   0.172   4.156   3.810  0.7100  0.1503  0.3645
   52CHL1  H16A 3796   0.117   4.252   3.812  0.9795  0.3360 -0.5538
   52CHL1  H16B 3797   0.140   4.073   3.876  0.2160  0.5220  0.5945
   52CHL1   C17 3798   0.317   4.185   3.844 -0.2219 -0.7578 -0.7976
   52CHL1   H17 3799   0.360   4.084   3.860  1.2519 -0.0687 -0.2618
   52CHL1   C13 3800   0.388   4.237   3.713  0.5047 -0.8551  0.2608
   52CHL1   C18 3801   0.325   4.371   3.671  0.1672  0.1264 -0.5259
   52CHL1  H18A 3802   0.401   4.444   3.637 -2.2239  2.2108 -1.8056
   52CHL1  H18B 3803   0.249   4.356   3.590 -1.6357 -0.1703  1.1477
   52CHL1  H18C 3804   0.262   4.405   3.756  1.2901  0.9299  0.0015
   52CHL1   C12 3805   0.538   4.234   3.699 -0.3259 -0.0355  0.3595
   52CHL1  H12A 3806   0.594   4.317   3.748  0.5687 -1.1645  1.3170
   52CHL1  H12B 3807   0.577   4.140   3.745 -2.3568 -1.5537 -0.8885
   52CHL1   C11 3808   0.577   4.242   3.544  0.1451 -0.4887  0.7200
   52CHL1  H11A 3809   0.573   4.348   3.511  1.0538 -0.4201  0.8191
   52CHL1  H11B 3810   0.685   4.224   3.533  0.3794  0.4186  1.3341
   52CHL1    C9 3811   0.497   4.154   3.449  0.0433  0.2378 -0.3269
   52CHL1    H9 3812   0.526   4.050   3.477 -1.7702 -0.5755 -1.2740
   52CHL1   C10 3813   0.532   4.173   3.299  0.3406 -0.2817  0.4123
   52CHL1   C19 3814   0.509   4.320   3.271 -0.2658 -0.1296  0.1893
   52CHL1  H19A 3815   0.607   4.372   3.282 -0.4094  0.2391 -0.2730
   52CHL1  H19B 3816   0.485   4.342   3.165  0.4556  0.6811  0.1853
   52CHL1  H19C 3817   0.431   4.374   3.330  0.0817  0.6820 -0.0749
   52CHL1    C1 3818   0.684   4.139   3.273 -0.3733  0.2008  0.2425
   52CHL1   H1A 3819   0.746   4.211   3.330  0.4435 -0.2002 -0.1188
   52CHL1   H1B 3820   0.699   4.044   3.329 -0.9430  0.0710  0.1814
   52CHL1    C2 3821   0.729   4.126   3.127 -0.0065 -0.0170  0.0709
   52CHL1   H2A 3822   0.829   4.080   3.125 -0.8670 -1.9640 -1.3385
   52CHL1   H2B 3823   0.731   4.225   3.076 -0.8332 -0.2865 -0.5109
   52CHL1   C20 3824   0.340   4.259   3.976  0.5813 -0.3951 -0.3119
   52CHL1   H20 3825   0.306   4.365   3.971  0.3180 -0.4229  0.7838
   52CHL1   C21 3826   0.487   4.255   4.023 -0.0941  0.5908 -0.0681
   52CHL1  H21A 3827   0.535   4.156   4.014  0.0767  0.4239  2.1631
   52CHL1  H21B 3828   0.506   4.310   4.118  2.7858  2.1885 -1.4155
   52CHL1  H21C 3829   0.541   4.313   3.946  1.2693 -0.1898  0.2716
   52CHL1   C22 3830   0.254   4.183   4.088  0.1287 -0.2010 -0.1011
   52CHL1  H22A 3831   0.148   4.208   4.070  0.4055 -0.2846 -2.1080
   52CHL1  H22B 3832   0.262   4.072   4.083  2.6975 -0.1071  0.3902
   52CHL1   C23 3833   0.287   4.219   4.229  0.2137 -0.3085 -0.4500
   52CHL1  H23A 3834   0.390   4.195   4.263 -0.3216  1.2804  2.6668
   52CHL1  H23B 3835   0.291   4.329   4.234  2.1516 -0.2009 -2.4691
   52CHL1   C24 3836   0.180   4.165   4.326 -0.1767  0.2977  0.0511
   52CHL1  H24A 3837   0.078   4.194   4.293 -0.7414  0.0715  1.5126
   52CHL1  H24B 3838   0.189   4.055   4.315  0.6867  0.3417  0.1839
   52CHL1   C25 3839   0.197   4.214   4.470 -0.2865 -0.0270 -0.4376
   52CHL1   H25 3840   0.113   4.171   4.530 -0.1137 -0.4527 -0.4978
   52CHL1   C26 3841   0.325   4.162   4.534 -0.9381 -0.1940 -0.0875
   52CHL1  H26A 3842   0.331   4.052   4.526 -0.4181 -0.1453 -0.4417
   52CHL1  H26B 3843   0.415   4.210   4.489 -1.9584  0.9184 -1.0105
   52CHL1  H26C 3844   0.336   4.196   4.639  1.1429  2.5132 -1.0455
   52CHL1   C27 3845   0.204   4.371   4.480  0.0149  0.7295  0.1964
   52CHL1  H27A 3846   0.112   4.415   4.437 -0.9170 -0.0493  1.3370
   52CHL1  H27B 3847   0.202   4.406   4.586  2.3885 -0.9465  0.8780
   52CHL1  H27C 3848   0.295   4.411   4.431 -0.1464  0.1024 -0.6343
   53CHL1    C3 3849   3.552   2.009   2.749 -0.7367 -0.6153  0.2273
   53CHL1    H3 3850   3.500   2.102   2.780 -2.0247 -0.6871 -1.5915
   53CHL1    O3 3851   3.558   1.996   2.607 -0.4648  0.3879  0.0255
   53CHL1   H3' 3852   3.476   2.031   2.572 -0.8482  0.3787  0.8900
   53CHL1    C4 3853   3.694   2.005   2.808 -1.1863 -0.4315  0.1413
   53CHL1   H4A 3854   3.728   1.902   2.783 -0.6676 -0.1749 -0.2109
   53CHL1   H4B 3855   3.765   2.084   2.775  1.3290 -2.2097  0.9619
   53CHL1    C5 3856   3.692   2.007   2.961  0.7197 -0.0858  0.5118
   53CHL1    C6 3857   3.767   2.088   3.032 -0.8280 -0.5270  0.1211
   53CHL1    H6 3858   3.850   2.147   2.990  0.0762 -0.3210  2.0399
   53CHL1    C7 3859   3.782   2.085   3.183  0.7691 -0.1567  0.3025
   53CHL1   H7A 3860   3.884   2.076   3.226 -0.3116  0.0907  3.1320
   53CHL1   H7B 3861   3.731   2.173   3.229 -0.5693 -2.3622  3.3507
   53CHL1    C8 3862   3.716   1.959   3.245  0.0780 -0.9153 -0.5865
   53CHL1    H8 3863   3.785   1.874   3.229  0.7485 -0.6285  0.6458
   53CHL1   C14 3864   3.690   2.001   3.392  0.3268 -0.6765 -0.0888
   53CHL1   H14 3865   3.618   2.085   3.400 -0.6206 -1.3854 -0.9340
   53CHL1   C15 3866   3.810   2.046   3.479 -0.2018  0.2959  0.3233
   53CHL1  H15A 3867   3.899   1.985   3.455  0.3533  0.4760  1.8106
   53CHL1  H15B 3868   3.833   2.154   3.461  1.5382  0.1108  1.2351
   53CHL1   C16 3869   3.746   2.037   3.625  0.3251 -0.2263  0.1032
   53CHL1  H16A 3870   3.815   1.967   3.678 -0.1011 -0.7554 -0.0426
   53CHL1  H16B 3871   3.756   2.131   3.685  1.4997 -0.8405  0.9358
   53CHL1   C17 3872   3.607   1.960   3.615 -0.0509  0.5210  0.0605
   53CHL1   H17 3873   3.524   2.034   3.614 -1.1023 -0.6045  0.8847
   53CHL1   C13 3874   3.616   1.895   3.472 -0.0914 -0.4973  0.4570
   53CHL1   C18 3875   3.707   1.765   3.476  0.7505 -0.4211 -0.5434
   53CHL1  H18A 3876   3.643   1.689   3.525 -0.0618 -0.5150 -1.7191
   53CHL1  H18B 3877   3.734   1.736   3.373  0.6965  2.7193 -1.5625
   53CHL1  H18C 3878   3.798   1.779   3.538  1.2885  0.1015 -1.4283
   53CHL1   C12 3879   3.480   1.867   3.411 -0.0485 -1.0035  0.8427
   53CHL1  H12A 3880   3.428   1.780   3.455 -1.8975 -0.5059 -0.2620
   53CHL1  H12B 3881   3.415   1.956   3.395  0.5214 -1.0570 -2.5236
   53CHL1   C11 3882   3.503   1.832   3.261 -0.1390  0.8250 -0.3546
   53CHL1  H11A 3883   3.566   1.741   3.260  1.0194  1.5431  1.4413
   53CHL1  H11B 3884   3.408   1.802   3.211  0.4799  1.1881 -1.8247
   53CHL1    C9 3885   3.582   1.934   3.180 -0.3785 -0.5927 -0.3959
   53CHL1    H9 3886   3.524   2.029   3.188  1.4633  0.9582 -3.3982
   53CHL1   C10 3887   3.597   1.909   3.024  0.3066  0.7413  0.3275
   53CHL1   C19 3888   3.650   1.768   3.010 -0.6405  0.2593 -0.0910
   53CHL1  H19A 3889   3.643   1.736   2.904 -2.6757  3.0752 -0.9533
   53CHL1  H19B 3890   3.753   1.756   3.048 -1.2653 -1.4157  1.1961
   53CHL1  H19C 3891   3.583   1.696   3.062  0.0600  0.2965  0.8810
   53CHL1    C1 3892   3.453   1.908   2.960  0.4067  0.0158  0.1162
   53CHL1   H1A 3893   3.376   1.835   2.994  1.2607 -0.8373  0.2807
   53CHL1   H1B 3894   3.408   2.009   2.969  0.1268 -0.1053  0.0648
   53CHL1    C2 3895   3.462   1.892   2.805  0.0764 -0.1321 -0.1485
   53CHL1   H2A 3896   3.365   1.913   2.756  0.6363 -1.1872 -1.7847
   53CHL1   H2B 3897   3.494   1.790   2.773  0.2675  0.2440 -1.1703
   53CHL1   C20 3898   3.571   1.875   3.736 -0.2962 -0.4131  0.2697
   53CHL1   H20 3899   3.638   1.787   3.734 -0.5832 -0.6482  0.7400
   53CHL1   C21 3900   3.421   1.832   3.732 -0.1504 -0.3810  0.2909
   53CHL1  H21A 3901   3.394   1.789   3.832 -1.7670  1.2126  0.6090
   53CHL1  H21B 3902   3.406   1.746   3.663  0.9635 -2.0260  1.9804
   53CHL1  H21C 3903   3.341   1.906   3.710 -1.1463 -1.7981 -1.0875
   53CHL1   C22 3904   3.592   1.940   3.874 -0.2506 -0.4088 -0.2936
   53CHL1  H22A 3905   3.699   1.969   3.866 -0.4151  0.9870  1.7277
   53CHL1  H22B 3906   3.531   2.033   3.870  1.5391  0.7909 -1.7819
   53CHL1   C23 3907   3.574   1.845   3.998  0.6942 -0.1685  0.6393
   53CHL1  H23A 3908   3.466   1.829   4.019  0.2914 -1.0321 -1.7249
   53CHL1  H23B 3909   3.623   1.756   3.953  2.0351  1.8743 -2.2530
   53CHL1   C24 3910   3.665   1.885   4.115 -0.1678 -0.6039  1.1651
   53CHL1  H24A 3911   3.772   1.881   4.086 -0.1634 -1.3161  1.2614
   53CHL1  H24B 3912   3.626   1.982   4.152  0.6328  0.5631 -0.8480
   53CHL1   C25 3913   3.654   1.800   4.249  0.6673 -0.6026 -0.5228
   53CHL1   H25 3914   3.547   1.784   4.273  0.8683 -1.3719 -0.0794
   53CHL1   C26 3915   3.716   1.664   4.232  0.0631  0.4698  0.2337
   53CHL1  H26A 3916   3.822   1.673   4.203 -0.4536  1.9150 -1.3917
   53CHL1  H26B 3917   3.704   1.606   4.326 -1.0266  0.3188  0.0140
   53CHL1  H26C 3918   3.662   1.613   4.150  0.7349  2.1232 -1.3066
   53CHL1   C27 3919   3.714   1.887   4.367  0.2719  0.2479  0.0742
   53CHL1  H27A 3920   3.663   1.986   4.369  1.6992  1.0080  1.2929
   53CHL1  H27B 3921   3.695   1.842   4.467 -1.2569  1.6791  0.4739
   53CHL1  H27C 3922   3.819   1.925   4.361 -1.1054  4.6484  0.0091
   54CHL1    C3 3923   2.859   1.368   2.680  0.6145 -0.0918  0.4161
   54CHL1    H3 3924   2.907   1.269   2.701  1.2251  0.0622 -0.2058
   54CHL1    O3 3925   2.866   1.386   2.534 -0.2485  0.6714  0.1440
   54CHL1   H3' 3926   2.836   1.477   2.525 -0.6883  0.7429  1.9063
   54CHL1    C4 3927   2.708   1.369   2.727 -0.9999 -0.5245  0.0804
   54CHL1   H4A 3928   2.668   1.467   2.692 -0.4284 -0.7556 -1.2734
   54CHL1   H4B 3929   2.660   1.279   2.683 -1.6831  0.2823 -0.8826
   54CHL1    C5 3930   2.698   1.367   2.882  0.3632  0.4016  0.3197
   54CHL1    C6 3931   2.633   1.262   2.942  0.1170 -0.0510  1.0974
   54CHL1    H6 3932   2.592   1.180   2.882  2.8560 -1.2416  0.6864
   54CHL1    C7 3933   2.605   1.257   3.090  0.0281 -0.6250  0.1575
   54CHL1   H7A 3934   2.499   1.233   3.114 -0.2056 -0.6994 -0.9117
   54CHL1   H7B 3935   2.662   1.172   3.134 -0.7750 -1.3273 -0.1242
   54CHL1    C8 3936   2.655   1.391   3.161  0.2343  0.5709  0.4816
   54CHL1    H8 3937   2.579   1.468   3.135  1.9321  1.8627 -0.9003
   54CHL1   C14 3938   2.651   1.372   3.311  0.9023 -0.0052  0.3195
   54CHL1   H14 3939   2.723   1.287   3.321  2.0699  0.8101 -0.8292
   54CHL1   C15 3940   2.512   1.338   3.369  0.0034 -0.2256  0.0535
   54CHL1  H15A 3941   2.435   1.414   3.344 -1.1288 -1.7959 -1.4426
   54CHL1  H15B 3942   2.473   1.238   3.341  0.6364 -0.0697 -1.5156
   54CHL1   C16 3943   2.540   1.351   3.522 -0.3432  0.0500  0.0068
   54CHL1  H16A 3944   2.457   1.410   3.566 -1.5860 -0.2055 -1.8733
   54CHL1  H16B 3945   2.564   1.249   3.559 -0.8627 -0.8349 -1.9541
   54CHL1   C17 3946   2.680   1.424   3.534  0.0518  0.0652 -0.0137
   54CHL1   H17 3947   2.759   1.347   3.547  1.7155  1.7425  0.1468
   54CHL1   C13 3948   2.707   1.486   3.399 -0.0947 -0.6459  0.0171
   54CHL1   C18 3949   2.609   1.607   3.390  0.1115 -0.5199 -0.4763
   54CHL1  H18A 3950   2.582   1.618   3.283  0.1430 -1.1076 -0.5504
   54CHL1  H18B 3951   2.515   1.590   3.447  0.8885  0.1111  1.0490
   54CHL1  H18C 3952   2.662   1.697   3.430  0.7098 -2.6183  4.1606
   54CHL1   C12 3953   2.851   1.522   3.350  0.5576 -0.1780 -0.5009
   54CHL1  H12A 3954   2.890   1.609   3.407  1.1437 -0.5731 -0.2911
   54CHL1  H12B 3955   2.923   1.439   3.368  0.2061 -0.3405  0.2180
   54CHL1   C11 3956   2.848   1.558   3.200 -0.3575  0.3309 -0.0402
   54CHL1  H11A 3957   2.778   1.642   3.181 -1.6272 -0.8113 -0.5876
   54CHL1  H11B 3958   2.949   1.584   3.162 -0.4089  1.1422  0.3590
   54CHL1    C9 3959   2.789   1.437   3.114  0.0884  0.3957  0.0406
   54CHL1    H9 3960   2.862   1.353   3.122  2.3496  2.1791 -0.6298
   54CHL1   C10 3961   2.781   1.474   2.962  0.4613 -0.0284  0.6962
   54CHL1   C19 3962   2.700   1.607   2.934  0.6297  0.4723  0.3495
   54CHL1  H19A 3963   2.603   1.605   2.987  0.7121  1.0301  0.5211
   54CHL1  H19B 3964   2.747   1.694   2.984  1.8477  0.1560 -0.1933
   54CHL1  H19C 3965   2.678   1.635   2.829  1.0603  0.7230  0.3244
   54CHL1    C1 3966   2.922   1.484   2.899 -0.3723 -0.8992 -0.0361
   54CHL1   H1A 3967   2.981   1.570   2.936 -1.5610  0.1465 -0.4849
   54CHL1   H1B 3968   2.974   1.392   2.934  1.5767  0.7243  1.5554
   54CHL1    C2 3969   2.921   1.488   2.745  0.1838  0.5292 -0.9525
   54CHL1   H2A 3970   3.028   1.493   2.715  1.5820  1.2259  3.4566
   54CHL1   H2B 3971   2.867   1.577   2.707 -2.0422  0.2385  1.3084
   54CHL1   C20 3972   2.687   1.512   3.666  0.0879  0.5047 -0.4101
   54CHL1   H20 3973   2.656   1.618   3.651 -0.5391  0.1976 -1.3727
   54CHL1   C21 3974   2.836   1.509   3.689 -0.4781 -0.3376  0.1375
   54CHL1  H21A 3975   2.896   1.549   3.605 -1.4664  1.1990  0.1282
   54CHL1  H21B 3976   2.860   1.407   3.726  0.4225 -0.4437 -0.6936
   54CHL1  H21C 3977   2.856   1.580   3.771 -1.3708  3.9972 -3.0567
   54CHL1   C22 3978   2.601   1.461   3.783 -0.5334  0.8222  0.4105
   54CHL1  H22A 3979   2.496   1.476   3.751 -0.0232 -1.4945 -2.9558
   54CHL1  H22B 3980   2.615   1.351   3.795  3.6676  1.0260 -0.8535
   54CHL1   C23 3981   2.636   1.527   3.918 -0.1377 -0.2916 -0.4006
   54CHL1  H23A 3982   2.550   1.498   3.982  0.7810 -1.0454  0.5233
   54CHL1  H23B 3983   2.730   1.492   3.965 -0.4698 -1.4261 -0.5426
   54CHL1   C24 3984   2.642   1.684   3.916  0.6440 -0.1670 -0.1955
   54CHL1  H24A 3985   2.719   1.700   3.839 -0.5854  1.4510 -1.1470
   54CHL1  H24B 3986   2.547   1.723   3.874  1.5532 -0.4833 -2.7161
   54CHL1   C25 3987   2.691   1.759   4.042  1.3054  0.0889  0.2876
   54CHL1   H25 3988   2.619   1.743   4.125  1.1053  1.1806  0.3460
   54CHL1   C26 3989   2.835   1.716   4.081  0.0192 -0.2867 -0.1803
   54CHL1  H26A 3990   2.844   1.611   4.115  0.7514 -0.1976 -0.0848
   54CHL1  H26B 3991   2.891   1.729   3.986  1.1674 -0.9221  0.3860
   54CHL1  H26C 3992   2.870   1.795   4.151  1.0084 -1.0256  0.1835
   54CHL1   C27 3993   2.694   1.913   4.015 -1.1254  0.6369  0.3373
   54CHL1  H27A 3994   2.599   1.941   3.965 -1.4094  0.0589  0.5502
   54CHL1  H27B 3995   2.712   1.971   4.108 -0.0949  2.6162 -1.0085
   54CHL1  H27C 3996   2.782   1.943   3.954 -0.4348 -1.7025  0.0815
   55CHL1    C3 3997   0.013   3.436   2.900  0.1224  0.8843  0.3080
   55CHL1    H3 3998  -0.057   3.508   2.853  1.2578 -0.0592 -3.1491
   55CHL1    O3 3999   0.085   3.374   2.793 -1.0736 -0.0224  0.4531
   55CHL1   H3' 4000   0.173   3.415   2.796 -1.7301  1.5576 -0.4281
   55CHL1    C4 4001   0.119   3.510   2.983  0.3082  0.0672  0.5986
   55CHL1   H4A 4002   0.211   3.448   2.985 -1.8652 -3.5556 -1.3995
   55CHL1   H4B 4003   0.146   3.588   2.908 -0.1774 -2.2091 -2.1225
   55CHL1    C5 4004   0.054   3.570   3.109  0.9163 -0.2237 -0.0947
   55CHL1    C6 4005   0.064   3.704   3.142  0.0647  0.1225  1.0625
   55CHL1    H6 4006   0.133   3.769   3.085 -0.2152 -1.6971 -1.5078
   55CHL1    C7 4007  -0.002   3.761   3.267  0.4255  0.0156 -0.5564
   55CHL1   H7A 4008   0.069   3.833   3.312  0.4133 -0.6175  0.5084
   55CHL1   H7B 4009  -0.089   3.822   3.236  1.0828  0.7825 -0.9073
   55CHL1    C8 4010  -0.033   3.650   3.375 -0.2816  0.3190 -0.8939
   55CHL1    H8 4011   0.066   3.611   3.407 -0.5710  0.7157  0.5215
   55CHL1   C14 4012  -0.105   3.716   3.488 -0.4581 -0.4183  0.3493
   55CHL1   H14 4013  -0.181   3.774   3.432  0.0780  1.6375  1.6617
   55CHL1   C15 4014  -0.027   3.818   3.566 -0.2497 -0.5453 -0.0348
   55CHL1  H15A 4015   0.071   3.791   3.612  0.4989  1.9691  0.0299
   55CHL1  H15B 4016  -0.007   3.907   3.501 -1.2741 -1.7806 -2.1170
   55CHL1   C16 4017  -0.109   3.833   3.694 -0.4898  0.1283  0.5172
   55CHL1  H16A 4018  -0.041   3.821   3.781 -0.8854  3.1954  1.3829
   55CHL1  H16B 4019  -0.153   3.935   3.702  1.0632  0.9764 -1.0854
   55CHL1   C17 4020  -0.214   3.716   3.690  0.4957  0.1581  0.1607
   55CHL1   H17 4021  -0.298   3.771   3.641  2.0860  1.2652 -1.4707
   55CHL1   C13 4022  -0.160   3.610   3.584 -0.7177 -0.1042 -0.2198
   55CHL1   C18 4023  -0.045   3.528   3.658 -0.2852 -0.4628 -0.1784
   55CHL1  H18A 4024   0.010   3.471   3.580 -1.8760 -1.7173 -0.4431
   55CHL1  H18B 4025   0.025   3.588   3.720 -1.6319  0.7371  0.2420
   55CHL1  H18C 4026  -0.090   3.452   3.725 -0.6108 -0.6838 -0.6408
   55CHL1   C12 4027  -0.263   3.509   3.521 -0.0120  0.1240 -0.1345
   55CHL1  H12A 4028  -0.298   3.443   3.604 -0.2882  0.6103  0.1417
   55CHL1  H12B 4029  -0.357   3.557   3.486 -2.7721 -3.2034  1.9860
   55CHL1   C11 4030  -0.193   3.447   3.404 -0.0161  0.5978 -0.2449
   55CHL1  H11A 4031  -0.126   3.365   3.437 -1.4137 -0.3017  0.4621
   55CHL1  H11B 4032  -0.281   3.405   3.351  0.9187 -1.2778 -0.3635
   55CHL1    C9 4033  -0.109   3.541   3.311  0.4223  0.1152  0.3759
   55CHL1    H9 4034  -0.195   3.592   3.264 -0.5128 -0.9779  0.8756
   55CHL1   C10 4035  -0.033   3.476   3.194 -0.6129  0.6615 -0.3599
   55CHL1   C19 4036   0.075   3.375   3.255  0.8037  0.4801  0.6211
   55CHL1  H19A 4037   0.151   3.417   3.325  2.5277  0.8127 -1.3346
   55CHL1  H19B 4038   0.009   3.300   3.304 -2.2961  1.4660 -1.7270
   55CHL1  H19C 4039   0.133   3.324   3.174 -0.1733  0.4286 -0.0660
   55CHL1    C1 4040  -0.131   3.394   3.103 -0.0141  0.0582 -0.9347
   55CHL1   H1A 4041  -0.190   3.328   3.170  2.2799  1.4425  2.7333
   55CHL1   H1B 4042  -0.196   3.472   3.059 -0.8457 -0.3774 -0.5004
   55CHL1    C2 4043  -0.061   3.324   2.983  0.1480  0.5813 -0.2372
   55CHL1   H2A 4044  -0.131   3.269   2.917  0.2008 -1.3356  1.2212
   55CHL1   H2B 4045   0.014   3.254   3.027  0.4704  1.2084  0.2297
   55CHL1   C20 4046  -0.267   3.667   3.824 -0.1214  0.1912  0.5331
   55CHL1   H20 4047  -0.204   3.581   3.853 -0.7376 -0.6932 -0.6625
   55CHL1   C21 4048  -0.408   3.612   3.800  0.7198 -0.3145 -0.2906
   55CHL1  H21A 4049  -0.486   3.691   3.802  1.5346  0.5187 -0.6587
   55CHL1  H21B 4050  -0.427   3.545   3.887 -0.4580  1.2582  0.7220
   55CHL1  H21C 4051  -0.432   3.554   3.708  0.0543 -0.3000 -0.1324
   55CHL1   C22 4052  -0.273   3.780   3.920 -0.2528 -0.2956  0.1536
   55CHL1  H22A 4053  -0.173   3.827   3.930 -0.6844  0.0356  4.5938
   55CHL1  H22B 4054  -0.344   3.854   3.876 -0.0108  0.3536  0.8383
   55CHL1   C23 4055  -0.319   3.736   4.055 -0.7862  0.4010 -0.2917
   55CHL1  H23A 4056  -0.420   3.691   4.055 -0.3846 -0.5316 -0.6125
   55CHL1  H23B 4057  -0.235   3.673   4.092 -0.7391  0.5109 -0.2127
   55CHL1   C24 4058  -0.321   3.855   4.158  0.4277  0.5140  0.0694
   55CHL1  H24A 4059  -0.216   3.891   4.164  0.5136  0.3775 -0.5708
   55CHL1  H24B 4060  -0.381   3.946   4.135  0.4607  0.8894  1.3764
   55CHL1   C25 4061  -0.377   3.812   4.300 -0.6014  0.3289 -0.1505
   55CHL1   H25 4062  -0.365   3.704   4.320 -1.1738  0.8191  3.4750
   55CHL1   C26 4063  -0.309   3.883   4.416  0.0071  0.3975 -0.0085
   55CHL1  H26A 4064  -0.331   3.991   4.401 -0.2400  0.0641 -2.5498
   55CHL1  H26B 4065  -0.355   3.844   4.509 -0.0294  1.0293  0.2506
   55CHL1  H26C 4066  -0.201   3.859   4.417 -0.2941 -1.0133  0.5467
   55CHL1   C27 4067  -0.533   3.832   4.305 -0.5001 -0.2395  0.2132
   55CHL1  H27A 4068  -0.558   3.852   4.412  1.2327  0.0491  0.6021
   55CHL1  H27B 4069  -0.555   3.931   4.262 -1.4538 -1.7981 -3.1573
   55CHL1  H27C 4070  -0.587   3.757   4.244  0.1818  0.5096 -1.3526
   56CHL1    C3 4071   1.234   4.226   2.870 -0.6886 -0.5896  0.9968
   56CHL1    H3 4072   1.337   4.209   2.907 -1.0638 -2.2615  1.3650
   56CHL1    O3 4073   1.228   4.198   2.730  0.5481 -0.4798  0.5094
   56CHL1   H3' 4074   1.144   4.240   2.712 -0.6263 -1.7451  2.6820
   56CHL1    C4 4075   1.134   4.138   2.941  0.8737  0.2690 -0.6549
   56CHL1   H4A 4076   1.030   4.145   2.901  0.0794  0.5846  1.3666
   56CHL1   H4B 4077   1.160   4.030   2.942  2.5753  0.5506  3.1665
   56CHL1    C5 4078   1.131   4.180   3.088  0.2840  0.3039 -0.0844
   56CHL1    C6 4079   1.141   4.085   3.183  0.5279 -0.5729  0.5410
   56CHL1    H6 4080   1.139   3.981   3.147 -1.3904  0.0818 -1.5024
   56CHL1    C7 4081   1.128   4.109   3.328 -0.4267 -0.4765  0.1794
   56CHL1   H7A 4082   1.054   4.038   3.371 -0.1469 -0.6719  0.3428
   56CHL1   H7B 4083   1.222   4.088   3.384 -0.3470 -1.2873 -0.2478
   56CHL1    C8 4084   1.072   4.249   3.361  0.1029  0.0370 -0.3629
   56CHL1    H8 4085   0.963   4.254   3.337  0.0142  0.0412  0.0191
   56CHL1   C14 4086   1.086   4.274   3.511  0.5635 -0.2376  0.3259
   56CHL1   H14 4087   1.193   4.252   3.534  0.4944 -0.9660  0.0041
   56CHL1   C15 4088   1.007   4.193   3.612  0.1160 -0.0865 -0.5302
   56CHL1  H15A 4089   0.903   4.201   3.574  0.7291  1.8544 -1.9738
   56CHL1  H15B 4090   1.038   4.091   3.641  1.4353  0.1722 -0.9782
   56CHL1   C16 4091   1.019   4.267   3.746 -0.8851 -0.2072 -0.1886
   56CHL1  H16A 4092   0.915   4.272   3.786 -1.6024 -1.1207 -1.8437
   56CHL1  H16B 4093   1.073   4.209   3.825 -0.1694 -0.0220 -0.5339
   56CHL1   C17 4094   1.069   4.404   3.703 -0.3280 -0.0636 -0.6648
   56CHL1   H17 4095   1.178   4.399   3.727 -0.8282 -0.6291  1.7973
   56CHL1   C13 4096   1.064   4.418   3.557 -0.0284  0.2846 -0.1082
   56CHL1   C18 4097   0.916   4.457   3.524  0.2552  0.2961  0.3058
   56CHL1  H18A 4098   0.838   4.404   3.583 -1.5378  0.5571 -1.7137
   56CHL1  H18B 4099   0.901   4.566   3.541  2.8901  0.5377  1.6316
   56CHL1  H18C 4100   0.895   4.437   3.417 -0.4273 -1.7902  0.7854
   56CHL1   C12 4101   1.165   4.503   3.478 -0.0159 -0.1943 -0.5065
   56CHL1  H12A 4102   1.155   4.611   3.500  0.1351  0.0846 -1.7361
   56CHL1  H12B 4103   1.268   4.485   3.515 -0.3770  1.5793  1.5975
   56CHL1   C11 4104   1.146   4.501   3.329 -0.3786  0.5281 -0.1384
   56CHL1  H11A 4105   1.047   4.538   3.295 -0.0265  1.8346  0.1647
   56CHL1  H11B 4106   1.231   4.543   3.271  1.1566 -0.9579  0.9393
   56CHL1    C9 4107   1.150   4.350   3.277 -0.2891 -0.5809  1.2454
   56CHL1    H9 4108   1.258   4.329   3.292 -0.3274 -2.7181 -0.8034
   56CHL1   C10 4109   1.123   4.331   3.119  0.0109  0.4064 -0.5556
   56CHL1   C19 4110   0.984   4.382   3.085 -0.7129  0.6037  0.1776
   56CHL1  H19A 4111   0.993   4.492   3.072  1.3751  0.6395  1.4033
   56CHL1  H19B 4112   0.959   4.337   2.987  2.6993 -1.3555  0.0396
   56CHL1  H19C 4113   0.908   4.363   3.164 -1.3535 -3.9278 -1.2224
   56CHL1    C1 4114   1.229   4.402   3.036  0.2005 -0.3653  0.5495
   56CHL1   H1A 4115   1.234   4.511   3.058  3.5838 -0.3702  0.3245
   56CHL1   H1B 4116   1.331   4.371   3.068  0.2533 -0.8203 -0.0363
   56CHL1    C2 4117   1.214   4.373   2.884  0.2421  0.7070 -0.0437
   56CHL1   H2A 4118   1.294   4.432   2.836  0.7013  0.9411  0.9648
   56CHL1   H2B 4119   1.117   4.407   2.841  0.0352 -1.0937 -1.1125
   56CHL1   C20 4120   1.025   4.522   3.789 -0.9212 -0.0306 -0.1309
   56CHL1   H20 4121   0.917   4.543   3.769 -0.5541 -0.2133 -2.6156
   56CHL1   C21 4122   1.104   4.654   3.764  0.2597  0.6933 -0.1312
   56CHL1  H21A 4123   1.090   4.687   3.659  0.9656 -3.7976 -1.8267
   56CHL1  H21B 4124   1.214   4.638   3.768  0.3689  0.2678 -2.9806
   56CHL1  H21C 4125   1.071   4.737   3.830  0.3987  0.2498  0.5011
   56CHL1   C22 4126   1.039   4.497   3.936 -0.2690  0.4865  0.3263
   56CHL1  H22A 4127   0.978   4.404   3.950 -1.6564  1.5243  1.4875
   56CHL1  H22B 4128   1.147   4.480   3.952  0.1665  0.8817 -1.9564
   56CHL1   C23 4129   0.968   4.598   4.028  0.0320 -0.6690 -1.1178
   56CHL1  H23A 4130   1.019   4.695   4.012  1.9145 -1.0227  2.0155
   56CHL1  H23B 4131   0.858   4.597   4.010 -0.2230  0.5298  0.2183
   56CHL1   C24 4132   0.986   4.578   4.184 -1.0633 -0.4670 -0.4385
   56CHL1  H24A 4133   0.947   4.477   4.208 -0.9766 -0.5380 -0.5892
   56CHL1  H24B 4134   1.094   4.575   4.210 -1.0791  0.1107 -0.3033
   56CHL1   C25 4135   0.929   4.687   4.279  0.1687  0.6956 -0.1969
   56CHL1   H25 4136   0.964   4.787   4.248  1.8782 -0.0737 -0.8844
   56CHL1   C26 4137   0.777   4.679   4.282 -0.2060  0.2283 -0.0399
   56CHL1  H26A 4138   0.720   4.698   4.188 -4.2932  0.6740  2.2850
   56CHL1  H26B 4139   0.749   4.575   4.308  0.7098 -1.0473 -3.6143
   56CHL1  H26C 4140   0.750   4.746   4.367 -0.2886 -1.1706  1.0615
   56CHL1   C27 4141   0.975   4.650   4.420  0.9543 -0.1883  0.0138
   56CHL1  H27A 4142   0.926   4.556   4.454  1.7390  0.1683  2.3330
   56CHL1  H27B 4143   1.083   4.624   4.424  1.4731  1.9387  1.4219
   56CHL1  H27C 4144   0.957   4.730   4.494  0.5095  0.3406 -0.6582
   57SAPC     N 4145   3.536   5.786   7.042 -0.4411  0.3581 -0.3547
   57SAPC   C12 4146   3.505   5.637   7.033 -0.5699 -0.9669 -0.2611
   57SAPC  H12A 4147   3.476   5.608   7.133 -0.7114 -0.2090 -0.0756
   57SAPC  H12B 4148   3.598   5.586   7.012  0.5233  0.7783  0.1425
   57SAPC   C13 4149   3.676   5.808   7.096  0.6032 -0.7153 -0.0261
   57SAPC  H13A 4150   3.681   5.775   7.198  1.1638 -1.1340 -0.1858
   57SAPC  H13B 4151   3.743   5.740   7.046 -0.8606 -2.3289  0.1217
   57SAPC  H13C 4152   3.705   5.911   7.079  4.9139 -1.2877  2.3823
   57SAPC   C14 4153   3.525   5.844   6.905  0.7217 -0.0743 -0.3241
   57SAPC  H14A 4154   3.536   5.951   6.909 -1.4757  0.1957 -0.1369
   57SAPC  H14B 4155   3.611   5.820   6.844  0.6780 -3.3659  0.7285
   57SAPC  H14C 4156   3.437   5.810   6.852 -0.5091  1.2890  0.7588
   57SAPC   C15 4157   3.438   5.854   7.133  0.3926  0.0001 -0.0748
   57SAPC  H15A 4158   3.336   5.822   7.114  0.6999 -0.8981 -0.2665
   57SAPC  H15B 4159   3.462   5.815   7.230 -0.4807  1.0725  0.5960
   57SAPC  H15C 4160   3.449   5.960   7.120  1.4919 -0.0082  0.6427
   57SAPC   C11 4161   3.393   5.584   6.939  0.6678 -0.5825 -0.5786
   57SAPC  H11A 4162   3.394   5.473   6.945  0.5319 -0.5610 -0.0889
   57SAPC  H11B 4163   3.416   5.605   6.833  1.8518  2.0832  0.1425
   57SAPC     P 4164   3.157   5.688   6.870  0.2995  0.0461  0.4877
   57SAPC   O13 4165   3.088   5.569   6.816  0.2710  0.0094  0.2861
   57SAPC   O14 4166   3.068   5.790   6.936 -0.3413  0.5981  0.8438
   57SAPC   O12 4167   3.264   5.642   6.983  0.0335  0.6050  0.3219
   57SAPC   O11 4168   3.242   5.762   6.760 -0.6050 -0.3332  0.2495
   57SAPC    C1 4169   3.236   5.904   6.743 -0.1900 -0.1521  0.0273
   57SAPC    HA 4170   3.229   5.960   6.838 -2.6189 -0.8309  0.3299
   57SAPC    HB 4171   3.331   5.943   6.701 -0.7731  0.2242 -0.9664
   57SAPC    C2 4172   3.106   5.953   6.664 -0.0196  0.4787 -0.1627
   57SAPC    HS 4173   3.022   5.928   6.732  0.2877 -2.5215 -0.7482
   57SAPC   O21 4174   3.096   5.886   6.535 -0.6352 -0.0717  0.2888
   57SAPC   C21 4175   2.979   5.858   6.494  0.3881 -0.4379  0.2498
   57SAPC   O22 4176   2.870   5.874   6.554 -0.1435  0.4858  0.2232
   57SAPC   C22 4177   3.000   5.814   6.359 -0.5302  0.0866  0.8789
   57SAPC   H2R 4178   2.926   5.853   6.287  1.0731  1.2820 -0.1973
   57SAPC   H2S 4179   3.094   5.846   6.308 -1.9246  0.5854 -1.5179
   57SAPC    C3 4180   3.095   6.102   6.639 -0.5728  0.8437 -0.5509
   57SAPC    HX 4181   3.071   6.155   6.734  1.9452 -0.3657  0.8549
   57SAPC    HY 4182   3.015   6.114   6.562 -0.9960 -0.0045 -0.2596
   57SAPC   O31 4183   3.223   6.145   6.594  0.2349  0.0183  0.7980
   57SAPC   C31 4184   3.240   6.156   6.460  0.2482  1.0366  1.0493
   57SAPC   O32 4185   3.152   6.132   6.375  0.0544  0.3024 -0.5429
   57SAPC   C32 4186   3.387   6.184   6.423  0.4283  0.4306 -0.5802
   57SAPC   H2X 4187   3.449   6.097   6.453  0.3754  0.5139 -0.2267
   57SAPC   H2Y 4188   3.420   6.268   6.489  0.9904 -0.2626  0.0371
   57SAPC   C23 4189   2.987   5.659   6.346 -0.2430 -0.9613  0.0200
   57SAPC   H3R 4190   2.885   5.631   6.380 -0.6795  1.6095  1.0433
   57SAPC   H3S 4191   3.050   5.605   6.420  0.4190 -2.0970 -1.3219
   57SAPC   C24 4192   3.007   5.616   6.197 -0.5272  0.3351 -0.1286
   57SAPC   H4R 4193   3.101   5.659   6.156  0.8062 -0.8707  1.5436
   57SAPC   H4S 4194   2.927   5.640   6.124 -0.0486 -2.1227 -1.5721
   57SAPC   C25 4195   3.034   5.467   6.195 -1.1322  0.2556 -0.2570
   57SAPC   H5R 4196   3.050   5.419   6.293  0.7792  0.2191 -0.5593
   57SAPC   C26 4197   3.020   5.398   6.083 -0.1283  0.4795 -0.0491
   57SAPC   H6R 4198   3.028   5.289   6.087 -2.2351  0.3235  1.8458
   57SAPC   C27 4199   2.974   5.446   5.952 -0.0817  0.2570 -0.0164
   57SAPC   H7R 4200   2.996   5.370   5.874  1.9886 -2.7963  3.1933
   57SAPC   H7S 4201   3.017   5.544   5.923 -1.1009  1.3777  2.0271
   57SAPC   C28 4202   2.824   5.456   5.933 -0.3403 -0.1565 -0.6207
   57SAPC   H8R 4203   2.760   5.436   6.019  1.7115  0.5932  1.1902
   57SAPC   C29 4204   2.773   5.496   5.815 -0.2970 -0.5466  0.3800
   57SAPC   H9R 4205   2.665   5.515   5.803 -0.3533  0.9834  2.6772
   57SAPC  C210 4206   2.849   5.532   5.687  0.2016  0.0295  0.5589
   57SAPC  H10R 4207   2.958   5.522   5.704  0.2257  1.0779  1.1004
   57SAPC  H10S 4208   2.831   5.639   5.665  0.8937  0.1663  0.6346
   57SAPC  C211 4209   2.820   5.442   5.572 -0.3576  0.5092  0.3060
   57SAPC  H11R 4210   2.897   5.364   5.560  0.8491  1.4989  1.3762
   57SAPC  C212 4211   2.731   5.455   5.470 -0.2578  0.5303 -0.0386
   57SAPC  H12R 4212   2.746   5.392   5.382  0.7947  1.9709 -0.9465
   57SAPC  C213 4213   2.644   5.570   5.445  0.1124 -0.4397 -0.1370
   57SAPC  H13R 4214   2.682   5.656   5.504  0.9933 -0.0359 -1.2551
   57SAPC  H13S 4215   2.540   5.555   5.479 -0.1414  0.6294 -0.4095
   57SAPC  C214 4216   2.640   5.617   5.299  0.1838  0.4231  0.2950
   57SAPC  H14R 4217   2.547   5.618   5.241  2.6694  0.6515 -4.1235
   57SAPC  C215 4218   2.748   5.654   5.225 -0.0057  0.3645  0.5910
   57SAPC  H15R 4219   2.747   5.667   5.116 -0.3301 -1.3928  0.3622
   57SAPC  C216 4220   2.892   5.678   5.272  1.0129 -0.7976 -0.2416
   57SAPC  H16R 4221   2.904   5.653   5.379  2.6544 -0.4946 -0.3359
   57SAPC  H16S 4222   2.919   5.785   5.264 -1.5912  0.2349  2.7553
   57SAPC  C217 4223   2.985   5.580   5.197 -0.3292  0.0686  0.0903
   57SAPC  H17R 4224   2.956   5.476   5.222 -1.1747  0.4636  0.7928
   57SAPC  H17S 4225   3.090   5.587   5.232  0.9902  0.0775 -3.4767
   57SAPC  C218 4226   2.994   5.597   5.039  0.0556  0.4079  0.2479
   57SAPC  H18R 4227   3.015   5.705   5.028  2.6612 -0.1098 -0.3814
   57SAPC  H18S 4228   2.899   5.573   4.987  0.0936 -0.3991  0.5277
   57SAPC  C219 4229   3.111   5.516   4.984 -0.3851 -0.0753 -0.4453
   57SAPC  H19R 4230   3.201   5.524   5.049  0.1541  1.6421 -1.3425
   57SAPC  H19S 4231   3.149   5.563   4.891 -0.4576 -1.2701 -1.0954
   57SAPC  C220 4232   3.076   5.367   4.985 -0.3304 -0.4132  0.4570
   57SAPC  H20R 4233   3.003   5.340   4.905 -1.9046 -1.8894  2.3011
   57SAPC  H20S 4234   3.040   5.328   5.082  2.4651 -3.0895  0.5862
   57SAPC  H20T 4235   3.169   5.308   4.972  0.1500  0.7303 -1.9892
   57SAPC   C33 4236   3.411   6.209   6.277 -0.3700  0.6374 -0.3302
   57SAPC   H3X 4237   3.384   6.122   6.213 -0.1231  0.4173 -0.1363
   57SAPC   H3Y 4238   3.520   6.223   6.261  0.6900 -1.9964  3.2989
   57SAPC   C34 4239   3.345   6.324   6.201 -0.0623 -0.3659  0.5764
   57SAPC   H4X 4240   3.253   6.348   6.258  0.2984 -0.4153  1.1868
   57SAPC   H4Y 4241   3.320   6.292   6.097  1.5543  1.2968 -0.3807
   57SAPC   C35 4242   3.424   6.452   6.173  0.2673  1.1115 -0.4325
   57SAPC   H5X 4243   3.518   6.425   6.119 -0.7693  1.7240 -2.6855
   57SAPC   H5Y 4244   3.459   6.480   6.274 -1.6801 -1.4179  1.0773
   57SAPC   C36 4245   3.347   6.562   6.106  0.3610  0.0220 -0.1251
   57SAPC   H6X 4246   3.404   6.656   6.122 -0.0521  0.4103 -0.9028
   57SAPC   H6Y 4247   3.250   6.561   6.161  1.0924 -0.3152  1.2142
   57SAPC   C37 4248   3.319   6.538   5.955  0.2118 -0.3211  0.3559
   57SAPC   H7X 4249   3.248   6.455   5.936 -0.7334  0.6662 -0.5817
   57SAPC   H7Y 4250   3.411   6.511   5.899  0.4874 -1.9706  1.5301
   57SAPC   C38 4251   3.264   6.662   5.894  0.3036  0.3012 -0.4099
   57SAPC   H8X 4252   3.339   6.744   5.897 -0.1878  0.7454 -0.0470
   57SAPC   H8Y 4253   3.177   6.691   5.957 -0.6802  1.4271 -2.1641
   57SAPC   C39 4254   3.235   6.648   5.742 -0.3867 -0.9601 -0.3009
   57SAPC   H9X 4255   3.151   6.580   5.716 -2.4309  1.4139 -0.2716
   57SAPC   H9Y 4256   3.319   6.594   5.693  0.7404 -1.5099  2.0808
   57SAPC  C310 4257   3.215   6.783   5.675 -0.2232  0.5488  0.1660
   57SAPC  H10X 4258   3.295   6.854   5.704 -0.7154  0.5518  1.6015
   57SAPC  H10Y 4259   3.127   6.838   5.716 -0.8900 -1.5742  1.7510
   57SAPC  C311 4260   3.202   6.786   5.519  0.4391  0.1467  0.0690
   57SAPC  H11X 4261   3.219   6.892   5.491 -0.2290 -0.0827 -1.2849
   57SAPC  H11Y 4262   3.095   6.765   5.497 -1.1075  4.9153  1.7846
   57SAPC  C312 4263   3.304   6.703   5.438 -0.3710 -0.3195  0.1247
   57SAPC  H12X 4264   3.278   6.595   5.442  0.2343 -0.8367 -4.6380
   57SAPC  H12Y 4265   3.399   6.714   5.495 -0.1743 -0.5249 -0.1575
   57SAPC  C313 4266   3.314   6.759   5.300 -0.4624 -0.4453  0.3183
   57SAPC  H13X 4267   3.353   6.862   5.287  4.1664 -2.0357 -0.2066
   57SAPC  H13Y 4268   3.211   6.747   5.259  0.6901  1.4089 -3.6178
   57SAPC  C314 4269   3.410   6.666   5.218  0.9564  0.8383 -0.1847
   57SAPC  H14X 4270   3.376   6.562   5.236  0.3305  0.6556 -2.2051
   57SAPC  H14Y 4271   3.513   6.688   5.254  1.2997  0.3181 -0.8343
   57SAPC  C315 4272   3.403   6.675   5.063 -0.5673 -0.7507 -0.3983
   57SAPC  H15X 4273   3.297   6.681   5.029 -0.9682 -0.5899  0.8450
   57SAPC  H15Y 4274   3.455   6.586   5.023 -1.6689 -1.4525 -0.3111
   57SAPC  C316 4275   3.481   6.799   5.008 -0.4018  0.3910  0.2336
   57SAPC  H16X 4276   3.588   6.796   5.038  0.4031  0.9169 -2.3280
   57SAPC  H16Y 4277   3.430   6.892   5.043  0.7091 -0.1585  3.6698
   57SAPC  C317 4278   3.509   6.809   4.853  0.0992  0.4653 -0.2946
   57SAPC  H17X 4279   3.555   6.715   4.816  0.4681  1.9063 -3.8426
   57SAPC  H17Y 4280   3.583   6.890   4.834  1.9823 -1.2913 -0.8086
   57SAPC  C318 4281   3.378   6.824   4.766 -0.6745 -0.8204  0.4191
   57SAPC  H18X 4282   3.415   6.812   4.662 -1.2448  2.8185 -0.3348
   57SAPC  H18Y 4283   3.323   6.921   4.773 -0.0819 -0.5719  2.3337
   57SAPC  H18Z 4284   3.308   6.741   4.791  1.1161 -2.3759  0.4865
   58SAPC     N 4285   6.376   6.013   6.886  0.2988 -0.5316  0.2918
   58SAPC   C12 4286   6.424   6.147   6.830 -0.3790 -0.5474 -0.5461
   58SAPC  H12A 4287   6.371   6.230   6.874  1.3157  0.5877 -0.5761
   58SAPC  H12B 4288   6.410   6.158   6.724 -1.4263  0.1633 -0.3478
   58SAPC   C13 4289   6.455   5.901   6.824  0.1780  0.7887 -0.4883
   58SAPC  H13A 4290   6.460   5.904   6.716 -1.2160  0.6792 -0.5758
   58SAPC  H13B 4291   6.556   5.900   6.862  0.6905  0.3540 -1.8107
   58SAPC  H13C 4292   6.419   5.802   6.846  1.8549  0.4667  1.0678
   58SAPC   C14 4293   6.369   6.009   7.034 -0.2349  0.0153  0.0449
   58SAPC  H14A 4294   6.330   5.913   7.063 -0.6981 -0.4352 -1.9518
   58SAPC  H14B 4295   6.471   6.025   7.066  0.7468 -1.7738 -1.9855
   58SAPC  H14C 4296   6.304   6.088   7.069 -2.7911 -1.4005 -1.2565
   58SAPC   C15 4297   6.229   5.993   6.844 -0.5439 -0.2884 -0.3195
   58SAPC  H15A 4298   6.185   5.904   6.888 -1.2711  0.5976  0.7789
   58SAPC  H15B 4299   6.175   6.081   6.875  1.9833  1.4476 -0.4887
   58SAPC  H15C 4300   6.221   6.001   6.737  0.4260  0.3604 -0.3585
   58SAPC   C11 4301   6.570   6.189   6.862  1.7649  0.7238  0.8251
   58SAPC  H11A 4302   6.583   6.183   6.972 -0.8215 -0.3176  1.1481
   58SAPC  H11B 4303   6.586   6.294   6.831 -1.0651  0.8494 -0.5226
   58SAPC     P 4304   6.710   6.121   6.661  0.0475  0.0294  0.4048
   58SAPC   O13 4305   6.777   6.252   6.654 -0.2373 -0.1908 -0.0809
   58SAPC   O14 4306   6.792   6.007   6.620 -0.2897  0.0762 -0.5301
   58SAPC   O12 4307   6.667   6.104   6.809 -0.1542 -0.0470  0.1049
   58SAPC   O11 4308   6.571   6.119   6.585  0.0071  0.1385 -0.6646
   58SAPC    C1 4309   6.564   6.177   6.456  0.3273 -0.6081 -0.8367
   58SAPC    HA 4310   6.648   6.246   6.432  1.5395 -1.6480  0.2200
   58SAPC    HB 4311   6.564   6.105   6.372 -1.7529  1.7981 -3.0609
   58SAPC    C2 4312   6.437   6.263   6.436 -1.1995  0.2824 -0.1591
   58SAPC    HS 4313   6.356   6.204   6.483 -1.0626  0.8349  0.7975
   58SAPC   O21 4314   6.424   6.297   6.302 -0.0510  0.2103  0.0270
   58SAPC   C21 4315   6.368   6.203   6.226  0.8181  1.2752 -0.1732
   58SAPC   O22 4316   6.333   6.093   6.259 -0.3460 -0.6551  0.3273
   58SAPC   C22 4317   6.338   6.265   6.085  0.1826  0.7352 -0.4782
   58SAPC   H2R 4318   6.258   6.340   6.105 -0.9479 -0.9541  1.7969
   58SAPC   H2S 4319   6.436   6.303   6.049  0.6864 -2.1464 -2.4355
   58SAPC    C3 4320   6.445   6.388   6.523  0.5026  0.3124 -0.4574
   58SAPC    HX 4321   6.544   6.437   6.511  0.2838  0.8855 -0.0080
   58SAPC    HY 4322   6.445   6.358   6.630  1.2353  2.7780  0.3006
   58SAPC   O31 4323   6.326   6.474   6.503 -0.3140 -0.0821  0.1768
   58SAPC   C31 4324   6.355   6.608   6.497  0.9173  0.0256 -0.1302
   58SAPC   O32 4325   6.464   6.647   6.522 -0.0530  0.2944  0.7519
   58SAPC   C32 4326   6.242   6.689   6.440  0.1703 -0.5658  1.0549
   58SAPC   H2X 4327   6.198   6.762   6.512 -1.1151  3.0920 -3.0293
   58SAPC   H2Y 4328   6.157   6.618   6.430 -0.2876 -0.1345  1.8217
   58SAPC   C23 4329   6.300   6.148   5.989  0.2740  0.2948  0.2708
   58SAPC   H3R 4330   6.203   6.106   6.023  1.7714 -0.9302  3.5120
   58SAPC   H3S 4331   6.377   6.069   6.002  2.2649  1.3872 -3.4592
   58SAPC   C24 4332   6.307   6.183   5.838 -0.9973 -0.6744  0.4042
   58SAPC   H4R 4333   6.292   6.087   5.783  1.8673 -3.4073  3.8667
   58SAPC   H4S 4334   6.413   6.215   5.827 -0.2064 -3.1536  0.1484
   58SAPC   C25 4335   6.218   6.297   5.786 -0.2099 -0.4480  0.0389
   58SAPC   H5R 4336   6.147   6.352   5.851 -1.8747 -2.1589 -0.2285
   58SAPC   C26 4337   6.201   6.323   5.649 -0.3000 -0.6323 -0.2553
   58SAPC   H6R 4338   6.125   6.394   5.614  0.8699  0.3265 -0.9401
   58SAPC   C27 4339   6.270   6.248   5.536  0.4259  0.0148  0.4984
   58SAPC   H7R 4340   6.376   6.220   5.549  0.8631  0.3317 -1.8788
   58SAPC   H7S 4341   6.286   6.319   5.452 -0.5211 -0.2355  0.0865
   58SAPC   C28 4342   6.190   6.132   5.485  0.3835  0.1426 -0.4446
   58SAPC   H8R 4343   6.193   6.044   5.551 -2.1405 -0.5593 -1.1233
   58SAPC   C29 4344   6.119   6.132   5.369  0.1682 -0.8148 -0.8712
   58SAPC   H9R 4345   6.058   6.044   5.343 -0.8776  0.1542 -1.7862
   58SAPC  C210 4346   6.105   6.254   5.276  0.2715 -0.1436  0.3446
   58SAPC  H10R 4347   6.131   6.350   5.325  2.2859  0.2758 -1.4389
   58SAPC  H10S 4348   5.999   6.274   5.250  0.6743 -1.7266 -3.0245
   58SAPC  C211 4349   6.167   6.222   5.143 -0.5886  0.0866 -0.0225
   58SAPC  H11R 4350   6.250   6.149   5.142 -0.5557  0.1281 -0.9632
   58SAPC  C212 4351   6.119   6.252   5.022  0.1060 -0.0550 -0.2123
   58SAPC  H12R 4352   6.173   6.223   4.930 -0.7285  1.7260 -1.3275
   58SAPC  C213 4353   5.999   6.334   4.993  0.1148  0.4825  0.4486
   58SAPC  H13R 4354   6.003   6.430   5.048  1.2576  1.4647 -1.2436
   58SAPC  H13S 4355   5.915   6.267   5.021  0.3075  0.0655  0.0411
   58SAPC  C214 4356   5.982   6.374   4.845  0.1333 -0.1597  0.0431
   58SAPC  H14R 4357   6.066   6.362   4.775 -0.3691 -0.6182 -0.4876
   58SAPC  C215 4358   5.866   6.419   4.787  0.4130  0.2578 -0.3117
   58SAPC  H15R 4359   5.864   6.441   4.680  0.3373  0.3788 -0.2858
   58SAPC  C216 4360   5.748   6.458   4.866  0.3217  0.1540 -0.5093
   58SAPC  H16R 4361   5.777   6.492   4.968  0.1005  0.8890 -0.6925
   58SAPC  H16S 4362   5.679   6.373   4.887 -1.4408  1.4461 -0.9110
   58SAPC  C217 4363   5.666   6.567   4.797 -0.4700  0.7915  0.5512
   58SAPC  H17R 4364   5.633   6.524   4.700  1.9222 -1.4868  0.6400
   58SAPC  H17S 4365   5.728   6.658   4.783  0.2344  1.0601  4.3600
   58SAPC  C218 4366   5.539   6.597   4.874  0.1546 -0.0494 -0.6517
   58SAPC  H18R 4367   5.511   6.703   4.857  0.0844 -0.1518 -1.1989
   58SAPC  H18S 4368   5.551   6.590   4.984  0.3365 -1.1255 -0.7287
   58SAPC  C219 4369   5.421   6.515   4.830  0.2438 -0.2547  0.4823
   58SAPC  H19R 4370   5.444   6.410   4.856 -0.1091 -0.2978  0.6273
   58SAPC  H19S 4371   5.408   6.507   4.720 -1.2456 -1.8892  0.7239
   58SAPC  C220 4372   5.289   6.556   4.886 -0.1025  0.6937 -0.3065
   58SAPC  H20R 4373   5.285   6.520   4.991  2.4304 -0.1217 -0.4057
   58SAPC  H20S 4374   5.207   6.505   4.832  0.8622  1.1620 -2.3330
   58SAPC  H20T 4375   5.262   6.663   4.878 -2.1928  0.2141 -0.1200
   58SAPC   C33 4376   6.269   6.752   6.304  0.0007 -0.1336 -0.1314
   58SAPC   H3X 4377   6.358   6.818   6.300 -0.0112  0.0357  1.5341
   58SAPC   H3Y 4378   6.180   6.815   6.281 -1.3867 -1.8128  0.3975
   58SAPC   C34 4379   6.279   6.655   6.179 -0.5298  0.6001  0.4845
   58SAPC   H4X 4380   6.181   6.604   6.175 -1.2236  1.9152  0.0503
   58SAPC   H4Y 4381   6.355   6.575   6.192  1.1587  1.9804 -0.4396
   58SAPC   C35 4382   6.310   6.730   6.049  0.6109 -0.9792  0.0760
   58SAPC   H5X 4383   6.420   6.747   6.042  0.3956  0.5056  0.0513
   58SAPC   H5Y 4384   6.275   6.835   6.060  1.2864 -0.5272 -1.6950
   58SAPC   C36 4385   6.254   6.661   5.928  0.7693 -0.3491  0.7797
   58SAPC   H6X 4386   6.147   6.637   5.945  0.2942  0.7345 -0.5166
   58SAPC   H6Y 4387   6.313   6.567   5.922  1.1486 -0.0540 -3.1449
   58SAPC   C37 4388   6.268   6.745   5.800  0.2728  0.9785  1.0289
   58SAPC   H7X 4389   6.376   6.771   5.792 -0.0671  2.6407  1.4027
   58SAPC   H7Y 4390   6.208   6.839   5.803 -0.4580  0.6920 -2.1047
   58SAPC   C38 4391   6.242   6.674   5.676  0.0839  0.2557  0.3577
   58SAPC   H8X 4392   6.133   6.654   5.669  0.4947 -2.9432  1.2336
   58SAPC   H8Y 4393   6.276   6.568   5.676 -4.9759 -1.6383  0.0691
   58SAPC   C39 4394   6.286   6.742   5.544 -0.7063  0.8997 -0.3606
   58SAPC   H9X 4395   6.397   6.749   5.546 -0.7063  1.0665 -0.8086
   58SAPC   H9Y 4396   6.253   6.846   5.526  0.3082  0.7628 -3.7620
   58SAPC  C310 4397   6.250   6.652   5.425  0.1475  0.1544  0.2457
   58SAPC  H10X 4398   6.141   6.629   5.426  0.0865  0.4266  1.6968
   58SAPC  H10Y 4399   6.300   6.553   5.433 -1.8681 -0.9586 -0.3271
   58SAPC  C311 4400   6.298   6.720   5.296 -1.1213 -0.3212  0.0765
   58SAPC  H11X 4401   6.407   6.741   5.308 -0.2141 -3.2878 -1.8160
   58SAPC  H11Y 4402   6.235   6.810   5.285 -0.5964  0.5147  2.9861
   58SAPC  C312 4403   6.286   6.624   5.175  0.6376 -0.1377 -0.4936
   58SAPC  H12X 4404   6.177   6.601   5.171  0.9889 -1.7830 -1.2503
   58SAPC  H12Y 4405   6.320   6.523   5.205 -0.0939 -0.6779 -1.4263
   58SAPC  C313 4406   6.339   6.675   5.047  0.2867  0.1860  0.1367
   58SAPC  H13X 4407   6.449   6.680   5.064 -0.2216  1.1605  4.2483
   58SAPC  H13Y 4408   6.298   6.777   5.037  0.6286  0.6706  2.8245
   58SAPC  C314 4409   6.301   6.598   4.912 -0.5441  0.3777 -0.6232
   58SAPC  H14X 4410   6.192   6.594   4.891 -0.6235 -3.1258 -0.0358
   58SAPC  H14Y 4411   6.338   6.494   4.923 -0.8032  0.3800  0.3833
   58SAPC  C315 4412   6.364   6.654   4.783 -0.0147  0.1077 -0.2253
   58SAPC  H15X 4413   6.350   6.588   4.695  1.4669  1.8418 -1.8469
   58SAPC  H15Y 4414   6.472   6.664   4.805 -0.0655  1.7810 -0.6259
   58SAPC  C316 4415   6.308   6.795   4.749 -0.0507 -0.6258 -0.6927
   58SAPC  H16X 4416   6.362   6.822   4.656 -0.7721 -0.0904 -0.9666
   58SAPC  H16Y 4417   6.349   6.857   4.832  3.4721 -1.6900 -1.4457
   58SAPC  C317 4418   6.153   6.810   4.752 -0.7356  0.2469 -0.5757
   58SAPC  H17X 4419   6.127   6.814   4.860 -2.0670  2.5631 -0.9313
   58SAPC  H17Y 4420   6.117   6.715   4.706  0.2921 -0.5734  0.2300
   58SAPC  C318 4421   6.098   6.936   4.677  0.1629  0.5364  0.6149
   58SAPC  H18X 4422   6.127   6.935   4.569  0.6307 -2.2275  0.7136
   58SAPC  H18Y 4423   6.130   7.032   4.723  2.3727  0.3254 -0.3166
   58SAPC  H18Z 4424   5.987   6.942   4.681  0.1248 -0.4559  1.4432
   59SAPC     N 4425   1.038   2.211   7.092  0.3890 -0.1284  0.2149
   59SAPC   C12 4426   1.022   2.155   6.951  0.0981 -0.3094  0.1931
   59SAPC  H12A 4427   0.951   2.074   6.947 -0.9766  0.4880  2.0174
   59SAPC  H12B 4428   1.118   2.118   6.919  0.1630  0.2299 -0.2466
   59SAPC   C13 4429   1.119   2.120   7.173 -0.7079 -0.4935 -0.2209
   59SAPC  H13A 4430   1.218   2.100   7.134 -1.8263 -0.9801 -3.0427
   59SAPC  H13B 4431   1.128   2.149   7.277  1.2405  0.7595 -0.6832
   59SAPC  H13C 4432   1.074   2.022   7.176 -2.7374  0.4112  0.4931
   59SAPC   C14 4433   1.096   2.345   7.081  0.2241  0.7860 -0.4826
   59SAPC  H14A 4434   1.041   2.406   7.011  0.3422  0.5185 -0.8151
   59SAPC  H14B 4435   1.100   2.406   7.169  3.0799 -1.2364  0.9323
   59SAPC  H14C 4436   1.200   2.345   7.051  0.2749  0.5064 -0.3139
   59SAPC   C15 4437   0.903   2.222   7.158 -0.1375 -0.0109  0.3998
   59SAPC  H15A 4438   0.833   2.141   7.141 -3.0180  2.5675 -0.8332
   59SAPC  H15B 4439   0.914   2.249   7.262  0.1706 -0.5664  0.5173
   59SAPC  H15C 4440   0.843   2.296   7.107 -1.6584 -0.9482  0.7450
   59SAPC   C11 4441   0.966   2.246   6.836 -0.5987  0.2459 -0.6032
   59SAPC  H11A 4442   0.972   2.180   6.746 -0.8611 -2.1037  0.9972
   59SAPC  H11B 4443   1.046   2.321   6.819  4.3713 -4.6616 -1.8983
   59SAPC     P 4444   0.710   2.204   6.856 -0.1629 -0.1152 -0.0142
   59SAPC   O13 4445   0.724   2.086   6.942 -0.2172 -0.3975 -0.3507
   59SAPC   O14 4446   0.583   2.281   6.873  0.1297  0.0140  0.0501
   59SAPC   O12 4447   0.839   2.303   6.857  0.4205 -0.3704  0.0147
   59SAPC   O11 4448   0.722   2.155   6.711 -0.1451 -0.7661  0.6202
   59SAPC    C1 4449   0.735   2.251   6.603 -0.2841 -0.1937 -0.5158
   59SAPC    HA 4450   0.646   2.316   6.618 -2.0152 -2.6821  0.6373
   59SAPC    HB 4451   0.828   2.311   6.595 -1.2495  1.2527 -1.2241
   59SAPC    C2 4452   0.699   2.183   6.468 -0.3639  0.8236  0.5474
   59SAPC    HS 4453   0.710   2.258   6.386 -0.4241 -0.9650 -1.1543
   59SAPC   O21 4454   0.570   2.118   6.480 -0.3790  0.0319  0.0932
   59SAPC   C21 4455   0.471   2.191   6.436  0.3680 -0.1100  0.3727
   59SAPC   O22 4456   0.484   2.302   6.382 -0.1075  0.2413  0.7136
   59SAPC   C22 4457   0.351   2.103   6.439  0.3281 -0.1395  0.0949
   59SAPC   H2R 4458   0.346   2.067   6.544 -2.6216 -0.0945  0.0482
   59SAPC   H2S 4459   0.253   2.152   6.422  1.0634  1.5066  0.4177
   59SAPC    C3 4460   0.806   2.071   6.436  0.1725  0.7636 -0.5843
   59SAPC    HX 4461   0.784   1.989   6.508  1.1311 -0.1713 -1.3189
   59SAPC    HY 4462   0.906   2.110   6.465 -0.4020  0.7811  1.5170
   59SAPC   O31 4463   0.803   2.032   6.297 -0.7826  0.2370 -0.5183
   59SAPC   C31 4464   0.715   1.932   6.265 -0.5148  0.0128 -0.1368
   59SAPC   O32 4465   0.665   1.861   6.354 -0.5784  0.6992 -0.1399
   59SAPC   C32 4466   0.692   1.917   6.117 -0.3431 -0.7557  0.2691
   59SAPC   H2X 4467   0.789   1.925   6.063 -0.6351 -0.5198 -0.2274
   59SAPC   H2Y 4468   0.614   1.987   6.082 -0.3519 -0.0279  1.6689
   59SAPC   C23 4469   0.357   1.986   6.334  0.0259  0.6814 -0.0692
   59SAPC   H3R 4470   0.448   1.923   6.323 -0.3935 -0.1142  0.8280
   59SAPC   H3S 4471   0.345   2.033   6.234 -0.1560  1.7540  0.4480
   59SAPC   C24 4472   0.243   1.882   6.359 -0.4727 -0.2119  0.1718
   59SAPC   H4R 4473   0.226   1.833   6.261 -4.4453 -0.7621  0.9667
   59SAPC   H4S 4474   0.145   1.927   6.384 -0.1631  0.6163 -0.0838
   59SAPC   C25 4475   0.293   1.776   6.458 -0.3350  0.2064  0.3388
   59SAPC   H5R 4476   0.286   1.819   6.559 -1.5643  1.3582 -0.1997
   59SAPC   C26 4477   0.344   1.652   6.426 -0.4903  0.2116  0.0400
   59SAPC   H6R 4478   0.375   1.589   6.510  0.0520  3.0400  2.1230
   59SAPC   C27 4479   0.368   1.604   6.288  0.9329  0.3614  1.2123
   59SAPC   H7R 4480   0.462   1.548   6.268  0.3147 -0.6266  1.0587
   59SAPC   H7S 4481   0.386   1.691   6.221  2.1917 -0.0389  0.9943
   59SAPC   C28 4482   0.249   1.519   6.246 -0.1293  0.6632  0.1749
   59SAPC   H8R 4483   0.200   1.464   6.328 -0.0257 -0.3232 -0.4120
   59SAPC   C29 4484   0.201   1.503   6.118  0.4385 -0.8739  0.7185
   59SAPC   H9R 4485   0.113   1.441   6.098 -1.1346  1.5676 -0.5291
   59SAPC  C210 4486   0.250   1.575   5.990 -0.4459  0.6798  0.1954
   59SAPC  H10R 4487   0.269   1.499   5.911  0.2547  1.4877 -0.4254
   59SAPC  H10S 4488   0.354   1.608   6.007  0.4263 -2.2905  1.2503
   59SAPC  C211 4489   0.160   1.687   5.941 -0.6574 -0.2247 -0.5007
   59SAPC  H11R 4490   0.103   1.738   6.020  0.9506  1.7439 -0.5154
   59SAPC  C212 4491   0.150   1.738   5.817  0.0355 -0.7961 -0.0856
   59SAPC  H12R 4492   0.062   1.802   5.798 -0.0222 -0.7584  0.2964
   59SAPC  C213 4493   0.236   1.690   5.698 -0.1399 -0.8661 -0.4276
   59SAPC  H13R 4494   0.179   1.604   5.655 -0.2857 -1.1702  0.3516
   59SAPC  H13S 4495   0.323   1.650   5.754  0.2737  3.8568  2.9180
   59SAPC  C214 4496   0.264   1.811   5.612 -0.3416  0.4374  0.2064
   59SAPC  H14R 4497   0.352   1.867   5.648 -0.1898  0.3294  0.0102
   59SAPC  C215 4498   0.197   1.845   5.501 -1.4875  0.3377  0.1167
   59SAPC  H15R 4499   0.238   1.936   5.454  0.4673 -1.0695 -1.0341
   59SAPC  C216 4500   0.076   1.786   5.444  0.0769 -0.3813 -0.6594
   59SAPC  H16R 4501  -0.006   1.862   5.442 -0.9427 -1.4413 -0.0519
   59SAPC  H16S 4502   0.037   1.711   5.516  0.8518  0.5338  0.7722
   59SAPC  C217 4503   0.088   1.734   5.301  0.2313  0.3932  0.3306
   59SAPC  H17R 4504   0.163   1.653   5.300  1.0214  1.0985  0.9942
   59SAPC  H17S 4505   0.121   1.818   5.236 -0.8627  1.2582  0.8467
   59SAPC  C218 4506  -0.050   1.673   5.251 -0.2581  0.1281  0.5939
   59SAPC  H18R 4507  -0.136   1.743   5.252 -0.7316 -0.4510  1.1434
   59SAPC  H18S 4508  -0.075   1.593   5.323 -0.2798 -1.5698 -1.2308
   59SAPC  C219 4509  -0.028   1.607   5.114 -0.3653  0.4116 -0.3027
   59SAPC  H19R 4510   0.055   1.535   5.130 -1.8331 -1.4876 -0.8917
   59SAPC  H19S 4511   0.009   1.686   5.045 -0.1855  0.1773 -0.4755
   59SAPC  C220 4512  -0.142   1.520   5.060 -0.3631 -0.0163 -0.4058
   59SAPC  H20R 4513  -0.237   1.576   5.065 -1.5838 -2.0341  0.3749
   59SAPC  H20S 4514  -0.160   1.436   5.131 -2.0306  1.2084  0.6942
   59SAPC  H20T 4515  -0.118   1.481   4.959  0.2024  1.3886 -0.8380
   59SAPC   C33 4516   0.648   1.780   6.070 -0.3085  0.4295 -0.3246
   59SAPC   H3X 4517   0.558   1.750   6.127  1.2534 -0.0701  2.0159
   59SAPC   H3Y 4518   0.718   1.695   6.084 -0.8737  0.2160  1.3945
   59SAPC   C34 4519   0.610   1.772   5.917 -0.3024  0.1273 -0.4031
   59SAPC   H4X 4520   0.506   1.806   5.900 -0.3939  0.2585  0.3918
   59SAPC   H4Y 4521   0.609   1.662   5.902 -2.6806 -0.0962  1.0005
   59SAPC   C35 4522   0.702   1.851   5.828 -0.2301  1.0819 -0.2052
   59SAPC   H5X 4523   0.808   1.819   5.839 -0.2601  0.8008 -0.7093
   59SAPC   H5Y 4524   0.695   1.959   5.855 -1.1857  0.6618  1.3396
   59SAPC   C36 4525   0.684   1.828   5.674 -0.2772  0.0811 -0.0605
   59SAPC   H6X 4526   0.579   1.859   5.656 -0.6306 -1.2145 -0.3223
   59SAPC   H6Y 4527   0.704   1.724   5.641  1.0129  0.7030 -1.2929
   59SAPC   C37 4528   0.778   1.928   5.606  0.4130 -0.2821 -0.3831
   59SAPC   H7X 4529   0.878   1.884   5.626 -0.0528 -0.6268  1.4311
   59SAPC   H7Y 4530   0.771   2.033   5.641 -3.2279 -0.6740  0.5610
   59SAPC   C38 4531   0.767   1.941   5.449  0.4117 -0.2720  0.4517
   59SAPC   H8X 4532   0.661   1.967   5.431  0.0303 -0.0165  2.7710
   59SAPC   H8Y 4533   0.776   1.833   5.425 -1.7903 -0.7179  1.3910
   59SAPC   C39 4534   0.861   2.035   5.363  0.2022  0.1350 -0.6884
   59SAPC   H9X 4535   0.969   2.020   5.381  0.2044  0.3312 -0.5280
   59SAPC   H9Y 4536   0.826   2.138   5.389 -1.3436  0.7889 -4.5601
   59SAPC  C310 4537   0.838   2.025   5.213  0.7315 -0.2799 -0.4413
   59SAPC  H10X 4538   0.882   2.114   5.164 -0.9476  1.3263  0.8412
   59SAPC  H10Y 4539   0.730   2.025   5.187 -0.1384 -1.2068  2.7208
   59SAPC  C311 4540   0.899   1.903   5.155 -0.6004  0.4786  0.2262
   59SAPC  H11X 4541   0.892   1.809   5.214  0.7976 -1.0043 -1.7885
   59SAPC  H11Y 4542   1.005   1.935   5.163 -0.4304  0.3503 -1.1734
   59SAPC  C312 4543   0.860   1.868   5.007  0.1085  0.0602 -0.6975
   59SAPC  H12X 4544   0.851   1.964   4.950 -0.8407  0.2197 -0.3005
   59SAPC  H12Y 4545   0.757   1.828   5.016  0.8069 -1.1972  4.3020
   59SAPC  C313 4546   0.941   1.748   4.949 -0.3213  0.0574  0.1857
   59SAPC  H13X 4547   0.928   1.655   5.008  0.0284  0.3730  0.7819
   59SAPC  H13Y 4548   1.049   1.775   4.948 -0.3219  0.0522 -0.0876
   59SAPC  C314 4549   0.907   1.704   4.810  0.6828 -0.3437  0.2898
   59SAPC  H14X 4550   0.808   1.654   4.823 -0.8683  3.0023  2.7119
   59SAPC  H14Y 4551   0.982   1.627   4.779 -1.0110 -1.1746 -2.0573
   59SAPC  C315 4552   0.892   1.813   4.703 -0.1817  0.3549 -0.0220
   59SAPC  H15X 4553   0.991   1.861   4.691  0.8135 -2.0551 -2.5009
   59SAPC  H15Y 4554   0.825   1.891   4.746 -0.8870  0.0319 -0.5042
   59SAPC  C316 4555   0.849   1.763   4.562  0.1074 -0.0415 -0.2133
   59SAPC  H16X 4556   0.815   1.851   4.503 -0.5527  1.2661  2.0098
   59SAPC  H16Y 4557   0.765   1.691   4.566 -0.0499  0.1397 -0.2423
   59SAPC  C317 4558   0.967   1.701   4.485 -0.1040 -0.1322  0.0181
   59SAPC  H17X 4559   1.017   1.629   4.553  1.6904  0.4595 -0.6070
   59SAPC  H17Y 4560   1.040   1.780   4.460 -0.0001  0.0638  0.9017
   59SAPC  C318 4561   0.931   1.640   4.350 -0.6032  0.0855 -0.4249
   59SAPC  H18X 4562   0.850   1.563   4.355 -1.6604  1.1380 -0.7154
   59SAPC  H18Y 4563   1.018   1.596   4.297  0.5991 -0.9056  2.1883
   59SAPC  H18Z 4564   0.890   1.725   4.291 -1.3172 -1.3871 -2.1462
   60SAPC     N 4565   6.600   2.600   7.053 -0.3507  0.4904 -1.0215
   60SAPC   C12 4566   6.694   2.657   6.957  0.3186  0.6307  0.8917
   60SAPC  H12A 4567   6.787   2.673   7.009  0.2758  1.1915  0.8061
   60SAPC  H12B 4568   6.667   2.751   6.911 -0.2725  0.3544  0.6550
   60SAPC   C13 4569   6.642   2.454   7.067  0.3742 -0.1962 -0.4128
   60SAPC  H13A 4570   6.569   2.397   7.123  1.5171 -0.6188  0.6771
   60SAPC  H13B 4571   6.657   2.417   6.966  0.3394  0.8503 -0.8198
   60SAPC  H13C 4572   6.738   2.441   7.114  1.4671 -0.2061 -2.5036
   60SAPC   C14 4573   6.606   2.670   7.180  0.1153  0.0290  0.0609
   60SAPC  H14A 4574   6.567   2.770   7.172 -0.8418 -0.4000 -0.9043
   60SAPC  H14B 4575   6.534   2.620   7.243  1.8000 -1.4381  0.8916
   60SAPC  H14C 4576   6.696   2.654   7.237  0.4722  0.9765 -0.2291
   60SAPC   C15 4577   6.467   2.612   6.993  0.6619 -0.4324 -0.1202
   60SAPC  H15A 4578   6.399   2.549   7.049 -0.1141 -0.0646 -0.6369
   60SAPC  H15B 4579   6.426   2.711   7.000  0.9543 -0.3958  1.5855
   60SAPC  H15C 4580   6.469   2.587   6.888  0.6972  0.4073 -0.3264
   60SAPC   C11 4581   6.720   2.568   6.836 -0.0654  0.3398 -0.3992
   60SAPC  H11A 4582   6.744   2.627   6.745  0.7874  1.0756  0.2810
   60SAPC  H11B 4583   6.630   2.508   6.812  0.0343 -0.9040  2.0252
   60SAPC     P 4584   6.977   2.544   6.881  0.6698 -0.6870  0.0523
   60SAPC   O13 4585   6.979   2.628   7.001  0.8397 -0.0935  0.3627
   60SAPC   O14 4586   7.082   2.441   6.867  0.0534 -0.1989  0.0507
   60SAPC   O12 4587   6.832   2.479   6.851  0.2179 -0.1711  0.2525
   60SAPC   O11 4588   7.001   2.636   6.754 -0.0664  0.0810  0.2144
   60SAPC    C1 4589   7.050   2.597   6.628  0.3736 -0.0024  1.0021
   60SAPC    HA 4590   7.148   2.643   6.604 -0.2395  1.4008  1.0854
   60SAPC    HB 4591   7.055   2.487   6.612 -0.5108  0.2945 -1.9684
   60SAPC    C2 4592   6.960   2.657   6.520  0.1855  0.0829  0.2975
   60SAPC    HS 4593   6.855   2.624   6.529  0.2280 -0.7396 -1.7394
   60SAPC   O21 4594   7.003   2.611   6.394  0.3639  0.2608 -0.3310
   60SAPC   C21 4595   6.940   2.500   6.351  0.2824 -0.0156 -0.0020
   60SAPC   O22 4596   6.849   2.441   6.411 -0.3707  0.6488 -0.4180
   60SAPC   C22 4597   6.996   2.451   6.222  0.4362 -0.7848 -0.2639
   60SAPC   H2R 4598   7.090   2.508   6.204  0.9683 -1.1351  1.2500
   60SAPC   H2S 4599   7.015   2.341   6.222 -0.3539 -0.9258 -0.1726
   60SAPC    C3 4600   6.960   2.814   6.516 -0.0527  0.3142  0.4157
   60SAPC    HX 4601   7.060   2.847   6.482 -1.1374  3.1703 -0.3153
   60SAPC    HY 4602   6.955   2.854   6.619  0.7885 -0.8648  0.9348
   60SAPC   O31 4603   6.851   2.868   6.437 -0.2954 -0.3438  0.1525
   60SAPC   C31 4604   6.851   2.999   6.439  0.4429  0.2822  0.4871
   60SAPC   O32 4605   6.937   3.066   6.488  0.1954 -0.4948 -0.2063
   60SAPC   C32 4606   6.726   3.048   6.354  0.0925  0.1701 -0.2937
   60SAPC   H2X 4607   6.650   3.066   6.432  1.2848  1.6507  0.5798
   60SAPC   H2Y 4608   6.686   2.960   6.300  1.7053 -1.6810  1.3578
   60SAPC   C23 4609   6.891   2.474   6.106 -0.0483 -0.4067 -0.3282
   60SAPC   H3R 4610   6.804   2.405   6.112  0.7996 -1.5803 -1.0650
   60SAPC   H3S 4611   6.938   2.436   6.013  1.3433  0.2956  0.0664
   60SAPC   C24 4612   6.839   2.618   6.088 -0.2816 -0.2701  0.1427
   60SAPC   H4R 4613   6.803   2.651   6.188  0.8614 -0.4195  0.6194
   60SAPC   H4S 4614   6.755   2.619   6.015  1.7789 -1.4062 -2.4318
   60SAPC   C25 4615   6.958   2.703   6.049  0.2351  0.6975 -0.6701
   60SAPC   H5R 4616   7.033   2.723   6.128 -1.1041 -0.2493  0.9031
   60SAPC   C26 4617   6.977   2.743   5.928 -0.1099  0.1508  0.7816
   60SAPC   H6R 4618   7.071   2.798   5.912  0.8806 -1.3002  1.3728
   60SAPC   C27 4619   6.891   2.718   5.801  0.0015  0.6481  0.0138
   60SAPC   H7R 4620   6.856   2.819   5.769  1.3888  0.8773 -0.9019
   60SAPC   H7S 4621   6.804   2.650   5.810 -0.2320  0.7001 -1.4838
   60SAPC   C28 4622   6.973   2.655   5.688 -0.3174  0.5899 -0.5865
   60SAPC   H8R 4623   7.043   2.579   5.727 -2.4746 -1.7917 -1.1256
   60SAPC   C29 4624   6.945   2.645   5.556  0.4363 -0.5238  0.4792
   60SAPC   H9R 4625   7.005   2.590   5.482  0.4199  2.2119 -1.7539
   60SAPC  C210 4626   6.825   2.714   5.498  0.3667  0.1912  0.5667
   60SAPC  H10R 4627   6.867   2.800   5.441  0.7698 -0.9191 -0.8748
   60SAPC  H10S 4628   6.752   2.760   5.568 -0.7097  0.6638 -0.8000
   60SAPC  C211 4629   6.749   2.627   5.398  0.7652  0.3335  0.0569
   60SAPC  H11R 4630   6.652   2.593   5.437  0.6258  0.8653  0.1844
   60SAPC  C212 4631   6.778   2.592   5.270  0.1497  0.3361  0.0815
   60SAPC  H12R 4632   6.718   2.520   5.212  0.8993  1.8254 -2.7360
   60SAPC  C213 4633   6.905   2.636   5.210 -0.3646  0.3926  0.2998
   60SAPC  H13R 4634   6.971   2.547   5.217 -0.8450  0.1288  2.2751
   60SAPC  H13S 4635   6.953   2.717   5.270  0.4060 -1.4242  2.2785
   60SAPC  C214 4636   6.888   2.687   5.066 -0.3204  0.0026  0.1508
   60SAPC  H14R 4637   6.855   2.792   5.069 -1.0883 -0.2263 -0.1842
   60SAPC  C215 4638   6.911   2.639   4.942 -0.8186 -0.1806  0.3515
   60SAPC  H15R 4639   6.887   2.711   4.862 -3.6157 -1.5123 -0.1225
   60SAPC  C216 4640   6.957   2.503   4.907  0.1293 -0.1423  0.0436
   60SAPC  H16R 4641   6.971   2.431   4.990 -0.6683 -1.4770 -0.9504
   60SAPC  H16S 4642   7.054   2.521   4.856 -0.1322 -0.0537 -0.4243
   60SAPC  C217 4643   6.865   2.454   4.795 -0.5327 -0.5888  0.6975
   60SAPC  H17R 4644   6.862   2.535   4.720  0.6632 -0.7275  0.4857
   60SAPC  H17S 4645   6.762   2.430   4.829 -1.3873 -0.6641 -1.8182
   60SAPC  C218 4646   6.913   2.325   4.720  0.3598  0.0397 -0.7936
   60SAPC  H18R 4647   6.933   2.247   4.797 -1.9230 -0.5443 -0.7268
   60SAPC  H18S 4648   7.012   2.341   4.671 -0.2152 -0.3692 -2.1445
   60SAPC  C219 4649   6.811   2.276   4.614  0.3000 -0.3567  0.1475
   60SAPC  H19R 4650   6.710   2.255   4.655  0.2114  0.0959  0.1657
   60SAPC  H19S 4651   6.844   2.184   4.561 -1.1873  0.6832 -2.7999
   60SAPC  C220 4652   6.801   2.380   4.503 -0.3399  0.7093  0.7949
   60SAPC  H20R 4653   6.898   2.402   4.453 -1.4070  0.5696 -1.4434
   60SAPC  H20S 4654   6.743   2.468   4.541 -0.9066  2.2117 -3.1322
   60SAPC  H20T 4655   6.741   2.342   4.418  1.2667 -1.3253  0.5021
   60SAPC   C33 4656   6.764   3.165   6.261  0.3011  0.2959  0.1464
   60SAPC   H3X 4657   6.842   3.235   6.300  1.4302 -0.7964 -0.1068
   60SAPC   H3Y 4658   6.667   3.217   6.248 -0.5571 -0.5659  2.4961
   60SAPC   C34 4659   6.801   3.110   6.126 -0.1473  0.0136 -0.8605
   60SAPC   H4X 4660   6.708   3.071   6.079 -0.6332  0.1516 -0.0532
   60SAPC   H4Y 4661   6.878   3.030   6.132  2.0546  1.9725 -1.5624
   60SAPC   C35 4662   6.858   3.221   6.033 -0.1395 -0.3629  0.0167
   60SAPC   H5X 4663   6.959   3.255   6.065  0.3814  1.2340 -2.9939
   60SAPC   H5Y 4664   6.788   3.307   6.031 -0.3042 -0.5061 -1.1190
   60SAPC   C36 4665   6.865   3.178   5.886  0.1739  0.0657 -0.8710
   60SAPC   H6X 4666   6.931   3.089   5.876 -0.5649 -0.2877 -3.0887
   60SAPC   H6Y 4667   6.899   3.268   5.829 -0.1399 -1.4476 -3.6263
   60SAPC   C37 4668   6.732   3.139   5.826 -0.3259 -0.2428 -0.4361
   60SAPC   H7X 4669   6.664   3.219   5.862  1.3995  0.0127  2.6032
   60SAPC   H7Y 4670   6.704   3.039   5.866 -0.0068  0.8772  2.9025
   60SAPC   C38 4671   6.730   3.143   5.670  0.3869 -0.0906 -0.4809
   60SAPC   H8X 4672   6.807   3.072   5.635  0.2666  0.6270 -2.2985
   60SAPC   H8Y 4673   6.767   3.245   5.646  1.3841 -0.1597  0.6732
   60SAPC   C39 4674   6.591   3.106   5.609 -0.4621 -0.1160 -0.6010
   60SAPC   H9X 4675   6.534   3.201   5.611 -1.1171 -0.5175  1.1045
   60SAPC   H9Y 4676   6.541   3.031   5.675  2.0729 -0.3417  1.2177
   60SAPC  C310 4677   6.606   3.063   5.466 -0.3189  0.0347  0.5408
   60SAPC  H10X 4678   6.680   2.980   5.466 -0.0895  0.2369  0.5527
   60SAPC  H10Y 4679   6.638   3.157   5.417 -0.7771  1.3766  2.6839
   60SAPC  C311 4680   6.477   3.021   5.401 -0.3104  0.4017 -0.9488
   60SAPC  H11X 4681   6.408   3.107   5.388 -0.9970 -0.4185 -3.1230
   60SAPC  H11Y 4682   6.420   2.950   5.465 -0.3331  0.4447 -0.9208
   60SAPC  C312 4683   6.494   2.964   5.265  0.0367  0.5133 -0.0474
   60SAPC  H12X 4684   6.391   2.957   5.224 -0.8514  3.0395  1.4751
   60SAPC  H12Y 4685   6.533   2.861   5.277 -0.8784  0.3279  1.7861
   60SAPC  C313 4686   6.577   3.043   5.164  0.4923 -0.3384 -0.2956
   60SAPC  H13X 4687   6.683   3.049   5.196  0.6905  0.9445 -1.1372
   60SAPC  H13Y 4688   6.548   3.150   5.171 -2.0526 -1.0429  1.1325
   60SAPC  C314 4689   6.566   2.990   5.027  0.5274  0.7809 -0.4469
   60SAPC  H14X 4690   6.467   3.009   4.980 -0.7212  0.7820  2.0429
   60SAPC  H14Y 4691   6.569   2.879   5.036  1.1782  0.6950 -1.5608
   60SAPC  C315 4692   6.686   3.035   4.938  0.1308 -0.4517  0.1205
   60SAPC  H15X 4693   6.775   3.012   5.000  2.6032 -0.5542 -3.2391
   60SAPC  H15Y 4694   6.687   3.142   4.910 -0.0652 -0.4019  0.2944
   60SAPC  C316 4695   6.691   2.953   4.805 -0.6153 -0.1465 -0.4069
   60SAPC  H16X 4696   6.597   2.971   4.748 -1.2363 -2.3192 -0.1715
   60SAPC  H16Y 4697   6.703   2.846   4.835 -0.6000 -0.2231 -0.6898
   60SAPC  C317 4698   6.814   2.974   4.723 -1.0843  0.2607 -0.2972
   60SAPC  H17X 4699   6.905   2.946   4.781  0.0451 -0.2520 -2.2258
   60SAPC  H17Y 4700   6.822   3.084   4.710  1.0488  0.2743  0.8564
   60SAPC  C318 4701   6.823   2.893   4.590 -0.0860  0.3246  0.6388
   60SAPC  H18X 4702   6.926   2.909   4.552  0.3142  0.7656  1.8691
   60SAPC  H18Y 4703   6.759   2.938   4.511  1.5715 -0.1194 -1.0253
   60SAPC  H18Z 4704   6.805   2.788   4.623  1.0742 -1.0133 -2.6055
   61SAPC     N 4705   6.465   1.942   6.791  0.3233  0.1014 -0.6767
   61SAPC   C12 4706   6.458   1.985   6.646 -0.1897  0.0101  0.2148
   61SAPC  H12A 4707   6.498   1.903   6.589 -2.3582 -1.1648  0.2867
   61SAPC  H12B 4708   6.521   2.073   6.642  1.3397 -0.5844  4.7275
   61SAPC   C13 4709   6.607   1.931   6.830  0.7675  0.5248 -1.3122
   61SAPC  H13A 4710   6.601   1.879   6.924  0.1182  2.8417  0.0054
   61SAPC  H13B 4711   6.672   1.875   6.764  2.1217 -1.0916  1.2091
   61SAPC  H13C 4712   6.643   2.033   6.835 -0.6471  0.9835  1.5342
   61SAPC   C14 4713   6.406   2.042   6.885 -0.0730  0.0507  0.0764
   61SAPC  H14A 4714   6.389   1.996   6.982 -1.0019 -1.0331 -0.5835
   61SAPC  H14B 4715   6.459   2.135   6.902  1.0345 -0.6078  0.3408
   61SAPC  H14C 4716   6.307   2.067   6.851 -0.8320 -2.2247  0.4857
   61SAPC   C15 4717   6.395   1.809   6.817 -0.1046 -0.0631  0.6532
   61SAPC  H15A 4718   6.437   1.732   6.754 -0.0888  1.2963 -1.0813
   61SAPC  H15B 4719   6.396   1.791   6.923 -1.0821  1.6861  1.0039
   61SAPC  H15C 4720   6.292   1.820   6.785 -0.1962 -0.4932  0.8056
   61SAPC   C11 4721   6.314   2.006   6.578 -0.4997  0.2587  0.2549
   61SAPC  H11A 4722   6.329   2.026   6.470 -1.8049 -1.3779 -0.2844
   61SAPC  H11B 4723   6.265   2.093   6.627 -0.0616 -0.5461  2.2143
   61SAPC     P 4724   6.260   1.761   6.497 -0.0769  0.1642 -0.2605
   61SAPC   O13 4725   6.406   1.741   6.474  0.5106 -0.4028 -0.5907
   61SAPC   O14 4726   6.187   1.648   6.565 -0.2825 -0.3787 -0.3378
   61SAPC   O12 4727   6.236   1.885   6.591 -0.1101  0.2549 -0.0777
   61SAPC   O11 4728   6.180   1.798   6.358 -0.4085 -0.1069  0.9476
   61SAPC    C1 4729   6.117   1.705   6.274 -0.7530  0.2471 -0.0523
   61SAPC    HA 4730   6.067   1.625   6.332 -0.1490  1.1367  1.7671
   61SAPC    HB 4731   6.047   1.765   6.212 -0.5501 -0.1427 -0.6679
   61SAPC    C2 4732   6.216   1.641   6.163 -0.2806 -0.0527 -0.1349
   61SAPC    HS 4733   6.299   1.598   6.224  1.3897  1.0799 -1.5202
   61SAPC   O21 4734   6.241   1.747   6.074 -0.6282  0.5390 -0.6017
   61SAPC   C21 4735   6.363   1.789   6.058  0.6977  0.1872  0.2270
   61SAPC   O22 4736   6.465   1.722   6.076  0.0221 -0.1744 -0.3786
   61SAPC   C22 4737   6.359   1.937   6.013 -0.2012  0.6498 -0.2362
   61SAPC   H2R 4738   6.300   1.932   5.919  0.7532  0.8316 -0.8515
   61SAPC   H2S 4739   6.307   1.972   6.105  1.5009  0.9156  0.6555
   61SAPC    C3 4740   6.145   1.529   6.081 -0.6244 -0.0648  0.0546
   61SAPC    HX 4741   6.054   1.565   6.028 -1.4069 -0.5369  1.0316
   61SAPC    HY 4742   6.094   1.464   6.156 -0.5150 -0.5979 -0.3201
   61SAPC   O31 4743   6.237   1.470   5.985  0.3133 -0.1685 -0.1165
   61SAPC   C31 4744   6.321   1.378   6.024 -1.0244 -0.3597  0.0856
   61SAPC   O32 4745   6.328   1.335   6.139  0.8013  0.3982  0.2008
   61SAPC   C32 4746   6.417   1.331   5.910  0.6004  0.3808  0.3642
   61SAPC   H2X 4747   6.474   1.246   5.953  0.5337  0.0298 -0.2224
   61SAPC   H2Y 4748   6.496   1.406   5.889  0.6617  0.3362  0.4343
   61SAPC   C23 4749   6.487   2.025   6.005  0.0281 -0.4556  0.5785
   61SAPC   H3R 4750   6.443   2.121   5.969 -0.0703 -0.6977  0.0546
   61SAPC   H3S 4751   6.547   1.985   5.921  0.2026 -0.7155  0.8293
   61SAPC   C24 4752   6.563   2.056   6.135 -0.6325 -0.1811  0.4950
   61SAPC   H4R 4753   6.492   2.075   6.218 -0.9206  0.1855  0.1657
   61SAPC   H4S 4754   6.603   2.157   6.114 -0.2815 -0.4582 -0.2059
   61SAPC   C25 4755   6.667   1.953   6.180 -0.3043 -0.1037  0.4986
   61SAPC   H5R 4756   6.626   1.856   6.212 -2.3276  1.1172  1.9072
   61SAPC   C26 4757   6.803   1.963   6.195  0.3310 -0.6305 -0.1579
   61SAPC   H6R 4758   6.858   1.881   6.243 -0.6086 -0.7970  0.6864
   61SAPC   C27 4759   6.885   2.084   6.160 -0.7131  0.1897 -0.0985
   61SAPC   H7R 4760   6.943   2.121   6.247 -1.3148  0.0930  0.3451
   61SAPC   H7S 4761   6.822   2.162   6.114  0.4957  0.7888 -0.7923
   61SAPC   C28 4762   6.978   2.048   6.046 -0.3239 -0.1240 -0.2664
   61SAPC   H8R 4763   7.076   2.018   6.087  0.1917  0.7260 -0.8384
   61SAPC   C29 4764   6.974   2.071   5.911 -0.0678  0.4703  0.1790
   61SAPC   H9R 4765   7.058   2.050   5.844 -1.1042 -0.4470 -0.8837
   61SAPC  C210 4766   6.851   2.106   5.833 -0.5066 -0.4475 -0.9170
   61SAPC  H10R 4767   6.757   2.107   5.892  0.1656  1.0508  0.1682
   61SAPC  H10S 4768   6.834   2.018   5.766  0.4841 -1.2457 -0.1576
   61SAPC  C211 4769   6.853   2.242   5.771 -0.1878  0.2127 -0.7730
   61SAPC  H11R 4770   6.854   2.325   5.844  1.4752 -0.0879 -0.4065
   61SAPC  C212 4771   6.838   2.273   5.644 -0.5146  0.7889 -0.0784
   61SAPC  H12R 4772   6.879   2.366   5.602  0.7395  0.7323  0.9484
   61SAPC  C213 4773   6.820   2.172   5.535 -0.1854  0.3365  0.3077
   61SAPC  H13R 4774   6.892   2.088   5.545  0.5290  1.0547  1.3804
   61SAPC  H13S 4775   6.831   2.225   5.437 -1.6780  0.5591  0.2350
   61SAPC  C214 4776   6.680   2.116   5.541 -0.1851 -0.2784  0.6155
   61SAPC  H14R 4777   6.662   2.050   5.628  1.2429  0.7911  1.7757
   61SAPC  C215 4778   6.590   2.130   5.440  0.1998 -0.4400 -0.5027
   61SAPC  H15R 4779   6.496   2.073   5.448 -0.9477  1.2710 -1.2725
   61SAPC  C216 4780   6.606   2.189   5.302  0.0621 -0.0749  0.1623
   61SAPC  H16R 4781   6.714   2.190   5.275 -0.1031 -0.8912 -0.5707
   61SAPC  H16S 4782   6.557   2.288   5.301  0.6708  0.2240 -0.1710
   61SAPC  C217 4783   6.542   2.096   5.195  0.5288 -0.3007 -0.0791
   61SAPC  H17R 4784   6.431   2.092   5.208  0.5561  2.0856  1.6531
   61SAPC  H17S 4785   6.573   1.994   5.227  1.0388  0.4847  2.1435
   61SAPC  C218 4786   6.586   2.140   5.055 -0.2397  0.3428  0.2165
   61SAPC  H18R 4787   6.538   2.238   5.038  0.4393  0.7379  0.5044
   61SAPC  H18S 4788   6.555   2.067   4.977  0.4766  0.4592 -0.1948
   61SAPC  C219 4789   6.731   2.154   5.029 -0.0641 -1.4227 -0.1605
   61SAPC  H19R 4790   6.770   2.234   5.095 -0.3182 -0.5770 -1.0082
   61SAPC  H19S 4791   6.755   2.197   4.929 -0.2316  1.6563  1.0088
   61SAPC  C220 4792   6.817   2.031   5.050 -0.1186 -0.8204 -0.1395
   61SAPC  H20R 4793   6.805   2.005   5.158 -1.2211  0.7693  0.1539
   61SAPC  H20S 4794   6.925   2.047   5.028 -0.3848  1.6931  0.1327
   61SAPC  H20T 4795   6.770   1.951   4.989 -1.9573  0.8840 -1.0533
   61SAPC   C33 4796   6.330   1.280   5.791 -0.4682 -0.6280  0.3066
   61SAPC   H3X 4797   6.256   1.360   5.768  0.9345  0.0022 -2.4608
   61SAPC   H3Y 4798   6.280   1.188   5.827  1.0698 -1.5408  0.1984
   61SAPC   C34 4799   6.435   1.262   5.676  0.0142 -0.5332 -0.0695
   61SAPC   H4X 4800   6.522   1.206   5.715  0.4048  1.0461  1.4247
   61SAPC   H4Y 4801   6.478   1.360   5.649  0.9539 -0.8770  0.1432
   61SAPC   C35 4802   6.370   1.202   5.564 -0.0213  1.4156 -0.5423
   61SAPC   H5X 4803   6.260   1.222   5.565 -0.6983 -1.8326  1.5776
   61SAPC   H5Y 4804   6.376   1.092   5.575  0.2918  1.5567  0.8879
   61SAPC   C36 4805   6.435   1.230   5.423 -0.2493  0.4136 -0.2147
   61SAPC   H6X 4806   6.543   1.213   5.442 -0.7551 -0.1047  2.6535
   61SAPC   H6Y 4807   6.421   1.337   5.396 -0.6376  0.0334 -1.5882
   61SAPC   C37 4808   6.382   1.134   5.312  0.8582 -0.0795  0.5175
   61SAPC   H7X 4809   6.295   1.176   5.257  0.3171 -0.0955  1.3289
   61SAPC   H7Y 4810   6.359   1.041   5.370  0.9436 -1.0392 -0.9486
   61SAPC   C38 4811   6.494   1.092   5.203 -0.8711  0.0173  0.0416
   61SAPC   H8X 4812   6.584   1.064   5.263  0.3658  0.3602 -1.5865
   61SAPC   H8Y 4813   6.511   1.181   5.139  1.9893 -2.5702 -3.2670
   61SAPC   C39 4814   6.445   0.986   5.104  0.2028 -0.2673  0.6164
   61SAPC   H9X 4815   6.373   0.932   5.170 -0.4313  0.2944  0.3933
   61SAPC   H9Y 4816   6.532   0.927   5.067  1.2710  1.6807 -0.1358
   61SAPC  C310 4817   6.358   1.046   4.986  0.0148  0.5587  0.0237
   61SAPC  H10X 4818   6.289   1.124   5.025  0.3503  0.4970  0.7770
   61SAPC  H10Y 4819   6.298   0.959   4.953 -0.4227  0.1167  1.8736
   61SAPC  C311 4820   6.435   1.115   4.869  0.3612 -0.1545 -0.2370
   61SAPC  H11X 4821   6.504   1.037   4.830 -0.1609 -0.5552 -0.3756
   61SAPC  H11Y 4822   6.480   1.211   4.902 -1.5107  0.7054 -0.0549
   61SAPC  C312 4823   6.324   1.145   4.761 -0.4700  0.0244 -0.1475
   61SAPC  H12X 4824   6.239   1.182   4.821  0.5693 -0.4271  1.6907
   61SAPC  H12Y 4825   6.306   1.050   4.706 -1.9681  1.2712 -1.9186
   61SAPC  C313 4826   6.377   1.241   4.647 -0.6489 -0.1467  0.4487
   61SAPC  H13X 4827   6.319   1.234   4.553 -1.4503  2.3704  0.6831
   61SAPC  H13Y 4828   6.480   1.202   4.629 -0.7015  0.1005 -0.3983
   61SAPC  C314 4829   6.376   1.388   4.689 -0.0827 -0.0291 -0.0316
   61SAPC  H14X 4830   6.430   1.385   4.786  1.8389 -0.4956 -1.0645
   61SAPC  H14Y 4831   6.272   1.429   4.695  0.0330  0.3818 -0.7075
   61SAPC  C315 4832   6.466   1.483   4.607  0.3014  1.3329  0.2756
   61SAPC  H15X 4833   6.453   1.484   4.497  1.0376  2.5528  0.1802
   61SAPC  H15Y 4834   6.572   1.456   4.627  0.5730  1.1146 -1.3187
   61SAPC  C316 4835   6.457   1.630   4.652  0.2731  0.8047  0.1290
   61SAPC  H16X 4836   6.348   1.649   4.656 -0.0369 -1.0331  2.1439
   61SAPC  H16Y 4837   6.509   1.693   4.576  2.5657  0.1200  1.0379
   61SAPC  C317 4838   6.531   1.657   4.786  0.0838 -0.6005  0.5856
   61SAPC  H17X 4839   6.633   1.640   4.746  0.0089  0.1532  0.0470
   61SAPC  H17Y 4840   6.503   1.583   4.864 -2.5053 -1.6770 -1.2390
   61SAPC  C318 4841   6.524   1.805   4.821 -0.5108  0.2242  0.1347
   61SAPC  H18X 4842   6.529   1.864   4.727 -3.2986  0.4880  0.0679
   61SAPC  H18Y 4843   6.612   1.844   4.876 -0.1507 -0.3811 -0.0063
   61SAPC  H18Z 4844   6.430   1.833   4.875  0.6880  0.2196  2.3560
   62SAPC     N 4845   4.559   4.867   6.949 -0.0531  0.7742  0.0566
   62SAPC   C12 4846   4.482   4.975   6.867  0.0282  0.2365 -0.3893
   62SAPC  H12A 4847   4.465   5.053   6.939 -2.3662 -1.1853  0.7129
   62SAPC  H12B 4848   4.383   4.938   6.842 -0.3778  1.5913 -0.8516
   62SAPC   C13 4849   4.670   4.933   7.024 -0.2628  0.6731  0.1739
   62SAPC  H13A 4850   4.726   5.000   6.959 -1.0719  2.4562  1.2375
   62SAPC  H13B 4851   4.638   4.998   7.104 -2.8036  1.2805 -1.1985
   62SAPC  H13C 4852   4.731   4.867   7.082 -0.8085  1.3338  1.5398
   62SAPC   C14 4853   4.455   4.804   7.044 -0.0260  0.6016 -0.7514
   62SAPC  H14A 4854   4.427   4.879   7.117  0.2026  0.4541 -0.5119
   62SAPC  H14B 4855   4.364   4.777   6.993 -1.4923  3.6027  0.0145
   62SAPC  H14C 4856   4.479   4.716   7.102 -1.8848 -0.5593 -1.6354
   62SAPC   C15 4857   4.612   4.775   6.845  0.1669  0.6637 -0.0933
   62SAPC  H15A 4858   4.664   4.701   6.903  1.8466  1.0036 -1.0788
   62SAPC  H15B 4859   4.530   4.727   6.794 -0.0838 -0.5667  1.3868
   62SAPC  H15C 4860   4.695   4.820   6.793  1.8060 -1.6210  0.4020
   62SAPC   C11 4861   4.552   5.052   6.756  0.1012  0.0083  0.8602
   62SAPC  H11A 4862   4.484   5.121   6.702  0.7236 -0.0631 -0.0514
   62SAPC  H11B 4863   4.591   4.984   6.677 -1.8609  1.4691 -1.5350
   62SAPC     P 4864   4.634   5.268   6.882 -0.3122  0.3848  0.2446
   62SAPC   O13 4865   4.515   5.269   6.964 -0.1376 -0.2379  0.2243
   62SAPC   O14 4866   4.762   5.318   6.945  0.3210  0.3080  0.4668
   62SAPC   O12 4867   4.662   5.120   6.821  0.3210  0.1236 -0.1591
   62SAPC   O11 4868   4.600   5.350   6.758  0.0351 -0.0952  0.6208
   62SAPC    C1 4869   4.705   5.360   6.656  0.5233 -0.5869 -1.0012
   62SAPC    HA 4870   4.810   5.361   6.689 -0.0802  0.7844  1.0100
   62SAPC    HB 4871   4.695   5.286   6.573  0.8079 -1.7907  0.0012
   62SAPC    C2 4872   4.695   5.509   6.593  0.4894 -0.8094  0.4051
   62SAPC    HS 4873   4.649   5.570   6.674 -3.1447 -4.0682  1.1133
   62SAPC   O21 4874   4.602   5.504   6.476  0.1962 -0.2084 -0.7099
   62SAPC   C21 4875   4.542   5.620   6.461 -0.0240 -0.4626  0.3262
   62SAPC   O22 4876   4.562   5.729   6.511  0.1234  0.3947  0.3686
   62SAPC   C22 4877   4.437   5.597   6.348 -0.3714  0.5718 -0.3217
   62SAPC   H2R 4878   4.381   5.507   6.380 -0.9044  1.1280  0.3428
   62SAPC   H2S 4879   4.365   5.682   6.348 -0.2807  0.7261  2.3614
   62SAPC    C3 4880   4.835   5.578   6.560  0.5652  0.0070  0.6899
   62SAPC    HX 4881   4.899   5.559   6.649  1.4347  2.1861  0.5955
   62SAPC    HY 4882   4.833   5.687   6.535 -1.2411 -0.6041 -2.2812
   62SAPC   O31 4883   4.890   5.503   6.455 -0.1138  0.1797 -0.0098
   62SAPC   C31 4884   4.904   5.566   6.331 -0.3082  0.7965 -0.1788
   62SAPC   O32 4885   4.877   5.680   6.308 -0.5428  0.1805 -0.1455
   62SAPC   C32 4886   4.953   5.453   6.230 -0.3060 -0.7545  0.3818
   62SAPC   H2X 4887   5.062   5.430   6.240 -0.5962 -2.8833 -0.8288
   62SAPC   H2Y 4888   4.943   5.499   6.130  0.5453  1.0685  1.0778
   62SAPC   C23 4889   4.499   5.559   6.210  0.3844  0.1875 -0.5808
   62SAPC   H3R 4890   4.431   5.480   6.170  0.1500 -0.7772  1.6173
   62SAPC   H3S 4891   4.595   5.508   6.232  0.2107  0.4571  0.9143
   62SAPC   C24 4892   4.536   5.677   6.111  0.4773  0.2199  0.7899
   62SAPC   H4R 4893   4.606   5.748   6.160  1.6043 -1.3566  1.5498
   62SAPC   H4S 4894   4.443   5.729   6.082  0.4237 -1.1963 -1.7989
   62SAPC   C25 4895   4.604   5.625   5.991  0.4774  0.5457 -0.1395
   62SAPC   H5R 4896   4.708   5.592   6.003  0.6064  0.6162 -1.0237
   62SAPC   C26 4897   4.554   5.619   5.863  0.2615 -0.2208  0.6765
   62SAPC   H6R 4898   4.622   5.594   5.780 -0.4631 -1.9286  0.5491
   62SAPC   C27 4899   4.426   5.681   5.809  0.4376  0.5914  0.1343
   62SAPC   H7R 4900   4.354   5.708   5.889  1.5580  1.6834  0.8060
   62SAPC   H7S 4901   4.387   5.602   5.741  0.5019 -0.8166  1.6534
   62SAPC   C28 4902   4.451   5.809   5.734 -0.4233 -0.6768 -0.4551
   62SAPC   H8R 4903   4.504   5.883   5.797 -0.1033 -0.8435 -0.5301
   62SAPC   C29 4904   4.435   5.847   5.606  0.2813 -0.2404  0.4113
   62SAPC   H9R 4905   4.475   5.945   5.574 -1.8964  0.6168  0.0870
   62SAPC  C210 4906   4.375   5.764   5.497  1.1753 -0.2591  0.7948
   62SAPC  H10R 4907   4.275   5.729   5.530  0.4927  1.6406  0.9064
   62SAPC  H10S 4908   4.441   5.676   5.485  2.1121  0.4579  0.5920
   62SAPC  C211 4909   4.362   5.839   5.365  0.2379 -0.0367 -0.2417
   62SAPC  H11R 4910   4.363   5.949   5.376 -0.1124 -0.2246  2.4368
   62SAPC  C212 4911   4.344   5.789   5.244 -0.2388  0.1469  0.2777
   62SAPC  H12R 4912   4.341   5.857   5.158  1.4810 -1.1571 -0.8842
   62SAPC  C213 4913   4.328   5.641   5.214  0.0923  0.1290  0.0180
   62SAPC  H13R 4914   4.324   5.587   5.311 -0.4977  0.1189 -0.0065
   62SAPC  H13S 4915   4.424   5.623   5.162 -0.9898 -0.0389 -2.0171
   62SAPC  C214 4916   4.211   5.609   5.122  0.1249 -0.0477 -0.4969
   62SAPC  H14R 4917   4.111   5.587   5.164 -0.4201 -0.7748 -2.1143
   62SAPC  C215 4918   4.215   5.615   4.990  0.4764 -1.3129  0.2222
   62SAPC  H15R 4919   4.127   5.582   4.932 -1.2109  2.5740  0.2381
   62SAPC  C216 4920   4.328   5.644   4.897 -0.0838  0.5888 -0.4529
   62SAPC  H16R 4921   4.381   5.736   4.932  1.2483 -0.5541  0.6392
   62SAPC  H16S 4922   4.284   5.660   4.796  0.1427  1.6767 -0.3931
   62SAPC  C217 4923   4.412   5.511   4.889 -0.4421  0.7069  0.2660
   62SAPC  H17R 4924   4.461   5.492   4.987 -1.3646 -1.1952  0.4015
   62SAPC  H17S 4925   4.493   5.532   4.816 -2.0870 -2.2414 -2.6574
   62SAPC  C218 4926   4.346   5.385   4.839 -0.3135  0.3473 -0.2682
   62SAPC  H18R 4927   4.261   5.356   4.905 -1.1780  1.0594 -1.0360
   62SAPC  H18S 4928   4.427   5.311   4.854 -0.7097 -0.6821 -2.6694
   62SAPC  C219 4929   4.299   5.385   4.696 -0.4834  0.8424 -0.5516
   62SAPC  H19R 4930   4.364   5.440   4.624  2.1040 -1.9033 -0.5199
   62SAPC  H19S 4931   4.198   5.432   4.698 -0.4259  0.9402  1.3709
   62SAPC  C220 4932   4.292   5.235   4.651  0.5602 -0.1550  0.3391
   62SAPC  H20R 4933   4.393   5.193   4.635  0.8533  0.6026  0.1331
   62SAPC  H20S 4934   4.238   5.239   4.554  0.6198  1.1044  0.3417
   62SAPC  H20T 4935   4.228   5.185   4.727  1.0530 -1.0589  0.1651
   62SAPC   C33 4936   4.867   5.326   6.228  0.1327 -0.4858  0.3080
   62SAPC   H3X 4937   4.767   5.349   6.184  0.5542  0.8574  0.0183
   62SAPC   H3Y 4938   4.869   5.304   6.337  2.1539 -2.1157 -0.0017
   62SAPC   C34 4939   4.916   5.197   6.164  0.3336 -0.0908  0.0738
   62SAPC   H4X 4940   4.843   5.114   6.157  1.6767 -1.2737 -0.3234
   62SAPC   H4Y 4941   5.002   5.160   6.223  1.5632  2.5314  0.0702
   62SAPC   C35 4942   4.986   5.212   6.026 -0.3850  0.2093 -0.8097
   62SAPC   H5X 4943   5.027   5.109   6.017 -0.6350 -0.0924  1.1408
   62SAPC   H5Y 4944   5.070   5.283   6.040 -0.8705  0.1917  3.7382
   62SAPC   C36 4945   4.893   5.254   5.914 -0.0728 -0.2823  0.6650
   62SAPC   H6X 4946   4.828   5.338   5.946 -0.9144 -0.7840  0.3065
   62SAPC   H6Y 4947   4.826   5.170   5.887  1.0460 -0.9320 -0.1990
   62SAPC   C37 4948   4.955   5.286   5.777 -0.6591 -0.4990  0.0326
   62SAPC   H7X 4949   5.017   5.202   5.741 -1.5911 -1.5625  0.8427
   62SAPC   H7Y 4950   5.026   5.369   5.799 -0.0092 -0.9922 -0.2139
   62SAPC   C38 4951   4.854   5.331   5.677  0.6712 -0.2986  0.9773
   62SAPC   H8X 4952   4.806   5.426   5.710 -0.4693 -0.7763  0.7340
   62SAPC   H8Y 4953   4.763   5.268   5.680  0.2636  0.2884  1.0022
   62SAPC   C39 4954   4.922   5.337   5.537 -0.1406  0.4089  0.1733
   62SAPC   H9X 4955   4.970   5.238   5.521 -1.2581 -0.3348  1.2234
   62SAPC   H9Y 4956   5.006   5.410   5.534 -0.3408  0.6216 -2.8645
   62SAPC  C310 4957   4.829   5.363   5.424 -0.4074 -0.0503 -0.0387
   62SAPC  H10X 4958   4.802   5.470   5.423 -0.1562  0.0104 -0.6424
   62SAPC  H10Y 4959   4.731   5.311   5.425 -1.0198  1.0782  0.1630
   62SAPC  C311 4960   4.900   5.331   5.300 -0.4203  0.4140 -0.1001
   62SAPC  H11X 4961   4.948   5.230   5.301 -0.4989  0.3423 -1.4007
   62SAPC  H11Y 4962   4.987   5.397   5.278 -1.1462  2.0646  1.7652
   62SAPC  C312 4963   4.812   5.319   5.170 -0.4624  0.3632 -0.2779
   62SAPC  H12X 4964   4.759   5.416   5.160  0.1051  0.4825 -2.5573
   62SAPC  H12Y 4965   4.748   5.228   5.176  0.7076 -0.6993 -2.4549
   62SAPC  C313 4966   4.894   5.290   5.044 -0.3382  0.8894 -0.6486
   62SAPC  H13X 4967   4.825   5.236   4.976 -0.3882  0.9866 -0.6761
   62SAPC  H13Y 4968   4.976   5.218   5.065 -0.0252  1.3895 -0.0965
   62SAPC  C314 4969   4.942   5.419   4.978  0.0534  0.1108  0.1136
   62SAPC  H14X 4970   4.982   5.498   5.045 -0.2482 -0.1212  0.5749
   62SAPC  H14Y 4971   4.860   5.469   4.921  0.2879 -0.2834 -0.5841
   62SAPC  C315 4972   5.050   5.377   4.878  0.0152 -0.2354  0.8130
   62SAPC  H15X 4973   5.020   5.299   4.805  0.6582  0.3119 -0.0533
   62SAPC  H15Y 4974   5.131   5.334   4.941  1.1288  1.0814  0.3271
   62SAPC  C316 4975   5.098   5.494   4.789  0.7151  0.4373  0.5598
   62SAPC  H16X 4976   5.197   5.457   4.755  0.0948 -1.3993  0.6363
   62SAPC  H16Y 4977   5.112   5.590   4.844 -0.1782  0.6221  0.4786
   62SAPC  C317 4978   5.001   5.503   4.669  0.9480 -0.2662 -0.0881
   62SAPC  H17X 4979   4.894   5.490   4.697 -1.0947  4.2846 -4.1907
   62SAPC  H17Y 4980   5.018   5.411   4.609  0.0044  0.1634 -1.0546
   62SAPC  C318 4981   5.028   5.621   4.572  0.3835 -0.1365  0.3610
   62SAPC  H18X 4982   4.976   5.716   4.594 -2.0103 -1.2994  0.0318
   62SAPC  H18Y 4983   4.993   5.583   4.473  0.8795  3.5919 -1.4492
   62SAPC  H18Z 4984   5.139   5.634   4.572  0.4011 -0.2441  1.3919
   63SAPC     N 4985   5.925   3.606   7.304 -0.4476  0.2681 -0.0117
   63SAPC   C12 4986   5.895   3.709   7.199  0.3388 -0.4023  0.3998
   63SAPC  H12A 4987   5.844   3.795   7.241  2.4040  0.7604  0.6629
   63SAPC  H12B 4988   5.837   3.665   7.119 -0.7038 -1.3733  1.6510
   63SAPC   C13 4989   5.953   3.481   7.236 -0.8026  0.0447  0.3228
   63SAPC  H13A 4990   5.952   3.393   7.297 -0.9597  0.9226  1.6174
   63SAPC  H13B 4991   5.889   3.465   7.150 -0.8646 -0.1553  0.4070
   63SAPC  H13C 4992   6.054   3.489   7.199 -0.9580 -0.5490 -0.2584
   63SAPC   C14 4993   6.025   3.645   7.398 -0.2930  0.0672 -0.4593
   63SAPC  H14A 4994   6.120   3.636   7.347 -0.2813  0.5818 -0.5282
   63SAPC  H14B 4995   6.010   3.746   7.431 -0.5613  0.0091 -0.3965
   63SAPC  H14C 4996   6.039   3.575   7.480  0.8358 -0.1995 -0.8555
   63SAPC   C15 4997   5.801   3.577   7.375  0.1803  0.1052  0.9334
   63SAPC  H15A 4998   5.828   3.493   7.438  0.7644 -1.2760 -1.0596
   63SAPC  H15B 4999   5.767   3.664   7.428  0.8192  1.1691 -0.3416
   63SAPC  H15C 5000   5.722   3.555   7.305 -0.1512  1.7791  0.7368
   63SAPC   C11 5001   6.011   3.769   7.115  0.5861  1.0090 -0.7075
   63SAPC  H11A 5002   6.082   3.815   7.187  0.2067  0.7143 -0.1416
   63SAPC  H11B 5003   5.964   3.851   7.056  0.2468  3.4502  2.6071
   63SAPC     P 5004   6.161   3.710   6.914 -0.1655  0.4729  0.3450
   63SAPC   O13 5005   6.193   3.856   6.918  0.3126 -0.2502 -0.2024
   63SAPC   O14 5006   6.276   3.615   6.903  0.0353  0.7791 -0.6037
   63SAPC   O12 5007   6.077   3.668   7.039  0.4174  0.0462 -0.3927
   63SAPC   O11 5008   6.069   3.687   6.788 -0.3625 -0.4503 -0.5654
   63SAPC    C1 5009   6.028   3.556   6.742 -0.8673  0.1578  0.8193
   63SAPC    HA 5010   6.076   3.483   6.810  1.1523  0.9411  0.3116
   63SAPC    HB 5011   5.918   3.545   6.743 -0.7868 -1.2291 -1.1295
   63SAPC    C2 5012   6.097   3.537   6.603  0.8082 -0.2325  0.2387
   63SAPC    HS 5013   6.205   3.548   6.625  1.6767 -1.4617 -2.9819
   63SAPC   O21 5014   6.040   3.637   6.516  0.1808 -0.3971 -0.2662
   63SAPC   C21 5015   6.120   3.668   6.420  0.0498  0.7437 -0.5991
   63SAPC   O22 5016   6.238   3.642   6.422 -0.9842 -0.9644 -0.0801
   63SAPC   C22 5017   6.046   3.737   6.312  0.2588  0.1678 -0.1079
   63SAPC   H2R 5018   5.954   3.681   6.284 -0.0932 -0.1590  1.5466
   63SAPC   H2S 5019   6.035   3.839   6.356 -1.3768 -0.6842  1.6187
   63SAPC    C3 5020   6.074   3.392   6.548  0.3047 -0.0347 -0.3180
   63SAPC    HX 5021   5.971   3.390   6.506  0.1528 -0.1740  0.0520
   63SAPC    HY 5022   6.077   3.320   6.633 -1.5274 -0.9359 -0.9616
   63SAPC   O31 5023   6.178   3.349   6.461  0.1248  0.6035  0.0022
   63SAPC   C31 5024   6.141   3.311   6.332 -0.6241 -0.1020  0.4169
   63SAPC   O32 5025   6.030   3.300   6.296  0.7495  0.1578 -0.4188
   63SAPC   C32 5026   6.275   3.277   6.248 -0.0068 -0.2676  0.5759
   63SAPC   H2X 5027   6.293   3.169   6.265 -2.7364 -1.1406 -1.3578
   63SAPC   H2Y 5028   6.354   3.343   6.291 -0.3352 -0.9144  2.2433
   63SAPC   C23 5029   6.129   3.742   6.175 -0.3192 -0.1664  0.7868
   63SAPC   H3R 5030   6.137   3.637   6.138  1.0410  0.4219 -0.6806
   63SAPC   H3S 5031   6.232   3.782   6.184  0.1117 -0.8267 -0.8998
   63SAPC   C24 5032   6.063   3.829   6.069 -0.1450  0.2829 -0.3801
   63SAPC   H4R 5033   6.129   3.839   5.980  1.1910  1.0911  0.6640
   63SAPC   H4S 5034   6.062   3.931   6.112  0.1450  0.0406  0.2128
   63SAPC   C25 5035   5.923   3.794   6.031 -0.1756  0.2953 -0.3413
   63SAPC   H5R 5036   5.854   3.796   6.117  1.9421 -3.4779  1.7031
   63SAPC   C26 5037   5.876   3.725   5.919 -0.1640 -0.4431 -0.2252
   63SAPC   H6R 5038   5.767   3.725   5.903 -0.2950 -0.9155  0.6215
   63SAPC   C27 5039   5.947   3.677   5.797  0.5164 -0.3617 -0.4191
   63SAPC   H7R 5040   5.886   3.592   5.758  1.0026 -1.1714  0.5256
   63SAPC   H7S 5041   6.036   3.625   5.840  0.3108 -1.6865 -1.5090
   63SAPC   C28 5042   5.975   3.792   5.703 -0.0249 -0.3196 -1.0251
   63SAPC   H8R 5043   6.026   3.879   5.748 -1.4752  1.1794 -2.1223
   63SAPC   C29 5044   5.961   3.785   5.568  0.3156 -0.1476 -0.6215
   63SAPC   H9R 5045   5.979   3.883   5.522  1.8660 -0.0365  0.1486
   63SAPC  C210 5046   5.904   3.672   5.493 -0.0767  0.1382  0.5258
   63SAPC  H10R 5047   5.922   3.577   5.548  1.5707  0.5129  0.6849
   63SAPC  H10S 5048   5.962   3.660   5.400 -1.6439 -1.0777 -0.3456
   63SAPC  C211 5049   5.759   3.674   5.459 -0.1910  0.7704 -0.6254
   63SAPC  H11R 5050   5.698   3.685   5.550  1.2749  0.8900  0.3688
   63SAPC  C212 5051   5.697   3.655   5.347  0.1316  0.0277  0.0229
   63SAPC  H12R 5052   5.591   3.626   5.343  0.1267  0.1734 -1.9584
   63SAPC  C213 5053   5.765   3.644   5.212 -0.1677  0.0555  0.4374
   63SAPC  H13R 5054   5.820   3.550   5.195  0.5574  1.0260 -3.6950
   63SAPC  H13S 5055   5.833   3.731   5.211 -3.1064  2.5951  2.1520
   63SAPC  C214 5056   5.671   3.657   5.092  0.3585 -0.4427  0.2403
   63SAPC  H14R 5057   5.568   3.690   5.110  0.1312 -0.3817 -1.0366
   63SAPC  C215 5058   5.698   3.600   4.969 -0.5349  0.3664  0.0695
   63SAPC  H15R 5059   5.621   3.601   4.891  0.0061 -2.8195 -0.6416
   63SAPC  C216 5060   5.837   3.534   4.937 -0.9118 -0.5102 -0.0243
   63SAPC  H16R 5061   5.823   3.424   4.925 -3.4120 -0.2013 -0.5105
   63SAPC  H16S 5062   5.911   3.550   5.018 -0.4032 -1.7941 -0.2108
   63SAPC  C217 5063   5.880   3.575   4.798  0.3061  0.7619 -0.2892
   63SAPC  H17R 5064   5.991   3.573   4.794  0.2515 -0.6423 -2.8186
   63SAPC  H17S 5065   5.841   3.678   4.785  0.6454  0.6173 -2.7975
   63SAPC  C218 5066   5.818   3.488   4.687 -0.0345  0.0772  0.4847
   63SAPC  H18R 5067   5.707   3.499   4.680  0.1833  2.0316 -0.3063
   63SAPC  H18S 5068   5.845   3.382   4.706 -0.7952  0.0726  1.6489
   63SAPC  C219 5069   5.877   3.520   4.545 -0.7123 -0.2486  0.2131
   63SAPC  H19R 5070   5.984   3.547   4.551 -1.2193  1.7034  1.2905
   63SAPC  H19S 5071   5.828   3.618   4.527 -1.5522 -1.0213 -1.9516
   63SAPC  C220 5072   5.837   3.430   4.435  0.0573 -0.6302 -0.5203
   63SAPC  H20R 5073   5.730   3.426   4.408  0.2643 -0.5108 -1.3919
   63SAPC  H20S 5074   5.875   3.328   4.458  0.8591 -0.8279 -2.5263
   63SAPC  H20T 5075   5.880   3.459   4.337 -0.7480  0.7868 -0.4739
   63SAPC   C33 5076   6.245   3.300   6.098 -0.7510 -0.6652  0.1265
   63SAPC   H3X 5077   6.230   3.407   6.072 -1.4023 -0.1528  2.4137
   63SAPC   H3Y 5078   6.152   3.248   6.066 -1.4875 -0.2079  1.4551
   63SAPC   C34 5079   6.362   3.247   6.004  0.3259  0.2280  0.1510
   63SAPC   H4X 5080   6.386   3.147   6.047 -4.2773 -0.6137  1.3077
   63SAPC   H4Y 5081   6.450   3.303   6.041  1.5158 -1.9810  0.8585
   63SAPC   C35 5082   6.337   3.259   5.848 -0.9086 -0.2707  0.4049
   63SAPC   H5X 5083   6.430   3.218   5.805 -1.8185  0.4197 -2.4525
   63SAPC   H5Y 5084   6.327   3.368   5.832  0.3024 -0.0844  0.8580
   63SAPC   C36 5085   6.219   3.178   5.799  0.1136  0.5013  0.8016
   63SAPC   H6X 5086   6.128   3.221   5.848  0.3300  0.8517  0.9031
   63SAPC   H6Y 5087   6.232   3.075   5.836  1.3978  0.1399 -0.5719
   63SAPC   C37 5088   6.190   3.178   5.643  0.1048  0.8708 -0.5123
   63SAPC   H7X 5089   6.080   3.162   5.635 -0.1139  1.0067  1.5478
   63SAPC   H7Y 5090   6.248   3.090   5.608 -0.5643  0.5415 -0.8046
   63SAPC   C38 5091   6.230   3.303   5.568 -0.1133  0.3017 -0.3675
   63SAPC   H8X 5092   6.338   3.306   5.543 -0.0330  1.2420  0.0763
   63SAPC   H8Y 5093   6.216   3.392   5.633  4.4853  1.3067 -0.4275
   63SAPC   C39 5094   6.154   3.314   5.440 -0.0827  0.2869 -0.3639
   63SAPC   H9X 5095   6.044   3.312   5.459  0.1926  0.2877  1.3626
   63SAPC   H9Y 5096   6.169   3.218   5.385 -1.0241 -1.7944  2.7312
   63SAPC  C310 5097   6.204   3.440   5.361  1.1006 -0.0848  0.0705
   63SAPC  H10X 5098   6.315   3.439   5.366  1.2310  1.6900 -1.4603
   63SAPC  H10Y 5099   6.164   3.533   5.408  2.0290  0.5966 -0.4599
   63SAPC  C311 5100   6.160   3.431   5.211  0.9956  0.1628 -0.2052
   63SAPC  H11X 5101   6.215   3.504   5.149 -0.4926  1.5388  0.0453
   63SAPC  H11Y 5102   6.053   3.460   5.204  0.3475 -1.5207  1.7738
   63SAPC  C312 5103   6.177   3.297   5.136  0.2932  0.2746 -0.3203
   63SAPC  H12X 5104   6.098   3.230   5.176  1.2848 -2.2523 -2.2977
   63SAPC  H12Y 5105   6.271   3.244   5.163 -0.8783 -1.5099  0.5176
   63SAPC  C313 5106   6.151   3.305   4.988  0.0130  0.1205  0.2802
   63SAPC  H13X 5107   6.235   3.360   4.940  0.0341 -0.8049 -0.7593
   63SAPC  H13Y 5108   6.061   3.360   4.952  0.7409  0.1577 -1.5846
   63SAPC  C314 5109   6.155   3.168   4.916  0.2626 -0.0852  0.6596
   63SAPC  H14X 5110   6.090   3.091   4.963 -0.3509  0.7649  1.2368
   63SAPC  H14Y 5111   6.261   3.137   4.922  0.9456  1.9838  0.0321
   63SAPC  C315 5112   6.114   3.193   4.768 -0.4682 -0.8700 -0.1056
   63SAPC  H15X 5113   6.178   3.271   4.722 -1.2693 -0.8954 -1.3132
   63SAPC  H15Y 5114   6.010   3.231   4.781 -0.0759  1.3066 -2.5251
   63SAPC  C316 5115   6.131   3.059   4.694  0.3680  0.0702 -0.0093
   63SAPC  H16X 5116   6.093   2.987   4.769 -0.2228  1.6498  1.2758
   63SAPC  H16Y 5117   6.241   3.055   4.681  0.2008 -0.2470 -1.5444
   63SAPC  C317 5118   6.065   3.052   4.561 -0.2684 -0.0642 -0.4948
   63SAPC  H17X 5119   5.958   3.079   4.572 -1.5077 -4.1068 -0.9202
   63SAPC  H17Y 5120   6.065   2.950   4.518 -1.6643 -0.1734 -0.3033
   63SAPC  C318 5121   6.112   3.153   4.457  0.1482 -0.1498  0.0617
   63SAPC  H18X 5122   6.219   3.152   4.426 -0.4983  0.8503 -2.4315
   63SAPC  H18Y 5123   6.088   3.257   4.490  0.3654  0.1015 -0.5541
   63SAPC  H18Z 5124   6.065   3.128   4.360  3.1521 -3.3334 -0.7735
   64SAPC     N 5125   5.393   5.623   7.388 -0.4572  0.2670 -0.7255
   64SAPC   C12 5126   5.503   5.547   7.322 -0.2436  0.5204  0.5082
   64SAPC  H12A 5127   5.528   5.460   7.381  0.0278 -0.5893 -1.1776
   64SAPC  H12B 5128   5.591   5.609   7.311  1.6882 -2.4911 -3.3587
   64SAPC   C13 5129   5.286   5.522   7.438  0.1248 -0.3757  0.4278
   64SAPC  H13A 5130   5.330   5.487   7.530  2.7589  3.1082  0.6731
   64SAPC  H13B 5131   5.195   5.577   7.453  0.0230  1.3043 -4.4697
   64SAPC  H13C 5132   5.259   5.451   7.360 -2.0185 -1.6380  2.1869
   64SAPC   C14 5133   5.443   5.703   7.504 -0.5212 -0.7636  0.5616
   64SAPC  H14A 5134   5.359   5.742   7.559 -1.1181 -0.3972 -0.5644
   64SAPC  H14B 5135   5.503   5.646   7.573  1.9994 -0.2525 -1.0730
   64SAPC  H14C 5136   5.504   5.788   7.478 -0.9820  0.2651  2.6595
   64SAPC   C15 5137   5.327   5.720   7.296 -0.9929 -0.1733  0.6582
   64SAPC  H15A 5138   5.288   5.809   7.343  1.9482  0.7720  1.4663
   64SAPC  H15B 5139   5.401   5.761   7.229 -0.1702 -0.5092  1.3441
   64SAPC  H15C 5140   5.250   5.668   7.239 -0.4318  1.6521 -1.9404
   64SAPC   C11 5141   5.482   5.500   7.174  0.4736 -0.1388 -0.5898
   64SAPC  H11A 5142   5.576   5.467   7.125  1.0068 -0.8738  0.8777
   64SAPC  H11B 5143   5.436   5.579   7.111  0.6060  0.9443  0.6429
   64SAPC     P 5144   5.426   5.244   7.221  0.1655  0.1249 -0.6016
   64SAPC   O13 5145   5.546   5.248   7.309 -0.1572 -0.3055 -0.4001
   64SAPC   O14 5146   5.298   5.194   7.280 -0.2059 -0.8062 -0.5502
   64SAPC   O12 5147   5.393   5.383   7.170  0.2367 -0.1839 -0.3099
   64SAPC   O11 5148   5.455   5.182   7.082  0.3514  0.0526 -0.1878
   64SAPC    C1 5149   5.373   5.207   6.967 -0.3477 -0.1133 -0.1397
   64SAPC    HA 5150   5.340   5.104   6.941 -0.1818  0.0015 -0.8200
   64SAPC    HB 5151   5.282   5.269   6.983 -0.2226  1.0902 -3.3025
   64SAPC    C2 5152   5.453   5.267   6.846 -0.0491 -0.3953  0.9976
   64SAPC    HS 5153   5.557   5.228   6.839 -0.1475 -0.3347 -3.1635
   64SAPC   O21 5154   5.450   5.412   6.860  0.2583 -0.5495  0.7067
   64SAPC   C21 5155   5.548   5.473   6.792  0.7296 -0.0065 -0.0657
   64SAPC   O22 5156   5.626   5.413   6.713  0.0489 -0.0593  0.3028
   64SAPC   C22 5157   5.554   5.621   6.815  0.0298 -0.2645 -0.1413
   64SAPC   H2R 5158   5.577   5.640   6.922 -3.7493  0.6818  0.6609
   64SAPC   H2S 5159   5.637   5.653   6.749 -0.9858 -0.4471 -1.5530
   64SAPC    C3 5160   5.389   5.221   6.711  0.3864  0.0682  0.0755
   64SAPC    HX 5161   5.423   5.280   6.624  2.5054 -1.1856 -0.0209
   64SAPC    HY 5162   5.281   5.239   6.725  0.9060  1.6453  2.7886
   64SAPC   O31 5163   5.419   5.082   6.685  0.1933  0.1329 -0.0771
   64SAPC   C31 5164   5.332   5.031   6.594 -0.4223 -0.1367  0.1019
   64SAPC   O32 5165   5.262   5.095   6.519 -0.2120  0.3557 -0.2722
   64SAPC   C32 5166   5.349   4.877   6.585 -0.3132 -0.1808 -0.1401
   64SAPC   H2X 5167   5.336   4.824   6.681 -0.6217 -1.9469 -1.1109
   64SAPC   H2Y 5168   5.453   4.851   6.553 -0.2568  1.6439 -1.6347
   64SAPC   C23 5169   5.423   5.699   6.796 -0.0873  0.2909  0.5736
   64SAPC   H3R 5170   5.425   5.804   6.834  0.0558  1.3877 -2.2388
   64SAPC   H3S 5171   5.344   5.656   6.862 -0.2564 -1.4809 -0.7208
   64SAPC   C24 5172   5.382   5.718   6.653  0.0893  0.7806 -0.1256
   64SAPC   H4R 5173   5.463   5.708   6.578  0.3991  3.1154 -0.1600
   64SAPC   H4S 5174   5.340   5.819   6.637  0.7143  0.7616 -2.1912
   64SAPC   C25 5175   5.270   5.619   6.619 -0.1716 -0.5321 -0.6307
   64SAPC   H5R 5176   5.185   5.624   6.689  0.9865  0.5791  0.7491
   64SAPC   C26 5177   5.268   5.523   6.522  0.3864  0.5801  0.4015
   64SAPC   H6R 5178   5.178   5.461   6.516  0.6509  0.3014 -0.9143
   64SAPC   C27 5179   5.380   5.483   6.426 -0.0524 -0.2451 -0.8640
   64SAPC   H7R 5180   5.472   5.455   6.482 -0.7980 -3.0437 -0.8743
   64SAPC   H7S 5181   5.402   5.576   6.369 -0.8641  0.3009 -0.3002
   64SAPC   C28 5182   5.334   5.378   6.335  0.3467  0.5254  0.4046
   64SAPC   H8R 5183   5.276   5.296   6.381 -0.9884  0.9450 -0.4988
   64SAPC   C29 5184   5.327   5.383   6.197  0.7867  0.2261 -0.4334
   64SAPC   H9R 5185   5.275   5.297   6.151  1.8608 -0.3145 -0.6645
   64SAPC  C210 5186   5.375   5.491   6.100 -0.2632  0.4363  0.1981
   64SAPC  H10R 5187   5.445   5.449   6.025 -1.5305  1.4147 -1.6112
   64SAPC  H10S 5188   5.434   5.567   6.156  0.4473  0.8921 -1.1251
   64SAPC  C211 5189   5.255   5.564   6.042  0.0884  0.5496  0.4745
   64SAPC  H11R 5190   5.181   5.595   6.118 -0.1285  0.3924  0.3285
   64SAPC  C212 5191   5.231   5.602   5.917 -0.0947  0.1838  0.0192
   64SAPC  H12R 5192   5.138   5.651   5.884 -0.9846 -0.4021  1.5433
   64SAPC  C213 5193   5.339   5.588   5.803  1.1445  1.6078 -0.2713
   64SAPC  H13R 5194   5.442   5.617   5.834  2.1615 -1.4261 -0.4720
   64SAPC  H13S 5195   5.319   5.654   5.716 -0.7508  2.6238  0.8696
   64SAPC  C214 5196   5.354   5.445   5.749 -0.1199  0.1705  0.2186
   64SAPC  H14R 5197   5.323   5.364   5.816 -0.7769 -0.3527 -0.6934
   64SAPC  C215 5198   5.392   5.415   5.622  0.6542  0.5506 -0.0334
   64SAPC  H15R 5199   5.392   5.308   5.597 -1.0329  0.6334 -0.5033
   64SAPC  C216 5200   5.432   5.503   5.508  0.3220  0.0928  0.1962
   64SAPC  H16R 5201   5.517   5.466   5.448  0.2599 -4.5733  2.5121
   64SAPC  H16S 5202   5.451   5.605   5.548 -1.0427  1.2763 -1.9699
   64SAPC  C217 5203   5.328   5.528   5.394 -0.4384  0.3913 -0.3142
   64SAPC  H17R 5204   5.230   5.553   5.440 -0.7408  0.5059 -1.0008
   64SAPC  H17S 5205   5.314   5.437   5.331 -1.5724  0.0863  0.3487
   64SAPC  C218 5206   5.360   5.649   5.301 -0.3705 -0.0883 -0.7456
   64SAPC  H18R 5207   5.463   5.643   5.259 -0.2954 -0.7164 -0.4809
   64SAPC  H18S 5208   5.361   5.739   5.365  1.1288 -0.5839 -0.0359
   64SAPC  C219 5209   5.274   5.678   5.176 -0.0271  0.2653  0.1909
   64SAPC  H19R 5210   5.278   5.594   5.103  2.2461  1.1132 -0.7623
   64SAPC  H19S 5211   5.304   5.774   5.129 -1.1852  0.7353  0.3714
   64SAPC  C220 5212   5.128   5.694   5.209 -0.2886  0.4475  0.0141
   64SAPC  H20R 5213   5.106   5.794   5.254  0.8127  0.2679  0.9828
   64SAPC  H20S 5214   5.093   5.623   5.287 -0.3904 -2.4023 -2.4455
   64SAPC  H20T 5215   5.053   5.670   5.131 -1.3321 -1.6947  1.5577
   64SAPC   C33 5216   5.265   4.803   6.485 -0.2733  0.5999  0.3984
   64SAPC   H3X 5217   5.157   4.827   6.498  0.2387  2.9090  0.8415
   64SAPC   H3Y 5218   5.284   4.697   6.514  2.0779  0.1410 -2.3618
   64SAPC   C34 5219   5.306   4.814   6.347 -0.0551  0.3772 -0.1952
   64SAPC   H4X 5220   5.248   4.741   6.287 -0.3734 -0.8448  1.5476
   64SAPC   H4Y 5221   5.408   4.777   6.322 -0.3070  1.0234 -2.4190
   64SAPC   C35 5222   5.307   4.955   6.276 -0.6207  0.4412 -0.1894
   64SAPC   H5X 5223   5.391   5.013   6.320  0.9063 -0.2448 -2.0938
   64SAPC   H5Y 5224   5.206   4.998   6.297 -1.7368 -1.8397 -0.6117
   64SAPC   C36 5225   5.319   4.955   6.124 -0.7183  0.4440 -0.0625
   64SAPC   H6X 5226   5.288   5.055   6.087  0.3310  0.4407 -1.0245
   64SAPC   H6Y 5227   5.249   4.875   6.091 -0.9415  0.1476  1.0823
   64SAPC   C37 5228   5.469   4.943   6.102 -0.1113 -0.1914 -0.0191
   64SAPC   H7X 5229   5.500   4.841   6.135 -0.6995 -1.1271 -2.1823
   64SAPC   H7Y 5230   5.530   5.018   6.156  2.3893 -1.7650 -0.4997
   64SAPC   C38 5231   5.513   4.959   5.957  0.9485  0.5188  0.0815
   64SAPC   H8X 5232   5.623   4.942   5.956  1.0543  0.2434  3.3643
   64SAPC   H8Y 5233   5.494   5.065   5.929 -2.3955  0.1728  0.6597
   64SAPC   C39 5234   5.433   4.874   5.863 -0.1765 -0.2732 -0.5508
   64SAPC   H9X 5235   5.325   4.893   5.879  0.2956  1.1573  1.3491
   64SAPC   H9Y 5236   5.459   4.769   5.889 -0.5155 -0.2063  0.0611
   64SAPC  C310 5237   5.468   4.890   5.717 -0.4612  0.1986  0.0411
   64SAPC  H10X 5238   5.575   4.859   5.712 -0.9028 -1.2989 -0.7785
   64SAPC  H10Y 5239   5.466   4.997   5.687 -0.2200 -0.5311 -2.9100
   64SAPC  C311 5240   5.394   4.793   5.630  0.3074  0.0623  0.2096
   64SAPC  H11X 5241   5.292   4.827   5.605  0.4193 -1.3996 -2.7001
   64SAPC  H11Y 5242   5.378   4.691   5.673 -1.8116 -0.4142 -1.5362
   64SAPC  C312 5243   5.463   4.771   5.489 -0.0692 -0.3873  1.0463
   64SAPC  H12X 5244   5.414   4.684   5.440  1.4651  0.1180 -1.5434
   64SAPC  H12Y 5245   5.572   4.759   5.508 -0.1371  0.1612  1.8359
   64SAPC  C313 5246   5.441   4.889   5.392  0.2554 -0.0640  0.0296
   64SAPC  H13X 5247   5.478   4.989   5.424  2.4540 -0.2512 -1.7105
   64SAPC  H13Y 5248   5.332   4.909   5.384  0.3637  0.6607  0.2348
   64SAPC  C314 5249   5.502   4.878   5.259  0.8162 -0.3804 -0.1549
   64SAPC  H14X 5250   5.482   4.777   5.216 -1.3630 -0.0653  0.0456
   64SAPC  H14Y 5251   5.612   4.869   5.275  0.8800 -2.6171 -1.4127
   64SAPC  C315 5252   5.475   4.994   5.158  0.3292  0.1815  0.8477
   64SAPC  H15X 5253   5.366   5.008   5.176  0.6108  0.3437  2.6194
   64SAPC  H15Y 5254   5.490   4.960   5.053  1.7511  4.0130 -0.3560
   64SAPC  C316 5255   5.534   5.129   5.202 -0.2365  0.3141 -0.3791
   64SAPC  H16X 5256   5.640   5.110   5.228 -0.1478 -0.8971 -1.4750
   64SAPC  H16Y 5257   5.488   5.179   5.290  0.3493 -2.2161  1.4809
   64SAPC  C317 5258   5.539   5.229   5.076 -0.0860  0.8413 -1.0073
   64SAPC  H17X 5259   5.575   5.178   4.984  0.1145  2.7288 -2.0179
   64SAPC  H17Y 5260   5.613   5.309   5.098 -0.0121  0.2732  1.0013
   64SAPC  C318 5261   5.400   5.294   5.054  0.0281  0.4359 -0.0489
   64SAPC  H18X 5262   5.336   5.317   5.142 -0.6382  0.3564 -0.5122
   64SAPC  H18Y 5263   5.341   5.228   4.987  1.2020 -1.1026  0.3415
   64SAPC  H18Z 5264   5.407   5.383   4.989 -1.1442 -0.0346 -0.8507
   65SAPC     N 5265   3.030   3.549   1.978 -0.3626 -0.1052  0.6891
   65SAPC   C12 5266   2.968   3.649   2.076 -0.8839 -0.2696 -0.0668
   65SAPC  H12A 5267   2.906   3.600   2.149 -0.0291 -2.0282 -0.4769
   65SAPC  H12B 5268   2.912   3.729   2.030 -0.7513 -1.1601 -1.8413
   65SAPC   C13 5269   3.114   3.444   2.043 -0.2658  0.3610  0.3740
   65SAPC  H13A 5270   3.159   3.398   1.957  0.3757 -1.5952  1.6830
   65SAPC  H13B 5271   3.195   3.492   2.097 -0.1119  0.8393 -0.2723
   65SAPC  H13C 5272   3.065   3.362   2.093  2.1845  0.3864  3.1436
   65SAPC   C14 5273   2.913   3.479   1.907  0.1235  0.1328 -0.4127
   65SAPC  H14A 5274   2.949   3.401   1.841  1.3714  0.1701  0.1924
   65SAPC  H14B 5275   2.841   3.435   1.975 -0.5218 -1.2087 -1.8884
   65SAPC  H14C 5276   2.860   3.552   1.847  4.5071  2.2981 -2.0586
   65SAPC   C15 5277   3.102   3.624   1.870  0.7161  0.0898  0.2833
   65SAPC  H15A 5278   3.126   3.560   1.787 -0.0614 -1.8362  1.4812
   65SAPC  H15B 5279   3.038   3.704   1.835 -0.6009  0.2529  2.8121
   65SAPC  H15C 5280   3.193   3.667   1.908  1.5198 -0.2603 -1.1778
   65SAPC   C11 5281   3.064   3.723   2.171 -0.3333 -0.0967 -0.3456
   65SAPC  H11A 5282   3.011   3.797   2.236  2.3421 -2.2575  4.9454
   65SAPC  H11B 5283   3.136   3.787   2.116 -1.6016  0.8578 -0.9575
   65SAPC     P 5284   3.056   3.564   2.383  0.0937  0.4749  0.0298
   65SAPC   O13 5285   2.909   3.553   2.353  0.3662 -0.0386 -0.4984
   65SAPC   O14 5286   3.125   3.438   2.413  0.1796 -0.2804 -0.2874
   65SAPC   O12 5287   3.130   3.632   2.260 -0.4121  0.3125  0.2298
   65SAPC   O11 5288   3.073   3.670   2.497  0.3019 -0.2336  0.3455
   65SAPC    C1 5289   3.182   3.756   2.517 -0.9356 -0.1300  0.6469
   65SAPC    HA 5290   3.264   3.735   2.445  0.5235  1.7754  1.6480
   65SAPC    HB 5291   3.158   3.864   2.507  1.8767  0.5620  0.5011
   65SAPC    C2 5292   3.228   3.758   2.669  0.3494 -0.4794  0.9702
   65SAPC    HS 5293   3.306   3.835   2.689  0.1272 -0.3508  1.3680
   65SAPC   O21 5294   3.272   3.633   2.705 -0.0077 -0.9680  0.0257
   65SAPC   C21 5295   3.386   3.586   2.653 -0.1698 -0.0983  0.6856
   65SAPC   O22 5296   3.452   3.641   2.566  0.2702  0.3900 -0.3592
   65SAPC   C22 5297   3.414   3.458   2.732 -0.0509 -0.4584 -0.1081
   65SAPC   H2R 5298   3.351   3.451   2.823 -0.5317 -0.0843 -0.4127
   65SAPC   H2S 5299   3.378   3.376   2.666  0.1407 -0.9485  0.3891
   65SAPC    C3 5300   3.099   3.789   2.755  0.3724  0.5472  0.4006
   65SAPC    HX 5301   3.013   3.739   2.706  1.3043 -1.0752  0.3515
   65SAPC    HY 5302   3.088   3.899   2.740 -3.9048 -0.0570 -2.5183
   65SAPC   O31 5303   3.119   3.753   2.895  0.2031 -0.8825  0.2230
   65SAPC   C31 5304   3.201   3.828   2.961 -0.8070 -0.2259  0.6215
   65SAPC   O32 5305   3.246   3.939   2.918  0.1843  0.9026 -0.3664
   65SAPC   C32 5306   3.245   3.753   3.085 -0.2820 -0.3553  0.0652
   65SAPC   H2X 5307   3.322   3.675   3.063  0.4744  0.1455  0.8538
   65SAPC   H2Y 5308   3.159   3.708   3.140 -0.9806  1.4005  0.4529
   65SAPC   C23 5309   3.566   3.444   2.765  0.4139 -0.0587 -0.4119
   65SAPC   H3R 5310   3.633   3.436   2.677  1.0315  0.9369 -0.0363
   65SAPC   H3S 5311   3.580   3.351   2.825 -2.4419  0.4455  1.2034
   65SAPC   C24 5312   3.614   3.568   2.849 -0.7524  0.1353  0.0421
   65SAPC   H4R 5313   3.557   3.559   2.944  0.1964  1.5175  0.7630
   65SAPC   H4S 5314   3.599   3.663   2.794 -0.7813  0.1176  0.0186
   65SAPC   C25 5315   3.759   3.559   2.886  0.0870 -0.1308 -0.1630
   65SAPC   H5R 5316   3.824   3.559   2.797 -2.0927  0.5025 -1.8691
   65SAPC   C26 5317   3.819   3.587   3.004  0.3364 -0.1273  0.6956
   65SAPC   H6R 5318   3.928   3.579   3.017  0.3990 -0.9679 -0.2342
   65SAPC   C27 5319   3.757   3.610   3.139  0.4435 -0.6916 -0.6661
   65SAPC   H7R 5320   3.834   3.570   3.210  1.0977 -0.9072 -1.4882
   65SAPC   H7S 5321   3.667   3.545   3.154 -1.4802  2.0950  0.7766
   65SAPC   C28 5322   3.727   3.751   3.174 -0.8034  0.0264 -0.2889
   65SAPC   H8R 5323   3.634   3.790   3.130 -0.9078  0.0205 -0.0791
   65SAPC   C29 5324   3.800   3.839   3.247 -1.1525  0.3519  0.0546
   65SAPC   H9R 5325   3.763   3.943   3.242  0.6006  1.0124 -0.0791
   65SAPC  C210 5326   3.937   3.820   3.312 -0.1837 -0.4739 -0.7205
   65SAPC  H10R 5327   4.000   3.911   3.320 -0.1843 -0.2789 -2.5401
   65SAPC  H10S 5328   4.000   3.748   3.256 -0.4857 -2.0044  0.8057
   65SAPC  C211 5329   3.908   3.763   3.458 -0.2319  0.0848 -0.5039
   65SAPC  H11R 5330   3.803   3.735   3.480 -0.7562  0.9324 -1.7894
   65SAPC  C212 5331   3.998   3.748   3.555  0.4163 -0.2490  0.4288
   65SAPC  H12R 5332   3.971   3.688   3.644 -1.7082  0.7231  0.5125
   65SAPC  C213 5333   4.145   3.790   3.539  0.5723  0.2044 -0.6717
   65SAPC  H13R 5334   4.140   3.897   3.567 -2.1582  0.1754 -0.7734
   65SAPC  H13S 5335   4.175   3.764   3.435  1.4039  4.5252 -1.6812
   65SAPC  C214 5336   4.244   3.714   3.624  0.9827  0.0234 -0.1349
   65SAPC  H14R 5337   4.312   3.645   3.573  2.7156  1.0249  0.7472
   65SAPC  C215 5338   4.259   3.724   3.754 -0.8695  0.3177 -0.1052
   65SAPC  H15R 5339   4.332   3.659   3.805 -2.2290 -2.3741 -1.3737
   65SAPC  C216 5340   4.188   3.811   3.850  0.2563 -0.0283 -0.0582
   65SAPC  H16R 5341   4.112   3.874   3.799 -2.4937 -2.4570  0.7251
   65SAPC  H16S 5342   4.263   3.871   3.906  0.7504 -0.5090 -0.1889
   65SAPC  C217 5343   4.116   3.722   3.955 -0.3613  0.2011 -0.1841
   65SAPC  H17R 5344   4.187   3.641   3.984 -0.1914  0.2290 -0.5105
   65SAPC  H17S 5345   4.033   3.660   3.914 -1.4503  0.9255  0.8596
   65SAPC  C218 5346   4.074   3.809   4.070 -0.2564  0.0112  0.8259
   65SAPC  H18R 5347   4.165   3.866   4.100  0.1829 -0.9322  1.3388
   65SAPC  H18S 5348   4.045   3.740   4.152 -2.6278 -0.9385 -0.7282
   65SAPC  C219 5349   3.953   3.891   4.047  0.2276 -0.2369 -0.2056
   65SAPC  H19R 5350   3.957   3.939   3.947 -0.7170  0.5518  0.1225
   65SAPC  H19S 5351   3.936   3.981   4.110 -1.3147 -0.8995  0.3947
   65SAPC  C220 5352   3.826   3.803   4.034  0.1850  0.3497 -0.0275
   65SAPC  H20R 5353   3.801   3.754   4.130 -1.9831 -2.2907 -1.7956
   65SAPC  H20S 5354   3.829   3.728   3.953  0.9851  1.2682 -0.8883
   65SAPC  H20T 5355   3.740   3.866   4.005  0.3029  0.3364 -0.4112
   65SAPC   C33 5356   3.311   3.855   3.189 -0.7209  0.4270  0.3518
   65SAPC   H3X 5357   3.255   3.949   3.212  1.3157  1.4245  1.4260
   65SAPC   H3Y 5358   3.413   3.876   3.150 -0.8417  0.8575  0.2572
   65SAPC   C34 5359   3.334   3.788   3.324 -0.3312 -0.5219 -0.4037
   65SAPC   H4X 5360   3.372   3.684   3.313 -0.1093 -0.4687 -0.1473
   65SAPC   H4Y 5361   3.233   3.782   3.370 -1.5201  1.2489 -2.6205
   65SAPC   C35 5362   3.416   3.882   3.409 -0.6677  0.1776 -0.6153
   65SAPC   H5X 5363   3.368   3.982   3.404  1.9473  1.6303  0.8078
   65SAPC   H5Y 5364   3.520   3.886   3.368  0.0950 -1.4297  1.0446
   65SAPC   C36 5365   3.440   3.830   3.552 -0.5863 -0.5902  0.1998
   65SAPC   H6X 5366   3.520   3.753   3.540 -0.0361 -0.0844  0.5302
   65SAPC   H6Y 5367   3.358   3.766   3.591  1.1412 -3.3563 -0.4174
   65SAPC   C37 5368   3.478   3.943   3.652 -0.1205 -0.1212  0.5106
   65SAPC   H7X 5369   3.387   4.008   3.654  0.8366  1.5334 -2.5415
   65SAPC   H7Y 5370   3.564   4.000   3.611 -0.7347  0.9718  0.6737
   65SAPC   C38 5371   3.523   3.890   3.793 -0.0202 -0.7151 -0.3085
   65SAPC   H8X 5372   3.532   3.969   3.871 -0.9034  0.5946 -1.4677
   65SAPC   H8Y 5373   3.623   3.843   3.778  0.1093 -0.5808  0.1288
   65SAPC   C39 5374   3.446   3.762   3.838 -0.2648  0.5015 -0.5092
   65SAPC   H9X 5375   3.464   3.675   3.772 -0.1893  0.1739 -0.0570
   65SAPC   H9Y 5376   3.339   3.791   3.834 -0.3557  0.1291 -0.8332
   65SAPC  C310 5377   3.483   3.725   3.982  0.0008  0.1094 -0.0772
   65SAPC  H10X 5378   3.474   3.810   4.053  2.1396 -0.5260  1.0548
   65SAPC  H10Y 5379   3.585   3.682   3.996  1.1980  2.0597 -2.1922
   65SAPC  C311 5380   3.392   3.617   4.044 -0.0643  0.8660  0.3572
   65SAPC  H11X 5381   3.441   3.572   4.133 -0.7481  1.7942  1.2125
   65SAPC  H11Y 5382   3.371   3.546   3.960  1.3495  1.2592 -0.3664
   65SAPC  C312 5383   3.257   3.670   4.085  0.0470  0.5640  0.8160
   65SAPC  H12X 5384   3.204   3.688   3.989 -0.7244 -0.1493  1.0910
   65SAPC  H12Y 5385   3.266   3.777   4.110  0.5017  1.3429 -2.2826
   65SAPC  C313 5386   3.192   3.586   4.193 -0.3984  0.1367 -0.3825
   65SAPC  H13X 5387   3.260   3.591   4.280  0.5840  1.9361 -1.2066
   65SAPC  H13Y 5388   3.190   3.477   4.168 -0.8348 -0.4090  1.8387
   65SAPC  C314 5389   3.055   3.641   4.232  0.5238 -0.2695 -0.9240
   65SAPC  H14X 5390   3.015   3.665   4.131 -1.7128  4.3968  0.7606
   65SAPC  H14Y 5391   3.069   3.741   4.278 -0.7930 -0.4042 -0.1726
   65SAPC  C315 5392   2.971   3.547   4.321  0.7872  0.4741 -0.3432
   65SAPC  H15X 5393   3.037   3.503   4.398  0.8348  1.5280  0.2352
   65SAPC  H15Y 5394   2.936   3.462   4.260  3.2807 -1.7018  1.0444
   65SAPC  C316 5395   2.861   3.599   4.411  0.0941 -0.6163  0.4411
   65SAPC  H16X 5396   2.795   3.668   4.354  1.2554 -0.9695 -1.4012
   65SAPC  H16Y 5397   2.906   3.674   4.480  0.1737  0.6652 -0.9498
   65SAPC  C317 5398   2.772   3.486   4.465 -0.1656  0.6015 -0.2184
   65SAPC  H17X 5399   2.812   3.404   4.528 -0.5212 -0.9978 -1.9416
   65SAPC  H17Y 5400   2.741   3.419   4.381  0.6957 -0.7400  0.4971
   65SAPC  C318 5401   2.651   3.551   4.540  0.6836 -0.0173 -0.5660
   65SAPC  H18X 5402   2.575   3.476   4.569 -1.2389  2.6619  1.9596
   65SAPC  H18Y 5403   2.615   3.625   4.464 -0.6223  1.0738  1.0283
   65SAPC  H18Z 5404   2.678   3.613   4.628  0.1427 -0.9084  0.2299
   66SAPC     N 5405   5.845   0.789   1.788 -0.2242 -0.8756  0.8211
   66SAPC   C12 5406   5.953   0.705   1.849  0.9661  0.1197 -0.3682
   66SAPC  H12A 5407   6.022   0.675   1.771 -0.0215 -0.3092 -1.1134
   66SAPC  H12B 5408   5.915   0.615   1.896  0.0099  1.6798  2.0097
   66SAPC   C13 5409   5.796   0.723   1.663  0.1224  0.5187  0.3611
   66SAPC  H13A 5410   5.763   0.621   1.678 -0.2328  0.7404  1.1262
   66SAPC  H13B 5411   5.716   0.770   1.607  0.6216 -2.7160 -3.4931
   66SAPC  H13C 5412   5.874   0.722   1.588  0.9233 -0.2252  1.1884
   66SAPC   C14 5413   5.727   0.802   1.883 -0.3732 -0.0110 -0.0576
   66SAPC  H14A 5414   5.749   0.868   1.966 -0.6026  0.8900 -0.6914
   66SAPC  H14B 5415   5.639   0.848   1.842 -1.5662 -1.5476  0.6826
   66SAPC  H14C 5416   5.694   0.702   1.906 -1.2393  0.5130  1.0798
   66SAPC   C15 5417   5.897   0.923   1.758 -0.5778 -0.7618  0.1386
   66SAPC  H15A 5418   5.924   0.971   1.850 -3.0044 -0.0931  0.5827
   66SAPC  H15B 5419   5.979   0.931   1.689 -1.4412  2.5897 -0.7139
   66SAPC  H15C 5420   5.818   0.987   1.721 -1.1925  0.4223  3.2505
   66SAPC   C11 5421   6.029   0.759   1.964  0.0226  0.2988  0.0322
   66SAPC  H11A 5422   6.099   0.836   1.924 -1.0989  0.0684 -2.5616
   66SAPC  H11B 5423   6.088   0.672   1.998  0.1781  1.4694  3.0837
   66SAPC     P 5424   5.875   0.713   2.183 -0.1329  0.3559  0.2804
   66SAPC   O13 5425   5.753   0.792   2.229  0.3016  0.3747  0.3948
   66SAPC   O14 5426   5.849   0.590   2.105 -0.2059  0.1462 -0.2529
   66SAPC   O12 5427   5.944   0.810   2.077 -0.0558 -0.2374  0.2737
   66SAPC   O11 5428   5.971   0.686   2.298  0.5414 -0.8359 -0.2876
   66SAPC    C1 5429   6.058   0.795   2.347 -0.2909  0.2358  0.1693
   66SAPC    HA 5430   6.157   0.760   2.311 -0.5480 -0.2909 -0.0386
   66SAPC    HB 5431   6.031   0.895   2.308  0.4647  0.3067 -0.1838
   66SAPC    C2 5432   6.052   0.798   2.500  0.2789 -0.6743 -0.7754
   66SAPC    HS 5433   6.106   0.886   2.541 -1.1632 -1.2541  2.7252
   66SAPC   O21 5434   6.118   0.678   2.552  0.2658 -0.3524 -0.6879
   66SAPC   C21 5435   6.252   0.688   2.542  0.0173  0.0946 -0.0934
   66SAPC   O22 5436   6.317   0.786   2.517  0.2187 -0.0868  0.5043
   66SAPC   C22 5437   6.304   0.554   2.591  0.7687 -0.7840  0.0856
   66SAPC   H2R 5438   6.240   0.466   2.571  0.6684 -1.2229  2.0763
   66SAPC   H2S 5439   6.387   0.532   2.520 -0.5238  0.3045 -1.8454
   66SAPC    C3 5440   5.914   0.803   2.558 -0.3161  0.3311  0.4651
   66SAPC    HX 5441   5.868   0.708   2.524  0.4739  0.1730 -0.1823
   66SAPC    HY 5442   5.857   0.886   2.511  0.2972 -1.9152 -5.0196
   66SAPC   O31 5443   5.909   0.812   2.702 -0.0201 -0.1565 -0.0006
   66SAPC   C31 5444   5.935   0.922   2.772  0.0916 -0.6410  0.8826
   66SAPC   O32 5445   5.962   1.026   2.714  0.3107 -0.7322  0.0445
   66SAPC   C32 5446   5.930   0.888   2.922 -0.6901 -0.5325  0.4145
   66SAPC   H2X 5447   6.018   0.826   2.951 -0.9327 -0.7446  0.6981
   66SAPC   H2Y 5448   5.841   0.825   2.940  0.8844 -2.1077  3.4838
   66SAPC   C23 5449   6.366   0.559   2.738  0.0020 -0.6760  0.6654
   66SAPC   H3R 5450   6.381   0.662   2.778  2.7598 -0.2062 -1.3133
   66SAPC   H3S 5451   6.466   0.514   2.724  0.9412  1.9927 -3.0003
   66SAPC   C24 5452   6.289   0.466   2.834  0.1279  0.1036 -0.3256
   66SAPC   H4R 5453   6.334   0.452   2.935 -0.6027 -1.9106 -0.2447
   66SAPC   H4S 5454   6.284   0.362   2.794 -0.4727 -0.0590  0.1517
   66SAPC   C25 5455   6.147   0.513   2.853  0.1178 -0.1893 -0.2885
   66SAPC   H5R 5456   6.097   0.523   2.756 -0.0000 -1.3051 -0.3577
   66SAPC   C26 5457   6.085   0.537   2.969  0.5662  0.7795 -0.3716
   66SAPC   H6R 5458   5.984   0.581   2.969  0.0781 -0.2818  1.2217
   66SAPC   C27 5459   6.142   0.504   3.107  0.2674 -0.0326 -0.7422
   66SAPC   H7R 5460   6.182   0.596   3.154 -1.2124 -1.2807  3.4319
   66SAPC   H7S 5461   6.231   0.439   3.103  0.1244 -0.3047  0.2195
   66SAPC   C28 5462   6.040   0.434   3.197  0.9243 -0.2587  1.3837
   66SAPC   H8R 5463   5.989   0.345   3.155 -0.7920  1.5277 -0.5415
   66SAPC   C29 5464   6.002   0.478   3.318 -0.4724 -0.4359 -0.6532
   66SAPC   H9R 5465   5.927   0.417   3.371 -1.0787  0.3232 -0.6343
   66SAPC  C210 5466   6.045   0.603   3.391 -0.9300  0.4673 -0.3791
   66SAPC  H10R 5467   5.960   0.625   3.460  0.0985  0.9231  0.7601
   66SAPC  H10S 5468   6.048   0.697   3.332  0.5484  1.5911  1.3968
   66SAPC  C211 5469   6.165   0.589   3.485  0.5504 -0.5836 -0.4721
   66SAPC  H11R 5470   6.264   0.600   3.438  1.1760 -0.3184  0.8559
   66SAPC  C212 5471   6.168   0.566   3.618  0.5708  0.0670 -0.4387
   66SAPC  H12R 5472   6.263   0.537   3.666 -1.4227 -1.4597  2.8870
   66SAPC  C213 5473   6.039   0.553   3.712 -0.1457 -0.1174  0.0996
   66SAPC  H13R 5474   5.965   0.630   3.682 -2.2117 -1.7344  0.7953
   66SAPC  H13S 5475   6.059   0.573   3.819 -2.9924 -0.2017  0.7292
   66SAPC  C214 5476   5.978   0.414   3.684 -0.2731  0.0608  0.0573
   66SAPC  H14R 5477   5.965   0.382   3.579  0.1989  2.5871 -0.8405
   66SAPC  C215 5478   5.944   0.328   3.781 -0.4224 -0.2427 -0.0376
   66SAPC  H15R 5479   5.888   0.235   3.762 -0.6492 -0.0951 -0.0894
   66SAPC  C216 5480   5.955   0.343   3.930 -0.2962  0.0274  0.0301
   66SAPC  H16R 5481   6.054   0.385   3.958 -0.5501  0.5938  0.0979
   66SAPC  H16S 5482   5.938   0.244   3.978 -0.4585  0.0786  0.0775
   66SAPC  C217 5483   5.842   0.428   3.980  0.5168  0.3341  0.2712
   66SAPC  H17R 5484   5.744   0.375   3.975  0.3836  0.5645  0.4289
   66SAPC  H17S 5485   5.824   0.520   3.919 -0.3156 -0.4286 -0.6795
   66SAPC  C218 5486   5.877   0.486   4.121 -0.3455 -0.4033  0.1541
   66SAPC  H18R 5487   5.805   0.568   4.141  1.6237  1.1543  1.1724
   66SAPC  H18S 5488   5.981   0.526   4.120 -0.7465  0.6630  0.4622
   66SAPC  C219 5489   5.879   0.389   4.249 -0.4952  0.4779 -0.7250
   66SAPC  H19R 5490   5.907   0.455   4.333  0.2512 -0.5379 -0.1426
   66SAPC  H19S 5491   5.958   0.312   4.235  0.8241  1.8779 -1.1237
   66SAPC  C220 5492   5.745   0.323   4.283  0.6156 -0.2839  0.4441
   66SAPC  H20R 5493   5.740   0.261   4.375 -2.3159  1.2284  1.4401
   66SAPC  H20S 5494   5.721   0.264   4.192  2.0693  0.4017 -0.4245
   66SAPC  H20T 5495   5.660   0.395   4.293 -0.2125 -1.5657  4.4758
   66SAPC   C33 5496   5.918   1.014   3.006 -0.5482  0.7452  0.0072
   66SAPC   H3X 5497   5.822   1.062   2.976 -1.3570 -1.7185 -1.6048
   66SAPC   H3Y 5498   6.002   1.084   2.987 -0.2507  0.2772 -0.3957
   66SAPC   C34 5499   5.903   0.967   3.153 -0.0074 -0.1215  0.5920
   66SAPC   H4X 5500   5.988   0.905   3.192  2.2632  1.9156 -0.8308
   66SAPC   H4Y 5501   5.813   0.903   3.164 -0.0090 -0.0102  1.3169
   66SAPC   C35 5502   5.880   1.079   3.245  0.3058 -0.5645 -0.2046
   66SAPC   H5X 5503   5.799   1.147   3.213 -0.0696 -0.2887  1.2329
   66SAPC   H5Y 5504   5.975   1.137   3.248 -0.1088  0.0850  1.1814
   66SAPC   C36 5505   5.857   1.032   3.390  0.3377  0.1851 -0.0264
   66SAPC   H6X 5506   5.923   0.945   3.408 -0.9156 -1.0050 -0.9878
   66SAPC   H6Y 5507   5.752   1.001   3.404  0.0755  1.2944  0.6095
   66SAPC   C37 5508   5.889   1.140   3.506 -0.0711  0.1528  0.1763
   66SAPC   H7X 5509   5.805   1.212   3.497  0.1727  0.4504  0.2582
   66SAPC   H7Y 5510   5.980   1.197   3.478 -1.4212  1.1991 -2.4102
   66SAPC   C38 5511   5.893   1.077   3.647  0.7059  0.0888 -0.4208
   66SAPC   H8X 5512   5.915   1.156   3.722  1.6165  1.3958 -2.0198
   66SAPC   H8Y 5513   5.976   1.003   3.652  0.6771  0.0920  0.2553
   66SAPC   C39 5514   5.762   1.009   3.679  0.3432  0.1972 -0.3209
   66SAPC   H9X 5515   5.755   0.916   3.619  2.1078  1.4442 -2.6459
   66SAPC   H9Y 5516   5.676   1.077   3.658 -0.6240 -0.8654  0.0960
   66SAPC  C310 5517   5.747   0.959   3.822  0.3690  0.1298 -0.7618
   66SAPC  H10X 5518   5.708   1.045   3.880  0.9368  0.3932 -0.7675
   66SAPC  H10Y 5519   5.848   0.920   3.847  0.1681 -0.5195 -0.9346
   66SAPC  C311 5520   5.643   0.848   3.843 -0.7278  0.4310  0.4181
   66SAPC  H11X 5521   5.701   0.761   3.805  3.9083  2.6571  1.6136
   66SAPC  H11Y 5522   5.553   0.851   3.778  0.4048  0.3385 -1.2319
   66SAPC  C312 5523   5.595   0.832   3.992  0.0580  0.7241 -0.1145
   66SAPC  H12X 5524   5.682   0.828   4.060  1.2391 -0.5277 -1.6306
   66SAPC  H12Y 5525   5.540   0.736   4.006  1.3811  0.1678  1.5896
   66SAPC  C313 5526   5.498   0.943   4.047 -0.3767 -0.1500 -0.7177
   66SAPC  H13X 5527   5.406   0.963   3.989 -2.1229  0.5715  2.1097
   66SAPC  H13Y 5528   5.556   1.035   4.022  1.3821 -1.2967 -1.0269
   66SAPC  C314 5529   5.479   0.930   4.201  0.2568 -0.0696 -0.6197
   66SAPC  H14X 5530   5.475   1.029   4.253  2.3766  0.2115 -0.9061
   66SAPC  H14Y 5531   5.577   0.886   4.230 -0.8200 -2.8512 -0.9361
   66SAPC  C315 5532   5.363   0.844   4.247 -0.2056 -0.2723  0.1478
   66SAPC  H15X 5533   5.391   0.741   4.216  2.6272 -0.1103  1.8273
   66SAPC  H15Y 5534   5.261   0.873   4.212 -1.1201 -2.4880  0.8078
   66SAPC  C316 5535   5.332   0.830   4.394  0.3527 -1.2212 -0.7099
   66SAPC  H16X 5536   5.247   0.761   4.412 -0.2634 -0.0056  1.3057
   66SAPC  H16Y 5537   5.306   0.931   4.431 -1.3100 -2.1118  0.6872
   66SAPC  C317 5538   5.448   0.760   4.472  0.2856 -1.0719  0.1574
   66SAPC  H17X 5539   5.435   0.772   4.581  0.9011  0.6678  0.0646
   66SAPC  H17Y 5540   5.539   0.806   4.428 -0.3714 -0.3885 -0.5126
   66SAPC  C318 5541   5.475   0.614   4.439 -0.1470 -0.2105 -0.1200
   66SAPC  H18X 5542   5.382   0.557   4.462 -2.5695  2.2438 -2.9633
   66SAPC  H18Y 5543   5.557   0.586   4.508 -1.2349  0.5153  1.5376
   66SAPC  H18Z 5544   5.506   0.588   4.336  2.1839 -0.3992  0.5711
   67SAPC     N 5545   6.127   4.853   2.025 -0.5411  0.0955 -0.3781
   67SAPC   C12 5546   6.101   4.882   2.176 -0.4085  0.9958 -0.2282
   67SAPC  H12A 5547   6.004   4.929   2.177 -0.6997  0.4172 -0.3748
   67SAPC  H12B 5548   6.180   4.952   2.198  1.0027 -0.4779 -0.4224
   67SAPC   C13 5549   6.129   4.981   1.950 -0.3523 -0.2679  0.4804
   67SAPC  H13A 5550   6.220   5.036   1.965 -0.6392  0.2885  0.2341
   67SAPC  H13B 5551   6.123   4.965   1.844 -3.5551  1.2604  0.2876
   67SAPC  H13C 5552   6.041   5.041   1.968 -0.7145 -0.1545 -1.5203
   67SAPC   C14 5553   6.263   4.788   2.008 -0.0040 -0.1731 -0.0364
   67SAPC  H14A 5554   6.275   4.763   1.904 -0.2609 -3.1208  0.5432
   67SAPC  H14B 5555   6.343   4.848   2.048  0.8291 -1.0764 -0.2918
   67SAPC  H14C 5556   6.283   4.696   2.061  4.3561  0.2715 -0.5913
   67SAPC   C15 5557   6.024   4.752   1.975 -0.3652  0.5901 -0.1918
   67SAPC  H15A 5558   5.923   4.784   1.955 -0.7439 -0.6723 -0.4393
   67SAPC  H15B 5559   6.070   4.697   1.893  0.3904 -0.0360  0.6286
   67SAPC  H15C 5560   6.015   4.687   2.060  0.0818  0.1167 -0.4979
   67SAPC   C11 5561   6.107   4.762   2.275 -0.3699 -0.4636  0.4121
   67SAPC  H11A 5562   6.053   4.678   2.226 -1.7607  2.6431 -3.9447
   67SAPC  H11B 5563   6.051   4.791   2.367 -2.0631 -3.4050  0.4242
   67SAPC     P 5564   6.327   4.795   2.406  0.3703  0.1642  0.3402
   67SAPC   O13 5565   6.466   4.797   2.357  0.1099  0.2494  0.2643
   67SAPC   O14 5566   6.267   4.929   2.443  0.3063  0.8054  0.9302
   67SAPC   O12 5567   6.243   4.718   2.302 -0.3265  0.3703  0.7441
   67SAPC   O11 5568   6.313   4.702   2.531 -0.0674  0.2909  0.1605
   67SAPC    C1 5569   6.191   4.656   2.586 -0.4345 -0.0839  0.3479
   67SAPC    HA 5570   6.154   4.736   2.654 -0.2345  0.7303 -0.4774
   67SAPC    HB 5571   6.113   4.632   2.511 -0.8318 -3.7983  1.7695
   67SAPC    C2 5572   6.206   4.531   2.674  0.5871  0.4232 -1.0202
   67SAPC    HS 5573   6.107   4.500   2.716  1.7797 -0.1955  1.5603
   67SAPC   O21 5574   6.299   4.564   2.780 -0.2837 -0.6003 -0.1312
   67SAPC   C21 5575   6.247   4.604   2.894  0.7493 -0.4788 -0.6102
   67SAPC   O22 5576   6.128   4.627   2.909  0.2649  0.3865 -0.0269
   67SAPC   C22 5577   6.348   4.626   3.000  0.5008 -0.0370  0.6387
   67SAPC   H2R 5578   6.448   4.602   2.959  0.3334  0.7387 -0.2479
   67SAPC   H2S 5579   6.349   4.731   3.034  0.1171  0.5207 -0.9882
   67SAPC    C3 5580   6.248   4.414   2.589  0.6902 -1.2874  0.2069
   67SAPC    HX 5581   6.331   4.430   2.517  0.1808 -2.1248 -0.5821
   67SAPC    HY 5582   6.169   4.399   2.513  0.3837  0.7532  0.0756
   67SAPC   O31 5583   6.272   4.298   2.673 -0.1006  0.0609 -0.3088
   67SAPC   C31 5584   6.170   4.223   2.693 -0.1221  0.4993  0.0797
   67SAPC   O32 5585   6.055   4.241   2.659  0.1009 -0.0475  0.6869
   67SAPC   C32 5586   6.210   4.084   2.749 -0.5586  0.9412  0.0311
   67SAPC   H2X 5587   6.321   4.091   2.760 -0.3307 -0.8305 -0.9048
   67SAPC   H2Y 5588   6.186   4.004   2.677  1.0769 -0.8652  1.3861
   67SAPC   C23 5589   6.315   4.536   3.126 -0.1468  0.1667  0.3980
   67SAPC   H3R 5590   6.301   4.430   3.096  1.0087  0.0114  0.3504
   67SAPC   H3S 5591   6.224   4.580   3.173 -0.2448  1.5804 -1.0410
   67SAPC   C24 5592   6.434   4.534   3.226  0.0450  0.6894  0.9982
   67SAPC   H4R 5593   6.514   4.493   3.160 -0.9893  2.3993 -1.5040
   67SAPC   H4S 5594   6.409   4.464   3.308 -0.4623  0.3844  0.5935
   67SAPC   C25 5595   6.477   4.667   3.271 -0.2505 -1.0322  0.4281
   67SAPC   H5R 5596   6.568   4.711   3.226 -0.7906  0.6391  0.8898
   67SAPC   C26 5597   6.438   4.727   3.386 -0.1994 -0.4207 -0.0230
   67SAPC   H6R 5598   6.463   4.831   3.411  1.1932 -1.0046  1.1837
   67SAPC   C27 5599   6.324   4.687   3.465 -0.4675  0.0135 -0.2780
   67SAPC   H7R 5600   6.355   4.593   3.515 -1.1315 -1.2699 -2.1767
   67SAPC   H7S 5601   6.243   4.654   3.397 -0.8565 -0.8663  0.5912
   67SAPC   C28 5602   6.270   4.790   3.558  0.1852  0.8737 -0.2048
   67SAPC   H8R 5603   6.265   4.894   3.523  0.5289  0.3232 -2.0399
   67SAPC   C29 5604   6.251   4.777   3.690  0.1671  0.1380  0.3160
   67SAPC   H9R 5605   6.212   4.860   3.750 -1.5641 -0.8482  0.6092
   67SAPC  C210 5606   6.279   4.646   3.763  0.0358 -0.3069 -1.0993
   67SAPC  H10R 5607   6.374   4.602   3.727  0.5997 -0.2026  0.2296
   67SAPC  H10S 5608   6.193   4.577   3.750  0.2354 -1.1989  1.6623
   67SAPC  C211 5609   6.300   4.653   3.912  0.5937 -0.0253 -0.4370
   67SAPC  H11R 5610   6.381   4.720   3.947  0.9056 -1.2174  1.2259
   67SAPC  C212 5611   6.245   4.571   4.013  0.1887 -0.1373  0.8976
   67SAPC  H12R 5612   6.261   4.600   4.118  2.9758  0.8974  0.2608
   67SAPC  C213 5613   6.143   4.452   3.997 -0.4378  0.1436 -0.4407
   67SAPC  H13R 5614   6.084   4.479   3.907 -0.4993  1.3594 -0.0512
   67SAPC  H13S 5615   6.065   4.461   4.075  1.8701  2.4112  1.8062
   67SAPC  C214 5616   6.218   4.324   3.976 -0.0668  0.0870 -0.3294
   67SAPC  H14R 5617   6.249   4.311   3.871 -1.5319  3.3040 -1.2706
   67SAPC  C215 5618   6.230   4.236   4.076  0.2082  0.5348  0.2957
   67SAPC  H15R 5619   6.303   4.155   4.061 -0.2246 -0.2469  2.1420
   67SAPC  C216 5620   6.178   4.250   4.219  0.5990  0.2262 -0.0778
   67SAPC  H16R 5621   6.141   4.150   4.250  1.1647  0.2381  0.6611
   67SAPC  H16S 5622   6.099   4.326   4.235  0.8856  0.3612  0.7451
   67SAPC  C217 5623   6.295   4.272   4.321  0.2572 -0.6464 -0.2918
   67SAPC  H17R 5624   6.340   4.373   4.313 -1.7101  0.1841 -1.7731
   67SAPC  H17S 5625   6.371   4.196   4.296  0.9175  0.7480 -2.9054
   67SAPC  C218 5626   6.249   4.280   4.476  0.2256 -0.0626  0.7855
   67SAPC  H18R 5627   6.333   4.294   4.547  1.6379 -0.8335 -0.6511
   67SAPC  H18S 5628   6.206   4.181   4.503 -4.3762  1.8838  1.5767
   67SAPC  C219 5629   6.138   4.381   4.508  0.0518  0.7710  0.1877
   67SAPC  H19R 5630   6.059   4.342   4.441  1.0955 -0.9179 -0.1193
   67SAPC  H19S 5631   6.171   4.483   4.479 -0.2387  1.0867  0.9450
   67SAPC  C220 5632   6.071   4.374   4.645  0.4724  0.5913 -0.4380
   67SAPC  H20R 5633   6.000   4.460   4.639 -1.5239 -0.9837 -0.4769
   67SAPC  H20S 5634   6.150   4.389   4.722  0.8453  0.5923 -0.8190
   67SAPC  H20T 5635   6.023   4.276   4.667  0.5469  0.9982  1.8027
   67SAPC   C33 5636   6.145   4.041   2.882  0.0012  0.1179 -0.1907
   67SAPC   H3X 5637   6.169   3.933   2.892 -0.2050  0.0099 -0.8552
   67SAPC   H3Y 5638   6.037   4.062   2.869  0.3941  2.9009  0.3610
   67SAPC   C34 5639   6.191   4.118   3.008 -0.1343  0.3595 -0.9059
   67SAPC   H4X 5640   6.142   4.218   3.000 -1.8716 -0.4627 -0.9384
   67SAPC   H4Y 5641   6.300   4.134   3.024 -0.0014  0.5423 -1.9519
   67SAPC   C35 5642   6.129   4.062   3.138 -0.3742  0.5321  0.7578
   67SAPC   H5X 5643   6.161   3.957   3.155 -1.7435 -0.3530 -1.6599
   67SAPC   H5Y 5644   6.022   4.051   3.114  0.0554 -1.1285 -0.5704
   67SAPC   C36 5645   6.160   4.151   3.251 -0.5149 -1.2685 -0.4121
   67SAPC   H6X 5646   6.139   4.258   3.231 -3.8776 -1.4088  1.6375
   67SAPC   H6Y 5647   6.267   4.140   3.280  0.0866 -1.2327 -2.4533
   67SAPC   C37 5648   6.089   4.122   3.379 -0.1130  0.2042 -0.3656
   67SAPC   H7X 5649   6.129   4.177   3.467  0.4942 -0.0420 -0.4811
   67SAPC   H7Y 5650   6.112   4.017   3.407  1.1143  0.5960  0.2075
   67SAPC   C38 5651   5.939   4.137   3.376 -0.2202 -0.5566  0.5031
   67SAPC   H8X 5652   5.890   4.078   3.296  1.1245 -0.9491 -0.0599
   67SAPC   H8Y 5653   5.923   4.243   3.347  0.8251 -0.8172 -1.2296
   67SAPC   C39 5654   5.868   4.105   3.507 -0.5190  0.0544  0.0477
   67SAPC   H9X 5655   5.896   4.005   3.544  0.4914  0.4148  0.2856
   67SAPC   H9Y 5656   5.761   4.096   3.480  0.0237 -1.5976 -1.7485
   67SAPC  C310 5657   5.898   4.195   3.621 -1.0386  0.4339  0.7368
   67SAPC  H10X 5658   5.884   4.299   3.584 -0.6565  0.0837 -0.4414
   67SAPC  H10Y 5659   6.003   4.177   3.652 -0.9585 -0.5989 -0.0843
   67SAPC  C311 5660   5.806   4.177   3.742 -0.4576  0.2446 -0.1247
   67SAPC  H11X 5661   5.791   4.072   3.775 -2.0001  0.4140 -0.2014
   67SAPC  H11Y 5662   5.702   4.206   3.714 -0.4555 -1.2181 -1.7819
   67SAPC  C312 5663   5.845   4.266   3.863 -0.2741  0.1094  0.0285
   67SAPC  H12X 5664   5.843   4.375   3.842  0.9267  0.1529  0.0695
   67SAPC  H12Y 5665   5.948   4.234   3.887 -0.8022 -1.5432  0.1770
   67SAPC  C313 5666   5.745   4.249   3.976  0.2288 -0.0985  0.1880
   67SAPC  H13X 5667   5.733   4.140   3.994 -1.9440  0.3879  2.1957
   67SAPC  H13Y 5668   5.647   4.291   3.943 -0.0256 -0.2154  0.7931
   67SAPC  C314 5669   5.788   4.333   4.096 -0.5224  0.4197  0.7788
   67SAPC  H14X 5670   5.826   4.432   4.063  0.2477 -0.8511 -2.5378
   67SAPC  H14Y 5671   5.876   4.273   4.127 -0.3230 -0.4341 -1.2844
   67SAPC  C315 5672   5.685   4.352   4.208 -0.1153 -0.2406 -0.5283
   67SAPC  H15X 5673   5.655   4.252   4.243  0.3895 -0.6809 -1.3161
   67SAPC  H15Y 5674   5.592   4.404   4.177  0.1249  1.5812  1.5360
   67SAPC  C316 5675   5.760   4.413   4.332  0.1191  0.0378 -0.1490
   67SAPC  H16X 5676   5.824   4.491   4.286  0.6666  0.2834  1.0020
   67SAPC  H16Y 5677   5.826   4.345   4.390 -1.3813  1.0902  3.0594
   67SAPC  C317 5678   5.667   4.473   4.434  0.4747 -0.1427  0.4272
   67SAPC  H17X 5679   5.606   4.394   4.484  0.0472  0.6891  1.2374
   67SAPC  H17Y 5680   5.603   4.538   4.372  1.6395 -0.5242 -1.2589
   67SAPC  C318 5681   5.731   4.551   4.550  0.8107  0.1886 -0.4575
   67SAPC  H18X 5682   5.807   4.486   4.599 -0.9625  0.2823  2.6182
   67SAPC  H18Y 5683   5.655   4.590   4.620  2.2339  3.9229 -0.7531
   67SAPC  H18Z 5684   5.780   4.644   4.513 -0.5636  2.1967  2.4080
   68SAPC     N 5685   5.346   0.795   2.212 -0.0531 -0.1369  0.1122
   68SAPC   C12 5686   5.368   0.930   2.272  0.1714 -0.0255 -0.1753
   68SAPC  H12A 5687   5.387   1.000   2.192  0.1467  0.2790  0.0802
   68SAPC  H12B 5688   5.460   0.931   2.328 -0.3169  0.7085  0.6577
   68SAPC   C13 5689   5.220   0.784   2.138 -0.1935  0.5548  0.2393
   68SAPC  H13A 5690   5.136   0.798   2.205 -0.9310  1.9562 -0.9307
   68SAPC  H13B 5691   5.205   0.854   2.058 -1.0139  0.2821  0.1443
   68SAPC  H13C 5692   5.216   0.685   2.094 -0.9649  0.8248 -0.3148
   68SAPC   C14 5693   5.466   0.750   2.124  1.1082 -0.5927  0.3402
   68SAPC  H14A 5694   5.468   0.808   2.033  0.7277 -2.8967 -1.2403
   68SAPC  H14B 5695   5.558   0.765   2.178  1.0052  0.0901  0.3306
   68SAPC  H14C 5696   5.462   0.649   2.086  1.1295 -0.9829  1.3434
   68SAPC   C15 5697   5.343   0.699   2.338  0.0950  0.0791  0.3130
   68SAPC  H15A 5698   5.255   0.718   2.397  0.4804  1.3238  0.5198
   68SAPC  H15B 5699   5.346   0.599   2.297 -0.6550  1.6811 -4.2126
   68SAPC  H15C 5700   5.436   0.707   2.393  1.1371 -0.3041 -1.3182
   68SAPC   C11 5701   5.253   0.992   2.354 -0.0807 -0.4768 -0.2693
   68SAPC  H11A 5702   5.232   0.930   2.444  0.0560 -2.2247 -1.3931
   68SAPC  H11B 5703   5.158   0.994   2.295 -0.2370 -1.1705 -0.0470
   68SAPC     P 5704   5.428   1.156   2.478 -0.4459 -0.5037 -0.3259
   68SAPC   O13 5705   5.539   1.120   2.389 -0.0953 -0.1013  0.4870
   68SAPC   O14 5706   5.433   1.291   2.547 -0.1391 -0.3008 -0.0377
   68SAPC   O12 5707   5.297   1.123   2.393  0.5403  0.3098  0.4672
   68SAPC   O11 5708   5.417   1.047   2.600  0.6822 -0.7318 -0.0220
   68SAPC    C1 5709   5.311   1.057   2.698 -1.0493  1.2416  0.6934
   68SAPC    HA 5710   5.263   1.157   2.701 -0.7957  1.3994 -0.2539
   68SAPC    HB 5711   5.245   0.969   2.681  0.8414 -0.0642 -0.2898
   68SAPC    C2 5712   5.376   1.032   2.834  0.3160 -0.1435 -0.0533
   68SAPC    HS 5713   5.466   1.097   2.838 -0.0985  0.4801 -0.5911
   68SAPC   O21 5714   5.419   0.897   2.851  0.8647 -0.4889  0.4408
   68SAPC   C21 5715   5.508   0.864   2.943  0.7764  0.1147 -0.6749
   68SAPC   O22 5716   5.563   0.944   3.015 -0.2157 -0.4239 -0.4316
   68SAPC   C22 5717   5.541   0.719   2.942 -0.7414 -0.8013  0.2345
   68SAPC   H2R 5718   5.613   0.696   3.025 -0.6887 -1.9684 -0.1190
   68SAPC   H2S 5719   5.451   0.654   2.943 -1.5346  0.1012 -3.0881
   68SAPC    C3 5720   5.283   1.078   2.951  0.2418 -0.2910  0.2288
   68SAPC    HX 5721   5.210   0.994   2.957 -0.1899 -0.0372 -1.1585
   68SAPC    HY 5722   5.227   1.163   2.906  0.3964 -1.0495 -1.4779
   68SAPC   O31 5723   5.356   1.111   3.073  0.4585 -0.4740  0.5114
   68SAPC   C31 5724   5.427   1.227   3.066  0.0667 -0.5131 -0.0109
   68SAPC   O32 5725   5.429   1.304   2.967 -0.5202  0.1259 -0.1478
   68SAPC   C32 5726   5.509   1.234   3.198  0.3987 -0.5957  0.0468
   68SAPC   H2X 5727   5.616   1.209   3.183  1.0934  1.8575  0.5007
   68SAPC   H2Y 5728   5.470   1.156   3.266 -0.6821  0.6095  0.8490
   68SAPC   C23 5729   5.613   0.676   2.810 -0.4538  0.1488 -0.3763
   68SAPC   H3R 5730   5.691   0.752   2.789 -0.5930 -0.0561 -1.7701
   68SAPC   H3S 5731   5.545   0.685   2.723  2.0077  1.0922 -2.3372
   68SAPC   C24 5732   5.695   0.547   2.831  0.2227 -0.2508  0.6956
   68SAPC   H4R 5733   5.766   0.544   2.916  1.1414 -1.6612 -0.0784
   68SAPC   H4S 5734   5.762   0.533   2.744 -1.1626  0.3455 -0.5083
   68SAPC   C25 5735   5.609   0.426   2.834  0.3706 -0.0373  0.8681
   68SAPC   H5R 5736   5.529   0.433   2.760  0.8637 -2.3693  0.0216
   68SAPC   C26 5737   5.593   0.327   2.930 -0.0547  0.1045 -0.2413
   68SAPC   H6R 5738   5.512   0.254   2.914 -1.9823  2.0265  0.2643
   68SAPC   C27 5739   5.693   0.312   3.046  0.1909 -0.3383  0.0783
   68SAPC   H7R 5740   5.798   0.327   3.013  0.1126  1.8148  0.6268
   68SAPC   H7S 5741   5.694   0.215   3.100 -1.5275  0.2442  1.2428
   68SAPC   C28 5742   5.667   0.418   3.147 -0.4853 -0.5329 -0.3169
   68SAPC   H8R 5743   5.721   0.513   3.142  1.3774 -1.4137  1.4359
   68SAPC   C29 5744   5.595   0.398   3.254  0.2957 -0.1959 -0.1525
   68SAPC   H9R 5745   5.580   0.477   3.329 -2.2220  0.6717 -1.4862
   68SAPC  C210 5746   5.535   0.267   3.300  0.6519  0.0104  0.1623
   68SAPC  H10R 5747   5.520   0.190   3.222 -1.0950  0.1985  0.2634
   68SAPC  H10S 5748   5.431   0.291   3.332  0.3779  0.0827 -0.7578
   68SAPC  C211 5749   5.624   0.198   3.401  0.6261  0.1796 -0.5117
   68SAPC  H11R 5750   5.716   0.143   3.374 -0.2088 -3.5661  3.1417
   68SAPC  C212 5751   5.608   0.202   3.534 -0.0361 -1.0270  0.0916
   68SAPC  H12R 5752   5.679   0.154   3.604  0.6386 -1.7221 -1.0398
   68SAPC  C213 5753   5.498   0.276   3.608  0.0453  0.2878  0.1457
   68SAPC  H13R 5754   5.414   0.207   3.629  0.0296  0.1679 -0.3135
   68SAPC  H13S 5755   5.465   0.360   3.543  2.5042  2.7024  1.8155
   68SAPC  C214 5756   5.543   0.337   3.733 -0.5841 -0.2321  0.3282
   68SAPC  H14R 5757   5.651   0.331   3.748 -0.3654  0.8878 -0.6692
   68SAPC  C215 5758   5.471   0.371   3.840  0.6207 -0.1821  0.3521
   68SAPC  H15R 5759   5.529   0.400   3.930  0.2942 -1.0379  0.8439
   68SAPC  C216 5760   5.323   0.361   3.857 -0.7301 -0.4958  0.7237
   68SAPC  H16R 5761   5.287   0.272   3.802 -1.5436 -0.5952  1.3936
   68SAPC  H16S 5762   5.279   0.447   3.801 -1.2645 -0.3109  1.4118
   68SAPC  C217 5763   5.258   0.351   3.998  0.4262 -0.4912  0.1113
   68SAPC  H17R 5764   5.150   0.326   3.999 -0.1074  1.5023  2.4264
   68SAPC  H17S 5765   5.268   0.451   4.045  0.2816 -0.5389  0.2404
   68SAPC  C218 5766   5.342   0.251   4.089  0.2106  0.3032 -0.0375
   68SAPC  H18R 5767   5.440   0.290   4.124  1.7089 -2.4678 -0.8939
   68SAPC  H18S 5768   5.349   0.157   4.031 -4.5222 -1.0776  1.1823
   68SAPC  C219 5769   5.258   0.216   4.213  0.1909  0.0328  0.2310
   68SAPC  H19R 5770   5.308   0.125   4.253  1.2339 -0.1863 -1.4858
   68SAPC  H19S 5771   5.155   0.190   4.178 -0.0918  1.9833 -0.4833
   68SAPC  C220 5772   5.259   0.318   4.321 -0.3238  0.3210  0.3035
   68SAPC  H20R 5773   5.211   0.285   4.416 -2.9727  2.8053 -0.0519
   68SAPC  H20S 5774   5.203   0.407   4.286 -1.0112 -1.0503 -2.3279
   68SAPC  H20T 5775   5.360   0.357   4.347  0.8020 -0.3057 -2.7690
   68SAPC   C33 5776   5.487   1.370   3.271 -0.3951 -0.3864 -0.3185
   68SAPC   H3X 5777   5.498   1.353   3.381 -1.8939  1.7921  0.2201
   68SAPC   H3Y 5778   5.387   1.414   3.254  0.4015  2.0375  0.8807
   68SAPC   C34 5779   5.582   1.474   3.227 -0.3548 -1.2087 -0.4818
   68SAPC   H4X 5780   5.587   1.486   3.117  1.9647 -0.2706 -0.3333
   68SAPC   H4Y 5781   5.685   1.439   3.252 -0.0961  0.9513  1.8954
   68SAPC   C35 5782   5.573   1.608   3.309  0.6702  0.2979  0.3080
   68SAPC   H5X 5783   5.494   1.666   3.256  0.2283 -0.5872 -0.0276
   68SAPC   H5Y 5784   5.660   1.674   3.291  1.2312 -0.8377 -1.3803
   68SAPC   C36 5785   5.559   1.593   3.463  0.1992  0.4025 -0.0550
   68SAPC   H6X 5786   5.470   1.533   3.490  0.4638  0.3351  0.7046
   68SAPC   H6Y 5787   5.540   1.691   3.511 -1.8479  0.5269 -1.0399
   68SAPC   C37 5788   5.681   1.534   3.533 -0.5032  0.0100 -0.8662
   68SAPC   H7X 5789   5.771   1.595   3.510  0.3171 -0.3169  1.3194
   68SAPC   H7Y 5790   5.697   1.429   3.502  0.7277  0.4583 -1.8644
   68SAPC   C38 5791   5.664   1.531   3.689 -0.6718  0.1114  0.8130
   68SAPC   H8X 5792   5.568   1.479   3.710 -0.9551 -0.4384 -1.6295
   68SAPC   H8Y 5793   5.659   1.634   3.730 -0.4856  0.3213  0.3120
   68SAPC   C39 5794   5.766   1.450   3.760 -0.3693 -0.2422  0.1653
   68SAPC   H9X 5795   5.866   1.499   3.763  0.5706 -2.1126  0.9889
   68SAPC   H9Y 5796   5.758   1.348   3.716 -3.4228 -0.6992  1.5185
   68SAPC  C310 5797   5.730   1.451   3.909 -0.0975 -0.5930 -0.8004
   68SAPC  H10X 5798   5.630   1.411   3.935 -0.1417  0.6551  1.1171
   68SAPC  H10Y 5799   5.727   1.557   3.942 -2.4601  0.0295 -2.7623
   68SAPC  C311 5800   5.833   1.373   4.005  0.1737 -0.1964  0.7656
   68SAPC  H11X 5801   5.917   1.443   4.025  1.6288 -1.3856 -0.8498
   68SAPC  H11Y 5802   5.883   1.288   3.954 -0.4752 -0.3250  0.3356
   68SAPC  C312 5803   5.764   1.329   4.130  0.2463  0.1955  0.5687
   68SAPC  H12X 5804   5.666   1.278   4.113  1.2856 -1.0668 -2.0243
   68SAPC  H12Y 5805   5.738   1.423   4.182  3.7780  2.4639 -1.4408
   68SAPC  C313 5806   5.854   1.250   4.230  0.2163  0.6644  0.9695
   68SAPC  H13X 5807   5.794   1.260   4.323 -1.7328 -0.7314 -0.0429
   68SAPC  H13Y 5808   5.940   1.320   4.231  1.8919 -1.2471 -0.4632
   68SAPC  C314 5809   5.876   1.101   4.191  0.6964 -0.3406 -0.4130
   68SAPC  H14X 5810   5.838   1.073   4.091 -2.3356 -1.4319  0.9308
   68SAPC  H14Y 5811   5.817   1.042   4.264  3.6097 -1.2922  1.3661
   68SAPC  C315 5812   6.020   1.067   4.214  0.0711 -0.7264  0.8374
   68SAPC  H15X 5813   6.042   1.083   4.321  0.7801  2.8864  0.2821
   68SAPC  H15Y 5814   6.087   1.136   4.157 -1.3601  0.7674  0.8658
   68SAPC  C316 5815   6.055   0.916   4.181 -0.2344  0.0194  0.1616
   68SAPC  H16X 5816   6.018   0.897   4.078  0.4503  1.1979 -0.3219
   68SAPC  H16Y 5817   6.001   0.848   4.250  0.3140 -0.8088 -0.2101
   68SAPC  C317 5818   6.200   0.881   4.179 -0.3430  0.0998 -0.0518
   68SAPC  H17X 5819   6.239   0.893   4.283  0.1103 -0.4093 -0.1610
   68SAPC  H17Y 5820   6.260   0.955   4.122 -0.7401 -0.5662 -1.3775
   68SAPC  C318 5821   6.227   0.734   4.134 -0.1229 -0.3497 -0.0278
   68SAPC  H18X 5822   6.152   0.674   4.191 -2.3097  2.4673  0.2966
   68SAPC  H18Y 5823   6.326   0.690   4.159 -0.5955 -0.6469  1.4535
   68SAPC  H18Z 5824   6.207   0.727   4.025  0.6136 -2.3470 -0.0770
   69SAPC     N 5825   5.110   1.504   2.405  0.6476 -0.2603  0.5572
   69SAPC   C12 5826   4.998   1.451   2.497  0.7695  1.0364  0.5233
   69SAPC  H12A 5827   4.987   1.513   2.584 -1.3562  1.5978 -0.0762
   69SAPC  H12B 5828   5.031   1.355   2.535  1.1832  1.5064  1.3838
   69SAPC   C13 5829   5.236   1.501   2.463 -0.6182  0.1707  0.2254
   69SAPC  H13A 5830   5.286   1.407   2.449  3.0548  1.7204  1.5482
   69SAPC  H13B 5831   5.302   1.578   2.424  0.9022  0.5927  3.2932
   69SAPC  H13C 5832   5.239   1.523   2.569 -0.6257  0.5951  0.1417
   69SAPC   C14 5833   5.104   1.429   2.270  0.4149  0.4301 -0.0304
   69SAPC  H14A 5834   5.183   1.465   2.206  1.5411 -1.8465 -0.0155
   69SAPC  H14B 5835   5.125   1.325   2.291  0.9548  0.4119 -0.6482
   69SAPC  H14C 5836   5.002   1.447   2.240  0.4627 -0.1820 -0.5873
   69SAPC   C15 5837   5.080   1.645   2.385  0.3393 -0.6708  0.8708
   69SAPC  H15A 5838   5.059   1.704   2.473 -0.1680  0.3884  0.0544
   69SAPC  H15B 5839   5.158   1.688   2.324 -0.2385  0.2394  0.7568
   69SAPC  H15C 5840   4.991   1.658   2.326  0.8792  0.2445  0.2351
   69SAPC   C11 5841   4.846   1.429   2.443  0.6341  0.0730 -0.0765
   69SAPC  H11A 5842   4.797   1.396   2.536 -0.6968 -0.1997 -0.8451
   69SAPC  H11B 5843   4.834   1.342   2.374 -1.3622  0.6336 -0.4826
   69SAPC     P 5844   4.719   1.665   2.459  0.3112  0.2913  0.2230
   69SAPC   O13 5845   4.691   1.774   2.364  0.3908  0.3859 -0.6977
   69SAPC   O14 5846   4.605   1.607   2.534  0.4184 -0.3291 -0.8301
   69SAPC   O12 5847   4.792   1.554   2.387 -0.1944 -0.1341  0.2543
   69SAPC   O11 5848   4.825   1.700   2.574  0.2329  0.6432 -0.0156
   69SAPC    C1 5849   4.822   1.821   2.644  0.1394 -0.2160  0.7322
   69SAPC    HA 5850   4.852   1.902   2.574  0.5558 -0.7085  0.3351
   69SAPC    HB 5851   4.722   1.852   2.682  0.3572  2.3560 -0.5746
   69SAPC    C2 5852   4.910   1.808   2.775 -0.3320  0.4448 -0.0387
   69SAPC    HS 5853   5.017   1.796   2.745 -0.0883 -0.5101  1.1218
   69SAPC   O21 5854   4.857   1.695   2.847  0.2497 -0.2096 -0.1787
   69SAPC   C21 5855   4.922   1.574   2.822  0.2404  0.6997 -0.2659
   69SAPC   O22 5856   5.025   1.566   2.766 -0.9856 -0.0403 -0.2375
   69SAPC   C22 5857   4.822   1.465   2.879 -0.4959 -0.2232 -0.1490
   69SAPC   H2R 5858   4.807   1.499   2.983  1.7559  2.9681 -0.6864
   69SAPC   H2S 5859   4.729   1.479   2.820 -0.1287  1.3313 -0.4233
   69SAPC    C3 5860   4.894   1.935   2.864 -0.1597 -0.2153  0.3495
   69SAPC    HX 5861   4.793   1.922   2.909  0.3154 -0.4689  1.3767
   69SAPC    HY 5862   4.886   2.020   2.794  0.3343 -0.4587 -0.0119
   69SAPC   O31 5863   4.999   1.949   2.953 -0.0194 -0.2369  0.5432
   69SAPC   C31 5864   5.061   2.075   2.964 -0.7589  0.7110  1.0341
   69SAPC   O32 5865   5.022   2.169   2.898  0.4307 -1.2181  0.4928
   69SAPC   C32 5866   5.173   2.065   3.076 -0.0316 -0.6142  0.8620
   69SAPC   H2X 5867   5.212   1.961   3.068  0.3856 -0.4024  0.1209
   69SAPC   H2Y 5868   5.123   2.079   3.175  0.6093  0.9545  0.9920
   69SAPC   C23 5869   4.873   1.312   2.856 -0.4229 -0.6568  0.4318
   69SAPC   H3R 5870   4.977   1.304   2.896  0.7305  1.1816 -1.9274
   69SAPC   H3S 5871   4.878   1.298   2.746  0.1026  1.7629  0.0782
   69SAPC   C24 5872   4.778   1.215   2.917 -0.1723 -0.3397 -0.0731
   69SAPC   H4R 5873   4.768   1.252   3.021  3.2242  0.6170  0.0321
   69SAPC   H4S 5874   4.835   1.119   2.921 -0.4026 -0.6209 -2.3261
   69SAPC   C25 5875   4.640   1.189   2.860 -0.4305  0.4606  0.4348
   69SAPC   H5R 5876   4.633   1.221   2.755 -0.6042 -0.5162  0.1430
   69SAPC   C26 5877   4.531   1.153   2.927  0.4485  0.7023  0.2972
   69SAPC   H6R 5878   4.444   1.115   2.869  0.8372 -1.5131  1.0560
   69SAPC   C27 5879   4.531   1.121   3.076  0.1543  0.0906  0.2772
   69SAPC   H7R 5880   4.508   1.221   3.118 -0.3561  0.3683 -0.6341
   69SAPC   H7S 5881   4.637   1.101   3.102  0.2715  1.7842  1.2766
   69SAPC   C28 5882   4.436   1.014   3.119  0.5523  0.4426  0.0066
   69SAPC   H8R 5883   4.421   0.934   3.044 -0.7675  0.9450 -0.2851
   69SAPC   C29 5884   4.369   1.020   3.239  0.1940 -0.0523 -0.0102
   69SAPC   H9R 5885   4.298   0.938   3.258 -3.0942  2.0561 -1.9563
   69SAPC  C210 5886   4.381   1.125   3.350  0.3313  0.0959  0.7474
   69SAPC  H10R 5887   4.340   1.220   3.310  0.1303 -0.6844 -1.0226
   69SAPC  H10S 5888   4.490   1.144   3.364  0.7386  1.9682 -3.4074
   69SAPC  C211 5889   4.315   1.088   3.481 -0.0125 -0.6865 -0.2009
   69SAPC  H11R 5890   4.206   1.104   3.486  0.1588  0.4879  0.1530
   69SAPC  C212 5891   4.378   1.042   3.593  0.7783 -0.0031  0.1189
   69SAPC  H12R 5892   4.324   1.027   3.687  1.4846 -0.7594  0.4086
   69SAPC  C213 5893   4.525   1.009   3.592 -0.5737 -0.2116 -0.2224
   69SAPC  H13R 5894   4.586   1.099   3.565 -1.1348 -0.1261 -1.2733
   69SAPC  H13S 5895   4.552   0.941   3.508 -0.6437 -0.8455  0.2642
   69SAPC  C214 5896   4.573   0.963   3.728  0.3774 -0.3863 -0.6416
   69SAPC  H14R 5897   4.498   0.911   3.788 -0.7423  2.5370  0.6259
   69SAPC  C215 5898   4.695   0.986   3.785  0.7333 -0.2938 -0.6039
   69SAPC  H15R 5899   4.710   0.931   3.879 -3.2806 -2.9525 -1.2328
   69SAPC  C216 5900   4.809   1.065   3.731 -0.2449 -0.6088 -0.1392
   69SAPC  H16R 5901   4.813   1.159   3.789  0.7760 -0.9555  0.3670
   69SAPC  H16S 5902   4.790   1.091   3.624 -2.0549  2.4122  0.8008
   69SAPC  C217 5903   4.948   0.999   3.737 -1.0550  0.1340 -0.3877
   69SAPC  H17R 5904   5.026   1.064   3.691 -2.2018  0.9453 -1.2523
   69SAPC  H17S 5905   4.943   0.908   3.672  1.1175 -1.3666  1.4030
   69SAPC  C218 5906   4.984   0.946   3.870 -0.1913 -0.1758 -0.3446
   69SAPC  H18R 5907   4.913   0.866   3.898  0.9947 -1.1043  0.0808
   69SAPC  H18S 5908   4.965   1.022   3.948 -0.5788 -0.4547 -0.1637
   69SAPC  C219 5909   5.127   0.885   3.893 -0.0528 -0.5610  0.1901
   69SAPC  H19R 5910   5.125   0.857   4.000  0.3792 -0.9649  0.0955
   69SAPC  H19S 5911   5.208   0.961   3.889 -1.0975  0.9461  3.6797
   69SAPC  C220 5912   5.176   0.770   3.808 -0.3673 -0.1802 -0.0755
   69SAPC  H20R 5913   5.123   0.675   3.833 -1.4973 -0.5088 -3.2232
   69SAPC  H20S 5914   5.281   0.736   3.822 -0.3616 -0.3303 -0.4755
   69SAPC  H20T 5915   5.175   0.774   3.697 -0.6774 -0.2282 -0.0762
   69SAPC   C33 5916   5.282   2.161   3.045 -0.4146 -0.8032  0.3735
   69SAPC   H3X 5917   5.243   2.265   3.035 -0.4479 -1.0169 -2.9154
   69SAPC   H3Y 5918   5.329   2.135   2.948  1.4074 -0.0368  1.0217
   69SAPC   C34 5919   5.391   2.160   3.157  0.3028 -0.1293  0.5986
   69SAPC   H4X 5920   5.457   2.245   3.130  0.4442 -0.7454 -1.1245
   69SAPC   H4Y 5921   5.446   2.064   3.149 -0.1544 -0.5107  1.8912
   69SAPC   C35 5922   5.342   2.190   3.297 -0.4811  0.5403 -0.3923
   69SAPC   H5X 5923   5.266   2.112   3.322  2.6245 -2.7579 -0.4332
   69SAPC   H5Y 5924   5.301   2.293   3.297  1.6631  1.4615 -1.4968
   69SAPC   C36 5925   5.461   2.179   3.392  0.0998  0.0490 -0.3182
   69SAPC   H6X 5926   5.547   2.246   3.368 -0.8444  0.7923 -1.7598
   69SAPC   H6Y 5927   5.502   2.076   3.402  1.0224  0.3760 -0.5795
   69SAPC   C37 5928   5.424   2.214   3.534 -0.5846 -0.3612  0.1733
   69SAPC   H7X 5929   5.364   2.307   3.537  0.5962  0.4039  2.3553
   69SAPC   H7Y 5930   5.521   2.230   3.586  0.3690  0.3725 -1.7309
   69SAPC   C38 5931   5.343   2.104   3.603 -0.2880  0.2304 -0.3018
   69SAPC   H8X 5932   5.406   2.012   3.611  0.5858  0.8549  0.0782
   69SAPC   H8Y 5933   5.245   2.083   3.555  0.1443  0.8167 -1.4752
   69SAPC   C39 5934   5.313   2.149   3.750  0.1939 -0.4666 -0.3535
   69SAPC   H9X 5935   5.271   2.251   3.756 -2.3705 -1.5266  1.1954
   69SAPC   H9Y 5936   5.406   2.144   3.811  0.7503 -0.2408 -1.1556
   69SAPC  C310 5937   5.198   2.066   3.811  0.5601  0.4662 -0.8567
   69SAPC  H10X 5938   5.230   1.960   3.815 -2.7470 -0.6225  0.0578
   69SAPC  H10Y 5939   5.104   2.073   3.752  1.7136  0.2552 -2.8118
   69SAPC  C311 5940   5.174   2.101   3.955 -0.3785 -0.1934 -0.7335
   69SAPC  H11X 5941   5.100   2.184   3.949 -1.0265 -0.5668  1.3898
   69SAPC  H11Y 5942   5.271   2.132   3.998 -0.2696 -0.9017 -0.4599
   69SAPC  C312 5943   5.121   1.986   4.043 -0.7292 -0.9420  0.0434
   69SAPC  H12X 5944   5.191   1.902   4.025 -0.0557 -0.1812 -1.0456
   69SAPC  H12Y 5945   5.025   1.946   4.004 -1.0193 -1.4540  1.2466
   69SAPC  C313 5946   5.126   2.024   4.186  0.3175  0.2244 -0.0734
   69SAPC  H13X 5947   5.056   1.964   4.247 -0.6329  2.0576  0.7194
   69SAPC  H13Y 5948   5.095   2.129   4.205 -0.1714 -0.6552  5.7167
   69SAPC  C314 5949   5.267   2.008   4.255  0.5036 -1.0395  0.4758
   69SAPC  H14X 5950   5.325   2.092   4.211 -2.4852  0.9291 -0.0084
   69SAPC  H14Y 5951   5.312   1.912   4.223  0.8795 -0.5816 -0.4134
   69SAPC  C315 5952   5.249   2.013   4.407  0.5183  0.5351  0.5501
   69SAPC  H15X 5953   5.344   1.986   4.457 -0.5265 -1.8855  1.4237
   69SAPC  H15Y 5954   5.178   1.931   4.433  2.2727 -1.7536 -1.4063
   69SAPC  C316 5955   5.204   2.151   4.459 -0.8339 -0.1971 -0.4240
   69SAPC  H16X 5956   5.180   2.142   4.567  0.1595  0.9155 -0.0886
   69SAPC  H16Y 5957   5.123   2.200   4.401 -0.3063  3.9406  1.9522
   69SAPC  C317 5958   5.328   2.246   4.465 -0.0170  0.7336 -0.2660
   69SAPC  H17X 5959   5.354   2.272   4.360 -1.8600  1.9540 -0.4753
   69SAPC  H17Y 5960   5.423   2.200   4.499 -0.7361 -0.7628 -0.2095
   69SAPC  C318 5961   5.293   2.374   4.529  0.2826 -0.0682 -0.3192
   69SAPC  H18X 5962   5.376   2.446   4.513 -0.4781  0.7707 -0.6680
   69SAPC  H18Y 5963   5.279   2.369   4.639 -0.0170 -1.3747 -0.4074
   69SAPC  H18Z 5964   5.200   2.409   4.478 -0.3807 -0.2659  0.7349
   70SAPC     N 5965   6.690   0.924   1.829 -0.0739 -0.8284 -0.3675
   70SAPC   C12 5966   6.735   0.975   1.961 -0.4308 -0.5339  0.0880
   70SAPC  H12A 5967   6.674   1.060   1.986  0.9296  0.1718  1.1390
   70SAPC  H12B 5968   6.837   1.010   1.956 -0.7678  0.7630  1.5500
   70SAPC   C13 5969   6.543   0.886   1.835  0.0305  0.5564  0.4365
   70SAPC  H13A 5970   6.539   0.803   1.904  2.4219  0.7318  0.8811
   70SAPC  H13B 5971   6.485   0.973   1.864 -3.9620 -0.9278 -2.2188
   70SAPC  H13C 5972   6.508   0.843   1.743 -2.9367  1.2602  1.1173
   70SAPC   C14 5973   6.703   1.029   1.715  0.4251  0.0782 -0.1947
   70SAPC  H14A 5974   6.631   0.995   1.641  1.1005  0.0227 -0.8404
   70SAPC  H14B 5975   6.663   1.123   1.751  1.7080  0.0163  1.4945
   70SAPC  H14C 5976   6.804   1.047   1.681  0.8515 -3.5188 -1.2790
   70SAPC   C15 5977   6.770   0.805   1.783  0.8367 -0.6001  0.5119
   70SAPC  H15A 5978   6.722   0.761   1.697  0.1478 -1.1952  1.1926
   70SAPC  H15B 5979   6.874   0.819   1.755  0.4948 -1.3003 -1.3203
   70SAPC  H15C 5980   6.775   0.727   1.857  0.8366  0.0159  1.1716
   70SAPC   C11 5981   6.727   0.877   2.089 -0.4839  0.0410  0.1076
   70SAPC  H11A 5982   6.631   0.822   2.100 -0.6513  0.3717  0.3530
   70SAPC  H11B 5983   6.739   0.947   2.175 -1.8184 -2.3240  2.3845
   70SAPC     P 5984   6.986   0.839   2.073  0.0439  0.7083  0.0145
   70SAPC   O13 5985   7.039   0.792   1.942  0.2117 -0.1617 -0.1966
   70SAPC   O14 5986   6.998   0.985   2.093 -0.2755 -0.1775 -0.4113
   70SAPC   O12 5987   6.838   0.783   2.091  0.3974  0.2833  0.6541
   70SAPC   O11 5988   7.051   0.766   2.193  0.3223  0.1220  0.0321
   70SAPC    C1 5989   7.028   0.633   2.240 -0.2782 -0.1041  0.1032
   70SAPC    HA 5990   6.921   0.602   2.240 -0.1755 -0.4893 -0.6030
   70SAPC    HB 5991   7.073   0.557   2.173 -2.0854 -0.1612 -1.1235
   70SAPC    C2 5992   7.092   0.611   2.385 -0.2358  0.4466 -0.9826
   70SAPC    HS 5993   7.077   0.505   2.414  0.3084  0.7176  0.3444
   70SAPC   O21 5994   7.033   0.710   2.473 -0.0930  0.4528 -0.3069
   70SAPC   C21 5995   6.916   0.671   2.513  0.3526 -0.0862  0.5481
   70SAPC   O22 5996   6.858   0.569   2.486 -0.7240  0.2145  0.2872
   70SAPC   C22 5997   6.870   0.768   2.622 -1.0198  0.8575  0.4623
   70SAPC   H2R 5998   6.891   0.871   2.585 -1.9920  1.3101  1.1244
   70SAPC   H2S 5999   6.766   0.734   2.638 -0.1090 -1.4457  1.8678
   70SAPC    C3 6000   7.249   0.630   2.387 -0.3205  0.1620 -0.3196
   70SAPC    HX 6001   7.277   0.736   2.373  1.5614 -0.2927 -0.3233
   70SAPC    HY 6002   7.284   0.576   2.296  0.0703  1.0271 -0.6937
   70SAPC   O31 6003   7.308   0.584   2.511  0.2307  0.5743  0.2306
   70SAPC   C31 6004   7.339   0.452   2.525  0.0526  0.5325 -0.1875
   70SAPC   O32 6005   7.318   0.372   2.433 -0.6180  0.3382  0.1924
   70SAPC   C32 6006   7.404   0.424   2.660  0.2949  0.1379  0.5293
   70SAPC   H2X 6007   7.418   0.519   2.715 -0.0233  0.9345 -0.7371
   70SAPC   H2Y 6008   7.497   0.370   2.633 -0.9608 -1.1325 -1.4667
   70SAPC   C23 6009   6.958   0.748   2.759 -0.2467  0.6740  0.1055
   70SAPC   H3R 6010   7.052   0.798   2.728  0.2700 -0.3193  0.0375
   70SAPC   H3S 6011   6.979   0.647   2.799  2.5814  0.9706 -0.4046
   70SAPC   C24 6012   6.896   0.828   2.876  0.0779  0.7593  0.1532
   70SAPC   H4R 6013   6.878   0.932   2.842  0.3938  1.2354  1.3730
   70SAPC   H4S 6014   6.976   0.835   2.953  1.1080 -0.1800 -0.7940
   70SAPC   C25 6015   6.767   0.766   2.917  0.7919 -0.0186  0.2421
   70SAPC   H5R 6016   6.676   0.778   2.857 -0.3678 -0.0487  1.9161
   70SAPC   C26 6017   6.734   0.721   3.044  0.0555 -0.4019  0.2631
   70SAPC   H6R 6018   6.633   0.677   3.055  0.6430 -2.2995 -1.3772
   70SAPC   C27 6019   6.822   0.714   3.161 -0.1271 -0.5995  0.3121
   70SAPC   H7R 6020   6.784   0.778   3.244  1.1294  0.7749 -0.1385
   70SAPC   H7S 6021   6.917   0.770   3.151 -1.6743  2.7050  2.3686
   70SAPC   C28 6022   6.838   0.577   3.202 -0.3113  0.0072  0.5897
   70SAPC   H8R 6023   6.860   0.499   3.128  2.7857  1.0958  0.2119
   70SAPC   C29 6024   6.826   0.532   3.330  0.3990 -0.3011  0.5146
   70SAPC   H9R 6025   6.846   0.425   3.347  1.0739 -0.3323 -0.3698
   70SAPC  C210 6026   6.777   0.603   3.457 -0.1460  0.1675 -0.2209
   70SAPC  H10R 6027   6.769   0.713   3.447 -1.0658  0.2676  1.2990
   70SAPC  H10S 6028   6.862   0.587   3.526 -0.3678  0.5731  0.1493
   70SAPC  C211 6029   6.644   0.547   3.509  0.5791  0.2940  0.0903
   70SAPC  H11R 6030   6.590   0.468   3.454  1.4362 -1.9188  2.1985
   70SAPC  C212 6031   6.597   0.583   3.630 -0.2371  0.4141  0.6141
   70SAPC  H12R 6032   6.499   0.544   3.662 -1.1496 -0.2927 -2.6147
   70SAPC  C213 6033   6.662   0.686   3.723  0.1950  0.1262  0.4180
   70SAPC  H13R 6034   6.590   0.750   3.778  1.1491  0.0139  1.8549
   70SAPC  H13S 6035   6.732   0.744   3.658  0.1406 -0.1126  0.1429
   70SAPC  C214 6036   6.750   0.622   3.834  0.2257  0.6005  0.8310
   70SAPC  H14R 6037   6.859   0.618   3.819  0.3852  1.3846  1.7400
   70SAPC  C215 6038   6.705   0.544   3.938 -0.1232  0.6838  0.0666
   70SAPC  H15R 6039   6.781   0.489   3.995  1.7123  1.5953 -1.3810
   70SAPC  C216 6040   6.559   0.529   3.980 -0.1833 -0.1903 -0.1766
   70SAPC  H16R 6041   6.497   0.584   3.907 -0.5126 -2.2304 -1.5153
   70SAPC  H16S 6042   6.553   0.578   4.080  0.3023 -0.0299 -0.2197
   70SAPC  C217 6043   6.519   0.388   3.983  0.0752 -0.4563  0.3679
   70SAPC  H17R 6044   6.526   0.339   3.884 -1.4679  0.0343 -0.0140
   70SAPC  H17S 6045   6.410   0.388   4.004 -0.8106 -0.1618 -3.4834
   70SAPC  C218 6046   6.590   0.311   4.105  0.2376  0.4638 -0.2224
   70SAPC  H18R 6047   6.633   0.385   4.176  0.3000 -0.6388  0.9131
   70SAPC  H18S 6048   6.669   0.250   4.056  1.6592  2.2696 -0.2912
   70SAPC  C219 6049   6.490   0.225   4.180  0.4841  0.1754  0.2255
   70SAPC  H19R 6050   6.545   0.146   4.235  1.2800  0.9485  0.5680
   70SAPC  H19S 6051   6.429   0.185   4.096  0.7661 -0.0535  0.1291
   70SAPC  C220 6052   6.397   0.311   4.270  0.6037  0.2430 -0.2759
   70SAPC  H20R 6053   6.458   0.366   4.345 -0.0305 -0.7861  1.0341
   70SAPC  H20S 6054   6.330   0.247   4.330  1.6964  2.7290  4.0013
   70SAPC  H20T 6055   6.319   0.370   4.217 -0.1138 -1.7492 -1.5684
   70SAPC   C33 6056   7.314   0.326   2.739  0.3544 -0.3998 -0.2205
   70SAPC   H3X 6057   7.374   0.288   2.824 -0.5355 -0.3397  0.4362
   70SAPC   H3Y 6058   7.295   0.233   2.682  0.7807 -1.2155  0.9467
   70SAPC   C34 6059   7.182   0.388   2.785  0.4887  1.7247 -0.1503
   70SAPC   H4X 6060   7.129   0.436   2.700  2.1580  0.4833 -1.9702
   70SAPC   H4Y 6061   7.209   0.470   2.856  2.6275  0.1940  0.9283
   70SAPC   C35 6062   7.093   0.279   2.854  0.5274  0.0965  0.4550
   70SAPC   H5X 6063   7.091   0.196   2.780 -0.0679  0.5533 -0.0465
   70SAPC   H5Y 6064   6.992   0.322   2.871  1.0895  0.8586  2.0256
   70SAPC   C36 6065   7.155   0.228   2.984  0.5781  0.1987 -0.1983
   70SAPC   H6X 6066   7.266   0.219   2.975  0.6221  2.1518 -2.4969
   70SAPC   H6Y 6067   7.116   0.127   3.010  0.2403  0.4145  0.1509
   70SAPC   C37 6068   7.132   0.321   3.106  0.4148  0.2269 -0.1013
   70SAPC   H7X 6069   7.182   0.417   3.083  0.0650  0.4377  0.0156
   70SAPC   H7Y 6070   7.024   0.343   3.117 -0.0016  0.0192 -2.9874
   70SAPC   C38 6071   7.174   0.275   3.243 -0.3947  0.5267 -0.3981
   70SAPC   H8X 6072   7.277   0.235   3.231 -0.7056 -0.1076 -1.0295
   70SAPC   H8Y 6073   7.115   0.186   3.274  1.4760 -1.4083 -2.0764
   70SAPC   C39 6074   7.175   0.389   3.345  0.3894 -0.3441  0.2455
   70SAPC   H9X 6075   7.075   0.435   3.332 -0.5781 -2.4652 -0.1588
   70SAPC   H9Y 6076   7.244   0.470   3.311  0.4537 -0.7099 -0.5165
   70SAPC  C310 6077   7.222   0.343   3.479  0.4260 -0.3917 -0.5213
   70SAPC  H10X 6078   7.285   0.252   3.469  1.2861  0.2300 -0.8384
   70SAPC  H10Y 6079   7.133   0.310   3.537  0.9971 -3.2682 -1.1263
   70SAPC  C311 6080   7.310   0.449   3.562  0.4299  0.4545  0.9589
   70SAPC  H11X 6081   7.241   0.528   3.599 -0.1291  2.2271 -3.3511
   70SAPC  H11Y 6082   7.386   0.498   3.498 -0.3529  0.3814 -0.0473
   70SAPC  C312 6083   7.389   0.370   3.669 -0.6891  0.8997  0.0038
   70SAPC  H12X 6084   7.475   0.318   3.622 -0.9794 -0.6252  1.1185
   70SAPC  H12Y 6085   7.318   0.290   3.697 -0.1028  0.0947 -0.7550
   70SAPC  C313 6086   7.428   0.454   3.793  0.2800 -0.0034  1.0593
   70SAPC  H13X 6087   7.336   0.505   3.829  0.6710  0.0777  1.9902
   70SAPC  H13Y 6088   7.506   0.528   3.766 -0.7854  0.8787  0.3133
   70SAPC  C314 6089   7.471   0.367   3.911  0.7456 -0.4162  0.5160
   70SAPC  H14X 6090   7.549   0.309   3.857  0.8444  0.4568 -0.3000
   70SAPC  H14Y 6091   7.395   0.295   3.948  0.2901 -0.7785 -1.0701
   70SAPC  C315 6092   7.505   0.454   4.033  0.2791 -0.9966  0.0195
   70SAPC  H15X 6093   7.425   0.527   4.056  0.6472 -0.7537  0.5415
   70SAPC  H15Y 6094   7.596   0.506   3.996  0.3174  0.2958  1.8376
   70SAPC  C316 6095   7.543   0.368   4.155  0.2973 -0.3948  0.0310
   70SAPC  H16X 6096   7.595   0.280   4.112  2.3336 -0.5649  2.6280
   70SAPC  H16Y 6097   7.450   0.325   4.198 -0.0576 -0.4227 -0.7384
   70SAPC  C317 6098   7.625   0.433   4.261 -0.3595 -0.3130 -0.2606
   70SAPC  H17X 6099   7.567   0.515   4.309  2.2410  1.7052 -0.3630
   70SAPC  H17Y 6100   7.712   0.488   4.220  0.6895  0.2716  2.5932
   70SAPC  C318 6101   7.668   0.339   4.370  0.1385  0.3389 -0.1364
   70SAPC  H18X 6102   7.757   0.383   4.419 -0.4187 -0.1031  1.3358
   70SAPC  H18Y 6103   7.698   0.237   4.340  0.6355  0.0993  1.1097
   70SAPC  H18Z 6104   7.600   0.338   4.459  0.3920 -1.2712  0.0633
   71SAPC     N 6105   2.099   4.401   2.267 -0.0390  0.6608  0.5630
   71SAPC   C12 6106   2.048   4.369   2.403  0.0966 -0.3005 -0.8171
   71SAPC  H12A 6107   2.134   4.356   2.466 -1.2136 -1.4410  0.8117
   71SAPC  H12B 6108   2.010   4.268   2.409 -0.1020 -0.2928 -1.7844
   71SAPC   C13 6109   1.994   4.430   2.164  0.0276  0.3124 -0.0607
   71SAPC  H13A 6110   1.946   4.338   2.136 -0.3281  0.6436 -0.5620
   71SAPC  H13B 6111   1.919   4.493   2.211  1.7995  1.9665  0.7246
   71SAPC  H13C 6112   2.018   4.479   2.071 -1.0391 -1.8388 -1.5633
   71SAPC   C14 6113   2.193   4.524   2.278  0.2287  0.3396  0.1397
   71SAPC  H14A 6114   2.164   4.591   2.358  1.6553  0.3139  0.7125
   71SAPC  H14B 6115   2.291   4.499   2.314 -0.3779  0.3266  1.9187
   71SAPC  H14C 6116   2.202   4.570   2.181  2.7473 -2.1405 -0.9003
   71SAPC   C15 6117   2.181   4.283   2.214 -0.2792  0.5435 -0.1936
   71SAPC  H15A 6118   2.136   4.187   2.235  0.4886  0.4806  1.3584
   71SAPC  H15B 6119   2.207   4.286   2.110 -0.6622  1.1052 -0.2745
   71SAPC  H15C 6120   2.275   4.289   2.267 -1.2750 -0.3880  1.8190
   71SAPC   C11 6121   1.968   4.475   2.486 -0.2797 -0.2655 -0.1281
   71SAPC  H11A 6122   1.946   4.422   2.581  0.0166 -0.3360 -0.1010
   71SAPC  H11B 6123   1.870   4.500   2.439 -1.0215 -0.5718  1.2271
   71SAPC     P 6124   1.989   4.735   2.530  0.3310  0.2691  0.1162
   71SAPC   O13 6125   2.100   4.831   2.540 -0.5133  0.4762  0.4485
   71SAPC   O14 6126   1.884   4.768   2.432 -0.4970 -0.0420 -0.2714
   71SAPC   O12 6127   2.046   4.594   2.500 -0.3039  0.0267  0.4848
   71SAPC   O11 6128   1.916   4.737   2.669  0.6528  0.0756 -0.4452
   71SAPC    C1 6129   1.992   4.771   2.793  0.1902  0.0202  0.0586
   71SAPC    HA 6130   2.065   4.854   2.781  0.2790  0.0692  0.8847
   71SAPC    HB 6131   1.934   4.786   2.886  0.5743 -2.8727  0.8501
   71SAPC    C2 6132   2.097   4.661   2.828  0.0723  0.7889 -0.6831
   71SAPC    HS 6133   2.158   4.657   2.736 -1.2017  3.2244 -1.7398
   71SAPC   O21 6134   2.029   4.532   2.835 -0.4870  0.1083  0.2412
   71SAPC   C21 6135   2.111   4.423   2.836 -0.1493  0.0415  0.0285
   71SAPC   O22 6136   2.233   4.427   2.834  0.2351  0.3512 -0.2336
   71SAPC   C22 6137   2.017   4.300   2.823  0.4314  0.1817  0.1945
   71SAPC   H2R 6138   1.939   4.322   2.747  0.4481  2.0631  0.6518
   71SAPC   H2S 6139   2.080   4.223   2.774 -1.2340 -0.9824 -0.1741
   71SAPC    C3 6140   2.184   4.695   2.952 -0.4942 -0.2774  0.4460
   71SAPC    HX 6141   2.220   4.797   2.926 -0.0555 -0.3648  0.7003
   71SAPC    HY 6142   2.274   4.632   2.969  0.0966  0.4880  0.2310
   71SAPC   O31 6143   2.098   4.692   3.070 -0.4985  0.2279  0.4576
   71SAPC   C31 6144   2.132   4.612   3.167 -0.1833  0.2174 -0.2922
   71SAPC   O32 6145   2.228   4.542   3.175 -0.6154  0.0705 -0.4222
   71SAPC   C32 6146   2.029   4.623   3.276  0.0050 -0.5980 -0.1288
   71SAPC   H2X 6147   1.993   4.518   3.283 -1.7807  0.0383  0.7611
   71SAPC   H2Y 6148   1.950   4.696   3.250  1.0102  0.2771 -0.7915
   71SAPC   C23 6149   1.960   4.261   2.957  0.0482 -0.3793 -0.3137
   71SAPC   H3R 6150   1.882   4.186   2.931 -1.5564  1.3474 -0.6355
   71SAPC   H3S 6151   1.911   4.348   3.006 -1.6337 -1.2471 -0.3730
   71SAPC   C24 6152   2.062   4.207   3.064  0.5827 -0.2922  0.3987
   71SAPC   H4R 6153   2.108   4.291   3.123  0.2899 -0.7893  1.3602
   71SAPC   H4S 6154   2.141   4.150   3.011 -2.0990 -2.5640 -1.4113
   71SAPC   C25 6155   1.999   4.114   3.164  0.5198 -0.0962  0.1138
   71SAPC   H5R 6156   1.982   4.011   3.130  0.4643 -1.4847  3.8776
   71SAPC   C26 6157   1.962   4.135   3.290 -0.3291  0.2617  0.7537
   71SAPC   H6R 6158   1.932   4.045   3.345 -0.7592  1.0302  1.8009
   71SAPC   C27 6159   1.982   4.251   3.378 -0.0821 -0.3019 -1.0754
   71SAPC   H7R 6160   1.928   4.329   3.321 -0.7167 -1.1666 -1.6893
   71SAPC   H7S 6161   2.088   4.282   3.384  0.8425 -3.2916  0.2545
   71SAPC   C28 6162   1.933   4.248   3.527  0.6438  0.5097  0.1986
   71SAPC   H8R 6163   1.853   4.322   3.544 -1.6073 -1.1426 -2.2866
   71SAPC   C29 6164   1.969   4.155   3.620  0.4227 -0.5103 -0.2269
   71SAPC   H9R 6165   1.928   4.167   3.722 -0.9655 -0.1984 -0.7970
   71SAPC  C210 6166   2.064   4.041   3.598  0.4248 -0.3642 -0.3258
   71SAPC  H10R 6167   2.089   4.040   3.490  0.5884  1.5356 -0.3529
   71SAPC  H10S 6168   2.015   3.942   3.608  1.0161 -0.6559 -0.2759
   71SAPC  C211 6169   2.183   4.044   3.693  0.7155  0.0835 -0.3271
   71SAPC  H11R 6170   2.263   4.110   3.658  0.5809 -0.1724 -1.1236
   71SAPC  C212 6171   2.199   3.976   3.803  0.5349 -0.1123 -0.2614
   71SAPC  H12R 6172   2.289   3.996   3.863 -0.8673 -0.1164  1.9815
   71SAPC  C213 6173   2.101   3.878   3.865  0.2249  0.6949 -0.4375
   71SAPC  H13R 6174   2.002   3.875   3.815 -0.2252  1.3206  0.3843
   71SAPC  H13S 6175   2.085   3.907   3.971 -1.9975 -2.3448  0.2208
   71SAPC  C214 6176   2.155   3.731   3.879  0.2272  0.1635 -0.0878
   71SAPC  H14R 6177   2.124   3.661   3.800  2.4672 -0.9098 -0.0821
   71SAPC  C215 6178   2.216   3.686   3.994 -0.5461 -0.2427 -0.1451
   71SAPC  H15R 6179   2.237   3.578   3.998  1.6772  0.1053 -0.8230
   71SAPC  C216 6180   2.262   3.772   4.106  0.3285 -0.1707 -0.4836
   71SAPC  H16R 6181   2.245   3.881   4.090  1.7231  0.1028 -0.2077
   71SAPC  H16S 6182   2.369   3.756   4.128  0.5386  0.0728 -1.3016
   71SAPC  C217 6183   2.201   3.711   4.233  0.0470 -0.1550 -0.8832
   71SAPC  H17R 6184   2.211   3.601   4.240 -0.5335 -0.2031 -0.7457
   71SAPC  H17S 6185   2.091   3.729   4.232  0.3503  2.1075 -0.4224
   71SAPC  C218 6186   2.257   3.770   4.368 -0.8628  0.1264 -0.2133
   71SAPC  H18R 6187   2.366   3.757   4.386 -0.5894 -0.1709 -1.8943
   71SAPC  H18S 6188   2.199   3.717   4.446 -1.0174 -0.0009 -0.4131
   71SAPC  C219 6189   2.232   3.917   4.400 -0.2251 -0.3995  0.7508
   71SAPC  H19R 6190   2.271   3.977   4.315 -1.9911 -1.3657 -0.8233
   71SAPC  H19S 6191   2.290   3.927   4.494  0.1851 -2.3309  0.7374
   71SAPC  C220 6192   2.086   3.944   4.419  0.9447  0.8231 -0.0759
   71SAPC  H20R 6193   2.054   3.902   4.517  1.1866 -1.5863 -0.9533
   71SAPC  H20S 6194   2.027   3.908   4.332  0.7494  3.0030 -0.9128
   71SAPC  H20T 6195   2.078   4.054   4.428  0.8026  0.8344 -0.3194
   71SAPC   C33 6196   2.085   4.689   3.404  0.6215  0.3498  0.5758
   71SAPC   H3X 6197   2.122   4.793   3.396  3.1014 -0.5030  0.3008
   71SAPC   H3Y 6198   2.185   4.650   3.434  1.9192  2.1323 -1.2365
   71SAPC   C34 6199   1.978   4.676   3.519 -0.3702 -0.6240 -0.8282
   71SAPC   H4X 6200   1.944   4.571   3.508 -1.6424 -0.0877 -2.3778
   71SAPC   H4Y 6201   1.895   4.745   3.492 -0.5147  0.9604  2.9743
   71SAPC   C35 6202   2.045   4.693   3.651  0.0951  0.0618 -0.1313
   71SAPC   H5X 6203   2.098   4.791   3.645 -0.3270  0.2703 -0.4753
   71SAPC   H5Y 6204   2.118   4.610   3.660  0.1252  0.0644 -0.3560
   71SAPC   C36 6205   1.940   4.693   3.764  0.1109  0.1485 -0.4063
   71SAPC   H6X 6206   1.891   4.594   3.778  0.2986 -0.1477 -1.6736
   71SAPC   H6Y 6207   1.861   4.769   3.744  0.6300  0.9454  0.5142
   71SAPC   C37 6208   1.998   4.722   3.914  0.6767  0.2961  0.6508
   71SAPC   H7X 6209   2.049   4.821   3.915  0.3036  0.4895  1.0114
   71SAPC   H7Y 6210   2.083   4.652   3.916  1.8451  1.6494  0.0362
   71SAPC   C38 6211   1.911   4.698   4.041  0.6301  0.2146  0.0923
   71SAPC   H8X 6212   1.876   4.593   4.050  1.1977 -0.0914 -1.1125
   71SAPC   H8Y 6213   1.829   4.773   4.033  0.1875 -0.1482  1.1029
   71SAPC   C39 6214   1.995   4.714   4.166  0.6152  0.8002  0.0266
   71SAPC   H9X 6215   2.070   4.796   4.164  0.9488  0.5190  0.8294
   71SAPC   H9Y 6216   2.050   4.620   4.185 -0.9102  0.2507  2.0307
   71SAPC  C310 6217   1.920   4.746   4.297 -0.4412 -0.0709 -0.3573
   71SAPC  H10X 6218   1.879   4.849   4.306 -0.4366 -0.1940  1.4335
   71SAPC  H10Y 6219   1.999   4.761   4.373 -1.9453  0.9223  1.0746
   71SAPC  C311 6220   1.816   4.649   4.350  0.2564 -0.3079  0.4374
   71SAPC  H11X 6221   1.873   4.554   4.357  0.3734 -0.4224 -1.6640
   71SAPC  H11Y 6222   1.744   4.627   4.269  2.5308  1.7877 -2.3741
   71SAPC  C312 6223   1.752   4.690   4.478  0.0321  0.2503 -0.2682
   71SAPC  H12X 6224   1.700   4.602   4.520 -1.1800  1.1721  0.2287
   71SAPC  H12Y 6225   1.665   4.756   4.458  1.0166  1.3389 -1.1681
   71SAPC  C313 6226   1.835   4.755   4.589  0.3542  1.1777 -0.1486
   71SAPC  H13X 6227   1.871   4.855   4.557  1.5175  0.3519 -1.5624
   71SAPC  H13Y 6228   1.926   4.694   4.606  0.0184  0.7805  0.2497
   71SAPC  C314 6229   1.765   4.753   4.724 -0.7614 -0.4428 -0.0901
   71SAPC  H14X 6230   1.743   4.646   4.740 -2.4991 -0.0669  0.2660
   71SAPC  H14Y 6231   1.668   4.806   4.718 -0.1190  1.0233  1.4188
   71SAPC  C315 6232   1.866   4.800   4.833  0.5489  0.0239 -0.4003
   71SAPC  H15X 6233   1.911   4.899   4.808  1.0213 -0.0510  0.1505
   71SAPC  H15Y 6234   1.959   4.741   4.842  0.6689  0.1427 -0.8455
   71SAPC  C316 6235   1.796   4.800   4.975  0.0805  0.4518 -0.0696
   71SAPC  H16X 6236   1.762   4.703   5.019  0.3353  2.0764  4.2507
   71SAPC  H16Y 6237   1.701   4.858   4.969  0.2064  1.4346  4.2319
   71SAPC  C317 6238   1.883   4.866   5.090 -0.0867 -0.0277  0.1298
   71SAPC  H17X 6239   1.820   4.881   5.180 -1.0381  1.2029 -0.6973
   71SAPC  H17Y 6240   1.929   4.962   5.059  3.9652 -1.4289  1.2129
   71SAPC  C318 6241   2.004   4.786   5.129  0.1951  0.5131 -0.9344
   71SAPC  H18X 6242   1.980   4.681   5.159  0.8013  1.0520  1.7311
   71SAPC  H18Y 6243   2.048   4.839   5.216 -0.7452 -1.2000  0.6799
   71SAPC  H18Z 6244   2.074   4.775   5.044 -0.3149 -0.6419 -1.2310
   72SAPC     N 6245   6.397   4.140   2.241  0.0084 -0.0794  0.0171
   72SAPC   C12 6246   6.255   4.109   2.217 -0.4105  0.0937  1.0549
   72SAPC  H12A 6247   6.246   4.056   2.124  1.1328  1.7343 -0.0866
   72SAPC  H12B 6248   6.202   4.202   2.203 -2.1098 -0.9793 -0.0674
   72SAPC   C13 6249   6.453   4.006   2.261 -0.0923  0.0356  0.4688
   72SAPC  H13A 6250   6.419   3.955   2.350 -1.7364 -0.2602 -0.2969
   72SAPC  H13B 6251   6.431   3.938   2.180  2.1928 -0.2168 -0.0146
   72SAPC  H13C 6252   6.560   3.998   2.265 -0.0842  0.4660  2.8098
   72SAPC   C14 6253   6.464   4.200   2.123 -0.2911 -0.2573 -0.3716
   72SAPC  H14A 6254   6.420   4.291   2.086  0.8079 -0.1057 -1.3619
   72SAPC  H14B 6255   6.567   4.223   2.143 -0.6849  1.4807 -0.2112
   72SAPC  H14C 6256   6.465   4.124   2.046 -1.9509  1.1983 -1.9134
   72SAPC   C15 6257   6.412   4.230   2.350  0.1365  0.8896  0.4021
   72SAPC  H15A 6258   6.517   4.254   2.345  0.0832  1.0391  0.0293
   72SAPC  H15B 6259   6.351   4.318   2.341  0.9748  1.6697  1.9144
   72SAPC  H15C 6260   6.396   4.188   2.449  2.5025  0.1522  0.5336
   72SAPC   C11 6261   6.197   4.029   2.331  0.6010 -0.0171 -0.2170
   72SAPC  H11A 6262   6.092   4.060   2.351  0.3345 -0.8562 -0.2577
   72SAPC  H11B 6263   6.247   4.055   2.426  1.1700  1.6247 -0.9342
   72SAPC     P 6264   6.088   3.825   2.207  0.1708  0.0121 -0.1686
   72SAPC   O13 6265   6.023   3.941   2.141  0.1797  0.1644  1.1217
   72SAPC   O14 6266   6.144   3.728   2.115  0.2214  0.2510 -0.3968
   72SAPC   O12 6267   6.202   3.882   2.311  0.0226  0.4439  0.2605
   72SAPC   O11 6268   5.977   3.760   2.292  0.1167 -0.5052  0.2564
   72SAPC    C1 6269   6.002   3.661   2.396 -0.3776  0.1933  0.2051
   72SAPC    HA 6270   5.915   3.594   2.414 -0.4071  0.4882  1.2349
   72SAPC    HB 6271   6.087   3.593   2.372  0.0098  1.1240 -1.1357
   72SAPC    C2 6272   6.016   3.737   2.534  0.6995  0.5562  0.0639
   72SAPC    HS 6273   6.116   3.787   2.541  1.1984 -0.1678 -1.4673
   72SAPC   O21 6274   5.995   3.632   2.635 -0.1778  0.1004  0.2212
   72SAPC   C21 6275   6.077   3.653   2.745  0.0936 -0.1243  0.2534
   72SAPC   O22 6276   6.157   3.744   2.752 -0.6512  0.0781  0.1045
   72SAPC   C22 6277   6.064   3.554   2.857  1.2913  0.3446  0.5863
   72SAPC   H2R 6278   6.104   3.458   2.819  0.1147  0.8196 -2.0895
   72SAPC   H2S 6279   6.144   3.583   2.929  2.3029 -1.4349  0.2263
   72SAPC    C3 6280   5.903   3.846   2.547 -0.1523 -0.2136 -0.2476
   72SAPC    HX 6281   5.809   3.805   2.504 -0.6641 -0.4628  1.0622
   72SAPC    HY 6282   5.941   3.932   2.488  0.8012  0.5622  1.4433
   72SAPC   O31 6283   5.898   3.888   2.683 -0.3114  0.2640 -0.0717
   72SAPC   C31 6284   5.776   3.910   2.725  0.6189 -0.3501 -0.0979
   72SAPC   O32 6285   5.671   3.890   2.661  0.4277 -0.0078  0.5965
   72SAPC   C32 6286   5.776   3.954   2.873  0.8723  0.0707  0.0391
   72SAPC   H2X 6287   5.755   4.063   2.867  0.6133 -0.0471 -2.1941
   72SAPC   H2Y 6288   5.876   3.935   2.918 -0.0696 -1.0802  1.7020
   72SAPC   C23 6289   5.924   3.530   2.919  0.6119 -0.1946 -0.0793
   72SAPC   H3R 6290   5.854   3.490   2.842  1.2256 -1.2299 -0.1111
   72SAPC   H3S 6291   5.881   3.629   2.945 -0.6082 -0.5947 -0.4635
   72SAPC   C24 6292   5.925   3.454   3.048 -0.4501 -0.0112  0.2547
   72SAPC   H4R 6293   6.003   3.493   3.117  0.8396 -1.4892 -0.3161
   72SAPC   H4S 6294   5.951   3.348   3.030  0.1935 -0.2229  2.2119
   72SAPC   C25 6295   5.787   3.462   3.110  0.4057  0.1568 -0.7596
   72SAPC   H5R 6296   5.719   3.537   3.068  2.2927  1.3761 -1.7610
   72SAPC   C26 6297   5.755   3.425   3.236 -0.5816  0.1118  0.1106
   72SAPC   H6R 6298   5.654   3.450   3.272  0.8496  4.5038  1.7813
   72SAPC   C27 6299   5.833   3.342   3.337  0.2908  0.2405  0.0188
   72SAPC   H7R 6300   5.751   3.325   3.410 -1.4458  1.7663 -1.4750
   72SAPC   H7S 6301   5.912   3.407   3.381 -1.6880  1.6629  1.6436
   72SAPC   C28 6302   5.888   3.215   3.273  1.0622 -0.1041 -0.8397
   72SAPC   H8R 6303   5.866   3.204   3.166  1.0092 -3.3074 -0.5968
   72SAPC   C29 6304   5.944   3.109   3.340 -0.6368 -0.4374 -0.5164
   72SAPC   H9R 6305   5.974   3.026   3.275 -1.7145 -1.1773 -0.0872
   72SAPC  C210 6306   5.978   3.083   3.486  0.2569  0.2577  0.0267
   72SAPC  H10R 6307   6.061   3.150   3.519 -0.5335  1.3295 -0.1044
   72SAPC  H10S 6308   6.020   2.982   3.505  1.0261  1.0141  2.7539
   72SAPC  C211 6309   5.859   3.087   3.578  0.2591 -0.2413  0.2985
   72SAPC  H11R 6310   5.787   3.004   3.569 -0.8159  0.7219 -0.3852
   72SAPC  C212 6311   5.836   3.170   3.680 -0.1888 -0.2394 -0.9104
   72SAPC  H12R 6312   5.742   3.168   3.737 -1.7973  1.9078 -3.2140
   72SAPC  C213 6313   5.931   3.281   3.708 -0.2410  0.1560  0.4833
   72SAPC  H13R 6314   5.973   3.312   3.609  2.3462 -3.8038  0.1177
   72SAPC  H13S 6315   6.019   3.245   3.765  1.0828  0.5099 -1.2238
   72SAPC  C214 6316   5.875   3.402   3.771 -0.2278  0.0682  0.6154
   72SAPC  H14R 6317   5.790   3.445   3.716  0.6207  2.6440  1.1789
   72SAPC  C215 6318   5.922   3.474   3.877  0.2105 -0.7009  0.6851
   72SAPC  H15R 6319   5.862   3.558   3.914  0.4549  0.0910 -0.6577
   72SAPC  C216 6320   6.059   3.444   3.937 -0.4807 -0.2252  0.2935
   72SAPC  H16R 6321   6.087   3.543   3.981  2.5124 -0.8240 -0.0150
   72SAPC  H16S 6322   6.136   3.423   3.860  0.3979  1.0879  0.7676
   72SAPC  C217 6323   6.064   3.334   4.045 -0.0402  0.0340  0.5472
   72SAPC  H17R 6324   6.056   3.234   3.999 -2.8502  0.6413 -0.5032
   72SAPC  H17S 6325   5.984   3.337   4.122 -0.4087  0.3956  0.1559
   72SAPC  C218 6326   6.194   3.330   4.137 -0.5457 -0.3814 -0.2592
   72SAPC  H18R 6327   6.287   3.307   4.080 -1.4647  0.0716 -2.0130
   72SAPC  H18S 6328   6.188   3.254   4.218  2.2579  1.7043  2.0998
   72SAPC  C219 6329   6.214   3.464   4.200 -0.1349 -0.2257 -0.2023
   72SAPC  H19R 6330   6.113   3.500   4.228  1.0522  1.5343  2.1766
   72SAPC  H19S 6331   6.262   3.529   4.124 -0.6785  0.3159 -0.0870
   72SAPC  C220 6332   6.300   3.462   4.327 -0.3731  0.1696  0.3397
   72SAPC  H20R 6333   6.268   3.378   4.392 -2.0466  1.9930  1.9965
   72SAPC  H20S 6334   6.291   3.554   4.388  0.2057  0.0589  0.6044
   72SAPC  H20T 6335   6.410   3.454   4.310 -0.3419 -0.0491  0.6397
   72SAPC   C33 6336   5.664   3.891   2.968  0.3292 -0.6417 -0.0826
   72SAPC   H3X 6337   5.660   3.781   2.954  0.5265 -0.6177 -0.3475
   72SAPC   H3Y 6338   5.565   3.926   2.931  1.0634  1.6646 -0.0412
   72SAPC   C34 6339   5.694   3.900   3.122 -0.1366 -0.0812  0.0262
   72SAPC   H4X 6340   5.694   4.004   3.163 -0.4710  0.0131 -0.2067
   72SAPC   H4Y 6341   5.796   3.860   3.138  0.3243  0.3190 -1.7177
   72SAPC   C35 6342   5.606   3.808   3.209 -0.4149  0.0797 -0.5968
   72SAPC   H5X 6343   5.592   3.708   3.163 -0.7206 -0.6115  0.9305
   72SAPC   H5Y 6344   5.503   3.848   3.218 -0.9355 -1.4579  0.8903
   72SAPC   C36 6345   5.671   3.788   3.348  0.5380  0.4096 -0.7165
   72SAPC   H6X 6346   5.672   3.894   3.382 -1.2018  0.9244 -2.0779
   72SAPC   H6Y 6347   5.770   3.741   3.333  0.0916 -0.9876  0.4026
   72SAPC   C37 6348   5.584   3.689   3.431  0.0342 -0.5644  0.5321
   72SAPC   H7X 6349   5.560   3.605   3.363  1.0727 -0.1394 -0.3934
   72SAPC   H7Y 6350   5.489   3.745   3.448 -1.1945 -1.9419 -1.3630
   72SAPC   C38 6351   5.646   3.658   3.573  0.2355  0.1835  0.9932
   72SAPC   H8X 6352   5.668   3.753   3.628 -0.5636  1.1553 -0.2957
   72SAPC   H8Y 6353   5.738   3.599   3.555 -0.3197 -0.9262  1.7302
   72SAPC   C39 6354   5.555   3.567   3.651 -0.4067  0.0558  0.2859
   72SAPC   H9X 6355   5.464   3.623   3.683 -1.7236 -1.4084 -0.7346
   72SAPC   H9Y 6356   5.598   3.540   3.750 -0.1818 -1.6078 -0.2355
   72SAPC  C310 6357   5.518   3.434   3.578 -0.2537 -0.2549  0.2346
   72SAPC  H10X 6358   5.612   3.401   3.528  0.5574  2.1737  0.0252
   72SAPC  H10Y 6359   5.444   3.465   3.501 -0.5519  0.5138  0.8159
   72SAPC  C311 6360   5.453   3.332   3.667 -0.4719 -0.2391 -0.0973
   72SAPC  H11X 6361   5.525   3.305   3.748 -0.2652 -2.8714 -1.0591
   72SAPC  H11Y 6362   5.430   3.239   3.611 -2.5626  0.2514 -0.1329
   72SAPC  C312 6363   5.327   3.376   3.744 -0.1211  0.0203  0.4146
   72SAPC  H12X 6364   5.244   3.385   3.671  0.1141  0.7736  0.2305
   72SAPC  H12Y 6365   5.337   3.475   3.795 -1.4949  0.8760 -0.8927
   72SAPC  C313 6366   5.286   3.268   3.852  0.9403 -0.3417 -0.2623
   72SAPC  H13X 6367   5.365   3.268   3.929 -0.3728  1.1634  1.1778
   72SAPC  H13Y 6368   5.273   3.170   3.803  1.8133  0.2008 -1.6522
   72SAPC  C314 6369   5.156   3.301   3.924  0.1948 -0.7247 -0.2215
   72SAPC  H14X 6370   5.069   3.321   3.857  0.2038  1.5360  0.3617
   72SAPC  H14Y 6371   5.178   3.398   3.973 -1.0240 -0.2733 -0.5223
   72SAPC  C315 6372   5.112   3.196   4.026 -1.1396  0.4383  0.5053
   72SAPC  H15X 6373   5.203   3.195   4.090  0.7085  1.2259 -1.9585
   72SAPC  H15Y 6374   5.082   3.097   3.985 -0.5820  1.0814 -1.5692
   72SAPC  C316 6375   5.002   3.245   4.115 -0.0193  0.0519 -0.4990
   72SAPC  H16X 6376   4.961   3.157   4.170 -1.4898  0.2637 -1.2249
   72SAPC  H16Y 6377   4.925   3.309   4.069 -0.5593 -1.6623 -2.1111
   72SAPC  C317 6378   5.054   3.335   4.228 -0.2078 -0.3723 -0.0540
   72SAPC  H17X 6379   5.099   3.426   4.184  1.6895 -0.3082  1.8783
   72SAPC  H17Y 6380   5.142   3.287   4.276 -1.2904 -0.7274  1.6959
   72SAPC  C318 6381   4.952   3.373   4.334 -0.1253 -0.4353 -0.0172
   72SAPC  H18X 6382   4.935   3.284   4.397 -1.5533  0.4156  0.8718
   72SAPC  H18Y 6383   4.850   3.392   4.294  0.3049 -0.3287 -1.0938
   72SAPC  H18Z 6384   4.982   3.462   4.393 -1.2117 -1.2689  1.8815
   73SLPC     N 6385   3.150   2.800   6.908 -0.7094  0.0352  0.0501
   73SLPC   C13 6386   3.182   2.653   6.865 -0.5990  0.0521  0.3889
   73SLPC  H13A 6387   3.096   2.605   6.820 -0.1010  1.0217 -1.6668
   73SLPC  H13B 6388   3.262   2.648   6.794 -1.1438  2.5273 -0.5001
   73SLPC  H13C 6389   3.216   2.592   6.948  1.2592 -1.0459 -1.1044
   73SLPC   C14 6390   3.269   2.852   6.986  0.8080  0.4090  0.4606
   73SLPC  H14A 6391   3.263   2.797   7.080 -3.7599 -0.3277 -0.0383
   73SLPC  H14B 6392   3.359   2.848   6.926  2.2992  3.4002  2.2768
   73SLPC  H14C 6393   3.269   2.957   7.012  2.5162  0.8949 -1.3048
   73SLPC   C15 6394   3.029   2.800   7.001 -0.6488  0.2020  0.0332
   73SLPC  H15A 6395   3.026   2.709   7.058  2.1713 -0.9188 -1.4181
   73SLPC  H15B 6396   3.018   2.894   7.053  0.5980  1.0222 -1.0946
   73SLPC  H15C 6397   2.947   2.789   6.931 -0.9195  0.0355  0.3747
   73SLPC   C12 6398   3.125   2.873   6.779 -0.6221  0.2738 -0.4146
   73SLPC  H12A 6399   3.219   2.888   6.727 -0.0432 -0.5225  0.3477
   73SLPC  H12B 6400   3.075   2.964   6.805 -0.7362 -0.3264  1.6543
   73SLPC   C11 6401   3.038   2.798   6.672 -0.4158  1.1033 -0.2458
   73SLPC  H11A 6402   3.086   2.708   6.629 -1.3748 -0.5529  1.9341
   73SLPC  H11B 6403   3.034   2.864   6.583 -0.4901  1.5447  0.0793
   73SLPC     P 6404   2.773   2.764   6.632 -0.1775 -0.0405  0.1073
   73SLPC   O13 6405   2.675   2.687   6.707 -0.0947  0.1237 -0.1173
   73SLPC   O14 6406   2.724   2.897   6.593 -0.1048 -0.3872  0.8154
   73SLPC   O12 6407   2.910   2.770   6.723  0.7052 -0.0175  0.7194
   73SLPC   O11 6408   2.823   2.690   6.500  0.4908  0.0908  0.6066
   73SLPC    C1 6409   2.821   2.547   6.495 -0.0475  0.2327  0.2209
   73SLPC    HA 6410   2.908   2.516   6.558  0.8791  1.0943 -0.6128
   73SLPC    HB 6411   2.733   2.503   6.546 -0.3024 -1.8700 -1.8794
   73SLPC    C2 6412   2.824   2.491   6.353 -0.1946 -0.9402 -0.1025
   73SLPC    HS 6413   2.827   2.380   6.360  1.6061 -0.8947  0.1929
   73SLPC   O21 6414   2.945   2.533   6.289 -0.7944  0.2113 -0.4721
   73SLPC   C21 6415   3.060   2.472   6.324  0.2338  0.5514 -0.1302
   73SLPC   O22 6416   3.068   2.377   6.401  0.6544 -0.1971 -0.9159
   73SLPC   C22 6417   3.165   2.531   6.229  0.2325 -0.1832 -0.4118
   73SLPC   H2R 6418   3.111   2.566   6.139 -1.5367 -0.4183  0.5197
   73SLPC   H2S 6419   3.202   2.624   6.279  2.5264 -1.3424  0.1843
   73SLPC    C3 6420   2.710   2.540   6.261 -0.2125 -0.7982 -0.1667
   73SLPC    HX 6421   2.696   2.650   6.260 -2.4213 -1.0264 -0.0080
   73SLPC    HY 6422   2.619   2.490   6.300 -0.7806 -1.3784 -2.0976
   73SLPC   O31 6423   2.741   2.485   6.130  0.2117 -0.1121  0.2454
   73SLPC   C31 6424   2.671   2.548   6.036  0.6851  0.3226  0.9327
   73SLPC   O32 6425   2.582   2.628   6.056  0.1010  0.9316  0.2514
   73SLPC   C32 6426   2.710   2.498   5.902 -0.5836  1.0809  0.7608
   73SLPC   H2X 6427   2.697   2.389   5.880  2.1887  0.8028 -0.0151
   73SLPC   H2Y 6428   2.818   2.523   5.892  0.0919 -1.4494  0.8445
   73SLPC   C23 6429   3.279   2.428   6.194  0.0593 -0.8070 -0.7616
   73SLPC   H3R 6430   3.322   2.404   6.293  0.0321  1.7525 -0.0504
   73SLPC   H3S 6431   3.361   2.478   6.138  1.5112 -0.3241  1.6655
   73SLPC   C24 6432   3.233   2.304   6.128 -0.0337  0.2067 -0.0824
   73SLPC   H4R 6433   3.174   2.240   6.196  0.9886  0.1183  0.7451
   73SLPC   H4S 6434   3.319   2.238   6.102 -0.7453  0.0691 -2.4036
   73SLPC   C25 6435   3.156   2.321   5.995  0.0330  0.5641  0.2207
   73SLPC   H5R 6436   3.222   2.388   5.937 -0.6783  0.3786 -0.8337
   73SLPC   H5S 6437   3.056   2.368   6.006 -0.8036 -1.3340  1.3787
   73SLPC   C26 6438   3.150   2.192   5.912  0.0165  0.7246 -0.0555
   73SLPC   H6R 6439   3.114   2.116   5.984  1.1383  0.5742  0.3624
   73SLPC   H6S 6440   3.254   2.170   5.880 -0.5423 -0.5596 -1.0375
   73SLPC   C27 6441   3.068   2.206   5.782 -0.9895  0.0804 -0.6671
   73SLPC   H7R 6442   3.099   2.305   5.743  1.6196 -0.0208  0.9058
   73SLPC   H7S 6443   2.962   2.209   5.815 -0.8354  0.8751 -0.2495
   73SLPC   C28 6444   3.102   2.088   5.690  0.0702  0.4971 -0.1109
   73SLPC   H8R 6445   3.037   2.013   5.740 -2.2965  2.3109 -0.2561
   73SLPC   H8S 6446   3.206   2.052   5.700  0.0777  0.6206  0.2943
   73SLPC   C29 6447   3.070   2.113   5.546 -0.1646  0.7213 -0.3000
   73SLPC   H9R 6448   2.975   2.168   5.532  0.2173  2.0226  1.7587
   73SLPC  C210 6449   3.131   2.066   5.432 -0.4558  0.2274  0.0586
   73SLPC  H10R 6450   3.089   2.086   5.333 -2.3583  0.6712  0.9056
   73SLPC  C211 6451   3.255   1.980   5.418 -0.0090 -0.3971 -0.0999
   73SLPC  H11R 6452   3.235   1.891   5.354 -4.6540  1.4081 -1.5657
   73SLPC  H11S 6453   3.285   1.936   5.516  0.9655 -0.7326 -0.5373
   73SLPC  C212 6454   3.374   2.060   5.375  0.6453 -0.4409  0.4094
   73SLPC  H12R 6455   3.392   2.144   5.443  0.0393  1.6670 -1.8549
   73SLPC  C213 6456   3.444   2.064   5.258 -0.4908  0.2796 -0.3287
   73SLPC  H13R 6457   3.532   2.130   5.264  0.9246 -1.5426 -0.0987
   73SLPC  C214 6458   3.421   1.965   5.140  0.2612  0.0390 -0.4159
   73SLPC  H14R 6459   3.328   1.906   5.150  0.0782  0.4758  0.5882
   73SLPC  H14S 6460   3.497   1.884   5.142 -0.2982 -0.4832  0.6704
   73SLPC  C215 6461   3.410   2.037   5.005  0.2748  0.3496 -0.2697
   73SLPC  H15R 6462   3.493   2.110   5.000  2.7733 -2.3650 -1.2074
   73SLPC  H15S 6463   3.319   2.101   4.999 -0.6021 -0.4267  2.9661
   73SLPC  C216 6464   3.416   1.933   4.895 -0.3523  0.0538 -0.1954
   73SLPC  H16R 6465   3.329   1.865   4.903 -0.2149 -0.0367  0.6418
   73SLPC  H16S 6466   3.509   1.873   4.903 -0.8660 -1.0739 -2.1795
   73SLPC  C217 6467   3.411   2.002   4.758  0.1845  0.2614  0.3501
   73SLPC  H17R 6468   3.493   2.076   4.749  1.0462 -0.4348  2.0316
   73SLPC  H17S 6469   3.319   2.063   4.755 -0.0009  0.1379  2.3210
   73SLPC  C218 6470   3.418   1.904   4.644 -0.4146  0.7181  0.0262
   73SLPC  H18R 6471   3.390   1.806   4.690 -1.1774  1.6733  1.6949
   73SLPC  H18S 6472   3.522   1.894   4.608 -0.5563 -1.5738  0.1210
   73SLPC  H18T 6473   3.347   1.925   4.561 -0.3110 -3.0749 -1.2237
   73SLPC   C33 6474   2.630   2.574   5.802 -0.6651 -0.3709  0.7925
   73SLPC   H3X 6475   2.628   2.681   5.829  1.4425 -0.0281 -0.1687
   73SLPC   H3Y 6476   2.528   2.531   5.801  0.3507 -2.9806  0.7073
   73SLPC   C34 6477   2.700   2.568   5.665 -0.3937 -0.6726  0.3345
   73SLPC   H4X 6478   2.805   2.600   5.678 -0.6477  0.5001 -0.4207
   73SLPC   H4Y 6479   2.665   2.641   5.589  0.3348 -2.1407 -1.4808
   73SLPC   C35 6480   2.687   2.427   5.602  0.2186  0.3349  0.1258
   73SLPC   H5X 6481   2.583   2.390   5.591  0.5634 -0.4340 -0.6729
   73SLPC   H5Y 6482   2.729   2.352   5.673  1.3770  0.4155 -0.4642
   73SLPC   C36 6483   2.758   2.423   5.464  0.7741 -0.8918 -0.5061
   73SLPC   H6X 6484   2.865   2.449   5.477  0.1593  1.6385  0.0467
   73SLPC   H6Y 6485   2.713   2.496   5.393 -1.1917 -0.8200  0.7199
   73SLPC   C37 6486   2.747   2.288   5.414  0.5816  0.0156 -0.0577
   73SLPC   H7X 6487   2.641   2.263   5.390  0.2064  0.6749  0.8729
   73SLPC   H7Y 6488   2.794   2.211   5.479 -2.0302 -2.4064 -0.8082
   73SLPC   C38 6489   2.815   2.255   5.276 -0.5644  0.1002 -0.8313
   73SLPC   H8X 6490   2.922   2.280   5.293 -0.2774 -0.1043 -2.2258
   73SLPC   H8Y 6491   2.778   2.324   5.198 -0.0710 -0.4159 -1.5373
   73SLPC   C39 6492   2.798   2.114   5.230  0.2224 -0.2324 -0.9406
   73SLPC   H9X 6493   2.688   2.097   5.230  0.2138 -0.2098  0.2855
   73SLPC   H9Y 6494   2.843   2.041   5.301 -0.3385  0.0084 -0.3299
   73SLPC  C310 6495   2.853   2.079   5.092 -0.4250 -0.4481 -0.4877
   73SLPC  H10X 6496   2.840   1.971   5.070  4.1016 -0.9276 -2.0543
   73SLPC  H10Y 6497   2.961   2.105   5.085 -0.0530 -2.2709 -2.9650
   73SLPC  C311 6498   2.784   2.151   4.978 -0.0186  0.2069  0.8977
   73SLPC  H11X 6499   2.840   2.134   4.883  0.3952  1.0185  0.9867
   73SLPC  H11Y 6500   2.795   2.260   4.997  0.5926  0.3984 -0.4068
   73SLPC  C312 6501   2.636   2.119   4.948  0.4321  0.8195 -0.0607
   73SLPC  H12X 6502   2.595   2.133   5.050  3.5810 -0.9566  1.6077
   73SLPC  H12Y 6503   2.632   2.010   4.928  0.4000  0.4285  1.8928
   73SLPC  C313 6504   2.564   2.200   4.839  0.3650  0.4344  0.2562
   73SLPC  H13X 6505   2.590   2.307   4.828 -1.4959  0.8354 -0.5744
   73SLPC  H13Y 6506   2.456   2.195   4.864  0.6185 -0.0302  1.3056
   73SLPC  C314 6507   2.575   2.150   4.694  0.5700 -0.1724 -0.7500
   73SLPC  H14X 6508   2.682   2.137   4.667  0.2248 -1.2359 -1.6439
   73SLPC  H14Y 6509   2.522   2.226   4.633 -0.4244  0.4480  0.8052
   73SLPC  C315 6510   2.504   2.009   4.675  0.8246 -0.3112  0.4335
   73SLPC  H15X 6511   2.405   2.012   4.724  0.2860 -1.1234 -0.5533
   73SLPC  H15Y 6512   2.558   1.917   4.705 -0.0797 -1.8031 -2.1928
   73SLPC  C316 6513   2.464   2.000   4.528 -0.6051 -0.9428  0.5459
   73SLPC  H16X 6514   2.557   1.992   4.467  1.4316  0.5607  3.2439
   73SLPC  H16Y 6515   2.420   2.098   4.502 -1.1630 -1.3264 -0.0107
   73SLPC  C317 6516   2.375   1.884   4.499  0.1198  1.2873 -0.0229
   73SLPC  H17X 6517   2.435   1.791   4.516 -1.5518  0.1612 -0.0810
   73SLPC  H17Y 6518   2.345   1.887   4.392 -2.3499 -1.5239  0.4657
   73SLPC  C318 6519   2.246   1.875   4.581  0.5737 -0.4114 -0.2265
   73SLPC  H18X 6520   2.278   1.878   4.687  1.0475 -0.1014 -0.3773
   73SLPC  H18Y 6521   2.193   1.780   4.561  0.4199 -0.5157  0.6219
   73SLPC  H18Z 6522   2.178   1.962   4.564  2.5584  1.0648 -0.9295
   74SLPC     N 6523   0.889   0.585   7.262 -0.4536 -0.0577  0.0121
   74SLPC   C13 6524   0.786   0.584   7.369  0.3586  0.6375  0.3301
   74SLPC  H13A 6525   0.690   0.621   7.335  0.7720  0.6137 -0.8883
   74SLPC  H13B 6526   0.777   0.484   7.411 -1.8498  0.9241  0.6438
   74SLPC  H13C 6527   0.810   0.654   7.448 -1.9944 -0.0084  1.7160
   74SLPC   C14 6528   1.024   0.571   7.323  0.3892  0.1294  0.8037
   74SLPC  H14A 6529   1.042   0.603   7.424  1.6120 -0.0314  0.6422
   74SLPC  H14B 6530   1.042   0.465   7.329  2.0986  0.3591  0.1798
   74SLPC  H14C 6531   1.096   0.616   7.256 -1.7000  2.8765  0.1987
   74SLPC   C15 6532   0.890   0.721   7.196  0.5098  0.3841  0.0642
   74SLPC  H15A 6533   0.906   0.795   7.273  1.0223  0.7516 -0.4015
   74SLPC  H15B 6534   0.972   0.717   7.127  1.2169 -0.1754  0.9108
   74SLPC  H15C 6535   0.801   0.734   7.136  1.0126 -2.1024 -1.3707
   74SLPC   C12 6536   0.861   0.476   7.155 -0.0248  0.9226 -0.0549
   74SLPC  H12A 6537   0.762   0.497   7.117 -0.4303  0.3892  0.6821
   74SLPC  H12B 6538   0.844   0.379   7.199  2.2324 -0.0457 -1.1450
   74SLPC   C11 6539   0.951   0.480   7.031 -0.3462 -0.3445 -0.0316
   74SLPC  H11A 6540   0.949   0.579   6.979 -0.6833 -1.2126 -1.7552
   74SLPC  H11B 6541   0.912   0.424   6.944 -0.6756  0.8693 -0.6958
   74SLPC     P 6542   1.122   0.294   7.040 -0.4980  0.0433 -0.0761
   74SLPC   O13 6543   1.268   0.296   7.020 -0.7770  0.5992  0.4570
   74SLPC   O14 6544   1.080   0.232   7.164  0.2869  0.1434 -0.1471
   74SLPC   O12 6545   1.088   0.449   7.051 -0.3058 -0.0774  0.3043
   74SLPC   O11 6546   1.041   0.242   6.915 -1.0192  0.4809 -0.5979
   74SLPC    C1 6547   1.109   0.198   6.797  0.5332  0.6959  0.4684
   74SLPC    HA 6548   1.162   0.286   6.755  0.4538  0.5969  0.1655
   74SLPC    HB 6549   1.176   0.115   6.829 -1.6738 -0.5198  2.2243
   74SLPC    C2 6550   1.005   0.153   6.694  0.3552  0.9139  0.6889
   74SLPC    HS 6551   0.955   0.066   6.742  0.5885 -0.7775 -1.9317
   74SLPC   O21 6552   1.080   0.119   6.575  0.2230 -0.0086  0.6193
   74SLPC   C21 6553   1.016   0.019   6.508 -0.1682 -0.7186  0.1332
   74SLPC   O22 6554   0.925  -0.044   6.548  0.3768  0.5823 -0.5584
   74SLPC   C22 6555   1.079   0.019   6.369 -0.1393 -0.0875  0.6391
   74SLPC   H2R 6556   0.998  -0.013   6.299 -1.1488  1.3860  1.0773
   74SLPC   H2S 6557   1.113   0.122   6.344  0.2818 -0.4696 -0.4129
   74SLPC    C3 6558   0.895   0.255   6.667  0.2557 -0.8522  0.0645
   74SLPC    HX 6559   0.941   0.356   6.668 -0.3451 -0.5617 -0.9250
   74SLPC    HY 6560   0.817   0.260   6.746 -0.9943  0.3981 -1.1804
   74SLPC   O31 6561   0.835   0.243   6.532  0.6957  0.1367 -1.2444
   74SLPC   C31 6562   0.733   0.317   6.499 -0.3456  0.2795 -0.5093
   74SLPC   O32 6563   0.661   0.374   6.585 -0.0138  0.3865  0.0153
   74SLPC   C32 6564   0.705   0.315   6.343 -0.1688 -0.8118  0.0003
   74SLPC   H2X 6565   0.670   0.212   6.317 -0.0268 -1.3657  1.7946
   74SLPC   H2Y 6566   0.805   0.331   6.299 -0.1871  1.7263  0.7417
   74SLPC   C23 6567   1.206  -0.066   6.357  0.1023 -0.4506 -0.1992
   74SLPC   H3R 6568   1.156  -0.159   6.393 -2.3794  0.5961 -0.6929
   74SLPC   H3S 6569   1.283  -0.034   6.431 -0.7135 -1.6447  1.2287
   74SLPC   C24 6570   1.272  -0.079   6.220 -0.1241  0.3993 -0.6509
   74SLPC   H4R 6571   1.321  -0.179   6.215  2.1352  1.1275  2.8694
   74SLPC   H4S 6572   1.346   0.003   6.208 -1.4355  2.2552  2.4934
   74SLPC   C25 6573   1.176  -0.083   6.101 -0.0122  0.0001  0.0543
   74SLPC   H5R 6574   1.120   0.013   6.102  0.3371  0.2052  0.6062
   74SLPC   H5S 6575   1.107  -0.167   6.121 -0.9482  0.9023  0.7104
   74SLPC   C26 6576   1.263  -0.110   5.981 -0.1665 -0.6368  0.4563
   74SLPC   H6R 6577   1.312  -0.203   6.016 -2.5376 -2.1841 -0.0693
   74SLPC   H6S 6578   1.339  -0.031   5.961  0.9791 -1.6992  0.5240
   74SLPC   C27 6579   1.187  -0.144   5.850 -0.3201  0.1801  0.5790
   74SLPC   H7R 6580   1.120  -0.060   5.820  3.4804  2.9806 -0.9896
   74SLPC   H7S 6581   1.125  -0.235   5.862  0.6362 -0.6337 -0.4961
   74SLPC   C28 6582   1.277  -0.152   5.727  0.3958 -0.2372  0.1734
   74SLPC   H8R 6583   1.338  -0.060   5.725 -0.6252  0.4576  0.1916
   74SLPC   H8S 6584   1.210  -0.139   5.639 -0.3948 -1.8283  0.4987
   74SLPC   C29 6585   1.366  -0.277   5.715  0.0385  0.8646 -0.4939
   74SLPC   H9R 6586   1.411  -0.314   5.808  0.9907 -1.0896 -1.6544
   74SLPC  C210 6587   1.379  -0.356   5.604  0.1910 -0.8503  0.3404
   74SLPC  H10R 6588   1.463  -0.427   5.606  2.1862  1.3685  1.3855
   74SLPC  C211 6589   1.318  -0.348   5.466 -0.2108 -0.5885 -0.0433
   74SLPC  H11R 6590   1.240  -0.271   5.482 -0.0856 -0.4296 -0.2000
   74SLPC  H11S 6591   1.260  -0.441   5.446 -1.7180  0.4478 -0.6391
   74SLPC  C212 6592   1.404  -0.321   5.347 -0.8580 -0.9814 -0.8331
   74SLPC  H12R 6593   1.511  -0.303   5.362 -0.5340  0.7462 -4.2458
   74SLPC  C213 6594   1.374  -0.320   5.221  0.2185  0.9050  0.3069
   74SLPC  H13R 6595   1.451  -0.306   5.144 -0.7060  4.6951 -0.1587
   74SLPC  C214 6596   1.234  -0.334   5.173  0.4561  0.7357 -0.1378
   74SLPC  H14R 6597   1.168  -0.387   5.244  1.5911 -0.3131  0.1708
   74SLPC  H14S 6598   1.246  -0.391   5.078  2.3541 -0.3891  0.7183
   74SLPC  C215 6599   1.177  -0.200   5.124 -0.2267  0.2204  0.5789
   74SLPC  H15R 6600   1.187  -0.118   5.199  3.1566  0.8614 -0.4156
   74SLPC  H15S 6601   1.069  -0.221   5.106 -0.1272 -1.0067  1.2970
   74SLPC  C216 6602   1.235  -0.128   5.000 -0.5892  0.4471 -0.1792
   74SLPC  H16R 6603   1.252  -0.199   4.916 -3.6485  0.6065 -1.0259
   74SLPC  H16S 6604   1.339  -0.090   5.009  0.5239 -2.4673  0.5648
   74SLPC  C217 6605   1.146  -0.015   4.946 -0.8791  0.1704  1.3222
   74SLPC  H17R 6606   1.126   0.056   5.028  1.4098  2.8156 -0.2124
   74SLPC  H17S 6607   1.045  -0.056   4.926 -1.2844  1.9077 -0.5892
   74SLPC  C218 6608   1.183   0.069   4.823  0.6100  0.4865 -0.2472
   74SLPC  H18R 6609   1.187   0.009   4.730 -0.1970 -0.9409  0.6137
   74SLPC  H18S 6610   1.272   0.132   4.848  0.1791  1.2583 -0.6227
   74SLPC  H18T 6611   1.100   0.139   4.800 -0.4581 -0.9587 -0.9133
   74SLPC   C33 6612   0.607   0.427   6.307  0.0583 -0.6880 -0.4263
   74SLPC   H3X 6613   0.653   0.527   6.324 -0.5928 -0.4468 -0.0307
   74SLPC   H3Y 6614   0.522   0.429   6.379 -0.9054  2.7571 -1.4463
   74SLPC   C34 6615   0.543   0.421   6.166 -0.2855  0.3167 -0.0319
   74SLPC   H4X 6616   0.470   0.505   6.155 -0.8056 -0.3667 -2.6622
   74SLPC   H4Y 6617   0.482   0.329   6.157 -3.1914  2.1330 -0.2450
   74SLPC   C35 6618   0.652   0.424   6.055 -0.2034 -0.2084 -0.5198
   74SLPC   H5X 6619   0.729   0.344   6.067 -0.2340 -0.0854  0.5391
   74SLPC   H5Y 6620   0.711   0.516   6.074 -0.3033 -0.2799  0.1456
   74SLPC   C36 6621   0.608   0.419   5.909 -0.5901  0.1595  0.1518
   74SLPC   H6X 6622   0.525   0.490   5.888  0.3472  1.0511 -0.6675
   74SLPC   H6Y 6623   0.561   0.319   5.905  0.2019 -0.1850 -1.0216
   74SLPC   C37 6624   0.721   0.436   5.812 -0.4702  0.4520  0.4064
   74SLPC   H7X 6625   0.780   0.342   5.809 -1.1954  0.0097 -0.4091
   74SLPC   H7Y 6626   0.788   0.525   5.822  0.2865  0.0096 -0.5745
   74SLPC   C38 6627   0.666   0.449   5.670 -0.0340  0.2487 -0.7422
   74SLPC   H8X 6628   0.624   0.550   5.653  0.0156  0.6316  1.1749
   74SLPC   H8Y 6629   0.588   0.374   5.647 -0.9071  0.8880  0.0570
   74SLPC   C39 6630   0.783   0.424   5.570  0.6294 -0.4400 -0.3747
   74SLPC   H9X 6631   0.808   0.316   5.564  5.6522  0.4759  0.1856
   74SLPC   H9Y 6632   0.872   0.483   5.600 -1.0934  2.5618 -0.7191
   74SLPC  C310 6633   0.753   0.462   5.420  0.3623  0.2896 -0.0259
   74SLPC  H10X 6634   0.741   0.573   5.425 -1.0803  0.0708  2.8657
   74SLPC  H10Y 6635   0.661   0.406   5.393 -0.3165  0.1951  2.2952
   74SLPC  C311 6636   0.867   0.427   5.328  0.0165  0.3784 -0.3196
   74SLPC  H11X 6637   0.888   0.319   5.343  1.9920  0.7752  0.1250
   74SLPC  H11Y 6638   0.954   0.493   5.351 -0.1787  0.7309 -0.5948
   74SLPC  C312 6639   0.846   0.450   5.173 -0.5041  0.2086 -0.0505
   74SLPC  H12X 6640   0.751   0.405   5.139  0.1440 -0.9879 -0.3408
   74SLPC  H12Y 6641   0.931   0.394   5.128  0.9558  0.1129  2.5953
   74SLPC  C313 6642   0.854   0.598   5.136  0.2453 -0.2024 -0.0967
   74SLPC  H13X 6643   0.953   0.638   5.167 -0.0418  0.5686 -0.1530
   74SLPC  H13Y 6644   0.779   0.656   5.195  0.3992  1.1782 -1.2246
   74SLPC  C314 6645   0.824   0.629   4.992  0.0989 -0.5171  0.3345
   74SLPC  H14X 6646   0.819   0.740   5.004 -0.0783 -0.5379  0.4511
   74SLPC  H14Y 6647   0.725   0.586   4.965 -0.6041  2.3414 -2.2058
   74SLPC  C315 6648   0.932   0.585   4.889  0.7705  0.1511  1.3086
   74SLPC  H15X 6649   1.026   0.552   4.938  2.9268 -1.5808 -3.4112
   74SLPC  H15Y 6650   0.950   0.674   4.825 -0.1574 -1.8453 -1.9262
   74SLPC  C316 6651   0.883   0.489   4.781  0.1282  0.7285  0.9065
   74SLPC  H16X 6652   0.927   0.491   4.679 -2.8674 -0.7384 -0.5755
   74SLPC  H16Y 6653   0.782   0.531   4.764 -0.2770 -0.0050  1.4357
   74SLPC  C317 6654   0.864   0.342   4.835  0.3378  0.4313  0.3735
   74SLPC  H17X 6655   0.811   0.350   4.932  1.2905  0.0538  0.9406
   74SLPC  H17Y 6656   0.967   0.309   4.861  0.6226  0.6481 -0.4603
   74SLPC  C318 6657   0.803   0.254   4.721  0.0454 -0.1982  0.0363
   74SLPC  H18X 6658   0.775   0.157   4.765  0.0131  0.8961  2.5772
   74SLPC  H18Y 6659   0.887   0.222   4.655 -2.7147 -1.9389 -2.8856
   74SLPC  H18Z 6660   0.713   0.299   4.674  0.5102  1.3628  0.5694
   75SLPC     N 6661   3.530   1.142   6.958  0.1023 -0.3018 -0.4610
   75SLPC   C13 6662   3.555   0.998   6.968 -0.1126  0.3843 -0.5283
   75SLPC  H13A 6663   3.489   0.934   6.911 -0.4331 -1.1767  1.4624
   75SLPC  H13B 6664   3.657   0.978   6.936 -1.4048 -1.4702 -3.9962
   75SLPC  H13C 6665   3.565   0.963   7.070 -2.7264 -2.2811 -1.0437
   75SLPC   C14 6666   3.642   1.202   7.046  0.7684  0.2688 -0.2305
   75SLPC  H14A 6667   3.733   1.178   6.993  0.5758 -1.6545  0.2694
   75SLPC  H14B 6668   3.637   1.310   7.037  0.9956  0.3465  0.4890
   75SLPC  H14C 6669   3.637   1.160   7.145 -1.6265 -0.1645 -0.4739
   75SLPC   C15 6670   3.391   1.168   7.018 -0.1220  0.6347  0.6029
   75SLPC  H15A 6671   3.325   1.111   6.954  0.4633 -2.2755  2.4110
   75SLPC  H15B 6672   3.375   1.133   7.119 -1.0632  1.2110  0.6638
   75SLPC  H15C 6673   3.365   1.273   7.013 -2.7782  0.0477  0.8928
   75SLPC   C12 6674   3.540   1.193   6.815  0.5953 -0.0547  0.6527
   75SLPC  H12A 6675   3.643   1.176   6.790  1.2918  2.1204  1.8097
   75SLPC  H12B 6676   3.526   1.300   6.816  2.3791  0.2435 -0.9190
   75SLPC   C11 6677   3.449   1.128   6.703 -0.6118 -0.2157 -0.1360
   75SLPC  H11A 6678   3.449   1.018   6.719 -0.9845 -0.2470 -0.3275
   75SLPC  H11B 6679   3.492   1.154   6.604 -3.7916  0.2836 -1.5055
   75SLPC     P 6680   3.285   1.325   6.644  0.1157 -0.1494 -0.4408
   75SLPC   O13 6681   3.138   1.363   6.653  0.3073 -0.1373  0.1493
   75SLPC   O14 6682   3.384   1.418   6.695 -0.7168  0.3073  0.2872
   75SLPC   O12 6683   3.314   1.182   6.707  0.4316  0.1555  0.0650
   75SLPC   O11 6684   3.325   1.313   6.493  0.4128  0.5246  0.0778
   75SLPC    C1 6685   3.298   1.202   6.410 -0.0573  0.5107  0.0342
   75SLPC    HA 6686   3.386   1.135   6.405 -1.1386 -0.9664  0.3473
   75SLPC    HB 6687   3.209   1.149   6.451 -0.1675  1.0013  0.4474
   75SLPC    C2 6688   3.267   1.237   6.263  0.8752  0.0627 -0.1512
   75SLPC    HS 6689   3.227   1.147   6.210 -3.5730  1.0436  1.1206
   75SLPC   O21 6690   3.380   1.295   6.194 -0.2852  0.2586 -0.3913
   75SLPC   C21 6691   3.475   1.222   6.140 -0.0350  0.0263 -0.8086
   75SLPC   O22 6692   3.484   1.097   6.142  0.5447 -0.7021  0.5821
   75SLPC   C22 6693   3.570   1.315   6.078 -1.2061  0.6844 -0.2261
   75SLPC   H2R 6694   3.513   1.407   6.053  0.3278  1.2833 -1.6775
   75SLPC   H2S 6695   3.659   1.327   6.143  0.2987  0.6808 -2.2021
   75SLPC    C3 6696   3.151   1.340   6.263  0.4345 -0.2317  0.6988
   75SLPC    HX 6697   3.188   1.439   6.297 -1.5247  0.5745  0.5994
   75SLPC    HY 6698   3.076   1.299   6.333  0.7316 -2.8643 -0.3888
   75SLPC   O31 6699   3.102   1.360   6.132  0.0583 -0.1378  0.4880
   75SLPC   C31 6700   3.018   1.278   6.082  0.1658  0.2562  0.3651
   75SLPC   O32 6701   2.960   1.187   6.143 -0.1683 -0.3320 -0.6588
   75SLPC   C32 6702   2.994   1.318   5.943  0.2285 -0.2832  0.6914
   75SLPC   H2X 6703   3.056   1.407   5.914 -2.3502  0.6075 -2.6977
   75SLPC   H2Y 6704   2.891   1.358   5.938  0.4914  0.2863 -1.5526
   75SLPC   C23 6705   3.610   1.265   5.941  0.4109 -0.0761  0.6967
   75SLPC   H3R 6706   3.527   1.255   5.868  2.5063  0.3857 -1.9048
   75SLPC   H3S 6707   3.658   1.165   5.946 -0.4900 -0.4569  2.1003
   75SLPC   C24 6708   3.719   1.348   5.873  0.2333  0.2236 -0.3182
   75SLPC   H4R 6709   3.803   1.351   5.945  2.8907 -0.3231 -3.1887
   75SLPC   H4S 6710   3.682   1.449   5.845 -1.1542  0.3299  1.6366
   75SLPC   C25 6711   3.787   1.292   5.746  0.6266 -0.0963 -0.1827
   75SLPC   H5R 6712   3.712   1.295   5.664  0.9035 -2.3723 -0.5727
   75SLPC   H5S 6713   3.805   1.183   5.744  1.8395  0.0889  0.1680
   75SLPC   C26 6714   3.914   1.360   5.712 -0.4235 -0.1361  0.2738
   75SLPC   H6R 6715   3.978   1.358   5.803  1.4670  0.8743 -0.9663
   75SLPC   H6S 6716   3.897   1.468   5.694 -2.0450 -0.5408 -0.8295
   75SLPC   C27 6717   4.001   1.308   5.594 -0.3216  0.7810  0.5029
   75SLPC   H7R 6718   3.990   1.199   5.611  0.4694  0.8104  1.2435
   75SLPC   H7S 6719   4.107   1.336   5.611  0.0802  0.1579 -0.8047
   75SLPC   C28 6720   3.942   1.341   5.460  0.5256 -0.6823  0.8590
   75SLPC   H8R 6721   3.929   1.451   5.462 -0.0698 -0.7535  1.5730
   75SLPC   H8S 6722   3.843   1.300   5.429  1.9583 -1.8180 -2.6977
   75SLPC   C29 6723   4.040   1.287   5.360  0.9598 -0.1226  0.3825
   75SLPC   H9R 6724   4.041   1.179   5.338  0.9736 -0.2640  1.0438
   75SLPC  C210 6725   4.125   1.360   5.286  0.1797  0.4391 -0.5545
   75SLPC  H10R 6726   4.182   1.307   5.209  1.3199  1.1108 -0.1956
   75SLPC  C211 6727   4.137   1.510   5.291 -0.2404 -0.0535 -0.5957
   75SLPC  H11R 6728   4.247   1.524   5.284 -0.1360  1.3942  2.5231
   75SLPC  H11S 6729   4.104   1.559   5.385 -1.1090 -1.0357 -0.3638
   75SLPC  C212 6730   4.069   1.588   5.176 -0.3548 -0.3333 -0.4037
   75SLPC  H12R 6731   3.975   1.637   5.205  0.2808 -0.7001  2.5591
   75SLPC  C213 6732   4.116   1.607   5.052 -0.2617 -0.1725 -0.3172
   75SLPC  H13R 6733   4.067   1.685   4.993  0.7896 -0.0378 -1.0402
   75SLPC  C214 6734   4.241   1.555   4.990 -0.2621 -0.6587  0.3844
   75SLPC  H14R 6735   4.323   1.517   5.054 -1.2658 -0.8759  1.5828
   75SLPC  H14S 6736   4.278   1.640   4.929  0.7960 -0.7136  0.9206
   75SLPC  C215 6737   4.210   1.449   4.884  0.1660  0.5894  0.3194
   75SLPC  H15R 6738   4.124   1.478   4.820 -0.1292  0.3759  0.6140
   75SLPC  H15S 6739   4.166   1.356   4.926 -1.9923  1.2382 -0.4188
   75SLPC  C216 6740   4.322   1.429   4.782 -0.4137  0.2836  0.3611
   75SLPC  H16R 6741   4.355   1.526   4.738 -1.5677  0.4085 -0.2718
   75SLPC  H16S 6742   4.291   1.373   4.692  0.0880  1.3642 -0.5078
   75SLPC  C217 6743   4.456   1.369   4.837 -0.2686  0.1866  0.0322
   75SLPC  H17R 6744   4.439   1.274   4.892 -1.3992 -0.7065 -1.7518
   75SLPC  H17S 6745   4.497   1.440   4.912 -0.4658 -1.3633  1.6625
   75SLPC  C218 6746   4.563   1.342   4.721 -0.5204 -1.0508  0.2426
   75SLPC  H18R 6747   4.539   1.243   4.678  0.0136  0.3765 -3.7417
   75SLPC  H18S 6748   4.667   1.338   4.759  0.2261  0.6640 -1.4573
   75SLPC  H18T 6749   4.563   1.420   4.642 -1.3933  0.2229  1.4320
   75SLPC   C33 6750   3.009   1.205   5.844  0.0473  0.5446  0.6130
   75SLPC   H3X 6751   2.971   1.249   5.749  0.9308  1.5108  0.6858
   75SLPC   H3Y 6752   2.976   1.106   5.880 -0.5435  0.0122 -1.2755
   75SLPC   C34 6753   3.166   1.175   5.811  0.1124 -0.4267  0.5519
   75SLPC   H4X 6754   3.224   1.148   5.902  0.7580 -1.5557 -0.1646
   75SLPC   H4Y 6755   3.200   1.275   5.777  0.7263 -0.9950 -0.5634
   75SLPC   C35 6756   3.189   1.053   5.720 -0.1430  0.4503 -0.0748
   75SLPC   H5X 6757   3.112   0.978   5.748  1.3270 -1.1475 -0.1264
   75SLPC   H5Y 6758   3.285   1.004   5.747  0.0028  0.0610 -1.2212
   75SLPC   C36 6759   3.192   1.075   5.571  0.5305 -0.3399 -0.0847
   75SLPC   H6X 6760   3.231   0.978   5.533  0.3790 -0.4008 -0.0825
   75SLPC   H6Y 6761   3.264   1.151   5.533  1.9127 -1.8565 -0.6428
   75SLPC   C37 6762   3.055   1.100   5.506  0.2729 -0.1861  0.2755
   75SLPC   H7X 6763   3.047   1.211   5.505 -1.0020 -0.2298 -2.3438
   75SLPC   H7Y 6764   2.966   1.061   5.559  1.3465 -0.6502  1.8426
   75SLPC   C38 6765   3.038   1.077   5.353 -0.0260  0.1745 -0.1160
   75SLPC   H8X 6766   2.939   1.098   5.306 -0.5785 -4.0030 -1.2356
   75SLPC   H8Y 6767   3.056   0.972   5.322 -1.5127  0.8957 -3.9985
   75SLPC   C39 6768   3.144   1.149   5.271 -0.2421  0.6727 -0.1285
   75SLPC   H9X 6769   3.246   1.128   5.311  0.8850  1.0584 -2.6341
   75SLPC   H9Y 6770   3.138   1.258   5.288  0.9492  0.6284  0.8038
   75SLPC  C310 6771   3.149   1.107   5.127 -0.1445  0.0680  0.5653
   75SLPC  H10X 6772   3.054   1.150   5.089 -0.7475 -1.8732 -0.2485
   75SLPC  H10Y 6773   3.149   0.997   5.115  0.5358  0.2127 -0.9399
   75SLPC  C311 6774   3.272   1.158   5.055  0.7135  0.2965 -0.3331
   75SLPC  H11X 6775   3.346   1.077   5.063  0.0481 -0.3011 -0.1317
   75SLPC  H11Y 6776   3.311   1.259   5.081 -0.2171  0.8123 -0.8624
   75SLPC  C312 6777   3.247   1.187   4.901  0.2204 -0.5568 -1.1356
   75SLPC  H12X 6778   3.339   1.226   4.853  1.4735 -0.5528  1.1076
   75SLPC  H12Y 6779   3.172   1.268   4.891 -1.3859 -1.6450  1.0404
   75SLPC  C313 6780   3.192   1.070   4.830  0.8066  0.2811 -0.1552
   75SLPC  H13X 6781   3.092   1.045   4.871  0.8065 -0.3257 -0.5105
   75SLPC  H13Y 6782   3.254   0.978   4.835  0.0403 -0.8527 -5.3398
   75SLPC  C314 6783   3.174   1.091   4.680  0.5870  0.5206  0.0765
   75SLPC  H14X 6784   3.273   1.100   4.630 -0.0019 -0.0993 -1.2242
   75SLPC  H14Y 6785   3.107   1.175   4.655 -1.1451 -0.7199  0.3712
   75SLPC  C315 6786   3.109   0.969   4.608  0.0449 -0.0510 -0.7473
   75SLPC  H15X 6787   3.018   0.940   4.664 -0.0557 -1.4087 -1.5692
   75SLPC  H15Y 6788   3.171   0.877   4.607  2.0724  1.0495  3.1413
   75SLPC  C316 6789   3.076   1.016   4.467  0.3630 -0.1089  0.3393
   75SLPC  H16X 6790   3.159   1.074   4.421  0.4549 -1.5848 -1.4464
   75SLPC  H16Y 6791   2.985   1.080   4.472  1.3019  1.3900 -0.8188
   75SLPC  C317 6792   3.062   0.896   4.368 -0.6450 -0.5004 -0.3696
   75SLPC  H17X 6793   3.003   0.821   4.424 -0.0191  0.4924  1.7193
   75SLPC  H17Y 6794   3.161   0.845   4.359 -0.5826 -0.3664 -0.4426
   75SLPC  C318 6795   3.011   0.919   4.226 -1.0655  0.5821  0.0893
   75SLPC  H18X 6796   3.091   0.967   4.167 -2.0257  1.5242 -0.4869
   75SLPC  H18Y 6797   2.927   0.992   4.229 -1.2105  0.6871 -3.2989
   75SLPC  H18Z 6798   2.984   0.822   4.178  0.8542 -0.3552  0.7751
   76SLPC     N 6799   4.795   5.913   7.184  0.6707 -1.0602  0.6711
   76SLPC   C13 6800   4.687   5.812   7.187 -0.0055 -0.2084 -0.0267
   76SLPC  H13A 6801   4.691   5.744   7.104 -0.8077  0.1246 -0.3443
   76SLPC  H13B 6802   4.680   5.764   7.283  1.0571  1.0095  0.6956
   76SLPC  H13C 6803   4.593   5.864   7.177 -1.1483 -1.5184  2.8890
   76SLPC   C14 6804   4.922   5.844   7.223 -0.2736  0.2385 -0.3178
   76SLPC  H14A 6805   5.011   5.906   7.224 -1.1681  1.6111  1.0006
   76SLPC  H14B 6806   4.913   5.800   7.322 -2.1312  0.6382 -0.2669
   76SLPC  H14C 6807   4.940   5.765   7.152 -0.4711  0.3427 -0.4824
   76SLPC   C15 6808   4.772   6.022   7.278  0.0189 -0.3358 -0.3231
   76SLPC  H15A 6809   4.860   6.084   7.291 -1.4370  1.7887 -0.0576
   76SLPC  H15B 6810   4.690   6.087   7.250  0.1925 -1.2259 -3.1971
   76SLPC  H15C 6811   4.750   5.984   7.376  0.4157  0.5983  0.1431
   76SLPC   C12 6812   4.800   5.968   7.044  0.7634  0.2135 -0.0311
   76SLPC  H12A 6813   4.706   6.007   7.008  0.3879 -0.5029  0.1556
   76SLPC  H12B 6814   4.823   5.883   6.982  1.6111  0.5276 -0.1602
   76SLPC   C11 6815   4.891   6.090   7.020  0.1974  0.2115  0.1459
   76SLPC  H11A 6816   4.848   6.165   7.090 -0.6643  0.6323 -0.8174
   76SLPC  H11B 6817   4.867   6.119   6.916  3.0670  0.7127 -0.4704
   76SLPC     P 6818   5.118   6.194   7.004  0.1386 -0.1941 -0.1939
   76SLPC   O13 6819   5.054   6.307   7.075  0.0036 -0.3238  0.2371
   76SLPC   O14 6820   5.264   6.177   7.032  0.0674  0.2386 -0.6892
   76SLPC   O12 6821   5.029   6.065   7.043 -0.1142  0.2777  0.1479
   76SLPC   O11 6822   5.093   6.221   6.852 -0.0723 -0.4374  0.1102
   76SLPC    C1 6823   5.126   6.127   6.754  0.3455  0.5453  0.5199
   76SLPC    HA 6824   5.233   6.113   6.728 -0.0770 -2.5952  0.1374
   76SLPC    HB 6825   5.094   6.027   6.791  2.0603 -0.6867 -1.1794
   76SLPC    C2 6826   5.051   6.152   6.621 -0.1394 -0.0752 -0.2979
   76SLPC    HS 6827   4.947   6.115   6.623  0.2417 -1.1548  0.1679
   76SLPC   O21 6828   5.120   6.076   6.524 -0.4341  0.8476 -0.3537
   76SLPC   C21 6829   5.088   5.950   6.525 -0.4164 -0.4059 -0.2061
   76SLPC   O22 6830   5.012   5.891   6.599  0.0845  0.3024  0.1661
   76SLPC   C22 6831   5.149   5.893   6.397 -0.2396  0.0407 -0.8025
   76SLPC   H2R 6832   5.259   5.901   6.408 -0.4243  0.3286  1.1753
   76SLPC   H2S 6833   5.125   5.785   6.392  1.8950 -0.4796 -0.7429
   76SLPC    C3 6834   5.050   6.305   6.585 -0.2866  0.5674  0.5738
   76SLPC    HX 6835   5.159   6.325   6.593  0.0739 -1.2326  0.5941
   76SLPC    HY 6836   4.988   6.344   6.668  1.3345 -1.8981  3.1331
   76SLPC   O31 6837   4.995   6.315   6.449  0.2032 -0.5928 -0.1952
   76SLPC   C31 6838   4.980   6.441   6.411 -0.5905 -0.1014  0.2618
   76SLPC   O32 6839   5.007   6.541   6.480 -0.8500 -0.1444  0.4229
   76SLPC   C32 6840   4.933   6.440   6.267 -0.4157 -0.1873  0.0052
   76SLPC   H2X 6841   4.829   6.402   6.274 -0.2453 -1.0129 -1.5146
   76SLPC   H2Y 6842   5.005   6.380   6.208 -1.0303 -0.3893 -0.5499
   76SLPC   C23 6843   5.115   5.976   6.266 -0.5162 -0.5377 -0.6180
   76SLPC   H3R 6844   5.135   6.083   6.284 -1.1599 -0.5889  0.5051
   76SLPC   H3S 6845   5.007   5.963   6.246 -1.2090 -0.8146  2.6766
   76SLPC   C24 6846   5.189   5.911   6.148 -0.3229 -0.7790  0.5538
   76SLPC   H4R 6847   5.149   5.808   6.162 -1.8333 -0.3833 -0.5918
   76SLPC   H4S 6848   5.298   5.899   6.164  0.0594  0.1383 -1.1369
   76SLPC   C25 6849   5.149   5.958   6.006 -0.4583  0.3144 -0.5469
   76SLPC   H5R 6850   5.216   5.896   5.943  0.9696  0.3681  0.8695
   76SLPC   H5S 6851   5.152   6.067   5.986  0.0176  0.8147  1.9224
   76SLPC   C26 6852   5.006   5.903   5.973  0.6020  0.1734 -0.6302
   76SLPC   H6R 6853   4.936   5.983   6.005  2.0589  1.5609 -0.8178
   76SLPC   H6S 6854   4.985   5.807   6.026  1.7020 -0.0703 -0.6206
   76SLPC   C27 6855   4.979   5.887   5.822  0.4651  0.3124 -0.1015
   76SLPC   H7R 6856   4.880   5.840   5.805 -0.2433  1.5017  0.6317
   76SLPC   H7S 6857   5.054   5.813   5.787  2.7095  0.5750  3.5571
   76SLPC   C28 6858   4.984   6.027   5.753 -0.5552 -0.7901  0.2941
   76SLPC   H8R 6859   5.011   6.010   5.647  1.0639  1.1163  0.3285
   76SLPC   H8S 6860   5.074   6.082   5.789 -1.0010 -0.7265  1.3599
   76SLPC   C29 6861   4.863   6.112   5.779  0.3358 -0.3056  0.8043
   76SLPC   H9R 6862   4.852   6.132   5.887 -2.0364  1.8981  0.2643
   76SLPC  C210 6863   4.763   6.140   5.687  0.1250 -0.0917 -0.1927
   76SLPC  H10R 6864   4.667   6.183   5.720  0.2134  1.5127 -1.8645
   76SLPC  C211 6865   4.742   6.109   5.541 -1.0625 -0.5736 -0.2807
   76SLPC  H11R 6866   4.648   6.164   5.520 -0.7452 -0.1770 -0.6783
   76SLPC  H11S 6867   4.717   6.002   5.528  1.0454 -1.3335  1.2551
   76SLPC  C212 6868   4.850   6.161   5.448  0.1714 -0.0239 -0.0825
   76SLPC  H12R 6869   4.933   6.218   5.493  0.1747 -0.5182  0.5549
   76SLPC  C213 6870   4.841   6.127   5.319 -0.0242 -0.6013 -0.5787
   76SLPC  H13R 6871   4.929   6.151   5.258  2.2509 -1.3329  2.1995
   76SLPC  C214 6872   4.735   6.043   5.260  0.4987  0.1396 -0.7012
   76SLPC  H14R 6873   4.681   6.092   5.176 -1.5721  1.8655  1.5008
   76SLPC  H14S 6874   4.648   6.031   5.328  1.1519  0.3445  0.1843
   76SLPC  C215 6875   4.796   5.906   5.219 -0.0813  0.2164 -1.0007
   76SLPC  H15R 6876   4.838   5.843   5.301  0.7171  0.5427 -1.1453
   76SLPC  H15S 6877   4.878   5.920   5.145  0.2347  0.5822 -0.5875
   76SLPC  C216 6878   4.686   5.824   5.154 -0.1422  0.1062  0.4285
   76SLPC  H16R 6879   4.616   5.893   5.102  1.1223  1.4913  0.5144
   76SLPC  H16S 6880   4.629   5.757   5.222  0.0044 -1.0658 -0.5618
   76SLPC  C217 6881   4.731   5.723   5.042 -0.7475 -0.1276  0.1282
   76SLPC  H17R 6882   4.633   5.689   5.002 -1.3355  1.7864 -0.1550
   76SLPC  H17S 6883   4.770   5.633   5.094 -1.7508 -1.6320 -1.5947
   76SLPC  C218 6884   4.830   5.780   4.935 -0.0859  0.1510 -0.7581
   76SLPC  H18R 6885   4.799   5.865   4.872  0.3459 -0.3256 -1.6332
   76SLPC  H18S 6886   4.865   5.705   4.861  1.6177  1.3768 -1.2241
   76SLPC  H18T 6887   4.926   5.812   4.980 -0.2401 -0.0304 -0.2844
   76SLPC   C33 6888   4.946   6.582   6.202  0.5297  0.0104 -0.2125
   76SLPC   H3X 6889   5.053   6.609   6.211  0.2283  1.6161 -1.0391
   76SLPC   H3Y 6890   4.878   6.660   6.243  1.6398  1.0331 -0.2649
   76SLPC   C34 6891   4.904   6.582   6.053 -0.0462  0.1281 -0.3673
   76SLPC   H4X 6892   4.947   6.491   6.006 -1.4183 -2.2059  2.5588
   76SLPC   H4Y 6893   4.948   6.670   6.002 -1.5589  0.3827 -1.3060
   76SLPC   C35 6894   4.755   6.566   6.042 -0.2093  0.0055 -0.0103
   76SLPC   H5X 6895   4.691   6.652   6.069 -0.2464  0.7969 -2.3596
   76SLPC   H5Y 6896   4.725   6.494   6.122 -0.0461 -1.3151 -1.0902
   76SLPC   C36 6897   4.715   6.505   5.910  0.0110  0.5014  0.1322
   76SLPC   H6X 6898   4.751   6.401   5.897 -1.7345 -0.3636  1.9046
   76SLPC   H6Y 6899   4.777   6.553   5.831  0.5237 -0.6407 -0.1797
   76SLPC   C37 6900   4.565   6.517   5.866 -0.1947 -0.2004 -0.2200
   76SLPC   H7X 6901   4.533   6.623   5.873  0.2294  0.0531 -1.8688
   76SLPC   H7Y 6902   4.505   6.454   5.935  1.6645 -0.3299  1.3722
   76SLPC   C38 6903   4.540   6.470   5.719  0.2180 -0.1794 -0.2072
   76SLPC   H8X 6904   4.436   6.504   5.695 -0.5089 -0.4316  2.2572
   76SLPC   H8Y 6905   4.539   6.359   5.720 -1.4959 -0.2040  1.4108
   76SLPC   C39 6906   4.634   6.530   5.620 -0.6063 -0.0420  0.0384
   76SLPC   H9X 6907   4.738   6.493   5.631 -0.4766 -0.8804 -3.0841
   76SLPC   H9Y 6908   4.646   6.639   5.638  0.8899 -0.3041  0.8167
   76SLPC  C310 6909   4.595   6.503   5.479  0.2310 -0.8173 -0.2260
   76SLPC  H10X 6910   4.491   6.540   5.469  0.9301  0.9602 -1.3734
   76SLPC  H10Y 6911   4.582   6.394   5.463 -0.2775 -0.5247 -1.9689
   76SLPC  C311 6912   4.672   6.575   5.366 -1.2483  0.6820 -0.4230
   76SLPC  H11X 6913   4.774   6.541   5.392 -2.0647 -0.2879  1.7504
   76SLPC  H11Y 6914   4.661   6.685   5.381 -2.7066  0.7337 -1.6329
   76SLPC  C312 6915   4.636   6.527   5.227  0.4978 -0.4697  0.4824
   76SLPC  H12X 6916   4.525   6.526   5.222  0.5200  0.4642 -0.5889
   76SLPC  H12Y 6917   4.664   6.421   5.212 -1.9411 -0.9212 -1.5587
   76SLPC  C313 6918   4.698   6.603   5.117  0.2424  0.1842  0.3763
   76SLPC  H13X 6919   4.809   6.599   5.129  0.1796  0.3279  0.9942
   76SLPC  H13Y 6920   4.657   6.705   5.106 -3.2169 -1.2184 -1.4120
   76SLPC  C314 6921   4.681   6.537   4.980 -0.2182 -0.7166  0.0138
   76SLPC  H14X 6922   4.716   6.603   4.897 -2.2788 -1.8551 -1.8902
   76SLPC  H14Y 6923   4.575   6.511   4.956 -1.3171  1.5282  2.0825
   76SLPC  C315 6924   4.753   6.406   4.959 -0.3535 -0.5690 -0.1792
   76SLPC  H15X 6925   4.717   6.338   5.040 -1.0238  1.5559  1.4021
   76SLPC  H15Y 6926   4.862   6.424   4.964 -0.2748  0.5936 -3.6107
   76SLPC  C316 6927   4.726   6.335   4.826  0.0161  0.2842 -0.0524
   76SLPC  H16X 6928   4.758   6.387   4.734  0.1419  0.1724 -0.0716
   76SLPC  H16Y 6929   4.617   6.315   4.818 -0.4030  1.7564  1.3906
   76SLPC  C317 6930   4.784   6.194   4.802  0.0866 -0.6748  0.3654
   76SLPC  H17X 6931   4.744   6.129   4.882  3.1531 -4.0386 -0.5947
   76SLPC  H17Y 6932   4.894   6.192   4.819 -0.0497 -1.4246  1.1931
   76SLPC  C318 6933   4.735   6.139   4.665 -0.0968 -0.4965 -0.3847
   76SLPC  H18X 6934   4.626   6.117   4.665  0.0671 -1.3669  0.2311
   76SLPC  H18Y 6935   4.786   6.043   4.640 -2.4271 -2.2184  1.1484
   76SLPC  H18Z 6936   4.748   6.206   4.577 -0.1271  0.5404  0.3934
   77SLPC     N 6937   4.113   0.448   7.018 -0.3049 -0.2700 -0.0370
   77SLPC   C13 6938   4.028   0.550   7.091  0.2064 -0.2903  0.0953
   77SLPC  H13A 6939   4.046   0.547   7.197 -0.4024 -0.0552  0.2084
   77SLPC  H13B 6940   4.047   0.648   7.051  1.3732 -0.7699 -0.5968
   77SLPC  H13C 6941   3.926   0.516   7.089 -0.5692  1.6328  2.6051
   77SLPC   C14 6942   4.075   0.311   7.060 -0.0797  0.2510  0.1506
   77SLPC  H14A 6943   4.144   0.239   7.018 -0.3566 -0.1800  0.4298
   77SLPC  H14B 6944   4.082   0.301   7.167 -0.7584  1.5559  0.3431
   77SLPC  H14C 6945   3.974   0.281   7.037 -0.2031  0.7792 -0.0253
   77SLPC   C15 6946   4.258   0.459   7.071 -0.5750 -0.1547  0.6624
   77SLPC  H15A 6947   4.295   0.560   7.070 -1.5288  0.1968 -0.0570
   77SLPC  H15B 6948   4.260   0.444   7.178  0.1523 -0.1159  0.6602
   77SLPC  H15C 6949   4.332   0.392   7.028  0.1857  0.5403  0.8641
   77SLPC   C12 6950   4.102   0.455   6.869 -0.2165  0.5204  0.7017
   77SLPC  H12A 6951   4.128   0.554   6.835  1.5196 -0.6720 -1.6594
   77SLPC  H12B 6952   4.004   0.422   6.839  1.7168 -2.9817 -2.6611
   77SLPC   C11 6953   4.190   0.355   6.787 -0.3370 -0.4055 -0.6601
   77SLPC  H11A 6954   4.138   0.322   6.695  0.1388 -1.7105 -0.4797
   77SLPC  H11B 6955   4.205   0.260   6.844 -3.1610 -0.6390 -0.1728
   77SLPC     P 6956   4.438   0.320   6.715  0.0960  0.1121 -0.0402
   77SLPC   O13 6957   4.551   0.404   6.674 -0.2108 -0.5402  0.4348
   77SLPC   O14 6958   4.467   0.223   6.818  0.4780  0.3956  0.6008
   77SLPC   O12 6959   4.320   0.417   6.760  0.1886  0.1157  0.0578
   77SLPC   O11 6960   4.384   0.240   6.588 -0.0582  0.1793  0.4708
   77SLPC    C1 6961   4.309   0.301   6.487 -0.1693  0.3242 -0.2245
   77SLPC    HA 6962   4.204   0.264   6.491  0.2351 -1.5220 -3.5246
   77SLPC    HB 6963   4.316   0.411   6.499  0.1362  0.3658 -0.7609
   77SLPC    C2 6964   4.367   0.278   6.341 -0.2930  1.2041 -0.8811
   77SLPC    HS 6965   4.295   0.336   6.280 -3.3328 -1.0419  0.2826
   77SLPC   O21 6966   4.373   0.137   6.306 -0.1649 -0.0583 -0.2364
   77SLPC   C21 6967   4.261   0.086   6.259 -0.3631  0.0410 -0.3115
   77SLPC   O22 6968   4.158   0.149   6.246 -0.1358  0.4325 -0.2952
   77SLPC   C22 6969   4.285  -0.052   6.201  0.7598 -0.7574 -0.3947
   77SLPC   H2R 6970   4.337  -0.107   6.283 -0.3622 -0.7178  0.3603
   77SLPC   H2S 6971   4.190  -0.105   6.179  1.4770 -2.1466 -0.2827
   77SLPC    C3 6972   4.507   0.344   6.334 -0.0714  0.2130  0.2631
   77SLPC    HX 6973   4.578   0.302   6.409  0.2335  0.4604  0.1135
   77SLPC    HY 6974   4.500   0.450   6.366 -1.0193  0.4701 -0.7442
   77SLPC   O31 6975   4.563   0.329   6.202 -0.0117 -0.1428  0.2819
   77SLPC   C31 6976   4.660   0.251   6.174  0.3981 -0.5911 -0.3748
   77SLPC   O32 6977   4.738   0.199   6.250 -0.0995 -0.3218  0.2249
   77SLPC   C32 6978   4.661   0.225   6.025  0.3512 -0.2698  0.9429
   77SLPC   H2X 6979   4.661   0.316   5.961  1.0268 -1.7841 -1.3287
   77SLPC   H2Y 6980   4.565   0.172   6.007  1.2834 -1.6348 -0.2393
   77SLPC   C23 6981   4.391  -0.053   6.092  0.1135 -0.0327  0.1965
   77SLPC   H3R 6982   4.398  -0.161   6.068 -0.6856 -0.5684  2.1383
   77SLPC   H3S 6983   4.496  -0.050   6.128  0.6519  1.1700 -1.3788
   77SLPC   C24 6984   4.358   0.014   5.956  0.1325 -1.0060 -0.4559
   77SLPC   H4R 6985   4.454   0.023   5.900  0.7892  0.3965  0.8159
   77SLPC   H4S 6986   4.325   0.120   5.966  0.8803 -0.3987 -3.5031
   77SLPC   C25 6987   4.244  -0.049   5.871  0.2075 -0.3549  0.6216
   77SLPC   H5R 6988   4.160  -0.048   5.943 -0.4920 -2.9001 -0.0570
   77SLPC   H5S 6989   4.262  -0.155   5.844  1.3183 -0.3201  1.1740
   77SLPC   C26 6990   4.203   0.029   5.744 -0.0575 -0.7927 -0.3157
   77SLPC   H6R 6991   4.174   0.134   5.770  0.7046 -0.3299 -1.2820
   77SLPC   H6S 6992   4.114  -0.022   5.702  0.6045 -1.5472 -0.8208
   77SLPC   C27 6993   4.303   0.033   5.626  0.0558  0.0583 -0.1290
   77SLPC   H7R 6994   4.292  -0.063   5.570 -0.3951  0.0656 -0.0561
   77SLPC   H7S 6995   4.404   0.041   5.671 -0.9918 -0.0582  2.4440
   77SLPC   C28 6996   4.283   0.145   5.524  0.6401  0.0247  0.0778
   77SLPC   H8R 6997   4.381   0.149   5.471  0.2777 -1.1383 -0.7223
   77SLPC   H8S 6998   4.271   0.246   5.568 -0.9067  0.9458 -2.2569
   77SLPC   C29 6999   4.158   0.123   5.434 -0.0691  0.4008  0.2541
   77SLPC   H9R 7000   4.062   0.128   5.488 -1.3867 -1.1196 -1.8213
   77SLPC  C210 7001   4.163   0.110   5.300  0.0440  0.7015 -0.6559
   77SLPC  H10R 7002   4.066   0.088   5.252  0.5894 -0.4297 -1.2577
   77SLPC  C211 7003   4.275   0.115   5.202 -0.1270  0.4279  0.0375
   77SLPC  H11R 7004   4.366   0.166   5.242 -1.0595  1.5046  0.8510
   77SLPC  H11S 7005   4.252   0.188   5.122  1.4340  0.3154 -0.5444
   77SLPC  C212 7006   4.326  -0.021   5.151 -0.3675 -0.5572 -0.2409
   77SLPC  H12R 7007   4.333  -0.096   5.230  0.2468 -0.1792  0.0680
   77SLPC  C213 7008   4.377  -0.054   5.025  0.1143 -0.5618  0.5819
   77SLPC  H13R 7009   4.432  -0.148   5.013 -1.8393 -1.6588 -0.2021
   77SLPC  C214 7010   4.375   0.032   4.898  0.2230 -0.4580  0.4220
   77SLPC  H14R 7011   4.481   0.063   4.889  1.1541 -3.0408  1.6213
   77SLPC  H14S 7012   4.308   0.118   4.917  0.7057 -0.2458  1.2190
   77SLPC  C215 7013   4.317  -0.035   4.773 -0.0365  0.3321 -0.3825
   77SLPC  H15R 7014   4.318   0.044   4.695 -0.7029  2.7195  1.8997
   77SLPC  H15S 7015   4.214  -0.073   4.785  0.1460  0.1779  0.7669
   77SLPC  C216 7016   4.413  -0.148   4.727  0.5146  0.0199 -0.4547
   77SLPC  H16R 7017   4.431  -0.222   4.807 -1.3690  1.2014  1.1405
   77SLPC  H16S 7018   4.504  -0.094   4.695  0.4016 -0.6324 -1.9653
   77SLPC  C217 7019   4.368  -0.230   4.602 -0.0953 -0.9754 -0.4132
   77SLPC  H17R 7020   4.359  -0.161   4.515  2.2730 -3.0808 -2.5300
   77SLPC  H17S 7021   4.274  -0.285   4.626 -1.7204  1.9614  0.4160
   77SLPC  C218 7022   4.472  -0.330   4.557  0.6197 -0.1695  0.4301
   77SLPC  H18R 7023   4.563  -0.276   4.523 -0.5961  2.6035  1.3206
   77SLPC  H18S 7024   4.437  -0.397   4.476 -0.8162 -0.1307  0.9867
   77SLPC  H18T 7025   4.502  -0.384   4.650 -0.3163  0.6215  1.2135
   77SLPC   C33 7026   4.779   0.138   5.992 -0.2401 -0.2072  0.4732
   77SLPC   H3X 7027   4.769   0.035   6.033 -1.8898 -0.5526 -0.7097
   77SLPC   H3Y 7028   4.870   0.182   6.038  0.2796  0.2741 -0.9535
   77SLPC   C34 7029   4.813   0.128   5.839  0.6758 -0.5003 -0.3302
   77SLPC   H4X 7030   4.895   0.053   5.829  0.4083 -0.5655 -2.5029
   77SLPC   H4Y 7031   4.851   0.228   5.809  0.2483  0.1928  1.3338
   77SLPC   C35 7032   4.698   0.085   5.743  0.2102  0.2773  0.1616
   77SLPC   H5X 7033   4.612   0.155   5.739 -1.2654 -1.5111 -0.8373
   77SLPC   H5Y 7034   4.646  -0.001   5.791  1.4930 -1.1001 -0.8534
   77SLPC   C36 7035   4.757   0.040   5.611  0.1953  0.4455  0.7332
   77SLPC   H6X 7036   4.682  -0.020   5.556 -1.5246  0.6880  2.6618
   77SLPC   H6Y 7037   4.841  -0.031   5.631 -0.5858 -1.2800 -1.6371
   77SLPC   C37 7038   4.824   0.159   5.536 -0.0028  0.2616  0.0603
   77SLPC   H7X 7039   4.906   0.202   5.597  0.6249  1.0845 -1.3072
   77SLPC   H7Y 7040   4.744   0.233   5.517  0.1157  0.2735 -0.4068
   77SLPC   C38 7041   4.897   0.115   5.404 -0.5624 -0.4113 -0.0885
   77SLPC   H8X 7042   4.955   0.022   5.421 -1.0801 -0.5458  0.9875
   77SLPC   H8Y 7043   4.973   0.193   5.381  1.6249 -2.1072  0.9790
   77SLPC   C39 7044   4.789   0.106   5.290 -0.5196 -0.1452 -0.1584
   77SLPC   H9X 7045   4.724   0.196   5.288 -2.3009 -1.3886 -1.0961
   77SLPC   H9Y 7046   4.723   0.017   5.294  2.2467 -2.5046 -2.3236
   77SLPC  C310 7047   4.866   0.092   5.145  0.1393 -0.4779  0.0269
   77SLPC  H10X 7048   4.898  -0.014   5.146  0.4233 -0.3932  0.9428
   77SLPC  H10Y 7049   4.955   0.159   5.146 -1.0625  1.4733  4.7139
   77SLPC  C311 7050   4.783   0.128   5.029  0.0084 -0.5735 -0.1591
   77SLPC  H11X 7051   4.748   0.233   5.034 -0.4201 -0.7246  0.0681
   77SLPC  H11Y 7052   4.689   0.069   5.019 -0.1163 -0.2785 -0.7972
   77SLPC  C312 7053   4.867   0.126   4.908 -1.2233 -0.0014  0.6184
   77SLPC  H12X 7054   4.966   0.169   4.935 -0.1553 -0.8807 -1.6197
   77SLPC  H12Y 7055   4.825   0.189   4.827  2.4726  0.2974 -1.2720
   77SLPC  C313 7056   4.875  -0.012   4.836 -0.9611 -1.1212  0.3477
   77SLPC  H13X 7057   4.769  -0.042   4.821 -1.4146  0.6907 -0.3101
   77SLPC  H13Y 7058   4.922  -0.071   4.918  1.0297 -1.6116 -1.0734
   77SLPC  C314 7059   4.957  -0.016   4.710 -0.6246 -0.4304  0.1517
   77SLPC  H14X 7060   4.903   0.051   4.640 -1.7901 -1.5631 -0.0744
   77SLPC  H14Y 7061   4.954  -0.118   4.667  1.4664 -1.1642  1.6211
   77SLPC  C315 7062   5.106   0.034   4.731  0.2941 -0.6938 -0.0738
   77SLPC  H15X 7063   5.136  -0.021   4.823 -1.6826 -3.6276 -1.0344
   77SLPC  H15Y 7064   5.110   0.145   4.735  2.0296 -0.6949 -0.8173
   77SLPC  C316 7065   5.190  -0.001   4.600 -0.3886 -0.2037  0.3036
   77SLPC  H16X 7066   5.143   0.048   4.512  0.4368 -0.7952 -0.4954
   77SLPC  H16Y 7067   5.197  -0.112   4.591  1.7819 -0.0909  0.0488
   77SLPC  C317 7068   5.337   0.045   4.604 -0.8375 -0.1912  1.0511
   77SLPC  H17X 7069   5.365   0.046   4.496  0.7902  0.5180  1.4450
   77SLPC  H17Y 7070   5.408  -0.022   4.657 -0.7060 -0.6844  0.2767
   77SLPC  C318 7071   5.365   0.191   4.661  0.4419  0.1697 -0.1244
   77SLPC  H18X 7072   5.374   0.179   4.771  0.1563 -0.9272 -0.2083
   77SLPC  H18Y 7073   5.287   0.268   4.644  0.3746  0.4411  1.2657
   77SLPC  H18Z 7074   5.467   0.215   4.626  0.3612  0.9252  0.1535
   78SLPC     N 7075   5.668   4.919   7.093 -0.0241  0.8102 -0.1026
   78SLPC   C13 7076   5.759   4.804   7.067 -0.3062 -1.0205  0.3771
   78SLPC  H13A 7077   5.842   4.838   7.007 -1.8317  1.6353 -0.3922
   78SLPC  H13B 7078   5.803   4.773   7.161 -1.7654 -0.6435  1.2074
   78SLPC  H13C 7079   5.711   4.723   7.014  0.6732  0.5824 -3.2878
   78SLPC   C14 7080   5.544   4.879   7.172 -0.5018 -0.7388  0.4564
   78SLPC  H14A 7081   5.583   4.850   7.269  0.4882  0.3680  0.4259
   78SLPC  H14B 7082   5.478   4.964   7.184  0.3483 -0.0719  0.5160
   78SLPC  H14C 7083   5.493   4.797   7.125 -1.2496  1.5057 -3.0566
   78SLPC   C15 7084   5.614   4.957   6.954 -0.6781 -0.4398  0.1958
   78SLPC  H15A 7085   5.700   4.992   6.900  0.0533  1.3829  2.3834
   78SLPC  H15B 7086   5.568   4.870   6.909 -1.3896  0.1856 -0.3088
   78SLPC  H15C 7087   5.536   5.031   6.965  0.4524  1.0102 -1.1211
   78SLPC   C12 7088   5.738   5.035   7.161 -0.8136 -0.8186  0.4838
   78SLPC  H12A 7089   5.779   5.009   7.257  1.5230 -1.4551 -0.5913
   78SLPC  H12B 7090   5.670   5.114   7.188  2.3050  1.7826  1.3414
   78SLPC   C11 7091   5.850   5.116   7.089  0.7460  0.4333 -0.0868
   78SLPC  H11A 7092   5.874   5.201   7.157  0.5498  0.2445  0.2209
   78SLPC  H11B 7093   5.799   5.154   6.998 -2.2693 -0.8377  0.9355
   78SLPC     P 7094   6.075   4.990   7.151 -0.1891 -0.4462  0.5955
   78SLPC   O13 7095   6.056   5.058   7.279 -0.0459 -0.0516 -0.2466
   78SLPC   O14 7096   6.096   4.845   7.148  0.1338 -0.7483 -0.0465
   78SLPC   O12 7097   5.952   5.024   7.058  0.6070 -0.1120 -0.1795
   78SLPC   O11 7098   6.208   5.054   7.089  0.2942  0.1410 -0.5262
   78SLPC    C1 7099   6.258   5.040   6.957  0.5636  0.1802 -0.8504
   78SLPC    HA 7100   6.366   5.014   6.966  0.0995 -1.2607  1.2669
   78SLPC    HB 7101   6.206   4.955   6.908  1.8595 -1.0797 -0.1169
   78SLPC    C2 7102   6.249   5.177   6.883  0.4195 -0.3750  0.2911
   78SLPC    HS 7103   6.338   5.243   6.887  0.0539  0.1356  0.0772
   78SLPC   O21 7104   6.132   5.250   6.926  0.1609 -0.0665 -0.4452
   78SLPC   C21 7105   6.152   5.382   6.944  0.0100 -0.2222  0.4056
   78SLPC   O22 7106   6.260   5.438   6.937  0.3785 -0.2195  0.4415
   78SLPC   C22 7107   6.020   5.451   6.977  0.5507 -0.2015 -0.1789
   78SLPC   H2R 7108   5.944   5.372   6.959  1.1868 -0.1963 -3.4947
   78SLPC   H2S 7109   6.015   5.474   7.085 -1.6232  1.2799 -0.5285
   78SLPC    C3 7110   6.238   5.144   6.736  0.4650 -0.5138  0.1810
   78SLPC    HX 7111   6.136   5.100   6.727  0.3913 -0.1785 -0.7592
   78SLPC    HY 7112   6.310   5.063   6.712 -0.6357 -2.0147  1.6869
   78SLPC   O31 7113   6.232   5.264   6.652 -0.5213 -0.0415  0.2878
   78SLPC   C31 7114   6.354   5.315   6.622  0.2618  0.6357 -0.3673
   78SLPC   O32 7115   6.460   5.253   6.645 -0.1028  0.4953  0.6306
   78SLPC   C32 7116   6.347   5.454   6.559  0.0587  0.4629  0.0741
   78SLPC   H2X 7117   6.445   5.496   6.528  0.0155 -0.4941 -1.4196
   78SLPC   H2Y 7118   6.304   5.512   6.644 -0.6130  0.0791 -0.0032
   78SLPC   C23 7119   5.996   5.570   6.886 -0.2274 -0.1600 -0.3403
   78SLPC   H3R 7120   6.086   5.634   6.896 -0.5698  0.1058  1.3171
   78SLPC   H3S 7121   5.921   5.637   6.933 -0.2264  1.4143 -2.4039
   78SLPC   C24 7122   5.961   5.539   6.748  0.3751  0.1212  0.6597
   78SLPC   H4R 7123   5.855   5.508   6.756  0.2360  0.9925  3.4184
   78SLPC   H4S 7124   6.034   5.470   6.701  0.0447  1.5265 -2.1127
   78SLPC   C25 7125   5.971   5.675   6.670 -0.4850  0.0389 -0.0583
   78SLPC   H5R 7126   6.075   5.702   6.642 -0.3990 -0.2326 -0.0038
   78SLPC   H5S 7127   5.941   5.767   6.723  1.3310  1.1189 -0.8347
   78SLPC   C26 7128   5.900   5.667   6.537  0.0515  0.3089 -0.7558
   78SLPC   H6R 7129   5.810   5.605   6.556  1.4606 -1.7198 -0.3256
   78SLPC   H6S 7130   5.955   5.594   6.473 -1.1855 -1.2493 -0.1039
   78SLPC   C27 7131   5.867   5.793   6.457 -0.0690  0.5859  0.4331
   78SLPC   H7R 7132   5.961   5.846   6.429  0.2538  0.4181  1.1647
   78SLPC   H7S 7133   5.812   5.853   6.533 -1.3865 -0.2937  0.2026
   78SLPC   C28 7134   5.793   5.768   6.325  0.2301 -1.2835  0.3541
   78SLPC   H8R 7135   5.712   5.693   6.341 -1.0879  0.4237  2.1025
   78SLPC   H8S 7136   5.852   5.719   6.244 -0.2000  1.1348 -1.5298
   78SLPC   C29 7137   5.729   5.899   6.287  0.0838 -0.4377 -0.0566
   78SLPC   H9R 7138   5.706   5.969   6.369 -1.4665  0.2601 -1.0333
   78SLPC  C210 7139   5.719   5.943   6.160  0.3418  0.1046  0.1301
   78SLPC  H10R 7140   5.681   6.046   6.151 -3.1704 -1.0023  0.9207
   78SLPC  C211 7141   5.735   5.871   6.026  0.1014  0.2592  0.1160
   78SLPC  H11R 7142   5.793   5.777   6.034  1.8940  1.2137 -1.0243
   78SLPC  H11S 7143   5.800   5.923   5.952  1.1155 -2.5128 -1.0847
   78SLPC  C212 7144   5.592   5.820   5.983 -0.4904  0.1582 -0.1068
   78SLPC  H12R 7145   5.561   5.730   6.037  1.3245 -0.1778  0.4435
   78SLPC  C213 7146   5.520   5.886   5.888 -0.7048 -0.5552 -0.2153
   78SLPC  H13R 7147   5.419   5.847   5.870 -0.1799 -1.4232 -1.3740
   78SLPC  C214 7148   5.558   6.000   5.808 -0.5014 -0.5333  0.2741
   78SLPC  H14R 7149   5.587   5.961   5.708 -1.2377 -0.3654 -0.0116
   78SLPC  H14S 7150   5.645   6.053   5.853 -1.0511 -1.6074  2.7302
   78SLPC  C215 7151   5.449   6.107   5.788  0.3044 -0.2238 -0.6591
   78SLPC  H15R 7152   5.493   6.199   5.744  1.8535 -0.6134  0.0079
   78SLPC  H15S 7153   5.406   6.126   5.889 -2.7568  2.8570 -2.3155
   78SLPC  C216 7154   5.326   6.057   5.707 -0.3692 -0.6022 -0.2893
   78SLPC  H16R 7155   5.264   6.149   5.694  1.7275  0.8127 -0.7917
   78SLPC  H16S 7156   5.266   5.980   5.760 -0.8769 -1.0216 -1.4369
   78SLPC  C217 7157   5.369   6.004   5.570  0.6569  0.5009 -0.1083
   78SLPC  H17R 7158   5.398   5.899   5.589 -0.3588  0.4147  1.0579
   78SLPC  H17S 7159   5.462   6.053   5.533  1.0140  0.0303  0.1640
   78SLPC  C218 7160   5.257   6.003   5.466 -0.7563 -0.3537 -0.0982
   78SLPC  H18R 7161   5.307   5.985   5.369  0.9066  0.2279  0.6068
   78SLPC  H18S 7162   5.208   6.103   5.464  0.4970  0.2772 -1.0542
   78SLPC  H18T 7163   5.180   5.927   5.490 -0.9389  0.0456  0.6080
   78SLPC   C33 7164   6.250   5.452   6.446  0.7450 -0.3310 -0.4708
   78SLPC   H3X 7165   6.147   5.431   6.480  0.4533 -0.2603 -1.2696
   78SLPC   H3Y 7166   6.276   5.360   6.389  1.7138 -1.3546  1.5258
   78SLPC   C34 7167   6.255   5.573   6.356  0.2468  0.7132  0.0275
   78SLPC   H4X 7168   6.351   5.582   6.300 -0.1155  2.7357 -0.3427
   78SLPC   H4Y 7169   6.241   5.672   6.403  1.5434  0.0362  1.9761
   78SLPC   C35 7170   6.149   5.558   6.247  1.0759  0.2430  0.5600
   78SLPC   H5X 7171   6.053   5.535   6.299 -0.1867 -0.1128 -1.7796
   78SLPC   H5Y 7172   6.167   5.465   6.189 -0.7550  1.1041 -1.5462
   78SLPC   C36 7173   6.139   5.665   6.146  0.3855 -0.4890 -0.1968
   78SLPC   H6X 7174   6.246   5.681   6.123  0.3385 -0.5184 -0.4381
   78SLPC   H6Y 7175   6.104   5.755   6.201  3.6351  1.2256 -0.7061
   78SLPC   C37 7176   6.080   5.622   6.010 -0.1684  0.2533 -0.1015
   78SLPC   H7X 7177   5.974   5.594   6.026 -0.5205  1.7074  0.2181
   78SLPC   H7Y 7178   6.135   5.535   5.967 -1.1802 -1.1259  1.2849
   78SLPC   C38 7179   6.091   5.742   5.917 -0.2314  0.8137 -0.7078
   78SLPC   H8X 7180   6.194   5.759   5.879  1.3708 -0.4570  2.6306
   78SLPC   H8Y 7181   6.066   5.830   5.981 -2.5597  1.0301 -1.8265
   78SLPC   C39 7182   5.989   5.747   5.806 -0.0923  1.0914 -0.0630
   78SLPC   H9X 7183   5.888   5.731   5.851  0.8046 -0.3856  1.5443
   78SLPC   H9Y 7184   5.994   5.654   5.746  1.3055 -1.0304  3.0808
   78SLPC  C310 7185   5.991   5.867   5.719  0.4202 -0.2347 -0.3649
   78SLPC  H10X 7186   6.091   5.860   5.671  0.7045 -1.1523  0.3245
   78SLPC  H10Y 7187   5.988   5.962   5.776  0.4491  1.6861 -3.3747
   78SLPC  C311 7188   5.878   5.878   5.615  0.5299 -0.3587  0.4182
   78SLPC  H11X 7189   5.862   5.984   5.588  1.2115 -0.5531 -0.8098
   78SLPC  H11Y 7190   5.782   5.837   5.652  0.4594 -1.1714 -0.6025
   78SLPC  C312 7191   5.906   5.815   5.480  0.1194 -1.1666  0.3972
   78SLPC  H12X 7192   5.969   5.727   5.505  1.2372 -0.1679  1.1838
   78SLPC  H12Y 7193   5.973   5.887   5.429  2.9022 -1.6727  3.0478
   78SLPC  C313 7194   5.775   5.774   5.408  0.2155 -0.9613  0.2623
   78SLPC  H13X 7195   5.683   5.770   5.472 -0.8831  1.0514 -1.0903
   78SLPC  H13Y 7196   5.787   5.672   5.365  0.6199 -1.5583  1.7200
   78SLPC  C314 7197   5.737   5.867   5.294 -0.3349  0.6644 -0.0811
   78SLPC  H14X 7198   5.757   5.973   5.323  0.8379  0.3001  0.5054
   78SLPC  H14Y 7199   5.631   5.857   5.263 -0.2903  1.7862 -0.6408
   78SLPC  C315 7200   5.827   5.860   5.170 -0.0519  0.2494  0.1348
   78SLPC  H15X 7201   5.833   5.757   5.129 -1.2383  0.3165 -0.2483
   78SLPC  H15Y 7202   5.931   5.887   5.197  0.0025 -0.5916  0.8194
   78SLPC  C316 7203   5.784   5.952   5.054 -0.2739 -0.7346  0.1938
   78SLPC  H16X 7204   5.768   6.054   5.095  2.0061 -0.1361 -0.2445
   78SLPC  H16Y 7205   5.687   5.926   5.006 -0.1364  0.6455 -0.8827
   78SLPC  C317 7206   5.892   5.973   4.949 -0.2977 -0.1337  0.4435
   78SLPC  H17X 7207   5.989   5.964   5.002 -1.6116 -1.0991  2.8489
   78SLPC  H17Y 7208   5.873   6.078   4.918 -3.3121 -1.3324 -2.4163
   78SLPC  C318 7209   5.888   5.884   4.829  0.4539 -0.1313 -0.2268
   78SLPC  H18X 7210   5.977   5.902   4.765  1.3936 -0.8923  0.8170
   78SLPC  H18Y 7211   5.806   5.906   4.757 -0.0067  0.3917  0.4530
   78SLPC  H18Z 7212   5.871   5.778   4.857  0.4820 -0.5583 -1.7218
   79SLPC     N 7213   4.872   0.193   6.759 -0.3743  0.0126 -0.2820
   79SLPC   C13 7214   4.746   0.141   6.708  0.6633  0.4800 -0.2940
   79SLPC  H13A 7215   4.767   0.038   6.683  0.7396  0.1511  1.0670
   79SLPC  H13B 7216   4.662   0.146   6.776  1.0597  1.0062  0.1639
   79SLPC  H13C 7217   4.719   0.205   6.625 -1.2388  1.1089  0.7519
   79SLPC   C14 7218   4.856   0.344   6.798  0.4124  0.0675  0.1109
   79SLPC  H14A 7219   4.806   0.404   6.723 -1.2754  0.1684  1.2799
   79SLPC  H14B 7220   4.798   0.351   6.888 -0.7459 -0.8093 -0.5396
   79SLPC  H14C 7221   4.947   0.396   6.822 -2.1714  3.5726  3.5462
   79SLPC   C15 7222   4.959   0.177   6.641 -0.0906  0.4242 -0.2799
   79SLPC  H15A 7223   4.963   0.073   6.613 -1.9356  0.7644 -2.0391
   79SLPC  H15B 7224   4.916   0.232   6.559 -1.3797  0.0454  0.1100
   79SLPC  H15C 7225   5.052   0.218   6.677 -0.5935 -0.2143  1.9509
   79SLPC   C12 7226   4.922   0.131   6.883  0.9862 -0.1657 -0.2926
   79SLPC  H12A 7227   4.918   0.024   6.874  0.8710 -0.0698 -1.6485
   79SLPC  H12B 7228   4.850   0.164   6.956 -0.3092  1.9725 -2.3913
   79SLPC   C11 7229   5.062   0.171   6.929  0.4607  0.5825 -0.2390
   79SLPC  H11A 7230   5.074   0.280   6.948 -1.9967  0.7547  0.5935
   79SLPC  H11B 7231   5.125   0.130   6.847 -0.8279 -0.3753 -0.7784
   79SLPC     P 7232   5.126  -0.040   7.082  0.0330  0.0182  0.9223
   79SLPC   O13 7233   5.275  -0.045   7.101 -0.0912 -0.3968  0.0111
   79SLPC   O14 7234   5.046  -0.106   7.189  0.4402 -0.0379  0.1106
   79SLPC   O12 7235   5.078   0.108   7.056 -0.1978  0.0299  0.3860
   79SLPC   O11 7236   5.097  -0.119   6.949 -0.0455  0.1678  0.4824
   79SLPC    C1 7237   5.170  -0.237   6.912  0.6042 -0.0423  0.1911
   79SLPC    HA 7238   5.218  -0.290   6.997 -1.8666 -3.1810 -0.1926
   79SLPC    HB 7239   5.101  -0.305   6.858  0.1262  1.2057 -0.8375
   79SLPC    C2 7240   5.280  -0.202   6.804  0.1723  0.2392  0.1228
   79SLPC    HS 7241   5.331  -0.113   6.847  1.1046 -1.0250  1.7481
   79SLPC   O21 7242   5.219  -0.173   6.680 -0.0182  0.0252 -0.1204
   79SLPC   C21 7243   5.266  -0.072   6.615 -0.0529 -1.0743  0.6970
   79SLPC   O22 7244   5.347   0.011   6.655  0.2452 -0.2119 -0.3033
   79SLPC   C22 7245   5.210  -0.078   6.463 -0.6153 -0.1958  0.0215
   79SLPC   H2R 7246   5.229  -0.183   6.435  1.2667 -0.4224  1.8826
   79SLPC   H2S 7247   5.100  -0.060   6.463 -0.3368  2.5911  3.2942
   79SLPC    C3 7248   5.385  -0.318   6.787  0.1679 -0.1024 -0.2623
   79SLPC    HX 7249   5.317  -0.406   6.787  0.5545 -0.5249  3.0430
   79SLPC    HY 7250   5.446  -0.316   6.880 -2.6030 -2.5522  1.7957
   79SLPC   O31 7251   5.459  -0.308   6.665  0.6754  0.0749  0.3572
   79SLPC   C31 7252   5.570  -0.233   6.676 -0.0121 -0.4286  0.1305
   79SLPC   O32 7253   5.608  -0.162   6.763  0.3703 -0.4923 -0.7110
   79SLPC   C32 7254   5.645  -0.242   6.539 -0.1894  0.2676  0.2710
   79SLPC   H2X 7255   5.571  -0.202   6.466  1.5128  1.4904 -0.8500
   79SLPC   H2Y 7256   5.660  -0.351   6.521  0.6265  0.0220  2.2667
   79SLPC   C23 7257   5.280   0.011   6.364  0.0535  0.0042  0.3186
   79SLPC   H3R 7258   5.389  -0.010   6.367 -0.1555 -1.0834  1.5070
   79SLPC   H3S 7259   5.278   0.121   6.378  2.8608  0.0761  0.7525
   79SLPC   C24 7260   5.246  -0.028   6.218  0.3435  0.5353  0.0943
   79SLPC   H4R 7261   5.136  -0.030   6.203  0.0079  0.1581  2.3104
   79SLPC   H4S 7262   5.280  -0.133   6.204 -0.1035  0.6303 -2.1452
   79SLPC   C25 7263   5.311   0.070   6.123 -0.1323  0.0089 -0.7329
   79SLPC   H5R 7264   5.420   0.070   6.142 -0.1614  2.1535 -0.3225
   79SLPC   H5S 7265   5.280   0.172   6.155  1.0307 -0.0480  0.6820
   79SLPC   C26 7266   5.277   0.034   5.979  0.0577  0.3006  0.2729
   79SLPC   H6R 7267   5.170   0.003   5.977  0.2356 -0.3697 -1.4364
   79SLPC   H6S 7268   5.336  -0.056   5.949 -1.0077 -0.7530  1.2082
   79SLPC   C27 7269   5.292   0.136   5.872  1.0024 -0.4734  0.4113
   79SLPC   H7R 7270   5.399   0.161   5.860  0.2252  2.7202 -1.0898
   79SLPC   H7S 7271   5.238   0.229   5.900  1.9034  1.1723 -2.8246
   79SLPC   C28 7272   5.235   0.090   5.732  0.3256 -0.5508  0.1589
   79SLPC   H8R 7273   5.137   0.042   5.756 -0.1214  0.0216 -0.5057
   79SLPC   H8S 7274   5.296   0.006   5.692  1.2284  0.1243  0.1029
   79SLPC   C29 7275   5.214   0.201   5.639  0.4733 -0.3075  0.1578
   79SLPC   H9R 7276   5.191   0.294   5.693  1.9310  0.9414 -1.3005
   79SLPC  C210 7277   5.267   0.200   5.516 -1.1372  0.9235  0.0024
   79SLPC  H10R 7278   5.237   0.293   5.467 -2.0508  1.1215  0.9031
   79SLPC  C211 7279   5.311   0.079   5.427  0.4584  0.0329 -0.4678
   79SLPC  H11R 7280   5.314  -0.012   5.490  0.2571  1.6752  2.0520
   79SLPC  H11S 7281   5.418   0.095   5.400  0.2454  1.6826 -0.4580
   79SLPC  C212 7282   5.223   0.037   5.313 -0.0486 -0.2122 -0.1034
   79SLPC  H12R 7283   5.152  -0.046   5.327 -0.4208  0.4569  2.5690
   79SLPC  C213 7284   5.219   0.099   5.193  0.1348  0.0613  0.1032
   79SLPC  H13R 7285   5.145   0.060   5.121  0.1643  1.5184 -0.7509
   79SLPC  C214 7286   5.296   0.227   5.164 -0.0905 -0.3509  0.2363
   79SLPC  H14R 7287   5.401   0.211   5.134 -0.3339  0.0661 -0.8912
   79SLPC  H14S 7288   5.305   0.298   5.249 -0.8931 -0.3430  0.3293
   79SLPC  C215 7289   5.204   0.295   5.054 -0.6856 -0.3773 -0.1761
   79SLPC  H15R 7290   5.115   0.329   5.111  0.2827  2.4919 -0.1676
   79SLPC  H15S 7291   5.179   0.220   4.977 -1.2930 -0.9342  0.5567
   79SLPC  C216 7292   5.254   0.437   5.001 -0.0355  0.7198 -0.1913
   79SLPC  H16R 7293   5.362   0.424   4.978 -0.3098  0.9403 -1.7329
   79SLPC  H16S 7294   5.243   0.522   5.071 -1.8871  2.6751 -2.6938
   79SLPC  C217 7295   5.183   0.477   4.876 -0.5141  0.6215  0.0589
   79SLPC  H17R 7296   5.090   0.535   4.895 -0.4304  0.6294  0.4444
   79SLPC  H17S 7297   5.144   0.390   4.819 -1.8653  0.4680  1.1791
   79SLPC  C218 7298   5.273   0.542   4.768  0.0627 -0.7618 -0.5737
   79SLPC  H18R 7299   5.269   0.650   4.794 -3.1083 -0.6691 -0.9787
   79SLPC  H18S 7300   5.230   0.535   4.666  0.3765  2.2256 -1.0119
   79SLPC  H18T 7301   5.374   0.502   4.749 -0.3657 -1.2427 -2.0153
   79SLPC   C33 7302   5.777  -0.166   6.534  0.0289  0.1267 -0.9479
   79SLPC   H3X 7303   5.853  -0.224   6.591 -1.2072  0.0632  0.6907
   79SLPC   H3Y 7304   5.762  -0.064   6.573 -1.6503 -1.1586  2.1316
   79SLPC   C34 7305   5.839  -0.146   6.395 -0.1209  0.0114  0.6427
   79SLPC   H4X 7306   5.834  -0.235   6.330  1.0406  0.6327 -0.3316
   79SLPC   H4Y 7307   5.942  -0.104   6.396  0.1181 -0.4550  3.5484
   79SLPC   C35 7308   5.760  -0.044   6.314  0.4374  0.4510  0.7623
   79SLPC   H5X 7309   5.769   0.058   6.358  1.1596  0.8660 -0.2986
   79SLPC   H5Y 7310   5.653  -0.071   6.318  0.6250 -0.3177  0.8854
   79SLPC   C36 7311   5.812  -0.039   6.168 -0.4690  0.2574  0.0560
   79SLPC   H6X 7312   5.792  -0.132   6.111 -1.2824  1.2208 -1.3249
   79SLPC   H6Y 7313   5.921  -0.017   6.165 -1.0026  3.3752 -0.9515
   79SLPC   C37 7314   5.752   0.084   6.090 -0.2599  0.2106  0.5469
   79SLPC   H7X 7315   5.773   0.174   6.151 -1.3700  1.4286 -0.7703
   79SLPC   H7Y 7316   5.641   0.077   6.096 -0.2570  0.3374  0.7530
   79SLPC   C38 7317   5.809   0.100   5.945  0.1441  0.6807 -0.2237
   79SLPC   H8X 7318   5.907   0.152   5.937  0.7553 -0.6620 -2.4423
   79SLPC   H8Y 7319   5.744   0.164   5.882 -1.5785 -2.1404 -1.5115
   79SLPC   C39 7320   5.825  -0.031   5.861  0.3631  0.2047 -0.1361
   79SLPC   H9X 7321   5.733  -0.093   5.871 -0.7664  1.7136 -0.8839
   79SLPC   H9Y 7322   5.909  -0.086   5.909 -0.8348 -0.8756  0.8087
   79SLPC  C310 7323   5.846  -0.004   5.707 -0.3668  0.6870  0.5629
   79SLPC  H10X 7324   5.880  -0.094   5.651  0.1177 -0.5274  2.7000
   79SLPC  H10Y 7325   5.928   0.070   5.698  1.4177 -1.3169 -0.5061
   79SLPC  C311 7326   5.719   0.046   5.625  0.1900  0.5579  0.3579
   79SLPC  H11X 7327   5.696   0.149   5.659  0.4106  1.0824 -1.0141
   79SLPC  H11Y 7328   5.640  -0.024   5.662 -0.1112  0.2305 -0.8666
   79SLPC  C312 7329   5.745   0.049   5.475  0.9565 -0.3550  0.6959
   79SLPC  H12X 7330   5.850   0.074   5.446  0.0301  2.1387 -0.8121
   79SLPC  H12Y 7331   5.680   0.125   5.427  0.4671 -1.0054  0.3150
   79SLPC  C313 7332   5.721  -0.094   5.423 -0.5060  0.1614 -0.3757
   79SLPC  H13X 7333   5.616  -0.117   5.453 -0.8402  2.2367  0.2111
   79SLPC  H13Y 7334   5.790  -0.161   5.478 -0.3058  0.3122 -0.4449
   79SLPC  C314 7335   5.737  -0.101   5.278  0.0589 -0.7789 -0.4743
   79SLPC  H14X 7336   5.660  -0.039   5.226  1.2713  0.3085 -1.0319
   79SLPC  H14Y 7337   5.717  -0.202   5.238  0.4508 -0.2416 -2.0883
   79SLPC  C315 7338   5.867  -0.049   5.209 -0.2004  0.2925 -0.0987
   79SLPC  H15X 7339   5.951  -0.104   5.256 -0.1096  0.7913  0.3362
   79SLPC  H15Y 7340   5.874   0.057   5.243 -0.0787 -0.1142  1.2066
   79SLPC  C316 7341   5.866  -0.047   5.056 -0.4954 -0.2791 -0.5629
   79SLPC  H16X 7342   5.851  -0.152   5.023  0.7914 -0.0271 -2.0421
   79SLPC  H16Y 7343   5.968  -0.020   5.021 -0.9336  3.5217  0.6210
   79SLPC  C317 7344   5.783   0.052   4.982 -0.0958  0.2109 -0.1350
   79SLPC  H17X 7345   5.678   0.038   5.015  0.1879 -0.1482  0.6370
   79SLPC  H17Y 7346   5.792   0.035   4.872 -0.1192 -0.8630  0.0224
   79SLPC  C318 7347   5.820   0.194   4.999  0.1573 -1.2314  0.1021
   79SLPC  H18X 7348   5.929   0.201   4.975  0.5184 -0.7532  1.7584
   79SLPC  H18Y 7349   5.810   0.223   5.105 -0.5632 -2.5980  0.4252
   79SLPC  H18Z 7350   5.763   0.258   4.928  1.5043 -1.1662 -0.9601
   80SLPC     N 7351   5.251   3.095   6.844 -0.1609 -0.6651 -0.9138
   80SLPC   C13 7352   5.316   3.228   6.840  0.1384 -0.8005 -0.0150
   80SLPC  H13A 7353   5.409   3.229   6.895  0.7670 -1.8500 -1.0290
   80SLPC  H13B 7354   5.336   3.269   6.742  1.4813  3.5525  1.8120
   80SLPC  H13C 7355   5.254   3.299   6.894  0.4973 -1.5790  1.4681
   80SLPC   C14 7356   5.262   3.047   6.984  0.4882 -0.0628 -0.2364
   80SLPC  H14A 7357   5.204   3.108   7.053  0.6571 -0.0123 -0.1393
   80SLPC  H14B 7358   5.235   2.943   6.995  2.5217 -0.4796  1.4367
   80SLPC  H14C 7359   5.362   3.040   7.023 -0.1620 -2.4635  1.2241
   80SLPC   C15 7360   5.331   2.999   6.756  0.7787 -0.7143  0.1057
   80SLPC  H15A 7361   5.360   3.043   6.661  0.2060 -3.5589 -1.5053
   80SLPC  H15B 7362   5.425   2.974   6.802 -0.4510 -4.2242  0.9715
   80SLPC  H15C 7363   5.280   2.906   6.737 -0.1716 -0.0311 -0.8398
   80SLPC   C12 7364   5.105   3.109   6.808 -0.3588  0.4941  0.3128
   80SLPC  H12A 7365   5.097   3.097   6.701 -1.2166 -2.4193  0.6334
   80SLPC  H12B 7366   5.066   3.202   6.848 -1.9334 -0.2575  0.5638
   80SLPC   C11 7367   5.003   3.010   6.863  0.4545 -0.6681  0.0550
   80SLPC  H11A 7368   4.903   3.049   6.833 -0.1173 -1.9839  0.1950
   80SLPC  H11B 7369   4.999   3.009   6.974 -1.4440 -1.1103  0.0180
   80SLPC     P 7370   4.994   2.846   6.660 -0.0866 -0.1761 -0.1744
   80SLPC   O13 7371   5.103   2.749   6.623 -0.5720  0.0869  0.0917
   80SLPC   O14 7372   4.854   2.801   6.642  0.2568 -0.5612 -0.3758
   80SLPC   O12 7373   5.023   2.878   6.806 -0.3328  0.1625  0.0185
   80SLPC   O11 7374   5.017   2.980   6.584 -0.1454 -0.5044  0.4796
   80SLPC    C1 7375   4.950   3.028   6.461 -0.7209  0.5667 -0.5648
   80SLPC    HA 7376   4.854   2.976   6.436 -1.9568  2.8572 -0.8216
   80SLPC    HB 7377   4.924   3.133   6.483 -0.4256  0.0836  2.5432
   80SLPC    C2 7378   5.055   3.036   6.339 -0.9290 -0.3807  0.3378
   80SLPC    HS 7379   5.020   3.122   6.278 -3.9491 -2.7006 -1.5104
   80SLPC   O21 7380   5.058   2.913   6.258 -0.2978  0.2931 -0.6650
   80SLPC   C21 7381   4.952   2.907   6.177  0.1607 -0.2346  0.6045
   80SLPC   O22 7382   4.877   3.004   6.156 -0.2405 -0.0760  0.5021
   80SLPC   C22 7383   4.930   2.767   6.130 -0.5124  0.5364 -0.0958
   80SLPC   H2R 7384   5.019   2.739   6.069 -1.0079 -0.7883 -0.2429
   80SLPC   H2S 7385   4.925   2.705   6.223  1.7276  1.5281  0.7597
   80SLPC    C3 7386   5.207   3.057   6.383  0.7203  0.0589 -0.5145
   80SLPC    HX 7387   5.227   2.980   6.460 -1.5508 -0.6690 -0.5688
   80SLPC    HY 7388   5.205   3.159   6.427  1.1692  0.4277 -1.3349
   80SLPC   O31 7389   5.292   3.048   6.270  0.4327 -0.1811 -0.2557
   80SLPC   C31 7390   5.416   3.013   6.290  0.2558 -0.1690  0.4500
   80SLPC   O32 7391   5.463   2.968   6.394  0.1409 -0.4739 -0.4617
   80SLPC   C32 7392   5.502   3.011   6.153  0.6821  0.4922 -0.0898
   80SLPC   H2X 7393   5.560   2.917   6.158 -0.5768 -0.2925  0.0280
   80SLPC   H2Y 7394   5.574   3.094   6.166 -1.0843  1.8004  2.2091
   80SLPC   C23 7395   4.798   2.761   6.042  0.4706 -0.4630  0.1511
   80SLPC   H3R 7396   4.724   2.828   6.092  2.0779  2.7401 -1.4361
   80SLPC   H3S 7397   4.751   2.661   6.034 -1.5904  0.5552 -1.0939
   80SLPC   C24 7398   4.808   2.805   5.895 -0.6514 -0.5184  0.3524
   80SLPC   H4R 7399   4.706   2.783   5.856 -1.6790  3.7480  0.1225
   80SLPC   H4S 7400   4.883   2.733   5.856  1.3812  2.3138 -1.3483
   80SLPC   C25 7401   4.860   2.946   5.857  1.0179 -0.2369  0.1848
   80SLPC   H5R 7402   4.957   2.960   5.910  0.7537  1.2085  0.3271
   80SLPC   H5S 7403   4.799   3.027   5.904 -0.2106 -0.8683 -0.2686
   80SLPC   C26 7404   4.858   2.976   5.703 -0.7303 -0.8703 -0.0344
   80SLPC   H6R 7405   4.764   2.947   5.651 -1.0446  0.8915 -0.5212
   80SLPC   H6S 7406   4.940   2.914   5.664  0.4666 -0.9382  2.3791
   80SLPC   C27 7407   4.891   3.120   5.648  0.5116  0.1388 -0.1723
   80SLPC   H7R 7408   4.977   3.168   5.699  0.1902  0.5670 -0.0355
   80SLPC   H7S 7409   4.799   3.182   5.659  0.5538  0.4673 -1.5005
   80SLPC   C28 7410   4.916   3.138   5.497 -0.3681  0.2089  0.8507
   80SLPC   H8R 7411   4.896   3.244   5.470  0.1076  0.0457 -0.1886
   80SLPC   H8S 7412   4.837   3.093   5.433  1.8258 -1.9979 -0.4839
   80SLPC   C29 7413   5.054   3.110   5.449 -0.1588 -0.1783  0.1971
   80SLPC   H9R 7414   5.131   3.117   5.527 -0.8264  0.4414  0.8227
   80SLPC  C210 7415   5.088   3.074   5.328 -0.3108 -0.1261  0.7393
   80SLPC  H10R 7416   5.196   3.071   5.308 -0.2071 -2.2095  1.3529
   80SLPC  C211 7417   5.001   3.095   5.206  0.1383 -0.1536  0.5222
   80SLPC  H11R 7418   4.913   3.028   5.216 -0.2043  0.2205  0.0321
   80SLPC  H11S 7419   5.064   3.073   5.117  0.5475  0.5179  0.6462
   80SLPC  C212 7420   4.941   3.237   5.180 -0.3094  0.2056  0.1254
   80SLPC  H12R 7421   4.951   3.308   5.263 -2.0716  1.7710 -0.9276
   80SLPC  C213 7422   4.880   3.267   5.063 -0.1133 -0.0410 -0.0477
   80SLPC  H13R 7423   4.855   3.372   5.040 -1.4428 -0.1803  0.6432
   80SLPC  C214 7424   4.849   3.181   4.944 -0.8095  0.8330 -0.0481
   80SLPC  H14R 7425   4.738   3.177   4.942 -0.8077 -0.5906  1.1870
   80SLPC  H14S 7426   4.896   3.081   4.957 -0.8982  0.9894  1.8501
   80SLPC  C215 7427   4.922   3.224   4.811  0.2453  0.6407 -0.3056
   80SLPC  H15R 7428   4.906   3.330   4.779  0.7812  0.5872 -0.7751
   80SLPC  H15S 7429   4.886   3.162   4.726  0.0639 -0.2770  0.4315
   80SLPC  C216 7430   5.073   3.196   4.809  0.3590 -0.2468  0.0051
   80SLPC  H16R 7431   5.094   3.092   4.843 -1.2793 -1.1615 -1.5896
   80SLPC  H16S 7432   5.116   3.266   4.884  0.1798 -0.6727  0.5087
   80SLPC  C217 7433   5.145   3.226   4.680  1.0377  0.4150 -0.1254
   80SLPC  H17R 7434   5.253   3.213   4.701  0.9411  1.3878  1.0733
   80SLPC  H17S 7435   5.120   3.327   4.640  1.5983 -0.1806 -2.1165
   80SLPC  C218 7436   5.101   3.124   4.577  0.0054  0.1619 -0.2799
   80SLPC  H18R 7437   5.148   3.144   4.478  2.3231 -0.0691  0.7162
   80SLPC  H18S 7438   4.991   3.124   4.561  0.0075 -0.2838 -0.2924
   80SLPC  H18T 7439   5.130   3.025   4.618 -0.4977 -0.3481 -1.1095
   80SLPC   C33 7440   5.422   3.015   6.019 -0.1714 -0.5137  0.4282
   80SLPC   H3X 7441   5.498   3.032   5.940 -0.1288  2.1271  0.9714
   80SLPC   H3Y 7442   5.349   3.099   6.016  2.7949  2.3729  2.6002
   80SLPC   C34 7443   5.322   2.897   6.001 -0.0147 -0.1113 -0.4952
   80SLPC   H4X 7444   5.263   2.872   6.091 -2.7768 -2.3254 -2.7458
   80SLPC   H4Y 7445   5.380   2.806   5.975  1.7709  0.6316  0.6715
   80SLPC   C35 7446   5.218   2.916   5.886  0.5202  0.1612  0.2883
   80SLPC   H5X 7447   5.154   3.005   5.904 -0.1741 -0.1274 -0.6421
   80SLPC   H5Y 7448   5.153   2.827   5.897  0.4528 -0.0303 -1.4376
   80SLPC   C36 7449   5.263   2.924   5.740  0.5691 -0.0983 -0.1694
   80SLPC   H6X 7450   5.312   3.023   5.729  0.4455 -0.0258 -0.0706
   80SLPC   H6Y 7451   5.172   2.924   5.676 -1.0815 -0.3978  2.0462
   80SLPC   C37 7452   5.360   2.816   5.701 -0.6910  0.3590 -0.4384
   80SLPC   H7X 7453   5.323   2.718   5.739  0.8773  0.1410  0.5930
   80SLPC   H7Y 7454   5.455   2.838   5.753 -0.8027  1.4457 -0.6686
   80SLPC   C38 7455   5.391   2.805   5.552 -0.8791  0.1223  0.2656
   80SLPC   H8X 7456   5.482   2.745   5.569 -1.1132 -0.1647  0.5092
   80SLPC   H8Y 7457   5.425   2.901   5.507 -0.9379 -0.1392 -0.3552
   80SLPC   C39 7458   5.284   2.737   5.470 -0.5381  0.7335 -0.1410
   80SLPC   H9X 7459   5.190   2.795   5.474 -1.0382  0.0516 -1.4670
   80SLPC   H9Y 7460   5.265   2.633   5.505  1.3499  0.1653 -0.6558
   80SLPC  C310 7461   5.319   2.726   5.320 -0.1594 -0.4519 -0.5886
   80SLPC  H10X 7462   5.423   2.691   5.301  0.2860 -1.6765  3.1904
   80SLPC  H10Y 7463   5.314   2.828   5.277  2.1657 -0.7579 -1.7646
   80SLPC  C311 7464   5.235   2.632   5.237 -0.7027 -0.0617 -0.5323
   80SLPC  H11X 7465   5.132   2.625   5.278  0.5665 -0.5896  2.9842
   80SLPC  H11Y 7466   5.278   2.531   5.250 -0.3128  0.3367  1.7813
   80SLPC  C312 7467   5.231   2.675   5.088 -0.4772  0.3634  0.1188
   80SLPC  H12X 7468   5.172   2.769   5.079 -1.1095  0.1249  1.5412
   80SLPC  H12Y 7469   5.171   2.600   5.033 -1.2774  0.8265  0.3431
   80SLPC  C313 7470   5.373   2.679   5.027 -0.0639  0.1687 -0.0849
   80SLPC  H13X 7471   5.435   2.590   5.048 -0.7582 -0.3955 -0.4108
   80SLPC  H13Y 7472   5.423   2.769   5.070  1.1533 -0.0164 -1.0640
   80SLPC  C314 7473   5.376   2.707   4.869  0.3781  0.3017 -0.2862
   80SLPC  H14X 7474   5.313   2.798   4.861  0.5104  1.0294  4.1469
   80SLPC  H14Y 7475   5.321   2.618   4.831  0.5362 -0.3767  1.0134
   80SLPC  C315 7476   5.515   2.709   4.798  0.1454 -0.7622 -0.0792
   80SLPC  H15X 7477   5.568   2.785   4.859 -2.1634  0.5239  0.4833
   80SLPC  H15Y 7478   5.508   2.733   4.690  3.0475 -1.3418 -0.4583
   80SLPC  C316 7479   5.603   2.579   4.808  0.5770  0.0734  0.1405
   80SLPC  H16X 7480   5.543   2.496   4.764  1.2813 -1.1483  1.3728
   80SLPC  H16Y 7481   5.627   2.559   4.915  2.7206  0.4352 -0.2353
   80SLPC  C317 7482   5.741   2.588   4.752 -0.1790  0.5510 -0.0472
   80SLPC  H17X 7483   5.729   2.611   4.644  2.4029  1.9665 -0.1070
   80SLPC  H17Y 7484   5.797   2.494   4.771  0.5704  0.6394 -1.6215
   80SLPC  C318 7485   5.821   2.707   4.800  0.3794  0.3675  0.2454
   80SLPC  H18X 7486   5.927   2.684   4.774  0.5851 -0.9300  2.0342
   80SLPC  H18Y 7487   5.814   2.722   4.910 -0.1927 -0.3759  0.3248
   80SLPC  H18Z 7488   5.792   2.803   4.753 -0.6535  0.9520  1.9811
   81SLPC     N 7489   5.817   6.687   2.002 -0.8424  0.5010 -1.1004
   81SLPC   C13 7490   5.844   6.552   2.080 -0.3680 -0.1504 -0.7532
   81SLPC  H13A 7491   5.796   6.468   2.031 -0.4892 -1.3555  1.3130
   81SLPC  H13B 7492   5.949   6.528   2.069 -0.5423 -0.6168 -1.4499
   81SLPC  H13C 7493   5.816   6.565   2.183  1.4133 -0.1637 -0.2383
   81SLPC   C14 7494   5.677   6.725   2.017  0.0300 -0.2314  0.4113
   81SLPC  H14A 7495   5.633   6.778   1.933  0.8348  0.8555  0.6489
   81SLPC  H14B 7496   5.619   6.634   2.014 -0.4139  0.0576 -0.5837
   81SLPC  H14C 7497   5.664   6.782   2.108 -2.6214  2.4274 -1.4233
   81SLPC   C15 7498   5.830   6.651   1.852 -0.1263  0.3152 -0.0158
   81SLPC  H15A 7499   5.932   6.619   1.837  0.3974  0.8266  2.0723
   81SLPC  H15B 7500   5.763   6.569   1.833 -1.3218  1.1843  0.3081
   81SLPC  H15C 7501   5.815   6.735   1.786 -0.5990 -0.5791 -1.0657
   81SLPC   C12 7502   5.909   6.797   2.041  0.6639  0.2442 -0.2947
   81SLPC  H12A 7503   5.887   6.878   1.972  2.0992 -1.5470 -3.0586
   81SLPC  H12B 7504   6.010   6.763   2.024  0.2063 -1.0316 -0.5774
   81SLPC   C11 7505   5.897   6.830   2.191  0.4712 -0.2161 -0.0121
   81SLPC  H11A 7506   5.990   6.888   2.210 -1.7656  2.7173  3.1271
   81SLPC  H11B 7507   5.907   6.749   2.266  0.2965  0.8837  1.2363
   81SLPC     P 7508   5.785   7.062   2.178  0.1239  0.1549  0.5142
   81SLPC   O13 7509   5.917   7.079   2.109  0.3793  0.4265 -0.2758
   81SLPC   O14 7510   5.668   7.096   2.094 -0.4863  0.3259  0.5129
   81SLPC   O12 7511   5.773   6.908   2.209  0.4243 -0.3329 -0.7452
   81SLPC   O11 7512   5.778   7.134   2.316  0.2960 -0.0772 -0.1095
   81SLPC    C1 7513   5.892   7.205   2.366 -0.6945 -0.0010 -0.1207
   81SLPC    HA 7514   5.969   7.217   2.287 -0.5706 -1.1345 -0.1930
   81SLPC    HB 7515   5.863   7.308   2.393 -0.5847 -0.1785  0.7106
   81SLPC    C2 7516   5.947   7.136   2.491 -0.0415  0.7354  0.2325
   81SLPC    HS 7517   6.022   7.206   2.534  1.9015 -0.6834 -0.6915
   81SLPC   O21 7518   6.019   7.011   2.456  0.2627 -0.3340  0.2411
   81SLPC   C21 7519   6.135   7.029   2.406 -0.3751  0.4438  0.2475
   81SLPC   O22 7520   6.183   7.135   2.370  0.3778  0.2276  0.4484
   81SLPC   C22 7521   6.207   6.890   2.392 -0.3721 -0.3545  0.2440
   81SLPC   H2R 7522   6.136   6.816   2.350 -1.7784  0.1936  1.5599
   81SLPC   H2S 7523   6.292   6.900   2.321  0.4439 -0.4929  1.1773
   81SLPC    C3 7524   5.835   7.116   2.605  0.6045  0.0603  0.4617
   81SLPC    HX 7525   5.765   7.031   2.592 -1.7135  1.0732  4.5528
   81SLPC    HY 7526   5.781   7.213   2.597  0.4247  0.0325  1.2697
   81SLPC   O31 7527   5.906   7.102   2.732  0.1875  0.6126 -0.1216
   81SLPC   C31 7528   5.944   6.977   2.770 -0.4546  0.5046  0.7305
   81SLPC   O32 7529   5.933   6.878   2.702 -0.1603  0.2352 -0.1989
   81SLPC   C32 7530   6.013   6.974   2.908  0.1721 -0.0768 -0.2698
   81SLPC   H2X 7531   5.925   6.972   2.975  1.4440 -0.5448  1.4647
   81SLPC   H2Y 7532   6.068   7.069   2.928 -0.3055 -0.3937  3.0387
   81SLPC   C23 7533   6.252   6.841   2.537 -0.8621 -0.1198 -0.3764
   81SLPC   H3R 7534   6.288   6.737   2.527 -1.5635 -0.2653 -1.5938
   81SLPC   H3S 7535   6.158   6.855   2.594 -0.4301  0.3158  0.2471
   81SLPC   C24 7536   6.363   6.938   2.593  0.8498 -0.0165 -0.0036
   81SLPC   H4R 7537   6.376   6.923   2.702  0.0421  0.7232  0.2026
   81SLPC   H4S 7538   6.326   7.041   2.580 -0.2917 -0.3548  0.4970
   81SLPC   C25 7539   6.500   6.907   2.526  0.4569 -0.3141  0.0867
   81SLPC   H5R 7540   6.512   6.964   2.432  1.5704 -1.8329 -0.7519
   81SLPC   H5S 7541   6.504   6.798   2.504  0.5997 -0.3283  0.1841
   81SLPC   C26 7542   6.618   6.944   2.621  0.2127  0.0831  0.1369
   81SLPC   H6R 7543   6.709   6.918   2.564 -0.2226 -1.3402  0.0690
   81SLPC   H6S 7544   6.620   6.884   2.714  0.4229  1.7403  1.2410
   81SLPC   C27 7545   6.610   7.099   2.671 -0.0908  0.1744  0.5143
   81SLPC   H7R 7546   6.518   7.088   2.732 -0.3778  0.4223  0.1291
   81SLPC   H7S 7547   6.608   7.159   2.578  2.4955 -1.4547 -0.7194
   81SLPC   C28 7548   6.730   7.141   2.752 -0.4614 -0.2504  0.1333
   81SLPC   H8R 7549   6.810   7.180   2.685  0.5769  0.1821  1.5690
   81SLPC   H8S 7550   6.779   7.052   2.798  1.7288 -0.0653 -1.6498
   81SLPC   C29 7551   6.700   7.239   2.862 -0.6476 -0.2811  0.0732
   81SLPC   H9R 7552   6.715   7.344   2.832 -0.4243 -0.7488 -1.5463
   81SLPC  C210 7553   6.671   7.219   2.991 -0.1709  0.2402 -0.2746
   81SLPC  H10R 7554   6.657   7.312   3.048  2.1265  0.7211 -0.3952
   81SLPC  C211 7555   6.640   7.085   3.060  0.1094  0.5256 -0.2973
   81SLPC  H11R 7556   6.679   7.080   3.164 -1.2187  0.5201  0.2172
   81SLPC  H11S 7557   6.702   7.015   2.999  2.3844  2.4623 -0.3730
   81SLPC  C212 7558   6.494   7.057   3.055 -0.0981 -0.1490  0.6475
   81SLPC  H12R 7559   6.452   7.083   2.956 -1.5432  2.0376  1.7565
   81SLPC  C213 7560   6.409   7.023   3.158 -0.5522  0.3501 -0.0466
   81SLPC  H13R 7561   6.307   6.987   3.139 -1.0339  1.0934  0.9984
   81SLPC  C214 7562   6.441   6.987   3.301  0.5802  0.0958 -0.5064
   81SLPC  H14R 7563   6.549   6.993   3.324  0.4591 -0.9261  0.4411
   81SLPC  H14S 7564   6.416   6.881   3.321  2.8133 -0.3588  0.0659
   81SLPC  C215 7565   6.374   7.083   3.401  0.3596  0.6735 -0.2425
   81SLPC  H15R 7566   6.264   7.085   3.386  0.3225  1.7922  0.1032
   81SLPC  H15S 7567   6.409   7.186   3.380  0.3260  0.5551 -0.9013
   81SLPC  C216 7568   6.395   7.053   3.560 -0.2907 -0.6743  0.1200
   81SLPC  H16R 7569   6.397   7.151   3.613 -0.4989  0.1905 -1.4091
   81SLPC  H16S 7570   6.494   7.008   3.583  0.2908  0.6227  0.2993
   81SLPC  C217 7571   6.284   6.969   3.616  0.2468 -0.4091 -0.3723
   81SLPC  H17R 7572   6.276   6.875   3.557  0.7195 -1.0332  0.5406
   81SLPC  H17S 7573   6.197   7.037   3.605  1.1385  1.2044  1.7679
   81SLPC  C218 7574   6.304   6.940   3.769  0.7402  0.0783  0.4129
   81SLPC  H18R 7575   6.228   6.863   3.796 -0.0725  0.1334 -1.5078
   81SLPC  H18S 7576   6.272   7.028   3.828 -0.9138  0.3304 -0.7807
   81SLPC  H18T 7577   6.411   6.916   3.785  1.1839  1.1884 -0.6652
   81SLPC   C33 7578   6.117   6.855   2.933  0.6687 -0.1313 -0.5413
   81SLPC   H3X 7579   6.213   6.875   2.985  0.3608  0.9262 -0.3494
   81SLPC   H3Y 7580   6.139   6.818   2.831 -0.1981  2.0563 -1.5709
   81SLPC   C34 7581   6.047   6.732   3.000  0.0442 -0.3285 -0.0647
   81SLPC   H4X 7582   6.102   6.639   2.974  2.5656  0.8270  0.8888
   81SLPC   H4Y 7583   5.942   6.719   2.964  0.1277 -1.2122 -0.0011
   81SLPC   C35 7584   6.056   6.743   3.158  0.6977  0.8988 -0.4253
   81SLPC   H5X 7585   6.153   6.703   3.195  0.0613 -0.4608 -0.1718
   81SLPC   H5Y 7586   5.984   6.670   3.200  2.0573  0.7266  1.7592
   81SLPC   C36 7587   6.026   6.876   3.228  0.1414  0.1403 -0.2009
   81SLPC   H6X 7588   5.923   6.909   3.201  0.7038  2.1439 -0.0491
   81SLPC   H6Y 7589   6.094   6.955   3.191  1.6289 -0.9326  0.1629
   81SLPC   C37 7590   6.036   6.864   3.382 -0.1642  0.9289  0.4582
   81SLPC   H7X 7591   6.062   6.960   3.431 -1.1833  1.2476  0.3982
   81SLPC   H7Y 7592   6.112   6.787   3.408  0.7175  2.2003  1.7669
   81SLPC   C38 7593   5.907   6.806   3.440  0.0939 -0.2959  0.1834
   81SLPC   H8X 7594   5.864   6.765   3.346 -0.2684  1.2733 -0.3503
   81SLPC   H8Y 7595   5.842   6.890   3.474  0.7358 -0.2411  1.3433
   81SLPC   C39 7596   5.924   6.693   3.548  0.0526 -0.6657 -0.3385
   81SLPC   H9X 7597   5.983   6.610   3.503  0.1115  0.3990 -2.3434
   81SLPC   H9Y 7598   5.830   6.645   3.582  0.7162 -2.4347 -0.9247
   81SLPC  C310 7599   6.000   6.750   3.668 -0.4323  0.2327 -0.0794
   81SLPC  H10X 7600   5.950   6.843   3.700 -1.2516 -0.3598  0.3976
   81SLPC  H10Y 7601   6.109   6.759   3.646 -0.8382 -0.1826 -2.5366
   81SLPC  C311 7602   5.976   6.657   3.784  0.2934  0.6908 -0.5494
   81SLPC  H11X 7603   5.993   6.551   3.754  2.4235  0.9296 -0.3153
   81SLPC  H11Y 7604   5.867   6.671   3.802  0.8495  4.0066  0.9403
   81SLPC  C312 7605   6.059   6.686   3.910  0.1958 -0.4681 -0.1283
   81SLPC  H12X 7606   6.165   6.662   3.886 -0.1338 -0.6942 -1.3864
   81SLPC  H12Y 7607   6.022   6.611   3.982 -3.5629 -0.0493 -1.4315
   81SLPC  C313 7608   6.035   6.831   3.970 -0.1962  0.5049 -0.5469
   81SLPC  H13X 7609   5.930   6.819   4.006 -0.9505  0.9757 -2.4547
   81SLPC  H13Y 7610   6.049   6.910   3.893 -0.7015 -0.0520 -1.2329
   81SLPC  C314 7611   6.120   6.861   4.096 -0.2300 -0.5966 -0.7641
   81SLPC  H14X 7612   6.084   6.953   4.147  0.9586 -1.5688  2.0251
   81SLPC  H14Y 7613   6.220   6.890   4.059 -0.5093 -1.2598 -2.0809
   81SLPC  C315 7614   6.120   6.747   4.202  0.7246 -0.8550  0.5296
   81SLPC  H15X 7615   6.152   6.658   4.144 -0.7691  0.2724 -2.2156
   81SLPC  H15Y 7616   6.015   6.729   4.235  0.0051 -0.7184 -1.5363
   81SLPC  C316 7617   6.213   6.765   4.321  0.3064 -0.0396 -0.2087
   81SLPC  H16X 7618   6.172   6.835   4.397 -1.0612 -0.8540 -0.1545
   81SLPC  H16Y 7619   6.310   6.792   4.274  0.0334  1.3838 -0.0067
   81SLPC  C317 7620   6.242   6.628   4.394 -0.1629 -0.4175  0.4886
   81SLPC  H17X 7621   6.299   6.643   4.488  2.7229  2.4951 -1.4963
   81SLPC  H17Y 7622   6.315   6.579   4.327 -0.7255  1.3887 -1.5843
   81SLPC  C318 7623   6.113   6.552   4.418 -0.5588 -0.4899  0.5045
   81SLPC  H18X 7624   6.130   6.459   4.477  2.2225 -1.4678 -1.6071
   81SLPC  H18Y 7625   6.058   6.527   4.326 -1.2543 -2.7317  1.4674
   81SLPC  H18Z 7626   6.052   6.619   4.483  2.8053  0.7665  2.6923
   82SLPC     N 7627   2.943   5.721   2.196  0.7829 -0.6914  0.7481
   82SLPC   C13 7628   2.941   5.829   2.298  0.0588  0.1148 -0.2870
   82SLPC  H13A 7629   2.845   5.852   2.340 -0.0560 -1.5685  0.4256
   82SLPC  H13B 7630   3.019   5.810   2.371  1.9298 -0.6874 -2.3755
   82SLPC  H13C 7631   2.976   5.922   2.255 -1.8475  0.5542 -0.9927
   82SLPC   C14 7632   2.898   5.778   2.063  0.8265  0.0424 -0.0164
   82SLPC  H14A 7633   2.794   5.808   2.073  1.2065  1.2291  0.6045
   82SLPC  H14B 7634   2.962   5.861   2.036  0.0405  0.8122  0.4181
   82SLPC  H14C 7635   2.906   5.706   1.984 -1.0618  0.9794 -1.1447
   82SLPC   C15 7636   2.843   5.618   2.242 -0.1547  0.1616  0.3872
   82SLPC  H15A 7637   2.744   5.656   2.262 -1.0860 -2.5235  1.3671
   82SLPC  H15B 7638   2.835   5.537   2.171  0.2277 -0.4517  1.0289
   82SLPC  H15C 7639   2.871   5.574   2.337 -1.5452 -1.0917  0.2608
   82SLPC   C12 7640   3.085   5.670   2.185  0.5183  0.5112 -0.7931
   82SLPC  H12A 7641   3.095   5.585   2.118  0.7487 -0.6259  0.6340
   82SLPC  H12B 7642   3.110   5.629   2.282  0.1950 -0.3000 -1.0388
   82SLPC   C11 7643   3.197   5.767   2.147  0.5156 -0.3700  0.4948
   82SLPC  H11A 7644   3.178   5.825   2.054 -1.3483 -0.2510  0.9113
   82SLPC  H11B 7645   3.293   5.714   2.128 -0.5280 -1.4231 -2.3950
   82SLPC     P 7646   3.244   6.011   2.234 -0.0234 -0.4545  0.0452
   82SLPC   O13 7647   3.377   6.026   2.171  0.4019 -0.3724  0.1461
   82SLPC   O14 7648   3.132   6.074   2.163 -0.5332 -0.0363  0.4714
   82SLPC   O12 7649   3.214   5.857   2.257  0.0724 -0.2535  0.6617
   82SLPC   O11 7650   3.251   6.061   2.389 -0.1303 -0.0211  0.2613
   82SLPC    C1 7651   3.282   5.971   2.492 -0.2269  0.5764 -1.0425
   82SLPC    HA 7652   3.218   5.880   2.488 -0.0441  0.3784  0.2245
   82SLPC    HB 7653   3.390   5.945   2.487 -0.1297  0.5885  0.6341
   82SLPC    C2 7654   3.245   6.047   2.627 -0.7259 -0.8680 -0.0061
   82SLPC    HS 7655   3.328   6.121   2.631 -1.0827 -0.4759  0.2026
   82SLPC   O21 7656   3.232   5.952   2.734  0.6939  0.5719 -0.5436
   82SLPC   C21 7657   3.345   5.899   2.774  0.3740  0.8298  0.2644
   82SLPC   O22 7658   3.458   5.922   2.733 -0.4414 -0.4721  0.3656
   82SLPC   C22 7659   3.313   5.805   2.886  0.1525 -0.3125 -0.4138
   82SLPC   H2R 7660   3.256   5.720   2.843  0.0237 -0.1645 -0.5334
   82SLPC   H2S 7661   3.408   5.764   2.926  1.7560 -0.6127 -4.0973
   82SLPC    C3 7662   3.116   6.124   2.608  0.2614  0.3545  0.3218
   82SLPC    HX 7663   3.031   6.053   2.600  0.3355 -0.0512  2.4392
   82SLPC    HY 7664   3.118   6.178   2.512 -3.3679 -3.1408 -2.0332
   82SLPC   O31 7665   3.109   6.210   2.720  0.6564  0.0006  0.0845
   82SLPC   C31 7666   3.004   6.193   2.798  0.3138  0.8766  0.0517
   82SLPC   O32 7667   2.911   6.122   2.773 -0.4576  0.6352 -0.3580
   82SLPC   C32 7668   3.018   6.295   2.917  0.6932 -0.4847  0.1810
   82SLPC   H2X 7669   2.962   6.383   2.878  2.7906  0.4533 -0.8257
   82SLPC   H2Y 7670   3.124   6.325   2.915  0.8757 -1.1044  0.3269
   82SLPC   C23 7671   3.226   5.872   2.993  1.2622  0.1640  0.2015
   82SLPC   H3R 7672   3.176   5.796   3.056 -0.6980  2.2549  1.3504
   82SLPC   H3S 7673   3.135   5.928   2.961  0.1584 -2.5522 -1.7360
   82SLPC   C24 7674   3.306   5.969   3.073 -0.3319 -0.7410 -0.4192
   82SLPC   H4R 7675   3.300   6.071   3.029 -0.0818 -0.5712 -0.0677
   82SLPC   H4S 7676   3.414   5.945   3.082  0.5736  2.4928 -1.3173
   82SLPC   C25 7677   3.268   5.988   3.221 -0.6067  0.3304  0.3227
   82SLPC   H5R 7678   3.160   6.012   3.237 -0.3584  0.6082  1.7103
   82SLPC   H5S 7679   3.330   6.063   3.274 -1.7791  0.1425  2.0537
   82SLPC   C26 7680   3.279   5.848   3.303 -0.1425 -0.2103 -0.2375
   82SLPC   H6R 7681   3.362   5.789   3.260  1.3760  1.5640  0.1216
   82SLPC   H6S 7682   3.178   5.806   3.284 -0.1498 -0.0382 -0.5897
   82SLPC   C27 7683   3.296   5.870   3.449  0.1224 -0.0791 -0.3957
   82SLPC   H7R 7684   3.209   5.923   3.493 -0.5165 -0.0076 -1.6979
   82SLPC   H7S 7685   3.385   5.932   3.473  0.2399 -0.5796  0.5356
   82SLPC   C28 7686   3.315   5.738   3.534  0.3807 -1.0246  0.1435
   82SLPC   H8R 7687   3.351   5.765   3.636 -0.4114  1.2392 -0.1247
   82SLPC   H8S 7688   3.398   5.680   3.487  0.4555  0.4061 -1.5876
   82SLPC   C29 7689   3.187   5.653   3.547  0.3034  0.4340 -0.4131
   82SLPC   H9R 7690   3.175   5.584   3.462 -1.5973  1.5659 -1.1375
   82SLPC  C210 7691   3.096   5.656   3.646  0.3117 -0.3436 -0.5469
   82SLPC  H10R 7692   3.007   5.591   3.648  0.2816 -0.3434 -1.3660
   82SLPC  C211 7693   3.095   5.748   3.766  0.1595 -0.1311  0.3664
   82SLPC  H11R 7694   2.991   5.788   3.767  0.0811 -0.2072 -1.4430
   82SLPC  H11S 7695   3.163   5.834   3.750  0.2516 -0.3497 -0.4364
   82SLPC  C212 7696   3.115   5.701   3.906 -0.4344  0.1622 -0.6533
   82SLPC  H12R 7697   3.054   5.613   3.934 -0.4462  0.8768  1.8216
   82SLPC  C213 7698   3.197   5.757   3.997  0.2015  0.2961  0.8933
   82SLPC  H13R 7699   3.198   5.714   4.098  0.0484 -1.1390  0.3041
   82SLPC  C214 7700   3.292   5.875   3.988 -0.1419 -0.3001 -0.6303
   82SLPC  H14R 7701   3.241   5.966   4.026 -0.0425 -0.8129  0.7666
   82SLPC  H14S 7702   3.325   5.895   3.884  1.2731  2.0141  0.1843
   82SLPC  C215 7703   3.414   5.867   4.073  0.1139 -0.1389 -0.3709
   82SLPC  H15R 7704   3.468   5.963   4.067  1.1666 -0.7116 -0.3026
   82SLPC  H15S 7705   3.485   5.787   4.043 -0.7345 -0.1911 -2.4153
   82SLPC  C216 7706   3.381   5.868   4.226 -0.2229 -0.1449 -0.0994
   82SLPC  H16R 7707   3.321   5.777   4.248 -3.0094  1.6783  0.4036
   82SLPC  H16S 7708   3.328   5.961   4.254 -1.6049 -1.1232  0.6826
   82SLPC  C217 7709   3.510   5.863   4.312 -0.4247  0.6211 -0.0845
   82SLPC  H17R 7710   3.570   5.955   4.297  1.2936 -0.4515  0.0429
   82SLPC  H17S 7711   3.567   5.771   4.287  1.5165  2.2764 -2.0840
   82SLPC  C218 7712   3.474   5.850   4.452  0.0427  0.2498  0.0925
   82SLPC  H18R 7713   3.397   5.769   4.451  0.7993 -0.4841 -0.8470
   82SLPC  H18S 7714   3.434   5.950   4.479  2.2373  1.2376 -0.1122
   82SLPC  H18T 7715   3.561   5.823   4.514  0.2146  2.7743  1.0672
   82SLPC   C33 7716   2.956   6.254   3.054 -0.5435 -0.0691  0.7786
   82SLPC   H3X 7717   2.995   6.154   3.082 -0.9747 -0.3171  0.5110
   82SLPC   H3Y 7718   2.846   6.258   3.041 -0.4333  1.1340  0.0199
   82SLPC   C34 7719   2.992   6.349   3.170 -0.5406  1.5518 -0.3680
   82SLPC   H4X 7720   2.931   6.315   3.257  1.2993 -1.4353 -0.0843
   82SLPC   H4Y 7721   2.967   6.456   3.156 -0.4384  1.6546  0.2076
   82SLPC   C35 7722   3.138   6.359   3.194 -0.3048  0.1681  0.1924
   82SLPC   H5X 7723   3.190   6.427   3.123  2.6683 -1.3077  0.8239
   82SLPC   H5Y 7724   3.178   6.257   3.173 -2.0684 -0.5073 -0.0859
   82SLPC   C36 7725   3.165   6.407   3.338  0.0638  0.8032 -0.5849
   82SLPC   H6X 7726   3.095   6.350   3.403  0.5673  0.1905 -0.5608
   82SLPC   H6Y 7727   3.133   6.513   3.347 -1.0790  0.3823  0.6932
   82SLPC   C37 7728   3.313   6.386   3.384  0.3472  0.9353 -1.1145
   82SLPC   H7X 7729   3.377   6.430   3.306  0.7819 -1.0551 -1.9347
   82SLPC   H7Y 7730   3.335   6.278   3.381  1.5794  1.0201  1.7134
   82SLPC   C38 7731   3.348   6.436   3.528  0.0603 -0.6718  0.6613
   82SLPC   H8X 7732   3.309   6.540   3.526 -1.4227 -1.2116 -1.0349
   82SLPC   H8Y 7733   3.456   6.413   3.542  0.4594  1.0625  0.6582
   82SLPC   C39 7734   3.272   6.357   3.630 -0.1971  0.0751  0.3886
   82SLPC   H9X 7735   3.260   6.250   3.604 -1.1917  0.3606 -0.3905
   82SLPC   H9Y 7736   3.174   6.409   3.632  0.5091  1.4619  0.3190
   82SLPC  C310 7737   3.336   6.361   3.772 -0.2720  0.2726 -0.2185
   82SLPC  H10X 7738   3.346   6.469   3.792  0.5184  0.2288 -0.3407
   82SLPC  H10Y 7739   3.431   6.303   3.768 -0.6187 -0.2659 -0.8110
   82SLPC  C311 7740   3.252   6.294   3.882  1.2412 -0.0489 -0.3389
   82SLPC  H11X 7741   3.207   6.195   3.857 -2.0612  1.4371 -0.9178
   82SLPC  H11Y 7742   3.166   6.365   3.889  0.9232 -0.5941  2.3550
   82SLPC  C312 7743   3.330   6.304   4.012  0.5163  0.3258  0.6554
   82SLPC  H12X 7744   3.373   6.406   4.018  0.5627  0.2528  1.5970
   82SLPC  H12Y 7745   3.414   6.233   4.002  2.0071  1.5393  3.6571
   82SLPC  C313 7746   3.246   6.272   4.140  0.0924  0.3307  0.0283
   82SLPC  H13X 7747   3.228   6.162   4.144 -0.1487  0.4083  1.4482
   82SLPC  H13Y 7748   3.141   6.309   4.138 -0.6997 -1.7334 -2.0552
   82SLPC  C314 7749   3.317   6.306   4.275 -0.3301 -0.7930 -0.7367
   82SLPC  H14X 7750   3.328   6.416   4.276  0.6519 -0.8093  2.4436
   82SLPC  H14Y 7751   3.416   6.255   4.275 -0.2870 -0.7506  0.6689
   82SLPC  C315 7752   3.241   6.262   4.396  0.0623 -0.0287  0.0168
   82SLPC  H15X 7753   3.242   6.151   4.402 -0.6143 -0.2161 -2.4094
   82SLPC  H15Y 7754   3.134   6.290   4.385 -0.1131 -0.7280 -0.0801
   82SLPC  C316 7755   3.310   6.331   4.515 -0.2688  0.2002  0.4828
   82SLPC  H16X 7756   3.316   6.441   4.500  1.7596  0.1156  0.4194
   82SLPC  H16Y 7757   3.418   6.309   4.506 -0.4930 -0.6818 -0.2026
   82SLPC  C317 7758   3.277   6.296   4.655  1.6515  0.4981 -0.5280
   82SLPC  H17X 7759   3.294   6.187   4.664 -0.2596 -0.2768 -4.3206
   82SLPC  H17Y 7760   3.167   6.314   4.658  1.1278 -2.2791 -0.2137
   82SLPC  C318 7761   3.343   6.372   4.765 -1.3157  0.2442  0.0702
   82SLPC  H18X 7762   3.308   6.374   4.870  0.9629  1.8903  0.8679
   82SLPC  H18Y 7763   3.363   6.477   4.736  1.1781 -0.1435  0.1992
   82SLPC  H18Z 7764   3.448   6.337   4.775 -1.2832  0.4052  0.2973
   83SLPC     N 7765   3.872   0.653   2.067  0.2458 -0.0218  1.0306
   83SLPC   C13 7766   3.830   0.772   1.988  0.2472 -0.1422 -0.1110
   83SLPC  H13A 7767   3.885   0.779   1.896  1.9585 -0.5344  0.8435
   83SLPC  H13B 7768   3.722   0.775   1.985  0.1974 -1.0259  0.3862
   83SLPC  H13C 7769   3.858   0.861   2.043  0.4581 -1.2432  1.6509
   83SLPC   C14 7770   3.847   0.535   1.983  0.3562  0.1968 -0.3805
   83SLPC  H14A 7771   3.862   0.449   2.046 -0.3534  0.0766 -0.3661
   83SLPC  H14B 7772   3.749   0.533   1.939  1.0725 -1.0267 -2.0376
   83SLPC  H14C 7773   3.910   0.534   1.895  1.5974 -1.0610  0.4813
   83SLPC   C15 7774   3.787   0.666   2.187  0.4308  0.0313  0.1723
   83SLPC  H15A 7775   3.684   0.652   2.158  0.1536  1.1851  0.5727
   83SLPC  H15B 7776   3.822   0.586   2.251 -0.5800  0.7099  1.6150
   83SLPC  H15C 7777   3.806   0.764   2.227 -0.2010  0.2790 -0.1209
   83SLPC   C12 7778   4.022   0.663   2.091 -0.3246  0.1170 -0.2424
   83SLPC  H12A 7779   4.056   0.759   2.127  0.0700 -0.9113  2.3494
   83SLPC  H12B 7780   4.075   0.641   2.000 -1.1710 -0.5318 -0.5908
   83SLPC   C11 7781   4.096   0.561   2.190 -0.5170  0.5990  0.0368
   83SLPC  H11A 7782   4.043   0.557   2.287  1.5980 -0.6772  1.1915
   83SLPC  H11B 7783   4.196   0.605   2.206 -0.1690 -0.0236 -0.4076
   83SLPC     P 7784   4.202   0.390   2.033 -0.4657  0.2044 -0.1708
   83SLPC   O13 7785   4.165   0.257   1.985  0.1821 -0.2782  0.1866
   83SLPC   O14 7786   4.213   0.498   1.926 -0.3532 -0.7187 -0.3192
   83SLPC   O12 7787   4.099   0.429   2.142 -0.2626  0.5728  0.4205
   83SLPC   O11 7788   4.334   0.383   2.125 -0.7552  0.0059  0.0701
   83SLPC    C1 7789   4.351   0.271   2.212  0.5800  0.6849 -0.2419
   83SLPC    HA 7790   4.328   0.172   2.168  1.4750  0.0118  0.7672
   83SLPC    HB 7791   4.457   0.268   2.247  1.2879  0.4979 -2.2425
   83SLPC    C2 7792   4.264   0.276   2.340 -0.3822 -0.2514 -0.7379
   83SLPC    HS 7793   4.157   0.271   2.310 -0.0282 -1.0026 -1.9350
   83SLPC   O21 7794   4.291   0.387   2.418 -0.1979  0.0453  0.0918
   83SLPC   C21 7795   4.190   0.451   2.480 -0.3112 -0.1660 -0.7331
   83SLPC   O22 7796   4.082   0.405   2.503 -0.0550 -0.1547  0.0060
   83SLPC   C22 7797   4.251   0.576   2.546  0.4156 -0.2855 -0.1121
   83SLPC   H2R 7798   4.348   0.550   2.595  1.0634 -2.0392 -2.1595
   83SLPC   H2S 7799   4.273   0.652   2.467 -0.2941  0.6471  0.5638
   83SLPC    C3 7800   4.291   0.150   2.428 -0.1078  0.0722  1.1361
   83SLPC    HX 7801   4.395   0.154   2.466 -0.4038  0.6086  1.8982
   83SLPC    HY 7802   4.286   0.057   2.366 -0.7402  0.8829 -0.0596
   83SLPC   O31 7803   4.212   0.144   2.547 -0.2946  0.1561 -0.0838
   83SLPC   C31 7804   4.083   0.122   2.534 -0.0290  0.3765  0.3587
   83SLPC   O32 7805   4.029   0.100   2.428 -0.0607 -0.3910  0.3789
   83SLPC   C32 7806   4.018   0.146   2.662  0.5916 -0.4736 -0.6599
   83SLPC   H2X 7807   3.943   0.065   2.674  1.2794 -0.7693  2.6969
   83SLPC   H2Y 7808   3.954   0.234   2.641  0.5483 -0.4807 -0.5558
   83SLPC   C23 7809   4.169   0.633   2.660  0.0768  0.2550 -0.0317
   83SLPC   H3R 7810   4.061   0.639   2.633  0.5530 -0.6308 -2.3501
   83SLPC   H3S 7811   4.211   0.733   2.680 -0.9272  0.6775  0.0250
   83SLPC   C24 7812   4.188   0.552   2.792 -0.1350  0.4475 -0.6210
   83SLPC   H4R 7813   4.296   0.530   2.808 -0.2679 -0.2341 -0.6508
   83SLPC   H4S 7814   4.131   0.457   2.799 -2.6009  1.8467 -0.6754
   83SLPC   C25 7815   4.146   0.635   2.917  0.0915  0.0668  0.2348
   83SLPC   H5R 7816   4.036   0.648   2.903 -0.2156 -1.3573  1.1186
   83SLPC   H5S 7817   4.200   0.731   2.904 -1.0934  0.7988  0.4883
   83SLPC   C26 7818   4.178   0.577   3.052  0.0070  0.7997 -0.2088
   83SLPC   H6R 7819   4.288   0.560   3.053 -0.1415 -0.2322  1.2213
   83SLPC   H6S 7820   4.128   0.478   3.056  1.0718  0.2837  1.1939
   83SLPC   C27 7821   4.145   0.664   3.179 -0.2057  0.0537  1.2657
   83SLPC   H7R 7822   4.035   0.680   3.182 -0.2396  0.3564 -0.5299
   83SLPC   H7S 7823   4.196   0.762   3.168  1.9786 -1.0772  0.7162
   83SLPC   C28 7824   4.194   0.611   3.314 -0.1147 -0.6947  0.4399
   83SLPC   H8R 7825   4.303   0.632   3.320 -0.1285 -1.0381  4.1035
   83SLPC   H8S 7826   4.172   0.503   3.325  0.0704 -0.7833 -0.0568
   83SLPC   C29 7827   4.125   0.688   3.415  0.1596 -0.6938  0.5159
   83SLPC   H9R 7828   4.059   0.758   3.362  0.7256 -0.0775  0.6158
   83SLPC  C210 7829   4.146   0.699   3.549  0.4216 -0.3571 -0.0884
   83SLPC  H10R 7830   4.095   0.774   3.611 -1.8143 -1.5914 -0.3175
   83SLPC  C211 7831   4.248   0.621   3.620 -0.1326  0.2837 -0.5015
   83SLPC  H11R 7832   4.344   0.674   3.638  0.0357  0.0276 -0.6479
   83SLPC  H11S 7833   4.289   0.542   3.554  2.3797  3.0561 -2.5472
   83SLPC  C212 7834   4.186   0.576   3.754  0.0551 -0.1783 -0.4659
   83SLPC  H12R 7835   4.136   0.479   3.739  1.9310 -1.1789 -0.4970
   83SLPC  C213 7836   4.191   0.638   3.876 -0.1840 -0.0154  0.1564
   83SLPC  H13R 7837   4.129   0.589   3.952  0.0561 -0.4192  0.0960
   83SLPC  C214 7838   4.261   0.768   3.908  0.1227  0.2889  0.2476
   83SLPC  H14R 7839   4.226   0.852   3.844  0.8359  1.5711  1.4827
   83SLPC  H14S 7840   4.366   0.749   3.877 -0.9746 -0.9052 -3.1656
   83SLPC  C215 7841   4.241   0.814   4.056  0.3222 -0.2445 -0.4998
   83SLPC  H15R 7842   4.237   0.721   4.117 -0.9524 -1.6563 -2.5844
   83SLPC  H15S 7843   4.138   0.853   4.072  1.0062  0.8875  1.3713
   83SLPC  C216 7844   4.352   0.914   4.098  0.1531  0.2297 -0.2335
   83SLPC  H16R 7845   4.329   0.974   4.189 -4.4186  0.1277 -1.0844
   83SLPC  H16S 7846   4.350   1.000   4.028 -0.3983  1.0010  0.6987
   83SLPC  C217 7847   4.494   0.855   4.102 -0.3347  0.5470 -0.4608
   83SLPC  H17R 7848   4.518   0.814   4.002  2.0117 -4.3300  1.7250
   83SLPC  H17S 7849   4.495   0.764   4.167  1.2432  0.9830  0.1665
   83SLPC  C218 7850   4.596   0.958   4.142 -0.0270 -0.1116  0.1212
   83SLPC  H18R 7851   4.589   0.991   4.248 -1.2618  1.1567 -0.3206
   83SLPC  H18S 7852   4.589   1.049   4.079 -0.0601 -1.2802 -1.6261
   83SLPC  H18T 7853   4.703   0.931   4.137  0.4513  1.5970  0.3420
   83SLPC   C33 7854   4.110   0.165   2.782  0.1063  0.0526  0.4097
   83SLPC   H3X 7855   4.180   0.249   2.761  0.3869 -0.1523  0.5252
   83SLPC   H3Y 7856   4.167   0.072   2.801  0.3919 -0.1761 -1.3890
   83SLPC   C34 7857   4.029   0.203   2.903  0.3283  0.0244 -0.3519
   83SLPC   H4X 7858   3.941   0.135   2.896  1.2444 -1.0032 -3.5855
   83SLPC   H4Y 7859   3.997   0.310   2.899 -1.0348 -0.3652 -0.3098
   83SLPC   C35 7860   4.106   0.195   3.036  0.0132 -0.0339 -0.2349
   83SLPC   H5X 7861   4.193   0.264   3.037  0.2898 -0.3816  0.4228
   83SLPC   H5Y 7862   4.148   0.093   3.049  3.9293  1.6437  2.4020
   83SLPC   C36 7863   4.021   0.216   3.165  0.2547  0.0131  0.5106
   83SLPC   H6X 7864   3.929   0.155   3.152  0.3102  0.3984 -2.2512
   83SLPC   H6Y 7865   3.995   0.324   3.169  0.6268  0.2220 -1.6142
   83SLPC   C37 7866   4.087   0.172   3.296 -1.1143 -0.1839 -1.1773
   83SLPC   H7X 7867   4.191   0.210   3.302 -0.4443 -1.8878 -1.3293
   83SLPC   H7Y 7868   4.098   0.061   3.300 -0.1822 -0.1054 -1.4447
   83SLPC   C38 7869   4.020   0.216   3.420  0.1933 -0.1544  0.0345
   83SLPC   H8X 7870   3.912   0.200   3.398  0.1132 -0.1998  0.4617
   83SLPC   H8Y 7871   4.050   0.317   3.455 -1.1526 -0.4563  2.1869
   83SLPC   C39 7872   4.044   0.116   3.538  0.3929 -1.3337 -0.2422
   83SLPC   H9X 7873   4.152   0.116   3.563  0.4945  1.3745 -0.3195
   83SLPC   H9Y 7874   4.013   0.013   3.514  0.0850 -1.5709  1.0637
   83SLPC  C310 7875   3.964   0.186   3.651 -0.6060  1.0076  0.5171
   83SLPC  H10X 7876   3.868   0.131   3.646  0.5596 -1.0874 -0.5627
   83SLPC  H10Y 7877   3.949   0.294   3.631 -0.8869  0.6446 -1.4453
   83SLPC  C311 7878   4.020   0.149   3.785 -0.0967  0.5089  0.6956
   83SLPC  H11X 7879   4.126   0.181   3.789  0.2523 -0.5863  0.7215
   83SLPC  H11Y 7880   4.010   0.038   3.785 -1.1734  0.5499  2.7011
   83SLPC  C312 7881   3.937   0.214   3.899  0.1665  0.0774  0.1469
   83SLPC  H12X 7882   3.831   0.187   3.880  0.2113  0.1283 -0.1794
   83SLPC  H12Y 7883   3.947   0.324   3.888  1.7627 -0.1065 -0.5373
   83SLPC  C313 7884   3.997   0.179   4.038  0.4048 -0.1920 -0.1123
   83SLPC  H13X 7885   4.099   0.220   4.051  1.3318 -1.7982 -1.7921
   83SLPC  H13Y 7886   3.997   0.068   4.048 -1.4319 -0.1318  0.9529
   83SLPC  C314 7887   3.912   0.229   4.153 -0.0085 -0.8055 -0.0747
   83SLPC  H14X 7888   3.897   0.338   4.164 -1.0346 -1.0554  1.2511
   83SLPC  H14Y 7889   3.956   0.199   4.251 -1.2587 -0.0526  0.7510
   83SLPC  C315 7890   3.768   0.166   4.164 -0.2341 -0.3995  0.4066
   83SLPC  H15X 7891   3.778   0.056   4.146 -0.3695 -0.0251 -2.3535
   83SLPC  H15Y 7892   3.709   0.206   4.079  1.0542  0.9264  0.0986
   83SLPC  C316 7893   3.688   0.204   4.291  0.1292 -0.0528 -0.5553
   83SLPC  H16X 7894   3.579   0.208   4.273 -0.1652  2.3017  1.1788
   83SLPC  H16Y 7895   3.717   0.307   4.321 -0.0870 -0.5859  1.6427
   83SLPC  C317 7896   3.713   0.104   4.399  0.3184  0.2295  0.0929
   83SLPC  H17X 7897   3.824   0.098   4.409  0.5829  2.3214 -0.9655
   83SLPC  H17Y 7898   3.678   0.003   4.368  0.9496  0.3529 -1.1106
   83SLPC  C318 7899   3.663   0.138   4.544  0.5756 -0.0898  0.7714
   83SLPC  H18X 7900   3.680   0.054   4.614 -1.3537 -0.8691  0.3812
   83SLPC  H18Y 7901   3.557   0.164   4.522  0.3791 -0.9764  0.6206
   83SLPC  H18Z 7902   3.717   0.230   4.576  0.3284  0.4633 -0.3537
   84SLPC     N 7903   4.566   2.887   2.180 -0.3009 -0.4371 -0.4670
   84SLPC   C13 7904   4.606   3.034   2.202 -0.4232  0.4062 -0.9282
   84SLPC  H13A 7905   4.711   3.028   2.226 -1.0048 -1.5728  1.5649
   84SLPC  H13B 7906   4.591   3.101   2.119 -2.5214  2.1430  0.7148
   84SLPC  H13C 7907   4.566   3.091   2.285  1.2018  0.9923 -0.5224
   84SLPC   C14 7908   4.654   2.831   2.070 -0.5889  0.0729  1.1275
   84SLPC  H14A 7909   4.655   2.723   2.068  1.4786 -0.0150 -2.1321
   84SLPC  H14B 7910   4.604   2.858   1.978 -2.2595 -1.9683  1.3800
   84SLPC  H14C 7911   4.754   2.871   2.064  0.1359 -1.8602 -1.4300
   84SLPC   C15 7912   4.427   2.888   2.138 -0.5335  0.2004  0.1907
   84SLPC  H15A 7913   4.364   2.928   2.217 -0.3640 -0.3062  0.5866
   84SLPC  H15B 7914   4.417   2.956   2.055 -1.9389  1.6054  1.4298
   84SLPC  H15C 7915   4.383   2.791   2.118  1.8681 -1.0849  0.7612
   84SLPC   C12 7916   4.593   2.797   2.304 -0.2862 -0.4721 -0.3335
   84SLPC  H12A 7917   4.547   2.840   2.392 -1.9673 -1.0930 -0.8629
   84SLPC  H12B 7918   4.701   2.792   2.311 -0.0654  2.6515  0.1439
   84SLPC   C11 7919   4.524   2.657   2.296 -0.0403 -0.4168  0.6552
   84SLPC  H11A 7920   4.541   2.603   2.200  0.5818 -0.4759  0.7942
   84SLPC  H11B 7921   4.416   2.680   2.310 -0.4355 -1.8123  0.1315
   84SLPC     P 7922   4.506   2.445   2.452 -0.3583  0.0257  0.0084
   84SLPC   O13 7923   4.369   2.433   2.402 -0.1329 -0.0937 -0.0654
   84SLPC   O14 7924   4.602   2.337   2.417 -0.0594  0.3861  0.1457
   84SLPC   O12 7925   4.571   2.584   2.406 -0.0582  0.4296  0.0687
   84SLPC   O11 7926   4.492   2.449   2.610 -0.4607 -0.3157  0.4444
   84SLPC    C1 7927   4.534   2.567   2.679  0.4804  0.6448  1.0410
   84SLPC    HA 7928   4.645   2.570   2.693  0.3525 -0.3284  2.4822
   84SLPC    HB 7929   4.517   2.669   2.640  0.2860  1.9718  4.3106
   84SLPC    C2 7930   4.473   2.576   2.826 -0.4507  0.3904  0.0689
   84SLPC    HS 7931   4.518   2.671   2.863  0.6889  0.4427 -1.3398
   84SLPC   O21 7932   4.511   2.469   2.910 -0.5635 -0.5122 -0.1159
   84SLPC   C21 7933   4.640   2.472   2.944 -0.3532  0.2146 -0.1821
   84SLPC   O22 7934   4.721   2.561   2.922  0.3079 -0.1907  0.2896
   84SLPC   C22 7935   4.667   2.345   3.036 -0.2816 -0.1687  0.7138
   84SLPC   H2R 7936   4.569   2.303   3.067 -1.3849  0.8671 -1.1476
   84SLPC   H2S 7937   4.719   2.276   2.966 -2.7029 -0.4660 -0.9322
   84SLPC    C3 7938   4.321   2.578   2.810 -0.2327 -0.7555  0.3247
   84SLPC    HX 7939   4.283   2.477   2.785 -0.3223 -0.4239 -0.9548
   84SLPC    HY 7940   4.310   2.644   2.722  2.6612 -1.7359 -0.8865
   84SLPC   O31 7941   4.271   2.635   2.928  0.3322  0.5775  0.0296
   84SLPC   C31 7942   4.180   2.565   2.997  0.2815  0.3072 -0.2389
   84SLPC   O32 7943   4.157   2.446   2.987 -0.1764  0.2751 -0.4830
   84SLPC   C32 7944   4.104   2.660   3.089 -0.5396 -0.6785  0.1631
   84SLPC   H2X 7945   4.032   2.594   3.142  0.1853 -1.0970  0.6406
   84SLPC   H2Y 7946   4.060   2.737   3.022 -1.2452 -0.3415  0.9960
   84SLPC   C23 7947   4.760   2.379   3.158 -0.0786  0.6830 -0.8885
   84SLPC   H3R 7948   4.690   2.389   3.244  0.3304  2.1631 -0.6973
   84SLPC   H3S 7949   4.827   2.468   3.162  0.0988  0.5080  0.1141
   84SLPC   C24 7950   4.844   2.252   3.188  0.4489 -0.0314  0.1161
   84SLPC   H4R 7951   4.897   2.271   3.283 -2.8286 -1.2597  2.3636
   84SLPC   H4S 7952   4.930   2.247   3.118 -0.2528  0.1698 -0.7826
   84SLPC   C25 7953   4.777   2.116   3.204 -0.1054 -0.4632 -0.4703
   84SLPC   H5R 7954   4.847   2.032   3.220 -2.7354 -2.3509  2.4703
   84SLPC   H5S 7955   4.700   2.095   3.127 -0.5995 -1.6650  0.3153
   84SLPC   C26 7956   4.709   2.095   3.344 -0.4698 -0.5124 -0.3384
   84SLPC   H6R 7957   4.665   1.994   3.363  0.5446 -0.5150  2.4931
   84SLPC   H6S 7958   4.625   2.166   3.357  0.9992  1.0201  1.2290
   84SLPC   C27 7959   4.791   2.126   3.474 -0.9128  0.4141 -0.3146
   84SLPC   H7R 7960   4.719   2.108   3.557  0.2893 -1.0037  0.4674
   84SLPC   H7S 7961   4.816   2.233   3.485 -0.6206  0.0668  4.5712
   84SLPC   C28 7962   4.925   2.050   3.498  0.0689 -0.5608  0.6594
   84SLPC   H8R 7963   4.978   2.100   3.582  0.8631 -0.6772  0.2377
   84SLPC   H8S 7964   4.992   2.068   3.411 -0.4680  0.3474  0.4224
   84SLPC   C29 7965   4.917   1.901   3.537  0.4378  0.1074  0.1524
   84SLPC   H9R 7966   4.838   1.878   3.610  0.8128 -1.7965  0.0214
   84SLPC  C210 7967   4.994   1.799   3.494  0.5593 -0.9907 -0.1915
   84SLPC  H10R 7968   4.986   1.706   3.551 -0.9073 -0.3286  0.7292
   84SLPC  C211 7969   5.105   1.811   3.399 -0.4542  0.4309 -0.0126
   84SLPC  H11R 7970   5.169   1.898   3.427  0.3921 -0.6693  1.5844
   84SLPC  H11S 7971   5.071   1.839   3.297  0.8614  0.8399 -0.3587
   84SLPC  C212 7972   5.198   1.684   3.393 -0.1577  0.5017 -0.1232
   84SLPC  H12R 7973   5.300   1.707   3.428 -0.7753  1.4664  1.1377
   84SLPC  C213 7974   5.162   1.564   3.339  0.2301 -0.3415 -0.3267
   84SLPC  H13R 7975   5.231   1.480   3.355 -2.2050 -2.5908 -1.0721
   84SLPC  C214 7976   5.021   1.535   3.300  0.5777  0.0559 -0.0919
   84SLPC  H14R 7977   4.998   1.600   3.212  1.4952 -0.6758 -0.9060
   84SLPC  H14S 7978   4.948   1.551   3.382 -0.9588 -1.5964 -1.0721
   84SLPC  C215 7979   5.012   1.393   3.247  0.5230  0.2770  0.0678
   84SLPC  H15R 7980   5.080   1.390   3.160  2.4656 -2.1333  1.5254
   84SLPC  H15S 7981   4.906   1.370   3.221  1.1802 -2.7926 -0.2796
   84SLPC  C216 7982   5.059   1.284   3.343  1.2094  0.3282 -1.0959
   84SLPC  H16R 7983   5.008   1.301   3.441 -0.5565  1.2284 -2.1254
   84SLPC  H16S 7984   5.167   1.301   3.364  0.4640  2.1765  1.8719
   84SLPC  C217 7985   5.030   1.136   3.296  0.1485  0.8570  0.6614
   84SLPC  H17R 7986   5.082   1.071   3.369  0.5882  0.0106 -0.3767
   84SLPC  H17S 7987   5.081   1.119   3.199  1.4462 -1.0067  1.5881
   84SLPC  C218 7988   4.875   1.095   3.292 -0.8363  0.2047 -0.9894
   84SLPC  H18R 7989   4.872   0.993   3.248 -0.2484  0.7115 -2.2646
   84SLPC  H18S 7990   4.806   1.156   3.229 -0.5129  1.8877  0.2207
   84SLPC  H18T 7991   4.853   1.085   3.400  1.8389  0.0840 -0.3974
   84SLPC   C33 7992   4.189   2.721   3.200  0.4290  0.0610  0.9570
   84SLPC   H3X 7993   4.267   2.787   3.157 -1.3839  1.4930 -0.3014
   84SLPC   H3Y 7994   4.242   2.633   3.242 -0.5304 -1.7063 -1.3272
   84SLPC   C34 7995   4.112   2.786   3.314 -0.5611  0.3924  0.3098
   84SLPC   H4X 7996   4.022   2.723   3.332  0.7413 -2.0720 -1.2406
   84SLPC   H4Y 7997   4.080   2.886   3.278 -1.6153 -0.8669 -2.5929
   84SLPC   C35 7998   4.218   2.788   3.435  0.5258  0.1921  0.7332
   84SLPC   H5X 7999   4.319   2.813   3.397  1.0291 -2.2877  0.2628
   84SLPC   H5Y 8000   4.222   2.684   3.472 -0.9333 -0.0248  0.3496
   84SLPC   C36 8001   4.181   2.896   3.535  0.9262 -0.3739  0.0810
   84SLPC   H6X 8002   4.072   2.910   3.548  1.1376 -0.0308  1.6338
   84SLPC   H6Y 8003   4.224   2.993   3.503 -1.4286  0.3390 -1.1559
   84SLPC   C37 8004   4.230   2.867   3.680 -0.2458 -0.0078  0.0831
   84SLPC   H7X 8005   4.340   2.853   3.671 -0.4361 -2.3071  0.7156
   84SLPC   H7Y 8006   4.201   2.766   3.717  0.8402 -0.9987 -1.6412
   84SLPC   C38 8007   4.193   2.972   3.789 -0.3738  0.1096 -0.3113
   84SLPC   H8X 8008   4.082   2.972   3.799 -0.4446  3.8045  0.4642
   84SLPC   H8Y 8009   4.218   3.074   3.752 -1.4059 -0.2320 -2.1053
   84SLPC   C39 8010   4.242   2.939   3.934  0.1853  0.0326  0.6192
   84SLPC   H9X 8011   4.167   2.979   4.006  0.0871  2.8079 -0.9050
   84SLPC   H9Y 8012   4.330   3.005   3.953  1.4306 -1.2285 -0.5527
   84SLPC  C310 8013   4.277   2.792   3.980 -0.4154 -0.2825  0.3569
   84SLPC  H10X 8014   4.358   2.745   3.920  0.5333  0.8275  0.7325
   84SLPC  H10Y 8015   4.179   2.744   3.955 -0.7335  0.7877 -0.5352
   84SLPC  C311 8016   4.293   2.771   4.134 -0.7613  0.0303  0.4189
   84SLPC  H11X 8017   4.222   2.845   4.176  0.5934  1.6447 -0.0267
   84SLPC  H11Y 8018   4.394   2.800   4.170 -0.1459  0.7672 -1.7753
   84SLPC  C312 8019   4.255   2.634   4.191  0.9069 -0.0464 -0.8844
   84SLPC  H12X 8020   4.145   2.623   4.195  0.2253  4.7367  1.0844
   84SLPC  H12Y 8021   4.295   2.645   4.295 -0.8930  0.2304 -0.1938
   84SLPC  C313 8022   4.334   2.529   4.116  0.4405 -0.5521 -0.0084
   84SLPC  H13X 8023   4.432   2.576   4.095 -0.1159  1.7654  2.2121
   84SLPC  H13Y 8024   4.278   2.510   4.021 -0.0364 -2.0018  0.5322
   84SLPC  C314 8025   4.356   2.392   4.182  0.1669  0.1295  0.1577
   84SLPC  H14X 8026   4.381   2.408   4.289 -2.2539 -1.2505  0.9951
   84SLPC  H14Y 8027   4.446   2.349   4.133 -0.4154 -0.4350 -0.4280
   84SLPC  C315 8028   4.236   2.293   4.177 -0.8170 -0.1394 -0.1455
   84SLPC  H15X 8029   4.220   2.260   4.072  0.9303 -2.5041  0.2419
   84SLPC  H15Y 8030   4.153   2.353   4.220 -0.3653 -0.6483  1.5356
   84SLPC  C316 8031   4.255   2.164   4.251 -0.3387  0.3482  0.3841
   84SLPC  H16X 8032   4.306   2.190   4.346  0.2732  0.1794  0.1028
   84SLPC  H16Y 8033   4.327   2.098   4.199 -0.0687  0.7246  0.2810
   84SLPC  C317 8034   4.125   2.088   4.289 -0.6581 -0.2747  0.3208
   84SLPC  H17X 8035   4.051   2.156   4.336  0.7631  0.6500  1.3306
   84SLPC  H17Y 8036   4.155   2.020   4.373  1.5852  0.0969 -0.1214
   84SLPC  C318 8037   4.080   1.994   4.182  0.7221  0.1939  0.6674
   84SLPC  H18X 8038   4.166   1.925   4.169  0.6835  0.2448  0.1240
   84SLPC  H18Y 8039   4.052   2.042   4.086 -1.9197 -1.9901  0.2000
   84SLPC  H18Z 8040   3.994   1.930   4.212 -1.5328  2.2695 -0.9223
   85SLPC     N 8041   1.424   0.676   1.898 -0.1965 -0.3988  0.6088
   85SLPC   C13 8042   1.518   0.676   1.779  0.1031  0.0164 -0.4562
   85SLPC  H13A 8043   1.564   0.578   1.777 -1.2358 -0.7897  2.8780
   85SLPC  H13B 8044   1.467   0.699   1.686 -0.5007  0.5695  0.0061
   85SLPC  H13C 8045   1.591   0.755   1.785  0.6296 -0.5106  0.2303
   85SLPC   C14 8046   1.297   0.594   1.866 -0.2767  0.9411  0.0425
   85SLPC  H14A 8047   1.228   0.596   1.949 -0.1031 -0.2380  0.2303
   85SLPC  H14B 8048   1.250   0.638   1.779  0.8546 -1.6030 -2.0039
   85SLPC  H14C 8049   1.328   0.493   1.844  0.9018  1.3325 -0.1643
   85SLPC   C15 8050   1.378   0.814   1.932 -0.2467  0.6594  0.2100
   85SLPC  H15A 8051   1.299   0.817   2.005 -1.1070 -1.5920 -0.5356
   85SLPC  H15B 8052   1.473   0.856   1.961  1.6376 -3.1120  0.1391
   85SLPC  H15C 8053   1.357   0.874   1.844 -0.0901 -1.4035 -1.2993
   85SLPC   C12 8054   1.496   0.610   2.019  0.6844 -0.2891 -0.1337
   85SLPC  H12A 8055   1.527   0.509   1.994  1.5302 -0.0817  0.0727
   85SLPC  H12B 8056   1.433   0.601   2.106  2.8784  1.1642  1.7159
   85SLPC   C11 8057   1.623   0.680   2.073  0.2211  0.1394 -0.6085
   85SLPC  H11A 8058   1.658   0.642   2.170  0.7877  1.0496 -0.4439
   85SLPC  H11B 8059   1.597   0.787   2.089 -0.1536 -0.3492  2.5974
   85SLPC     P 8060   1.811   0.543   1.955  0.3545 -0.1522  0.1731
   85SLPC   O13 8061   1.729   0.420   1.962  0.5793 -0.8393  0.1091
   85SLPC   O14 8062   1.899   0.551   1.836  0.3750 -0.3411  0.4073
   85SLPC   O12 8063   1.727   0.666   1.980  0.9014  0.0421  0.2413
   85SLPC   O11 8064   1.911   0.546   2.075 -0.1480 -0.1524 -0.2096
   85SLPC    C1 8065   2.015   0.641   2.082  0.2490  0.2393 -0.4800
   85SLPC    HA 8066   2.101   0.595   2.029  1.5139  0.7402  1.0854
   85SLPC    HB 8067   1.995   0.734   2.025 -0.1687  2.4473  3.0177
   85SLPC    C2 8068   2.061   0.677   2.227  0.6098  0.5690  0.6368
   85SLPC    HS 8069   2.153   0.738   2.213  0.7477 -0.0670 -1.4879
   85SLPC   O21 8070   2.069   0.553   2.308  0.2514 -0.5203  0.5214
   85SLPC   C21 8071   2.195   0.509   2.316 -0.8037 -0.3386  0.4122
   85SLPC   O22 8072   2.294   0.571   2.275 -0.4551  0.6409 -0.1007
   85SLPC   C22 8073   2.196   0.370   2.381 -0.2296 -0.2217  0.5331
   85SLPC   H2R 8074   2.121   0.307   2.327 -2.8236  2.3097  0.9528
   85SLPC   H2S 8075   2.299   0.334   2.358 -0.1117 -0.5270  1.4881
   85SLPC    C3 8076   1.946   0.757   2.287 -0.2728 -0.1546 -0.2382
   85SLPC    HX 8077   1.859   0.693   2.311  0.1432 -0.7170 -0.2356
   85SLPC    HY 8078   1.913   0.833   2.212  1.4550  0.8939  0.0234
   85SLPC   O31 8079   1.988   0.816   2.414  0.3067  0.4352  0.2154
   85SLPC   C31 8080   1.906   0.910   2.447 -0.0542 -0.2651  0.2121
   85SLPC   O32 8081   1.806   0.948   2.391 -0.1737 -0.0348  0.0654
   85SLPC   C32 8082   1.961   0.978   2.577  0.2614 -0.1876 -0.4444
   85SLPC   H2X 8083   2.030   1.061   2.552  0.7115 -0.6209 -0.6541
   85SLPC   H2Y 8084   2.022   0.908   2.637  0.3869 -0.3446 -0.7558
   85SLPC   C23 8085   2.177   0.369   2.536 -0.1066 -0.2355 -0.4730
   85SLPC   H3R 8086   2.082   0.414   2.571  0.2906 -0.3246  0.7932
   85SLPC   H3S 8087   2.255   0.432   2.584 -0.7998  0.1769  0.1500
   85SLPC   C24 8088   2.193   0.227   2.600 -0.0919 -0.4615 -0.2422
   85SLPC   H4R 8089   2.295   0.187   2.582 -0.1100 -1.4824  1.6521
   85SLPC   H4S 8090   2.122   0.161   2.545 -1.2541 -0.4656  1.1966
   85SLPC   C25 8091   2.152   0.224   2.751 -0.8594 -0.4391 -0.5249
   85SLPC   H5R 8092   2.065   0.286   2.781  0.9936  1.8170  0.4839
   85SLPC   H5S 8093   2.135   0.119   2.782 -1.8615  0.0535  0.6555
   85SLPC   C26 8094   2.270   0.265   2.844 -0.1618  0.2165  0.1788
   85SLPC   H6R 8095   2.303   0.364   2.806  0.0604 -0.1990 -0.7362
   85SLPC   H6S 8096   2.358   0.196   2.843 -0.3609 -0.1367  2.1276
   85SLPC   C27 8097   2.240   0.266   2.990 -0.2435 -0.3083  0.3663
   85SLPC   H7R 8098   2.339   0.272   3.042  0.5471  0.8674 -1.2047
   85SLPC   H7S 8099   2.167   0.189   3.022 -0.4816  0.5271  1.9127
   85SLPC   C28 8100   2.173   0.398   3.041  0.2325  0.1488 -0.4805
   85SLPC   H8R 8101   2.134   0.376   3.143 -3.2429  3.2049 -0.9365
   85SLPC   H8S 8102   2.085   0.429   2.982  1.1303  2.6557 -0.6448
   85SLPC   C29 8103   2.257   0.518   3.045  0.1560  0.9192 -0.1420
   85SLPC   H9R 8104   2.320   0.527   2.955  1.0813  2.7141  0.6426
   85SLPC  C210 8105   2.284   0.600   3.146 -0.7553  0.5671  0.0901
   85SLPC  H10R 8106   2.348   0.687   3.125 -0.8413  0.8255  0.8411
   85SLPC  C211 8107   2.229   0.591   3.283  0.0230  0.2538  0.5352
   85SLPC  H11R 8108   2.129   0.544   3.274  0.2828 -0.1036 -0.6596
   85SLPC  H11S 8109   2.195   0.688   3.325  1.2621  0.7536  0.4271
   85SLPC  C212 8110   2.316   0.502   3.377  0.4426 -0.5141  0.2117
   85SLPC  H12R 8111   2.361   0.424   3.313 -0.1444  0.1038 -0.9888
   85SLPC  C213 8112   2.313   0.509   3.506 -0.8669  0.8341 -0.5962
   85SLPC  H13R 8113   2.375   0.434   3.557 -2.8693 -0.1762  0.4537
   85SLPC  C214 8114   2.244   0.606   3.598  0.8299 -0.3455 -0.2558
   85SLPC  H14R 8115   2.142   0.569   3.624 -0.5645  2.7436 -0.9327
   85SLPC  H14S 8116   2.223   0.698   3.540  1.3792  0.1118  0.2675
   85SLPC  C215 8117   2.306   0.654   3.732  0.0028 -0.3699 -0.9726
   85SLPC  H15R 8118   2.263   0.747   3.773  0.0408 -0.6610 -0.2511
   85SLPC  H15S 8119   2.414   0.678   3.723 -0.1360  0.9278  0.4892
   85SLPC  C216 8120   2.310   0.552   3.848 -0.5443 -0.0910  0.1405
   85SLPC  H16R 8121   2.368   0.461   3.823 -1.9824  0.1288 -5.2093
   85SLPC  H16S 8122   2.202   0.527   3.853 -0.5061 -0.1416  0.7491
   85SLPC  C217 8123   2.365   0.623   3.974  0.5769 -0.8250  0.2395
   85SLPC  H17R 8124   2.309   0.719   3.981 -0.1396 -1.2968  1.3166
   85SLPC  H17S 8125   2.469   0.643   3.942  0.6921  0.4181  1.3070
   85SLPC  C218 8126   2.357   0.533   4.102  0.0714  0.6502 -0.5052
   85SLPC  H18R 8127   2.369   0.592   4.196 -1.8152  1.3032 -0.6403
   85SLPC  H18S 8128   2.442   0.462   4.086 -1.9196 -2.3945  1.3994
   85SLPC  H18T 8129   2.256   0.488   4.093  0.4567  0.1021 -2.5092
   85SLPC   C33 8130   1.851   1.035   2.669 -0.0327 -0.1743 -0.1754
   85SLPC   H3X 8131   1.791   0.946   2.699  0.0358  0.3939  1.8138
   85SLPC   H3Y 8132   1.794   1.109   2.609  0.8044 -1.7416 -3.0798
   85SLPC   C34 8133   1.920   1.093   2.795  0.6475  0.7713 -0.3900
   85SLPC   H4X 8134   1.983   1.180   2.767 -1.0293  0.9847 -4.1730
   85SLPC   H4Y 8135   1.985   1.011   2.832 -0.3209  0.0547 -0.2142
   85SLPC   C35 8136   1.816   1.146   2.900  0.0919  0.2574  0.4578
   85SLPC   H5X 8137   1.737   1.069   2.908 -0.8747  1.2307  0.5708
   85SLPC   H5Y 8138   1.767   1.243   2.877 -0.9203  0.1732  2.0877
   85SLPC   C36 8139   1.868   1.160   3.043  0.0308 -0.1430  0.0002
   85SLPC   H6X 8140   1.956   1.228   3.041 -0.2125  0.2278  1.0538
   85SLPC   H6Y 8141   1.906   1.062   3.080  0.2939 -0.4711 -1.0947
   85SLPC   C37 8142   1.764   1.231   3.137  0.2928 -0.5895 -0.4866
   85SLPC   H7X 8143   1.662   1.189   3.124  0.5746 -1.0992 -1.0954
   85SLPC   H7Y 8144   1.773   1.335   3.098 -0.7528 -0.4419 -0.3562
   85SLPC   C38 8145   1.817   1.229   3.276  0.5282  0.0389  0.1250
   85SLPC   H8X 8146   1.907   1.293   3.291  1.3781 -1.4364  1.6634
   85SLPC   H8Y 8147   1.849   1.130   3.313  1.8419 -0.5436 -2.3838
   85SLPC   C39 8148   1.714   1.290   3.371  0.2225 -0.0976  0.2997
   85SLPC   H9X 8149   1.615   1.239   3.367  0.7275 -1.0473 -1.4617
   85SLPC   H9Y 8150   1.692   1.394   3.338 -1.2191 -0.6152 -0.4568
   85SLPC  C310 8151   1.760   1.295   3.520 -0.3456 -0.6488  0.0195
   85SLPC  H10X 8152   1.865   1.330   3.508 -0.2419 -0.8954  0.1961
   85SLPC  H10Y 8153   1.758   1.193   3.563  0.8249 -0.0375  1.6326
   85SLPC  C311 8154   1.690   1.385   3.617 -0.6489  0.2793  0.0304
   85SLPC  H11X 8155   1.681   1.489   3.578  2.2951  0.6785  0.1794
   85SLPC  H11Y 8156   1.744   1.386   3.713  1.3479  1.8223 -1.0302
   85SLPC  C312 8157   1.544   1.348   3.657  0.0069 -0.0447  0.1261
   85SLPC  H12X 8158   1.553   1.258   3.723  1.7124  0.9244  1.2945
   85SLPC  H12Y 8159   1.491   1.327   3.561  1.5890 -0.9256 -0.6040
   85SLPC  C313 8160   1.473   1.473   3.725 -0.1271 -0.1366  0.4233
   85SLPC  H13X 8161   1.367   1.448   3.743  0.1259 -2.9318 -1.3468
   85SLPC  H13Y 8162   1.477   1.553   3.648 -2.0671 -1.3929 -1.0798
   85SLPC  C314 8163   1.546   1.527   3.849 -0.7552  0.4141  0.7448
   85SLPC  H14X 8164   1.644   1.566   3.812 -0.9280  2.5133  2.3427
   85SLPC  H14Y 8165   1.567   1.448   3.923 -2.1907  0.2249  0.9675
   85SLPC  C315 8166   1.481   1.651   3.915 -0.1106 -0.0037  0.0851
   85SLPC  H15X 8167   1.382   1.614   3.948 -1.2024  1.9648 -0.7917
   85SLPC  H15Y 8168   1.461   1.742   3.854 -2.8712 -0.4585  0.1789
   85SLPC  C316 8169   1.554   1.697   4.042  0.3602  0.4558  0.2468
   85SLPC  H16X 8170   1.661   1.693   4.014  0.1070  1.6373 -0.9940
   85SLPC  H16Y 8171   1.534   1.624   4.123  0.0241 -0.9808 -1.0824
   85SLPC  C317 8172   1.507   1.835   4.091 -0.7881  0.5186 -0.0233
   85SLPC  H17X 8173   1.397   1.841   4.106 -0.6913  1.3490  0.3738
   85SLPC  H17Y 8174   1.536   1.907   4.012 -0.1953 -0.8922 -1.1426
   85SLPC  C318 8175   1.569   1.873   4.230 -0.4065  0.0518  0.3926
   85SLPC  H18X 8176   1.526   1.971   4.262 -0.7557 -0.8333  2.8757
   85SLPC  H18Y 8177   1.679   1.880   4.219 -0.4340 -0.4677 -0.1992
   85SLPC  H18Z 8178   1.553   1.796   4.309 -2.1309 -1.6729 -1.5217
   86SLPC     N 8179   4.223   6.104   2.296  0.4909  0.3242  0.1082
   86SLPC   C13 8180   4.269   6.248   2.259  1.0372 -0.4736 -0.1387
   86SLPC  H13A 8181   4.246   6.270   2.156  0.4170  0.7105  0.2245
   86SLPC  H13B 8182   4.212   6.317   2.320 -0.3908 -1.7164 -0.0252
   86SLPC  H13C 8183   4.373   6.267   2.281  0.5396  0.4214  1.6445
   86SLPC   C14 8184   4.313   6.050   2.410 -0.3577 -0.1534 -0.0196
   86SLPC  H14A 8185   4.304   5.945   2.432  1.1257 -0.1576  0.7974
   86SLPC  H14B 8186   4.414   6.056   2.371 -0.5705  1.4961 -0.4051
   86SLPC  H14C 8187   4.295   6.104   2.503  0.4715  1.2432 -0.6353
   86SLPC   C15 8188   4.248   6.029   2.173  0.3352 -0.1764 -0.1851
   86SLPC  H15A 8189   4.204   5.930   2.180 -0.7926  0.3518  0.6106
   86SLPC  H15B 8190   4.194   6.081   2.095 -0.7739  1.4877  1.6023
   86SLPC  H15C 8191   4.355   6.025   2.164  0.2463  0.0181 -1.4469
   86SLPC   C12 8192   4.082   6.105   2.342  0.2148 -0.4507 -0.3898
   86SLPC  H12A 8193   4.026   6.167   2.275 -2.1704 -1.6716  0.3540
   86SLPC  H12B 8194   4.086   6.156   2.437  2.6585 -1.8226  0.3387
   86SLPC   C11 8195   4.001   5.976   2.370 -0.3662 -0.2246  0.7980
   86SLPC  H11A 8196   4.004   5.914   2.278  1.0499 -0.5374  1.0363
   86SLPC  H11B 8197   3.894   5.998   2.392 -0.5357  1.2137 -1.2069
   86SLPC     P 8198   4.005   5.931   2.617 -0.1191  0.3147  0.1732
   86SLPC   O13 8199   4.012   6.076   2.638  0.3989  0.7395 -0.0750
   86SLPC   O14 8200   3.872   5.873   2.624 -0.3480 -0.3415  0.4634
   86SLPC   O12 8201   4.067   5.903   2.476  0.0512 -0.1712 -0.4003
   86SLPC   O11 8202   4.097   5.855   2.709  0.4569 -0.1929  0.1017
   86SLPC    C1 8203   4.136   5.718   2.705  0.0697  0.0402  0.7813
   86SLPC    HA 8204   4.069   5.651   2.762 -0.3882 -3.1236 -3.0229
   86SLPC    HB 8205   4.137   5.682   2.599 -0.8067  1.3585  0.3027
   86SLPC    C2 8206   4.282   5.709   2.754  0.1598 -0.2331  0.3159
   86SLPC    HS 8207   4.330   5.609   2.744  1.9487  0.4535  1.4264
   86SLPC   O21 8208   4.292   5.756   2.888  0.3685 -0.4672 -0.0665
   86SLPC   C21 8209   4.227   5.692   2.980  0.2267 -0.7854 -0.3189
   86SLPC   O22 8210   4.158   5.592   2.961 -0.9647 -0.5149  0.2851
   86SLPC   C22 8211   4.250   5.749   3.126  0.3255  0.7274 -0.0214
   86SLPC   H2R 8212   4.356   5.773   3.148  1.5107 -2.2299 -1.9869
   86SLPC   H2S 8213   4.178   5.832   3.145 -0.4252  0.4930 -1.6804
   86SLPC    C3 8214   4.378   5.800   2.660 -0.9138  0.5263 -0.4202
   86SLPC    HX 8215   4.356   5.904   2.691 -1.8166  0.2235  0.0007
   86SLPC    HY 8216   4.333   5.765   2.564  2.8723 -2.9049 -1.2250
   86SLPC   O31 8217   4.518   5.762   2.653 -0.2937 -0.4083 -0.6309
   86SLPC   C31 8218   4.607   5.850   2.713 -0.4597  0.3386 -0.1580
   86SLPC   O32 8219   4.574   5.959   2.755 -0.1269 -0.4340  0.1633
   86SLPC   C32 8220   4.746   5.786   2.709 -0.1260  0.1252  1.6835
   86SLPC   H2X 8221   4.784   5.802   2.606 -1.1347 -1.5283  1.0060
   86SLPC   H2Y 8222   4.743   5.676   2.726 -0.5852  0.0566  1.1829
   86SLPC   C23 8223   4.226   5.631   3.229  0.4664 -0.0076 -0.2047
   86SLPC   H3R 8224   4.325   5.580   3.224  1.4091  1.8317 -1.6863
   86SLPC   H3S 8225   4.136   5.571   3.205  0.9097 -0.1651 -1.5742
   86SLPC   C24 8226   4.200   5.702   3.372 -0.4300 -0.1489  0.3122
   86SLPC   H4R 8227   4.125   5.783   3.360 -1.1193 -0.4133  2.4210
   86SLPC   H4S 8228   4.295   5.748   3.406 -0.3429 -0.2530  0.2120
   86SLPC   C25 8229   4.158   5.596   3.475 -0.0492  0.0693 -0.2699
   86SLPC   H5R 8230   4.232   5.515   3.495 -0.0356 -0.3441 -1.8741
   86SLPC   H5S 8231   4.072   5.538   3.435  1.0065 -2.4586  0.8829
   86SLPC   C26 8232   4.112   5.645   3.605  0.3174  0.0436  0.4503
   86SLPC   H6R 8233   4.027   5.585   3.643 -1.0761  1.4587 -0.3425
   86SLPC   H6S 8234   4.068   5.745   3.589 -1.2924 -0.6994 -0.0122
   86SLPC   C27 8235   4.210   5.650   3.717 -0.0345 -0.4411  0.7132
   86SLPC   H7R 8236   4.305   5.701   3.689  1.1119 -2.0801  1.4516
   86SLPC   H7S 8237   4.249   5.550   3.747  0.2678 -0.2205  1.0675
   86SLPC   C28 8238   4.167   5.717   3.840  0.4408  0.1366  0.0770
   86SLPC   H8R 8239   4.084   5.659   3.886 -0.6019  0.3168 -1.5085
   86SLPC   H8S 8240   4.125   5.818   3.821  2.1772  1.7608  3.7481
   86SLPC   C29 8241   4.277   5.728   3.942 -0.3184 -0.0158 -0.1001
   86SLPC   H9R 8242   4.377   5.735   3.897 -0.3856 -0.7723 -0.3935
   86SLPC  C210 8243   4.265   5.706   4.074  0.2208  0.4188  0.3174
   86SLPC  H10R 8244   4.352   5.690   4.139 -0.5031 -1.2087  0.9191
   86SLPC  C211 8245   4.133   5.671   4.127 -0.3873  0.4471 -0.2509
   86SLPC  H11R 8246   4.104   5.567   4.104  1.6034 -0.6229  1.6935
   86SLPC  H11S 8247   4.061   5.737   4.074 -0.6980 -0.2118 -0.6589
   86SLPC  C212 8248   4.129   5.703   4.270  0.4044 -0.4075 -0.3428
   86SLPC  H12R 8249   4.175   5.797   4.306  0.6608 -0.5168 -0.3870
   86SLPC  C213 8250   4.089   5.621   4.368  0.3364  0.8335 -0.3517
   86SLPC  H13R 8251   4.102   5.652   4.473  4.0791 -2.3626  0.3477
   86SLPC  C214 8252   4.034   5.480   4.344 -1.0707 -0.1338 -0.0857
   86SLPC  H14R 8253   4.037   5.419   4.436 -0.9315 -2.3335 -1.4816
   86SLPC  H14S 8254   4.100   5.418   4.279  0.1039 -2.4503  3.0974
   86SLPC  C215 8255   3.890   5.467   4.292 -0.4925 -0.0169  0.2433
   86SLPC  H15R 8256   3.862   5.360   4.303  0.3167 -0.0463  2.5186
   86SLPC  H15S 8257   3.884   5.495   4.184  1.2543 -0.3303  0.0342
   86SLPC  C216 8258   3.789   5.546   4.383  0.6805  0.1583  0.2616
   86SLPC  H16R 8259   3.694   5.515   4.334  2.7062 -1.6729 -2.8408
   86SLPC  H16S 8260   3.801   5.653   4.356 -0.7645  0.1336 -0.6145
   86SLPC  C217 8261   3.803   5.507   4.529  0.4726  0.7668  0.0571
   86SLPC  H17R 8262   3.906   5.511   4.570  0.5104 -1.6785  0.3642
   86SLPC  H17S 8263   3.788   5.397   4.537 -1.6368  1.0099  0.0780
   86SLPC  C218 8264   3.696   5.569   4.615  0.2883  0.2816 -0.5839
   86SLPC  H18R 8265   3.717   5.549   4.723  0.0117 -2.9140 -1.0087
   86SLPC  H18S 8266   3.596   5.525   4.599 -0.0224  0.0524  1.6249
   86SLPC  H18T 8267   3.688   5.679   4.602 -0.7230  0.2619 -0.1916
   86SLPC   C33 8268   4.839   5.849   2.817 -0.1025 -0.0488 -0.1734
   86SLPC   H3X 8269   4.833   5.959   2.804 -1.7514 -0.0981 -0.0432
   86SLPC   H3Y 8270   4.948   5.830   2.807  0.0709  0.8554 -0.0797
   86SLPC   C34 8271   4.795   5.824   2.965 -0.6345  0.1635 -0.2018
   86SLPC   H4X 8272   4.811   5.715   2.985 -1.4190 -0.0165 -0.5020
   86SLPC   H4Y 8273   4.684   5.823   2.972 -0.8794  4.0453 -1.4516
   86SLPC   C35 8274   4.863   5.911   3.064 -0.1659  0.2574 -0.0582
   86SLPC   H5X 8275   4.836   6.018   3.059  0.0667  0.2667 -1.3714
   86SLPC   H5Y 8276   4.971   5.901   3.039 -0.4936  0.2227 -1.5617
   86SLPC   C36 8277   4.843   5.861   3.204 -0.1604 -0.1618 -0.1275
   86SLPC   H6X 8278   4.900   5.770   3.230  2.5353  1.0599 -1.4131
   86SLPC   H6Y 8279   4.737   5.833   3.226  0.7428 -2.3588  1.8209
   86SLPC   C37 8280   4.878   5.970   3.308  0.1395 -0.3340  0.0091
   86SLPC   H7X 8281   4.851   6.069   3.265 -0.2848 -1.1994 -1.8118
   86SLPC   H7Y 8282   4.988   5.983   3.305 -0.0081  1.1096  0.0120
   86SLPC   C38 8283   4.812   5.954   3.447  0.3384 -0.3712 -0.4081
   86SLPC   H8X 8284   4.781   5.848   3.458 -1.5187  0.0004 -1.5820
   86SLPC   H8Y 8285   4.720   6.016   3.443  0.6563  0.3391  1.7636
   86SLPC   C39 8286   4.896   5.992   3.572 -0.6868  0.4192  0.6599
   86SLPC   H9X 8287   4.902   6.102   3.585  2.5800  0.4801 -0.4108
   86SLPC   H9Y 8288   5.002   5.961   3.571 -1.6710 -3.5097  0.0062
   86SLPC  C310 8289   4.850   5.920   3.694 -0.3864 -0.7973  0.3402
   86SLPC  H10X 8290   4.918   5.941   3.778  0.9984 -0.9392 -0.7155
   86SLPC  H10Y 8291   4.874   5.812   3.685 -0.1992 -0.7724  0.5531
   86SLPC  C311 8292   4.702   5.931   3.737 -0.6797 -0.1025 -0.4027
   86SLPC  H11X 8293   4.631   5.893   3.661 -0.2432  1.9671 -1.9251
   86SLPC  H11Y 8294   4.686   6.040   3.752 -2.7235 -0.7018  2.7743
   86SLPC  C312 8295   4.671   5.882   3.879 -0.1682  0.6349  0.2614
   86SLPC  H12X 8296   4.715   5.782   3.898  0.0532  0.1494 -2.4353
   86SLPC  H12Y 8297   4.561   5.880   3.898 -0.5626  1.7270 -1.6648
   86SLPC  C313 8298   4.745   5.963   3.993  0.3019  0.2453  0.4759
   86SLPC  H13X 8299   4.737   6.070   3.962 -0.4539  0.0447 -0.0478
   86SLPC  H13Y 8300   4.855   5.952   3.993  0.4952  1.8184  0.0796
   86SLPC  C314 8301   4.688   5.937   4.135 -0.0063  0.0147 -0.0421
   86SLPC  H14X 8302   4.577   5.929   4.129 -0.0484 -1.1965  1.6448
   86SLPC  H14Y 8303   4.715   6.018   4.206  0.5220 -0.8019  0.7080
   86SLPC  C315 8304   4.742   5.802   4.179  0.2970 -0.3408  0.5480
   86SLPC  H15X 8305   4.852   5.814   4.192  0.0036  2.8690  0.7004
   86SLPC  H15Y 8306   4.727   5.734   4.092 -0.0767  1.5628 -0.9530
   86SLPC  C316 8307   4.679   5.730   4.294  0.2474  0.2735  0.3095
   86SLPC  H16X 8308   4.712   5.624   4.295  0.4693  0.3199 -0.7215
   86SLPC  H16Y 8309   4.569   5.734   4.281  0.3219  1.6086  0.0188
   86SLPC  C317 8310   4.711   5.796   4.430 -0.1307 -0.8573 -0.4953
   86SLPC  H17X 8311   4.680   5.902   4.441  2.6452  0.1777 -1.7593
   86SLPC  H17Y 8312   4.822   5.800   4.438 -0.1400  1.6635 -0.8071
   86SLPC  C318 8313   4.652   5.717   4.555 -0.4873 -0.0453 -0.1870
   86SLPC  H18X 8314   4.687   5.762   4.651 -0.3080 -0.4592 -0.0517
   86SLPC  H18Y 8315   4.681   5.609   4.559 -1.6702 -0.4106 -0.9834
   86SLPC  H18Z 8316   4.541   5.720   4.556 -0.7892 -2.3467 -4.1970
   87SLPC     N 8317   0.743   4.941   2.364  0.7170  0.0163  0.0635
   87SLPC   C13 8318   0.814   4.823   2.317 -0.0102 -0.1662 -0.3550
   87SLPC  H13A 8319   0.875   4.795   2.402  2.0112 -0.2645 -1.7467
   87SLPC  H13B 8320   0.753   4.747   2.271  0.8462 -0.4352 -1.0789
   87SLPC  H13C 8321   0.885   4.846   2.238  0.8444 -0.8488  0.1953
   87SLPC   C14 8322   0.677   5.013   2.250 -0.3367 -0.5787  0.5547
   87SLPC  H14A 8323   0.608   4.951   2.197  2.0247 -3.5820  0.7360
   87SLPC  H14B 8324   0.616   5.098   2.277  0.7470  0.5640 -0.4830
   87SLPC  H14C 8325   0.745   5.037   2.170 -1.1355 -1.1442 -0.3031
   87SLPC   C15 8326   0.843   5.022   2.431  0.1088 -0.4854 -0.3499
   87SLPC  H15A 8327   0.941   5.018   2.385  0.1819 -3.8886 -0.1238
   87SLPC  H15B 8328   0.804   5.123   2.435 -0.6482 -0.6768 -2.0007
   87SLPC  H15C 8329   0.855   4.988   2.532  1.5435 -0.9814 -0.6570
   87SLPC   C12 8330   0.645   4.877   2.470  0.2090 -0.6289 -0.2598
   87SLPC  H12A 8331   0.712   4.825   2.538  1.4438  0.0118 -0.9506
   87SLPC  H12B 8332   0.573   4.809   2.428 -1.9748  1.2577  0.1786
   87SLPC   C11 8333   0.566   4.984   2.563 -0.7081 -0.1762  0.0093
   87SLPC  H11A 8334   0.634   5.034   2.635 -3.2399  4.2588 -0.3164
   87SLPC  H11B 8335   0.497   4.928   2.629 -0.5250 -1.7425 -1.0701
   87SLPC     P 8336   0.530   5.236   2.487  0.2882  0.5980  0.0211
   87SLPC   O13 8337   0.551   5.271   2.343  0.0736 -0.0405  0.5149
   87SLPC   O14 8338   0.428   5.316   2.554  0.2012  0.3483 -0.0103
   87SLPC   O12 8339   0.487   5.087   2.497  0.1548 -0.1661  0.8072
   87SLPC   O11 8340   0.665   5.246   2.563 -0.1323 -0.5760  0.7060
   87SLPC    C1 8341   0.669   5.287   2.696  0.7868 -0.9143 -0.2072
   87SLPC    HA 8342   0.611   5.382   2.699 -0.8894 -1.9107  0.5115
   87SLPC    HB 8343   0.627   5.211   2.765 -0.6503 -1.3351 -1.4989
   87SLPC    C2 8344   0.809   5.315   2.748 -0.1358  0.6015  0.1509
   87SLPC    HS 8345   0.860   5.216   2.760 -1.2516  0.1509  1.3703
   87SLPC   O21 8346   0.812   5.392   2.866 -0.0417  0.3807 -0.1314
   87SLPC   C21 8347   0.759   5.329   2.969  0.0362  0.0056  0.8159
   87SLPC   O22 8348   0.741   5.205   2.976 -0.3182 -0.5009  0.7572
   87SLPC   C22 8349   0.742   5.432   3.087 -0.0864 -0.3359  0.0421
   87SLPC   H2R 8350   0.843   5.466   3.117 -0.7987  1.9458  0.0707
   87SLPC   H2S 8351   0.688   5.522   3.050  0.5648  0.8262  1.8158
   87SLPC    C3 8352   0.898   5.381   2.635  0.2563 -0.4791 -0.6699
   87SLPC    HX 8353   0.818   5.434   2.580 -0.7687  0.3416  1.4838
   87SLPC    HY 8354   0.953   5.306   2.574  0.4057 -2.0428  1.2470
   87SLPC   O31 8355   0.992   5.477   2.686 -0.0464  0.3540  0.0538
   87SLPC   C31 8356   1.100   5.423   2.722  0.1907  0.1242 -0.1935
   87SLPC   O32 8357   1.133   5.303   2.726  0.4226 -0.0394  0.4300
   87SLPC   C32 8358   1.203   5.528   2.748  0.0471 -0.1441  1.0161
   87SLPC   H2X 8359   1.166   5.633   2.750  3.5957  1.3678 -1.1429
   87SLPC   H2Y 8360   1.285   5.525   2.672 -1.8464  2.5475 -1.3415
   87SLPC   C23 8361   0.657   5.385   3.207  0.2910 -0.3566  0.4994
   87SLPC   H3R 8362   0.686   5.284   3.243  0.0333 -0.2162  1.1186
   87SLPC   H3S 8363   0.554   5.367   3.172 -0.1054  1.5974  0.5180
   87SLPC   C24 8364   0.640   5.486   3.322 -0.6493 -0.2734  0.4157
   87SLPC   H4R 8365   0.609   5.586   3.284  0.9831  0.8821  1.9867
   87SLPC   H4S 8366   0.744   5.505   3.358 -0.5366 -1.9157  1.0090
   87SLPC   C25 8367   0.545   5.446   3.436  0.7967  0.2465 -0.3012
   87SLPC   H5R 8368   0.550   5.336   3.453 -2.7347  0.3781  2.6519
   87SLPC   H5S 8369   0.439   5.465   3.411  0.6682  0.9544  0.7469
   87SLPC   C26 8370   0.567   5.515   3.574 -0.3667  0.1040 -0.4799
   87SLPC   H6R 8371   0.577   5.625   3.564 -0.5408  0.2638  0.9403
   87SLPC   H6S 8372   0.666   5.488   3.616  0.0010 -0.2266 -1.5052
   87SLPC   C27 8373   0.471   5.494   3.688 -0.5141 -0.6948  0.9921
   87SLPC   H7R 8374   0.367   5.517   3.657 -0.0624 -0.2102 -0.2185
   87SLPC   H7S 8375   0.508   5.560   3.769 -0.7069  2.0373 -0.9926
   87SLPC   C28 8376   0.478   5.345   3.740  0.2504  0.2599  0.1312
   87SLPC   H8R 8377   0.582   5.347   3.781  1.0320 -1.1033 -1.6552
   87SLPC   H8S 8378   0.462   5.268   3.662  0.2007 -0.6406  1.0134
   87SLPC   C29 8379   0.374   5.331   3.849  0.3710 -0.1677  0.2811
   87SLPC   H9R 8380   0.406   5.373   3.945 -0.9877 -0.3073  0.8200
   87SLPC  C210 8381   0.243   5.291   3.851  0.1185  0.4232 -0.4584
   87SLPC  H10R 8382   0.190   5.283   3.947  0.9264  0.6344  0.0185
   87SLPC  C211 8383   0.166   5.233   3.737  0.5159  0.4950 -0.2456
   87SLPC  H11R 8384   0.107   5.142   3.761 -1.1056  1.6262  0.2325
   87SLPC  H11S 8385   0.236   5.197   3.659  1.0768 -1.2624  0.9945
   87SLPC  C212 8386   0.059   5.323   3.671  0.0325  0.0145  0.0867
   87SLPC  H12R 8387   0.038   5.298   3.566 -0.8852 -2.1894  0.7254
   87SLPC  C213 8388  -0.044   5.388   3.731 -0.6154  0.4217 -0.0220
   87SLPC  H13R 8389  -0.124   5.415   3.661  0.2463  0.6623 -0.9428
   87SLPC  C214 8390  -0.071   5.393   3.883  0.3898  0.7900  0.2822
   87SLPC  H14R 8391  -0.001   5.326   3.938 -0.4994  0.2833  0.8201
   87SLPC  H14S 8392  -0.175   5.356   3.893  0.8327 -0.6453 -0.1458
   87SLPC  C215 8393  -0.066   5.535   3.936  0.3007 -0.2361  0.4430
   87SLPC  H15R 8394  -0.103   5.524   4.041 -2.2541  1.6953 -0.1512
   87SLPC  H15S 8395  -0.134   5.610   3.890 -0.1301 -0.6955  0.3150
   87SLPC  C216 8396   0.075   5.585   3.949 -0.7257 -0.6134 -0.2013
   87SLPC  H16R 8397   0.128   5.579   3.852 -3.3050 -1.0880 -1.6766
   87SLPC  H16S 8398   0.137   5.525   4.019  1.3395 -0.2940 -1.6739
   87SLPC  C217 8399   0.090   5.731   3.999  0.1438  0.5086 -0.0138
   87SLPC  H17R 8400   0.028   5.793   3.931  0.5242  1.7466  0.7258
   87SLPC  H17S 8401   0.194   5.767   3.988 -0.6651  3.2888  0.6800
   87SLPC  C218 8402   0.037   5.746   4.148 -0.2913  0.6122 -0.1205
   87SLPC  H18R 8403   0.077   5.665   4.212 -2.1346  0.9843  1.5978
   87SLPC  H18S 8404  -0.072   5.728   4.155 -0.6334  2.2851 -0.6469
   87SLPC  H18T 8405   0.063   5.846   4.190  0.8129  0.4371 -0.3588
   87SLPC   C33 8406   1.276   5.505   2.881 -0.9086 -0.3822  0.4622
   87SLPC   H3X 8407   1.371   5.563   2.881  1.1058 -3.1904 -3.2686
   87SLPC   H3Y 8408   1.312   5.400   2.893  0.1892 -0.0924 -0.1010
   87SLPC   C34 8409   1.192   5.540   3.010 -0.1105 -0.1100  0.3106
   87SLPC   H4X 8410   1.115   5.463   3.032  0.6448 -0.1076  3.3297
   87SLPC   H4Y 8411   1.134   5.634   2.996 -0.1302 -0.1325  0.2396
   87SLPC   C35 8412   1.270   5.558   3.132 -0.2344  0.0051  0.2004
   87SLPC   H5X 8413   1.212   5.610   3.212 -2.9769  2.3215 -2.9510
   87SLPC   H5Y 8414   1.355   5.629   3.123  1.5669 -1.9012  1.2381
   87SLPC   C36 8415   1.333   5.424   3.181  0.9227  0.3549 -0.0379
   87SLPC   H6X 8416   1.410   5.403   3.104  0.7103 -0.8335  0.0607
   87SLPC   H6Y 8417   1.256   5.344   3.168  2.0305 -0.4855 -1.9248
   87SLPC   C37 8418   1.373   5.430   3.329  0.2662  0.7999  1.2004
   87SLPC   H7X 8419   1.409   5.330   3.359 -0.6318  0.6561  1.8124
   87SLPC   H7Y 8420   1.278   5.448   3.383  0.9294 -0.5950  2.9042
   87SLPC   C38 8421   1.468   5.541   3.389 -0.5886 -0.0741 -0.2471
   87SLPC   H8X 8422   1.419   5.640   3.373 -0.5312  0.1177  0.6848
   87SLPC   H8Y 8423   1.564   5.540   3.334 -0.4817  1.0076 -0.0967
   87SLPC   C39 8424   1.500   5.524   3.538 -0.4296 -0.9622  0.7011
   87SLPC   H9X 8425   1.584   5.592   3.562  0.1183 -1.5134  0.3496
   87SLPC   H9Y 8426   1.543   5.422   3.549  0.1063 -1.3488 -3.4524
   87SLPC  C310 8427   1.379   5.528   3.635  0.2161  0.1017  0.2678
   87SLPC  H10X 8428   1.301   5.454   3.607  0.3379  0.4282 -0.9959
   87SLPC  H10Y 8429   1.336   5.630   3.624  0.1952 -0.0713 -1.5425
   87SLPC  C311 8430   1.401   5.476   3.780  0.5639 -0.7474 -0.3105
   87SLPC  H11X 8431   1.461   5.541   3.846  0.2382 -0.1997 -0.5490
   87SLPC  H11Y 8432   1.448   5.376   3.768  1.8237 -0.0685 -1.3537
   87SLPC  C312 8433   1.265   5.446   3.860 -0.0502 -0.6976 -0.0009
   87SLPC  H12X 8434   1.199   5.380   3.799 -1.6614 -0.1463  1.0831
   87SLPC  H12Y 8435   1.199   5.535   3.865 -1.0456 -1.4710  1.0592
   87SLPC  C313 8436   1.279   5.393   4.005 -0.1652 -0.1683 -0.7910
   87SLPC  H13X 8437   1.174   5.392   4.042  0.4557 -1.3177  1.0811
   87SLPC  H13Y 8438   1.346   5.459   4.064  3.0984 -2.1137 -2.0124
   87SLPC  C314 8439   1.348   5.256   4.007  0.4144  0.2870  0.3189
   87SLPC  H14X 8440   1.457   5.264   3.989  0.4481 -0.9231 -0.1174
   87SLPC  H14Y 8441   1.304   5.188   3.930 -0.3354  2.1956 -1.0153
   87SLPC  C315 8442   1.356   5.196   4.146  0.2931 -0.2094 -0.5802
   87SLPC  H15X 8443   1.391   5.271   4.221  0.2112 -0.7621  0.0114
   87SLPC  H15Y 8444   1.425   5.109   4.144  0.1245 -0.3513 -0.2144
   87SLPC  C316 8445   1.213   5.151   4.204 -0.6594 -0.5791 -0.3536
   87SLPC  H16X 8446   1.183   5.071   4.133  1.0959 -1.9957  0.4115
   87SLPC  H16Y 8447   1.131   5.224   4.193  0.5216  0.4474 -3.4747
   87SLPC  C317 8448   1.224   5.101   4.345  0.8697 -0.7434  0.1304
   87SLPC  H17X 8449   1.253   5.179   4.419 -1.1147  1.6441 -1.4314
   87SLPC  H17Y 8450   1.306   5.026   4.343  2.7528  1.1653  1.4645
   87SLPC  C318 8451   1.099   5.041   4.403  0.6227 -0.3900  0.9252
   87SLPC  H18X 8452   1.022   5.120   4.390  1.9635  0.6247 -1.6250
   87SLPC  H18Y 8453   1.103   5.016   4.511 -0.0000 -0.5738  0.9121
   87SLPC  H18Z 8454   1.065   4.952   4.344  2.5019 -0.0479 -0.7862
   88SLPC     N 8455   4.513   5.462   2.419 -0.1425 -0.2513 -0.9064
   88SLPC   C13 8456   4.376   5.474   2.362 -0.7811 -0.3564 -0.4237
   88SLPC  H13A 8457   4.304   5.407   2.408 -1.3557 -0.0191 -0.8220
   88SLPC  H13B 8458   4.337   5.575   2.370  0.8825  0.1731  1.8757
   88SLPC  H13C 8459   4.377   5.446   2.258 -0.2196 -0.5623 -0.3677
   88SLPC   C14 8460   4.524   5.494   2.564 -0.3191 -0.6583  0.0004
   88SLPC  H14A 8461   4.627   5.486   2.593 -0.3365  0.8225  0.5695
   88SLPC  H14B 8462   4.508   5.601   2.569  0.4877 -0.5346  0.1016
   88SLPC  H14C 8463   4.460   5.439   2.632 -0.6438 -1.8255 -1.2136
   88SLPC   C15 8464   4.607   5.548   2.341 -0.5566 -0.3786 -0.4332
   88SLPC  H15A 8465   4.710   5.535   2.371 -0.8120  0.7652  1.1155
   88SLPC  H15B 8466   4.591   5.521   2.238 -1.9590 -0.7130 -0.1584
   88SLPC  H15C 8467   4.587   5.653   2.359  3.0861  0.2512  0.6880
   88SLPC   C12 8468   4.556   5.319   2.397 -0.0037 -0.3638  0.5619
   88SLPC  H12A 8469   4.661   5.317   2.422  0.9555  1.3168 -2.7437
   88SLPC  H12B 8470   4.556   5.308   2.290  1.4321 -0.8138  0.5908
   88SLPC   C11 8471   4.482   5.202   2.458 -0.4969 -0.2106  0.8543
   88SLPC  H11A 8472   4.510   5.113   2.397 -1.4798  1.6932 -2.7194
   88SLPC  H11B 8473   4.372   5.220   2.455 -0.5461 -0.3983  1.4104
   88SLPC     P 8474   4.513   5.064   2.675 -0.0871  0.0146 -0.1246
   88SLPC   O13 8475   4.389   5.006   2.616 -0.1745 -0.4179 -0.1758
   88SLPC   O14 8476   4.632   4.980   2.665 -0.3950  0.2054 -0.7944
   88SLPC   O12 8477   4.522   5.203   2.596  0.3986 -0.1941 -0.0042
   88SLPC   O11 8478   4.488   5.108   2.827  0.2582 -0.0209  0.2943
   88SLPC    C1 8479   4.366   5.178   2.854 -0.4149 -0.5461 -0.4280
   88SLPC    HA 8480   4.364   5.272   2.796 -0.6048  0.5663  1.3037
   88SLPC    HB 8481   4.275   5.117   2.834 -2.0805  1.6228  0.1641
   88SLPC    C2 8482   4.358   5.228   3.002  0.1704  0.0927 -0.2595
   88SLPC    HS 8483   4.287   5.312   3.015  0.1265 -0.1212  0.9515
   88SLPC   O21 8484   4.483   5.275   3.056  0.2172  0.2888  0.1750
   88SLPC   C21 8485   4.530   5.390   3.017 -0.1511  0.2000 -0.2935
   88SLPC   O22 8486   4.472   5.471   2.946  0.6751  0.6083 -0.7203
   88SLPC   C22 8487   4.674   5.404   3.069  0.3336 -0.3202 -0.2786
   88SLPC   H2R 8488   4.714   5.313   3.118 -0.3011  0.3421  1.5745
   88SLPC   H2S 8489   4.743   5.417   2.983  1.6514 -2.5043  0.3628
   88SLPC    C3 8490   4.304   5.113   3.093  0.4842 -0.1577  1.5537
   88SLPC    HX 8491   4.351   5.013   3.080 -0.7217 -0.4296 -1.6091
   88SLPC    HY 8492   4.198   5.110   3.060  0.9253  1.2676 -0.1100
   88SLPC   O31 8493   4.306   5.156   3.226  0.5037 -0.8566 -0.4378
   88SLPC   C31 8494   4.416   5.129   3.299  0.5383  0.1081 -0.1237
   88SLPC   O32 8495   4.508   5.063   3.267 -0.2769  0.6428  0.0932
   88SLPC   C32 8496   4.403   5.202   3.430 -0.4756 -0.0640 -0.6394
   88SLPC   H2X 8497   4.370   5.304   3.399 -1.1635 -0.1198 -0.1226
   88SLPC   H2Y 8498   4.504   5.222   3.471 -0.3232 -0.5256 -0.7827
   88SLPC   C23 8499   4.691   5.521   3.168 -0.3768 -0.2188 -0.4106
   88SLPC   H3R 8500   4.644   5.604   3.112  0.6505 -0.8314 -2.2658
   88SLPC   H3S 8501   4.800   5.528   3.189 -0.4739 -3.5627  1.9007
   88SLPC   C24 8502   4.637   5.492   3.310 -0.5711  0.3168 -0.0857
   88SLPC   H4R 8503   4.665   5.390   3.344 -1.5289  0.7929  2.2969
   88SLPC   H4S 8504   4.527   5.508   3.321 -0.3834  0.6311  1.6068
   88SLPC   C25 8505   4.701   5.582   3.419 -0.1149  0.1902  0.7311
   88SLPC   H5R 8506   4.654   5.682   3.408 -1.5843 -0.5694 -0.2905
   88SLPC   H5S 8507   4.808   5.598   3.397 -0.3842  1.0022 -0.0272
   88SLPC   C26 8508   4.682   5.535   3.556 -0.5495  0.2407 -1.0484
   88SLPC   H6R 8509   4.754   5.577   3.630 -0.2044 -0.7980 -0.7762
   88SLPC   H6S 8510   4.710   5.428   3.550 -2.7900 -0.3734 -1.3409
   88SLPC   C27 8511   4.543   5.536   3.602  0.8035 -0.0777 -0.0022
   88SLPC   H7R 8512   4.480   5.489   3.524  3.2397 -4.2635  0.2753
   88SLPC   H7S 8513   4.497   5.635   3.623 -1.2061 -0.4449 -2.2914
   88SLPC   C28 8514   4.518   5.446   3.720  0.7167  0.2548  1.3252
   88SLPC   H8R 8515   4.554   5.349   3.679  1.0769  0.7605  0.4134
   88SLPC   H8S 8516   4.410   5.427   3.735  0.5717 -0.0983 -0.0190
   88SLPC   C29 8517   4.597   5.481   3.842  0.4480 -0.2628 -0.1193
   88SLPC   H9R 8518   4.690   5.534   3.814  0.0281 -0.0799 -1.2132
   88SLPC  C210 8519   4.554   5.461   3.968  0.0655 -0.4759 -0.2414
   88SLPC  H10R 8520   4.612   5.509   4.049 -0.2890  0.7160 -0.6716
   88SLPC  C211 8521   4.443   5.378   4.016 -0.5744 -0.1002  0.0540
   88SLPC  H11R 8522   4.375   5.342   3.936 -0.5665 -0.2061  0.0947
   88SLPC  H11S 8523   4.384   5.438   4.089 -0.4238  2.3427 -1.7218
   88SLPC  C212 8524   4.499   5.255   4.087 -0.4823 -0.4112 -0.3963
   88SLPC  H12R 8525   4.560   5.187   4.026  0.5968  0.9925 -0.9393
   88SLPC  C213 8526   4.477   5.205   4.209  0.7796 -0.0636  0.1280
   88SLPC  H13R 8527   4.528   5.117   4.251 -1.0344 -1.6427 -0.8434
   88SLPC  C214 8528   4.423   5.286   4.326  0.6223 -0.0645 -0.4726
   88SLPC  H14R 8529   4.396   5.219   4.411 -1.1966  0.5719 -0.4919
   88SLPC  H14S 8530   4.331   5.342   4.299  1.5818  2.1850  0.6900
   88SLPC  C215 8531   4.538   5.388   4.361 -1.1325  0.3001  0.0950
   88SLPC  H15R 8532   4.498   5.451   4.444 -0.4765  2.8109 -1.3916
   88SLPC  H15S 8533   4.551   5.451   4.271  2.1340 -1.9902 -1.2045
   88SLPC  C216 8534   4.679   5.322   4.401 -0.1148  0.0157 -1.3803
   88SLPC  H16R 8535   4.750   5.398   4.438  1.7059 -2.4831  0.5797
   88SLPC  H16S 8536   4.732   5.291   4.309  2.3918 -0.8680  0.2613
   88SLPC  C217 8537   4.667   5.219   4.516 -0.6256  0.5129  0.1908
   88SLPC  H17R 8538   4.617   5.128   4.478  0.3149  0.3704 -0.7276
   88SLPC  H17S 8539   4.606   5.257   4.601 -0.2754  2.1463 -0.2545
   88SLPC  C218 8540   4.809   5.195   4.564 -0.1518 -0.0684  0.1393
   88SLPC  H18R 8541   4.812   5.099   4.620 -0.5911  0.3024  0.8190
   88SLPC  H18S 8542   4.845   5.274   4.633 -0.0428  0.2503 -0.2726
   88SLPC  H18T 8543   4.881   5.201   4.480 -0.6263 -1.3345 -0.3802
   88SLPC   C33 8544   4.317   5.132   3.532 -0.6941 -0.2555 -0.8508
   88SLPC   H3X 8545   4.218   5.101   3.494 -0.1362 -1.1672 -1.6092
   88SLPC   H3Y 8546   4.309   5.213   3.607  0.1353 -1.9431  1.1554
   88SLPC   C34 8547   4.386   5.025   3.627 -0.0630  0.5083 -0.5674
   88SLPC   H4X 8548   4.474   5.071   3.677 -1.2263  1.5316  0.6494
   88SLPC   H4Y 8549   4.410   4.942   3.558  0.7534 -0.6812  1.0819
   88SLPC   C35 8550   4.294   4.965   3.739  0.4552  0.7378 -0.5844
   88SLPC   H5X 8551   4.238   4.880   3.694  1.0813 -0.1075  0.1892
   88SLPC   H5Y 8552   4.213   5.033   3.770 -1.1926 -1.8079  1.1656
   88SLPC   C36 8553   4.371   4.911   3.864  0.0513 -0.0965  0.4711
   88SLPC   H6X 8554   4.449   4.982   3.898  0.4687 -0.3750  0.1008
   88SLPC   H6Y 8555   4.426   4.828   3.813  1.0511  0.0143  1.3391
   88SLPC   C37 8556   4.286   4.854   3.977  0.4666 -0.3324  0.6586
   88SLPC   H7X 8557   4.262   4.748   3.953 -0.0143 -0.3183  1.0637
   88SLPC   H7Y 8558   4.186   4.902   3.987  1.2104  1.0370  1.7613
   88SLPC   C38 8559   4.351   4.855   4.114  0.1268  0.3685  0.1563
   88SLPC   H8X 8560   4.383   4.958   4.141  1.7386  0.0609 -0.5269
   88SLPC   H8Y 8561   4.444   4.798   4.095  0.5789  0.4153  2.0488
   88SLPC   C39 8562   4.277   4.781   4.229  0.2295  0.0445 -0.0610
   88SLPC   H9X 8563   4.292   4.675   4.201 -1.3307  0.2635 -2.0417
   88SLPC   H9Y 8564   4.170   4.813   4.223  0.8451  2.1960 -0.5157
   88SLPC  C310 8565   4.314   4.808   4.371 -0.5406  0.2963 -0.0113
   88SLPC  H10X 8566   4.368   4.902   4.393  1.3873 -1.3742  3.1675
   88SLPC  H10Y 8567   4.374   4.718   4.397 -2.1840 -1.0945 -0.8283
   88SLPC  C311 8568   4.202   4.801   4.474  1.1799  0.2756 -0.6903
   88SLPC  H11X 8569   4.165   4.696   4.472 -0.0350  0.6827 -0.6673
   88SLPC  H11Y 8570   4.107   4.852   4.445 -0.1185  0.2102  2.8555
   88SLPC  C312 8571   4.242   4.853   4.610  0.3939  0.5979 -0.3033
   88SLPC  H12X 8572   4.302   4.946   4.600 -1.0510  1.6812  0.6834
   88SLPC  H12Y 8573   4.289   4.769   4.665  1.4249  0.6787 -1.0340
   88SLPC  C313 8574   4.115   4.847   4.703  0.2393  0.5160  0.4249
   88SLPC  H13X 8575   4.071   4.745   4.704  0.8953  0.2200  2.1818
   88SLPC  H13Y 8576   4.030   4.913   4.677  0.0180  0.0045 -0.1909
   88SLPC  C314 8577   4.151   4.881   4.848 -0.2368 -0.1289 -0.5499
   88SLPC  H14X 8578   4.172   4.990   4.863 -0.9289  0.1269 -1.3834
   88SLPC  H14Y 8579   4.242   4.826   4.880 -0.1379  0.3550  0.0427
   88SLPC  C315 8580   4.032   4.851   4.947  0.6025 -0.0623  0.3025
   88SLPC  H15X 8581   4.079   4.832   5.045  1.6307  1.2597  0.0964
   88SLPC  H15Y 8582   3.979   4.761   4.908 -1.7524 -0.0506  3.1955
   88SLPC  C316 8583   3.924   4.954   4.960 -0.5240 -0.6663 -0.0633
   88SLPC  H16X 8584   3.880   4.953   4.858 -2.1445  1.0572  0.5563
   88SLPC  H16Y 8585   3.972   5.054   4.969  0.8930 -1.2889 -0.5377
   88SLPC  C317 8586   3.827   4.934   5.075  0.0206  0.8522 -0.9370
   88SLPC  H17X 8587   3.730   4.983   5.051 -0.6651 -1.0898 -2.4438
   88SLPC  H17Y 8588   3.874   4.976   5.167  1.5197 -1.7051 -0.4315
   88SLPC  C318 8589   3.775   4.791   5.090 -0.2139  0.2531 -0.3484
   88SLPC  H18X 8590   3.760   4.749   4.989  0.1840  1.2715 -0.8458
   88SLPC  H18Y 8591   3.682   4.806   5.150  0.3080  1.3797  0.2196
   88SLPC  H18Z 8592   3.838   4.727   5.156 -0.1946  0.8634  0.2457
   89SAPE     N 8593   2.790   1.641   6.605 -0.2806 -0.6954 -0.3074
   89SAPE   HN1 8594   2.687   1.657   6.602 -0.3811 -0.6253  1.7881
   89SAPE   HN2 8595   2.809   1.641   6.707 -1.5776 -0.3994 -0.0463
   89SAPE   HN3 8596   2.830   1.733   6.577 -1.1340  0.4843  2.0434
   89SAPE   C12 8597   2.832   1.521   6.517  0.1582  0.8182 -0.1170
   89SAPE  H12A 8598   2.777   1.435   6.561 -0.6060  0.6830 -1.2945
   89SAPE  H12B 8599   2.943   1.515   6.524  0.2516  1.9427 -0.4880
   89SAPE   C11 8600   2.809   1.550   6.366  0.4282  0.1123  0.3332
   89SAPE  H11A 8601   2.839   1.465   6.301 -0.5296 -0.5320  0.6978
   89SAPE  H11B 8602   2.864   1.641   6.334  0.0331  0.2693  0.0913
   89SAPE     P 8603   2.595   1.684   6.287 -0.3671 -0.1909 -0.2737
   89SAPE   O13 8604   2.450   1.672   6.294  0.1962  0.1600 -0.1107
   89SAPE   O14 8605   2.658   1.802   6.350  0.3596 -0.3356  0.4396
   89SAPE   O12 8606   2.670   1.561   6.347 -0.1197  0.2900 -0.1811
   89SAPE   O11 8607   2.644   1.681   6.140 -0.2093 -0.1464 -0.4362
   89SAPE    C1 8608   2.637   1.565   6.050 -1.1404  0.1140 -0.5926
   89SAPE    HA 8609   2.740   1.529   6.033 -0.6496 -0.0640  2.3407
   89SAPE    HB 8610   2.568   1.489   6.093 -1.1360 -0.0192 -0.8168
   89SAPE    C2 8611   2.557   1.610   5.925  0.1736  0.4454  0.6306
   89SAPE    HS 8612   2.534   1.522   5.861  1.1882  0.2709  0.4926
   89SAPE   O21 8613   2.636   1.710   5.851 -0.3540  0.0880  0.5183
   89SAPE   C21 8614   2.632   1.705   5.721 -0.5038 -0.1260 -0.2616
   89SAPE   O22 8615   2.576   1.621   5.652 -0.1102 -0.7742 -0.0320
   89SAPE   C22 8616   2.710   1.821   5.658  0.5716  0.0854  0.1475
   89SAPE   H2R 8617   2.645   1.908   5.682 -1.6482 -1.9884  2.1622
   89SAPE   H2S 8618   2.809   1.832   5.709  0.7710  3.7788 -0.7798
   89SAPE    C3 8619   2.413   1.667   5.959  0.3187  0.7314  0.4415
   89SAPE    HX 8620   2.433   1.762   6.012 -0.7011  0.5346  1.2210
   89SAPE    HY 8621   2.366   1.601   6.035  2.6739  1.2667  2.5062
   89SAPE   O31 8622   2.331   1.686   5.836 -0.7264  0.4192  0.1234
   89SAPE   C31 8623   2.287   1.572   5.779 -0.0493  0.5153  0.3418
   89SAPE   O32 8624   2.309   1.458   5.819  0.2212  0.1111 -0.2648
   89SAPE   C32 8625   2.203   1.620   5.658 -0.2700  1.3116  0.0261
   89SAPE   H2X 8626   2.271   1.691   5.607 -0.5182  0.1093 -2.0791
   89SAPE   H2Y 8627   2.121   1.688   5.690 -1.5303  0.2412 -0.8339
   89SAPE   C23 8628   2.743   1.784   5.510  0.1456 -0.1851  0.2304
   89SAPE   H3R 8629   2.779   1.679   5.503  0.0850 -0.1685 -0.4665
   89SAPE   H3S 8630   2.817   1.859   5.478 -2.0219  2.0213  0.0765
   89SAPE   C24 8631   2.627   1.799   5.406  0.3728  0.1224  0.3760
   89SAPE   H4R 8632   2.555   1.722   5.440  1.0159  0.0909  1.7614
   89SAPE   H4S 8633   2.676   1.759   5.315 -0.6217 -1.0406  0.3264
   89SAPE   C25 8634   2.560   1.935   5.394 -0.0674 -0.1676 -0.0144
   89SAPE   H5R 8635   2.609   2.015   5.451  0.6037 -0.8658  0.4107
   89SAPE   C26 8636   2.439   1.961   5.337 -0.5175 -0.2493  0.4639
   89SAPE   H6R 8637   2.388   2.058   5.335 -1.3033 -0.6547 -0.9433
   89SAPE   C27 8638   2.352   1.854   5.270 -0.1120 -0.7068 -0.3811
   89SAPE   H7R 8639   2.254   1.848   5.322  0.4955  0.1733  0.8954
   89SAPE   H7S 8640   2.388   1.749   5.283 -1.4879 -1.0402  1.0377
   89SAPE   C28 8641   2.320   1.892   5.123  0.5439 -0.1081 -0.5906
   89SAPE   H8R 8642   2.255   1.980   5.113  2.8974  2.0405  1.4303
   89SAPE   C29 8643   2.363   1.832   5.009 -0.4444  0.5131 -0.3032
   89SAPE   H9R 8644   2.344   1.875   4.909 -2.2179 -1.9810 -1.1439
   89SAPE  C210 8645   2.434   1.703   5.003 -0.6011  0.3109 -0.2894
   89SAPE  H10R 8646   2.391   1.637   4.925 -0.5601 -1.3015  0.9767
   89SAPE  H10S 8647   2.400   1.643   5.091  2.3419  0.6607  1.2144
   89SAPE  C211 8648   2.587   1.722   5.003 -0.4913 -0.4130  0.3937
   89SAPE  H11R 8649   2.622   1.798   5.075 -0.1774 -0.8977  0.7548
   89SAPE  C212 8650   2.673   1.679   4.918 -0.4998  0.2816  0.0326
   89SAPE  H12R 8651   2.777   1.710   4.936 -0.4572  0.2782 -0.1934
   89SAPE  C213 8652   2.657   1.584   4.802  0.2758  0.1279 -1.1891
   89SAPE  H13R 8653   2.549   1.559   4.796  0.0987  0.6254 -0.1715
   89SAPE  H13S 8654   2.715   1.491   4.822  1.6081  1.3912  1.2934
   89SAPE  C214 8655   2.693   1.638   4.667  0.0063  0.8647  0.0581
   89SAPE  H14R 8656   2.618   1.713   4.637 -1.6400 -0.3860  0.8823
   89SAPE  C215 8657   2.789   1.598   4.585  0.3921 -0.3972 -0.4309
   89SAPE  H15R 8658   2.804   1.651   4.490  1.8937 -1.6425 -0.9358
   89SAPE  C216 8659   2.894   1.486   4.611 -0.5319 -0.3268 -0.6458
   89SAPE  H16R 8660   2.919   1.437   4.515  2.1220  1.1591 -0.7967
   89SAPE  H16S 8661   2.855   1.404   4.675  0.0791 -0.1011  0.0259
   89SAPE  C217 8662   3.031   1.529   4.676 -1.0367  0.0723  0.2143
   89SAPE  H17R 8663   3.064   1.626   4.632 -1.2364 -0.5684 -1.4093
   89SAPE  H17S 8664   3.109   1.452   4.662 -1.8224 -1.3653  2.9758
   89SAPE  C218 8665   3.020   1.537   4.827  0.0140 -0.4669  0.1348
   89SAPE  H18R 8666   2.990   1.432   4.849 -1.9229 -0.2860 -1.3829
   89SAPE  H18S 8667   2.943   1.606   4.867 -0.8742 -0.0443 -2.1441
   89SAPE  C219 8668   3.157   1.569   4.894 -0.1119 -0.0730 -0.1515
   89SAPE  H19R 8669   3.179   1.663   4.839  0.4537  0.5799  1.1531
   89SAPE  H19S 8670   3.231   1.491   4.865 -1.9463 -1.4279 -1.3881
   89SAPE  C220 8671   3.158   1.600   5.046  0.4924 -0.5676 -0.2510
   89SAPE  H20R 8672   3.058   1.633   5.083 -0.8301 -1.3096 -2.8577
   89SAPE  H20S 8673   3.240   1.672   5.065  0.2789  0.4758 -2.7651
   89SAPE  H20T 8674   3.191   1.509   5.100  1.9572 -0.3173 -0.6822
   89SAPE   C33 8675   2.162   1.512   5.554 -0.2179  0.1459  0.1856
   89SAPE   H3X 8676   2.095   1.439   5.604 -0.8154  1.5333  1.4811
   89SAPE   H3Y 8677   2.255   1.455   5.537  0.1771  0.8891 -0.1790
   89SAPE   C34 8678   2.104   1.566   5.423  0.3527 -0.6462 -0.7969
   89SAPE   H4X 8679   2.177   1.639   5.381 -0.8533  0.8163 -0.4196
   89SAPE   H4Y 8680   2.011   1.624   5.441 -0.5762 -2.1828 -0.4469
   89SAPE   C35 8681   2.085   1.462   5.316  0.1283  0.1025 -0.3945
   89SAPE   H5X 8682   2.014   1.386   5.355  0.6731 -0.3127 -0.2033
   89SAPE   H5Y 8683   2.179   1.419   5.274  0.0710 -0.8019  0.3713
   89SAPE   C36 8684   2.022   1.519   5.194 -0.7572  0.4409 -0.6366
   89SAPE   H6X 8685   2.072   1.614   5.166  0.9169 -0.6094 -1.3514
   89SAPE   H6Y 8686   1.915   1.540   5.218 -0.6954 -1.0835  1.1617
   89SAPE   C37 8687   2.030   1.429   5.069  0.1055 -0.5991 -0.5599
   89SAPE   H7X 8688   2.009   1.322   5.094 -0.9617  0.0559  1.6330
   89SAPE   H7Y 8689   2.138   1.435   5.044  0.3517 -0.8146  0.4089
   89SAPE   C38 8690   1.952   1.490   4.952 -0.4117  0.4123  0.3880
   89SAPE   H8X 8691   1.963   1.600   4.941  2.5245  0.3414  1.7731
   89SAPE   H8Y 8692   1.843   1.474   4.963 -0.2155 -1.0210  0.4836
   89SAPE   C39 8693   1.997   1.438   4.816 -0.1092  0.3246 -0.2096
   89SAPE   H9X 8694   1.927   1.450   4.731  0.2482 -0.1934 -0.5833
   89SAPE   H9Y 8695   2.008   1.329   4.836  0.1889  0.5668  1.0331
   89SAPE  C310 8696   2.133   1.480   4.768 -1.0611  0.4049 -0.0279
   89SAPE  H10X 8697   2.212   1.474   4.845 -2.6044 -0.7305  1.5342
   89SAPE  H10Y 8698   2.126   1.590   4.753 -1.2802  0.5737  1.2704
   89SAPE  C311 8699   2.167   1.434   4.624  0.2711 -0.9349 -0.3636
   89SAPE  H11X 8700   2.074   1.452   4.567  1.1176 -0.3235 -1.6130
   89SAPE  H11Y 8701   2.171   1.323   4.630 -0.8010 -0.9395  0.5723
   89SAPE  C312 8702   2.285   1.492   4.552 -0.0776  0.1450  0.3673
   89SAPE  H12X 8703   2.380   1.447   4.589  1.3348  3.3519  0.9028
   89SAPE  H12Y 8704   2.291   1.599   4.580  0.1301 -0.3767  2.5118
   89SAPE  C313 8705   2.295   1.473   4.400  0.1120  0.4985 -0.7141
   89SAPE  H13X 8706   2.218   1.540   4.356 -2.5873 -0.8205  1.6658
   89SAPE  H13Y 8707   2.260   1.370   4.378  0.4883 -0.0737  1.1441
   89SAPE  C314 8708   2.433   1.499   4.334 -0.5861  0.2877 -0.0145
   89SAPE  H14X 8709   2.456   1.607   4.333  1.2648 -0.0509  1.1305
   89SAPE  H14Y 8710   2.412   1.474   4.228 -1.6164 -0.1171  0.2722
   89SAPE  C315 8711   2.550   1.413   4.389 -0.0990  0.0155  0.4944
   89SAPE  H15X 8712   2.509   1.314   4.421  0.6932  0.4385  3.0377
   89SAPE  H15Y 8713   2.586   1.453   4.486  0.6206 -0.1595  0.3077
   89SAPE  C316 8714   2.655   1.410   4.281  0.4121 -0.1987 -0.0259
   89SAPE  H16X 8715   2.699   1.512   4.286 -1.1914  0.4589  2.4032
   89SAPE  H16Y 8716   2.607   1.411   4.181 -1.9094  2.8212  0.9859
   89SAPE  C317 8717   2.754   1.302   4.295  0.2963 -0.1102 -0.2632
   89SAPE  H17X 8718   2.690   1.213   4.275  0.1424 -0.2059  0.6140
   89SAPE  H17Y 8719   2.784   1.288   4.401 -2.0335 -1.4017  0.2864
   89SAPE  C318 8720   2.875   1.309   4.205 -0.2191  0.2175 -0.5571
   89SAPE  H18X 8721   2.854   1.324   4.097  2.3548 -0.5316 -1.2427
   89SAPE  H18Y 8722   2.943   1.223   4.220 -1.7090 -1.0267 -0.6925
   89SAPE  H18Z 8723   2.939   1.395   4.233  1.4639 -0.1672 -2.9164
   90SAPE     N 8724   1.885   0.386   6.176  0.2674 -0.8194  0.3376
   90SAPE   HN1 8725   1.880   0.393   6.280  0.2766  3.0260  0.2346
   90SAPE   HN2 8726   1.930   0.468   6.130 -1.3687 -0.9682 -1.6587
   90SAPE   HN3 8727   1.784   0.394   6.152  0.3044  1.4620  0.7363
   90SAPE   C12 8728   1.930   0.252   6.120  1.0459  0.1638  0.1332
   90SAPE  H12A 8729   1.915   0.249   6.010 -0.4713 -0.3956  0.3285
   90SAPE  H12B 8730   1.867   0.174   6.167  1.1697  0.1368  0.2527
   90SAPE   C11 8731   2.077   0.219   6.156  0.4062 -0.0566  0.1915
   90SAPE  H11A 8732   2.148   0.281   6.097 -1.0028  0.2719 -1.2648
   90SAPE  H11B 8733   2.097   0.112   6.133  0.6272  0.0329 -0.0372
   90SAPE     P 8734   2.176   0.319   6.380  0.1607 -0.0743  0.0370
   90SAPE   O13 8735   2.093   0.442   6.402  0.1517  0.2966 -0.0404
   90SAPE   O14 8736   2.233   0.257   6.504  0.1862 -0.1785  0.9723
   90SAPE   O12 8737   2.092   0.215   6.302  0.2351 -0.3291  0.0514
   90SAPE   O11 8738   2.296   0.361   6.285 -0.2646 -0.6027 -0.1324
   90SAPE    C1 8739   2.377   0.251   6.246 -0.0843 -0.3703  0.3367
   90SAPE    HA 8740   2.452   0.225   6.324  0.6756  1.6771  0.3737
   90SAPE    HB 8741   2.314   0.161   6.234 -1.5940  0.4029  2.1247
   90SAPE    C2 8742   2.457   0.282   6.114 -0.8865  0.0084  0.0698
   90SAPE    HS 8743   2.510   0.376   6.142 -2.9193  0.9687  0.8556
   90SAPE   O21 8744   2.361   0.293   6.011  1.2717 -0.3346 -0.5750
   90SAPE   C21 8745   2.369   0.414   5.947 -0.7361  0.2486 -0.5601
   90SAPE   O22 8746   2.457   0.498   5.960 -0.0163  0.1500 -0.4780
   90SAPE   C22 8747   2.256   0.420   5.845 -0.2160  0.6552  0.0922
   90SAPE   H2R 8748   2.209   0.321   5.826 -0.9385  0.6330  1.7968
   90SAPE   H2S 8749   2.182   0.492   5.887  1.3170  1.8651  0.8137
   90SAPE    C3 8750   2.549   0.155   6.099 -0.4403 -1.0834  0.4556
   90SAPE    HX 8751   2.475   0.072   6.097 -1.7362  0.0522 -1.8186
   90SAPE    HY 8752   2.618   0.144   6.186 -0.9147  0.1073  1.0002
   90SAPE   O31 8753   2.622   0.158   5.976  0.0396 -0.3876 -0.4257
   90SAPE   C31 8754   2.701   0.261   5.966 -0.6475  0.1811 -0.0256
   90SAPE   O32 8755   2.738   0.339   6.054  0.2063 -0.6729  0.0835
   90SAPE   C32 8756   2.759   0.259   5.826  0.3884  0.2733 -0.4793
   90SAPE   H2X 8757   2.826   0.170   5.812  0.2081 -0.0222  0.5042
   90SAPE   H2Y 8758   2.816   0.353   5.808  0.5236  0.0274 -1.4386
   90SAPE   C23 8759   2.310   0.473   5.715 -0.2291  0.8420  0.4716
   90SAPE   H3R 8760   2.358   0.387   5.663 -1.0926  1.5905 -1.6799
   90SAPE   H3S 8761   2.374   0.562   5.730 -0.8577  1.4529 -0.3838
   90SAPE   C24 8762   2.201   0.510   5.615 -0.1291 -0.1763  0.4669
   90SAPE   H4R 8763   2.148   0.416   5.590 -0.0068  0.5585 -3.0086
   90SAPE   H4S 8764   2.250   0.549   5.523  0.6988 -1.2242  0.4410
   90SAPE   C25 8765   2.096   0.604   5.669  0.2187  0.4846 -0.9146
   90SAPE   H5R 8766   2.125   0.698   5.717 -0.9704  0.3610  0.0921
   90SAPE   C26 8767   1.962   0.581   5.665 -0.0027 -0.3812  0.5182
   90SAPE   H6R 8768   1.895   0.660   5.705 -0.2443  0.0577 -0.6990
   90SAPE   C27 8769   1.887   0.474   5.592 -0.0294  0.0222 -0.4580
   90SAPE   H7R 8770   1.909   0.470   5.483  3.6174  1.1715  0.1075
   90SAPE   H7S 8771   1.781   0.504   5.581  0.1470  0.7805 -0.1728
   90SAPE   C28 8772   1.896   0.331   5.651  0.2050 -0.0147  0.4089
   90SAPE   H8R 8773   1.969   0.323   5.733  0.4348  2.5141  0.5407
   90SAPE   C29 8774   1.815   0.221   5.621 -0.6860  0.1849 -0.1779
   90SAPE   H9R 8775   1.825   0.126   5.676  0.5556  0.2636 -0.2292
   90SAPE  C210 8776   1.702   0.238   5.517  0.4344 -0.1523 -0.8007
   90SAPE  H10R 8777   1.739   0.296   5.429 -2.9264  0.5045 -1.9325
   90SAPE  H10S 8778   1.627   0.304   5.567  2.3006  0.8838  0.7647
   90SAPE  C211 8779   1.638   0.113   5.465  0.5354  0.0998  0.6052
   90SAPE  H11R 8780   1.597   0.051   5.546 -0.3803 -0.7955 -0.5189
   90SAPE  C212 8781   1.635   0.057   5.340  0.2921 -0.0787  0.4069
   90SAPE  H12R 8782   1.573  -0.033   5.332 -0.4505  0.6141 -3.6475
   90SAPE  C213 8783   1.695   0.099   5.204 -0.1828  0.5982 -0.2377
   90SAPE  H13R 8784   1.798   0.059   5.189 -0.7502 -0.9916 -0.0369
   90SAPE  H13S 8785   1.704   0.210   5.208  1.2597  0.5333 -0.8190
   90SAPE  C214 8786   1.605   0.065   5.095  0.0168  1.1193  0.8179
   90SAPE  H14R 8787   1.503   0.105   5.107 -1.6520 -1.7757 -2.1999
   90SAPE  C215 8788   1.623  -0.015   4.987 -0.0192  0.8057 -0.3250
   90SAPE  H15R 8789   1.535  -0.031   4.922  0.4241 -0.5929 -0.6043
   90SAPE  C216 8790   1.749  -0.091   4.953  0.5270  0.3985 -0.5048
   90SAPE  H16R 8791   1.742  -0.201   4.945  2.4096  0.1763  0.3839
   90SAPE  H16S 8792   1.820  -0.074   5.037 -0.0819 -1.9006  0.5342
   90SAPE  C217 8793   1.820  -0.029   4.833 -0.4748  0.3418  0.1447
   90SAPE  H17R 8794   1.830   0.080   4.849  0.5875  0.3545 -0.5166
   90SAPE  H17S 8795   1.765  -0.042   4.737  0.3362  2.7137 -0.6955
   90SAPE  C218 8796   1.964  -0.081   4.818 -0.0490 -0.2958  1.1113
   90SAPE  H18R 8797   1.953  -0.192   4.816 -0.5748 -0.2528 -1.2303
   90SAPE  H18S 8798   2.018  -0.066   4.914  2.8722 -0.1609 -0.4661
   90SAPE  C219 8799   2.044   0.000   4.716 -0.0075 -0.0639  0.4111
   90SAPE  H19R 8800   2.033   0.108   4.742 -1.2184  0.0440 -0.4786
   90SAPE  H19S 8801   1.994  -0.011   4.618 -2.6542  0.8929  1.5413
   90SAPE  C220 8802   2.191  -0.035   4.728  0.1155  0.0729 -0.1099
   90SAPE  H20R 8803   2.197  -0.145   4.718  1.0603  0.2391 -1.8873
   90SAPE  H20S 8804   2.240   0.003   4.821  2.1770 -0.5363 -0.8828
   90SAPE  H20T 8805   2.238  -0.002   4.633  0.9107  0.9186  0.5567
   90SAPE   C33 8806   2.645   0.240   5.712  0.3647  0.4302 -0.5570
   90SAPE   H3X 8807   2.576   0.326   5.700 -0.5199 -0.1760  0.0191
   90SAPE   H3Y 8808   2.581   0.159   5.753  2.9448 -0.4274  2.1707
   90SAPE   C34 8809   2.688   0.201   5.573 -0.0484  0.6209  0.0392
   90SAPE   H4X 8810   2.604   0.178   5.503  0.6134 -1.6043 -0.0950
   90SAPE   H4Y 8811   2.743   0.105   5.583 -0.4942  0.3693  0.1033
   90SAPE   C35 8812   2.777   0.307   5.507 -0.7742  0.2337  0.1217
   90SAPE   H5X 8813   2.864   0.328   5.574 -0.7792  0.4439  0.0639
   90SAPE   H5Y 8814   2.722   0.404   5.510 -0.6645  0.2708  1.5920
   90SAPE   C36 8815   2.809   0.284   5.361 -0.6214 -0.4083 -0.3938
   90SAPE   H6X 8816   2.878   0.362   5.322  1.5154 -1.5675  0.8429
   90SAPE   H6Y 8817   2.718   0.264   5.301 -0.5604  0.7542 -0.8839
   90SAPE   C37 8818   2.909   0.162   5.352 -0.4248  0.1182  0.7957
   90SAPE   H7X 8819   2.869   0.068   5.395  2.2481 -1.3150  0.3341
   90SAPE   H7Y 8820   2.997   0.175   5.418 -0.5231 -1.8107  1.3800
   90SAPE   C38 8821   2.951   0.131   5.198  0.5028  0.0354  0.0645
   90SAPE   H8X 8822   3.056   0.094   5.200  0.3603 -0.3444  0.7563
   90SAPE   H8Y 8823   2.954   0.227   5.141 -0.8746  0.5812  0.8700
   90SAPE   C39 8824   2.874   0.026   5.118 -0.3474  0.1767  0.7128
   90SAPE   H9X 8825   2.879  -0.072   5.171  0.1310  1.2206  2.6578
   90SAPE   H9Y 8826   2.917   0.009   5.017 -1.1804 -0.4853  0.4575
   90SAPE  C310 8827   2.725   0.053   5.096  0.0545  0.3541 -0.3052
   90SAPE  H10X 8828   2.676   0.076   5.193 -2.7567 -1.3436 -1.1896
   90SAPE  H10Y 8829   2.666  -0.034   5.061 -0.7003 -0.7942  3.3518
   90SAPE  C311 8830   2.690   0.169   5.002  0.2633 -0.1694 -0.0391
   90SAPE  H11X 8831   2.726   0.266   5.042 -0.7205  0.3196 -0.2898
   90SAPE  H11Y 8832   2.580   0.171   4.984  0.4712 -0.9045 -1.5632
   90SAPE  C312 8833   2.745   0.158   4.853  0.2050 -0.3929 -0.2945
   90SAPE  H12X 8834   2.731   0.053   4.816  0.2448 -0.6183  0.3237
   90SAPE  H12Y 8835   2.855   0.164   4.863  0.3165 -0.6558 -1.2313
   90SAPE  C313 8836   2.687   0.261   4.757  0.5507  0.0419  0.5535
   90SAPE  H13X 8837   2.703   0.364   4.798 -1.1491  0.4903  0.1859
   90SAPE  H13Y 8838   2.579   0.241   4.742  0.8306 -0.9402 -0.2458
   90SAPE  C314 8839   2.754   0.248   4.619 -0.5120 -0.7295  1.0226
   90SAPE  H14X 8840   2.862   0.271   4.626  0.3058 -2.9683 -1.9495
   90SAPE  H14Y 8841   2.720   0.324   4.545  1.6180 -0.8593 -0.1519
   90SAPE  C315 8842   2.735   0.109   4.549  0.0987  0.1641 -0.6356
   90SAPE  H15X 8843   2.786   0.025   4.601 -2.4234 -1.4071 -0.5192
   90SAPE  H15Y 8844   2.791   0.124   4.454  2.2042 -1.3815  0.2569
   90SAPE  C316 8845   2.589   0.075   4.533 -0.0624 -0.2935  0.0910
   90SAPE  H16X 8846   2.536   0.060   4.630  0.9553 -0.7123  0.5920
   90SAPE  H16Y 8847   2.584  -0.018   4.472  3.2530 -0.5786  0.0712
   90SAPE  C317 8848   2.514   0.182   4.444  0.0727  0.6064  0.1517
   90SAPE  H17X 8849   2.547   0.195   4.339 -0.2769 -0.0807 -0.0435
   90SAPE  H17Y 8850   2.530   0.277   4.499  1.4886 -0.5570  1.8786
   90SAPE  C318 8851   2.359   0.164   4.441 -0.4761 -0.5052  0.2853
   90SAPE  H18X 8852   2.309   0.240   4.377  0.3290 -0.7197 -0.6222
   90SAPE  H18Y 8853   2.317   0.161   4.544 -0.1279  2.6398  0.6198
   90SAPE  H18Z 8854   2.327   0.066   4.399 -0.5087  0.4128 -1.9618
   91SAPE     N 8855   1.052   1.108   6.667  0.3702 -0.3159  0.0906
   91SAPE   HN1 8856   0.970   1.116   6.731  0.5422 -2.1234  0.6053
   91SAPE   HN2 8857   1.091   1.012   6.660 -0.5568 -0.7799  0.9815
   91SAPE   HN3 8858   1.123   1.177   6.699  0.0914  0.4001 -0.7873
   91SAPE   C12 8859   1.007   1.137   6.524  0.3824  0.2832 -0.3342
   91SAPE  H12A 8860   1.085   1.198   6.474 -0.0433  2.1866  1.2131
   91SAPE  H12B 8861   0.908   1.185   6.536  1.6005  2.1138  4.6515
   91SAPE   C11 8862   0.995   0.998   6.457  0.4953  0.7893 -1.1432
   91SAPE  H11A 8863   1.098   0.957   6.449  0.2294 -1.3195  3.2217
   91SAPE  H11B 8864   0.949   1.013   6.357 -0.7449  0.1893 -0.6809
   91SAPE     P 8865   0.820   0.794   6.492  0.3823 -0.1511 -0.0278
   91SAPE   O13 8866   0.901   0.669   6.466  0.1646 -0.4562  0.2840
   91SAPE   O14 8867   0.709   0.781   6.591 -0.4226  0.0511  0.0702
   91SAPE   O12 8868   0.915   0.911   6.545  0.3380  0.3218 -0.9264
   91SAPE   O11 8869   0.759   0.847   6.359  0.0978  0.4684  0.2819
   91SAPE    C1 8870   0.670   0.963   6.361 -0.0626 -0.5505 -0.6065
   91SAPE    HA 8871   0.673   1.017   6.458  1.4024  0.9751 -1.4594
   91SAPE    HB 8872   0.689   1.033   6.277  0.7050  1.0917  0.8790
   91SAPE    C2 8873   0.525   0.923   6.335 -0.2204 -0.1739  0.1423
   91SAPE    HS 8874   0.491   0.842   6.404  1.4225 -0.5163  0.5850
   91SAPE   O21 8875   0.515   0.863   6.203 -0.3198 -0.1999 -0.4185
   91SAPE   C21 8876   0.417   0.785   6.178  0.2228  0.5250 -0.1029
   91SAPE   O22 8877   0.340   0.733   6.259 -0.4141  0.4279 -0.3990
   91SAPE   C22 8878   0.415   0.765   6.028  0.5714  0.2491 -0.2973
   91SAPE   H2R 8879   0.410   0.868   5.988  0.4271  1.0710  1.7057
   91SAPE   H2S 8880   0.512   0.716   6.002  0.3004 -0.8213  0.6140
   91SAPE    C3 8881   0.421   1.040   6.344  0.3339  0.2964 -0.3600
   91SAPE    HX 8882   0.422   1.061   6.453 -0.7368  0.6353 -0.4072
   91SAPE    HY 8883   0.315   1.010   6.332 -0.2595  0.7798  2.8148
   91SAPE   O31 8884   0.464   1.163   6.289 -0.4456 -1.0474 -0.1101
   91SAPE   C31 8885   0.439   1.171   6.164  0.6485  0.1380 -0.2561
   91SAPE   O32 8886   0.355   1.104   6.106 -0.3082  0.5181  0.1555
   91SAPE   C32 8887   0.507   1.300   6.112 -0.4187 -0.2356 -0.1099
   91SAPE   H2X 8888   0.608   1.295   6.158 -0.4476 -3.1350 -0.1665
   91SAPE   H2Y 8889   0.451   1.388   6.152 -1.0833  0.1092 -1.7439
   91SAPE   C23 8890   0.295   0.688   5.969 -0.1166 -0.7300  0.1623
   91SAPE   H3R 8891   0.193   0.715   6.004  0.4944  2.4730 -0.2197
   91SAPE   H3S 8892   0.313   0.578   5.977  0.9286 -0.4757  1.7964
   91SAPE   C24 8893   0.291   0.699   5.815  0.0962 -0.5460  0.3046
   91SAPE   H4R 8894   0.206   0.640   5.774 -0.3880  1.7531 -2.2738
   91SAPE   H4S 8895   0.383   0.661   5.767  0.4418 -0.1217  0.6273
   91SAPE   C25 8896   0.259   0.842   5.771  0.2912 -0.0597 -1.2531
   91SAPE   H5R 8897   0.236   0.918   5.848  0.0069 -0.9864 -0.4078
   91SAPE   C26 8898   0.282   0.895   5.647 -0.1205  0.5673 -0.6118
   91SAPE   H6R 8899   0.253   1.000   5.633 -1.0610  1.0400  3.6445
   91SAPE   C27 8900   0.327   0.829   5.521  0.4122  0.1248 -0.4751
   91SAPE   H7R 8901   0.433   0.796   5.530  0.5349  0.9239  1.6865
   91SAPE   H7S 8902   0.329   0.906   5.442  0.0305 -0.3947 -0.9946
   91SAPE   C28 8903   0.242   0.715   5.469  0.1889 -0.4729 -0.1427
   91SAPE   H8R 8904   0.138   0.745   5.488  1.3019  2.3870  2.3327
   91SAPE   C29 8905   0.279   0.597   5.422  0.8898  0.4920 -0.0644
   91SAPE   H9R 8906   0.192   0.537   5.392  0.5114  1.7919 -1.6740
   91SAPE  C210 8907   0.412   0.546   5.388 -0.7160 -0.1323 -1.0621
   91SAPE  H10R 8908   0.447   0.481   5.470  1.1000 -0.6572 -2.2079
   91SAPE  H10S 8909   0.487   0.628   5.393 -1.0776  0.1803  3.2793
   91SAPE  C211 8910   0.419   0.477   5.254 -0.2348 -0.1219 -0.4969
   91SAPE  H11R 8911   0.413   0.367   5.261  1.3222 -0.2260 -0.6052
   91SAPE  C212 8912   0.450   0.537   5.134  0.3579 -0.3750 -0.5237
   91SAPE  H12R 8913   0.466   0.478   5.043 -0.0184 -3.1844  1.1082
   91SAPE  C213 8914   0.478   0.683   5.107 -0.5460  0.2584  0.3571
   91SAPE  H13R 8915   0.582   0.701   5.072 -0.6376  0.5047  0.2125
   91SAPE  H13S 8916   0.475   0.736   5.205  3.9986  1.0791  0.2654
   91SAPE  C214 8917   0.378   0.745   5.010  0.0086  0.8588  0.3993
   91SAPE  H14R 8918   0.275   0.722   5.040 -0.6699  2.5506 -0.4953
   91SAPE  C215 8919   0.399   0.826   4.909 -0.3626 -0.6552  0.6147
   91SAPE  H15R 8920   0.312   0.863   4.853  1.0498  1.1959 -0.4596
   91SAPE  C216 8921   0.534   0.876   4.861  0.4476 -0.4316  0.5343
   91SAPE  H16R 8922   0.617   0.862   4.933  1.5560  1.1982 -0.3875
   91SAPE  H16S 8923   0.529   0.985   4.845 -1.4139 -0.6081 -0.3938
   91SAPE  C217 8924   0.574   0.835   4.725  0.3794  0.2250 -0.1837
   91SAPE  H17R 8925   0.578   0.724   4.719 -1.0368  0.1077  0.8229
   91SAPE  H17S 8926   0.678   0.869   4.705  0.2655 -0.3899 -1.9821
   91SAPE  C218 8927   0.489   0.898   4.620  0.4317  0.4934  0.2059
   91SAPE  H18R 8928   0.490   1.009   4.622 -0.9448  0.5266 -0.0966
   91SAPE  H18S 8929   0.383   0.884   4.650  0.6422  1.3818  1.3889
   91SAPE  C219 8930   0.531   0.854   4.481  0.0892 -0.6116  0.0042
   91SAPE  H19R 8931   0.507   0.746   4.468  1.0962 -1.0845  1.8465
   91SAPE  H19S 8932   0.639   0.874   4.468 -0.0571  0.5124  0.3701
   91SAPE  C220 8933   0.456   0.929   4.363  0.0790 -0.7787  0.2298
   91SAPE  H20R 8934   0.488   1.035   4.368 -0.2607 -0.6915  0.6343
   91SAPE  H20S 8935   0.346   0.914   4.361  0.3249 -2.7450 -1.3361
   91SAPE  H20T 8936   0.487   0.886   4.266  0.6407 -2.3479  1.0565
   91SAPE   C33 8937   0.510   1.291   5.951 -0.5408 -0.5113 -0.5204
   91SAPE   H3X 8938   0.416   1.327   5.905 -0.2977 -1.3474 -1.7121
   91SAPE   H3Y 8939   0.508   1.183   5.926  1.2261 -0.3725 -1.4319
   91SAPE   C34 8940   0.637   1.350   5.886 -0.1024 -0.0558  1.2539
   91SAPE   H4X 8941   0.712   1.270   5.868 -1.3435 -1.1797  0.9007
   91SAPE   H4Y 8942   0.691   1.429   5.942  0.3965  0.9177 -0.5076
   91SAPE   C35 8943   0.598   1.406   5.745 -0.2092  0.2883  0.2004
   91SAPE   H5X 8944   0.695   1.424   5.693 -0.2327  1.0514  0.4093
   91SAPE   H5Y 8945   0.548   1.504   5.758 -0.8738  0.4659 -2.8686
   91SAPE   C36 8946   0.500   1.324   5.653 -0.0019 -0.0674  0.1164
   91SAPE   H6X 8947   0.398   1.362   5.677  0.0531 -0.1319  0.4578
   91SAPE   H6Y 8948   0.500   1.215   5.674 -0.9092 -0.4959 -1.8970
   91SAPE   C37 8949   0.515   1.338   5.501 -0.3599  0.3664  0.3059
   91SAPE   H7X 8950   0.450   1.265   5.448  1.2099  0.7422 -2.3220
   91SAPE   H7Y 8951   0.619   1.311   5.476 -1.0572 -1.3013 -1.0271
   91SAPE   C38 8952   0.496   1.485   5.456  0.2182 -0.2637 -0.2060
   91SAPE   H8X 8953   0.574   1.544   5.508 -0.7763  1.2348 -0.3233
   91SAPE   H8Y 8954   0.398   1.514   5.499  0.7204 -1.2361  1.6794
   91SAPE   C39 8955   0.512   1.504   5.301 -0.5714 -0.5784 -0.4729
   91SAPE   H9X 8956   0.438   1.444   5.244 -0.9707 -0.8317  0.2960
   91SAPE   H9Y 8957   0.618   1.479   5.283 -0.3600  0.0165 -0.0934
   91SAPE  C310 8958   0.497   1.656   5.272  0.3795 -0.2752  0.1595
   91SAPE  H10X 8959   0.570   1.710   5.336 -1.5416  2.5584  0.1522
   91SAPE  H10Y 8960   0.396   1.694   5.299  0.5418  1.4729 -1.4863
   91SAPE  C311 8961   0.527   1.693   5.125 -0.1752  0.0147  0.7723
   91SAPE  H11X 8962   0.622   1.639   5.108 -0.2232 -0.2941  1.4694
   91SAPE  H11Y 8963   0.548   1.802   5.122  1.2664 -0.2191  1.4697
   91SAPE  C312 8964   0.423   1.670   5.020  0.2194  0.1638  0.1459
   91SAPE  H12X 8965   0.327   1.715   5.051  0.0520  0.7345 -1.1420
   91SAPE  H12Y 8966   0.408   1.560   5.015 -0.3182  0.2182  0.4853
   91SAPE  C313 8967   0.462   1.725   4.882  0.0227  0.3774 -0.5097
   91SAPE  H13X 8968   0.568   1.694   4.872  0.0928  0.2516  0.5212
   91SAPE  H13Y 8969   0.452   1.835   4.890  2.0414  0.6842 -1.5789
   91SAPE  C314 8970   0.383   1.676   4.763 -0.0114 -0.1200  0.5005
   91SAPE  H14X 8971   0.412   1.573   4.734  0.5803 -0.5675  2.5485
   91SAPE  H14Y 8972   0.399   1.747   4.678  3.1083 -1.7849 -0.4418
   91SAPE  C315 8973   0.234   1.687   4.793 -0.0341 -0.1679  0.9206
   91SAPE  H15X 8974   0.210   1.795   4.808 -0.5958 -0.2931  0.9239
   91SAPE  H15Y 8975   0.203   1.619   4.875 -0.3971 -2.2408 -0.8729
   91SAPE  C316 8976   0.141   1.636   4.676  0.3089  0.2815  0.2258
   91SAPE  H16X 8977   0.042   1.619   4.722 -0.4079  1.1878 -0.9185
   91SAPE  H16Y 8978   0.174   1.534   4.647  0.3539 -0.6524  3.2732
   91SAPE  C317 8979   0.129   1.717   4.546  0.0058 -0.3936 -0.1319
   91SAPE  H17X 8980   0.093   1.658   4.459  1.4172  0.1271 -1.1005
   91SAPE  H17Y 8981   0.226   1.755   4.508 -0.8015 -0.6683 -2.6842
   91SAPE  C318 8982   0.027   1.835   4.545  0.8975  0.4416 -0.3565
   91SAPE  H18X 8983  -0.079   1.807   4.562  1.1981 -0.3542  0.2333
   91SAPE  H18Y 8984   0.034   1.875   4.441 -0.9586 -0.0287 -0.7032
   91SAPE  H18Z 8985   0.066   1.909   4.618 -2.4940  0.0604  2.0817
   92SAPE     N 8986   1.727   2.131   6.755  0.7492 -0.2172  0.3205
   92SAPE   HN1 8987   1.821   2.172   6.769  1.4307 -0.7883 -2.0804
   92SAPE   HN2 8988   1.679   2.124   6.848 -0.4065 -1.5765 -0.3279
   92SAPE   HN3 8989   1.742   2.038   6.711 -2.0440 -1.0544  0.9273
   92SAPE   C12 8990   1.649   2.227   6.665 -0.5782  0.2740 -0.2240
   92SAPE  H12A 8991   1.715   2.239   6.577  0.1483 -0.7585  0.1650
   92SAPE  H12B 8992   1.638   2.322   6.723  1.1743  1.9568 -2.4614
   92SAPE   C11 8993   1.517   2.166   6.616  0.3505  0.6682  0.5845
   92SAPE  H11A 8994   1.535   2.092   6.535 -1.6015 -1.3622  1.8838
   92SAPE  H11B 8995   1.450   2.237   6.563 -0.8309 -0.1757  0.9085
   92SAPE     P 8996   1.324   2.143   6.797  0.0240 -0.1369 -0.1231
   92SAPE   O13 8997   1.278   2.037   6.893 -0.1753  0.6398  0.2864
   92SAPE   O14 8998   1.346   2.279   6.848 -0.4768  0.9693  0.2143
   92SAPE   O12 8999   1.452   2.093   6.723  0.5995 -0.1865  0.4287
   92SAPE   O11 9000   1.221   2.150   6.679 -0.6905  0.4895 -0.1548
   92SAPE    C1 9001   1.171   2.030   6.612 -0.4428 -0.1458 -0.4737
   92SAPE    HA 9002   1.208   1.933   6.652  1.2911  0.4076 -0.6515
   92SAPE    HB 9003   1.061   2.024   6.627 -0.8958  0.4960 -3.1107
   92SAPE    C2 9004   1.198   2.029   6.457 -0.2221 -0.8517  0.7793
   92SAPE    HS 9005   1.305   2.006   6.436 -0.8495 -1.3522 -2.4254
   92SAPE   O21 9006   1.150   2.151   6.403  0.2370  0.1271  0.3234
   92SAPE   C21 9007   1.229   2.216   6.320  0.3074  0.5000  0.5945
   92SAPE   O22 9008   1.346   2.185   6.304  0.7144 -0.3161 -0.5082
   92SAPE   C22 9009   1.153   2.334   6.263  0.2686 -0.5505 -0.6072
   92SAPE   H2R 9010   1.100   2.374   6.352  0.3050 -0.8757 -0.4406
   92SAPE   H2S 9011   1.239   2.395   6.227  0.1334  0.3622  0.5730
   92SAPE    C3 9012   1.143   1.900   6.390  0.4649 -0.5476 -0.3751
   92SAPE    HX 9013   1.037   1.899   6.424  0.7183 -0.6051  0.4305
   92SAPE    HY 9014   1.194   1.819   6.445 -0.3385 -0.9259 -0.1769
   92SAPE   O31 9015   1.139   1.897   6.246 -0.6760 -0.4888 -0.7151
   92SAPE   C31 9016   1.080   1.793   6.195  0.5917  0.1123  0.0257
   92SAPE   O32 9017   1.022   1.704   6.252 -0.6839  0.1244 -0.5198
   92SAPE   C32 9018   1.110   1.796   6.043  0.6281  0.0805 -0.6256
   92SAPE   H2X 9019   1.219   1.776   6.031  0.4099 -1.2923 -0.5813
   92SAPE   H2Y 9020   1.095   1.897   6.001 -1.1241 -0.3598 -1.1329
   92SAPE   C23 9021   1.061   2.291   6.154  0.2555 -0.2645  0.8549
   92SAPE   H3R 9022   0.996   2.375   6.120  2.8325  1.6361  0.2630
   92SAPE   H3S 9023   1.000   2.212   6.202 -2.1699  0.8615 -0.2070
   92SAPE   C24 9024   1.134   2.243   6.030 -0.1076 -0.0340 -0.2354
   92SAPE   H4R 9025   1.206   2.160   6.050  1.4152  1.7255  2.1732
   92SAPE   H4S 9026   1.193   2.325   5.984 -0.4181 -0.8626 -2.2003
   92SAPE   C25 9027   1.026   2.193   5.934  0.0534 -0.7955 -0.5266
   92SAPE   H5R 9028   0.960   2.119   5.981 -0.6830 -0.7719 -1.4943
   92SAPE   C26 9029   1.002   2.235   5.807  0.4101  0.3599 -0.5098
   92SAPE   H6R 9030   0.911   2.196   5.758 -0.6035  1.9414  0.0420
   92SAPE   C27 9031   1.080   2.331   5.717 -0.7558  0.4378  0.1531
   92SAPE   H7R 9032   1.091   2.294   5.613  2.0379  1.9576 -0.1949
   92SAPE   H7S 9033   1.182   2.332   5.763 -0.8195  1.4097  0.3074
   92SAPE   C28 9034   1.023   2.468   5.722  0.0063 -0.6746  0.1013
   92SAPE   H8R 9035   1.023   2.511   5.823 -0.0720  1.4752 -0.7533
   92SAPE   C29 9036   0.965   2.537   5.618  0.2330  0.2844 -1.4076
   92SAPE   H9R 9037   0.930   2.639   5.638 -0.5180 -0.1211 -0.5650
   92SAPE  C210 9038   0.948   2.490   5.475 -1.1530 -0.3411 -0.2144
   92SAPE  H10R 9039   0.878   2.404   5.474 -0.6520 -0.7467 -1.0151
   92SAPE  H10S 9040   1.048   2.456   5.442  0.1527  1.7396  1.3163
   92SAPE  C211 9041   0.898   2.601   5.384  0.2401  0.4551  0.7691
   92SAPE  H11R 9042   0.814   2.664   5.418 -1.9161 -1.0392 -1.4321
   92SAPE  C212 9043   0.939   2.628   5.264  0.0596 -0.2761  0.5189
   92SAPE  H12R 9044   0.894   2.709   5.204  2.5646  0.5993 -0.2900
   92SAPE  C213 9045   1.054   2.550   5.200 -0.3732 -0.7672 -0.2839
   92SAPE  H13R 9046   1.133   2.549   5.278 -0.0783  2.1281 -0.4328
   92SAPE  H13S 9047   1.106   2.618   5.129 -0.2784 -1.9435 -1.3607
   92SAPE  C214 9048   1.034   2.426   5.123  0.1353 -0.4044 -0.3369
   92SAPE  H14R 9049   0.933   2.381   5.127 -0.0515  0.0323 -0.0998
   92SAPE  C215 9050   1.126   2.356   5.057 -0.6114 -0.2991  0.0224
   92SAPE  H15R 9051   1.089   2.264   5.011  0.8607 -0.5031 -0.8088
   92SAPE  C216 9052   1.272   2.396   5.037  0.9791 -0.1144  0.3946
   92SAPE  H16R 9053   1.334   2.305   5.055  0.5872 -0.5164 -0.2671
   92SAPE  H16S 9054   1.296   2.481   5.104 -1.1420  1.4661 -0.7427
   92SAPE  C217 9055   1.299   2.452   4.896 -0.0867  0.1331  0.1065
   92SAPE  H17R 9056   1.263   2.380   4.819 -0.4403  0.8510 -0.4029
   92SAPE  H17S 9057   1.403   2.489   4.882 -0.0582  0.6730  1.5628
   92SAPE  C218 9058   1.225   2.587   4.874  0.4080 -0.0396 -0.5113
   92SAPE  H18R 9059   1.261   2.675   4.932 -1.1404  0.9867 -1.0277
   92SAPE  H18S 9060   1.118   2.582   4.906 -0.0150  0.9805 -1.6834
   92SAPE  C219 9061   1.233   2.620   4.729  0.1212  0.1020 -0.6035
   92SAPE  H19R 9062   1.205   2.526   4.677 -1.4483 -0.4278  1.1050
   92SAPE  H19S 9063   1.334   2.639   4.686  0.2653 -2.7434 -1.7085
   92SAPE  C220 9064   1.132   2.728   4.687 -0.1088 -0.5880  0.3841
   92SAPE  H20R 9065   1.158   2.828   4.729  2.2811 -1.8384  2.2055
   92SAPE  H20S 9066   1.032   2.694   4.720  0.6114 -1.8003  1.3982
   92SAPE  H20T 9067   1.123   2.729   4.577 -2.1224 -0.1591  0.5172
   92SAPE   C33 9068   1.037   1.679   5.958 -0.6196  0.3652 -0.2704
   92SAPE   H3X 9069   0.930   1.705   5.949 -0.4487  0.5940 -1.8455
   92SAPE   H3Y 9070   1.056   1.591   6.023  1.8425  0.9484 -0.1121
   92SAPE   C34 9071   1.098   1.668   5.822 -0.1583  0.3401  0.1743
   92SAPE   H4X 9072   1.203   1.631   5.826  1.1611  3.6800 -0.2961
   92SAPE   H4Y 9073   1.095   1.767   5.771 -0.7168  0.7126  0.9275
   92SAPE   C35 9074   1.013   1.579   5.734  0.2234 -0.1971 -0.1690
   92SAPE   H5X 9075   0.908   1.603   5.762  0.7337  2.9461 -0.5798
   92SAPE   H5Y 9076   1.026   1.473   5.763 -0.0106 -0.6023 -1.4792
   92SAPE   C36 9077   1.056   1.592   5.584  0.1007  0.8091 -0.0302
   92SAPE   H6X 9078   1.161   1.561   5.567 -0.8080 -1.2505 -2.6166
   92SAPE   H6Y 9079   1.059   1.692   5.537 -0.8336  1.4022  1.0939
   92SAPE   C37 9080   0.973   1.491   5.506  0.5877  0.0872  1.2484
   92SAPE   H7X 9081   0.866   1.499   5.535  0.2724 -0.0793  0.1833
   92SAPE   H7Y 9082   0.992   1.385   5.533  1.3151  0.1689  1.0819
   92SAPE   C38 9083   0.984   1.509   5.352  1.1430  0.5619  0.5622
   92SAPE   H8X 9084   0.976   1.610   5.305  0.2078 -0.6332 -2.0157
   92SAPE   H8Y 9085   0.898   1.455   5.307  0.8554  0.2186  1.5091
   92SAPE   C39 9086   1.108   1.445   5.288 -0.3718  0.7721 -0.2285
   92SAPE   H9X 9087   1.116   1.340   5.322  0.8149  0.7099 -0.6587
   92SAPE   H9Y 9088   1.195   1.497   5.333 -2.4852  1.8686  2.9955
   92SAPE  C310 9089   1.107   1.457   5.140 -0.6133  0.0740 -0.1205
   92SAPE  H10X 9090   1.096   1.567   5.130  1.5169  0.7559  3.2547
   92SAPE  H10Y 9091   1.019   1.417   5.086 -0.2512 -0.9660  0.0436
   92SAPE  C311 9092   1.233   1.409   5.067  0.2689  0.2237 -0.2381
   92SAPE  H11X 9093   1.246   1.299   5.072 -3.4441 -0.4464 -1.9125
   92SAPE  H11Y 9094   1.330   1.458   5.092 -0.6125  1.8726  0.0877
   92SAPE  C312 9095   1.225   1.433   4.910 -0.1936  0.2120 -0.4879
   92SAPE  H12X 9096   1.120   1.434   4.875 -1.0754 -0.7296  1.9222
   92SAPE  H12Y 9097   1.268   1.341   4.864  0.4892 -0.6596  1.7612
   92SAPE  C313 9098   1.294   1.560   4.859  0.6904 -0.5667 -0.4203
   92SAPE  H13X 9099   1.316   1.623   4.947  0.0786 -1.4650  0.3990
   92SAPE  H13Y 9100   1.217   1.618   4.804 -0.7911 -0.9180  1.1852
   92SAPE  C314 9101   1.417   1.521   4.769 -0.3949 -0.0844 -0.3747
   92SAPE  H14X 9102   1.389   1.476   4.671  1.8480 -2.8433  0.1147
   92SAPE  H14Y 9103   1.480   1.448   4.825 -2.8172 -2.7325 -0.9096
   92SAPE  C315 9104   1.518   1.640   4.747 -0.0763  0.0796  0.1045
   92SAPE  H15X 9105   1.574   1.662   4.840 -0.7611 -0.5543  0.6754
   92SAPE  H15Y 9106   1.465   1.736   4.727 -0.8624 -0.5546 -0.9390
   92SAPE  C316 9107   1.632   1.604   4.647 -0.4479 -0.0000  0.1040
   92SAPE  H16X 9108   1.587   1.585   4.547 -0.9110  0.6564  0.1812
   92SAPE  H16Y 9109   1.672   1.503   4.673  1.4037  0.3811 -1.0708
   92SAPE  C317 9110   1.739   1.709   4.652  0.3103 -0.0209  0.0776
   92SAPE  H17X 9111   1.794   1.721   4.747  1.2457 -1.8313 -0.1999
   92SAPE  H17Y 9112   1.692   1.810   4.645 -0.5494 -0.2303  2.1370
   92SAPE  C318 9113   1.838   1.698   4.534 -0.8309  0.7335  0.1324
   92SAPE  H18X 9114   1.874   1.592   4.527 -0.6458  0.7711  0.4586
   92SAPE  H18Y 9115   1.931   1.748   4.568  0.1704 -0.7543 -0.2884
   92SAPE  H18Z 9116   1.796   1.722   4.435 -0.3875 -1.4368 -0.6516
   93SAPE     N 9117   5.275   2.556   6.738 -0.2739 -0.4376 -0.3654
   93SAPE   HN1 9118   5.236   2.538   6.832  4.3423  0.1750  1.9109
   93SAPE   HN2 9119   5.373   2.583   6.757 -0.9289  1.3489  0.7481
   93SAPE   HN3 9120   5.229   2.640   6.696  0.6444 -1.2186 -3.1595
   93SAPE   C12 9121   5.253   2.440   6.647  0.5757 -0.3685 -0.2187
   93SAPE  H12A 9122   5.296   2.469   6.548  0.3861 -1.3896 -0.6128
   93SAPE  H12B 9123   5.143   2.426   6.635 -0.0734  2.5406  1.3361
   93SAPE   C11 9124   5.331   2.323   6.693  0.3388 -0.4313  0.0474
   93SAPE  H11A 9125   5.282   2.229   6.659 -1.0764  0.6830 -1.1406
   93SAPE  H11B 9126   5.312   2.317   6.802  0.4557 -1.0987  0.0327
   93SAPE     P 9127   5.558   2.199   6.663  0.2020 -0.0781 -0.1166
   93SAPE   O13 9128   5.695   2.227   6.620  0.5150  0.3603 -0.0276
   93SAPE   O14 9129   5.549   2.135   6.801 -0.2019  0.2817  0.1385
   93SAPE   O12 9130   5.470   2.330   6.654  0.3085 -0.1985  0.0035
   93SAPE   O11 9131   5.486   2.099   6.567  0.1110 -0.5524 -0.0858
   93SAPE    C1 9132   5.453   2.141   6.435  0.8884 -0.3937  0.4561
   93SAPE    HA 9133   5.352   2.188   6.438 -0.0791 -2.2519 -0.9675
   93SAPE    HB 9134   5.528   2.208   6.390 -1.0017  0.4918 -1.5677
   93SAPE    C2 9135   5.431   2.030   6.332  0.2041 -0.2628 -0.2522
   93SAPE    HS 9136   5.345   1.967   6.361 -0.7024  0.8419 -0.4801
   93SAPE   O21 9137   5.559   1.968   6.325 -0.1207 -0.3081 -0.6686
   93SAPE   C21 9138   5.566   1.841   6.283 -0.8326 -0.1946 -0.0889
   93SAPE   O22 9139   5.475   1.766   6.259  0.1632  0.5332 -0.2085
   93SAPE   C22 9140   5.712   1.807   6.285 -0.0365 -0.1149  0.0483
   93SAPE   H2R 9141   5.766   1.889   6.233 -0.8082 -1.6859 -3.6267
   93SAPE   H2S 9142   5.731   1.804   6.394 -0.6087  1.1082  0.1978
   93SAPE    C3 9143   5.381   2.078   6.185  0.0765 -0.0357  0.2433
   93SAPE    HX 9144   5.449   2.163   6.161  0.3346  0.1865  1.6647
   93SAPE    HY 9145   5.281   2.125   6.203  0.5010  1.6266 -1.4309
   93SAPE   O31 9146   5.381   1.974   6.087 -0.2871 -0.3453  0.0937
   93SAPE   C31 9147   5.273   1.975   6.005 -0.2058  0.1630  0.5582
   93SAPE   O32 9148   5.179   2.048   6.013 -0.0383 -0.1108 -0.2384
   93SAPE   C32 9149   5.283   1.856   5.904  0.2774 -0.6239 -0.6492
   93SAPE   H2X 9150   5.199   1.788   5.928  0.2707 -0.6936 -0.8671
   93SAPE   H2Y 9151   5.379   1.802   5.917  0.0502 -1.0087 -0.5518
   93SAPE   C23 9152   5.751   1.682   6.201 -0.0734 -0.6601 -0.1362
   93SAPE   H3R 9153   5.699   1.592   6.242 -0.8285 -0.1079  0.1408
   93SAPE   H3S 9154   5.858   1.659   6.219 -0.3867 -1.6769  0.5094
   93SAPE   C24 9155   5.716   1.688   6.052 -0.4150  1.2534  0.8104
   93SAPE   H4R 9156   5.608   1.708   6.039 -0.7546 -1.4220 -1.4824
   93SAPE   H4S 9157   5.732   1.586   6.010  0.3600  1.2810  1.0270
   93SAPE   C25 9158   5.771   1.797   5.969 -0.4679  0.1904  0.2196
   93SAPE   H5R 9159   5.766   1.896   6.016 -0.1736 -0.7093  2.2616
   93SAPE   C26 9160   5.837   1.780   5.851  0.4136 -0.2463  0.5768
   93SAPE   H6R 9161   5.880   1.875   5.816 -2.1237  0.4139 -1.0691
   93SAPE   C27 9162   5.851   1.658   5.764  0.1797 -0.5549  0.1154
   93SAPE   H7R 9163   5.816   1.682   5.661  1.2934  0.8416  0.0339
   93SAPE   H7S 9164   5.792   1.574   5.806 -1.3218  0.6032  0.4548
   93SAPE   C28 9165   6.000   1.635   5.755 -0.3944 -0.6587 -0.3143
   93SAPE   H8R 9166   6.059   1.669   5.841 -1.2405  1.6640 -0.5826
   93SAPE   C29 9167   6.073   1.581   5.650  0.1839  0.0767 -0.0615
   93SAPE   H9R 9168   6.179   1.557   5.666 -0.0249 -0.8411 -0.0238
   93SAPE  C210 9169   6.014   1.522   5.518 -0.0903 -0.0947  0.1371
   93SAPE  H10R 9170   5.916   1.474   5.533  0.9647 -1.4651  3.3662
   93SAPE  H10S 9171   6.072   1.433   5.485 -2.7358 -2.1618  0.7587
   93SAPE  C211 9172   6.014   1.623   5.406  0.2833 -0.4911 -1.0816
   93SAPE  H11R 9173   5.947   1.707   5.430  0.5084 -0.1836 -1.5185
   93SAPE  C212 9174   6.070   1.613   5.284  0.3574  0.2254  0.0140
   93SAPE  H12R 9175   6.053   1.693   5.210  0.6256 -0.4034 -0.7463
   93SAPE  C213 9176   6.177   1.515   5.247 -0.4538 -0.0742  0.4104
   93SAPE  H13R 9177   6.136   1.443   5.174 -0.2234  0.6038 -0.4004
   93SAPE  H13S 9178   6.208   1.453   5.335  2.3933  0.8635  0.1692
   93SAPE  C214 9179   6.303   1.586   5.200  0.2712 -0.0922 -0.1616
   93SAPE  H14R 9180   6.308   1.598   5.091  3.2927 -1.7285 -0.3359
   93SAPE  C215 9181   6.401   1.639   5.274  0.6348  1.0783  0.7771
   93SAPE  H15R 9182   6.468   1.703   5.215  0.4498  1.5519  1.0724
   93SAPE  C216 9183   6.416   1.628   5.422  0.5539 -0.4499  0.4686
   93SAPE  H16R 9184   6.506   1.564   5.431  1.5076  0.7715  0.0615
   93SAPE  H16S 9185   6.333   1.568   5.464  0.8268 -0.1592  1.4522
   93SAPE  C217 9186   6.415   1.766   5.495 -0.5206  0.3746  0.2288
   93SAPE  H17R 9187   6.314   1.809   5.486 -1.2314 -1.3849 -0.8260
   93SAPE  H17S 9188   6.490   1.825   5.438 -0.3496  0.5906  0.6753
   93SAPE  C218 9189   6.470   1.766   5.638  0.9234 -0.0862  0.2188
   93SAPE  H18R 9190   6.404   1.694   5.690  0.0206  1.7808  1.8008
   93SAPE  H18S 9191   6.454   1.860   5.695 -0.2941  0.2272 -0.5836
   93SAPE  C219 9192   6.616   1.717   5.656 -0.1968  0.2707  0.4632
   93SAPE  H19R 9193   6.677   1.810   5.653 -0.9778  0.7919 -2.0103
   93SAPE  H19S 9194   6.639   1.652   5.569 -3.4094 -1.0369  0.4611
   93SAPE  C220 9195   6.643   1.648   5.791 -0.4367  0.4583  0.7877
   93SAPE  H20R 9196   6.596   1.548   5.803 -1.1001  0.8802  1.8269
   93SAPE  H20S 9197   6.612   1.716   5.873 -0.1430 -0.7738  1.9652
   93SAPE  H20T 9198   6.752   1.630   5.809 -0.2195 -0.0839 -0.8468
   93SAPE   C33 9199   5.264   1.900   5.758 -0.0761 -0.3732  0.3513
   93SAPE   H3X 9200   5.169   1.959   5.757  0.3416  0.3533  1.2308
   93SAPE   H3Y 9201   5.240   1.808   5.701  1.6972 -1.0194  0.6017
   93SAPE   C34 9202   5.388   1.985   5.717  0.4633  0.6668  0.3593
   93SAPE   H4X 9203   5.429   2.053   5.794 -0.4895  1.2456  0.3754
   93SAPE   H4Y 9204   5.367   2.048   5.628  2.4238 -0.6497 -1.1085
   93SAPE   C35 9205   5.494   1.892   5.661  0.4375 -0.1691  0.3036
   93SAPE   H5X 9206   5.448   1.795   5.634  1.5838 -0.2552 -1.5855
   93SAPE   H5Y 9207   5.559   1.870   5.748  0.9661 -2.6552 -0.6292
   93SAPE   C36 9208   5.568   1.950   5.536  0.1684 -0.4231  0.0800
   93SAPE   H6X 9209   5.605   2.052   5.561 -0.4863  0.4645 -2.2845
   93SAPE   H6Y 9210   5.493   1.952   5.454 -0.9535 -2.5258  0.9881
   93SAPE   C37 9211   5.688   1.865   5.500  0.5276  0.3016  0.1588
   93SAPE   H7X 9212   5.656   1.759   5.515 -1.1813  0.4246 -2.1033
   93SAPE   H7Y 9213   5.768   1.890   5.573 -0.6812  1.4718  1.1256
   93SAPE   C38 9214   5.727   1.873   5.356  0.6767  0.2253 -0.6283
   93SAPE   H8X 9215   5.819   1.814   5.337  0.1149 -0.8219 -0.2116
   93SAPE   H8Y 9216   5.747   1.979   5.329  1.9691  0.9936  2.8102
   93SAPE   C39 9217   5.615   1.804   5.267  0.0949 -0.0958 -0.1623
   93SAPE   H9X 9218   5.521   1.861   5.257  0.3692  0.2073 -1.1399
   93SAPE   H9Y 9219   5.576   1.705   5.301  0.9746 -0.7923 -1.1297
   93SAPE  C310 9220   5.668   1.791   5.120  0.3323 -0.3431 -0.5136
   93SAPE  H10X 9221   5.716   1.884   5.083 -0.5750  0.3667  0.0488
   93SAPE  H10Y 9222   5.580   1.771   5.055 -0.5096  0.6233  0.2769
   93SAPE  C311 9223   5.774   1.685   5.106 -0.9454  0.0518  0.1740
   93SAPE  H11X 9224   5.738   1.605   5.174  0.1003 -0.6506 -0.0760
   93SAPE  H11Y 9225   5.869   1.727   5.146 -1.8839  1.9295  0.5205
   93SAPE  C312 9226   5.783   1.621   4.966  0.8802  0.7449  0.9886
   93SAPE  H12X 9227   5.792   1.699   4.887 -2.0089 -0.9072 -1.1478
   93SAPE  H12Y 9228   5.695   1.560   4.938  0.7832  1.3932 -0.2031
   93SAPE  C313 9229   5.912   1.540   4.942 -0.6141  0.5467  0.0169
   93SAPE  H13X 9230   5.927   1.481   5.035 -0.3293 -0.0629 -0.4145
   93SAPE  H13Y 9231   5.997   1.610   4.930  0.3501 -0.5609  0.2608
   93SAPE  C314 9232   5.898   1.446   4.822  0.0693 -0.5330 -0.3642
   93SAPE  H14X 9233   5.822   1.368   4.843 -1.2408  0.1403 -2.3485
   93SAPE  H14Y 9234   5.994   1.391   4.805  1.1905  1.6673 -1.6950
   93SAPE  C315 9235   5.873   1.517   4.681 -0.0557 -0.4578  0.4257
   93SAPE  H15X 9236   5.796   1.597   4.691 -0.2953 -0.4395 -1.3174
   93SAPE  H15Y 9237   5.833   1.439   4.613 -1.5494  1.2286 -0.7298
   93SAPE  C316 9238   5.999   1.566   4.613 -0.9132  0.1939 -0.2627
   93SAPE  H16X 9239   6.064   1.476   4.612  1.0060  1.5176 -0.3992
   93SAPE  H16Y 9240   6.051   1.639   4.679 -2.8720  1.1237  0.3112
   93SAPE  C317 9241   5.980   1.620   4.470  0.0015  0.2027 -0.5662
   93SAPE  H17X 9242   5.913   1.708   4.482 -0.4323  0.0169 -1.5612
   93SAPE  H17Y 9243   5.919   1.547   4.413  1.9613 -2.4374  0.4943
   93SAPE  C318 9244   6.111   1.650   4.388 -0.3756 -0.7768  0.8074
   93SAPE  H18X 9245   6.201   1.659   4.453 -0.0855  1.3689  0.1962
   93SAPE  H18Y 9246   6.102   1.746   4.332  1.1579 -1.2884 -0.3718
   93SAPE  H18Z 9247   6.136   1.571   4.315  2.1124  0.2195  0.4887
   94SAPE     N 9248   2.334   2.320   6.278  0.3371  0.9766 -0.0016
   94SAPE   HN1 9249   2.264   2.390   6.246  1.1043  0.9947 -1.7313
   94SAPE   HN2 9250   2.412   2.318   6.209  0.7277  1.1464  0.4259
   94SAPE   HN3 9251   2.285   2.229   6.291 -1.4094  2.0249  1.3117
   94SAPE   C12 9252   2.380   2.349   6.416 -0.5204  0.5150  0.3218
   94SAPE  H12A 9253   2.448   2.435   6.398  2.6995 -2.2798 -2.2588
   94SAPE  H12B 9254   2.431   2.255   6.448 -1.4570  0.1962  0.9141
   94SAPE   C11 9255   2.260   2.384   6.501 -1.0096 -0.3220 -0.4285
   94SAPE  H11A 9256   2.225   2.486   6.473 -3.6172 -1.4256 -1.5348
   94SAPE  H11B 9257   2.293   2.385   6.607 -2.4698  1.9618  0.0767
   94SAPE     P 9258   2.018   2.320   6.567 -0.5386 -0.2185 -0.0049
   94SAPE   O13 9259   1.978   2.190   6.619  0.4897 -0.4416  0.4089
   94SAPE   O14 9260   2.050   2.431   6.662 -0.2111 -0.3877 -0.1864
   94SAPE   O12 9261   2.151   2.292   6.484 -0.0562 -0.2463  0.7707
   94SAPE   O11 9262   1.920   2.363   6.445  0.4157  0.5721  0.4842
   94SAPE    C1 9263   1.879   2.261   6.348 -0.2638 -0.0338  0.1517
   94SAPE    HA 9264   1.903   2.157   6.376 -0.5227 -0.3600 -0.7954
   94SAPE    HB 9265   1.772   2.266   6.318  0.2297  0.7273 -1.6140
   94SAPE    C2 9266   1.953   2.292   6.214  0.0853  0.9223 -0.2070
   94SAPE    HS 9267   2.059   2.284   6.247 -0.3225 -1.9399  0.6661
   94SAPE   O21 9268   1.913   2.425   6.169  0.1461  0.0798 -0.1710
   94SAPE   C21 9269   2.003   2.521   6.181  0.2200  0.7513 -0.1937
   94SAPE   O22 9270   2.118   2.505   6.219  0.6842  0.1899 -0.2410
   94SAPE   C22 9271   1.941   2.645   6.126  0.0848 -0.4221  0.9310
   94SAPE   H2R 9272   1.920   2.621   6.020 -0.5956 -0.0614  0.9758
   94SAPE   H2S 9273   1.851   2.677   6.184 -1.4953 -1.7306 -0.6919
   94SAPE    C3 9274   1.936   2.188   6.098 -0.8182 -0.6864  0.5882
   94SAPE    HX 9275   1.825   2.193   6.092 -0.7731  0.0619  0.2869
   94SAPE    HY 9276   1.978   2.096   6.143  0.3397  0.9639  3.1508
   94SAPE   O31 9277   1.992   2.236   5.974  0.1448 -0.2846 -0.2217
   94SAPE   C31 9278   2.128   2.240   5.970 -0.1642 -0.2522 -0.1905
   94SAPE   O32 9279   2.197   2.220   6.067 -0.7024  0.9420 -1.1682
   94SAPE   C32 9280   2.188   2.287   5.836  0.1538  0.4318  0.0101
   94SAPE   H2X 9281   2.112   2.255   5.761  0.0581 -1.2979  0.8051
   94SAPE   H2Y 9282   2.283   2.235   5.812 -0.4502 -0.5050 -0.4322
   94SAPE   C23 9283   2.043   2.760   6.118  0.2092 -0.2274  0.0622
   94SAPE   H3R 9284   2.134   2.724   6.064 -1.4575 -1.2488 -2.1967
   94SAPE   H3S 9285   2.076   2.784   6.221  1.1302 -1.3742  0.0585
   94SAPE   C24 9286   1.998   2.898   6.053 -0.0467  0.3158  0.1359
   94SAPE   H4R 9287   1.933   2.953   6.124  0.4804 -0.9353  1.6501
   94SAPE   H4S 9288   1.939   2.878   5.961  0.2866 -1.5129  0.2796
   94SAPE   C25 9289   2.103   3.001   6.026  0.3233  0.4179  0.3515
   94SAPE   H5R 9290   2.169   3.016   6.113 -0.5385 -1.8802  1.4878
   94SAPE   C26 9291   2.116   3.075   5.911  0.9082  0.4964 -0.1882
   94SAPE   H6R 9292   2.202   3.144   5.910  0.1418  1.5514  1.6872
   94SAPE   C27 9293   2.022   3.057   5.791  0.3649  0.4445  0.1626
   94SAPE   H7R 9294   1.930   3.111   5.820 -0.5353 -1.8832  1.9422
   94SAPE   H7S 9295   1.996   2.949   5.791 -1.2017  0.7522  2.1998
   94SAPE   C28 9296   2.084   3.096   5.658 -0.3204  0.6267  0.5445
   94SAPE   H8R 9297   2.190   3.075   5.641 -0.4911  0.6867 -0.7193
   94SAPE   C29 9298   2.017   3.147   5.548 -0.7269 -0.2802 -1.1565
   94SAPE   H9R 9299   2.075   3.156   5.455 -0.1962 -0.9184 -0.8994
   94SAPE  C210 9300   1.871   3.175   5.539 -0.0926 -0.4322  0.4123
   94SAPE  H10R 9301   1.868   3.285   5.523 -4.5288 -0.6538 -1.5735
   94SAPE  H10S 9302   1.810   3.159   5.630 -0.3820  0.5603  0.4029
   94SAPE  C211 9303   1.802   3.100   5.420  0.0658 -1.0767 -0.1605
   94SAPE  H11R 9304   1.749   3.006   5.440 -0.5647 -0.6302  0.3123
   94SAPE  C212 9305   1.805   3.148   5.289 -0.5547 -0.5768 -0.5425
   94SAPE  H12R 9306   1.759   3.099   5.202  1.5474 -2.1758 -0.8242
   94SAPE  C213 9307   1.880   3.285   5.253  0.3440  0.6050  0.9698
   94SAPE  H13R 9308   1.927   3.290   5.152 -0.7694  2.7314  0.5071
   94SAPE  H13S 9309   1.979   3.307   5.299  2.7526  0.1740 -3.4541
   94SAPE  C214 9310   1.783   3.402   5.269  0.5277  0.2819  0.5591
   94SAPE  H14R 9311   1.773   3.445   5.370  1.4122 -1.8846  1.6481
   94SAPE  C215 9312   1.722   3.473   5.168  0.9212  0.1248 -0.0218
   94SAPE  H15R 9313   1.651   3.552   5.197 -0.4586 -1.3295  0.7452
   94SAPE  C216 9314   1.720   3.434   5.024 -0.6268  0.5119 -0.3745
   94SAPE  H16R 9315   1.618   3.431   4.980 -1.4434 -2.6481  1.4544
   94SAPE  H16S 9316   1.764   3.334   5.002 -1.1286  0.0810  0.5483
   94SAPE  C217 9317   1.814   3.521   4.939 -0.5112 -0.6481 -0.7129
   94SAPE  H17R 9318   1.921   3.514   4.968 -1.2560 -0.6296  2.4360
   94SAPE  H17S 9319   1.776   3.623   4.958  0.0132 -0.7601  1.1256
   94SAPE  C218 9320   1.794   3.491   4.789  0.4835  0.3740 -0.5808
   94SAPE  H18R 9321   1.686   3.504   4.767 -0.1112 -2.3484  0.3980
   94SAPE  H18S 9322   1.840   3.392   4.771 -2.3327 -0.8193 -1.7415
   94SAPE  C219 9323   1.869   3.598   4.710  0.0114 -0.7093  0.0987
   94SAPE  H19R 9324   1.977   3.584   4.730 -0.0578 -2.3455 -0.5428
   94SAPE  H19S 9325   1.826   3.694   4.747  0.6755 -1.3304  2.6471
   94SAPE  C220 9326   1.843   3.584   4.564  0.3350  0.2473  0.3431
   94SAPE  H20R 9327   1.846   3.480   4.523 -2.8245  0.4504 -0.7118
   94SAPE  H20S 9328   1.895   3.659   4.500  0.9423 -0.5603 -0.1376
   94SAPE  H20T 9329   1.736   3.602   4.539  0.6445 -0.6872 -1.9611
   94SAPE   C33 9330   2.201   2.446   5.832  0.4048 -0.6336  0.5987
   94SAPE   H3X 9331   2.264   2.475   5.918 -1.8687  0.6649  1.9416
   94SAPE   H3Y 9332   2.101   2.494   5.844  1.3089  0.9752  2.1941
   94SAPE   C34 9333   2.269   2.513   5.713 -0.3723 -0.2124 -0.6591
   94SAPE   H4X 9334   2.209   2.488   5.623 -0.6624  1.1235 -0.8611
   94SAPE   H4Y 9335   2.372   2.476   5.695 -0.0681  1.8629 -4.3394
   94SAPE   C35 9336   2.271   2.667   5.715  0.8020  0.4514 -0.2043
   94SAPE   H5X 9337   2.344   2.698   5.637 -0.6214  0.2359 -1.6601
   94SAPE   H5Y 9338   2.316   2.696   5.813 -2.2757 -0.1541  1.5050
   94SAPE   C36 9339   2.136   2.735   5.696  0.0810 -0.6364 -0.3065
   94SAPE   H6X 9340   2.162   2.839   5.666  0.6524 -1.1723 -1.7159
   94SAPE   H6Y 9341   2.076   2.743   5.790 -1.2621  3.6299 -1.2938
   94SAPE   C37 9342   2.041   2.672   5.592  0.4959 -0.0376 -0.6535
   94SAPE   H7X 9343   1.992   2.576   5.619 -0.8405  0.8592  0.2502
   94SAPE   H7Y 9344   2.109   2.651   5.506  0.5728  2.1616 -1.1894
   94SAPE   C38 9345   1.934   2.763   5.535 -0.0422 -0.2373 -0.1153
   94SAPE   H8X 9346   1.988   2.852   5.496 -0.6858 -0.6935 -2.2202
   94SAPE   H8Y 9347   1.864   2.790   5.617  1.3645 -2.0948  1.7971
   94SAPE   C39 9348   1.866   2.704   5.408 -0.4526 -0.2012 -0.1590
   94SAPE   H9X 9349   1.763   2.745   5.397 -1.6805 -2.5040  1.7816
   94SAPE   H9Y 9350   1.847   2.595   5.417 -1.3961 -0.1374 -1.1645
   94SAPE  C310 9351   1.941   2.738   5.279 -0.4400 -0.8622  0.0683
   94SAPE  H10X 9352   2.038   2.685   5.279  0.5482  0.3554  5.5087
   94SAPE  H10Y 9353   1.973   2.844   5.279 -2.5222 -0.1780 -0.8305
   94SAPE  C311 9354   1.852   2.712   5.159 -0.4305  0.4657 -0.1430
   94SAPE  H11X 9355   1.776   2.792   5.174  1.3704  2.1197  0.6361
   94SAPE  H11Y 9356   1.810   2.610   5.149 -0.0812  0.3146 -0.0968
   94SAPE  C312 9357   1.931   2.734   5.032  0.7298 -0.0418  0.0902
   94SAPE  H12X 9358   1.983   2.638   5.011 -1.2556 -1.2352  0.4231
   94SAPE  H12Y 9359   2.008   2.813   5.046 -0.3957  1.3439 -1.1749
   94SAPE  C313 9360   1.852   2.774   4.906 -0.3738  0.0710 -0.7664
   94SAPE  H13X 9361   1.926   2.766   4.824 -0.7492 -1.6519 -0.9619
   94SAPE  H13Y 9362   1.817   2.878   4.925  1.0338  0.1914  1.4608
   94SAPE  C314 9363   1.742   2.668   4.871  0.1616 -0.2120 -1.4390
   94SAPE  H14X 9364   1.671   2.661   4.956 -0.6380 -0.0900 -2.0817
   94SAPE  H14Y 9365   1.783   2.565   4.876 -0.4140 -0.5486 -3.0068
   94SAPE  C315 9366   1.668   2.714   4.750  0.8118  0.7678  0.4562
   94SAPE  H15X 9367   1.665   2.825   4.743 -0.4702  0.8553  1.8761
   94SAPE  H15Y 9368   1.567   2.667   4.754  0.9446  0.3465 -0.6784
   94SAPE  C316 9369   1.720   2.649   4.617  0.1010 -0.1285  0.0144
   94SAPE  H16X 9370   1.742   2.543   4.640  0.6995  0.3426  1.8312
   94SAPE  H16Y 9371   1.816   2.704   4.601  0.1159  0.1323  0.9236
   94SAPE  C317 9372   1.614   2.665   4.503  0.1359 -0.6321  0.5696
   94SAPE  H17X 9373   1.593   2.771   4.477 -0.6192 -1.5558 -3.2279
   94SAPE  H17Y 9374   1.524   2.612   4.542 -0.2436 -1.2665 -1.0936
   94SAPE  C318 9375   1.653   2.589   4.373 -0.0953 -0.5713 -0.0135
   94SAPE  H18X 9376   1.750   2.633   4.340 -1.3093  2.9366  0.6431
   94SAPE  H18Y 9377   1.579   2.607   4.292  0.0689  0.2616  0.0099
   94SAPE  H18Z 9378   1.666   2.480   4.385 -0.0789 -0.3926  1.7824
   95SAPE     N 9379   4.604   1.812   7.013 -0.3652  0.2576  0.0580
   95SAPE   HN1 9380   4.601   1.840   6.913 -0.0132  1.6252  0.4071
   95SAPE   HN2 9381   4.542   1.877   7.065 -1.0461 -0.2208 -0.1332
   95SAPE   HN3 9382   4.700   1.817   7.052 -0.3954 -0.8928  0.3072
   95SAPE   C12 9383   4.530   1.679   7.019 -0.3336  0.3105  0.4472
   95SAPE  H12A 9384   4.430   1.693   7.066 -1.4131 -1.2892 -1.2103
   95SAPE  H12B 9385   4.592   1.602   7.069  1.1170  0.1297 -1.5167
   95SAPE   C11 9386   4.503   1.629   6.872 -0.3285  0.0719 -0.5129
   95SAPE  H11A 9387   4.431   1.545   6.878  1.1171 -1.1156  2.0471
   95SAPE  H11B 9388   4.599   1.597   6.826  0.4464  2.8930 -1.0250
   95SAPE     P 9389   4.507   1.812   6.677 -0.2354  0.5736 -0.1532
   95SAPE   O13 9390   4.394   1.878   6.605  0.0549 -0.2178 -0.0512
   95SAPE   O14 9391   4.618   1.892   6.726  0.0966 -0.0200  0.3185
   95SAPE   O12 9392   4.438   1.736   6.800  0.5242 -0.1588  0.0701
   95SAPE   O11 9393   4.554   1.693   6.587 -0.0088 -0.1225 -0.5892
   95SAPE    C1 9394   4.489   1.578   6.545 -0.6458  0.3697  0.8475
   95SAPE    HA 9395   4.524   1.497   6.613  3.0553  1.4418  0.4864
   95SAPE    HB 9396   4.379   1.590   6.553 -0.9231 -1.2351 -0.1446
   95SAPE    C2 9397   4.522   1.546   6.387 -0.1201 -0.7780 -0.0229
   95SAPE    HS 9398   4.459   1.462   6.351 -0.4053 -0.4393 -0.3186
   95SAPE   O21 9399   4.662   1.515   6.376  0.1518 -0.7938  0.3865
   95SAPE   C21 9400   4.693   1.423   6.280 -0.2395 -0.0484  1.1304
   95SAPE   O22 9401   4.621   1.362   6.208  0.3396 -0.2541 -0.4519
   95SAPE   C22 9402   4.849   1.418   6.267 -0.8728 -0.7665  0.2986
   95SAPE   H2R 9403   4.876   1.526   6.267 -0.4814 -0.8629  0.9942
   95SAPE   H2S 9404   4.879   1.366   6.360 -0.5449  1.1334  1.3076
   95SAPE    C3 9405   4.495   1.679   6.307 -0.0262 -0.6844 -0.3682
   95SAPE    HX 9406   4.581   1.746   6.330 -0.9529  0.9455 -1.4641
   95SAPE    HY 9407   4.401   1.721   6.347  0.7463 -1.3912  2.4333
   95SAPE   O31 9408   4.498   1.652   6.170 -0.0241  0.2763 -0.4872
   95SAPE   C31 9409   4.390   1.610   6.110 -0.2286  0.2668 -0.3471
   95SAPE   O32 9410   4.286   1.578   6.167  0.1306 -0.8055  0.2549
   95SAPE   C32 9411   4.409   1.622   5.957 -0.3384  0.0860 -0.2590
   95SAPE   H2X 9412   4.486   1.546   5.930 -0.5426 -0.1162 -0.2789
   95SAPE   H2Y 9413   4.458   1.719   5.936  0.6083  0.0723  1.6182
   95SAPE   C23 9414   4.907   1.339   6.144  0.6970 -0.0274 -0.6305
   95SAPE   H3R 9415   4.858   1.240   6.135  0.1546  0.3204 -1.6455
   95SAPE   H3S 9416   5.016   1.318   6.151  0.2843 -2.2856 -0.2463
   95SAPE   C24 9417   4.868   1.404   6.006 -0.0748  0.2919  0.3251
   95SAPE   H4R 9418   4.757   1.402   6.008 -0.0567 -1.1308  0.2942
   95SAPE   H4S 9419   4.893   1.326   5.931 -0.8171 -1.9728  2.3144
   95SAPE   C25 9420   4.930   1.530   5.972 -0.3450  0.2761  0.0910
   95SAPE   H5R 9421   5.023   1.557   6.025 -0.7860  0.3213  0.8590
   95SAPE   C26 9422   4.892   1.619   5.875 -0.4598  0.1166  0.1142
   95SAPE   H6R 9423   4.947   1.710   5.849 -0.0137 -0.4777 -1.1038
   95SAPE   C27 9424   4.781   1.588   5.777  0.5992 -0.2420 -0.6737
   95SAPE   H7R 9425   4.739   1.677   5.724  0.2455  0.9585  1.5102
   95SAPE   H7S 9426   4.692   1.554   5.835 -0.6580  2.6180 -0.7584
   95SAPE   C28 9427   4.827   1.475   5.685  0.3299 -0.1311 -0.2140
   95SAPE   H8R 9428   4.826   1.375   5.729 -0.2565 -0.1241 -0.2026
   95SAPE   C29 9429   4.893   1.498   5.565 -0.5095 -0.1530 -0.4492
   95SAPE   H9R 9430   4.920   1.408   5.507  0.2424 -2.0119  2.5463
   95SAPE  C210 9431   4.926   1.628   5.499  0.1623 -0.0077  0.2102
   95SAPE  H10R 9432   4.869   1.710   5.548 -0.9490 -0.0351 -1.0059
   95SAPE  H10S 9433   4.892   1.626   5.393 -1.5152  2.8624  0.5870
   95SAPE  C211 9434   5.073   1.661   5.514  0.3642  0.1214 -0.0925
   95SAPE  H11R 9435   5.126   1.629   5.605  2.0565  1.1570 -0.6687
   95SAPE  C212 9436   5.137   1.744   5.427  0.3095 -0.0333 -0.7392
   95SAPE  H12R 9437   5.241   1.779   5.441  0.6401 -0.9781 -0.7515
   95SAPE  C213 9438   5.072   1.814   5.307  0.4197 -0.2342  0.2557
   95SAPE  H13R 9439   5.127   1.910   5.305  1.3977 -0.7778  0.3199
   95SAPE  H13S 9440   4.962   1.829   5.316  0.4820 -0.7058  2.3675
   95SAPE  C214 9441   5.103   1.735   5.177  0.5773 -0.4163 -0.4679
   95SAPE  H14R 9442   5.068   1.630   5.174  0.1293 -0.2801 -0.1247
   95SAPE  C215 9443   5.136   1.794   5.058  0.1907  0.4372  0.4656
   95SAPE  H15R 9444   5.160   1.724   4.977 -0.3823  0.8018 -0.0301
   95SAPE  C216 9445   5.190   1.933   5.028  0.2197 -0.8820 -0.2537
   95SAPE  H16R 9446   5.205   1.989   5.122  0.9327 -2.4598  0.6022
   95SAPE  H16S 9447   5.113   1.987   4.968  1.5455  0.0106 -1.2022
   95SAPE  C217 9448   5.327   1.928   4.955  1.0153 -0.2282  0.2905
   95SAPE  H17R 9449   5.315   1.870   4.861  0.1179  1.5094 -0.7280
   95SAPE  H17S 9450   5.402   1.878   5.019 -0.7694 -0.8570  2.0037
   95SAPE  C218 9451   5.365   2.070   4.923  0.3896  0.3444  0.5484
   95SAPE  H18R 9452   5.392   2.121   5.018  3.1377  1.8445 -0.9056
   95SAPE  H18S 9453   5.284   2.126   4.871  0.1065 -0.4908  0.0790
   95SAPE  C219 9454   5.493   2.077   4.840 -0.3222  0.5976 -0.5403
   95SAPE  H19R 9455   5.484   2.018   4.746  1.8234 -0.0379 -0.4005
   95SAPE  H19S 9456   5.580   2.031   4.891  0.4764  0.0191 -2.3386
   95SAPE  C220 9457   5.516   2.224   4.805  0.9952  0.6373  0.5477
   95SAPE  H20R 9458   5.423   2.274   4.771  0.9279  1.0496  1.3066
   95SAPE  H20S 9459   5.589   2.224   4.722 -0.2038 -0.7073 -0.5606
   95SAPE  H20T 9460   5.568   2.277   4.888  2.1422 -0.3629  0.4888
   95SAPE   C33 9461   4.290   1.574   5.864  0.0433 -0.3349 -1.1399
   95SAPE   H3X 9462   4.206   1.636   5.903  2.3094  1.2928  1.5438
   95SAPE   H3Y 9463   4.274   1.465   5.880 -1.1352  0.2295  2.2789
   95SAPE   C34 9464   4.315   1.601   5.714 -0.4907  0.1417 -0.0378
   95SAPE   H4X 9465   4.322   1.711   5.702 -0.9936  0.2109  0.2664
   95SAPE   H4Y 9466   4.223   1.570   5.661 -0.0081 -1.3507 -0.0398
   95SAPE   C35 9467   4.439   1.526   5.654  0.3330 -0.5103 -0.0685
   95SAPE   H5X 9468   4.446   1.426   5.703 -1.3934  0.0720  1.4796
   95SAPE   H5Y 9469   4.527   1.588   5.680 -1.0840  1.1370  1.0523
   95SAPE   C36 9470   4.426   1.529   5.507 -0.0689 -0.1809  0.2256
   95SAPE   H6X 9471   4.416   1.636   5.480 -0.7532 -0.2763  0.0760
   95SAPE   H6Y 9472   4.337   1.470   5.475  0.1175 -0.0148 -0.6221
   95SAPE   C37 9473   4.554   1.486   5.440 -0.9192  0.9169 -0.4990
   95SAPE   H7X 9474   4.580   1.385   5.477  1.3009  1.4945 -0.3543
   95SAPE   H7Y 9475   4.630   1.559   5.475 -1.9888  1.6923  0.3019
   95SAPE   C38 9476   4.559   1.470   5.284  0.1477  0.1187 -0.3811
   95SAPE   H8X 9477   4.468   1.410   5.263  1.4420 -1.8502 -0.5970
   95SAPE   H8Y 9478   4.652   1.418   5.253  0.6028  2.3652 -3.2773
   95SAPE   C39 9479   4.556   1.604   5.208 -0.4920 -0.0912 -0.7093
   95SAPE   H9X 9480   4.474   1.666   5.250 -0.2206 -0.1592 -0.0709
   95SAPE   H9Y 9481   4.533   1.584   5.100  1.9538 -0.3372 -1.2482
   95SAPE  C310 9482   4.685   1.690   5.211 -0.5594 -0.3142  0.6018
   95SAPE  H10X 9483   4.761   1.611   5.193 -1.6142 -1.6069  1.6229
   95SAPE  H10Y 9484   4.700   1.740   5.309  0.2099  4.4473 -1.6591
   95SAPE  C311 9485   4.699   1.795   5.097  0.4642  0.3398 -0.0969
   95SAPE  H11X 9486   4.795   1.850   5.096  0.6769  0.3117 -5.2162
   95SAPE  H11Y 9487   4.619   1.870   5.112  0.0383 -0.0436 -0.4327
   95SAPE  C312 9488   4.661   1.742   4.958  0.3811  0.8137 -0.3012
   95SAPE  H12X 9489   4.552   1.725   4.957  0.4624  0.1463 -2.4613
   95SAPE  H12Y 9490   4.702   1.642   4.931 -0.4073 -0.3010  2.2827
   95SAPE  C313 9491   4.687   1.842   4.844 -0.2754  0.5491 -0.6001
   95SAPE  H13X 9492   4.797   1.830   4.833 -0.3196  0.6863 -1.2775
   95SAPE  H13Y 9493   4.668   1.950   4.860  0.2397  0.2604  2.4344
   95SAPE  C314 9494   4.632   1.791   4.711  0.9390  0.4077 -0.1932
   95SAPE  H14X 9495   4.647   1.682   4.699  1.1282  0.3436  0.5614
   95SAPE  H14Y 9496   4.695   1.844   4.636  0.7432  1.3042  0.2582
   95SAPE  C315 9497   4.480   1.816   4.687  0.7112  0.1711 -0.6823
   95SAPE  H15X 9498   4.458   1.925   4.696 -3.1932 -0.5772  0.8121
   95SAPE  H15Y 9499   4.425   1.766   4.769  0.1773  0.9185 -0.5663
   95SAPE  C316 9500   4.427   1.774   4.548 -0.1906  0.0926 -0.2150
   95SAPE  H16X 9501   4.318   1.794   4.552  0.0480  1.7544 -1.0173
   95SAPE  H16Y 9502   4.446   1.665   4.541  2.0273  0.3393  0.8808
   95SAPE  C317 9503   4.484   1.854   4.433  0.3916  0.1580 -0.0626
   95SAPE  H17X 9504   4.594   1.845   4.438  0.5183  0.8083 -1.2447
   95SAPE  H17Y 9505   4.463   1.962   4.454  1.2252  0.2514  0.3255
   95SAPE  C318 9506   4.439   1.822   4.287  0.5473  0.2471 -0.2230
   95SAPE  H18X 9507   4.484   1.725   4.258 -1.5671 -1.1592  0.9101
   95SAPE  H18Y 9508   4.466   1.911   4.227  0.0903  0.9734  0.6225
   95SAPE  H18Z 9509   4.329   1.812   4.273  0.5808  2.8345 -3.6374
   96SAPE     N 9510   1.896   4.261   6.846 -0.5700  0.0461  0.0184
   96SAPE   HN1 9511   1.858   4.337   6.786 -0.7254  1.2144  1.5349
   96SAPE   HN2 9512   1.954   4.306   6.919  1.4338 -0.7204 -1.0135
   96SAPE   HN3 9513   1.961   4.194   6.801  1.7178  1.2158  1.3972
   96SAPE   C12 9514   1.783   4.194   6.927 -0.5646 -0.1016  0.4930
   96SAPE  H12A 9515   1.831   4.145   7.014  2.2419  4.2940  1.7469
   96SAPE  H12B 9516   1.740   4.117   6.859 -2.1271  0.7345  0.4885
   96SAPE   C11 9517   1.672   4.291   6.970 -0.3979 -0.1618  0.4477
   96SAPE  H11A 9518   1.620   4.318   6.876  1.3853  1.4626 -0.1480
   96SAPE  H11B 9519   1.713   4.389   7.004 -0.9210 -0.1745  1.1578
   96SAPE     P 9520   1.445   4.302   7.103  0.7239  0.3694  0.1026
   96SAPE   O13 9521   1.349   4.214   7.183  0.2280  0.0814  0.1428
   96SAPE   O14 9522   1.485   4.422   7.176  0.1740  0.3326  0.5178
   96SAPE   O12 9523   1.582   4.228   7.072 -0.2735 -0.1455  0.4158
   96SAPE   O11 9524   1.384   4.349   6.964  0.3445 -0.5778  0.1830
   96SAPE    C1 9525   1.261   4.296   6.914 -0.5286 -0.3499 -0.3555
   96SAPE    HA 9526   1.242   4.192   6.949  1.5689 -0.7852 -0.3390
   96SAPE    HB 9527   1.173   4.357   6.945  0.5612  0.8288  0.5408
   96SAPE    C2 9528   1.261   4.284   6.762 -0.0616  0.8141 -0.0387
   96SAPE    HS 9529   1.160   4.249   6.732  0.5991  0.7802 -2.4387
   96SAPE   O21 9530   1.372   4.200   6.723 -0.1245 -0.2641 -0.2450
   96SAPE   C21 9531   1.327   4.092   6.651  0.2581 -0.0337  0.3243
   96SAPE   O22 9532   1.213   4.079   6.608 -0.0823  0.3206  0.1731
   96SAPE   C22 9533   1.442   3.992   6.648  0.0984 -0.2150  0.1504
   96SAPE   H2R 9534   1.521   4.043   6.707 -2.1127  0.2791  2.8534
   96SAPE   H2S 9535   1.413   3.902   6.706  1.7461 -1.6035 -1.0634
   96SAPE    C3 9536   1.279   4.428   6.711 -0.4405  0.1372 -0.6721
   96SAPE    HX 9537   1.384   4.454   6.735 -0.7621  0.2304  0.7015
   96SAPE    HY 9538   1.218   4.501   6.768  0.7632  1.3213 -0.8630
   96SAPE   O31 9539   1.269   4.439   6.564  0.7136 -0.4205 -0.3153
   96SAPE   C31 9540   1.142   4.464   6.524  0.6375  0.3566  0.2957
   96SAPE   O32 9541   1.043   4.471   6.595 -0.0028  0.0330 -0.3885
   96SAPE   C32 9542   1.120   4.468   6.374 -0.3091 -0.3647 -0.9442
   96SAPE   H2X 9543   1.149   4.572   6.347  0.3080 -0.4321 -0.5638
   96SAPE   H2Y 9544   1.013   4.448   6.351  0.0525 -0.1665 -3.0596
   96SAPE   C23 9545   1.468   3.955   6.502 -0.0015  0.3070 -0.0836
   96SAPE   H3R 9546   1.379   3.908   6.453  0.3200  0.7544 -1.1399
   96SAPE   H3S 9547   1.537   3.868   6.495 -0.6881 -0.1643 -1.7254
   96SAPE   C24 9548   1.520   4.078   6.420  0.7436  0.2228  0.1082
   96SAPE   H4R 9549   1.439   4.147   6.388 -0.7358 -1.5222 -0.0530
   96SAPE   H4S 9550   1.544   4.038   6.320 -0.4174  0.9747 -0.4869
   96SAPE   C25 9551   1.641   4.144   6.476 -0.3024  0.0574 -0.4097
   96SAPE   H5R 9552   1.627   4.180   6.579  0.2255 -0.8867 -0.0027
   96SAPE   C26 9553   1.754   4.167   6.419 -0.6681  0.2225 -0.1650
   96SAPE   H6R 9554   1.832   4.213   6.481 -0.6760  1.4698 -1.0461
   96SAPE   C27 9555   1.800   4.114   6.286 -0.8221 -0.5515  0.4395
   96SAPE   H7R 9556   1.731   4.092   6.201  1.7672  0.0374 -1.9538
   96SAPE   H7S 9557   1.844   4.013   6.302 -2.1555 -1.3602 -0.6652
   96SAPE   C28 9558   1.918   4.193   6.230  0.4552 -0.6743 -0.4197
   96SAPE   H8R 9559   1.994   4.212   6.307 -0.3431 -0.9557  0.4577
   96SAPE   C29 9560   1.929   4.247   6.106  0.8404 -0.5965  0.2504
   96SAPE   H9R 9561   2.025   4.299   6.092  0.6944  0.1531  1.8359
   96SAPE  C210 9562   1.827   4.265   5.993 -0.4351 -0.6894 -1.3758
   96SAPE  H10R 9563   1.798   4.162   5.962  1.0021 -1.4993 -0.1912
   96SAPE  H10S 9564   1.882   4.324   5.917  2.7589 -1.8598 -0.1806
   96SAPE  C211 9565   1.703   4.335   6.037 -0.8197 -0.3945 -0.0590
   96SAPE  H11R 9566   1.694   4.351   6.146  0.9219  1.0408 -0.0818
   96SAPE  C212 9567   1.612   4.382   5.957  0.8430  0.0716  1.0531
   96SAPE  H12R 9568   1.527   4.437   6.000 -0.3989 -1.6428  0.8885
   96SAPE  C213 9569   1.608   4.360   5.805  0.7246 -0.1106  0.2815
   96SAPE  H13R 9570   1.712   4.372   5.771  0.3088  2.2612 -0.3087
   96SAPE  H13S 9571   1.552   4.447   5.764  0.0838  0.4015  2.1069
   96SAPE  C214 9572   1.581   4.230   5.736  0.1828 -0.1111 -0.1961
   96SAPE  H14R 9573   1.650   4.150   5.767 -0.1987  0.1984  1.5750
   96SAPE  C215 9574   1.512   4.217   5.617 -0.0982 -0.1286  0.4482
   96SAPE  H15R 9575   1.492   4.114   5.582  1.6693 -0.4940  0.4429
   96SAPE  C216 9576   1.416   4.319   5.546  0.0330  0.1016  0.0454
   96SAPE  H16R 9577   1.466   4.379   5.467 -1.3817 -0.0179 -0.9771
   96SAPE  H16S 9578   1.385   4.403   5.612  1.6509 -0.4313  1.5809
   96SAPE  C217 9579   1.306   4.243   5.474 -0.0185  0.5447  0.1111
   96SAPE  H17R 9580   1.220   4.229   5.543  1.7471  1.1808  2.6173
   96SAPE  H17S 9581   1.330   4.145   5.428 -0.7571  0.8144 -0.8835
   96SAPE  C218 9582   1.252   4.325   5.366 -0.0302 -0.1907  0.1671
   96SAPE  H18R 9583   1.343   4.338   5.303  0.2905 -2.0920  0.1887
   96SAPE  H18S 9584   1.218   4.421   5.411  1.5872  0.2557  0.5067
   96SAPE  C219 9585   1.146   4.262   5.286  0.8610 -0.0468  0.6486
   96SAPE  H19R 9586   1.055   4.235   5.345 -1.1887  0.4775 -2.0682
   96SAPE  H19S 9587   1.188   4.164   5.255  2.2837  0.3358  1.3054
   96SAPE  C220 9588   1.095   4.345   5.166 -0.4161 -0.4563 -0.2494
   96SAPE  H20R 9589   1.004   4.302   5.119 -0.5531  0.3975 -0.7891
   96SAPE  H20S 9590   1.182   4.373   5.102 -0.4654 -0.7282 -0.4368
   96SAPE  H20T 9591   1.055   4.446   5.192  0.4422  0.0208 -0.7248
   96SAPE   C33 9592   1.212   4.367   6.297 -0.1054  0.4353  0.2465
   96SAPE   H3X 9593   1.179   4.263   6.317  1.9466 -0.0082  1.4888
   96SAPE   H3Y 9594   1.311   4.371   6.347 -0.5321 -1.7842  1.4126
   96SAPE   C34 9595   1.208   4.373   6.143 -0.2734 -0.6215  0.4386
   96SAPE   H4X 9596   1.128   4.305   6.107 -0.9450  1.3144 -2.0204
   96SAPE   H4Y 9597   1.301   4.337   6.094 -0.0277 -0.7134  0.9683
   96SAPE   C35 9598   1.184   4.511   6.084  0.3078 -0.0830 -0.8989
   96SAPE   H5X 9599   1.259   4.580   6.128 -1.3499  1.5667 -0.5401
   96SAPE   H5Y 9600   1.082   4.542   6.115  0.6076  1.1542 -1.1182
   96SAPE   C36 9601   1.190   4.506   5.942  0.1074 -0.0141  0.7766
   96SAPE   H6X 9602   1.287   4.461   5.911 -0.6279 -1.0129 -0.1479
   96SAPE   H6Y 9603   1.181   4.613   5.914  0.5331  0.5597  2.6765
   96SAPE   C37 9604   1.074   4.428   5.872 -0.0674 -0.4206  0.3472
   96SAPE   H7X 9605   0.982   4.457   5.927  0.9645  1.5626  1.1258
   96SAPE   H7Y 9606   1.088   4.318   5.878 -0.3008 -0.4075  1.2416
   96SAPE   C38 9607   1.051   4.474   5.726 -0.1016 -1.0486  0.7713
   96SAPE   H8X 9608   1.145   4.459   5.669 -1.4303  0.7130 -2.0576
   96SAPE   H8Y 9609   1.026   4.582   5.723  0.8671 -0.8445 -0.8086
   96SAPE   C39 9610   0.947   4.398   5.655  0.3681 -0.1514 -0.1628
   96SAPE   H9X 9611   0.875   4.379   5.738  0.1329 -1.4498 -0.6496
   96SAPE   H9Y 9612   0.982   4.298   5.624 -0.9377 -1.5368  2.4957
   96SAPE  C310 9613   0.873   4.463   5.542 -0.9272 -0.0839  0.4598
   96SAPE  H10X 9614   0.938   4.458   5.451 -2.0211  0.0502 -0.3503
   96SAPE  H10Y 9615   0.866   4.572   5.563  2.3571  0.5884 -1.1485
   96SAPE  C311 9616   0.729   4.402   5.522  0.1964 -0.9761  0.3910
   96SAPE  H11X 9617   0.669   4.435   5.610  1.7694  2.6879  0.2640
   96SAPE  H11Y 9618   0.735   4.291   5.519  1.4494 -0.9272  0.5792
   96SAPE  C312 9619   0.639   4.456   5.405 -0.3809  0.0388 -0.6035
   96SAPE  H12X 9620   0.612   4.563   5.415 -0.3453 -0.0147  0.1418
   96SAPE  H12Y 9621   0.547   4.394   5.415  0.3273 -0.9835 -0.2256
   96SAPE  C313 9622   0.695   4.437   5.262  0.3385  0.2984  0.1369
   96SAPE  H13X 9623   0.755   4.343   5.257 -1.4879 -0.8713 -0.6433
   96SAPE  H13Y 9624   0.775   4.513   5.248  0.6102  0.0507  0.3373
   96SAPE  C314 9625   0.594   4.460   5.146  0.0886 -0.2545  0.7139
   96SAPE  H14X 9626   0.535   4.554   5.156 -0.5469 -0.6332  0.6082
   96SAPE  H14Y 9627   0.524   4.375   5.159 -0.5832 -0.2587 -2.2859
   96SAPE  C315 9628   0.670   4.439   5.012 -0.1839 -0.5850 -0.3278
   96SAPE  H15X 9629   0.728   4.345   5.008 -0.0557 -0.6103  1.4520
   96SAPE  H15Y 9630   0.745   4.520   5.002 -1.6859  1.0400  0.9042
   96SAPE  C316 9631   0.571   4.445   4.897 -0.1507  0.1543 -0.5351
   96SAPE  H16X 9632   0.517   4.542   4.909 -0.2239 -0.0859  1.5025
   96SAPE  H16Y 9633   0.499   4.361   4.890  0.1211 -0.0751 -0.6040
   96SAPE  C317 9634   0.644   4.452   4.756 -0.0092  0.1007 -0.0432
   96SAPE  H17X 9635   0.698   4.355   4.752  0.2310  0.1467  1.4661
   96SAPE  H17Y 9636   0.718   4.533   4.768 -0.5843  0.2528  5.4419
   96SAPE  C318 9637   0.528   4.479   4.648  0.4935 -0.4033 -0.7812
   96SAPE  H18X 9638   0.465   4.388   4.637 -1.8729  1.2543 -1.6157
   96SAPE  H18Y 9639   0.563   4.519   4.550  1.4013 -0.5199 -0.5183
   96SAPE  H18Z 9640   0.459   4.556   4.688  0.9650 -0.5347  0.3342
   97SAPE     N 9641   1.475   6.701   6.769  0.0462  0.0505  0.0105
   97SAPE   HN1 9642   1.531   6.786   6.750 -0.0953  0.3514  0.8937
   97SAPE   HN2 9643   1.502   6.662   6.862  0.0269 -1.8920 -0.7354
   97SAPE   HN3 9644   1.507   6.631   6.698  1.1305  2.0252 -1.5480
   97SAPE   C12 9645   1.327   6.738   6.758 -0.7107  0.0013  0.1457
   97SAPE  H12A 9646   1.313   6.791   6.661 -0.3049 -1.0109 -0.4825
   97SAPE  H12B 9647   1.309   6.806   6.844  1.7508  1.5062 -0.4201
   97SAPE   C11 9648   1.237   6.611   6.777  0.1760  0.0015 -1.0131
   97SAPE  H11A 9649   1.142   6.655   6.740  0.2391 -0.2809 -1.5172
   97SAPE  H11B 9650   1.236   6.608   6.888  0.6017  1.7322 -0.9237
   97SAPE     P 9651   1.165   6.389   6.664  0.0451 -0.2837 -0.4246
   97SAPE   O13 9652   1.204   6.251   6.701 -0.5160  0.0891  0.0086
   97SAPE   O14 9653   1.031   6.431   6.705  0.8116  0.0269 -0.0221
   97SAPE   O12 9654   1.271   6.484   6.724  0.0807 -0.3244 -0.4589
   97SAPE   O11 9655   1.172   6.403   6.507 -0.1557  0.8622 -0.0599
   97SAPE    C1 9656   1.301   6.422   6.451  0.7895  0.0843 -0.3875
   97SAPE    HA 9657   1.322   6.531   6.443  0.3163  0.2379  0.3489
   97SAPE    HB 9658   1.388   6.378   6.504  0.2629 -0.2151  0.2440
   97SAPE    C2 9659   1.304   6.354   6.313  0.1635 -0.7617  0.4270
   97SAPE    HS 9660   1.237   6.409   6.243  2.0130 -1.7105 -2.2064
   97SAPE   O21 9661   1.246   6.223   6.324 -0.2288  0.2396 -0.1632
   97SAPE   C21 9662   1.299   6.137   6.411 -0.7772  0.4335 -0.0698
   97SAPE   O22 9663   1.415   6.142   6.463  0.4544  0.3385 -0.3222
   97SAPE   C22 9664   1.195   6.029   6.429  0.5413  0.2707  0.3475
   97SAPE   H2R 9665   1.201   5.999   6.536 -2.0388 -2.5665 -0.1537
   97SAPE   H2S 9666   1.093   6.071   6.419 -0.3913 -2.2294 -1.7658
   97SAPE    C3 9667   1.441   6.359   6.241  0.3384 -0.8312  0.1073
   97SAPE    HX 9668   1.513   6.297   6.298  0.7878 -1.6294 -1.3016
   97SAPE    HY 9669   1.479   6.463   6.250 -1.3326  0.1366 -2.6553
   97SAPE   O31 9670   1.422   6.322   6.100 -0.2433 -0.4091  0.4869
   97SAPE   C31 9671   1.443   6.195   6.067 -0.6695 -0.3260  0.2897
   97SAPE   O32 9672   1.489   6.109   6.143  0.8559  0.1287  0.8427
   97SAPE   C32 9673   1.409   6.172   5.918  0.5215 -0.1451 -0.1570
   97SAPE   H2X 9674   1.473   6.248   5.869 -0.4399  1.6675  1.2437
   97SAPE   H2Y 9675   1.304   6.206   5.904  0.7480  0.3940 -0.5542
   97SAPE   C23 9676   1.219   5.888   6.355  0.6446  0.4505 -0.0044
   97SAPE   H3R 9677   1.140   5.817   6.388  1.9204  0.6466  3.9637
   97SAPE   H3S 9678   1.312   5.842   6.395  2.3446  1.3560 -2.5923
   97SAPE   C24 9679   1.235   5.881   6.203  0.7043  0.1468 -1.1445
   97SAPE   H4R 9680   1.231   5.774   6.176 -2.8633  0.0122 -0.5062
   97SAPE   H4S 9681   1.339   5.919   6.190  0.8729 -0.2207 -0.8827
   97SAPE   C25 9682   1.144   5.974   6.119  0.3368  0.0459  0.6080
   97SAPE   H5R 9683   1.157   6.079   6.149  0.7498  0.3092 -0.4439
   97SAPE   C26 9684   1.052   5.932   6.033 -0.1070  0.9576  0.6248
   97SAPE   H6R 9685   1.001   6.005   5.968  0.4466 -1.4733 -2.8100
   97SAPE   C27 9686   1.045   5.789   5.993  0.3557  0.1708 -0.6742
   97SAPE   H7R 9687   1.044   5.736   6.090  1.5845  2.7300  0.8589
   97SAPE   H7S 9688   1.135   5.747   5.943 -1.0710 -2.6486 -1.0897
   97SAPE   C28 9689   0.915   5.758   5.923  0.0100 -0.2615  0.2610
   97SAPE   H8R 9690   0.829   5.723   5.982 -2.4857  1.2135 -2.2697
   97SAPE   C29 9691   0.901   5.759   5.793  0.5402  0.1811  0.3685
   97SAPE   H9R 9692   0.808   5.729   5.742  0.5353 -0.9341  1.0198
   97SAPE  C210 9693   0.995   5.805   5.693 -0.0804  0.6869 -0.1666
   97SAPE  H10R 9694   1.099   5.789   5.730  0.3179  1.4883 -0.9068
   97SAPE  H10S 9695   0.985   5.914   5.674  2.3730  1.1325  0.7114
   97SAPE  C211 9696   0.981   5.733   5.563 -0.4376  0.3211 -0.3197
   97SAPE  H11R 9697   0.976   5.623   5.573 -0.8864  0.3900  0.2642
   97SAPE  C212 9698   0.972   5.776   5.439 -0.2878 -0.4505 -0.5208
   97SAPE  H12R 9699   0.955   5.696   5.365 -0.3921 -2.4367  1.5527
   97SAPE  C213 9700   0.974   5.931   5.394 -0.3062 -0.5311 -0.6315
   97SAPE  H13R 9701   1.044   5.936   5.307 -2.0704 -0.5876 -2.1127
   97SAPE  H13S 9702   1.021   5.988   5.477 -1.3889 -0.8809  0.2365
   97SAPE  C214 9703   0.840   5.990   5.360 -0.5378 -0.4800  0.5729
   97SAPE  H14R 9704   0.781   6.008   5.451  2.4446  0.4564  2.4472
   97SAPE  C215 9705   0.790   6.016   5.235 -0.1224 -0.4056  0.2359
   97SAPE  H15R 9706   0.687   6.053   5.227  0.6866  2.0281  0.0225
   97SAPE  C216 9707   0.862   6.004   5.099 -0.6435  0.3974 -0.3004
   97SAPE  H16R 9708   0.955   5.945   5.117 -1.0715  0.1492  1.1884
   97SAPE  H16S 9709   0.884   6.110   5.075  0.3619  1.1695  3.4705
   97SAPE  C217 9710   0.788   5.923   4.989  0.0165 -0.7655 -0.5357
   97SAPE  H17R 9711   0.689   5.971   4.978  1.0586  1.3652 -0.9680
   97SAPE  H17S 9712   0.770   5.816   5.014  2.3195 -1.3147 -0.9980
   97SAPE  C218 9713   0.846   5.932   4.846 -0.0855 -0.7791 -0.2149
   97SAPE  H18R 9714   0.943   5.878   4.842  0.3977 -0.0900  1.4043
   97SAPE  H18S 9715   0.873   6.036   4.818 -1.4844 -0.5446 -0.8173
   97SAPE  C219 9716   0.735   5.886   4.744  0.4327  0.3763 -0.9948
   97SAPE  H19R 9717   0.629   5.902   4.771  0.1319 -0.9660 -1.3222
   97SAPE  H19S 9718   0.743   5.776   4.750  1.0957  0.4573 -0.2369
   97SAPE  C220 9719   0.773   5.936   4.601  0.3967 -1.3293 -0.1221
   97SAPE  H20R 9720   0.769   6.046   4.587 -0.8360 -1.0857  1.8041
   97SAPE  H20S 9721   0.711   5.881   4.528  0.2396 -2.1137  0.5879
   97SAPE  H20T 9722   0.876   5.902   4.578  0.7478  0.2777 -1.1254
   97SAPE   C33 9723   1.442   6.027   5.862  0.2990  0.5520  0.1526
   97SAPE   H3X 9724   1.423   5.944   5.934  0.9163 -1.3326 -1.7533
   97SAPE   H3Y 9725   1.549   6.010   5.838 -0.0565 -0.6357 -0.6978
   97SAPE   C34 9726   1.357   6.007   5.734  0.0149 -0.1663 -0.5722
   97SAPE   H4X 9727   1.255   6.029   5.773  0.5221 -0.4227  0.9618
   97SAPE   H4Y 9728   1.368   5.897   5.716  0.4692 -0.0511 -1.0143
   97SAPE   C35 9729   1.398   6.090   5.615 -0.1290 -0.0306 -0.4397
   97SAPE   H5X 9730   1.498   6.059   5.578 -0.2491 -1.4225  0.3286
   97SAPE   H5Y 9731   1.391   6.200   5.632  3.7458  0.0677  1.7825
   97SAPE   C36 9732   1.306   6.072   5.492 -0.4849  0.3052 -0.1095
   97SAPE   H6X 9733   1.206   6.116   5.511 -0.0609  0.5200  1.8558
   97SAPE   H6Y 9734   1.284   5.964   5.479  1.5495 -0.1269 -0.1796
   97SAPE   C37 9735   1.368   6.133   5.361  0.3556  0.1140  0.3017
   97SAPE   H7X 9736   1.456   6.071   5.335  1.2015  1.7135 -0.8246
   97SAPE   H7Y 9737   1.410   6.234   5.385  1.3096 -0.3581  0.6722
   97SAPE   C38 9738   1.276   6.131   5.247  0.0428  0.8001 -0.3623
   97SAPE   H8X 9739   1.187   6.195   5.266 -1.5563 -1.7693  1.5483
   97SAPE   H8Y 9740   1.240   6.029   5.224 -0.8931  0.8291  0.8340
   97SAPE   C39 9741   1.345   6.180   5.117 -1.3214 -0.1897  0.5931
   97SAPE   H9X 9742   1.441   6.127   5.099 -0.7296  1.2182 -0.6442
   97SAPE   H9Y 9743   1.361   6.288   5.140 -2.1513 -0.5282  3.0745
   97SAPE  C310 9744   1.265   6.155   4.992 -0.0188 -0.3206  0.5532
   97SAPE  H10X 9745   1.166   6.200   5.014  0.3015  0.7614 -0.1344
   97SAPE  H10Y 9746   1.259   6.047   4.968  1.5101 -1.2281  3.6382
   97SAPE  C311 9747   1.318   6.239   4.868 -0.3106  0.2406 -0.7129
   97SAPE  H11X 9748   1.420   6.207   4.837  0.3619 -0.0118  1.5589
   97SAPE  H11Y 9749   1.339   6.342   4.904  0.2044 -0.1186  0.0483
   97SAPE  C312 9750   1.220   6.258   4.749 -0.0857  0.4963 -0.5590
   97SAPE  H12X 9751   1.135   6.315   4.792 -0.2983 -2.0965  2.7806
   97SAPE  H12Y 9752   1.188   6.158   4.712  0.1060  0.0546  0.4426
   97SAPE  C313 9753   1.270   6.332   4.627  0.9201  0.3031 -1.1742
   97SAPE  H13X 9754   1.190   6.328   4.550 -0.9311 -1.9556  0.7055
   97SAPE  H13Y 9755   1.361   6.287   4.581  0.5927 -2.9927  1.0256
   97SAPE  C314 9756   1.288   6.482   4.658 -0.6484 -0.2488 -0.5126
   97SAPE  H14X 9757   1.210   6.526   4.723 -2.3840 -0.7149 -2.2080
   97SAPE  H14Y 9758   1.271   6.531   4.559  0.9259  1.2136 -0.1159
   97SAPE  C315 9759   1.440   6.517   4.703  0.8004 -0.8177  0.6597
   97SAPE  H15X 9760   1.486   6.418   4.725 -0.5447 -1.8419 -0.8334
   97SAPE  H15Y 9761   1.441   6.586   4.790  4.0434 -1.8843  1.6414
   97SAPE  C316 9762   1.520   6.576   4.590 -0.3818  0.3952  0.4512
   97SAPE  H16X 9763   1.516   6.507   4.503  3.1393  0.5109  0.0714
   97SAPE  H16Y 9764   1.629   6.584   4.611  0.2404 -0.1986 -2.2249
   97SAPE  C317 9765   1.487   6.718   4.548  0.7987 -0.4301 -0.0093
   97SAPE  H17X 9766   1.508   6.793   4.628  0.6207  0.1600 -0.5103
   97SAPE  H17Y 9767   1.381   6.727   4.518  0.8366  0.0730 -0.0014
   97SAPE  C318 9768   1.573   6.773   4.431  0.3029 -0.1698 -1.1478
   97SAPE  H18X 9769   1.674   6.802   4.467 -0.5633  0.6289  0.8341
   97SAPE  H18Y 9770   1.520   6.868   4.408 -0.6683 -0.1632  0.8580
   97SAPE  H18Z 9771   1.581   6.707   4.343  0.1526  0.7785 -1.8901
   98SAPE     N 9772   1.030   6.071   6.815 -0.3495 -0.4243 -0.1178
   98SAPE   HN1 9773   1.074   6.147   6.872 -0.8561  0.0128 -0.3016
   98SAPE   HN2 9774   1.105   6.043   6.749  0.5862  0.6978  0.4320
   98SAPE   HN3 9775   0.949   6.103   6.759 -0.2865 -0.8380 -0.4510
   98SAPE   C12 9776   0.985   5.948   6.889  0.9005 -0.8113 -0.1690
   98SAPE  H12A 9777   0.918   5.891   6.821 -0.1231  2.3216 -1.9915
   98SAPE  H12B 9778   0.921   5.979   6.974 -3.1161 -0.6409 -3.0056
   98SAPE   C11 9779   1.109   5.870   6.928 -0.1090 -0.4635 -0.3957
   98SAPE  H11A 9780   1.082   5.777   6.982  1.4776 -0.9664 -0.4142
   98SAPE  H11B 9781   1.166   5.924   7.007 -0.2578 -1.6592  0.5581
   98SAPE     P 9782   1.331   5.801   6.830 -0.5643  0.5701  0.0083
   98SAPE   O13 9783   1.411   5.919   6.796 -0.0402 -0.2717  0.9205
   98SAPE   O14 9784   1.363   5.741   6.961 -0.0312  0.0856 -0.4209
   98SAPE   O12 9785   1.185   5.835   6.813  0.4264 -1.0258  0.4148
   98SAPE   O11 9786   1.349   5.690   6.707  0.3561 -0.0800  0.4199
   98SAPE    C1 9787   1.261   5.580   6.710 -0.8694  0.1076 -0.4383
   98SAPE    HA 9788   1.318   5.494   6.751 -0.0990 -0.7660 -3.1188
   98SAPE    HB 9789   1.168   5.586   6.770 -0.2215 -0.5710  0.6728
   98SAPE    C2 9790   1.214   5.532   6.569  0.1381 -0.5965  0.1346
   98SAPE    HS 9791   1.225   5.422   6.559  0.6853 -0.6212  0.9677
   98SAPE   O21 9792   1.282   5.594   6.454  0.0996  0.7156  0.1423
   98SAPE   C21 9793   1.401   5.536   6.438  0.4038 -0.3388 -0.1024
   98SAPE   O22 9794   1.443   5.440   6.506 -0.2297 -0.2609  0.1111
   98SAPE   C22 9795   1.481   5.603   6.318 -0.0618  0.1422 -0.4072
   98SAPE   H2R 9796   1.421   5.572   6.229  2.4658 -1.2130 -1.7589
   98SAPE   H2S 9797   1.470   5.710   6.343  1.0858 -0.0874  1.1849
   98SAPE    C3 9798   1.061   5.534   6.547  0.1698  0.6916 -0.3128
   98SAPE    HX 9799   1.018   5.636   6.547 -0.8770  0.2722 -0.8050
   98SAPE    HY 9800   1.017   5.471   6.627  0.6977 -1.5069 -1.6539
   98SAPE   O31 9801   1.032   5.474   6.413 -0.0307  0.2523  0.5803
   98SAPE   C31 9802   0.900   5.444   6.406 -0.2831  1.9582 -0.9798
   98SAPE   O32 9803   0.828   5.453   6.503 -0.5610 -0.2034 -0.6347
   98SAPE   C32 9804   0.866   5.372   6.273 -0.2569 -0.7256 -0.0684
   98SAPE   H2X 9805   0.755   5.369   6.272 -0.2624 -1.0477 -1.4322
   98SAPE   H2Y 9806   0.907   5.269   6.285 -0.9071 -1.5898 -3.7992
   98SAPE   C23 9807   1.618   5.535   6.295 -0.2897  0.2364 -0.6015
   98SAPE   H3R 9808   1.620   5.427   6.320 -0.2673  0.6819  1.5292
   98SAPE   H3S 9809   1.693   5.584   6.361 -1.3832  2.6959 -1.0551
   98SAPE   C24 9810   1.673   5.553   6.148 -0.1272 -0.2072 -0.8559
   98SAPE   H4R 9811   1.620   5.482   6.080  1.0974 -2.1289  0.0814
   98SAPE   H4S 9812   1.778   5.516   6.153 -0.7533 -2.0595 -0.6688
   98SAPE   C25 9813   1.677   5.691   6.102 -0.8158  0.6756 -0.1013
   98SAPE   H5R 9814   1.695   5.765   6.181  0.1586 -0.6827  1.0099
   98SAPE   C26 9815   1.671   5.723   5.973 -0.0250  0.7736 -0.8760
   98SAPE   H6R 9816   1.689   5.829   5.950  2.1690  0.5163 -0.6430
   98SAPE   C27 9817   1.644   5.629   5.857 -0.5431 -0.1905  0.2626
   98SAPE   H7R 9818   1.689   5.530   5.875 -0.8383 -0.6725 -1.4611
   98SAPE   H7S 9819   1.683   5.672   5.762  1.1282  0.4295  1.2017
   98SAPE   C28 9820   1.495   5.602   5.846 -0.1779  0.0801 -0.4026
   98SAPE   H8R 9821   1.438   5.621   5.938  1.1261  2.5882 -0.0230
   98SAPE   C29 9822   1.432   5.566   5.731  0.3657 -0.3272 -0.5885
   98SAPE   H9R 9823   1.323   5.548   5.729  0.3821 -1.2098  2.2657
   98SAPE  C210 9824   1.499   5.544   5.599 -0.2462 -0.6200 -0.4325
   98SAPE  H10R 9825   1.447   5.463   5.543  1.7492 -2.5923  0.4039
   98SAPE  H10S 9826   1.592   5.487   5.617 -1.9426 -3.5784 -0.4645
   98SAPE  C211 9827   1.530   5.669   5.526  0.2053 -0.0312  0.2920
   98SAPE  H11R 9828   1.621   5.723   5.554 -0.5453  2.1325 -1.0865
   98SAPE  C212 9829   1.460   5.723   5.422 -0.0766  0.6123  0.5216
   98SAPE  H12R 9830   1.508   5.809   5.373  0.1643 -0.4063 -1.0954
   98SAPE  C213 9831   1.330   5.670   5.369  0.2864  0.0068  0.9952
   98SAPE  H13R 9832   1.253   5.665   5.450  0.1491 -2.2363  0.7983
   98SAPE  H13S 9833   1.349   5.566   5.335 -0.5471 -0.2744  1.3454
   98SAPE  C214 9834   1.287   5.745   5.246 -0.2927  0.0138 -0.4344
   98SAPE  H14R 9835   1.230   5.834   5.277  0.7320  1.0825 -1.4837
   98SAPE  C215 9836   1.331   5.741   5.120  0.8801  0.3067 -0.1950
   98SAPE  H15R 9837   1.276   5.811   5.055 -1.3135 -3.1483 -2.4178
   98SAPE  C216 9838   1.418   5.639   5.051  0.1372 -0.2316 -0.3611
   98SAPE  H16R 9839   1.358   5.573   4.986 -1.5607 -0.0213  0.9261
   98SAPE  H16S 9840   1.464   5.564   5.119  0.1002 -0.6277 -0.7719
   98SAPE  C217 9841   1.516   5.717   4.960 -0.2325  0.6472  0.4392
   98SAPE  H17R 9842   1.465   5.782   4.885  0.5069  0.3621 -0.3355
   98SAPE  H17S 9843   1.563   5.639   4.896 -1.9931 -0.1084  0.0248
   98SAPE  C218 9844   1.626   5.797   5.038  0.2165  0.0909 -0.5292
   98SAPE  H18R 9845   1.655   5.738   5.128 -2.3333  0.6067  0.7325
   98SAPE  H18S 9846   1.575   5.889   5.074  0.1266 -0.6876  1.5047
   98SAPE  C219 9847   1.747   5.831   4.957 -0.6123 -0.3972  0.5212
   98SAPE  H19R 9848   1.800   5.738   4.926 -0.0015  0.2437 -0.4138
   98SAPE  H19S 9849   1.806   5.890   5.030 -1.4282 -1.3309  1.9775
   98SAPE  C220 9850   1.718   5.928   4.836  0.4827  0.4728  0.4409
   98SAPE  H20R 9851   1.642   6.005   4.857 -0.9170  0.1360 -2.7251
   98SAPE  H20S 9852   1.667   5.866   4.759 -0.1806 -2.7063  3.2254
   98SAPE  H20T 9853   1.806   5.966   4.779 -0.3333 -0.6388 -1.6582
   98SAPE   C33 9854   0.931   5.433   6.153 -0.8416 -0.4330  0.7262
   98SAPE   H3X 9855   1.038   5.457   6.171 -1.2049  2.7936 -0.6305
   98SAPE   H3Y 9856   0.889   5.535   6.138 -1.9103 -0.7535  1.3997
   98SAPE   C34 9857   0.909   5.361   6.018 -0.2057 -0.3018 -0.7251
   98SAPE   H4X 9858   0.961   5.264   6.024  1.5826  0.6965  1.2846
   98SAPE   H4Y 9859   0.959   5.420   5.938  1.6740 -0.9565 -0.0605
   98SAPE   C35 9860   0.764   5.331   5.988  0.9026 -0.2627  1.0961
   98SAPE   H5X 9861   0.702   5.416   6.021  1.7313  0.6175  0.4418
   98SAPE   H5Y 9862   0.731   5.236   6.036 -1.6222 -0.3345 -0.6067
   98SAPE   C36 9863   0.744   5.307   5.836 -0.0418 -0.2084  0.8030
   98SAPE   H6X 9864   0.643   5.261   5.839 -1.0065  1.4194 -2.2346
   98SAPE   H6Y 9865   0.811   5.233   5.788  0.2417  1.3803 -1.4336
   98SAPE   C37 9866   0.726   5.423   5.738 -0.5083 -0.6589 -0.0498
   98SAPE   H7X 9867   0.830   5.462   5.736 -0.4224 -0.8792 -0.0123
   98SAPE   H7Y 9868   0.662   5.500   5.786 -1.1011 -0.6619 -0.8190
   98SAPE   C38 9869   0.665   5.386   5.605 -0.1063 -0.2456  0.3368
   98SAPE   H8X 9870   0.555   5.397   5.616 -0.3310  0.2897 -1.8715
   98SAPE   H8Y 9871   0.690   5.278   5.590  0.3437 -0.3009  1.4093
   98SAPE   C39 9872   0.714   5.476   5.497  0.1420 -0.0445 -0.0261
   98SAPE   H9X 9873   0.823   5.461   5.505  0.2452  0.1951 -0.8816
   98SAPE   H9Y 9874   0.674   5.580   5.502 -0.0450 -0.1099 -0.1257
   98SAPE  C310 9875   0.662   5.432   5.358 -0.5628  0.0508  1.1811
   98SAPE  H10X 9876   0.552   5.434   5.369 -0.5447  2.7582  1.4950
   98SAPE  H10Y 9877   0.699   5.332   5.325  2.0455  1.4739 -0.5714
   98SAPE  C311 9878   0.702   5.539   5.251  0.4619 -0.7303 -0.2069
   98SAPE  H11X 9879   0.811   5.559   5.264 -0.0089  2.0579  0.1043
   98SAPE  H11Y 9880   0.649   5.636   5.258  0.7096 -0.6287  0.3519
   98SAPE  C312 9881   0.686   5.495   5.099 -0.6797  0.5882  0.1946
   98SAPE  H12X 9882   0.749   5.405   5.080 -1.8356  0.2478 -2.3994
   98SAPE  H12Y 9883   0.709   5.581   5.032 -2.2090 -0.3370 -1.6051
   98SAPE  C313 9884   0.543   5.453   5.070 -1.0624  1.3985 -0.8536
   98SAPE  H13X 9885   0.474   5.536   5.098 -1.9090  1.2067 -2.2737
   98SAPE  H13Y 9886   0.516   5.379   5.148  0.2950  1.2843 -0.4645
   98SAPE  C314 9887   0.518   5.403   4.929  0.3952  0.1023  0.3711
   98SAPE  H14X 9888   0.411   5.374   4.932  0.2544  0.4857 -0.6783
   98SAPE  H14Y 9889   0.587   5.317   4.916  0.4105  0.2914 -0.9266
   98SAPE  C315 9890   0.537   5.485   4.806  0.2021 -0.4296 -0.1321
   98SAPE  H15X 9891   0.523   5.407   4.729 -0.0556 -0.9595  0.4396
   98SAPE  H15Y 9892   0.642   5.515   4.787  0.7792 -2.7144 -0.8050
   98SAPE  C316 9893   0.436   5.605   4.788  0.9923 -0.4524  0.2814
   98SAPE  H16X 9894   0.466   5.688   4.856  0.5136  1.3647 -1.6161
   98SAPE  H16Y 9895   0.334   5.565   4.810  0.9657 -0.0168  0.9964
   98SAPE  C317 9896   0.430   5.666   4.646  0.3014  0.2185  1.3654
   98SAPE  H17X 9897   0.402   5.584   4.576  2.1087  0.1465  0.6777
   98SAPE  H17Y 9898   0.530   5.701   4.613 -0.1795 -0.0134 -0.4752
   98SAPE  C318 9899   0.331   5.787   4.637  0.4770  0.0000  0.0023
   98SAPE  H18X 9900   0.225   5.760   4.652  0.1660 -0.0282 -1.9386
   98SAPE  H18Y 9901   0.325   5.844   4.541 -2.1257  1.2429  0.8098
   98SAPE  H18Z 9902   0.351   5.852   4.725 -1.1791 -1.4223  1.5013
   99SAPE     N 9903   3.456   3.500   6.528 -0.0596 -0.2740 -0.4621
   99SAPE   HN1 9904   3.536   3.437   6.547  0.2359  0.2008 -0.1118
   99SAPE   HN2 9905   3.380   3.432   6.509  0.2624 -0.5333 -0.8210
   99SAPE   HN3 9906   3.472   3.552   6.439 -1.9250  1.0006 -0.1061
   99SAPE   C12 9907   3.419   3.602   6.635 -0.0853 -0.2920 -0.2896
   99SAPE  H12A 9908   3.474   3.698   6.621 -1.3449  0.6566  0.9325
   99SAPE  H12B 9909   3.449   3.553   6.730 -0.3651 -2.3768 -1.2409
   99SAPE   C11 9910   3.270   3.625   6.645 -0.2801  0.6543 -0.0254
   99SAPE  H11A 9911   3.257   3.698   6.728 -1.2234 -2.0344  2.3807
   99SAPE  H11B 9912   3.226   3.526   6.669 -0.9659  0.4098 -2.0821
   99SAPE     P 9913   3.074   3.722   6.518  0.3911 -0.2419 -0.0001
   99SAPE   O13 9914   2.981   3.657   6.610  0.7665  0.5023 -0.4711
   99SAPE   O14 9915   3.090   3.868   6.533  0.1261  0.1330 -0.2588
   99SAPE   O12 9916   3.211   3.653   6.512  0.3549 -0.3167 -0.2724
   99SAPE   O11 9917   3.026   3.697   6.369  0.0876 -0.3107 -0.3835
   99SAPE    C1 9918   3.028   3.565   6.317  0.2905  0.2702  0.6301
   99SAPE    HA 9919   3.089   3.487   6.368 -0.0889  0.6398  1.6738
   99SAPE    HB 9920   2.929   3.515   6.321  0.5367 -0.4211 -1.0567
   99SAPE    C2 9921   3.070   3.589   6.166 -0.5344 -0.3093 -0.8369
   99SAPE    HS 9922   3.002   3.666   6.123 -0.6630  0.3149  0.4425
   99SAPE   O21 9923   3.070   3.469   6.094  0.3373 -0.3480 -0.0388
   99SAPE   C21 9924   2.950   3.441   6.048  0.3686  0.0016 -0.9036
   99SAPE   O22 9925   2.843   3.492   6.078 -0.1424 -0.3066  0.1514
   99SAPE   C22 9926   2.959   3.332   5.947 -0.2195  0.1810  0.9614
   99SAPE   H2R 9927   2.989   3.238   5.997 -0.9924 -0.8097 -0.3708
   99SAPE   H2S 9928   2.857   3.306   5.914  0.4453 -0.9051 -0.3452
   99SAPE    C3 9929   3.215   3.646   6.159 -0.4273 -0.0687  0.2269
   99SAPE    HX 9930   3.288   3.568   6.192  1.0427  1.6504  1.2154
   99SAPE    HY 9931   3.222   3.731   6.230 -0.3664 -1.3047  1.7602
   99SAPE   O31 9932   3.267   3.676   6.026  0.5110 -0.5216 -0.2487
   99SAPE   C31 9933   3.200   3.779   5.971  0.4516 -0.2806 -0.0670
   99SAPE   O32 9934   3.111   3.843   6.020 -0.3545  0.4182 -0.2764
   99SAPE   C32 9935   3.264   3.813   5.833  0.3198 -0.8973 -0.3649
   99SAPE   H2X 9936   3.321   3.729   5.789  0.7020 -0.3554 -0.9187
   99SAPE   H2Y 9937   3.334   3.898   5.847  0.7053 -0.8955 -2.1023
   99SAPE   C23 9938   3.044   3.363   5.825 -0.1390  0.3276  0.5764
   99SAPE   H3R 9939   3.049   3.272   5.762 -1.6236  0.1521  0.6785
   99SAPE   H3S 9940   3.145   3.402   5.852 -0.6596  1.8600  0.4192
   99SAPE   C24 9941   3.002   3.476   5.726  0.4038  0.6190 -0.3871
   99SAPE   H4R 9942   3.078   3.493   5.647 -1.1250  0.9239 -1.8639
   99SAPE   H4S 9943   2.993   3.577   5.772 -1.4680  0.1934  0.2609
   99SAPE   C25 9944   2.870   3.443   5.654 -0.1112 -0.9033 -0.5791
   99SAPE   H5R 9945   2.783   3.461   5.718 -0.1883  1.7605 -1.3558
   99SAPE   C26 9946   2.853   3.408   5.526  0.3368  0.2161  0.4889
   99SAPE   H6R 9947   2.750   3.395   5.490 -0.2143  2.3641  1.1488
   99SAPE   C27 9948   2.955   3.391   5.416 -0.3494 -0.1015 -0.2464
   99SAPE   H7R 9949   2.991   3.495   5.400  0.7244 -0.1145  1.7472
   99SAPE   H7S 9950   2.901   3.364   5.323 -2.5493  0.7598  0.7154
   99SAPE   C28 9951   3.065   3.288   5.441 -0.8831  0.7406  0.1220
   99SAPE   H8R 9952   3.071   3.242   5.540 -0.5345 -0.3331 -0.3786
   99SAPE   C29 9953   3.161   3.272   5.342 -0.4069 -0.3126  0.0570
   99SAPE   H9R 9954   3.242   3.201   5.364 -0.4938 -0.9376 -1.5165
   99SAPE  C210 9955   3.142   3.323   5.199 -0.1131  0.2175  0.7693
   99SAPE  H10R 9956   3.195   3.421   5.193  1.4595 -0.5095  1.9303
   99SAPE  H10S 9957   3.038   3.336   5.164  0.3022  1.0472 -0.2295
   99SAPE  C211 9958   3.212   3.227   5.105 -0.8336 -0.2421  0.0125
   99SAPE  H11R 9959   3.311   3.205   5.148 -0.7219  1.5185  0.7363
   99SAPE  C212 9960   3.169   3.161   4.993 -0.3018 -0.5992 -0.4059
   99SAPE  H12R 9961   3.232   3.085   4.944  0.0172 -0.8572  0.3854
   99SAPE  C213 9962   3.035   3.183   4.934  0.1119 -0.0324  0.3315
   99SAPE  H13R 9963   3.033   3.269   4.864 -1.1445 -1.1088 -1.0359
   99SAPE  H13S 9964   2.966   3.225   5.010 -0.2472 -0.7541  0.4196
   99SAPE  C214 9965   2.979   3.057   4.864 -0.4750  0.3567  0.0600
   99SAPE  H14R 9966   2.920   2.989   4.929 -1.8015  1.3684 -0.0330
   99SAPE  C215 9967   3.009   3.023   4.735 -0.0223 -0.0126 -0.4861
   99SAPE  H15R 9968   2.975   2.929   4.689 -0.6590 -0.1496  0.2403
   99SAPE  C216 9969   3.097   3.108   4.650  0.3559  0.7289 -0.2091
   99SAPE  H16R 9970   3.195   3.144   4.689  0.8119  0.3699 -0.9965
   99SAPE  H16S 9971   3.035   3.195   4.620  0.2482  0.7136 -0.0331
   99SAPE  C217 9972   3.149   3.047   4.518  0.6148  0.0683  0.1313
   99SAPE  H17R 9973   3.200   2.949   4.529  1.8242  0.6046 -0.5259
   99SAPE  H17S 9974   3.222   3.116   4.470 -0.9183  0.2906 -2.0466
   99SAPE  C218 9975   3.034   3.037   4.412  0.3869 -0.0744 -0.3048
   99SAPE  H18R 9976   2.963   2.966   4.460  0.7593 -0.8033 -0.8107
   99SAPE  H18S 9977   3.070   2.987   4.319 -2.8492 -0.7724 -1.3151
   99SAPE  C219 9978   2.976   3.173   4.370  0.0958  0.0978  0.6530
   99SAPE  H19R 9979   3.036   3.263   4.395  0.4652 -0.6162  2.5005
   99SAPE  H19S 9980   2.897   3.181   4.447  0.2501  0.6583  0.7529
   99SAPE  C220 9981   2.912   3.170   4.233 -0.0160 -0.3349  0.0231
   99SAPE  H20R 9982   2.850   3.261   4.222  1.1266  0.6923  1.5727
   99SAPE  H20S 9983   2.854   3.075   4.235 -0.9528  0.2320  1.0245
   99SAPE  H20T 9984   2.990   3.162   4.155  0.4243 -0.0909  0.4301
   99SAPE   C33 9985   3.163   3.848   5.724  0.3655  0.0995 -0.2097
   99SAPE   H3X 9986   3.124   3.949   5.750  1.3292  0.0202  1.7304
   99SAPE   H3Y 9987   3.082   3.773   5.712 -1.6345  1.6181  2.5135
   99SAPE   C34 9988   3.243   3.869   5.593 -0.5467  0.2224  0.2770
   99SAPE   H4X 9989   3.283   3.768   5.570 -0.7686  0.5045 -1.4388
   99SAPE   H4Y 9990   3.324   3.937   5.625 -0.4931 -0.9018  2.8238
   99SAPE   C35 9991   3.135   3.907   5.489 -0.6672 -0.4599  0.1180
   99SAPE   H5X 9992   3.190   3.950   5.401  0.8872 -1.8013  0.3857
   99SAPE   H5Y 9993   3.063   3.981   5.530 -0.9502  1.3004 -3.1414
   99SAPE   C36 9994   3.042   3.799   5.430 -0.4919 -0.5790 -0.2562
   99SAPE   H6X 9995   2.970   3.765   5.508  0.0729 -1.7378 -0.2360
   99SAPE   H6Y 9996   3.106   3.718   5.389  0.5532  0.1819 -0.1661
   99SAPE   C37 9997   2.958   3.863   5.311  0.2871  0.0385 -0.1268
   99SAPE   H7X 9998   3.030   3.923   5.253  2.0245 -0.0420  1.8383
   99SAPE   H7Y 9999   2.873   3.927   5.344  1.3933  0.8203  1.2874
   99SAPE   C3810000   2.909   3.736   5.229 -0.6894  0.1631  0.7022
   99SAPE   H8X10001   2.857   3.665   5.296 -0.4268  0.1502  0.8965
   99SAPE   H8Y10002   3.005   3.689   5.198  0.8380  4.0286 -1.1440
   99SAPE   C3910003   2.815   3.751   5.109 -0.3462  0.4633  0.2965
   99SAPE   H9X10004   2.868   3.779   5.015  2.5826  0.2512  1.7657
   99SAPE   H9Y10005   2.752   3.838   5.136 -0.1994  1.3304 -1.9234
   99SAPE  C31010006   2.734   3.626   5.081  0.0211 -0.3609  0.5916
   99SAPE  H10X10007   2.671   3.657   4.995 -0.5608 -0.4214  0.9911
   99SAPE  H10Y10008   2.663   3.605   5.164  0.0312  1.1854  1.0301
   99SAPE  C31110009   2.814   3.510   5.033 -0.9591  1.3026 -0.0700
   99SAPE  H11X10010   2.842   3.436   5.111  1.1385  1.2850 -0.7704
   99SAPE  H11Y10011   2.909   3.557   5.001 -1.2382  1.5663 -0.5304
   99SAPE  C31210012   2.738   3.431   4.924 -0.4709  0.3282 -0.9118
   99SAPE  H12X10013   2.805   3.355   4.879 -1.4979 -0.1115 -1.7363
   99SAPE  H12Y10014   2.714   3.510   4.850  2.8175  1.9303 -0.4694
   99SAPE  C31310015   2.617   3.357   4.971  0.1060 -0.2283 -0.1275
   99SAPE  H13X10016   2.548   3.353   4.884 -1.9142  0.6970  1.3615
   99SAPE  H13Y10017   2.567   3.395   5.063 -1.7848 -1.7261 -0.4715
   99SAPE  C31410018   2.630   3.204   4.994  0.5091  0.4882 -0.2556
   99SAPE  H14X10019   2.542   3.164   5.049 -0.2669  2.7132  0.2532
   99SAPE  H14Y10020   2.717   3.172   5.056  2.0768 -0.8994 -2.9987
   99SAPE  C31510021   2.623   3.135   4.860 -0.0058  0.2730  0.0216
   99SAPE  H15X10022   2.703   3.174   4.793 -1.2518  2.5658 -0.2108
   99SAPE  H15Y10023   2.525   3.161   4.813 -0.6413 -1.8063  0.0954
   99SAPE  C31610024   2.624   2.977   4.863  0.0273 -0.2615 -0.0160
   99SAPE  H16X10025   2.561   2.944   4.949  0.4985 -1.3373 -0.0698
   99SAPE  H16Y10026   2.726   2.945   4.895 -0.3678 -1.6567 -0.0814
   99SAPE  C31710027   2.579   2.893   4.743  0.0271  0.5191  0.2731
   99SAPE  H17X10028   2.469   2.900   4.730 -0.2199 -0.0604  1.9140
   99SAPE  H17Y10029   2.604   2.788   4.770  1.4164  0.5529 -0.7446
   99SAPE  C31810030   2.642   2.936   4.611  0.0400 -0.1145  0.0792
   99SAPE  H18X10031   2.631   3.044   4.588  0.2041 -0.4845 -1.9348
   99SAPE  H18Y10032   2.593   2.878   4.530  0.2495  1.2317 -1.0414
   99SAPE  H18Z10033   2.753   2.924   4.614  0.1477  0.7722 -0.1777
  100SAPE     N10034   5.460   3.986   6.739  0.9604  0.2900  0.0683
  100SAPE   HN110035   5.420   4.055   6.806 -4.0881 -1.8758 -0.2972
  100SAPE   HN210036   5.427   3.897   6.781 -3.2026  1.9099  0.7810
  100SAPE   HN310037   5.562   4.006   6.733  0.8507  0.6761 -0.6838
  100SAPE   C1210038   5.374   4.018   6.620  0.2839 -0.0402  0.4462
  100SAPE  H12A10039   5.298   3.936   6.619  1.1942 -0.8905 -0.2678
  100SAPE  H12B10040   5.435   4.012   6.528 -0.2585  0.7785  0.0196
  100SAPE   C1110041   5.303   4.153   6.654 -0.2621  0.1992  0.1504
  100SAPE  H11A10042   5.229   4.185   6.577 -0.3569 -1.5684 -0.5304
  100SAPE  H11B10043   5.391   4.221   6.656 -0.3995  0.3636  1.2940
  100SAPE     P10044   5.198   4.285   6.845  0.2542 -0.0842  0.2796
  100SAPE   O1310045   5.079   4.248   6.926  0.0111  0.3443 -0.5226
  100SAPE   O1410046   5.311   4.348   6.915 -0.2374 -0.1466 -0.1293
  100SAPE   O1210047   5.249   4.149   6.782 -0.2634 -0.7252 -0.3883
  100SAPE   O1110048   5.166   4.377   6.728  0.7022  0.5008 -0.2732
  100SAPE    C110049   5.091   4.501   6.740  0.3277  0.1546 -0.0242
  100SAPE    HA10050   5.093   4.531   6.847 -0.5198 -2.0155  0.6600
  100SAPE    HB10051   5.143   4.582   6.685 -0.7867  0.5703 -0.4870
  100SAPE    C210052   4.950   4.484   6.692  0.3937  0.3875  0.5529
  100SAPE    HS10053   4.898   4.420   6.766 -0.3241  0.3012 -0.0243
  100SAPE   O2110054   4.947   4.403   6.572  0.3669 -1.2460  0.2424
  100SAPE   C2110055   4.833   4.365   6.520  0.5122 -0.4764 -0.0376
  100SAPE   O2210056   4.722   4.394   6.568 -0.4859 -0.3887  0.5717
  100SAPE   C2210057   4.856   4.272   6.399  0.2634 -0.2927 -0.1783
  100SAPE   H2R10058   4.938   4.303   6.331  0.4287  0.0643  0.1782
  100SAPE   H2S10059   4.877   4.176   6.450 -0.8417  1.1634  3.3503
  100SAPE    C310060   4.870   4.628   6.674  0.2975 -0.1020 -0.5087
  100SAPE    HX10061   4.906   4.699   6.752  0.1377  0.7619 -1.2127
  100SAPE    HY10062   4.762   4.608   6.692  0.2754  1.1997  0.9997
  100SAPE   O3110063   4.912   4.694   6.551 -0.0095  0.0769 -0.7293
  100SAPE   C3110064   4.799   4.733   6.480 -0.6535  0.4429 -0.2989
  100SAPE   O3210065   4.686   4.717   6.517 -0.1706 -0.4834  0.1388
  100SAPE   C3210066   4.842   4.811   6.352 -0.3083 -0.2856 -0.7955
  100SAPE   H2X10067   4.940   4.859   6.374  0.2104 -0.9549 -1.6021
  100SAPE   H2Y10068   4.764   4.887   6.328  1.5393  1.9696 -0.1029
  100SAPE   C2310069   4.726   4.237   6.317 -0.3244  0.4355  0.8812
  100SAPE   H3R10070   4.643   4.220   6.390 -1.1621 -2.5295 -0.5891
  100SAPE   H3S10071   4.743   4.145   6.256  2.3130  0.7178  1.1151
  100SAPE   C2410072   4.666   4.340   6.216  0.4646  0.2852 -0.5960
  100SAPE   H4R10073   4.619   4.423   6.273  0.1293 -0.0020 -0.4509
  100SAPE   H4S10074   4.572   4.296   6.178 -0.0560  0.9115 -0.0620
  100SAPE   C2510075   4.757   4.378   6.105 -1.0714  0.5169  1.1142
  100SAPE   H5R10076   4.807   4.476   6.112  1.0678 -0.0004 -3.3545
  100SAPE   C2610077   4.794   4.307   5.998 -0.3955  0.2202 -1.0710
  100SAPE   H6R10078   4.848   4.368   5.923 -1.7232  0.8218 -1.5734
  100SAPE   C2710079   4.756   4.173   5.947  0.3798  0.1055  0.2255
  100SAPE   H7R10080   4.726   4.164   5.841 -2.8793  0.6444  0.9784
  100SAPE   H7S10081   4.672   4.126   6.003  0.5857 -0.5016  0.0310
  100SAPE   C2810082   4.872   4.076   5.953 -0.8445 -0.0678 -1.0076
  100SAPE   H8R10083   4.889   4.057   6.060 -2.4933  0.3241 -0.6518
  100SAPE   C2910084   4.939   4.007   5.861  0.1446 -0.4912  0.0175
  100SAPE   H9R10085   5.017   3.942   5.903  1.1560  2.5862  3.4441
  100SAPE  C21010086   4.930   4.013   5.710 -0.3286 -0.8294  0.2610
  100SAPE  H10R10087   5.029   3.990   5.666 -0.4641 -3.6676  1.2327
  100SAPE  H10S10088   4.904   4.119   5.690 -1.0373 -0.4694  2.7192
  100SAPE  C21110089   4.806   3.952   5.650 -0.4541  0.1570 -0.3758
  100SAPE  H11R10090   4.719   3.967   5.716 -0.5669  0.5061 -0.6008
  100SAPE  C21210091   4.792   3.916   5.523 -0.4778  0.1636 -0.0620
  100SAPE  H12R10092   4.695   3.884   5.483 -0.1242  0.0977 -0.8909
  100SAPE  C21310093   4.910   3.918   5.431 -0.4297 -1.0996  0.7126
  100SAPE  H13R10094   4.890   3.835   5.360  0.8813 -0.3585 -0.5771
  100SAPE  H13S10095   5.000   3.875   5.480 -1.1751 -1.2933  1.9325
  100SAPE  C21410096   4.944   4.051   5.357 -0.4693  1.1593 -0.0057
  100SAPE  H14R10097   5.011   4.118   5.412 -0.7731  0.0803  1.7762
  100SAPE  C21510098   4.894   4.085   5.236 -0.1301 -0.6100 -0.0898
  100SAPE  H15R10099   4.925   4.176   5.182 -1.4271 -0.4845 -0.6513
  100SAPE  C21610100   4.794   4.011   5.158  0.1417  0.0225 -0.2282
  100SAPE  H16R10101   4.707   4.071   5.122  1.4065  2.6664  0.8646
  100SAPE  H16S10102   4.739   3.932   5.213 -1.3316  0.7262 -0.6383
  100SAPE  C21710103   4.864   3.945   5.033 -0.4841 -0.5526 -0.1014
  100SAPE  H17R10104   4.925   4.019   4.978  2.5894 -1.9483  1.2082
  100SAPE  H17S10105   4.787   3.925   4.955  1.2290  1.3400 -2.4341
  100SAPE  C21810106   4.949   3.822   5.056 -0.3856 -0.1102  1.0423
  100SAPE  H18R10107   4.897   3.741   5.112 -0.7430 -1.6588 -1.3513
  100SAPE  H18S10108   5.033   3.848   5.124 -1.5842  0.4110  2.3652
  100SAPE  C21910109   5.001   3.748   4.926  0.2511 -0.2381 -0.2180
  100SAPE  H19R10110   5.081   3.817   4.892  0.1076 -0.1668 -0.4152
  100SAPE  H19S10111   4.917   3.754   4.853  0.0480  1.1748  0.0905
  100SAPE  C22010112   5.062   3.608   4.939 -0.2079  0.0842 -0.1147
  100SAPE  H20R10113   5.144   3.610   5.014 -1.8638 -0.9866  1.8366
  100SAPE  H20S10114   5.104   3.570   4.844  3.3360  2.3288  0.3699
  100SAPE  H20T10115   4.987   3.535   4.976  0.6558 -0.4738  0.5800
  100SAPE   C3310116   4.847   4.715   6.244  0.1681  0.0943  0.6397
  100SAPE   H3X10117   4.740   4.690   6.227 -0.1370  1.6465  0.1149
  100SAPE   H3Y10118   4.897   4.618   6.263  1.8300  0.5306 -1.1785
  100SAPE   C3410119   4.912   4.771   6.121  0.0367  0.5481  0.2219
  100SAPE   H4X10120   5.022   4.775   6.138  0.4253 -3.2663 -0.5169
  100SAPE   H4Y10121   4.877   4.875   6.106 -2.4106 -0.0576  1.3629
  100SAPE   C3510122   4.881   4.686   5.995 -0.7511  0.6257 -0.2294
  100SAPE   H5X10123   4.771   4.675   5.981 -0.6755  2.1343 -2.7081
  100SAPE   H5Y10124   4.940   4.593   6.001 -0.4759  0.9053  2.8912
  100SAPE   C3610125   4.930   4.757   5.866  0.0000 -0.2854  0.0232
  100SAPE   H6X10126   5.038   4.779   5.881 -0.7110  2.8470  1.2242
  100SAPE   H6Y10127   4.882   4.857   5.869  1.1674  0.3859 -1.7836
  100SAPE   C3710128   4.877   4.684   5.741 -0.4862  0.2893 -0.0842
  100SAPE   H7X10129   4.771   4.709   5.719 -0.6256 -0.9950 -1.0172
  100SAPE   H7Y10130   4.889   4.574   5.756 -1.3384  0.0273 -1.2369
  100SAPE   C3810131   4.956   4.706   5.610 -0.6266  0.2381 -0.3053
  100SAPE   H8X10132   4.922   4.637   5.530 -0.8023  1.4075 -1.2650
  100SAPE   H8Y10133   5.059   4.674   5.638 -0.9068 -0.9757 -0.5694
  100SAPE   C3910134   4.939   4.847   5.557  0.2053 -0.1195  0.1782
  100SAPE   H9X10135   4.982   4.924   5.623 -2.4039  1.4069  0.2531
  100SAPE   H9Y10136   4.830   4.869   5.547  0.3407  0.5260  0.1086
  100SAPE  C31010137   5.007   4.868   5.413 -0.3184 -0.5180 -0.3280
  100SAPE  H10X10138   5.073   4.779   5.406  0.3873 -0.2447  1.8688
  100SAPE  H10Y10139   5.072   4.956   5.434  0.3128 -1.4839  2.1976
  100SAPE  C31110140   4.892   4.890   5.308 -0.2066  0.3747  0.1775
  100SAPE  H11X10141   4.815   4.958   5.350  1.7422  2.2455  0.8490
  100SAPE  H11Y10142   4.841   4.792   5.293 -2.0953  0.9168  2.4988
  100SAPE  C31210143   4.934   4.946   5.172 -0.2152 -0.1322  0.4724
  100SAPE  H12X10144   4.994   5.039   5.186  0.1127 -0.6233  2.7334
  100SAPE  H12Y10145   4.837   4.971   5.124 -0.5660  1.0515  1.7410
  100SAPE  C31310146   5.026   4.854   5.085  0.2800 -0.0818 -0.9213
  100SAPE  H13X10147   4.974   4.757   5.065 -1.5633  0.5885  0.3671
  100SAPE  H13Y10148   5.119   4.831   5.142 -0.5600  2.8892  1.9284
  100SAPE  C31410149   5.054   4.924   4.952  0.0920  0.4647  0.2480
  100SAPE  H14X10150   5.113   5.014   4.979 -0.9257  0.8000  1.4533
  100SAPE  H14Y10151   4.957   4.953   4.906  0.3799  0.6449 -0.2593
  100SAPE  C31510152   5.134   4.852   4.848  0.1171 -0.4193  0.0151
  100SAPE  H15X10153   5.092   4.750   4.859  0.7233 -0.4692  2.4790
  100SAPE  H15Y10154   5.241   4.861   4.878  0.3964  1.7812 -1.4648
  100SAPE  C31610155   5.124   4.918   4.711 -0.0706  0.4169  0.8866
  100SAPE  H16X10156   5.024   4.913   4.663 -0.1814  2.2239  0.8727
  100SAPE  H16Y10157   5.189   4.862   4.640 -1.4534  0.6420 -0.5999
  100SAPE  C31710158   5.173   5.062   4.704 -0.1073  0.8498  0.6810
  100SAPE  H17X10159   5.116   5.130   4.771 -0.0331  3.0505 -1.3374
  100SAPE  H17Y10160   5.161   5.094   4.598 -0.9287 -1.7842 -0.0960
  100SAPE  C31810161   5.321   5.075   4.730 -0.6478 -0.9433 -0.0651
  100SAPE  H18X10162   5.354   5.084   4.836  1.3243  0.5828 -0.7423
  100SAPE  H18Y10163   5.353   5.173   4.687 -1.4329 -1.5594 -2.1896
  100SAPE  H18Z10164   5.388   5.004   4.677  1.6836 -0.1649  1.6880
  101SAPE     N10165   4.480   4.399   6.697 -0.8555  0.7199 -0.1828
  101SAPE   HN110166   4.541   4.394   6.781 -1.2484  2.7276  0.2732
  101SAPE   HN210167   4.544   4.402   6.615 -1.6921 -0.9736 -0.9636
  101SAPE   HN310168   4.421   4.484   6.706 -1.5149  0.2719 -0.1322
  101SAPE   C1210169   4.392   4.281   6.688  0.4263 -0.5142  0.3703
  101SAPE  H12A10170   4.446   4.185   6.703  0.9648 -0.2280  0.2894
  101SAPE  H12B10171   4.348   4.286   6.586  0.7936  1.3728  0.2660
  101SAPE   C1110172   4.267   4.286   6.777  0.6671 -0.1519  0.6370
  101SAPE  H11A10173   4.300   4.281   6.883  3.0071 -0.4736 -0.0337
  101SAPE  H11B10174   4.213   4.191   6.756 -1.1470  1.0675 -0.5007
  101SAPE     P10175   4.201   4.527   6.859  0.2615 -0.0441  0.1338
  101SAPE   O1310176   4.162   4.483   6.998 -0.3846 -0.2481  0.3029
  101SAPE   O1410177   4.339   4.574   6.836  0.2394 -1.0035 -0.0922
  101SAPE   O1210178   4.180   4.402   6.754  0.6942  0.0786 -0.1200
  101SAPE   O1110179   4.098   4.639   6.823 -0.1623 -0.2942 -0.1616
  101SAPE    C110180   4.022   4.632   6.705 -0.5961  0.0426  0.3459
  101SAPE    HA10181   3.976   4.532   6.687  2.0733 -0.6925 -3.8697
  101SAPE    HB10182   3.937   4.703   6.713 -1.1337 -0.3949 -1.1084
  101SAPE    C210183   4.093   4.671   6.579 -0.3779 -0.2994  0.3524
  101SAPE    HS10184   4.180   4.604   6.562  0.1612 -0.1105  2.1175
  101SAPE   O2110185   4.136   4.813   6.589 -0.6109 -0.1326  0.0776
  101SAPE   C2110186   4.245   4.848   6.523  0.6250 -0.8982  0.3372
  101SAPE   O2210187   4.322   4.777   6.462  0.1631 -0.0668  0.3912
  101SAPE   C2210188   4.255   5.000   6.514  0.0582  0.6780 -0.0256
  101SAPE   H2R10189   4.161   5.053   6.486 -0.6222 -0.6826 -0.4158
  101SAPE   H2S10190   4.283   5.040   6.614  0.3488  0.8733 -0.1842
  101SAPE    C310191   3.991   4.664   6.462 -0.1680  0.1968  0.1982
  101SAPE    HX10192   3.928   4.755   6.470 -0.4525  0.1159 -1.0012
  101SAPE    HY10193   3.919   4.580   6.476 -0.5701 -0.0952 -2.9296
  101SAPE   O3110194   4.036   4.650   6.327  0.0719  0.2754 -0.0043
  101SAPE   C3110195   4.068   4.762   6.263  0.6299  0.0913 -0.3983
  101SAPE   O3210196   4.043   4.876   6.304  0.2710  0.0276  0.3780
  101SAPE   C3210197   4.136   4.733   6.133  0.2012  0.8480  0.6423
  101SAPE   H2X10198   4.170   4.831   6.092  0.1829  0.0640 -1.3448
  101SAPE   H2Y10199   4.068   4.694   6.054 -0.4552  1.4278  0.9156
  101SAPE   C2310200   4.368   5.061   6.426 -0.0406  0.0376  0.2578
  101SAPE   H3R10201   4.458   5.017   6.473 -1.4218 -0.0539  3.0324
  101SAPE   H3S10202   4.360   5.171   6.441 -0.1933  0.1551 -0.6290
  101SAPE   C2410203   4.355   5.048   6.269  0.4492 -0.5738 -0.0626
  101SAPE   H4R10204   4.255   5.088   6.244  0.6398 -0.6417 -0.9811
  101SAPE   H4S10205   4.350   4.940   6.244  0.3438 -0.6845  0.4324
  101SAPE   C2510206   4.465   5.126   6.204  0.2659  0.3113  0.9458
  101SAPE   H5R10207   4.485   5.231   6.231 -0.4994  0.9132 -0.7236
  101SAPE   C2610208   4.543   5.078   6.105  0.2820 -0.1747 -0.7796
  101SAPE   H6R10209   4.623   5.141   6.063  1.3080 -1.7886 -1.3491
  101SAPE   C2710210   4.535   4.939   6.046 -0.0350 -0.3224 -0.7298
  101SAPE   H7R10211   4.427   4.911   6.045 -0.5835  0.8296  4.2214
  101SAPE   H7S10212   4.584   4.877   6.124  0.4042  0.6991 -0.1782
  101SAPE   C2810213   4.583   4.905   5.904  0.6491  0.1964 -0.1941
  101SAPE   H8R10214   4.671   4.840   5.896  1.6087  1.2230  1.5160
  101SAPE   C2910215   4.526   4.946   5.792 -0.4010 -0.7081 -0.6959
  101SAPE   H9R10216   4.569   4.926   5.693  0.6230  0.3330 -0.4768
  101SAPE  C21010217   4.393   5.023   5.782  0.8207 -0.2806 -0.5052
  101SAPE  H10R10218   4.312   4.996   5.853  0.1665 -1.0681 -1.5326
  101SAPE  H10S10219   4.349   4.999   5.683 -0.4755  0.1278 -0.0383
  101SAPE  C21110220   4.419   5.175   5.772  0.7253  0.0427  0.3902
  101SAPE  H11R10221   4.450   5.230   5.862 -0.9644  1.4712  0.1568
  101SAPE  C21210222   4.426   5.245   5.654  0.3799 -0.0288 -0.0565
  101SAPE  H12R10223   4.474   5.342   5.674  1.1001 -0.5495  0.7939
  101SAPE  C21310224   4.405   5.188   5.515  0.1867 -0.9450  0.1952
  101SAPE  H13R10225   4.299   5.158   5.496 -0.2722  1.8622 -2.5382
  101SAPE  H13S10226   4.463   5.094   5.503 -0.5792 -1.3051 -0.8625
  101SAPE  C21410227   4.439   5.283   5.407 -0.1948 -0.4284  0.2990
  101SAPE  H14R10228   4.482   5.382   5.424  0.8192 -0.3297 -2.4475
  101SAPE  C21510229   4.433   5.253   5.275  0.0749  0.4162  0.3952
  101SAPE  H15R10230   4.460   5.341   5.214  3.1584 -0.1309  0.8056
  101SAPE  C21610231   4.392   5.128   5.201 -0.0256 -0.7884  0.0567
  101SAPE  H16R10232   4.284   5.142   5.178  0.3477  1.4783 -0.5027
  101SAPE  H16S10233   4.397   5.043   5.273  3.1545 -0.6680  0.1049
  101SAPE  C21710234   4.490   5.099   5.084  0.2704  0.2840 -0.5686
  101SAPE  H17R10235   4.584   5.082   5.140 -0.4073 -2.2641 -0.0330
  101SAPE  H17S10236   4.500   5.177   5.006 -1.3985  0.1489 -0.9585
  101SAPE  C21810237   4.461   4.962   5.021  0.5298 -0.0955 -0.1710
  101SAPE  H18R10238   4.385   4.994   4.946 -0.8855  0.1551  1.3119
  101SAPE  H18S10239   4.428   4.888   5.097 -0.3126  2.9180  2.6034
  101SAPE  C21910240   4.585   4.908   4.956  0.0508  0.2075 -0.4414
  101SAPE  H19R10241   4.563   4.819   4.894  0.2626 -1.9311  2.3920
  101SAPE  H19S10242   4.656   4.885   5.038  1.3980  0.7882 -1.3916
  101SAPE  C22010243   4.655   5.006   4.858  0.4162  0.3172 -0.3394
  101SAPE  H20R10244   4.712   4.940   4.789 -2.5345 -3.3969  0.4048
  101SAPE  H20S10245   4.720   5.082   4.906 -1.2429  1.0782  0.8322
  101SAPE  H20T10246   4.577   5.051   4.792  0.5398 -1.2603 -1.6251
  101SAPE   C3310247   4.253   4.628   6.163 -0.1437 -0.2210  0.2490
  101SAPE   H3X10248   4.211   4.536   6.209  0.4584  0.4148  2.1703
  101SAPE   H3Y10249   4.313   4.661   6.250  1.5525  0.6112 -1.1692
  101SAPE   C3410250   4.351   4.614   6.044  0.1415  0.7600  0.3923
  101SAPE   H4X10251   4.440   4.556   6.076  0.4400  1.1789  0.3278
  101SAPE   H4Y10252   4.388   4.715   6.018 -0.5899  0.8027 -0.5496
  101SAPE   C3510253   4.286   4.543   5.925  0.7229  0.1242 -0.1674
  101SAPE   H5X10254   4.208   4.609   5.881 -0.6078  1.4995  3.8037
  101SAPE   H5Y10255   4.245   4.448   5.967 -1.2976  1.2164  0.4747
  101SAPE   C3610256   4.389   4.519   5.812 -0.3327  0.5511 -0.1406
  101SAPE   H6X10257   4.465   4.600   5.816 -0.0232  0.2473  3.8010
  101SAPE   H6Y10258   4.337   4.507   5.715 -1.6996 -0.8900  0.7170
  101SAPE   C3710259   4.465   4.394   5.832  0.3256  0.0330  0.5852
  101SAPE   H7X10260   4.403   4.320   5.887  1.5721 -0.4860  1.3391
  101SAPE   H7Y10261   4.544   4.402   5.909 -0.5461  1.7408  1.3488
  101SAPE   C3810262   4.511   4.325   5.698 -0.2639 -0.0838 -0.1999
  101SAPE   H8X10263   4.437   4.357   5.621 -1.0816 -1.0544  0.1612
  101SAPE   H8Y10264   4.512   4.215   5.711 -1.4235 -0.1776 -0.7264
  101SAPE   C3910265   4.654   4.369   5.652 -0.6365 -0.1354  0.3298
  101SAPE   H9X10266   4.723   4.358   5.738 -0.6230 -0.4739  0.2777
  101SAPE   H9Y10267   4.656   4.479   5.636  1.8616 -0.0886  0.5821
  101SAPE  C31010268   4.716   4.285   5.533  0.2319  0.0043 -0.3841
  101SAPE  H10X10269   4.703   4.177   5.555  0.9846 -0.7442 -3.1941
  101SAPE  H10Y10270   4.822   4.313   5.513 -0.1383  0.1492 -2.3861
  101SAPE  C31110271   4.653   4.315   5.396 -0.3217  0.0152  0.1542
  101SAPE  H11X10272   4.551   4.358   5.400 -1.7291 -3.1715  2.2125
  101SAPE  H11Y10273   4.657   4.216   5.345  0.6478 -0.2204  0.6689
  101SAPE  C31210274   4.753   4.400   5.308 -0.0402  0.2341  0.4284
  101SAPE  H12X10275   4.851   4.347   5.307  0.2173  0.7106 -0.0633
  101SAPE  H12Y10276   4.772   4.497   5.359  0.8459  0.6952 -0.7256
  101SAPE  C31310277   4.710   4.428   5.162  0.3657  0.5628 -0.3483
  101SAPE  H13X10278   4.617   4.489   5.168 -0.1321 -0.3481  2.6409
  101SAPE  H13Y10279   4.674   4.337   5.108  1.6012  1.6421 -3.2062
  101SAPE  C31410280   4.820   4.488   5.084 -0.4884  0.2801 -0.8481
  101SAPE  H14X10281   4.907   4.420   5.082 -1.8022 -1.4789 -2.0700
  101SAPE  H14Y10282   4.851   4.577   5.142  0.3512 -1.1320  0.9602
  101SAPE  C31510283   4.786   4.542   4.945 -0.5503 -0.0645  0.0823
  101SAPE  H15X10284   4.868   4.609   4.912 -0.2114  0.9465  2.7514
  101SAPE  H15Y10285   4.692   4.601   4.947 -1.1911 -1.0216 -0.4139
  101SAPE  C31610286   4.760   4.423   4.841 -0.6778  0.2324  0.1515
  101SAPE  H16X10287   4.731   4.462   4.741 -0.9530 -1.1564 -0.3413
  101SAPE  H16Y10288   4.664   4.377   4.873 -0.4152  0.9253  2.0298
  101SAPE  C31710289   4.870   4.323   4.825  0.0489 -0.1508  0.8273
  101SAPE  H17X10290   4.838   4.276   4.729  0.2672  1.1916  0.0696
  101SAPE  H17Y10291   4.869   4.240   4.899 -1.0283 -1.0566 -0.1470
  101SAPE  C31810292   5.015   4.363   4.792  0.5185 -0.5325 -0.4445
  101SAPE  H18X10293   5.006   4.437   4.710 -0.4608 -1.6176 -1.3279
  101SAPE  H18Y10294   5.058   4.267   4.756  0.7604 -0.8904  0.7477
  101SAPE  H18Z10295   5.046   4.405   4.891 -2.0855  0.5869 -0.0384
  102SAPE     N10296   2.852   3.881   6.751  0.1755  0.7012 -0.0328
  102SAPE   HN110297   2.903   3.968   6.778 -1.0834  1.6641 -0.6457
  102SAPE   HN210298   2.792   3.843   6.827 -0.3382 -0.9721 -1.2182
  102SAPE   HN310299   2.913   3.805   6.714  0.8610  1.7209 -1.0933
  102SAPE   C1210300   2.765   3.926   6.631  0.3095  0.0466  0.1051
  102SAPE  H12A10301   2.691   3.845   6.614 -1.4563  0.9422  2.7427
  102SAPE  H12B10302   2.830   3.922   6.541 -1.5121 -1.6594 -1.2373
  102SAPE   C1110303   2.687   4.062   6.643 -0.0145 -0.6896  1.2241
  102SAPE  H11A10304   2.605   4.045   6.716 -0.3692 -1.9158  0.5581
  102SAPE  H11B10305   2.639   4.074   6.544 -2.0164 -3.2417  1.7839
  102SAPE     P10306   2.870   4.255   6.611 -0.1271  0.2711  0.2763
  102SAPE   O1310307   2.911   4.379   6.686 -0.2038  0.0060  0.4217
  102SAPE   O1410308   2.983   4.168   6.570 -0.0510 -0.2972  0.2327
  102SAPE   O1210309   2.774   4.167   6.693  0.0486  0.1718  0.0986
  102SAPE   O1110310   2.782   4.295   6.479 -0.5922  0.0965 -0.5861
  102SAPE    C110311   2.682   4.392   6.500 -0.5155  0.5960 -0.2475
  102SAPE    HA10312   2.596   4.343   6.550 -0.7989  3.3208  2.1924
  102SAPE    HB10313   2.710   4.468   6.576  1.3835 -0.7057  0.4232
  102SAPE    C210314   2.650   4.447   6.359 -0.2094 -0.5884  0.1022
  102SAPE    HS10315   2.558   4.508   6.368  1.0978  1.8521 -1.8030
  102SAPE   O2110316   2.637   4.342   6.264 -0.6086  0.1732 -0.0688
  102SAPE   C2110317   2.520   4.268   6.283 -0.6266 -0.5592  0.3455
  102SAPE   O2210318   2.440   4.289   6.370  0.5050  0.2724  0.4181
  102SAPE   C2210319   2.505   4.179   6.161  0.3035 -0.1498 -0.6552
  102SAPE   H2R10320   2.578   4.208   6.083 -1.3437  0.4224 -2.0453
  102SAPE   H2S10321   2.549   4.081   6.187 -0.3213 -0.8276 -2.0442
  102SAPE    C310322   2.766   4.543   6.308 -0.3946  0.1780 -0.2576
  102SAPE    HX10323   2.859   4.483   6.309  0.3906  1.3722  0.5667
  102SAPE    HY10324   2.793   4.626   6.376 -4.7878  0.8962  0.9222
  102SAPE   O3110325   2.749   4.596   6.175  0.1098  1.1265  0.1597
  102SAPE   C3110326   2.652   4.677   6.165  0.2775  0.3957 -0.3588
  102SAPE   O3210327   2.594   4.729   6.263  0.8499 -0.2798  0.3353
  102SAPE   C3210328   2.639   4.712   6.017  0.4818  0.1360  0.6176
  102SAPE   H2X10329   2.734   4.701   5.960 -2.3731  0.2518 -4.7430
  102SAPE   H2Y10330   2.601   4.816   6.025  0.4377 -0.0354  4.2903
  102SAPE   C2310331   2.364   4.169   6.107  0.2960  0.5123 -0.0841
  102SAPE   H3R10332   2.279   4.199   6.171  0.4380  1.7532 -0.4608
  102SAPE   H3S10333   2.337   4.062   6.094 -1.6872  1.2412 -2.7725
  102SAPE   C2410334   2.352   4.241   5.971 -0.8614 -0.3418 -0.2717
  102SAPE   H4R10335   2.413   4.333   5.980  1.6285 -2.0878  3.2672
  102SAPE   H4S10336   2.245   4.263   5.956 -0.8186 -1.1124 -1.9421
  102SAPE   C2510337   2.405   4.166   5.847 -0.2013 -0.8612 -0.9499
  102SAPE   H5R10338   2.487   4.095   5.866  0.3040  0.0474  0.3764
  102SAPE   C2610339   2.352   4.174   5.724  0.0855 -0.1127 -0.4075
  102SAPE   H6R10340   2.420   4.139   5.645 -0.2604  1.1826 -1.2936
  102SAPE   C2710341   2.233   4.262   5.681 -1.0163 -0.0439  0.0290
  102SAPE   H7R10342   2.246   4.291   5.575  2.3023 -0.4092  0.2155
  102SAPE   H7S10343   2.223   4.356   5.739 -0.4762  0.8406 -1.2728
  102SAPE   C2810344   2.116   4.178   5.705 -0.4889  0.5879 -0.1719
  102SAPE   H8R10345   2.109   4.118   5.797 -0.7060 -0.9602 -1.1597
  102SAPE   C2910346   2.006   4.167   5.634 -0.3200  0.1805  0.3219
  102SAPE   H9R10347   1.936   4.087   5.661 -0.2018  0.1983  0.6928
  102SAPE  C21010348   1.965   4.242   5.506  0.1699  0.1569  0.2553
  102SAPE  H10R10349   2.040   4.321   5.480 -1.6566  3.1789  3.3275
  102SAPE  H10S10350   1.871   4.297   5.524 -1.3574 -1.8134 -1.2583
  102SAPE  C21110351   1.951   4.143   5.392  0.8993  0.1386  0.0659
  102SAPE  H11R10352   2.026   4.062   5.392 -0.6596 -1.4012 -1.8891
  102SAPE  C21210353   1.879   4.155   5.278  0.1413  0.4054  0.7860
  102SAPE  H12R10354   1.886   4.067   5.212  0.5258 -0.3258  1.7712
  102SAPE  C21310355   1.781   4.264   5.244 -0.6728  0.1985  0.1516
  102SAPE  H13R10356   1.727   4.295   5.336 -1.7408  0.7111 -0.6271
  102SAPE  H13S10357   1.703   4.210   5.187 -0.8563 -1.5913  2.0006
  102SAPE  C21410358   1.847   4.383   5.176 -0.6269  0.3386  0.0584
  102SAPE  H14R10359   1.922   4.439   5.234  0.7447 -0.1474 -1.1975
  102SAPE  C21510360   1.830   4.427   5.046  0.5055 -0.6690 -0.1902
  102SAPE  H15R10361   1.906   4.501   5.015 -1.7060  2.1792  0.6689
  102SAPE  C21610362   1.733   4.369   4.947 -0.1480 -0.1044  0.0836
  102SAPE  H16R10363   1.657   4.445   4.919 -3.5468 -3.5458 -0.8860
  102SAPE  H16S10364   1.680   4.276   4.976 -0.3908 -0.1576 -0.5100
  102SAPE  C21710365   1.792   4.342   4.807 -0.5762  0.2351  0.3440
  102SAPE  H17R10366   1.843   4.432   4.766  0.4300 -1.2993 -1.9987
  102SAPE  H17S10367   1.719   4.317   4.727  1.2096 -0.2789 -1.2125
  102SAPE  C21810368   1.900   4.232   4.810 -0.2960 -0.6433 -0.0541
  102SAPE  H18R10369   1.967   4.248   4.897 -0.5836 -0.8945  0.2210
  102SAPE  H18S10370   1.958   4.238   4.716  0.3066 -1.4369  0.2509
  102SAPE  C21910371   1.847   4.088   4.826 -0.2985  0.2491 -0.1622
  102SAPE  H19R10372   1.767   4.063   4.753  1.4058 -0.7093 -1.7902
  102SAPE  H19S10373   1.797   4.085   4.925 -1.4380  0.2062 -0.7150
  102SAPE  C22010374   1.957   3.981   4.814 -0.0855  0.5713  0.0626
  102SAPE  H20R10375   2.045   4.001   4.749 -0.3988  0.8706 -0.2766
  102SAPE  H20S10376   1.919   3.880   4.786  1.6119 -0.1359  0.1804
  102SAPE  H20T10377   2.001   3.965   4.915  0.5034 -0.7531 -0.3802
  102SAPE   C3310378   2.532   4.622   5.948  0.4323 -0.2770  0.7202
  102SAPE   H3X10379   2.430   4.649   5.985  1.2103  1.1530  1.9504
  102SAPE   H3Y10380   2.551   4.514   5.965  0.1829 -0.6299 -1.1112
  102SAPE   C3410381   2.540   4.668   5.801 -0.4050 -1.0503  0.0084
  102SAPE   H4X10382   2.642   4.642   5.766  1.4471  1.7472  2.7942
  102SAPE   H4Y10383   2.548   4.779   5.808 -5.0279 -0.4850 -0.3698
  102SAPE   C3510384   2.422   4.628   5.716 -0.1439  0.1107  0.7640
  102SAPE   H5X10385   2.339   4.684   5.764 -0.5797 -0.3618  0.5619
  102SAPE   H5Y10386   2.413   4.518   5.730 -0.5773  0.0407 -0.0481
  102SAPE   C3610387   2.448   4.665   5.571 -0.5367  0.2168  0.6341
  102SAPE   H6X10388   2.538   4.612   5.533 -2.0445 -1.5409 -0.6497
  102SAPE   H6Y10389   2.465   4.775   5.574  2.0719 -0.1288  3.0595
  102SAPE   C3710390   2.319   4.653   5.492  0.2025  0.7192  0.3946
  102SAPE   H7X10391   2.232   4.687   5.552  0.2180  1.7274 -0.1315
  102SAPE   H7Y10392   2.303   4.545   5.472  0.4508  1.0895 -2.0488
  102SAPE   C3810393   2.314   4.726   5.360 -1.0684 -0.0748  0.0677
  102SAPE   H8X10394   2.328   4.836   5.375  0.4201 -0.0710 -1.1372
  102SAPE   H8Y10395   2.210   4.729   5.320 -0.6630  3.1656 -1.0599
  102SAPE   C3910396   2.420   4.674   5.263 -0.2243 -0.0299 -0.1379
  102SAPE   H9X10397   2.413   4.563   5.261 -0.1815 -0.0938  1.9485
  102SAPE   H9Y10398   2.520   4.704   5.302  0.8046 -2.8795 -0.3330
  102SAPE  C31010399   2.399   4.728   5.124  0.0822 -0.1133  0.1389
  102SAPE  H10X10400   2.307   4.688   5.075  0.7741 -0.9645 -0.4857
  102SAPE  H10Y10401   2.485   4.692   5.064  1.7527  2.6733  0.6661
  102SAPE  C31110402   2.404   4.884   5.099 -0.0955 -0.5226 -0.6744
  102SAPE  H11X10403   2.507   4.923   5.112  0.3774 -1.7165 -0.7383
  102SAPE  H11Y10404   2.334   4.929   5.174 -0.2058  0.8017 -1.5365
  102SAPE  C31210405   2.351   4.938   4.965  0.0736 -0.1476  0.6181
  102SAPE  H12X10406   2.391   5.038   4.938  2.3386 -1.2872 -0.5167
  102SAPE  H12Y10407   2.241   4.954   4.977  0.0071  1.3613 -1.4842
  102SAPE  C31310408   2.381   4.839   4.851  0.2295  0.5171  0.1630
  102SAPE  H13X10409   2.328   4.744   4.869 -0.4471  1.2825  2.6114
  102SAPE  H13Y10410   2.491   4.824   4.844 -0.0638 -1.4761 -0.7381
  102SAPE  C31410411   2.332   4.893   4.705 -0.0426 -0.2330  0.4581
  102SAPE  H14X10412   2.383   4.989   4.682  0.7616 -0.8784 -0.5589
  102SAPE  H14Y10413   2.224   4.917   4.714  0.5335  3.3667 -0.7364
  102SAPE  C31510414   2.349   4.801   4.585  0.0184  0.2125  0.5076
  102SAPE  H15X10415   2.440   4.739   4.592  0.2607  0.3630 -1.0769
  102SAPE  H15Y10416   2.352   4.862   4.492 -0.8877 -1.5068 -0.7111
  102SAPE  C31610417   2.230   4.706   4.585 -0.2398 -0.2221 -0.0847
  102SAPE  H16X10418   2.134   4.752   4.555 -0.1029  0.0126 -0.1632
  102SAPE  H16Y10419   2.216   4.662   4.686  1.3513 -0.4255  0.0644
  102SAPE  C31710420   2.246   4.574   4.504  0.0375 -0.3730  0.0248
  102SAPE  H17X10421   2.345   4.534   4.532  0.4886 -0.1593 -1.2006
  102SAPE  H17Y10422   2.253   4.598   4.396  1.4483  0.2231  0.2282
  102SAPE  C31810423   2.147   4.463   4.524  0.8315 -1.1611  0.4485
  102SAPE  H18X10424   2.057   4.503   4.471  0.4139 -0.6694  1.4963
  102SAPE  H18Y10425   2.108   4.459   4.628  1.7046 -3.7712  0.7426
  102SAPE  H18Z10426   2.176   4.363   4.488  1.2982 -0.5987 -0.7882
  103SAPE     N10427   2.162   0.175   1.939  0.1267  0.0440  0.2944
  103SAPE   HN110428   2.104   0.220   2.012 -1.8642 -1.6967 -0.1118
  103SAPE   HN210429   2.133   0.215   1.847  1.0149 -0.7789 -0.3727
  103SAPE   HN310430   2.135   0.075   1.934  0.5912 -0.1676  1.6227
  103SAPE   C1210431   2.312   0.193   1.960 -0.1610  0.2953  0.5475
  103SAPE  H12A10432   2.349   0.277   1.897  2.1043  1.3582  3.1212
  103SAPE  H12B10433   2.349   0.092   1.934  1.2562  0.1452  2.8869
  103SAPE   C1110434   2.340   0.238   2.108 -0.2796  0.2746 -0.5610
  103SAPE  H11A10435   2.287   0.168   2.177 -0.4763  1.2830  0.3334
  103SAPE  H11B10436   2.284   0.333   2.119  0.5921  0.9174 -1.5302
  103SAPE     P10437   2.561   0.128   2.203 -0.0801 -0.0543  0.0337
  103SAPE   O1310438   2.487  -0.003   2.191 -0.3336  0.4868 -0.5528
  103SAPE   O1410439   2.696   0.128   2.138  0.3317  0.1385 -0.5257
  103SAPE   O1210440   2.476   0.249   2.144 -0.3020 -0.3266  1.0421
  103SAPE   O1110441   2.572   0.165   2.358  0.4958 -0.0823 -0.2281
  103SAPE    C110442   2.705   0.177   2.412  0.1593  0.1954 -0.0230
  103SAPE    HA10443   2.765   0.085   2.394  0.7214  0.4539  0.4780
  103SAPE    HB10444   2.750   0.266   2.362 -2.3529  2.1902  1.0332
  103SAPE    C210445   2.699   0.205   2.567 -0.2595  0.1236  0.8492
  103SAPE    HS10446   2.794   0.257   2.591  0.4730 -1.2909  1.1121
  103SAPE   O2110447   2.692   0.074   2.629 -0.3118 -0.6176  0.2743
  103SAPE   C2110448   2.735   0.078   2.757 -0.6816  0.2734  0.3581
  103SAPE   O2210449   2.817   0.165   2.793 -0.0608 -0.5933 -0.2186
  103SAPE   C2210450   2.671  -0.037   2.841  0.0746 -0.0158  0.1147
  103SAPE   H2R10451   2.581  -0.067   2.783 -0.6707 -1.1431  1.7664
  103SAPE   H2S10452   2.738  -0.126   2.840 -2.5327 -2.2005  2.3575
  103SAPE    C310453   2.579   0.295   2.611  0.3776 -0.1994 -0.1603
  103SAPE    HX10454   2.492   0.228   2.590 -0.6112  0.9326  0.2068
  103SAPE    HY10455   2.576   0.383   2.544  0.2632 -0.0341  0.0624
  103SAPE   O3110456   2.580   0.345   2.748  0.6832  0.2149 -0.0854
  103SAPE   C3110457   2.647   0.456   2.770 -0.6550  0.2473  0.5973
  103SAPE   O3210458   2.717   0.520   2.690  0.4666 -0.1223 -0.3601
  103SAPE   C3210459   2.652   0.488   2.914 -0.5814  0.6438 -0.8303
  103SAPE   H2X10460   2.549   0.522   2.935 -1.7363 -1.1124 -3.2118
  103SAPE   H2Y10461   2.724   0.573   2.915 -1.0592  1.0482 -0.0134
  103SAPE   C2310462   2.639  -0.004   2.984  0.3586 -0.2211 -0.3398
  103SAPE   H3R10463   2.560   0.072   2.999  0.6999 -0.0258  0.5605
  103SAPE   H3S10464   2.726   0.035   3.041  1.5135  0.3353 -2.3783
  103SAPE   C2410465   2.600  -0.133   3.051  0.3089 -0.3127  0.5514
  103SAPE   H4R10466   2.579  -0.115   3.159 -0.0069 -0.0873  0.4523
  103SAPE   H4S10467   2.690  -0.199   3.051 -0.1424 -0.9931  2.3604
  103SAPE   C2510468   2.489  -0.219   2.991  0.1365 -0.0606 -0.1576
  103SAPE   H5R10469   2.523  -0.299   2.924 -0.5286  0.7097 -1.4652
  103SAPE   C2610470   2.355  -0.199   3.007 -1.0234 -0.2295  1.0470
  103SAPE   H6R10471   2.276  -0.262   2.962 -1.7459  1.9427 -0.9311
  103SAPE   C2710472   2.299  -0.072   3.067  0.6448  0.5864 -0.2217
  103SAPE   H7R10473   2.230  -0.011   3.005 -1.2852 -1.0215  0.2561
  103SAPE   H7S10474   2.369   0.002   3.112 -0.5424  1.5637  0.0753
  103SAPE   C2810475   2.203  -0.120   3.171 -1.1257 -0.5480 -0.2211
  103SAPE   H8R10476   2.127  -0.194   3.140  0.3731 -2.4438  0.4286
  103SAPE   C2910477   2.216  -0.111   3.306  0.5444  0.2545  1.2170
  103SAPE   H9R10478   2.128  -0.142   3.363 -1.1435 -2.9525 -2.6317
  103SAPE  C21010479   2.316  -0.034   3.384 -0.7463 -0.1892 -0.4471
  103SAPE  H10R10480   2.409  -0.031   3.323 -0.7635 -0.4322 -0.4873
  103SAPE  H10S10481   2.345  -0.072   3.484 -1.1619  1.5921  0.3877
  103SAPE  C21110482   2.252   0.103   3.397 -0.0566  0.0374  0.0528
  103SAPE  H11R10483   2.224   0.156   3.304  2.7112 -0.6375 -1.2430
  103SAPE  C21210484   2.228   0.164   3.510 -0.5861  0.0086 -0.4053
  103SAPE  H12R10485   2.173   0.259   3.505 -0.8934 -0.2482 -2.8034
  103SAPE  C21310486   2.258   0.109   3.653  0.5329 -0.7032  0.3787
  103SAPE  H13R10487   2.291   0.200   3.708  1.0621  0.1545 -1.2961
  103SAPE  H13S10488   2.342   0.037   3.647  1.3987  0.0498  2.3800
  103SAPE  C21410489   2.144   0.048   3.724 -0.0535  0.4134 -0.3081
  103SAPE  H14R10490   2.073  -0.010   3.663 -1.9459  1.2949  0.9538
  103SAPE  C21510491   2.128   0.056   3.854  0.4297 -0.6015 -0.5564
  103SAPE  H15R10492   2.052  -0.008   3.902 -0.5384  0.4461 -0.6609
  103SAPE  C21610493   2.199   0.141   3.950  0.2988  0.0001 -0.4225
  103SAPE  H16R10494   2.136   0.150   4.041 -1.6786  4.1283 -1.9720
  103SAPE  H16S10495   2.195   0.246   3.914  2.2738  0.4840  0.5899
  103SAPE  C21710496   2.341   0.097   3.987 -0.4074  0.1829  0.6749
  103SAPE  H17R10497   2.386   0.184   4.040  0.3857 -0.0955  0.4765
  103SAPE  H17S10498   2.392   0.082   3.890 -1.4848 -1.7598  0.3571
  103SAPE  C21810499   2.349  -0.030   4.069  0.3775 -0.1159 -0.5773
  103SAPE  H18R10500   2.320  -0.125   4.019  0.1888 -0.8275  0.8290
  103SAPE  H18S10501   2.276  -0.009   4.151 -0.6389  2.2272 -1.9725
  103SAPE  C21910502   2.481  -0.056   4.144 -0.1333  0.4814  0.1959
  103SAPE  H19R10503   2.447  -0.116   4.231 -1.0280 -1.7119 -1.5860
  103SAPE  H19S10504   2.515   0.047   4.168 -0.5578  0.9810 -1.2394
  103SAPE  C22010505   2.576  -0.139   4.063 -0.6749 -0.8909 -0.2260
  103SAPE  H20R10506   2.556  -0.114   3.956 -0.2913 -0.2145 -0.1430
  103SAPE  H20S10507   2.552  -0.248   4.070 -1.7186 -0.7625 -1.3342
  103SAPE  H20T10508   2.681  -0.120   4.095 -1.0356  0.1553  0.3861
  103SAPE   C3310509   2.688   0.377   3.017  0.6528 -0.8606  0.4007
  103SAPE   H3X10510   2.794   0.348   2.999  1.5209  2.1827 -0.0917
  103SAPE   H3Y10511   2.622   0.289   3.006  1.8829 -1.8027  0.2668
  103SAPE   C3410512   2.676   0.419   3.163  1.3939 -0.2411 -0.1221
  103SAPE   H4X10513   2.578   0.464   3.189  1.9861  1.2699 -0.4383
  103SAPE   H4Y10514   2.745   0.505   3.173  1.9215 -0.6142 -0.4772
  103SAPE   C3510515   2.731   0.307   3.260  0.4994  0.0730  0.4630
  103SAPE   H5X10516   2.837   0.279   3.245  0.3805 -1.9198  2.8058
  103SAPE   H5Y10517   2.672   0.213   3.248  0.9651 -0.3306  1.2355
  103SAPE   C3610518   2.735   0.356   3.409 -0.4405 -0.0066 -0.0417
  103SAPE   H6X10519   2.635   0.379   3.453 -0.2436 -0.0558  0.4359
  103SAPE   H6Y10520   2.788   0.453   3.403  1.1921 -0.9208 -1.2436
  103SAPE   C3710521   2.823   0.275   3.500  0.4425  0.0823 -0.1591
  103SAPE   H7X10522   2.833   0.316   3.603  1.0117 -0.3891 -0.0197
  103SAPE   H7Y10523   2.927   0.293   3.465  0.3441 -0.5710 -0.8098
  103SAPE   C3810524   2.773   0.135   3.513  0.9548  0.8516  0.3164
  103SAPE   H8X10525   2.850   0.088   3.579  1.0327  2.7275  1.6705
  103SAPE   H8Y10526   2.770   0.087   3.413 -0.7178 -0.7681  1.0906
  103SAPE   C3910527   2.638   0.120   3.584 -0.1847 -0.1174 -0.2929
  103SAPE   H9X10528   2.555   0.119   3.510  1.0102  1.7239 -1.7468
  103SAPE   H9Y10529   2.616   0.207   3.649 -3.6389  0.5608 -2.0988
  103SAPE  C31010530   2.627   0.004   3.683  0.7103  0.3610 -0.0230
  103SAPE  H10X10531   2.523   0.003   3.723  1.2268  2.6224  1.5919
  103SAPE  H10Y10532   2.703   0.023   3.761  0.9569 -0.7813  0.0254
  103SAPE  C31110533   2.649  -0.132   3.614  0.6814 -0.3446 -0.0847
  103SAPE  H11X10534   2.756  -0.150   3.590  0.6413 -0.5874 -0.0873
  103SAPE  H11Y10535   2.579  -0.123   3.529 -1.3493 -1.8157  1.3345
  103SAPE  C31210536   2.596  -0.243   3.711 -0.5201  0.1053  0.1791
  103SAPE  H12X10537   2.486  -0.233   3.719 -0.5063  0.4777 -0.0466
  103SAPE  H12Y10538   2.641  -0.235   3.812 -0.4475  0.6066  0.1094
  103SAPE  C31310539   2.627  -0.383   3.653 -0.1510  0.0724 -0.0619
  103SAPE  H13X10540   2.612  -0.454   3.737  2.2587  0.2603  0.5915
  103SAPE  H13Y10541   2.733  -0.391   3.620  0.5191 -0.8511  2.1250
  103SAPE  C31410542   2.530  -0.416   3.538  0.0821  0.4265 -0.5972
  103SAPE  H14X10543   2.460  -0.330   3.529 -0.4368  0.1176  0.3004
  103SAPE  H14Y10544   2.472  -0.509   3.557 -0.1163  0.8592  1.1130
  103SAPE  C31510545   2.598  -0.439   3.405  0.7525 -0.0445 -0.1162
  103SAPE  H15X10546   2.679  -0.511   3.431  0.0022 -0.6261  0.6628
  103SAPE  H15Y10547   2.637  -0.344   3.363 -2.6943  1.2212 -0.7414
  103SAPE  C31610548   2.508  -0.510   3.292  0.3629  0.7338  0.6777
  103SAPE  H16X10549   2.416  -0.451   3.271  1.4190  1.5945 -1.9499
  103SAPE  H16Y10550   2.463  -0.599   3.340  1.9286 -0.7644 -0.5358
  103SAPE  C31710551   2.575  -0.543   3.168 -0.7798  0.4531  0.4635
  103SAPE  H17X10552   2.648  -0.625   3.183 -0.7312  0.4939  0.4493
  103SAPE  H17Y10553   2.625  -0.454   3.125 -2.2669  0.1137 -2.1903
  103SAPE  C31810554   2.478  -0.586   3.049 -0.2303 -0.4599  0.5475
  103SAPE  H18X10555   2.544  -0.617   2.965 -0.2946 -0.3601  0.4593
  103SAPE  H18Y10556   2.418  -0.495   3.028  1.3546  1.0409  2.1370
  103SAPE  H18Z10557   2.418  -0.668   3.093  0.1360 -0.4939  0.9929
  104SAPE     N10558   3.690   0.086   2.270  0.3092  0.3205  0.2973
  104SAPE   HN110559   3.671   0.116   2.368  0.1272 -1.1902  0.7605
  104SAPE   HN210560   3.774   0.139   2.238 -0.2343 -0.0056 -1.7676
  104SAPE   HN310561   3.613   0.113   2.206 -0.9663  0.5304  1.8547
  104SAPE   C1210562   3.719  -0.061   2.260 -0.2602 -0.5218 -0.6468
  104SAPE  H12A10563   3.815  -0.078   2.313 -1.3137 -2.4249  0.7893
  104SAPE  H12B10564   3.729  -0.079   2.151  2.4039  1.2688 -0.7891
  104SAPE   C1110565   3.601  -0.146   2.312 -0.1040  0.2010 -0.9332
  104SAPE  H11A10566   3.579  -0.127   2.419 -0.8909  2.5054 -1.4623
  104SAPE  H11B10567   3.617  -0.256   2.307  1.1276 -0.0730  3.9308
  104SAPE     P10568   3.341  -0.168   2.260 -0.3381  0.4221 -0.0895
  104SAPE   O1310569   3.249  -0.076   2.328  0.5473  0.4594  0.5181
  104SAPE   O1410570   3.291  -0.220   2.134 -0.0251  0.3865 -0.1095
  104SAPE   O1210571   3.485  -0.103   2.239  0.3895 -0.4091  0.3661
  104SAPE   O1110572   3.379  -0.294   2.347 -0.2800 -0.2283  0.0918
  104SAPE    C110573   3.279  -0.385   2.387 -0.5495  0.3456  0.4367
  104SAPE    HA10574   3.176  -0.355   2.362 -0.5311  0.9559  1.0740
  104SAPE    HB10575   3.307  -0.486   2.348  0.2091  0.2394  1.2041
  104SAPE    C210576   3.293  -0.415   2.540 -0.8496 -0.1403 -0.0973
  104SAPE    HS10577   3.222  -0.492   2.575 -1.9743  0.6124 -0.6682
  104SAPE   O2110578   3.286  -0.289   2.613  0.0952 -0.5316  0.6164
  104SAPE   C2110579   3.163  -0.238   2.622 -0.4175  0.4454 -0.2062
  104SAPE   O2210580   3.064  -0.291   2.574 -0.1797  0.0865 -0.3013
  104SAPE   C2210581   3.168  -0.109   2.700 -0.1875 -0.0972 -0.3938
  104SAPE   H2R10582   3.264  -0.103   2.755 -0.9027  0.3763  0.8242
  104SAPE   H2S10583   3.176  -0.022   2.631 -1.3255 -1.9237 -2.9770
  104SAPE    C310584   3.434  -0.479   2.577  0.5046  0.3896  0.4106
  104SAPE    HX10585   3.521  -0.410   2.576  1.8638 -1.2558 -0.0025
  104SAPE    HY10586   3.452  -0.568   2.512 -1.0264 -0.3444  0.9320
  104SAPE   O3110587   3.422  -0.531   2.708  0.2984  0.4295 -0.0317
  104SAPE   C3110588   3.536  -0.538   2.782  0.0218  0.0876 -0.3695
  104SAPE   O3210589   3.644  -0.509   2.743 -0.2135 -0.2874  0.4816
  104SAPE   C3210590   3.500  -0.604   2.926 -0.3882 -0.1468  0.2338
  104SAPE   H2X10591   3.491  -0.713   2.911 -1.5694 -0.0215 -0.0634
  104SAPE   H2Y10592   3.402  -0.569   2.964  0.5027  0.8689  1.7333
  104SAPE   C2310593   3.048  -0.094   2.801 -0.2195 -0.7932 -0.3158
  104SAPE   H3R10594   2.952  -0.114   2.750 -1.0458  0.3518  0.7350
  104SAPE   H3S10595   3.036   0.016   2.815  0.6246 -0.6005 -1.0358
  104SAPE   C2410596   3.065  -0.168   2.935 -0.0852 -0.2948 -0.3465
  104SAPE   H4R10597   3.169  -0.146   2.968 -0.7341 -1.5971  3.0005
  104SAPE   H4S10598   3.083  -0.276   2.915  0.6887 -0.6410  1.9497
  104SAPE   C2510599   2.962  -0.144   3.037 -0.5784 -0.7601 -0.7077
  104SAPE   H5R10600   2.868  -0.202   3.032 -0.5475 -0.9371  0.5318
  104SAPE   C2610601   2.975  -0.052   3.135 -0.0578  0.8399  0.2069
  104SAPE   H6R10602   2.892  -0.042   3.207  0.1172 -0.7309  0.6512
  104SAPE   C2710603   3.100   0.026   3.173  0.2843  0.2811 -0.7840
  104SAPE   H7R10604   3.072   0.118   3.229  2.1919  1.1837 -1.2347
  104SAPE   H7S10605   3.155   0.059   3.083  1.1093  2.0732  0.3360
  104SAPE   C2810606   3.199  -0.054   3.258  1.1966 -0.2545  0.1920
  104SAPE   H8R10607   3.281  -0.091   3.195  1.3012  1.2166 -0.5983
  104SAPE   C2910608   3.208  -0.072   3.391  0.0808 -0.3260  0.3114
  104SAPE   H9R10609   3.295  -0.129   3.424 -0.9997 -1.5858  1.0945
  104SAPE  C21010610   3.109  -0.029   3.494 -0.0079 -0.4900 -0.0170
  104SAPE  H10R10611   3.034   0.033   3.440  1.1228  0.4428 -0.5464
  104SAPE  H10S10612   3.157   0.041   3.566 -1.1328  3.0900 -2.4460
  104SAPE  C21110613   3.041  -0.145   3.565  0.4316 -0.6627  0.2499
  104SAPE  H11R10614   3.002  -0.227   3.502 -0.2740 -0.5997  0.6055
  104SAPE  C21210615   3.040  -0.168   3.696 -0.3673 -0.7090  0.3238
  104SAPE  H12R10616   2.993  -0.252   3.749 -1.4788  1.2713  2.7110
  104SAPE  C21310617   3.081  -0.071   3.808 -0.1184 -0.2953  0.1637
  104SAPE  H13R10618   3.002  -0.069   3.885  1.7808 -0.2911  2.2160
  104SAPE  H13S10619   3.083   0.032   3.767 -1.3900  0.1203  1.0974
  104SAPE  C21410620   3.219  -0.110   3.844 -0.0909 -0.6199 -0.2264
  104SAPE  H14R10621   3.251  -0.208   3.805 -0.1935 -1.1006  0.8586
  104SAPE  C21510622   3.307  -0.064   3.937 -0.4147 -0.3001  0.4284
  104SAPE  H15R10623   3.400  -0.116   3.962 -0.4345 -1.0490 -0.9763
  104SAPE  C21610624   3.277   0.055   4.021 -0.3287  0.0154 -0.8868
  104SAPE  H16R10625   3.189   0.112   3.985 -0.5174  0.6533  0.5341
  104SAPE  H16S10626   3.357   0.131   4.013 -0.1578 -0.0663  0.0305
  104SAPE  C21710627   3.260   0.014   4.171 -0.0682  0.0103 -0.0025
  104SAPE  H17R10628   3.360   0.000   4.218  0.1199 -1.1353 -0.7012
  104SAPE  H17S10629   3.204  -0.082   4.167 -1.7881  1.0065 -2.8408
  104SAPE  C21810630   3.180   0.124   4.241 -0.7877  0.5145  0.6172
  104SAPE  H18R10631   3.079   0.129   4.195 -0.6958  0.9082  0.4516
  104SAPE  H18S10632   3.230   0.223   4.233 -1.9093  1.2047  1.8168
  104SAPE  C21910633   3.175   0.106   4.394  0.3032 -0.2259 -0.1724
  104SAPE  H19R10634   3.281   0.101   4.428 -0.5615 -4.2678  2.5712
  104SAPE  H19S10635   3.129   0.008   4.417 -1.2279  0.2564 -0.9890
  104SAPE  C22010636   3.101   0.209   4.477  0.4428 -0.1053  0.2615
  104SAPE  H20R10637   3.132   0.203   4.584 -2.0509 -2.7653  0.9705
  104SAPE  H20S10638   2.992   0.188   4.472  0.1647  1.1391  0.7386
  104SAPE  H20T10639   3.121   0.311   4.439  1.4327 -0.1196  0.7050
  104SAPE   C3310640   3.617  -0.571   3.030 -0.1571  0.7742  0.1687
  104SAPE   H3X10641   3.640  -0.462   3.028  0.4652  0.7485  2.9551
  104SAPE   H3Y10642   3.706  -0.627   2.994 -1.6347 -0.3637 -1.9436
  104SAPE   C3410643   3.581  -0.608   3.171 -0.4422 -0.2317 -1.1072
  104SAPE   H4X10644   3.513  -0.696   3.168 -0.9897  0.2128 -1.9445
  104SAPE   H4Y10645   3.528  -0.523   3.218  1.4721  0.5987 -0.3276
  104SAPE   C3510646   3.701  -0.649   3.271 -0.8346 -0.3133 -0.2051
  104SAPE   H5X10647   3.782  -0.573   3.279 -1.0099 -0.2965  1.6436
  104SAPE   H5Y10648   3.757  -0.734   3.226  2.6767 -0.1161  3.1867
  104SAPE   C3610649   3.640  -0.679   3.402 -0.6043  1.0361  0.1890
  104SAPE   H6X10650   3.565  -0.758   3.381  2.1323 -1.6359 -0.2527
  104SAPE   H6Y10651   3.588  -0.588   3.437  1.0280  1.9730  0.2714
  104SAPE   C3710652   3.730  -0.742   3.511 -0.2929 -0.2098 -0.7627
  104SAPE   H7X10653   3.821  -0.679   3.516 -0.8829  0.5862  0.6925
  104SAPE   H7Y10654   3.764  -0.846   3.498  2.2401  0.5391 -0.6197
  104SAPE   C3810655   3.659  -0.733   3.648 -0.2040  0.0030 -0.1702
  104SAPE   H8X10656   3.560  -0.782   3.642 -1.5846  2.2959  1.7708
  104SAPE   H8Y10657   3.638  -0.631   3.688 -0.4636 -0.9137  2.1531
  104SAPE   C3910658   3.758  -0.796   3.746  0.0799  0.0294 -0.5819
  104SAPE   H9X10659   3.842  -0.724   3.756 -2.4719  3.0983  0.1317
  104SAPE   H9Y10660   3.791  -0.899   3.721 -3.0514 -1.5454  1.2679
  104SAPE  C31010661   3.689  -0.830   3.884 -0.1766  0.0794  0.3935
  104SAPE  H10X10662   3.634  -0.926   3.871  2.2245 -1.5447  1.4648
  104SAPE  H10Y10663   3.627  -0.740   3.908 -1.3365 -0.8964  1.2201
  104SAPE  C31110664   3.785  -0.859   3.994  0.1531  0.4357 -0.2008
  104SAPE  H11X10665   3.888  -0.877   3.958  0.3396  0.1632  0.4635
  104SAPE  H11Y10666   3.744  -0.944   4.053 -1.5809  2.1650  1.2442
  104SAPE  C31210667   3.782  -0.746   4.110  0.6961  0.4649 -0.0637
  104SAPE  H12X10668   3.673  -0.723   4.115  0.9717  2.0403 -0.7685
  104SAPE  H12Y10669   3.827  -0.650   4.077 -0.4012  0.8663 -0.4544
  104SAPE  C31310670   3.839  -0.794   4.244 -0.4053  0.1466  0.5976
  104SAPE  H13X10671   3.950  -0.791   4.240 -0.4402  0.6451 -0.8014
  104SAPE  H13Y10672   3.805  -0.898   4.263 -1.2747  0.2587 -0.2503
  104SAPE  C31410673   3.789  -0.726   4.364 -0.5545  0.8717 -1.0977
  104SAPE  H14X10674   3.679  -0.709   4.370 -0.3096  2.2054  0.5673
  104SAPE  H14Y10675   3.835  -0.626   4.380  1.0007  0.0902 -0.5082
  104SAPE  C31510676   3.816  -0.807   4.488 -0.2930 -0.3519  0.2765
  104SAPE  H15X10677   3.762  -0.903   4.479 -0.8138  0.0204 -0.8348
  104SAPE  H15Y10678   3.769  -0.752   4.572 -0.0677 -0.8660  0.7418
  104SAPE  C31610679   3.958  -0.830   4.529  0.7424 -0.2956  0.3148
  104SAPE  H16X10680   4.003  -0.735   4.566 -2.3234  0.6325  2.0759
  104SAPE  H16Y10681   4.016  -0.864   4.441  0.6679  0.4871 -0.0442
  104SAPE  C31710682   3.975  -0.941   4.631  0.4918  0.0095  0.2398
  104SAPE  H17X10683   3.911  -1.031   4.617 -1.3034  1.2036  0.5965
  104SAPE  H17Y10684   3.933  -0.911   4.730 -0.2613  1.3246 -0.4567
  104SAPE  C31810685   4.122  -0.990   4.649 -0.1599  0.1328 -0.1181
  104SAPE  H18X10686   4.173  -1.004   4.551  2.2441  3.4490  0.4945
  104SAPE  H18Y10687   4.116  -1.090   4.696 -1.7836  0.2015 -0.1229
  104SAPE  H18Z10688   4.184  -0.922   4.711 -0.8942 -0.0876  0.8841
  105SAPE     N10689   1.415   3.236   2.484 -0.2722  0.0826  0.1947
  105SAPE   HN110690   1.391   3.135   2.473 -1.3120  0.3553 -0.2191
  105SAPE   HN210691   1.480   3.260   2.406 -1.2287  2.1192 -0.0448
  105SAPE   HN310692   1.460   3.242   2.577 -3.5280  0.0904  1.9218
  105SAPE   C1210693   1.289   3.314   2.475  0.2664 -0.5659 -0.4945
  105SAPE  H12A10694   1.203   3.255   2.512  0.3268 -0.9162 -0.9091
  105SAPE  H12B10695   1.274   3.343   2.369 -1.8796 -1.0433 -0.3670
  105SAPE   C1110696   1.294   3.435   2.569 -0.3952  0.1229 -0.1823
  105SAPE  H11A10697   1.309   3.403   2.674  0.8216  0.7349 -0.1504
  105SAPE  H11B10698   1.195   3.484   2.563 -0.8740 -0.9089 -1.1672
  105SAPE     P10699   1.391   3.670   2.479  0.3759  0.6741  0.3883
  105SAPE   O1310700   1.479   3.684   2.359  0.6938  0.1547  0.0846
  105SAPE   O1410701   1.248   3.692   2.455  0.0434 -0.1435 -0.1171
  105SAPE   O1210702   1.402   3.521   2.530 -0.0341 -0.1986  0.3958
  105SAPE   O1110703   1.438   3.751   2.610 -0.3047 -0.0304 -0.2499
  105SAPE    C110704   1.571   3.783   2.643  0.2881 -0.0188 -0.2393
  105SAPE    HA10705   1.639   3.701   2.612  1.5428  1.1067 -0.5537
  105SAPE    HB10706   1.588   3.872   2.579  0.6907 -0.4296 -0.7208
  105SAPE    C210707   1.580   3.830   2.797 -0.0577  0.0175  0.3910
  105SAPE    HS10708   1.678   3.882   2.808 -0.6355  1.1542  0.3219
  105SAPE   O2110709   1.569   3.718   2.884 -0.1642  0.4152  1.2873
  105SAPE   C2110710   1.662   3.627   2.866 -0.5276 -0.5460  0.5195
  105SAPE   O2210711   1.763   3.632   2.794 -0.2292  0.0666  0.2095
  105SAPE   C2210712   1.624   3.500   2.946 -0.2027 -0.7129 -0.2236
  105SAPE   H2R10713   1.535   3.462   2.892  0.0868  0.2581 -1.4181
  105SAPE   H2S10714   1.708   3.428   2.930  1.1048  0.1198  2.3038
  105SAPE    C310715   1.466   3.924   2.832 -1.3327  0.2498  0.2144
  105SAPE    HX10716   1.374   3.873   2.868 -2.0008  2.1259  1.3068
  105SAPE    HY10717   1.431   3.983   2.745  1.3171 -0.8694 -1.7687
  105SAPE   O3110718   1.502   4.024   2.926  0.8578  0.4471 -0.0064
  105SAPE   C3110719   1.483   3.982   3.052  0.5631  0.0254 -0.4377
  105SAPE   O3210720   1.419   3.884   3.088 -0.4742  0.1134  1.1324
  105SAPE   C3210721   1.555   4.080   3.135  0.5767 -0.6221 -0.1130
  105SAPE   H2X10722   1.537   4.183   3.096 -0.6413 -0.2985  1.2108
  105SAPE   H2Y10723   1.662   4.055   3.152 -0.0162 -1.6727  2.6245
  105SAPE   C2310724   1.613   3.523   3.094  0.3226 -0.7114  0.4246
  105SAPE   H3R10725   1.606   3.426   3.147  2.3666 -1.7850 -1.1176
  105SAPE   H3S10726   1.521   3.584   3.107  0.2114 -0.6538 -0.4986
  105SAPE   C2410727   1.729   3.611   3.152  0.2954 -0.8129  0.2812
  105SAPE   H4R10728   1.696   3.634   3.255 -1.8477 -1.4931 -0.2000
  105SAPE   H4S10729   1.742   3.713   3.110  1.3833 -1.9404 -2.3257
  105SAPE   C2510730   1.860   3.531   3.140 -0.6516 -0.2763  0.3815
  105SAPE   H5R10731   1.905   3.514   3.042  1.1259 -0.4702  1.1849
  105SAPE   C2610732   1.937   3.483   3.241 -0.6419  0.0073 -0.1839
  105SAPE   H6R10733   2.030   3.428   3.217  0.4596  1.5103  0.4464
  105SAPE   C2710734   1.910   3.480   3.394  0.4722  1.3119  0.5763
  105SAPE   H7R10735   1.964   3.566   3.438  0.7518  1.1788  0.4905
  105SAPE   H7S10736   1.947   3.383   3.434 -0.1748  0.0006 -1.8167
  105SAPE   C2810737   1.773   3.497   3.459  0.3491  0.3349  0.6105
  105SAPE   H8R10738   1.696   3.444   3.400  1.9647 -1.9179  0.3623
  105SAPE   C2910739   1.741   3.563   3.570  0.2107  0.0295 -1.1155
  105SAPE   H9R10740   1.638   3.558   3.608  0.3756 -0.2256 -0.6984
  105SAPE  C21010741   1.826   3.645   3.663 -0.3180  0.0652 -0.0303
  105SAPE  H10R10742   1.931   3.648   3.626  0.0221  0.8685  0.9446
  105SAPE  H10S10743   1.830   3.592   3.761  2.2738 -1.4410 -0.8563
  105SAPE  C21110744   1.757   3.778   3.685  0.2900  0.6965  0.5854
  105SAPE  H11R10745   1.741   3.835   3.593 -1.6563 -1.3036 -0.4385
  105SAPE  C21210746   1.716   3.831   3.800 -0.2621  0.5140  0.2022
  105SAPE  H12R10747   1.655   3.923   3.793 -1.5547 -0.3891 -0.9358
  105SAPE  C21310748   1.736   3.759   3.933  0.2737  0.0501 -0.2784
  105SAPE  H13R10749   1.842   3.731   3.952  0.1874 -0.8720 -1.0943
  105SAPE  H13S10750   1.687   3.661   3.919 -0.0325  0.2770 -0.8074
  105SAPE  C21410751   1.670   3.821   4.052 -0.2401  0.1906  0.0859
  105SAPE  H14R10752   1.683   3.930   4.061  0.6866  0.1318 -0.4619
  105SAPE  C21510753   1.616   3.756   4.154  0.5925  0.5127 -0.0546
  105SAPE  H15R10754   1.582   3.807   4.245 -1.1591 -1.1479  0.2944
  105SAPE  C21610755   1.601   3.611   4.178  0.1262  0.7179 -0.4950
  105SAPE  H16R10756   1.611   3.580   4.284 -2.3939 -2.3620 -0.9745
  105SAPE  H16S10757   1.689   3.560   4.133  2.0507  0.9826  2.7214
  105SAPE  C21710758   1.470   3.563   4.108 -0.4333  0.2962 -0.3334
  105SAPE  H17R10759   1.489   3.564   3.999 -0.5950 -0.3430 -0.3680
  105SAPE  H17S10760   1.389   3.637   4.126 -1.2394 -0.8868  1.1126
  105SAPE  C21810761   1.418   3.417   4.155 -0.0739 -0.1034 -0.6134
  105SAPE  H18R10762   1.360   3.425   4.250  0.4414  1.1494 -0.3808
  105SAPE  H18S10763   1.511   3.358   4.170  0.4036  1.1963  2.2040
  105SAPE  C21910764   1.323   3.351   4.051 -0.3047  0.2126  0.0023
  105SAPE  H19R10765   1.380   3.350   3.955 -0.5231  0.9288 -0.1364
  105SAPE  H19S10766   1.235   3.417   4.039 -0.7411  0.2522  2.7458
  105SAPE  C22010767   1.282   3.205   4.091  0.4115 -0.7638  0.2199
  105SAPE  H20R10768   1.218   3.164   4.010  1.0842 -0.9398 -0.2277
  105SAPE  H20S10769   1.215   3.214   4.179 -0.2493  0.7681 -0.4089
  105SAPE  H20T10770   1.366   3.134   4.109  0.4124 -1.5496 -2.4416
  105SAPE   C3310771   1.500   4.065   3.280  0.5601 -0.0942  0.1226
  105SAPE   H3X10772   1.481   3.965   3.323 -0.6682  0.3050  0.5489
  105SAPE   H3Y10773   1.402   4.116   3.270  0.7620  0.0649 -1.3366
  105SAPE   C3410774   1.574   4.140   3.390  0.5956  0.0185 -0.5225
  105SAPE   H4X10775   1.581   4.244   3.351 -0.5067  1.4121  2.6929
  105SAPE   H4Y10776   1.681   4.109   3.391  0.9935  1.3617 -0.1969
  105SAPE   C3510777   1.525   4.153   3.532 -0.3476 -0.4478 -0.6516
  105SAPE   H5X10778   1.558   4.070   3.598  4.6420 -0.0858 -2.2769
  105SAPE   H5Y10779   1.415   4.136   3.529 -0.1325 -2.2336  0.2434
  105SAPE   C3610780   1.549   4.291   3.595 -0.5621  0.7338 -1.1318
  105SAPE   H6X10781   1.493   4.364   3.533 -3.5152  0.3554  0.8800
  105SAPE   H6Y10782   1.656   4.320   3.595 -0.0966 -0.8714 -1.4042
  105SAPE   C3710783   1.485   4.308   3.734  0.5453  0.7169  1.1425
  105SAPE   H7X10784   1.378   4.280   3.730  0.7481  0.0577 -1.1981
  105SAPE   H7Y10785   1.484   4.418   3.747  0.1671  1.1176 -1.6853
  105SAPE   C3810786   1.566   4.231   3.842  0.0070  0.5311 -0.5147
  105SAPE   H8X10787   1.661   4.284   3.858  0.5983 -0.8246  0.6804
  105SAPE   H8Y10788   1.586   4.125   3.814 -0.8258  0.5890 -1.4196
  105SAPE   C3910789   1.494   4.223   3.977 -0.8494  0.8050  0.4287
  105SAPE   H9X10790   1.546   4.154   4.047  0.0303 -2.0601 -2.7781
  105SAPE   H9Y10791   1.409   4.162   3.939 -0.4226 -0.4823  1.4434
  105SAPE  C31010792   1.449   4.355   4.046  0.2007  0.0426 -0.4409
  105SAPE  H10X10793   1.429   4.426   3.963 -4.7319  0.6367  0.9345
  105SAPE  H10Y10794   1.532   4.386   4.113  0.1254  0.7067 -0.6451
  105SAPE  C31110795   1.320   4.347   4.129 -0.0207  0.2976 -0.5616
  105SAPE  H11X10796   1.247   4.306   4.057 -0.2164 -2.2705  0.9485
  105SAPE  H11Y10797   1.297   4.452   4.155 -0.4331 -0.1363  0.9380
  105SAPE  C31210798   1.320   4.268   4.256 -0.0524 -0.3372 -0.4449
  105SAPE  H12X10799   1.388   4.317   4.329 -0.0886 -1.4543  0.3580
  105SAPE  H12Y10800   1.372   4.172   4.234 -0.5536 -0.3986 -1.3961
  105SAPE  C31310801   1.186   4.242   4.324 -0.1314  0.1535 -0.3333
  105SAPE  H13X10802   1.119   4.197   4.248 -0.3423  0.9795 -0.6558
  105SAPE  H13Y10803   1.132   4.331   4.364 -0.9329  0.0009 -1.0410
  105SAPE  C31410804   1.211   4.152   4.445  0.0406 -0.1553  0.3284
  105SAPE  H14X10805   1.302   4.090   4.428  0.0948 -0.3402  1.2092
  105SAPE  H14Y10806   1.124   4.085   4.463  0.7617 -1.4359 -0.7531
  105SAPE  C31510807   1.243   4.229   4.578  0.0058 -0.2957 -0.4671
  105SAPE  H15X10808   1.151   4.289   4.593  1.2710  1.3174  1.3564
  105SAPE  H15Y10809   1.324   4.305   4.563 -0.0869  0.2648  1.5193
  105SAPE  C31610810   1.277   4.131   4.685  0.2456 -0.2154 -0.6879
  105SAPE  H16X10811   1.373   4.078   4.666  1.1011  0.1503  2.1916
  105SAPE  H16Y10812   1.197   4.054   4.693 -1.7499  1.8352  0.1947
  105SAPE  C31710813   1.292   4.197   4.831 -0.4926 -0.1482 -0.6694
  105SAPE  H17X10814   1.304   4.119   4.910  1.7875 -0.4669 -1.2536
  105SAPE  H17Y10815   1.209   4.265   4.859  0.2313  0.1629  0.8280
  105SAPE  C31810816   1.420   4.284   4.847  0.1840 -0.3085  0.1439
  105SAPE  H18X10817   1.498   4.242   4.779 -0.5974  0.3685 -1.2204
  105SAPE  H18Y10818   1.454   4.307   4.950 -0.7168  2.2264 -0.0694
  105SAPE  H18Z10819   1.391   4.383   4.806  1.3550  0.6254  1.4786
  106SAPE     N10820   6.497   1.593   2.324  0.1289  0.4289  0.3017
  106SAPE   HN110821   6.534   1.540   2.243 -0.1961  0.2571  0.2651
  106SAPE   HN210822   6.558   1.674   2.349  2.0198 -0.4944 -1.0733
  106SAPE   HN310823   6.512   1.528   2.404 -0.2137  0.0071  0.0250
  106SAPE   C1210824   6.356   1.641   2.305 -0.5359  0.1389 -0.7420
  106SAPE  H12A10825   6.289   1.553   2.319  0.3934 -0.2625  1.6334
  106SAPE  H12B10826   6.341   1.695   2.209  1.7446  1.1677 -0.5758
  106SAPE   C1110827   6.337   1.743   2.416 -0.0893 -0.9512 -0.0245
  106SAPE  H11A10828   6.334   1.687   2.512  0.7024 -0.5542  0.2334
  106SAPE  H11B10829   6.234   1.784   2.405  0.2434 -0.1758 -0.2959
  106SAPE     P10830   6.445   1.956   2.317 -0.0679  0.2446  0.3811
  106SAPE   O1310831   6.474   1.889   2.184  0.3964 -0.1566  0.2531
  106SAPE   O1410832   6.328   2.048   2.321  0.2238 -0.2311  0.1603
  106SAPE   O1210833   6.432   1.843   2.420 -0.2714 -0.1602 -0.4589
  106SAPE   O1110834   6.574   2.037   2.362  0.6546 -0.3952 -0.2943
  106SAPE    C110835   6.653   1.998   2.476  0.1834  0.3326  0.3862
  106SAPE    HA10836   6.618   1.901   2.518 -0.9234 -0.7077 -2.6797
  106SAPE    HB10837   6.756   1.977   2.443 -0.1997 -0.4393 -0.3580
  106SAPE    C210838   6.647   2.112   2.585 -0.4371 -0.0775  0.7305
  106SAPE    HS10839   6.656   2.203   2.523  0.3399  1.0137  2.3798
  106SAPE   O2110840   6.755   2.088   2.674 -0.0231  0.4192  0.1125
  106SAPE   C2110841   6.811   2.199   2.727 -0.0342 -0.4028 -0.1449
  106SAPE   O2210842   6.793   2.312   2.688  0.2277 -0.5124 -0.3720
  106SAPE   C2210843   6.915   2.150   2.831 -0.6175 -0.0119 -0.5328
  106SAPE   H2R10844   6.875   2.055   2.872 -1.1155  0.3427 -0.1914
  106SAPE   H2S10845   7.005   2.123   2.772  1.4563  0.9968  1.9478
  106SAPE    C310846   6.518   2.106   2.675 -0.1559  0.2538  0.0244
  106SAPE    HX10847   6.538   2.010   2.728  2.7256 -0.2709 -1.7904
  106SAPE    HY10848   6.427   2.088   2.614  0.4490 -1.5436 -0.4137
  106SAPE   O3110849   6.490   2.218   2.766  0.2903 -0.0802 -0.0828
  106SAPE   C3110850   6.452   2.322   2.690  0.5353  0.3083 -0.7315
  106SAPE   O3210851   6.426   2.321   2.573 -0.1093 -0.5669  0.4015
  106SAPE   C3210852   6.460   2.444   2.777 -0.1317 -0.3576 -0.4831
  106SAPE   H2X10853   6.556   2.433   2.831 -0.3371 -2.6565 -0.4453
  106SAPE   H2Y10854   6.375   2.442   2.849 -0.8452 -2.7860 -1.2741
  106SAPE   C2310855   6.966   2.259   2.939 -0.3473 -0.2819 -0.1317
  106SAPE   H3R10856   7.012   2.347   2.888 -1.6229  0.3881 -0.1665
  106SAPE   H3S10857   7.050   2.224   3.002  0.9434 -0.4104 -1.8322
  106SAPE   C2410858   6.852   2.330   3.027  0.2408  0.8920  0.2101
  106SAPE   H4R10859   6.794   2.384   2.949 -0.1787 -0.8455 -0.7250
  106SAPE   H4S10860   6.903   2.402   3.095  0.4720  0.3400  0.6279
  106SAPE   C2510861   6.758   2.227   3.106 -0.9145 -0.5628 -0.3821
  106SAPE   H5R10862   6.720   2.141   3.050 -0.4624 -0.1804 -1.3054
  106SAPE   C2610863   6.714   2.246   3.232  1.1483  0.0748 -1.0838
  106SAPE   H6R10864   6.639   2.173   3.266  0.8986  0.1358 -1.4910
  106SAPE   C2710865   6.749   2.351   3.340 -0.2511 -0.1473 -0.1580
  106SAPE   H7R10866   6.813   2.434   3.303  0.4723 -0.5115  0.2561
  106SAPE   H7S10867   6.823   2.301   3.407  3.2907  2.0268 -2.1288
  106SAPE   C2810868   6.630   2.404   3.410  0.3948 -0.1149 -0.5804
  106SAPE   H8R10869   6.538   2.422   3.352 -0.9403  1.0218  1.7502
  106SAPE   C2910870   6.633   2.451   3.538 -0.3516 -0.4043  0.0354
  106SAPE   H9R10871   6.531   2.470   3.574 -1.2561 -1.1722 -1.9949
  106SAPE  C21010872   6.739   2.440   3.643 -0.4016  0.5309 -0.0462
  106SAPE  H10R10873   6.752   2.540   3.690 -0.7442  0.9685 -0.8699
  106SAPE  H10S10874   6.837   2.410   3.600 -0.4779  1.9639 -1.2847
  106SAPE  C21110875   6.699   2.329   3.741  0.4754  0.0913  0.6911
  106SAPE  H11R10876   6.713   2.229   3.697 -2.2992  1.1585 -3.1115
  106SAPE  C21210877   6.649   2.341   3.865  0.2080 -0.0555  0.1599
  106SAPE  H12R10878   6.629   2.252   3.926 -0.4588 -1.4566 -1.9900
  106SAPE  C21310879   6.616   2.472   3.940  0.0778  0.1621  0.3122
  106SAPE  H13R10880   6.690   2.552   3.915 -0.5420  0.4182 -0.7545
  106SAPE  H13S10881   6.615   2.457   4.050 -0.4807  1.5500  0.5163
  106SAPE  C21410882   6.478   2.515   3.897 -0.6245 -0.4599  0.3622
  106SAPE  H14R10883   6.436   2.472   3.805 -1.4972 -0.6200  0.8212
  106SAPE  C21510884   6.405   2.603   3.958  0.0561 -0.1891 -0.3106
  106SAPE  H15R10885   6.302   2.627   3.931 -0.2359  0.7397  1.4453
  106SAPE  C21610886   6.436   2.671   4.090  0.4892 -0.1473 -0.1716
  106SAPE  H16R10887   6.363   2.755   4.095  1.2447  0.5417 -0.3829
  106SAPE  H16S10888   6.537   2.716   4.079  0.3881  0.3275  0.7291
  106SAPE  C21710889   6.425   2.591   4.227 -0.3943  0.0804 -0.7327
  106SAPE  H17R10890   6.508   2.518   4.224 -0.2128  0.2772 -0.5419
  106SAPE  H17S10891   6.328   2.543   4.252  0.2385 -0.3492  1.0566
  106SAPE  C21810892   6.450   2.677   4.352 -0.0868 -0.3190 -0.1731
  106SAPE  H18R10893   6.390   2.771   4.352 -0.8946 -0.6897 -3.7499
  106SAPE  H18S10894   6.556   2.710   4.356 -0.8124  2.2482  3.8508
  106SAPE  C21910895   6.402   2.609   4.479  0.9869  0.0890  0.1207
  106SAPE  H19R10896   6.448   2.508   4.483 -0.6242 -0.8933 -2.8864
  106SAPE  H19S10897   6.291   2.601   4.475  0.8137  1.4245  1.3311
  106SAPE  C22010898   6.443   2.691   4.601  0.5955  0.0865 -0.0311
  106SAPE  H20R10899   6.406   2.632   4.687  2.8058 -1.1806  0.1282
  106SAPE  H20S10900   6.397   2.792   4.596 -1.1486 -0.5403  2.0051
  106SAPE  H20T10901   6.554   2.698   4.608  0.5341  0.1270  1.0171
  106SAPE   C3310902   6.458   2.567   2.692 -0.1683 -0.6942  0.3377
  106SAPE   H3X10903   6.360   2.584   2.642 -1.4149 -0.7511  2.6132
  106SAPE   H3Y10904   6.542   2.571   2.619  0.4166  1.7203  1.0479
  106SAPE   C3410905   6.475   2.690   2.777  0.0966  0.7633 -0.8733
  106SAPE   H4X10906   6.466   2.776   2.707  0.6838  0.6557 -1.0901
  106SAPE   H4Y10907   6.576   2.683   2.823 -0.2629 -1.8354 -0.3349
  106SAPE   C3510908   6.369   2.719   2.887 -0.3665 -0.4640  0.1975
  106SAPE   H5X10909   6.305   2.630   2.905  0.8857 -1.7552 -1.3592
  106SAPE   H5Y10910   6.298   2.799   2.855 -2.3778 -2.0394  0.5349
  106SAPE   C3610911   6.445   2.770   3.012 -0.1568 -0.1198  0.3994
  106SAPE   H6X10912   6.518   2.851   2.992 -0.6078 -0.2284 -1.9515
  106SAPE   H6Y10913   6.515   2.697   3.058  1.2174  2.3366  2.4719
  106SAPE   C3710914   6.340   2.824   3.119  0.3039  0.0453 -0.5337
  106SAPE   H7X10915   6.253   2.754   3.116  0.7155 -0.5272  0.3414
  106SAPE   H7Y10916   6.315   2.919   3.067 -1.3434 -0.1307 -0.1299
  106SAPE   C3810917   6.395   2.872   3.247 -0.2418  0.8579 -0.7523
  106SAPE   H8X10918   6.315   2.929   3.300 -1.0782 -1.7258  0.9726
  106SAPE   H8Y10919   6.482   2.938   3.229 -1.5023  2.1166 -2.5670
  106SAPE   C3910920   6.436   2.760   3.342  0.2545  0.7843  0.5904
  106SAPE   H9X10921   6.483   2.804   3.432  2.8730 -1.6168  0.5302
  106SAPE   H9Y10922   6.509   2.692   3.293 -1.7351 -0.5455 -0.6815
  106SAPE  C31010923   6.319   2.668   3.392  0.4373  0.4466 -0.7749
  106SAPE  H10X10924   6.361   2.583   3.451 -1.1173  0.6418  0.6881
  106SAPE  H10Y10925   6.259   2.643   3.302  0.5248  0.7948 -0.9322
  106SAPE  C31110926   6.231   2.732   3.486  0.0951 -0.3112 -0.2734
  106SAPE  H11X10927   6.128   2.694   3.472  0.3459 -2.2004  2.3054
  106SAPE  H11Y10928   6.213   2.840   3.467  1.2742  0.1706  1.2024
  106SAPE  C31210929   6.292   2.727   3.632  0.7391 -0.1826 -0.7576
  106SAPE  H12X10930   6.391   2.779   3.630  0.4620  0.4343  0.3684
  106SAPE  H12Y10931   6.286   2.624   3.675 -2.5370  0.1363 -0.2487
  106SAPE  C31310932   6.212   2.821   3.723  0.2281  0.2177 -0.0719
  106SAPE  H13X10933   6.205   2.919   3.672  2.7874 -0.1191 -1.2094
  106SAPE  H13Y10934   6.276   2.830   3.813 -0.2946 -2.7209  0.7066
  106SAPE  C31410935   6.077   2.760   3.761  0.5163  0.2675 -0.2729
  106SAPE  H14X10936   6.078   2.656   3.800 -2.6968  0.4618  0.5456
  106SAPE  H14Y10937   6.008   2.757   3.675 -0.2310  0.9776  0.2888
  106SAPE  C31510938   6.016   2.836   3.878 -0.0433 -0.1592  0.0604
  106SAPE  H15X10939   5.906   2.818   3.877 -0.0458 -0.1398  0.0437
  106SAPE  H15Y10940   6.045   2.943   3.872  0.8276 -0.3613  0.5123
  106SAPE  C31610941   6.062   2.793   4.021 -0.1679  0.1647  0.1231
  106SAPE  H16X10942   6.167   2.825   4.038  0.0962 -0.6797  0.0955
  106SAPE  H16Y10943   6.058   2.682   4.026  2.8988 -0.0121  0.8535
  106SAPE  C31710944   5.980   2.849   4.129 -0.0965  0.1703 -0.0653
  106SAPE  H17X10945   5.872   2.829   4.117 -0.4364  1.6161  0.3713
  106SAPE  H17Y10946   5.992   2.958   4.147  2.7557 -0.0876  0.1420
  106SAPE  C31810947   6.024   2.774   4.251  0.2025 -0.4681  0.4731
  106SAPE  H18X10948   6.004   2.832   4.344  1.4535  1.2242 -0.2545
  106SAPE  H18Y10949   6.133   2.756   4.251  0.1433 -0.8261 -0.1853
  106SAPE  H18Z10950   5.978   2.673   4.256 -0.1242 -0.2817  2.9591
  107SAPE     N10951   4.859   4.911   2.544 -0.0996  0.2179  0.0133
  107SAPE   HN110952   4.928   4.929   2.620  1.4953 -1.6158 -0.9034
  107SAPE   HN210953   4.762   4.927   2.579 -0.5938 -1.5176 -0.4633
  107SAPE   HN310954   4.859   4.807   2.536 -1.8448  0.2083 -0.3107
  107SAPE   C1210955   4.901   4.959   2.405 -0.2120 -0.4620 -0.3615
  107SAPE  H12A10956   4.847   4.887   2.340 -1.0617 -0.1340 -0.0328
  107SAPE  H12B10957   5.012   4.961   2.396 -0.1839  2.0273 -0.0941
  107SAPE   C1110958   4.846   5.108   2.385 -0.0600 -0.7365 -0.3689
  107SAPE  H11A10959   4.736   5.109   2.398  0.0188  0.6478  0.3862
  107SAPE  H11B10960   4.864   5.153   2.285  0.7305  1.1249  0.5666
  107SAPE     P10961   4.922   5.347   2.459  0.4430  0.2250 -0.0225
  107SAPE   O1310962   5.061   5.398   2.462 -0.1002  0.2431 -0.4157
  107SAPE   O1410963   4.847   5.371   2.333 -0.1951  0.4485 -0.2065
  107SAPE   O1210964   4.911   5.183   2.482  0.6039 -0.4091 -0.8285
  107SAPE   O1110965   4.840   5.405   2.581 -0.3678 -0.4366  0.4502
  107SAPE    C110966   4.810   5.313   2.685  0.1526  0.8789 -0.2032
  107SAPE    HA10967   4.725   5.348   2.748  0.4920 -1.0821  1.4392
  107SAPE    HB10968   4.763   5.218   2.654 -1.9898  1.2527  1.6080
  107SAPE    C210969   4.925   5.293   2.787  0.4957  0.2962  0.6460
  107SAPE    HS10970   5.006   5.236   2.737 -0.6525 -0.2530 -0.6870
  107SAPE   O2110971   4.879   5.223   2.902  0.0152 -0.5454  0.5436
  107SAPE   C2110972   4.848   5.096   2.874 -0.7543  0.0452  0.1448
  107SAPE   O2210973   4.892   5.034   2.777  0.2935 -0.5618  0.5717
  107SAPE   C2210974   4.775   5.031   2.990  0.6622  0.1259 -0.6326
  107SAPE   H2R10975   4.703   5.102   3.035 -0.5812 -1.3560 -0.1942
  107SAPE   H2S10976   4.701   4.964   2.941  3.1630 -2.2147 -1.5166
  107SAPE    C310977   4.981   5.425   2.833 -0.4256 -0.4512  0.2511
  107SAPE    HX10978   4.905   5.505   2.826 -0.9750 -0.9880 -0.0456
  107SAPE    HY10979   5.052   5.470   2.761  0.2358 -0.7535  0.7032
  107SAPE   O3110980   5.043   5.422   2.960  0.4836 -0.2889  0.5862
  107SAPE   C3110981   5.155   5.355   2.980  0.3193 -0.2525  0.3294
  107SAPE   O3210982   5.214   5.296   2.892  0.4448 -0.0855 -0.0214
  107SAPE   C3210983   5.199   5.350   3.128  0.1935  0.0436 -0.1331
  107SAPE   H2X10984   5.304   5.387   3.131 -0.0968  0.7717  2.2580
  107SAPE   H2Y10985   5.185   5.242   3.151 -3.0358  0.1821 -0.9656
  107SAPE   C2310986   4.863   4.946   3.079 -0.1601  0.2747 -0.0365
  107SAPE   H3R10987   4.919   4.865   3.028 -0.4672 -0.6939  1.1111
  107SAPE   H3S10988   4.794   4.894   3.148  0.5536  1.0690  1.3444
  107SAPE   C2410989   4.964   5.023   3.173  0.3184  0.2749 -0.6276
  107SAPE   H4R10990   5.054   5.059   3.118  0.7304  2.2895  1.2136
  107SAPE   H4S10991   4.995   4.941   3.241 -6.3977 -1.4543  1.0543
  107SAPE   C2510992   4.908   5.135   3.250 -0.2906 -0.0310  0.3097
  107SAPE   H5R10993   4.884   5.225   3.192  1.2506 -1.2992 -2.5125
  107SAPE   C2610994   4.897   5.144   3.383  0.0089 -0.3620  0.0491
  107SAPE   H6R10995   4.853   5.235   3.427 -0.2403 -1.3030  1.8152
  107SAPE   C2710996   4.933   5.045   3.486 -0.3694 -0.7331 -0.1705
  107SAPE   H7R10997   5.018   5.083   3.547 -1.2672  1.2352 -0.0612
  107SAPE   H7S10998   4.962   4.945   3.448  2.7846  0.1596 -0.3696
  107SAPE   C2810999   4.815   5.021   3.580  0.5317 -0.2950  1.2222
  107SAPE   H8R11000   4.721   4.995   3.531  1.9589 -1.2150 -1.2005
  107SAPE   C2911001   4.816   5.043   3.712  0.1215  0.1146  0.0816
  107SAPE   H9R11002   4.725   5.016   3.768 -0.8047 -0.3736 -1.6072
  107SAPE  C21011003   4.923   5.104   3.804  0.2175  0.6329 -0.3665
  107SAPE  H10R11004   4.979   5.179   3.744  1.8997  0.5591  1.0461
  107SAPE  H10S11005   5.001   5.027   3.821 -0.4392 -0.2216 -1.0975
  107SAPE  C21111006   4.872   5.154   3.937  0.4571  0.1170 -0.7970
  107SAPE  H11R11007   4.827   5.253   3.916  0.8142  0.2739 -0.8293
  107SAPE  C21211008   4.884   5.108   4.061 -0.0489 -0.7836 -0.2141
  107SAPE  H12R11009   4.852   5.162   4.152  0.6506  0.2649 -0.5651
  107SAPE  C21311010   4.945   4.975   4.088 -0.8162 -0.2557  0.2120
  107SAPE  H13R11011   5.015   4.929   4.015  0.4335 -0.5618  1.5524
  107SAPE  H13S11012   4.868   4.897   4.105 -0.5177 -0.7421 -0.6349
  107SAPE  C21411013   5.036   4.997   4.204 -0.1364 -0.2916 -0.2166
  107SAPE  H14R11014   5.117   5.071   4.193 -0.1402 -0.4225 -1.2196
  107SAPE  C21511015   5.029   4.927   4.323 -0.3774 -0.1368  0.2021
  107SAPE  H15R11016   5.102   4.940   4.404  0.1840 -0.1891 -0.2847
  107SAPE  C21611017   4.913   4.833   4.366 -0.6227  0.0279 -0.4376
  107SAPE  H16R11018   4.812   4.857   4.327 -2.0074 -3.0477  0.9455
  107SAPE  H16S11019   4.886   4.838   4.474 -0.4473  3.4426 -0.4488
  107SAPE  C21711020   4.937   4.691   4.328  0.0595  0.4348  0.8131
  107SAPE  H17R11021   5.034   4.640   4.346 -1.4977 -2.4536  1.6265
  107SAPE  H17S11022   4.931   4.681   4.217  1.2210  0.3566  0.7492
  107SAPE  C21811023   4.830   4.601   4.397  0.1325 -0.0780  0.3754
  107SAPE  H18R11024   4.727   4.632   4.371  0.3875 -0.7110 -1.5174
  107SAPE  H18S11025   4.846   4.603   4.507  0.3952 -1.0309  0.3657
  107SAPE  C21911026   4.854   4.446   4.385  0.5160  0.4063  0.6664
  107SAPE  H19R11027   4.953   4.420   4.430  1.1770 -0.0066 -0.9334
  107SAPE  H19S11028   4.857   4.428   4.276  0.0881  2.0943  0.3612
  107SAPE  C22011029   4.751   4.350   4.445 -0.3548 -0.0400  0.3556
  107SAPE  H20R11030   4.651   4.384   4.411 -0.2405  2.0084  1.8463
  107SAPE  H20S11031   4.741   4.350   4.556  1.2884 -2.9352  0.6008
  107SAPE  H20T11032   4.769   4.246   4.410  0.3986  0.7091 -1.6679
  107SAPE   C3311033   5.133   5.446   3.226  0.2396 -0.7329  0.6703
  107SAPE   H3X11034   5.024   5.426   3.218  0.2449 -0.3922 -0.4174
  107SAPE   H3Y11035   5.148   5.554   3.209  0.5605 -1.1011 -1.9001
  107SAPE   C3411036   5.184   5.414   3.373 -0.5901  0.1083  0.1292
  107SAPE   H4X11037   5.290   5.444   3.380 -0.2277 -1.3054  1.3679
  107SAPE   H4Y11038   5.199   5.304   3.373  2.7787  0.3564 -3.6528
  107SAPE   C3511039   5.091   5.477   3.480 -0.0480 -0.5153  0.0152
  107SAPE   H5X11040   4.983   5.461   3.458 -0.7851  0.2949  2.6744
  107SAPE   H5Y11041   5.114   5.586   3.478  1.2342 -0.7783 -1.3596
  107SAPE   C3611042   5.120   5.423   3.622 -0.6579 -0.2472  0.9275
  107SAPE   H6X11043   5.228   5.426   3.648  0.0801  0.1397 -1.8175
  107SAPE   H6Y11044   5.086   5.317   3.614 -0.7324 -0.1780  0.2141
  107SAPE   C3711045   5.042   5.490   3.735 -0.0066  0.4843 -0.0789
  107SAPE   H7X11046   4.945   5.437   3.719 -0.4282  0.3804  2.4253
  107SAPE   H7Y11047   5.036   5.599   3.717 -2.0840  0.4471  0.1259
  107SAPE   C3811048   5.092   5.458   3.872 -0.0521 -0.1286  0.1495
  107SAPE   H8X11049   5.200   5.479   3.888 -0.6206  2.3745  1.1783
  107SAPE   H8Y11050   5.085   5.351   3.899  1.0012  0.4504  3.0124
  107SAPE   C3911051   5.046   5.551   3.978  0.3907 -0.1160 -0.2798
  107SAPE   H9X11052   4.936   5.566   3.981  0.4546  0.4171 -0.6381
  107SAPE   H9Y11053   5.097   5.647   3.960 -0.3227 -0.1240 -2.7337
  107SAPE  C31011054   5.078   5.492   4.116  0.8774 -0.2545 -0.5087
  107SAPE  H10X11055   5.028   5.394   4.129  0.4788  0.1920  1.6695
  107SAPE  H10Y11056   5.026   5.560   4.187  0.6969  0.1324 -1.0082
  107SAPE  C31111057   5.221   5.465   4.148 -0.1024  0.0503 -0.9551
  107SAPE  H11X11058   5.277   5.561   4.144 -0.3942  0.3198  0.8015
  107SAPE  H11Y11059   5.264   5.381   4.088 -1.5674 -0.6402 -1.0787
  107SAPE  C31211060   5.228   5.410   4.289 -0.3664 -0.2676  0.0442
  107SAPE  H12X11061   5.148   5.334   4.305  1.3441 -2.3291 -0.6545
  107SAPE  H12Y11062   5.210   5.496   4.356  1.7444 -1.2135  1.9541
  107SAPE  C31311063   5.363   5.351   4.321 -0.2518 -0.6035  0.7689
  107SAPE  H13X11064   5.445   5.399   4.265  0.3651 -1.8345  0.5678
  107SAPE  H13Y11065   5.363   5.246   4.283  2.6730 -0.9951  1.6215
  107SAPE  C31411066   5.395   5.353   4.468  0.0469 -0.2874 -0.0435
  107SAPE  H14X11067   5.477   5.278   4.477  0.5854  0.2232 -0.5841
  107SAPE  H14Y11068   5.310   5.319   4.529 -1.6592  4.5225  0.6799
  107SAPE  C31511069   5.434   5.489   4.534 -0.4309 -0.0512  0.4362
  107SAPE  H15X11070   5.343   5.554   4.532  0.6440  1.5405 -2.0020
  107SAPE  H15Y11071   5.504   5.541   4.465 -1.8150  1.6351  0.2267
  107SAPE  C31611072   5.498   5.474   4.672  0.4338  0.3180  0.1027
  107SAPE  H16X11073   5.573   5.392   4.670  0.4824  0.2837 -3.0607
  107SAPE  H16Y11074   5.417   5.434   4.737  1.5552 -0.7100  0.8967
  107SAPE  C31711075   5.551   5.602   4.735 -0.0364  0.0237 -1.0945
  107SAPE  H17X11076   5.479   5.686   4.744 -0.0560 -0.1756  1.0880
  107SAPE  H17Y11077   5.635   5.634   4.671  0.9693 -0.9762 -0.3150
  107SAPE  C31811078   5.617   5.573   4.873 -0.4513 -0.6291  0.1643
  107SAPE  H18X11079   5.548   5.540   4.954 -0.8948 -0.9798 -0.3497
  107SAPE  H18Y11080   5.665   5.665   4.913  2.1414 -2.1127  0.6727
  107SAPE  H18Z11081   5.692   5.492   4.868  0.1283 -0.1727  1.1429
  108SAPE     N11082   2.918   5.268   2.634  0.1721  1.1677  0.3867
  108SAPE   HN111083   2.880   5.247   2.728  0.6171 -0.8029  0.1764
  108SAPE   HN211084   2.836   5.263   2.571  1.2061  1.9226 -1.0852
  108SAPE   HN311085   2.989   5.195   2.612 -0.5321  0.3770  0.7118
  108SAPE   C1211086   2.957   5.408   2.602 -0.3700 -0.0984 -0.0238
  108SAPE  H12A11087   3.004   5.403   2.502  2.8224  0.2901  1.3300
  108SAPE  H12B11088   3.033   5.440   2.677 -1.5944 -1.5963  1.9787
  108SAPE   C1111089   2.839   5.512   2.603 -0.5403 -0.3444 -0.6748
  108SAPE  H11A11090   2.880   5.599   2.548 -0.3700 -0.3280 -0.5203
  108SAPE  H11B11091   2.818   5.538   2.709  1.0868 -3.9075  0.6785
  108SAPE     P11092   2.594   5.534   2.519  0.3307  0.1507 -0.0759
  108SAPE   O1311093   2.632   5.665   2.465 -1.1459 -0.1493  0.1812
  108SAPE   O1411094   2.504   5.459   2.429 -0.0492 -0.2333  0.5234
  108SAPE   O1211095   2.727   5.454   2.537 -0.3386  0.2050  0.2054
  108SAPE   O1111096   2.532   5.548   2.664 -0.2816 -0.1110  0.9223
  108SAPE    C111097   2.552   5.430   2.748  0.8216  0.0149 -0.8313
  108SAPE    HA11098   2.540   5.338   2.685 -3.4966  1.1880 -2.0092
  108SAPE    HB11099   2.657   5.426   2.785  0.7138  2.8266 -0.0200
  108SAPE    C211100   2.453   5.415   2.866  0.1552 -0.4032  0.0205
  108SAPE    HS11101   2.353   5.387   2.827  0.0671 -0.1041  0.0297
  108SAPE   O2111102   2.455   5.535   2.945  0.2085  0.0775  0.0078
  108SAPE   C2111103   2.337   5.559   3.004 -0.7154  0.0150 -0.3546
  108SAPE   O2211104   2.232   5.506   2.969  0.0584 -0.2725  0.3836
  108SAPE   C2211105   2.351   5.684   3.092  0.8043 -0.0270 -0.3176
  108SAPE   H2R11106   2.444   5.678   3.152  0.2698 -1.5509  0.4147
  108SAPE   H2S11107   2.364   5.768   3.020  0.2244  0.3548  0.0156
  108SAPE    C311108   2.487   5.296   2.954 -0.0563 -0.3105 -0.0823
  108SAPE    HX11109   2.586   5.327   2.995 -1.4982  2.3173  1.6936
  108SAPE    HY11110   2.504   5.206   2.891  0.9833 -0.6766  0.6896
  108SAPE   O3111111   2.393   5.265   3.056  0.1566 -0.5217 -0.6897
  108SAPE   C3111112   2.270   5.200   3.040  0.3803 -0.2122  0.4758
  108SAPE   O3211113   2.232   5.145   2.940 -0.3959 -0.5436  0.0484
  108SAPE   C3211114   2.180   5.197   3.164 -0.0178 -0.0350 -0.1300
  108SAPE   H2X11115   2.076   5.162   3.146 -0.9374  0.6288  3.1442
  108SAPE   H2Y11116   2.168   5.305   3.188 -2.0507 -0.5655  1.5318
  108SAPE   C2311117   2.233   5.697   3.192  0.1991 -0.3596 -0.0286
  108SAPE   H3R11118   2.255   5.642   3.286  4.1608  1.0490  0.0530
  108SAPE   H3S11119   2.132   5.671   3.153 -0.6928 -0.2777  2.0899
  108SAPE   C2411120   2.208   5.847   3.232 -0.3226 -0.2212  0.2114
  108SAPE   H4R11121   2.122   5.849   3.303 -1.2929 -0.1943 -0.9229
  108SAPE   H4S11122   2.169   5.891   3.138 -0.0145  0.5258  0.4298
  108SAPE   C2511123   2.328   5.924   3.279  0.5588 -0.6312  0.1528
  108SAPE   H5R11124   2.402   5.945   3.200  1.9277 -0.3148  1.4670
  108SAPE   C2611125   2.355   5.975   3.407 -0.2840 -0.1107 -0.0337
  108SAPE   H6R11126   2.448   6.028   3.433  0.6684 -0.9684 -1.5536
  108SAPE   C2711127   2.266   5.956   3.531  0.2518  0.4940  0.0578
  108SAPE   H7R11128   2.176   5.895   3.507  0.0221  0.3515  1.2371
  108SAPE   H7S11129   2.229   6.055   3.565  2.8290  1.2997  0.7742
  108SAPE   C2811130   2.332   5.876   3.641 -0.8019  0.2877  0.2231
  108SAPE   H8R11131   2.387   5.786   3.609 -2.9126 -1.4141  1.1356
  108SAPE   C2911132   2.339   5.909   3.776 -0.7640  0.4390  0.5546
  108SAPE   H9R11133   2.407   5.853   3.841  0.3173  1.1162  0.0499
  108SAPE  C21011134   2.290   6.041   3.836 -0.0991  0.7086  0.1829
  108SAPE  H10R11135   2.233   6.013   3.928  1.7530  0.3342  1.2623
  108SAPE  H10S11136   2.222   6.089   3.762  1.4252  0.8165 -1.1908
  108SAPE  C21111137   2.395   6.149   3.848 -0.4746 -0.2686 -0.0487
  108SAPE  H11R11138   2.471   6.166   3.770  1.2534 -1.1277  1.3706
  108SAPE  C21211139   2.398   6.244   3.942  0.3020 -0.1784 -0.0796
  108SAPE  H12R11140   2.470   6.327   3.938 -0.5478  0.5576 -0.3023
  108SAPE  C21311141   2.312   6.242   4.067  1.0195 -0.3466  0.1438
  108SAPE  H13R11142   2.330   6.146   4.120  0.9529 -1.3212 -1.5290
  108SAPE  H13S11143   2.207   6.244   4.029  1.0396  1.9708  0.0833
  108SAPE  C21411144   2.338   6.354   4.166  0.0438  0.1551  0.3342
  108SAPE  H14R11145   2.326   6.454   4.121  1.7968  0.2492  0.0021
  108SAPE  C21511146   2.370   6.336   4.298 -0.7336 -0.3940 -0.4574
  108SAPE  H15R11147   2.395   6.422   4.361  0.9735 -0.5969 -0.8096
  108SAPE  C21611148   2.386   6.206   4.378  0.0177  0.1099  0.3683
  108SAPE  H16R11149   2.334   6.121   4.330  1.9641 -0.3177 -1.0837
  108SAPE  H16S11150   2.339   6.214   4.479 -0.8789  1.9299 -0.1529
  108SAPE  C21711151   2.536   6.164   4.386  0.6420  0.8601 -0.2608
  108SAPE  H17R11152   2.579   6.163   4.284  0.4079 -2.4925 -0.4387
  108SAPE  H17S11153   2.545   6.067   4.439  1.9710  1.4830  0.6924
  108SAPE  C21811154   2.617   6.271   4.470  0.8212  0.4147  0.0668
  108SAPE  H18R11155   2.558   6.290   4.562 -0.9549 -3.6617 -0.0223
  108SAPE  H18S11156   2.624   6.362   4.407  2.7013 -2.1190 -3.7724
  108SAPE  C21911157   2.749   6.224   4.529 -0.2126 -0.1400 -0.1085
  108SAPE  H19R11158   2.732   6.136   4.593  0.8318  0.9644  1.7665
  108SAPE  H19S11159   2.787   6.299   4.602  0.2586 -0.2581 -0.2247
  108SAPE  C22011160   2.856   6.194   4.424 -0.2328 -0.8310  0.2183
  108SAPE  H20R11161   2.954   6.158   4.461 -0.6458  0.1113  2.3671
  108SAPE  H20S11162   2.883   6.282   4.361  1.8690 -0.1699  1.9173
  108SAPE  H20T11163   2.816   6.118   4.354  0.9362  0.3275 -1.8305
  108SAPE   C3311164   2.250   5.139   3.294 -0.2987  0.2759  0.2396
  108SAPE   H3X11165   2.346   5.194   3.302 -1.4903  2.9710 -2.1886
  108SAPE   H3Y11166   2.285   5.036   3.274 -1.0568 -0.2908  1.6472
  108SAPE   C3411167   2.160   5.144   3.416 -0.0739  0.2763 -0.2243
  108SAPE   H4X11168   2.209   5.090   3.499 -0.5659 -0.1505 -0.2111
  108SAPE   H4Y11169   2.060   5.099   3.399 -0.0789  0.6240 -1.1982
  108SAPE   C3511170   2.127   5.292   3.467 -0.7350 -0.3971 -0.1375
  108SAPE   H5X11171   2.074   5.347   3.386  0.0130  0.0190 -0.3566
  108SAPE   H5Y11172   2.060   5.285   3.555  0.5117 -1.1750  0.7748
  108SAPE   C3611173   2.257   5.366   3.511  0.4592  0.1625  0.6553
  108SAPE   H6X11174   2.313   5.424   3.435 -1.1456  0.5520 -0.2771
  108SAPE   H6Y11175   2.323   5.283   3.544  0.2343  0.8314  2.9710
  108SAPE   C3711176   2.227   5.463   3.625 -0.8520 -0.7301 -0.0448
  108SAPE   H7X11177   2.118   5.480   3.635 -0.9596 -0.3579 -1.6005
  108SAPE   H7Y11178   2.264   5.567   3.612 -0.0331 -0.8721  1.0129
  108SAPE   C3811179   2.281   5.409   3.750 -0.0873 -0.2419  0.0573
  108SAPE   H8X11180   2.387   5.383   3.729  0.0821 -0.1932  0.7958
  108SAPE   H8Y11181   2.219   5.321   3.778  0.6078 -0.4792  0.9049
  108SAPE   C3911182   2.277   5.512   3.863 -0.7070 -0.4794 -0.0280
  108SAPE   H9X11183   2.168   5.529   3.879 -0.8701  1.3510 -2.5023
  108SAPE   H9Y11184   2.309   5.611   3.825 -3.1786  0.4472  0.1373
  108SAPE  C31011185   2.357   5.471   3.988  0.0731 -0.1290  0.4591
  108SAPE  H10X11186   2.460   5.435   3.965 -0.7317 -2.2273 -0.0972
  108SAPE  H10Y11187   2.304   5.384   4.032 -0.3406 -1.5264 -2.5101
  108SAPE  C31111188   2.377   5.587   4.085 -0.0850  0.8753  0.1431
  108SAPE  H11X11189   2.431   5.677   4.048  0.2831  1.6326  2.3381
  108SAPE  H11Y11190   2.441   5.547   4.168  0.9674 -0.3088 -1.1857
  108SAPE  C31211191   2.242   5.643   4.134 -0.1834 -0.2662 -0.2908
  108SAPE  H12X11192   2.162   5.568   4.153 -0.5932  0.0888 -0.5939
  108SAPE  H12Y11193   2.208   5.708   4.050 -0.8028  0.9762  0.8958
  108SAPE  C31311194   2.264   5.727   4.265 -0.6487 -0.2541  0.3202
  108SAPE  H13X11195   2.367   5.769   4.255 -0.6458  0.0978  1.7170
  108SAPE  H13Y11196   2.277   5.650   4.344 -0.6873 -0.5204  0.0685
  108SAPE  C31411197   2.152   5.829   4.296 -1.1260 -0.4134  0.0213
  108SAPE  H14X11198   2.052   5.780   4.292 -1.8791  1.0144  0.4150
  108SAPE  H14Y11199   2.148   5.915   4.226  0.1101 -0.8510 -0.6117
  108SAPE  C31511200   2.177   5.885   4.437  0.7242 -0.3335 -0.1218
  108SAPE  H15X11201   2.260   5.958   4.425 -0.8266  1.3953 -0.8337
  108SAPE  H15Y11202   2.185   5.799   4.507  1.3409 -0.1196  0.0757
  108SAPE  C31611203   2.057   5.979   4.480  0.2488 -0.9481 -0.3161
  108SAPE  H16X11204   2.083   6.023   4.579  1.0303  1.5480 -1.5432
  108SAPE  H16Y11205   1.965   5.918   4.492 -1.2273  1.3246  0.6686
  108SAPE  C31711206   2.014   6.088   4.390  0.5914 -0.7482  0.0792
  108SAPE  H17X11207   1.968   6.049   4.296  1.5531  1.6235 -1.4633
  108SAPE  H17Y11208   2.104   6.138   4.349 -0.6533  1.2782 -0.3168
  108SAPE  C31811209   1.917   6.189   4.450 -0.5523  0.5898  0.3550
  108SAPE  H18X11210   1.829   6.134   4.489 -1.0952  0.6167 -0.7957
  108SAPE  H18Y11211   1.887   6.261   4.370  0.3958 -0.7873 -1.3235
  108SAPE  H18Z11212   1.967   6.248   4.529  0.1769  1.8053 -0.9740
  109SAPE     N11213   4.493   4.145   2.570  0.5330 -0.3063 -0.4011
  109SAPE   HN111214   4.553   4.070   2.609 -0.2529 -0.9054 -0.3116
  109SAPE   HN211215   4.506   4.230   2.627  0.8400 -1.0569  0.6820
  109SAPE   HN311216   4.405   4.094   2.590  0.9887 -0.0706  2.6325
  109SAPE   C1211217   4.532   4.162   2.426  0.2676  0.4027 -0.5220
  109SAPE  H12A11218   4.642   4.175   2.421  0.2287  0.3507 -1.8690
  109SAPE  H12B11219   4.483   4.255   2.389  1.4279  1.2501  0.0246
  109SAPE   C1111220   4.497   4.036   2.346 -0.0594  0.2604 -0.0618
  109SAPE  H11A11221   4.556   3.952   2.388  1.1576  0.4730 -1.2783
  109SAPE  H11B11222   4.529   4.047   2.240  0.7469 -0.7542  0.0630
  109SAPE     P11223   4.314   3.875   2.291 -0.0533  0.7366 -0.3354
  109SAPE   O1311224   4.167   3.877   2.299 -0.0555  0.0606 -0.5102
  109SAPE   O1411225   4.364   3.864   2.152 -0.1888 -0.2709 -1.0933
  109SAPE   O1211226   4.361   4.011   2.359 -0.1278 -0.0440  0.4150
  109SAPE   O1111227   4.378   3.765   2.388  0.2440  0.2189  0.1997
  109SAPE    C111228   4.299   3.671   2.462 -0.5874  0.7462 -0.1278
  109SAPE    HA11229   4.193   3.658   2.435 -0.5800 -1.7732  0.7428
  109SAPE    HB11230   4.341   3.568   2.457 -0.5468  0.8216 -2.1569
  109SAPE    C211231   4.299   3.711   2.609 -0.0268 -0.5409 -0.2255
  109SAPE    HS11232   4.277   3.820   2.616 -0.9112 -0.8196  2.2114
  109SAPE   O2111233   4.425   3.658   2.667  0.3398  0.3042 -0.6956
  109SAPE   C2111234   4.498   3.753   2.721 -0.2475  0.6648  0.0149
  109SAPE   O2211235   4.457   3.865   2.740 -0.3355 -0.3398 -0.7019
  109SAPE   C2211236   4.628   3.689   2.777  0.5836 -0.0472  0.0588
  109SAPE   H2R11237   4.605   3.583   2.801 -2.7573  0.1125 -1.8494
  109SAPE   H2S11238   4.703   3.679   2.695  0.9955  2.2091  0.1015
  109SAPE    C311239   4.178   3.649   2.682 -0.5644 -0.2560  0.5436
  109SAPE    HX11240   4.181   3.544   2.646  1.9040  0.4686 -1.6595
  109SAPE    HY11241   4.084   3.702   2.652 -0.1148  2.3221  3.1799
  109SAPE   O3111242   4.198   3.650   2.822  0.3162  0.1900 -0.0921
  109SAPE   C3111243   4.136   3.750   2.887 -0.0835  0.3747 -0.1262
  109SAPE   O3211244   4.061   3.831   2.837 -0.7661 -0.3885  0.4067
  109SAPE   C3211245   4.171   3.751   3.036 -0.1777 -0.1123  1.0333
  109SAPE   H2X11246   4.157   3.647   3.071  1.5098 -0.7328 -0.0620
  109SAPE   H2Y11247   4.102   3.827   3.080 -0.6856  0.4243 -0.6376
  109SAPE   C2311248   4.666   3.756   2.908 -0.0951 -0.0708 -0.6441
  109SAPE   H3R11249   4.584   3.745   2.982 -1.3018 -1.7153 -2.1522
  109SAPE   H3S11250   4.682   3.865   2.892 -1.3630  0.1036 -0.7852
  109SAPE   C2411251   4.795   3.704   2.974 -1.0039  0.5706  0.3571
  109SAPE   H4R11252   4.777   3.601   3.011 -2.3144  0.6658  0.0463
  109SAPE   H4S11253   4.817   3.762   3.066 -1.1627  1.0598  0.0918
  109SAPE   C2511254   4.927   3.698   2.891  0.3379  0.0377  0.6393
  109SAPE   H5R11255   4.940   3.605   2.834 -0.7864 -0.1021  0.5847
  109SAPE   C2611256   5.018   3.801   2.875 -0.3993 -1.0199  0.2867
  109SAPE   H6R11257   5.107   3.796   2.810 -0.7046 -0.8597 -0.1531
  109SAPE   C2711258   5.016   3.929   2.959  0.3679 -0.3276  0.3768
  109SAPE   H7R11259   5.112   3.983   2.951 -0.7230  1.8669  1.1219
  109SAPE   H7S11260   4.994   3.902   3.064  1.0858 -0.2520  0.5470
  109SAPE   C2811261   4.915   4.037   2.926  0.7254  0.2860  0.1133
  109SAPE   H8R11262   4.894   4.051   2.818 -0.6510  0.7884  0.4296
  109SAPE   C2911263   4.844   4.110   3.013  0.2898 -0.3410 -0.1236
  109SAPE   H9R11264   4.787   4.188   2.961  0.7132  0.2376  0.2731
  109SAPE  C21011265   4.826   4.101   3.161  0.2083 -0.4090 -0.1092
  109SAPE  H10R11266   4.806   3.994   3.181 -0.3497 -1.0354 -3.4298
  109SAPE  H10S11267   4.734   4.159   3.184  0.2295 -1.1237  1.9596
  109SAPE  C21111268   4.945   4.153   3.236 -0.2206 -0.1505  0.1905
  109SAPE  H11R11269   5.036   4.092   3.224 -1.4990 -1.6697 -3.4829
  109SAPE  C21211270   4.946   4.242   3.328 -0.3155  0.5190 -0.5375
  109SAPE  H12R11271   5.043   4.282   3.362 -1.3123  0.2327  2.9848
  109SAPE  C21311272   4.833   4.324   3.374  0.4449  0.1248 -0.0578
  109SAPE  H13R11273   4.797   4.274   3.466  0.7552  0.9851  0.5419
  109SAPE  H13S11274   4.740   4.318   3.314  0.2677 -1.9359  0.3595
  109SAPE  C21411275   4.860   4.472   3.386 -0.6753 -0.0034 -0.7827
  109SAPE  H14R11276   4.965   4.502   3.376 -1.0283  1.2617 -0.8464
  109SAPE  C21511277   4.764   4.570   3.416  0.4788 -0.6573 -0.1992
  109SAPE  H15R11278   4.795   4.675   3.410 -0.2281 -0.3023  1.7156
  109SAPE  C21611279   4.617   4.554   3.438  0.1285  0.6494 -0.2706
  109SAPE  H16R11280   4.584   4.447   3.439  0.8537  0.4122 -0.9198
  109SAPE  H16S11281   4.558   4.610   3.363 -0.8757 -1.3797 -1.0811
  109SAPE  C21711282   4.587   4.624   3.577 -0.3683  0.2699 -0.6361
  109SAPE  H17R11283   4.477   4.621   3.591 -0.4930 -1.7016 -1.7318
  109SAPE  H17S11284   4.616   4.731   3.575  0.2247  0.1670  1.0377
  109SAPE  C21811285   4.645   4.546   3.694 -0.3869  0.3439  0.0304
  109SAPE  H18R11286   4.754   4.566   3.706 -0.5178  0.8972  0.3447
  109SAPE  H18S11287   4.626   4.438   3.679 -0.1812  0.2558  0.4078
  109SAPE  C21911288   4.581   4.598   3.828 -0.2069 -0.0416  0.1957
  109SAPE  H19R11289   4.471   4.587   3.816 -0.6072  1.3199  2.0987
  109SAPE  H19S11290   4.602   4.707   3.818  0.2661 -0.1883 -0.5182
  109SAPE  C22011291   4.630   4.549   3.958 -0.6215  0.4466 -0.4071
  109SAPE  H20R11292   4.575   4.581   4.049 -1.4071  0.6810 -0.9501
  109SAPE  H20S11293   4.731   4.595   3.967  1.4169 -3.7097  0.6026
  109SAPE  H20T11294   4.651   4.440   3.966  1.7739  0.9826  1.7834
  109SAPE   C3311295   4.314   3.813   3.054  0.0068  0.6131 -0.1608
  109SAPE   H3X11296   4.339   3.907   2.999  4.1138  0.3638  0.9728
  109SAPE   H3Y11297   4.377   3.738   3.003  1.4453  2.3687 -1.0844
  109SAPE   C3411298   4.350   3.847   3.201  0.3606  0.0310 -0.6321
  109SAPE   H4X11299   4.373   3.751   3.252  1.3420  0.9038  0.6158
  109SAPE   H4Y11300   4.259   3.889   3.249  0.7524 -1.4983  1.6234
  109SAPE   C3511301   4.468   3.940   3.211  0.5419 -0.9408 -0.2354
  109SAPE   H5X11302   4.454   4.035   3.156 -3.8528 -0.8188  0.7430
  109SAPE   H5Y11303   4.564   3.889   3.186  1.1504 -0.3548  0.8308
  109SAPE   C3611304   4.485   3.984   3.358  0.6379 -0.1840  0.1735
  109SAPE   H6X11305   4.396   4.030   3.407  0.8789  0.8388 -0.3368
  109SAPE   H6Y11306   4.561   4.065   3.359 -0.7063  1.3941 -3.8679
  109SAPE   C3711307   4.530   3.873   3.454  0.2752  0.0450  0.2163
  109SAPE   H7X11308   4.629   3.829   3.427  0.1002  0.7009 -1.6548
  109SAPE   H7Y11309   4.463   3.785   3.454  0.1997  0.1002  0.5286
  109SAPE   C3811310   4.543   3.924   3.598  0.1699  0.4072  0.4923
  109SAPE   H8X11311   4.550   3.830   3.658 -0.6555  0.7104  1.0824
  109SAPE   H8Y11312   4.450   3.976   3.630 -0.7441 -0.5026 -0.6047
  109SAPE   C3911313   4.668   4.007   3.619 -0.1176 -0.8040 -0.4983
  109SAPE   H9X11314   4.653   4.107   3.574  1.3714 -0.3558 -0.0582
  109SAPE   H9Y11315   4.760   3.970   3.569  1.5109 -0.1422  1.8379
  109SAPE  C31011316   4.708   4.027   3.771  0.1690  0.2215  0.1039
  109SAPE  H10X11317   4.738   3.930   3.816 -2.5642 -1.0389 -0.5734
  109SAPE  H10Y11318   4.620   4.066   3.826 -0.4705  1.0174 -1.4551
  109SAPE  C31111319   4.813   4.138   3.776  0.8120  0.5311 -0.6836
  109SAPE  H11X11320   4.782   4.211   3.699  0.1924  0.3680 -0.5966
  109SAPE  H11Y11321   4.910   4.096   3.744  0.9068  0.5734 -0.4507
  109SAPE  C31211322   4.830   4.202   3.923 -0.0106  0.4329 -0.4256
  109SAPE  H12X11323   4.732   4.240   3.960 -1.1545 -1.0448 -1.7741
  109SAPE  H12Y11324   4.901   4.286   3.910  0.9063  0.5695  3.8452
  109SAPE  C31311325   4.881   4.087   4.023 -0.7794  0.4383  0.0875
  109SAPE  H13X11326   4.974   4.054   3.972 -2.2770  0.1427 -2.6707
  109SAPE  H13Y11327   4.813   4.000   4.036 -0.0726  0.1319  1.9738
  109SAPE  C31411328   4.902   4.139   4.163 -0.1717  0.4015 -0.0890
  109SAPE  H14X11329   4.815   4.176   4.220  1.1757  1.3582  1.4393
  109SAPE  H14Y11330   4.981   4.218   4.159  1.7872 -1.4988 -1.1184
  109SAPE  C31511331   4.954   4.018   4.241 -0.6582 -0.3618 -0.1270
  109SAPE  H15X11332   5.059   3.995   4.216 -0.4942  1.2156 -1.0131
  109SAPE  H15Y11333   4.900   3.922   4.226  2.2996 -2.0732 -0.4915
  109SAPE  C31611334   4.961   4.044   4.388  0.0512 -0.1643  0.0788
  109SAPE  H16X11335   4.860   4.063   4.431  0.0452  0.2386 -0.1090
  109SAPE  H16Y11336   5.022   4.131   4.418 -1.7534  0.7897  1.1436
  109SAPE  C31711337   5.015   3.924   4.462 -0.5043 -0.3656 -0.1298
  109SAPE  H17X11338   5.119   3.899   4.431  0.0996  2.0349 -0.2111
  109SAPE  H17Y11339   4.952   3.841   4.423  0.6169 -1.0241 -0.5955
  109SAPE  C31811340   5.004   3.928   4.608 -0.0255 -0.1646 -0.2061
  109SAPE  H18X11341   5.050   4.020   4.650  2.5220 -1.3369 -0.2493
  109SAPE  H18Y11342   5.052   3.833   4.639 -1.2335 -1.5664 -2.3861
  109SAPE  H18Z11343   4.901   3.920   4.650  0.4334  0.7015  1.1713
  110SAPE     N11344   6.087   2.027   1.939 -0.3075 -0.4638  0.0141
  110SAPE   HN111345   6.056   2.122   1.967  1.2594  0.6324 -1.7215
  110SAPE   HN211346   6.141   2.030   1.850  0.2405  1.9117  0.3546
  110SAPE   HN311347   6.003   1.968   1.924 -1.2063  0.6820  0.3548
  110SAPE   C1211348   6.162   1.991   2.068  0.1773 -0.9827  0.0505
  110SAPE  H12A11349   6.235   2.073   2.082  0.4499 -1.1523 -0.3606
  110SAPE  H12B11350   6.215   1.899   2.036 -0.7908 -1.9456  1.1350
  110SAPE   C1111351   6.075   1.955   2.180  0.3292  0.0670 -0.6796
  110SAPE  H11A11352   6.010   2.029   2.230 -0.9156 -1.6665  0.3767
  110SAPE  H11B11353   6.134   1.921   2.267  0.3531  0.6855 -0.4483
  110SAPE     P11354   6.005   1.703   2.157  0.4288 -0.7811 -0.2684
  110SAPE   O1311355   5.882   1.629   2.124  0.4605 -0.0167 -0.4284
  110SAPE   O1411356   6.129   1.673   2.080  0.2055  0.5978  0.6878
  110SAPE   O1211357   5.981   1.859   2.138 -0.7553  0.4214  0.0936
  110SAPE   O1111358   6.029   1.681   2.310  0.3439 -0.4483 -0.4132
  110SAPE    C111359   5.925   1.728   2.402 -0.4657 -0.3362  0.1337
  110SAPE    HA11360   5.888   1.829   2.374  0.8589 -0.4227 -2.1513
  110SAPE    HB11361   5.830   1.671   2.391 -0.1047 -1.0398  0.5794
  110SAPE    C211362   5.958   1.707   2.555  1.1681  0.2375 -0.5462
  110SAPE    HS11363   5.862   1.713   2.610  2.3455 -1.9706  1.9464
  110SAPE   O2111364   6.055   1.806   2.594 -0.0688 -0.0440  0.6775
  110SAPE   C2111365   6.011   1.929   2.618  0.1769 -0.2062  0.2561
  110SAPE   O2211366   5.896   1.965   2.624 -0.5920  0.0936 -0.0258
  110SAPE   C2211367   6.127   2.025   2.635  0.1305 -0.2457 -0.6043
  110SAPE   H2R11368   6.217   1.983   2.586  0.8457 -2.0637  2.0638
  110SAPE   H2S11369   6.096   2.123   2.591 -0.5087 -0.3047 -0.3023
  110SAPE    C311370   6.012   1.564   2.583  0.0915  0.5340 -0.2563
  110SAPE    HX11371   5.941   1.491   2.538 -0.2167  0.6273  0.0698
  110SAPE    HY11372   6.110   1.565   2.531  1.3486 -2.2387  1.7976
  110SAPE   O3111373   6.030   1.533   2.725  0.1745  0.8997  0.0610
  110SAPE   C3111374   6.106   1.430   2.752  0.4489  0.0300 -0.4449
  110SAPE   O3211375   6.166   1.366   2.668 -0.1250  0.2354 -0.5742
  110SAPE   C3211376   6.116   1.419   2.904  0.3138  0.1489 -0.1616
  110SAPE   H2X11377   6.156   1.513   2.948 -2.5990  1.6968 -0.5530
  110SAPE   H2Y11378   6.196   1.348   2.932 -0.8593 -1.4505 -0.6998
  110SAPE   C2311379   6.161   2.034   2.785 -0.0352 -1.0876 -0.0914
  110SAPE   H3R11380   6.266   2.070   2.795 -0.9216  1.7498 -0.2564
  110SAPE   H3S11381   6.170   1.927   2.814 -0.5632 -1.1707 -0.2307
  110SAPE   C2411382   6.071   2.120   2.874  0.1344  0.4595  0.2187
  110SAPE   H4R11383   6.089   2.104   2.982  1.8100  2.3049  0.2525
  110SAPE   H4S11384   5.971   2.078   2.851  0.4222 -0.4128  0.5066
  110SAPE   C2511385   6.070   2.268   2.831  0.4712 -0.6087 -0.4185
  110SAPE   H5R11386   6.052   2.292   2.725  0.7905  3.6931  0.2979
  110SAPE   C2611387   6.088   2.378   2.914 -1.3668  0.3909 -0.0267
  110SAPE   H6R11388   6.064   2.473   2.864 -2.9710 -0.3402 -0.7377
  110SAPE   C2711389   6.105   2.382   3.069  0.0366 -0.1380 -0.3430
  110SAPE   H7R11390   6.063   2.287   3.107 -1.2102  0.1792 -0.8885
  110SAPE   H7S11391   6.041   2.464   3.108  1.3182  0.3405  0.8670
  110SAPE   C2811392   6.253   2.407   3.096  0.1377 -0.7185  0.4349
  110SAPE   H8R11393   6.280   2.508   3.062 -1.6300 -0.5732 -0.6584
  110SAPE   C2911394   6.338   2.319   3.157  0.1199 -0.0590 -0.6097
  110SAPE   H9R11395   6.441   2.354   3.172  0.3629 -0.9494 -0.1088
  110SAPE  C21011396   6.302   2.180   3.208 -0.2151  0.6211  0.5547
  110SAPE  H10R11397   6.351   2.108   3.139 -0.7026  0.2270  0.6155
  110SAPE  H10S11398   6.192   2.162   3.208 -0.2399  0.6444 -0.7122
  110SAPE  C21111399   6.354   2.158   3.344 -0.3899 -0.3056 -0.9224
  110SAPE  H11R11400   6.447   2.099   3.339  0.8320  1.5284 -0.8525
  110SAPE  C21211401   6.306   2.211   3.459 -0.0217  0.0626 -0.0270
  110SAPE  H12R11402   6.356   2.169   3.547 -2.1449 -3.7721 -0.4069
  110SAPE  C21311403   6.198   2.311   3.485  0.6053  0.0150 -1.0255
  110SAPE  H13R11404   6.157   2.359   3.393  2.3337 -2.3798 -3.1970
  110SAPE  H13S11405   6.242   2.390   3.550 -1.7999  0.3198  0.3388
  110SAPE  C21411406   6.072   2.264   3.554 -0.0480  0.5178 -0.2962
  110SAPE  H14R11407   5.998   2.215   3.489 -1.1447 -0.2665  1.4935
  110SAPE  C21511408   6.056   2.269   3.690 -0.7801  0.3239  0.3399
  110SAPE  H15R11409   5.961   2.227   3.727 -0.4520 -0.1871  0.6101
  110SAPE  C21611410   6.148   2.318   3.794  0.4240  0.3489 -0.3028
  110SAPE  H16R11411   6.204   2.406   3.756  0.2636 -0.1195 -1.6739
  110SAPE  H16S11412   6.216   2.235   3.823  1.5198  1.0373 -0.8165
  110SAPE  C21711413   6.083   2.374   3.930  0.1910  0.3732  0.0332
  110SAPE  H17R11414   6.029   2.470   3.914  1.1038  1.2797  1.9845
  110SAPE  H17S11415   6.156   2.382   4.013  0.0690 -2.5604  0.5316
  110SAPE  C21811416   5.982   2.283   3.991  0.5060  1.1161 -0.1726
  110SAPE  H18R11417   6.041   2.189   4.003  1.7543  1.7147 -1.3570
  110SAPE  H18S11418   5.897   2.277   3.919 -0.2715 -2.0617  0.8509
  110SAPE  C21911419   5.924   2.342   4.129 -0.1050  0.9175  0.3372
  110SAPE  H19R11420   5.831   2.287   4.154  0.4585  0.0290  0.5347
  110SAPE  H19S11421   5.892   2.448   4.122 -0.9953  0.8207  2.3405
  110SAPE  C22011422   6.025   2.322   4.244  0.0491 -0.2661 -0.1027
  110SAPE  H20R11423   5.971   2.348   4.338  1.0881 -0.7648  0.6564
  110SAPE  H20S11424   6.117   2.385   4.238 -0.5241  0.5326 -0.7752
  110SAPE  H20T11425   6.048   2.215   4.260  0.0117 -0.3089 -0.3296
  110SAPE   C3311426   5.980   1.372   2.967  0.2694  0.2681  0.3293
  110SAPE   H3X11427   5.951   1.273   2.925 -2.2341  1.0806 -0.0115
  110SAPE   H3Y11428   5.899   1.447   2.950  2.4260  2.4803 -0.7654
  110SAPE   C3411429   5.997   1.376   3.129  0.1009  0.0555  0.4451
  110SAPE   H4X11430   6.083   1.308   3.140  0.5170  0.2989 -1.0312
  110SAPE   H4Y11431   5.908   1.331   3.178 -1.0353 -0.5963 -2.0382
  110SAPE   C3511432   6.038   1.510   3.194  0.6403  0.5219 -0.4502
  110SAPE   H5X11433   5.954   1.583   3.192 -0.0165 -0.0712  1.9715
  110SAPE   H5Y11434   6.122   1.562   3.143 -0.0277  2.6443  0.4928
  110SAPE   C3611435   6.077   1.491   3.344  0.2854  0.5685 -0.7602
  110SAPE   H6X11436   6.153   1.411   3.357 -1.0558 -1.0339 -2.1519
  110SAPE   H6Y11437   5.984   1.456   3.394  0.5942  0.6632 -0.1090
  110SAPE   C3711438   6.102   1.629   3.416  0.3735 -0.0555  0.3837
  110SAPE   H7X11439   6.020   1.687   3.368  0.8543 -1.3329 -2.1413
  110SAPE   H7Y11440   6.204   1.667   3.390  0.3060  0.6954  1.1734
  110SAPE   C3811441   6.087   1.629   3.570  0.5567  0.3047 -0.2461
  110SAPE   H8X11442   6.157   1.554   3.614 -1.8501 -2.5118 -0.8791
  110SAPE   H8Y11443   5.989   1.584   3.597  0.6517 -0.7026 -1.5138
  110SAPE   C3911444   6.112   1.771   3.640  0.1871  0.3713 -0.0760
  110SAPE   H9X11445   6.034   1.843   3.609 -1.0402  0.1235  2.2277
  110SAPE   H9Y11446   6.203   1.818   3.596 -0.6388  1.0336 -1.1280
  110SAPE  C31011447   6.119   1.770   3.792 -0.1535  0.9273 -0.0186
  110SAPE  H10X11448   6.152   1.673   3.835 -1.7395  1.4868  2.7118
  110SAPE  H10Y11449   6.010   1.781   3.810 -0.5697 -1.4365 -0.6968
  110SAPE  C31111450   6.187   1.889   3.854 -0.4637 -0.0036  0.2192
  110SAPE  H11X11451   6.133   1.979   3.817 -0.2019  0.2240  0.3951
  110SAPE  H11Y11452   6.291   1.902   3.818 -0.0560 -1.8294  0.6420
  110SAPE  C31211453   6.196   1.885   4.004 -0.1931  0.2175  0.3559
  110SAPE  H12X11454   6.241   1.786   4.027 -0.2371 -0.0859 -0.8287
  110SAPE  H12Y11455   6.099   1.884   4.059 -0.6565 -0.7820 -0.4403
  110SAPE  C31311456   6.285   1.999   4.067 -0.3036  1.0779 -0.3913
  110SAPE  H13X11457   6.270   2.100   4.023 -0.0187  0.3662 -2.1801
  110SAPE  H13Y11458   6.387   1.962   4.047 -0.5729 -0.6534  1.1434
  110SAPE  C31411459   6.262   1.992   4.217 -0.4582 -0.2979  0.4827
  110SAPE  H14X11460   6.256   1.885   4.246 -4.1890  0.3813  2.8704
  110SAPE  H14Y11461   6.162   2.032   4.243 -1.3714  0.0570 -3.0298
  110SAPE  C31511462   6.367   2.064   4.302  0.1598 -0.3049 -0.0504
  110SAPE  H15X11463   6.365   2.172   4.278 -0.4824 -0.2509  0.2295
  110SAPE  H15Y11464   6.473   2.032   4.289  0.1089 -0.1679 -0.8751
  110SAPE  C31611465   6.340   2.060   4.450  0.3190  0.5003 -0.1987
  110SAPE  H16X11466   6.325   1.954   4.480  1.4600  0.2856 -0.3446
  110SAPE  H16Y11467   6.249   2.116   4.480 -0.6787 -1.5914  0.9763
  110SAPE  C31711468   6.455   2.114   4.532 -0.1818 -0.6002  0.4493
  110SAPE  H17X11469   6.503   2.204   4.486 -0.9503  0.1674  1.1132
  110SAPE  H17Y11470   6.532   2.035   4.525  0.3009  0.0134 -2.7392
  110SAPE  C31811471   6.423   2.142   4.681 -0.5707  0.3978 -0.1439
  110SAPE  H18X11472   6.353   2.228   4.688 -0.9876  0.5743 -4.1433
  110SAPE  H18Y11473   6.514   2.168   4.738  2.7373 -3.4684 -3.0914
  110SAPE  H18Z11474   6.372   2.053   4.724 -0.5987  1.8493  3.0900
  111SAPE     N11475   5.672   2.948   2.299  0.6041  0.0232  0.2642
  111SAPE   HN111476   5.673   2.849   2.268 -0.5305  0.7957 -2.6274
  111SAPE   HN211477   5.743   2.969   2.373  1.9607  0.9357 -1.2118
  111SAPE   HN311478   5.587   2.982   2.348  2.1976  2.2601  1.7043
  111SAPE   C1211479   5.667   3.033   2.172 -0.7226 -0.7813 -0.1632
  111SAPE  H12A11480   5.658   3.140   2.202  0.8002  0.2902 -3.0661
  111SAPE  H12B11481   5.583   3.006   2.104  0.7359  0.1154 -2.4811
  111SAPE   C1111482   5.794   3.015   2.094  0.1349  0.2358  0.8343
  111SAPE  H11A11483   5.778   3.074   2.000 -1.7084  0.9731  1.5675
  111SAPE  H11B11484   5.800   2.906   2.074  0.8163 -0.2235  3.3027
  111SAPE     P11485   6.014   3.167   2.128  0.2679  0.1356 -0.0454
  111SAPE   O1311486   6.127   3.081   2.108 -0.2115  0.5369  0.1926
  111SAPE   O1411487   5.955   3.244   2.018  0.1010 -0.1483  0.7086
  111SAPE   O1211488   5.902   3.067   2.177 -0.2065  0.7409  0.5800
  111SAPE   O1111489   6.035   3.246   2.249  0.0536 -0.0439 -0.3468
  111SAPE    C111490   5.962   3.248   2.375  0.2681  0.1293 -0.2625
  111SAPE    HA11491   5.941   3.350   2.414 -0.4992 -0.1841  0.1687
  111SAPE    HB11492   5.858   3.208   2.368 -0.8047  1.9001  3.0700
  111SAPE    C211493   6.040   3.155   2.476  0.1546  0.0978 -0.4776
  111SAPE    HS11494   6.028   3.053   2.433 -0.4141  0.8588 -2.2305
  111SAPE   O2111495   5.973   3.165   2.605 -0.4591 -0.0797 -0.4178
  111SAPE   C2111496   5.856   3.098   2.608 -0.8708 -0.4922 -0.2601
  111SAPE   O2211497   5.806   3.032   2.516  0.5890 -0.0502 -0.3703
  111SAPE   C2211498   5.797   3.118   2.739 -0.2458 -0.6160  0.4366
  111SAPE   H2R11499   5.764   3.224   2.747  1.1719 -0.1870  1.0983
  111SAPE   H2S11500   5.712   3.047   2.752  0.2538 -1.3176 -0.0353
  111SAPE    C311501   6.186   3.193   2.491 -0.1322 -0.3017 -0.0735
  111SAPE    HX11502   6.193   3.303   2.500  2.0558 -0.5116  1.5014
  111SAPE    HY11503   6.231   3.160   2.395  0.8133  0.7207  0.0070
  111SAPE   O3111504   6.241   3.124   2.612 -0.8065  0.0962 -0.0178
  111SAPE   C3111505   6.307   3.199   2.697  0.4320 -0.3673  0.2445
  111SAPE   O3211506   6.296   3.316   2.710 -0.5416 -0.5877  0.4767
  111SAPE   C3211507   6.388   3.110   2.787 -0.6906 -0.3301 -0.1025
  111SAPE   H2X11508   6.484   3.101   2.732 -0.2647  0.2327  0.5304
  111SAPE   H2Y11509   6.337   3.012   2.785  1.1210 -1.3151  0.5580
  111SAPE   C2311510   5.895   3.077   2.854  0.2149 -0.2997 -0.3884
  111SAPE   H3R11511   5.846   3.114   2.946  1.9302  2.6694 -0.5364
  111SAPE   H3S11512   5.990   3.133   2.838  1.4095 -2.5100 -1.4584
  111SAPE   C2411513   5.923   2.933   2.865  0.0526 -0.4664 -0.4422
  111SAPE   H4R11514   5.995   2.904   2.785  0.8093  2.6699 -1.0352
  111SAPE   H4S11515   5.825   2.883   2.850  0.8046 -1.6379 -1.7647
  111SAPE   C2511516   5.994   2.895   2.998 -0.0076 -0.3182 -0.2790
  111SAPE   H5R11517   6.091   2.946   3.010  0.7156 -1.5289 -0.8031
  111SAPE   C2611518   5.949   2.826   3.098 -0.1418  0.3967 -0.7858
  111SAPE   H6R11519   6.013   2.820   3.188 -0.5722  1.3109 -0.4050
  111SAPE   C2711520   5.810   2.771   3.103 -0.2886 -0.0465 -0.0230
  111SAPE   H7R11521   5.747   2.794   3.014 -1.4288  0.8558  0.9964
  111SAPE   H7S11522   5.748   2.825   3.177 -0.1442  0.6416 -0.3939
  111SAPE   C2811523   5.806   2.624   3.128  0.1705  0.1026 -0.4560
  111SAPE   H8R11524   5.838   2.563   3.042 -2.4512 -0.1456 -1.3451
  111SAPE   C2911525   5.755   2.562   3.234 -0.0521  0.9920 -0.5150
  111SAPE   H9R11526   5.770   2.454   3.226 -4.2975  0.3827 -3.3539
  111SAPE  C21011527   5.703   2.621   3.359 -0.5184  0.4454 -0.4899
  111SAPE  H10R11528   5.617   2.555   3.386  0.6145 -2.7089 -3.8331
  111SAPE  H10S11529   5.652   2.719   3.344 -1.9011 -0.0518  0.6168
  111SAPE  C21111530   5.801   2.636   3.485 -0.1526  0.3653 -0.0237
  111SAPE  H11R11531   5.900   2.676   3.458  0.3476 -0.0971  1.0875
  111SAPE  C21211532   5.779   2.608   3.616  0.4821  0.4991  0.2107
  111SAPE  H12R11533   5.850   2.631   3.698  1.2719 -0.8638 -0.0576
  111SAPE  C21311534   5.650   2.555   3.667 -0.1897 -0.0018  0.4025
  111SAPE  H13R11535   5.576   2.535   3.587 -1.4124  0.4407  1.3857
  111SAPE  H13S11536   5.610   2.632   3.736 -0.0886  1.5332 -1.1593
  111SAPE  C21411537   5.667   2.425   3.734  0.1483 -0.3033 -0.3824
  111SAPE  H14R11538   5.743   2.356   3.694  0.7367 -1.3850  2.3768
  111SAPE  C21511539   5.606   2.384   3.844 -0.4070  0.1634  1.6151
  111SAPE  H15R11540   5.621   2.286   3.892 -0.8048  0.1902  1.7995
  111SAPE  C21611541   5.490   2.452   3.902  0.8930 -0.5635 -0.0611
  111SAPE  H16R11542   5.419   2.369   3.920 -0.2846 -0.1758 -2.5233
  111SAPE  H16S11543   5.437   2.519   3.830  0.0966 -2.7947 -1.6742
  111SAPE  C21711544   5.515   2.527   4.033 -0.1633  0.1954 -0.3800
  111SAPE  H17R11545   5.427   2.592   4.051 -1.3869 -1.4566 -0.1197
  111SAPE  H17S11546   5.605   2.592   4.032  0.4733 -0.6424  0.0831
  111SAPE  C21811547   5.554   2.433   4.140  0.0720  0.1948 -0.5223
  111SAPE  H18R11548   5.620   2.351   4.104  0.0872 -0.3950  0.7670
  111SAPE  H18S11549   5.462   2.384   4.177 -0.0328 -0.1866 -1.2811
  111SAPE  C21911550   5.622   2.503   4.260 -0.2418 -0.3055 -0.4232
  111SAPE  H19R11551   5.546   2.574   4.300  0.9646  0.2797  0.8977
  111SAPE  H19S11552   5.706   2.560   4.216 -0.6073  0.5154 -0.0794
  111SAPE  C22011553   5.671   2.403   4.366  0.4372 -0.0858  0.0565
  111SAPE  H20R11554   5.713   2.311   4.321 -0.0516 -0.1518 -0.2704
  111SAPE  H20S11555   5.590   2.387   4.441 -0.8553  0.9374 -1.0446
  111SAPE  H20T11556   5.749   2.448   4.431 -0.8039  3.0101 -0.3988
  111SAPE   C3311557   6.421   3.190   2.907 -0.5092  0.1364 -0.1995
  111SAPE   H3X11558   6.465   3.289   2.881  0.8846 -0.1506  0.9368
  111SAPE   H3Y11559   6.504   3.145   2.965 -1.0773  1.6944  1.9579
  111SAPE   C3411560   6.298   3.203   2.999 -0.0146  0.2069  0.1541
  111SAPE   H4X11561   6.251   3.104   3.020 -0.9067  0.5163 -0.3371
  111SAPE   H4Y11562   6.221   3.263   2.947  0.2717  0.0311 -0.4763
  111SAPE   C3511563   6.340   3.266   3.135  0.7194  0.5607 -0.2564
  111SAPE   H5X11564   6.381   3.369   3.123 -0.7327  1.5060  2.1200
  111SAPE   H5Y11565   6.422   3.212   3.186 -0.9742 -0.7994  1.1327
  111SAPE   C3611566   6.222   3.275   3.236 -0.2312  0.1356  0.8468
  111SAPE   H6X11567   6.181   3.172   3.226  0.6647 -0.1896  0.3065
  111SAPE   H6Y11568   6.152   3.350   3.194  0.1896  1.2279  2.0239
  111SAPE   C3711569   6.258   3.315   3.377  0.1297 -0.3001 -0.2417
  111SAPE   H7X11570   6.164   3.334   3.433  0.2571 -1.5156  0.4190
  111SAPE   H7Y11571   6.308   3.414   3.375  0.3430 -0.4194 -1.4542
  111SAPE   C3811572   6.342   3.203   3.443  0.2736  0.4218  0.1977
  111SAPE   H8X11573   6.443   3.200   3.397  0.8943  1.6359  1.4280
  111SAPE   H8Y11574   6.296   3.106   3.414  1.9070 -0.3368  0.0299
  111SAPE   C3911575   6.362   3.218   3.601 -0.3972  0.2234  0.2817
  111SAPE   H9X11576   6.266   3.226   3.656  1.6591  0.8299  4.1105
  111SAPE   H9Y11577   6.396   3.323   3.613  0.2675 -0.1524  1.9636
  111SAPE  C31011578   6.466   3.131   3.663  0.0019 -0.6514  0.2876
  111SAPE  H10X11579   6.560   3.155   3.609  0.0671  2.4812  1.5891
  111SAPE  H10Y11580   6.448   3.023   3.642 -0.5101 -0.3354 -0.9694
  111SAPE  C31111581   6.484   3.150   3.809  0.3932 -0.4916 -0.4875
  111SAPE  H11X11582   6.398   3.103   3.862 -2.1233  2.5216 -1.5935
  111SAPE  H11Y11583   6.482   3.258   3.833  1.0922 -0.9853  2.1361
  111SAPE  C31211584   6.612   3.086   3.866 -0.8374  0.4067 -0.9769
  111SAPE  H12X11585   6.700   3.121   3.808  0.2654 -0.9298 -0.1843
  111SAPE  H12Y11586   6.594   2.977   3.856 -2.2309  0.1988  2.2507
  111SAPE  C31311587   6.632   3.108   4.019 -0.6953  0.4951 -0.0026
  111SAPE  H13X11588   6.691   3.031   4.072 -0.1484  1.1651  0.3866
  111SAPE  H13Y11589   6.533   3.107   4.069  0.7777  0.5541  3.1689
  111SAPE  C31411590   6.684   3.247   4.052 -0.2207 -0.9049 -0.9250
  111SAPE  H14X11591   6.654   3.328   3.982  0.9084 -0.0849 -0.4910
  111SAPE  H14Y11592   6.794   3.256   4.061 -0.1195 -0.9064 -2.0024
  111SAPE  C31511593   6.639   3.296   4.189  0.4379 -0.1148 -0.5964
  111SAPE  H15X11594   6.531   3.276   4.203 -0.1605  1.8596 -1.9219
  111SAPE  H15Y11595   6.651   3.407   4.192 -1.5081  0.1284 -0.5449
  111SAPE  C31611596   6.728   3.239   4.307 -0.1605 -0.1894 -0.0276
  111SAPE  H16X11597   6.832   3.280   4.311 -0.2205 -0.1550  2.5844
  111SAPE  H16Y11598   6.742   3.131   4.286  0.0764 -0.6356  2.1765
  111SAPE  C31711599   6.667   3.250   4.442 -0.1495 -0.2155  0.4496
  111SAPE  H17X11600   6.652   3.359   4.459  0.2226 -0.1328  0.2612
  111SAPE  H17Y11601   6.738   3.217   4.521 -1.6037  0.7550  2.2333
  111SAPE  C31811602   6.540   3.168   4.477 -0.1077 -0.3483  0.1726
  111SAPE  H18X11603   6.556   3.058   4.468  0.6124 -0.1586 -1.2393
  111SAPE  H18Y11604   6.458   3.193   4.407 -0.2402  0.0355  0.4629
  111SAPE  H18Z11605   6.519   3.186   4.584  0.2477  1.7583 -0.0652
  112SAPE     N11606   1.600   2.601   2.300  0.4853 -0.1903 -0.2118
  112SAPE   HN111607   1.541   2.563   2.376 -1.0656 -1.8059 -2.1026
  112SAPE   HN211608   1.699   2.601   2.332 -0.3073 -1.2265  2.4286
  112SAPE   HN311609   1.571   2.701   2.293  1.5321  0.1921  0.6014
  112SAPE   C1211610   1.589   2.523   2.173 -0.5334  0.3859 -0.0579
  112SAPE  H12A11611   1.647   2.573   2.093  0.4842 -1.2547 -0.3965
  112SAPE  H12B11612   1.480   2.535   2.156 -0.5132  3.5759  1.3331
  112SAPE   C1111613   1.628   2.377   2.195  0.5873 -0.1143  0.2693
  112SAPE  H11A11614   1.737   2.359   2.212  0.1987 -3.8313 -0.4205
  112SAPE  H11B11615   1.596   2.324   2.103 -0.1969  0.6213  0.1110
  112SAPE     P11616   1.420   2.241   2.309 -0.1210  0.0554  0.0180
  112SAPE   O1311617   1.326   2.314   2.221 -0.4554  0.2038 -0.1219
  112SAPE   O1411618   1.456   2.103   2.267  0.6370  0.4724 -0.0546
  112SAPE   O1211619   1.561   2.323   2.308 -0.3765 -0.4933  0.8204
  112SAPE   O1111620   1.370   2.252   2.465 -0.6204  0.6914 -0.0110
  112SAPE    C111621   1.444   2.196   2.569  0.0037  0.7673  0.0738
  112SAPE    HA11622   1.547   2.233   2.551 -0.2920  2.1456  0.9627
  112SAPE    HB11623   1.411   2.239   2.667 -1.5528 -3.9761  1.9322
  112SAPE    C211624   1.436   2.048   2.580  0.3095 -0.3255 -0.3989
  112SAPE    HS11625   1.467   2.007   2.481  0.4421 -3.3019  0.7620
  112SAPE   O2111626   1.297   2.010   2.615  0.3647  0.3596  0.3156
  112SAPE   C2111627   1.281   1.884   2.588  0.0377  0.9301 -0.0092
  112SAPE   O2211628   1.368   1.813   2.552  0.2157  0.7934 -0.0389
  112SAPE   C2211629   1.139   1.846   2.603  0.6148 -0.3550 -0.1447
  112SAPE   H2R11630   1.088   1.925   2.662 -0.2510 -0.6859 -0.4434
  112SAPE   H2S11631   1.092   1.838   2.503 -3.5637 -1.9071  1.7255
  112SAPE    C311632   1.533   1.998   2.694 -0.6216  0.0985  1.0699
  112SAPE    HX11633   1.639   2.021   2.670 -1.5300  2.0534 -1.5639
  112SAPE    HY11634   1.528   1.887   2.696  0.4477  0.0368  1.0885
  112SAPE   O3111635   1.507   2.059   2.817  0.9536 -0.5588  0.0704
  112SAPE   C3111636   1.464   1.987   2.920 -0.8316  0.0700  0.8642
  112SAPE   O3211637   1.449   1.869   2.913  0.3552  0.0913 -0.2018
  112SAPE   C3211638   1.423   2.086   3.026 -0.0169  0.3420 -0.4528
  112SAPE   H2X11639   1.331   2.137   2.992 -1.3990 -0.4059  1.9193
  112SAPE   H2Y11640   1.509   2.154   3.043 -0.1351  0.1456  1.0936
  112SAPE   C2311641   1.138   1.708   2.673 -0.7132  0.2081 -0.7441
  112SAPE   H3R11642   1.188   1.713   2.772 -3.1040  0.0790  0.5565
  112SAPE   H3S11643   1.184   1.633   2.605 -0.9950  0.5417 -1.3055
  112SAPE   C2411644   0.986   1.665   2.697 -1.3400 -0.2596 -0.2145
  112SAPE   H4R11645   0.997   1.564   2.742 -1.3886  0.9354  2.6540
  112SAPE   H4S11646   0.925   1.662   2.604 -2.1361  3.0307  0.0940
  112SAPE   C2511647   0.919   1.762   2.794  0.0312  0.1669  0.6943
  112SAPE   H5R11648   0.861   1.838   2.740 -1.3856 -2.1744 -1.3125
  112SAPE   C2611649   0.922   1.761   2.927  0.2182  0.3161  0.4898
  112SAPE   H6R11650   0.874   1.843   2.983 -2.4114  0.0417 -1.1956
  112SAPE   C2711651   1.010   1.663   3.006 -0.9404 -0.3476  0.2914
  112SAPE   H7R11652   1.087   1.623   2.937 -1.9313  0.1534 -1.1868
  112SAPE   H7S11653   0.948   1.576   3.037 -1.1421  0.2122  1.4904
  112SAPE   C2811654   1.079   1.725   3.126  0.5361  0.3056 -0.3441
  112SAPE   H8R11655   1.146   1.810   3.105  0.5240  0.8051  1.4469
  112SAPE   C2911656   1.079   1.693   3.257  0.7177 -0.5133 -0.3700
  112SAPE   H9R11657   1.147   1.751   3.321  0.6343 -1.0194  0.1863
  112SAPE  C21011658   1.010   1.578   3.327 -0.0067  0.0404 -0.1282
  112SAPE  H10R11659   0.953   1.519   3.253  0.3581 -0.9120  0.3323
  112SAPE  H10S11660   0.939   1.629   3.395  0.8081  2.5864 -1.0597
  112SAPE  C21111661   1.098   1.489   3.407 -0.4393  0.3151  0.2111
  112SAPE  H11R11662   1.104   1.386   3.371 -1.0659  0.5720 -0.6586
  112SAPE  C21211663   1.154   1.516   3.525 -0.1713  0.1831 -0.1264
  112SAPE  H12R11664   1.213   1.435   3.571  0.5047  1.0506  0.5599
  112SAPE  C21311665   1.155   1.653   3.587 -0.0621  0.9896 -0.2911
  112SAPE  H13R11666   1.088   1.728   3.540  2.3860  4.0990  0.8443
  112SAPE  H13S11667   1.255   1.698   3.568 -0.7538  1.6173 -2.8460
  112SAPE  C21411668   1.127   1.646   3.737  0.0631  0.4671 -0.8163
  112SAPE  H14R11669   1.210   1.616   3.804  0.9491  1.2504 -1.5389
  112SAPE  C21511670   1.022   1.692   3.797  0.1816 -0.3431  0.5160
  112SAPE  H15R11671   1.004   1.671   3.904 -0.6359 -0.6163  0.3341
  112SAPE  C21611672   0.894   1.749   3.729 -1.3777 -0.5226 -0.2913
  112SAPE  H16R11673   0.807   1.705   3.783 -0.7789  0.3143  1.4235
  112SAPE  H16S11674   0.884   1.729   3.620 -2.1696 -0.1147 -0.3053
  112SAPE  C21711675   0.875   1.899   3.757  0.4172  0.1637  0.4046
  112SAPE  H17R11676   0.785   1.927   3.700  0.8536 -0.7695 -0.7877
  112SAPE  H17S11677   0.964   1.954   3.720  0.6673  0.1790  1.0100
  112SAPE  C21811678   0.862   1.929   3.908 -0.1827 -0.2008  0.5298
  112SAPE  H18R11679   0.866   2.039   3.928  0.3924 -0.1923  0.3916
  112SAPE  H18S11680   0.948   1.891   3.967 -0.1497  2.1733  2.1906
  112SAPE  C21911681   0.730   1.891   3.968  0.2274  0.2641  0.5447
  112SAPE  H19R11682   0.739   1.783   3.991  0.6682  0.3651  0.8580
  112SAPE  H19S11683   0.659   1.899   3.883  0.9608 -1.6582 -0.3038
  112SAPE  C22011684   0.687   1.967   4.094 -1.2143  0.1116  0.0017
  112SAPE  H20R11685   0.751   1.947   4.182 -2.0244  0.2656  0.6355
  112SAPE  H20S11686   0.586   1.929   4.119 -0.4993 -2.1222 -0.2311
  112SAPE  H20T11687   0.665   2.075   4.076 -1.3110  0.5236  2.3556
  112SAPE   C3311688   1.383   2.017   3.164  0.2788  0.3332  0.3501
  112SAPE   H3X11689   1.445   1.929   3.193 -2.2351 -1.1158  1.6689
  112SAPE   H3Y11690   1.284   1.974   3.140 -0.0860  1.0246  0.6139
  112SAPE   C3411691   1.380   2.094   3.300  0.0850  0.2849  0.3109
  112SAPE   H4X11692   1.320   2.187   3.289  0.2764  0.6872  2.2277
  112SAPE   H4Y11693   1.480   2.138   3.322  0.4472  0.8703 -2.1606
  112SAPE   C3511694   1.334   2.010   3.418 -0.2141  0.1385  0.5885
  112SAPE   H5X11695   1.392   1.917   3.436 -0.3793  0.1895  1.4659
  112SAPE   H5Y11696   1.236   1.971   3.385  0.7680 -1.8927 -0.0671
  112SAPE   C3611697   1.318   2.095   3.545  0.3317  0.2553  0.8572
  112SAPE   H6X11698   1.264   2.189   3.520  1.2637  1.0981  1.9048
  112SAPE   H6Y11699   1.420   2.130   3.568  0.4222  1.6882 -1.3957
  112SAPE   C3711700   1.265   2.025   3.670  0.9293 -0.5915 -0.4296
  112SAPE   H7X11701   1.333   1.943   3.699  0.6847 -0.5099  0.3862
  112SAPE   H7Y11702   1.164   1.983   3.648  1.2450 -1.3032 -0.5673
  112SAPE   C3811703   1.248   2.130   3.793 -0.3211  0.1506  0.3171
  112SAPE   H8X11704   1.169   2.197   3.752 -0.1627 -0.6534 -1.4322
  112SAPE   H8Y11705   1.345   2.181   3.807 -1.0269  2.2271 -1.7141
  112SAPE   C3911706   1.204   2.068   3.925  0.1954 -0.7557 -0.2262
  112SAPE   H9X11707   1.210   1.957   3.934 -0.0666 -0.8474 -1.1544
  112SAPE   H9Y11708   1.095   2.090   3.922  0.1617 -0.8831 -0.0300
  112SAPE  C31011709   1.262   2.143   4.040  0.0329 -0.7574  0.6441
  112SAPE  H10X11710   1.252   2.248   4.005  0.5911 -1.0949 -0.5723
  112SAPE  H10Y11711   1.371   2.126   4.048  0.5870  1.4552 -1.2165
  112SAPE  C31111712   1.198   2.104   4.175 -0.2361  0.0742 -0.4761
  112SAPE  H11X11713   1.233   2.002   4.203  1.0412 -0.4174 -3.4504
  112SAPE  H11Y11714   1.089   2.104   4.152  0.0615 -0.4470 -2.0342
  112SAPE  C31211715   1.217   2.205   4.291 -0.4402 -0.8814 -0.8318
  112SAPE  H12X11716   1.150   2.178   4.376 -1.0769 -0.0952 -1.0698
  112SAPE  H12Y11717   1.192   2.311   4.269 -0.2371 -0.3395  1.2740
  112SAPE  C31311718   1.362   2.211   4.356  0.0689 -0.0516 -0.2881
  112SAPE  H13X11719   1.438   2.204   4.275  1.9362 -3.6731  1.5395
  112SAPE  H13Y11720   1.383   2.121   4.417  0.8139 -0.7552 -1.5414
  112SAPE  C31411721   1.391   2.333   4.442  0.2782  0.2375 -0.1969
  112SAPE  H14X11722   1.301   2.354   4.505 -0.4432 -0.1055 -1.0832
  112SAPE  H14Y11723   1.413   2.427   4.387  0.3744  1.2941  1.5963
  112SAPE  C31511724   1.502   2.313   4.544  0.2987 -0.1187 -0.6949
  112SAPE  H15X11725   1.515   2.413   4.591 -0.7672 -0.8010  1.1474
  112SAPE  H15Y11726   1.603   2.291   4.502  0.5989  1.5624 -0.9353
  112SAPE  C31611727   1.460   2.215   4.663  0.0912 -0.1085  0.3531
  112SAPE  H16X11728   1.465   2.116   4.613 -1.6754  0.5921 -1.3563
  112SAPE  H16Y11729   1.355   2.232   4.696 -0.3858  0.1840 -1.2428
  112SAPE  C31711730   1.555   2.219   4.775 -0.9154 -0.4602  0.7479
  112SAPE  H17X11731   1.529   2.140   4.848 -1.8298  1.6108  2.7914
  112SAPE  H17Y11732   1.543   2.311   4.836 -0.7531  1.0449 -1.3601
  112SAPE  C31811733   1.705   2.207   4.730  0.5610 -1.1790 -0.1779
  112SAPE  H18X11734   1.732   2.117   4.669  0.4778 -1.1620 -0.2402
  112SAPE  H18Y11735   1.768   2.211   4.822 -0.4496  1.0956  0.4861
  112SAPE  H18Z11736   1.741   2.295   4.671  1.0077 -0.4314  1.1765
  113SAPE     N11737   0.623   1.378   2.480  0.1891 -0.5869  0.2191
  113SAPE   HN111738   0.591   1.302   2.417  0.5692  0.5597 -1.4246
  113SAPE   HN211739   0.674   1.328   2.556  0.0263 -0.5346  0.3639
  113SAPE   HN311740   0.540   1.431   2.513  0.5705 -0.2111  0.6030
  113SAPE   C1211741   0.717   1.477   2.425 -0.7067 -0.3209  0.4030
  113SAPE  H12A11742   0.746   1.532   2.517  2.6237 -1.5986  0.2377
  113SAPE  H12B11743   0.668   1.539   2.347  1.7776  1.0142 -0.2179
  113SAPE   C1111744   0.836   1.399   2.371 -0.4428  0.5796  0.0264
  113SAPE  H11A11745   0.897   1.347   2.447 -0.6049 -0.1187 -0.3119
  113SAPE  H11B11746   0.905   1.475   2.329  0.2648 -0.6370 -1.0937
  113SAPE     P11747   0.823   1.147   2.270  0.1271  0.1838 -0.2093
  113SAPE   O1311748   0.719   1.093   2.177 -0.1341 -0.3243  0.2762
  113SAPE   O1411749   0.964   1.120   2.242 -0.3955 -0.1385 -0.6712
  113SAPE   O1211750   0.795   1.305   2.269 -0.2355  0.1351  0.2513
  113SAPE   O1111751   0.785   1.113   2.414  0.1865 -0.4812 -0.5494
  113SAPE    C111752   0.681   1.032   2.450  0.3600  0.1554 -0.3086
  113SAPE    HA11753   0.584   1.073   2.416 -0.9259 -0.2667  2.5145
  113SAPE    HB11754   0.705   0.934   2.402 -1.5302 -0.2879 -0.4240
  113SAPE    C211755   0.677   0.992   2.603  0.5711 -0.4170  0.1516
  113SAPE    HS11756   0.601   1.061   2.647 -2.0807 -1.9407 -1.7383
  113SAPE   O2111757   0.801   1.007   2.678 -0.4528  0.7277  0.5523
  113SAPE   C2111758   0.831   1.135   2.706 -0.6281 -0.0311  0.1949
  113SAPE   O2211759   0.757   1.230   2.678  0.2196  0.4765 -0.1577
  113SAPE   C2211760   0.963   1.146   2.783 -0.1478  0.3636  0.0775
  113SAPE   H2R11761   0.993   1.043   2.811  2.5222  1.0345 -0.0514
  113SAPE   H2S11762   1.044   1.181   2.716  0.5356 -1.3116 -0.0051
  113SAPE    C311763   0.613   0.851   2.619  0.3792 -0.0021 -0.1383
  113SAPE    HX11764   0.678   0.786   2.556 -0.1007  0.9886 -1.7336
  113SAPE    HY11765   0.518   0.851   2.561  0.2756 -2.5072 -0.0576
  113SAPE   O3111766   0.603   0.814   2.757  0.1994 -0.2049  0.2184
  113SAPE   C3111767   0.530   0.900   2.829 -0.3880 -0.2933  0.6810
  113SAPE   O3211768   0.450   0.980   2.783  0.1829 -0.1288  0.2841
  113SAPE   C3211769   0.566   0.887   2.977  0.3300 -0.0662  0.1398
  113SAPE   H2X11770   0.622   0.978   3.007  1.5461 -1.7766  3.5000
  113SAPE   H2Y11771   0.633   0.800   2.991  0.4223 -0.3427 -1.7277
  113SAPE   C2311772   0.939   1.230   2.914 -0.3500  0.5464  0.0969
  113SAPE   H3R11773   0.913   1.332   2.880  0.9415  1.2730  1.1983
  113SAPE   H3S11774   1.042   1.228   2.957 -0.6405 -1.3080  0.8167
  113SAPE   C2411775   0.837   1.172   3.015  0.3331 -0.6069 -0.1438
  113SAPE   H4R11776   0.870   1.074   3.055  0.1138 -0.4556  0.4089
  113SAPE   H4S11777   0.732   1.163   2.979 -0.4180  2.3884  1.0460
  113SAPE   C2511778   0.833   1.269   3.134 -0.2035  0.3800 -0.4035
  113SAPE   H5R11779   0.829   1.372   3.098 -0.2658 -0.1201 -1.8672
  113SAPE   C2611780   0.828   1.248   3.265  0.3718 -0.1788  1.1342
  113SAPE   H6R11781   0.854   1.339   3.322 -1.1970  1.2140 -0.2670
  113SAPE   C2711782   0.820   1.114   3.330  0.1954  0.2672  0.1994
  113SAPE   H7R11783   0.926   1.089   3.355 -0.5648 -2.5536  0.9578
  113SAPE   H7S11784   0.790   1.041   3.252 -1.3671 -1.2642  2.1170
  113SAPE   C2811785   0.731   1.127   3.445 -0.2012  0.3538  0.6724
  113SAPE   H8R11786   0.629   1.092   3.422 -0.4754  0.8840  1.0635
  113SAPE   C2911787   0.762   1.174   3.568  0.3254 -0.1652  0.0866
  113SAPE   H9R11788   0.680   1.172   3.642  0.4504  1.4907  0.3042
  113SAPE  C21011789   0.898   1.220   3.618  0.1244  0.5651  0.1425
  113SAPE  H10R11790   0.962   1.242   3.529 -0.5181  2.9798  0.2182
  113SAPE  H10S11791   0.954   1.153   3.687  1.2887  0.3690 -0.9504
  113SAPE  C21111792   0.868   1.350   3.684 -0.9602 -0.4419  1.0675
  113SAPE  H11R11793   0.893   1.438   3.623  0.0716 -1.0097  0.6430
  113SAPE  C21211794   0.822   1.384   3.804  0.6760  0.3381 -0.2047
  113SAPE  H12R11795   0.828   1.488   3.839 -1.1514  0.1609  0.7654
  113SAPE  C21311796   0.789   1.295   3.921  0.8721  0.7565 -0.0691
  113SAPE  H13R11797   0.813   1.190   3.890  0.5504  0.7371 -0.2525
  113SAPE  H13S11798   0.678   1.290   3.919  0.8999 -0.9875  1.0443
  113SAPE  C21411799   0.830   1.328   4.067  0.0159  0.1957  0.1284
  113SAPE  H14R11800   0.754   1.327   4.146  2.2478 -1.4903  2.4073
  113SAPE  C21511801   0.953   1.365   4.103 -0.1125 -0.9120  0.0839
  113SAPE  H15R11802   0.972   1.387   4.209  0.6353 -0.2675 -0.1736
  113SAPE  C21611803   1.081   1.374   4.029 -0.2332  0.9020  0.1398
  113SAPE  H16R11804   1.122   1.477   4.037  0.4429  0.5185  2.3861
  113SAPE  H16S11805   1.059   1.369   3.921 -1.4904  4.7798  0.0695
  113SAPE  C21711806   1.190   1.276   4.079 -0.0480 -0.2581  0.1964
  113SAPE  H17R11807   1.277   1.288   4.011 -1.2705  0.8027 -1.2444
  113SAPE  H17S11808   1.159   1.170   4.077 -3.1974  0.5236  1.2573
  113SAPE  C21811809   1.232   1.320   4.217 -0.6759 -0.3332 -0.3217
  113SAPE  H18R11810   1.164   1.273   4.292  0.2517 -1.2572 -0.0451
  113SAPE  H18S11811   1.222   1.430   4.232  1.7565 -0.2723  1.3659
  113SAPE  C21911812   1.379   1.292   4.254  0.1392 -0.6971  0.2522
  113SAPE  H19R11813   1.460   1.339   4.194  0.2918 -0.0648  0.9385
  113SAPE  H19S11814   1.391   1.183   4.239 -1.5384 -0.7231 -1.2311
  113SAPE  C22011815   1.417   1.322   4.402 -0.7283 -0.2182  0.6854
  113SAPE  H20R11816   1.369   1.252   4.474  1.3482  2.0537  4.6399
  113SAPE  H20S11817   1.390   1.424   4.437  0.8056  0.5806 -0.3642
  113SAPE  H20T11818   1.526   1.310   4.417 -0.5525  0.8580  0.3333
  113SAPE   C3311819   0.440   0.882   3.062 -0.1504  0.0861  0.1225
  113SAPE   H3X11820   0.381   0.790   3.046  0.2123  0.2712 -2.9350
  113SAPE   H3Y11821   0.374   0.968   3.036 -0.4643  0.1919  1.2449
  113SAPE   C3411822   0.476   0.901   3.208  0.4212  0.0164  1.6626
  113SAPE   H4X11823   0.529   0.999   3.219 -1.7522  1.5898 -0.7247
  113SAPE   H4Y11824   0.543   0.816   3.232  0.5530 -0.5378 -0.4908
  113SAPE   C3511825   0.345   0.907   3.298 -0.3297  0.1225 -0.5809
  113SAPE   H5X11826   0.295   0.809   3.283 -0.2777  0.0055 -0.0285
  113SAPE   H5Y11827   0.268   0.982   3.269  0.3044  0.5307 -1.2445
  113SAPE   C3611828   0.376   0.943   3.451  0.1737  0.3823  0.3941
  113SAPE   H6X11829   0.349   1.048   3.477  0.5476 -0.2075  3.4916
  113SAPE   H6Y11830   0.487   0.937   3.457  0.5675 -0.5394 -4.2027
  113SAPE   C3711831   0.320   0.842   3.547 -0.0894  0.1217  0.2404
  113SAPE   H7X11832   0.352   0.744   3.503  0.9248  0.5951 -0.1258
  113SAPE   H7Y11833   0.210   0.853   3.548  0.0554  2.1160 -0.3332
  113SAPE   C3811834   0.374   0.852   3.688  0.5650  0.1685  0.1666
  113SAPE   H8X11835   0.479   0.818   3.703  0.4130  0.4378  2.0550
  113SAPE   H8Y11836   0.364   0.955   3.727  0.8483  0.4105 -0.3958
  113SAPE   C3911837   0.293   0.753   3.783  0.0612  0.3967  0.4128
  113SAPE   H9X11838   0.307   0.648   3.749 -1.7075  0.5897 -1.0384
  113SAPE   H9Y11839   0.188   0.774   3.756  0.7880  1.1919 -2.1382
  113SAPE  C31011840   0.310   0.778   3.930 -0.0770 -0.2919  0.1395
  113SAPE  H10X11841   0.306   0.884   3.963 -0.8199 -0.8094  1.8323
  113SAPE  H10Y11842   0.414   0.747   3.952 -0.2121 -1.2599 -0.5025
  113SAPE  C31111843   0.206   0.697   4.013 -0.4898  0.1252 -0.2666
  113SAPE  H11X11844   0.206   0.598   3.962 -1.6126  0.3126 -0.6551
  113SAPE  H11Y11845   0.109   0.746   3.994  0.6101  1.1458 -4.4518
  113SAPE  C31211846   0.245   0.677   4.151  0.5260  0.1241  0.2964
  113SAPE  H12X11847   0.204   0.765   4.205 -1.2832 -0.1736 -0.5148
  113SAPE  H12Y11848   0.354   0.659   4.160  0.9549  1.5404 -1.5787
  113SAPE  C31311849   0.163   0.556   4.210  0.1779  0.2609  0.4921
  113SAPE  H13X11850   0.202   0.457   4.179 -1.1053 -1.1631  3.0579
  113SAPE  H13Y11851   0.061   0.571   4.167  0.5058 -0.4652 -0.5954
  113SAPE  C31411852   0.146   0.567   4.361  0.3047 -0.5206  0.5369
  113SAPE  H14X11853   0.055   0.510   4.391  0.1818 -0.7157 -0.1679
  113SAPE  H14Y11854   0.137   0.672   4.396  0.5342 -0.2038 -0.3121
  113SAPE  C31511855   0.270   0.497   4.419  0.5507  0.3056 -0.2939
  113SAPE  H15X11856   0.365   0.547   4.392  0.7875 -0.3166 -0.6200
  113SAPE  H15Y11857   0.275   0.393   4.379 -4.0591  0.8375 -2.9942
  113SAPE  C31611858   0.264   0.494   4.571 -0.0839 -0.4483 -0.3244
  113SAPE  H16X11859   0.176   0.451   4.623  0.6919  0.4816  1.9057
  113SAPE  H16Y11860   0.293   0.597   4.602 -0.1464 -0.0064 -1.6890
  113SAPE  C31711861   0.388   0.412   4.626 -0.1618  0.1141  0.0784
  113SAPE  H17X11862   0.475   0.477   4.602  0.2418 -0.4069  0.1125
  113SAPE  H17Y11863   0.402   0.315   4.574 -2.3823 -1.1293  1.5937
  113SAPE  C31811864   0.381   0.378   4.780  0.6428 -0.4267  0.7393
  113SAPE  H18X11865   0.390   0.475   4.834 -0.5182 -0.5265  1.1336
  113SAPE  H18Y11866   0.464   0.320   4.826  2.1331  3.6389  3.7442
  113SAPE  H18Z11867   0.280   0.343   4.806 -0.5503  2.3846  0.2388
  114SAPE     N11868   4.485   1.946   2.338  0.1941  0.5000  0.0216
  114SAPE   HN111869   4.524   2.016   2.271 -2.5886  2.9801  0.7766
  114SAPE   HN211870   4.552   1.868   2.353  0.3120  0.7241  0.7199
  114SAPE   HN311871   4.407   1.904   2.283 -0.3808 -1.6034  2.2684
  114SAPE   C1211872   4.424   2.007   2.453  0.2745  0.1151 -0.2021
  114SAPE  H12A11873   4.479   2.091   2.501 -1.2158  0.4899  0.9393
  114SAPE  H12B11874   4.413   1.936   2.538  2.4211  0.1072  0.1301
  114SAPE   C1111875   4.290   2.061   2.414  0.1523  0.8426 -0.0481
  114SAPE  H11A11876   4.294   2.143   2.339 -1.8446 -0.5839 -1.8271
  114SAPE  H11B11877   4.233   2.115   2.492  0.3195 -0.3119  0.8998
  114SAPE     P11878   4.084   1.897   2.434 -0.1989  0.5307  0.3256
  114SAPE   O1311879   4.000   2.000   2.494  0.3427  0.1447  0.0587
  114SAPE   O1411880   4.025   1.797   2.341  0.1801 -0.4173 -0.4404
  114SAPE   O1211881   4.208   1.957   2.358  0.3609 -0.8779 -0.4765
  114SAPE   O1111882   4.156   1.823   2.552  0.3531  0.6325  0.2564
  114SAPE    C111883   4.092   1.802   2.679 -0.2113 -0.4105  0.8060
  114SAPE    HA11884   4.006   1.869   2.703  0.3492  0.8753 -0.5837
  114SAPE    HB11885   4.051   1.699   2.678  2.0533 -1.4186 -2.0716
  114SAPE    C211886   4.190   1.829   2.792  0.5905 -0.2902 -0.0310
  114SAPE    HS11887   4.218   1.935   2.775 -1.8717  0.2690 -0.9979
  114SAPE   O2111888   4.301   1.732   2.774 -0.2861  0.1677  0.0650
  114SAPE   C2111889   4.420   1.777   2.812  0.6835 -0.4115  0.4977
  114SAPE   O2211890   4.460   1.893   2.814 -0.1535 -0.7794 -0.0302
  114SAPE   C2211891   4.503   1.653   2.853  0.0876 -0.1044 -0.1646
  114SAPE   H2R11892   4.509   1.585   2.765  3.2488  0.1060 -0.2299
  114SAPE   H2S11893   4.603   1.693   2.878 -0.0530 -1.3821  2.8651
  114SAPE    C311894   4.106   1.820   2.927  0.0881  0.1753 -0.1255
  114SAPE    HX11895   4.055   1.721   2.930  1.6791 -0.6548  1.7800
  114SAPE    HY11896   4.028   1.898   2.914  0.4255  0.6284  0.5174
  114SAPE   O3111897   4.188   1.831   3.050  0.2905  0.3921 -0.2794
  114SAPE   C3111898   4.206   1.964   3.087 -0.2573  0.7753 -0.4545
  114SAPE   O3211899   4.140   2.054   3.039 -0.0487 -0.1829  0.7354
  114SAPE   C3211900   4.311   1.977   3.195 -0.1935  0.4946  0.5180
  114SAPE   H2X11901   4.410   1.958   3.148 -1.2413  0.4185 -1.7546
  114SAPE   H2Y11902   4.284   1.907   3.277  0.3598 -1.2781 -0.7555
  114SAPE   C2311903   4.433   1.581   2.971 -0.1381  1.1586 -0.4605
  114SAPE   H3R11904   4.488   1.485   2.981 -0.8131  0.9640  1.8728
  114SAPE   H3S11905   4.327   1.561   2.944  0.4468 -0.0197 -2.0893
  114SAPE   C2411906   4.456   1.652   3.102 -0.2803 -0.6747 -0.0019
  114SAPE   H4R11907   4.386   1.597   3.168 -1.6217 -0.3110 -1.0809
  114SAPE   H4S11908   4.417   1.755   3.088  0.6448 -0.4712 -1.3303
  114SAPE   C2511909   4.597   1.656   3.152 -0.9332  0.0650  0.0888
  114SAPE   H5R11910   4.642   1.756   3.158 -0.6820 -0.0976  1.0331
  114SAPE   C2611911   4.649   1.564   3.238  0.0954 -1.0038 -0.6522
  114SAPE   H6R11912   4.754   1.578   3.268 -0.4128  0.1141  0.7278
  114SAPE   C2711913   4.601   1.426   3.279  0.0222 -0.8799 -0.2631
  114SAPE   H7R11914   4.640   1.352   3.205 -1.5206 -2.7098  0.6484
  114SAPE   H7S11915   4.491   1.423   3.270  0.0213 -0.4562 -0.3977
  114SAPE   C2811916   4.658   1.381   3.414 -0.5298  0.1719 -0.0730
  114SAPE   H8R11917   4.750   1.321   3.406  0.1155  1.1891 -0.4073
  114SAPE   C2911918   4.608   1.408   3.535 -0.9916  0.4446  0.2855
  114SAPE   H9R11919   4.661   1.350   3.613  0.3795 -3.4385 -3.1851
  114SAPE  C21011920   4.482   1.481   3.564  0.3167  0.3887 -0.4663
  114SAPE  H10R11921   4.405   1.408   3.599 -0.1994 -0.2083 -2.6610
  114SAPE  H10S11922   4.449   1.529   3.470  1.0196 -0.9783 -1.4495
  114SAPE  C21111923   4.495   1.594   3.659 -0.0564 -0.4278  0.0997
  114SAPE  H11R11924   4.550   1.681   3.620  1.1191 -1.4409 -0.5941
  114SAPE  C21211925   4.432   1.602   3.780  0.4207  0.4917  0.0383
  114SAPE  H12R11926   4.450   1.691   3.842 -1.1930  1.4421 -0.8012
  114SAPE  C21311927   4.326   1.496   3.826 -1.0738  0.0628  0.6328
  114SAPE  H13R11928   4.259   1.462   3.744  0.5693 -2.2543  0.1517
  114SAPE  H13S11929   4.254   1.539   3.899 -1.1804  1.2084 -0.1204
  114SAPE  C21411930   4.396   1.371   3.871 -0.7842  0.2614 -1.1189
  114SAPE  H14R11931   4.437   1.299   3.799 -1.7064  1.4061 -2.9045
  114SAPE  C21511932   4.428   1.347   3.995 -0.4008  0.5063 -0.1804
  114SAPE  H15R11933   4.502   1.268   4.014 -1.5619 -1.3701 -2.9407
  114SAPE  C21611934   4.405   1.438   4.108 -0.0472 -0.1953 -0.0979
  114SAPE  H16R11935   4.393   1.544   4.077 -0.5579 -0.9099 -2.5322
  114SAPE  H16S11936   4.490   1.426   4.180 -0.1564  0.1551  0.0915
  114SAPE  C21711937   4.272   1.387   4.170 -0.4139  0.1482 -0.2913
  114SAPE  H17R11938   4.265   1.293   4.229  0.7340  0.5943  0.6091
  114SAPE  H17S11939   4.187   1.386   4.099 -1.2081  0.0281  0.6485
  114SAPE  C21811940   4.217   1.495   4.264  0.4096  0.3523 -0.1561
  114SAPE  H18R11941   4.177   1.577   4.200 -2.3907  1.9792  3.3249
  114SAPE  H18S11942   4.302   1.524   4.330 -0.6504  2.9523  0.1584
  114SAPE  C21911943   4.098   1.450   4.350 -0.0371 -0.3472  0.0756
  114SAPE  H19R11944   4.119   1.352   4.398 -1.8827 -0.8770 -0.1228
  114SAPE  H19S11945   4.011   1.447   4.282  0.4441 -0.3216 -0.5474
  114SAPE  C22011946   4.063   1.552   4.462  0.0337 -0.3931  0.2726
  114SAPE  H20R11947   4.065   1.657   4.425  1.6839  0.2612  2.0050
  114SAPE  H20S11948   4.122   1.551   4.557 -0.0808 -0.5299  0.3418
  114SAPE  H20T11949   3.957   1.537   4.491 -0.5999  1.7722 -0.6529
  114SAPE   C3311950   4.312   2.130   3.250  0.0746  0.0270  0.0296
  114SAPE   H3X11951   4.330   2.200   3.166 -1.3859 -1.5271 -1.6803
  114SAPE   H3Y11952   4.398   2.141   3.320  1.0200  1.4571 -1.2803
  114SAPE   C3411953   4.181   2.175   3.327  0.1837 -0.5480 -0.1759
  114SAPE   H4X11954   4.145   2.093   3.393 -0.5381 -1.3152 -1.4737
  114SAPE   H4Y11955   4.099   2.210   3.261  0.7481  1.2833  0.0282
  114SAPE   C3511956   4.218   2.288   3.423  0.1621 -0.6315 -0.5451
  114SAPE   H5X11957   4.248   2.376   3.363 -2.8996 -0.3481 -1.8293
  114SAPE   H5Y11958   4.306   2.255   3.482  1.5607  1.5335 -1.3229
  114SAPE   C3611959   4.107   2.335   3.518  0.2029  0.2283  0.6582
  114SAPE   H6X11960   4.062   2.244   3.564  1.4347  0.4583  2.4565
  114SAPE   H6Y11961   4.026   2.386   3.461  1.0544 -0.3004 -1.0770
  114SAPE   C3711962   4.147   2.430   3.636 -0.9793  0.2436 -0.4014
  114SAPE   H7X11963   4.125   2.537   3.615 -0.1071  0.1589 -1.9150
  114SAPE   H7Y11964   4.258   2.422   3.639 -0.9619 -1.0026 -2.3797
  114SAPE   C3811965   4.087   2.392   3.772 -0.4085  0.2675 -0.3876
  114SAPE   H8X11966   4.124   2.459   3.853 -1.0252 -0.5088  0.5784
  114SAPE   H8Y11967   4.112   2.289   3.805 -1.4571  0.0726 -0.1492
  114SAPE   C3911968   3.933   2.409   3.773  0.3563 -0.4220  0.5376
  114SAPE   H9X11969   3.894   2.354   3.684 -1.3362  0.4366  0.7024
  114SAPE   H9Y11970   3.917   2.516   3.746  0.5140 -0.8112 -1.2348
  114SAPE  C31011971   3.877   2.367   3.904 -0.0885  0.3631  0.4945
  114SAPE  H10X11972   3.941   2.417   3.979  0.8151 -0.2881  0.1737
  114SAPE  H10Y11973   3.890   2.257   3.906 -3.6848 -0.3019 -1.8587
  114SAPE  C31111974   3.731   2.397   3.930 -0.0505 -0.6120 -0.6079
  114SAPE  H11X11975   3.664   2.375   3.845 -0.2322  2.3068 -1.3359
  114SAPE  H11Y11976   3.722   2.508   3.930  2.5062 -0.2500 -3.8954
  114SAPE  C31211977   3.686   2.335   4.062 -0.1674 -0.6206 -0.3867
  114SAPE  H12X11978   3.744   2.385   4.142 -0.2487  1.8689 -1.7895
  114SAPE  H12Y11979   3.700   2.225   4.074 -1.7023 -0.7715  0.3262
  114SAPE  C31311980   3.538   2.367   4.094 -0.5672 -0.4185  0.0261
  114SAPE  H13X11981   3.513   2.311   4.186  0.8165  0.7788  1.1858
  114SAPE  H13Y11982   3.492   2.331   3.999  1.1600  0.3875 -1.1755
  114SAPE  C31411983   3.512   2.521   4.111  0.1074 -0.7126 -0.1371
  114SAPE  H14X11984   3.529   2.580   4.018 -1.7718  1.9728  1.1079
  114SAPE  H14Y11985   3.586   2.564   4.181 -0.4155 -0.0495  0.0259
  114SAPE  C31511986   3.369   2.561   4.156 -0.0028  0.1254 -0.2965
  114SAPE  H15X11987   3.364   2.661   4.205 -0.7226  0.4126 -0.9347
  114SAPE  H15Y11988   3.331   2.488   4.231  2.8331 -0.8411  0.2979
  114SAPE  C31611989   3.284   2.586   4.027  0.5627 -0.8137 -0.1753
  114SAPE  H16X11990   3.288   2.493   3.967 -0.4898  1.1375 -3.5667
  114SAPE  H16Y11991   3.322   2.675   3.972  3.0999 -1.6029  0.1660
  114SAPE  C31711992   3.138   2.606   4.063 -0.1730  0.7882 -0.1706
  114SAPE  H17X11993   3.098   2.512   4.109  0.8380  0.3391 -0.1958
  114SAPE  H17Y11994   3.076   2.613   3.971  0.1627  1.1439 -0.3724
  114SAPE  C31811995   3.106   2.723   4.155 -0.0298  0.5182 -0.3308
  114SAPE  H18X11996   3.168   2.741   4.245  0.0795 -1.4894  0.0417
  114SAPE  H18Y11997   3.004   2.706   4.196  0.1829 -0.1998 -0.0769
  114SAPE  H18Z11998   3.098   2.818   4.099 -1.7636  0.9572  0.6004
  115SAPE     N11999   1.707   3.577   2.265 -0.5048  0.3777  0.6024
  115SAPE   HN112000   1.774   3.573   2.344 -0.9276 -4.1549  1.0204
  115SAPE   HN212001   1.613   3.615   2.288  0.0917  1.9206  0.5942
  115SAPE   HN312002   1.688   3.480   2.230 -1.0017  1.2171 -1.6369
  115SAPE   C1212003   1.770   3.649   2.149  0.1206 -0.1228 -0.2697
  115SAPE  H12A12004   1.685   3.666   2.080 -0.3473  1.0925  0.5604
  115SAPE  H12B12005   1.850   3.587   2.103 -0.4938  0.6372 -2.4996
  115SAPE   C1112006   1.812   3.792   2.193 -0.1381  0.2137 -0.0357
  115SAPE  H11A12007   1.728   3.834   2.253  1.2236  1.4683  1.0855
  115SAPE  H11B12008   1.816   3.856   2.103 -1.1605  0.7151  0.2574
  115SAPE     P12009   2.074   3.854   2.230 -0.1960  0.5473 -0.0457
  115SAPE   O1312010   2.133   3.758   2.133  0.3034 -0.6890  0.3492
  115SAPE   O1412011   2.067   3.997   2.194 -0.0294  0.6197 -0.3280
  115SAPE   O1212012   1.930   3.793   2.267 -0.1603 -0.4157  0.0498
  115SAPE   O1112013   2.158   3.843   2.363  0.1995 -0.0776 -0.0512
  115SAPE    C112014   2.209   3.711   2.403 -0.1524 -0.2242 -0.4543
  115SAPE    HA12015   2.138   3.631   2.373  0.9528 -2.2841  2.0464
  115SAPE    HB12016   2.307   3.701   2.352  0.2188  0.8218  0.0275
  115SAPE    C212017   2.235   3.706   2.561 -0.2231  0.5241  0.1456
  115SAPE    HS12018   2.269   3.808   2.587 -2.9447  1.6053 -0.1866
  115SAPE   O2112019   2.338   3.602   2.580  0.1320 -0.2106  0.7433
  115SAPE   C2112020   2.429   3.616   2.676 -0.0324 -0.0231  0.2428
  115SAPE   O2212021   2.460   3.721   2.730 -0.7325  0.3278  0.0304
  115SAPE   C2212022   2.474   3.474   2.719 -1.2815  0.1843  0.2595
  115SAPE   H2R12023   2.389   3.404   2.733  0.8638 -2.3169  1.8048
  115SAPE   H2S12024   2.536   3.420   2.644 -1.0673 -1.4681  1.5679
  115SAPE    C312025   2.113   3.669   2.640  0.4519  0.1801 -0.4982
  115SAPE    HX12026   2.073   3.571   2.607  0.9611  0.2177 -1.2352
  115SAPE    HY12027   2.044   3.751   2.610 -1.0480 -0.9274 -0.2304
  115SAPE   O3112028   2.131   3.682   2.786 -0.5002  0.2266  0.0936
  115SAPE   C3112029   2.088   3.781   2.858 -0.5341  0.4165  0.0811
  115SAPE   O3212030   2.021   3.875   2.823  0.2283  0.6321 -0.3079
  115SAPE   C3212031   2.145   3.755   2.996 -0.0929 -0.5373 -0.0385
  115SAPE   H2X12032   2.148   3.649   3.028 -0.2122  0.2634  2.8499
  115SAPE   H2Y12033   2.068   3.795   3.066 -0.8701 -3.4677  0.9053
  115SAPE   C2312034   2.550   3.486   2.857  0.7013 -0.2327  0.3726
  115SAPE   H3R12035   2.494   3.543   2.934 -1.8184 -1.2102 -0.6190
  115SAPE   H3S12036   2.636   3.555   2.851  0.6052 -0.1266  0.2157
  115SAPE   C2412037   2.587   3.342   2.912  0.5644  0.0718  0.5440
  115SAPE   H4R12038   2.650   3.361   3.001  1.2994 -0.3406  0.1294
  115SAPE   H4S12039   2.646   3.284   2.837  0.3636  0.0321  0.4138
  115SAPE   C2512040   2.467   3.253   2.938 -0.0321  0.2373  0.2019
  115SAPE   H5R12041   2.436   3.197   2.848  1.3845  2.1653 -1.6063
  115SAPE   C2612042   2.398   3.237   3.045 -0.3879 -0.6217  0.0046
  115SAPE   H6R12043   2.334   3.148   3.055 -0.7867 -0.4461 -0.9969
  115SAPE   C2712044   2.401   3.315   3.173 -0.3098  0.0863 -0.1290
  115SAPE   H7R12045   2.298   3.322   3.213  0.3157  1.5079  1.3439
  115SAPE   H7S12046   2.422   3.421   3.149 -2.2776 -0.0855 -3.1826
  115SAPE   C2812047   2.493   3.269   3.279 -0.0790  0.0793 -0.1499
  115SAPE   H8R12048   2.594   3.231   3.257 -0.4498 -1.3462  0.5148
  115SAPE   C2912049   2.467   3.272   3.410 -0.2933 -0.1485 -0.5839
  115SAPE   H9R12050   2.547   3.246   3.480  0.6388 -0.4039 -1.7028
  115SAPE  C21012051   2.340   3.309   3.483 -0.5060  0.1915 -0.3485
  115SAPE  H10R12052   2.268   3.372   3.426  1.6574  2.3216 -0.8799
  115SAPE  H10S12053   2.373   3.357   3.578  0.8355 -0.9705 -0.2086
  115SAPE  C21112054   2.271   3.183   3.531  0.4471 -0.0116  0.0088
  115SAPE  H11R12055   2.313   3.088   3.492 -1.7573 -1.4308  0.9211
  115SAPE  C21212056   2.167   3.177   3.607  0.3418  0.3649 -0.3895
  115SAPE  H12R12057   2.126   3.079   3.636  0.3155  0.7025  0.7646
  115SAPE  C21312058   2.078   3.284   3.676 -0.9769  0.2833 -0.1053
  115SAPE  H13R12059   1.974   3.282   3.638 -1.1467  5.5628 -0.6004
  115SAPE  H13S12060   2.109   3.389   3.655 -2.3777  1.4724  3.0855
  115SAPE  C21412061   2.096   3.277   3.823  0.3643 -0.1565  0.8988
  115SAPE  H14R12062   2.201   3.264   3.853  1.6357  1.5822 -2.3417
  115SAPE  C21512063   1.995   3.296   3.910  0.7531  0.2261 -0.2170
  115SAPE  H15R12064   2.024   3.292   4.017  0.0445  0.5461 -0.0080
  115SAPE  C21612065   1.848   3.317   3.895 -0.3122 -0.1974  0.8128
  115SAPE  H16R12066   1.833   3.384   3.808  0.4234  0.4741  1.1934
  115SAPE  H16S12067   1.816   3.369   3.987  0.9484  1.3349  0.4266
  115SAPE  C21712068   1.768   3.188   3.878 -0.0706  0.2799  0.4861
  115SAPE  H17R12069   1.819   3.126   3.801  4.4364  3.4337  0.5159
  115SAPE  H17S12070   1.666   3.209   3.840  0.5412  1.7120 -0.4862
  115SAPE  C21812071   1.768   3.111   4.007 -0.3083  0.5575 -0.0074
  115SAPE  H18R12072   1.727   3.170   4.091 -0.3726 -0.8642  1.0021
  115SAPE  H18S12073   1.871   3.085   4.040  1.1291  3.7354 -1.5206
  115SAPE  C21912074   1.693   2.975   4.003  0.4318  0.4230  0.8663
  115SAPE  H19R12075   1.720   2.913   3.915  3.4123  0.7330  1.4800
  115SAPE  H19S12076   1.585   3.002   3.992  0.2536 -0.2525  0.9091
  115SAPE  C22012077   1.703   2.892   4.133  0.4425 -0.5257  0.1252
  115SAPE  H20R12078   1.806   2.850   4.139  0.8437  0.6056  1.8069
  115SAPE  H20S12079   1.629   2.813   4.111  0.1387  0.2570 -1.7989
  115SAPE  H20T12080   1.674   2.945   4.226  0.4783  0.2951 -0.3197
  115SAPE   C3312081   2.289   3.808   3.037 -0.0377 -0.8488  0.1238
  115SAPE   H3X12082   2.288   3.919   3.039  2.7966 -0.7579  0.0294
  115SAPE   H3Y12083   2.359   3.780   2.955  1.7317  0.9342  0.9510
  115SAPE   C3412084   2.355   3.756   3.165 -0.4070  0.1693  0.5253
  115SAPE   H4X12085   2.462   3.786   3.164  0.2519 -1.8990  2.2216
  115SAPE   H4Y12086   2.345   3.645   3.161 -0.2128  0.1411  0.7688
  115SAPE   C3512087   2.282   3.803   3.298 -0.2461 -0.1709  0.5936
  115SAPE   H5X12088   2.179   3.761   3.302 -1.5544  2.8370  2.2564
  115SAPE   H5Y12089   2.275   3.914   3.298 -0.9033 -0.1468 -1.8543
  115SAPE   C3612090   2.344   3.767   3.427 -0.2091  0.0753 -0.5957
  115SAPE   H6X12091   2.371   3.659   3.428 -0.5230 -0.0066 -0.8479
  115SAPE   H6Y12092   2.269   3.783   3.508  2.4775  0.3276  2.0070
  115SAPE   C3712093   2.461   3.866   3.469 -0.1863  0.0082 -0.3953
  115SAPE   H7X12094   2.438   3.974   3.476  1.5383  0.3265  0.8805
  115SAPE   H7Y12095   2.547   3.859   3.400 -0.7827 -0.0020 -1.1557
  115SAPE   C3812096   2.507   3.839   3.611  0.0737 -0.6578 -0.1885
  115SAPE   H8X12097   2.526   3.731   3.629  0.3861 -0.7345 -0.9360
  115SAPE   H8Y12098   2.415   3.875   3.662 -0.5640 -0.1200 -1.6789
  115SAPE   C3912099   2.632   3.912   3.664 -0.0901  0.4493 -0.6058
  115SAPE   H9X12100   2.615   4.021   3.648 -1.4727  0.3299 -0.0910
  115SAPE   H9Y12101   2.711   3.885   3.591  0.3920 -0.8891  0.3774
  115SAPE  C31012102   2.683   3.893   3.807 -0.4113  0.4739  0.0486
  115SAPE  H10X12103   2.779   3.948   3.803  0.2197 -0.6539 -1.7960
  115SAPE  H10Y12104   2.706   3.785   3.819  2.6922  0.7546 -2.0313
  115SAPE  C31112105   2.598   3.944   3.920 -0.1662 -0.4793 -0.1913
  115SAPE  H11X12106   2.496   3.899   3.920  1.0160 -3.3410 -0.3509
  115SAPE  H11Y12107   2.585   4.050   3.890  1.2069 -0.7114 -1.7904
  115SAPE  C31212108   2.664   3.951   4.054 -0.2024 -0.1518  0.0498
  115SAPE  H12X12109   2.758   4.010   4.049  0.4054 -1.0736  0.2347
  115SAPE  H12Y12110   2.690   3.847   4.085  1.5843  0.0076 -0.7587
  115SAPE  C31312111   2.584   4.011   4.169 -0.3596  0.5197  0.3893
  115SAPE  H13X12112   2.476   3.985   4.156 -0.5718  1.2898  0.5759
  115SAPE  H13Y12113   2.587   4.122   4.176  0.0349  0.5267  0.1540
  115SAPE  C31412114   2.641   3.961   4.302 -0.1186  0.1522  0.3545
  115SAPE  H14X12115   2.752   3.966   4.296 -0.0423  0.5417  1.8140
  115SAPE  H14Y12116   2.636   3.850   4.300  1.2723  0.0750 -0.1670
  115SAPE  C31512117   2.594   4.024   4.434 -0.1079  0.0507 -0.1115
  115SAPE  H15X12118   2.637   3.968   4.520 -0.3225  1.0712  0.6776
  115SAPE  H15Y12119   2.484   4.010   4.437  0.0316 -0.8784  1.8291
  115SAPE  C31612120   2.643   4.169   4.467  0.2699 -0.2657 -0.2321
  115SAPE  H16X12121   2.607   4.245   4.394  0.0195 -0.5633 -0.4208
  115SAPE  H16Y12122   2.753   4.168   4.452  0.0619  0.1359 -2.0272
  115SAPE  C31712123   2.627   4.199   4.616 -0.2436 -0.1879  0.7064
  115SAPE  H17X12124   2.710   4.265   4.647  0.6477 -0.9885  0.0867
  115SAPE  H17Y12125   2.652   4.110   4.679  3.1559  1.1745  1.4535
  115SAPE  C31812126   2.494   4.268   4.653  0.1077  0.0696 -1.0028
  115SAPE  H18X12127   2.412   4.221   4.594 -1.2761  0.8117  0.2875
  115SAPE  H18Y12128   2.496   4.375   4.622 -2.4765  0.8899  1.3271
  115SAPE  H18Z12129   2.475   4.255   4.761  1.1114 -2.1915 -1.0486
  116SAPE     N12130   2.439   5.228   2.244 -0.1564 -0.2853  0.0804
  116SAPE   HN112131   2.342   5.196   2.263 -0.4190  0.2750 -0.2615
  116SAPE   HN212132   2.452   5.306   2.312  1.2363 -1.4183  1.1549
  116SAPE   HN312133   2.447   5.253   2.143  0.7806 -0.9192 -0.0067
  116SAPE   C1212134   2.540   5.126   2.276  0.1785 -0.1946  0.8553
  116SAPE  H12A12135   2.637   5.177   2.262  0.3447 -0.7152  0.0814
  116SAPE  H12B12136   2.533   5.054   2.192  2.1934  0.3479  0.1755
  116SAPE   C1112137   2.517   5.073   2.417  0.0252 -0.3162 -0.5324
  116SAPE  H11A12138   2.410   5.042   2.422 -0.1235  0.0886 -1.2075
  116SAPE  H11B12139   2.519   5.158   2.489  0.4960 -2.7845  2.6445
  116SAPE     P12140   2.744   4.993   2.488 -0.1601  0.4995  0.1224
  116SAPE   O1312141   2.834   4.896   2.429  0.1044  0.9391  0.5621
  116SAPE   O1412142   2.775   5.139   2.465 -0.1790  0.4837 -0.0110
  116SAPE   O1212143   2.595   4.962   2.442  0.4447  0.3113 -1.0193
  116SAPE   O1112144   2.749   4.967   2.639 -0.4470  0.3638  0.1160
  116SAPE    C112145   2.630   4.975   2.714 -0.9315  0.3785  0.2310
  116SAPE    HA12146   2.607   5.084   2.710  4.1426  1.7244  0.6279
  116SAPE    HB12147   2.551   4.903   2.683  0.2978 -1.7725  1.8403
  116SAPE    C212148   2.653   4.924   2.863  0.4669 -1.0609  0.3927
  116SAPE    HS12149   2.580   4.981   2.923  1.9001  1.8633 -0.4532
  116SAPE   O2112150   2.782   4.951   2.917 -0.2044  0.7339 -0.2415
  116SAPE   C2112151   2.836   5.067   2.904  0.2819 -0.1529  0.2182
  116SAPE   O2212152   2.775   5.167   2.861  0.3167  0.4573 -0.0304
  116SAPE   C2212153   2.983   5.057   2.943 -0.4730 -0.9042  0.3224
  116SAPE   H2R12154   3.037   5.016   2.854 -0.8850 -0.5467 -0.0919
  116SAPE   H2S12155   3.021   5.160   2.961  0.5484 -1.3970  1.0934
  116SAPE    C312156   2.617   4.781   2.873  0.5765  1.2112  0.2998
  116SAPE    HX12157   2.669   4.725   2.793 -1.4707 -0.9777  0.4062
  116SAPE    HY12158   2.513   4.755   2.845  1.0530  1.4340 -1.8380
  116SAPE   O3112159   2.658   4.723   2.998 -0.2493  0.0727  0.4386
  116SAPE   C3112160   2.564   4.742   3.086  0.0777 -1.1980  0.1995
  116SAPE   O3212161   2.467   4.814   3.069 -0.1041 -0.6974  0.2610
  116SAPE   C3212162   2.581   4.668   3.219 -0.6483  0.2793  0.6331
  116SAPE   H2X12163   2.686   4.639   3.243 -1.4491 -2.7215  0.9357
  116SAPE   H2Y12164   2.514   4.580   3.220 -0.7607  0.3223 -0.8501
  116SAPE   C2312165   3.020   4.952   3.053 -0.3519  0.4096 -0.3338
  116SAPE   H3R12166   3.131   4.958   3.064 -0.6011  0.8291  2.6425
  116SAPE   H3S12167   3.001   4.846   3.027  0.1387 -0.0298  1.0453
  116SAPE   C2412168   2.956   4.976   3.194 -0.2741 -0.3597  0.8924
  116SAPE   H4R12169   2.992   4.898   3.264  0.5505  1.1377  2.1955
  116SAPE   H4S12170   2.849   4.949   3.178  0.0447 -1.2998  0.2799
  116SAPE   C2512171   2.981   5.111   3.260  0.2036  0.2659 -0.3069
  116SAPE   H5R12172   3.073   5.153   3.216  1.3786 -1.9069 -0.0438
  116SAPE   C2612173   2.894   5.194   3.327 -0.0924  0.2521 -0.0262
  116SAPE   H6R12174   2.940   5.288   3.360 -2.4206  1.9483 -1.3660
  116SAPE   C2712175   2.760   5.158   3.366  0.2191 -0.7336 -0.6203
  116SAPE   H7R12176   2.755   5.170   3.476  1.8072  3.0867 -0.8092
  116SAPE   H7S12177   2.733   5.051   3.349  3.4830 -1.8367  0.3692
  116SAPE   C2812178   2.660   5.252   3.306 -0.1344  0.0979  0.1052
  116SAPE   H8R12179   2.619   5.217   3.210  0.5874  0.6796 -0.4311
  116SAPE   C2912180   2.609   5.365   3.355 -0.3278  0.2346  0.1472
  116SAPE   H9R12181   2.542   5.421   3.288 -2.1347 -0.9409  0.8745
  116SAPE  C21012182   2.637   5.430   3.488 -0.2181  0.1343  0.1989
  116SAPE  H10R12183   2.653   5.355   3.569 -0.1510 -0.0804 -0.0090
  116SAPE  H10S12184   2.556   5.497   3.523  1.5281  1.7010  1.4084
  116SAPE  C21112185   2.754   5.527   3.489 -0.3595  0.2140 -0.2474
  116SAPE  H11R12186   2.846   5.489   3.443 -1.4619  0.2275 -2.6207
  116SAPE  C21212187   2.752   5.652   3.536 -0.0718 -0.2969 -0.6310
  116SAPE  H12R12188   2.844   5.710   3.522 -0.0302  0.2313  1.4367
  116SAPE  C21312189   2.642   5.713   3.606 -0.2219 -0.2957 -1.1379
  116SAPE  H13R12190   2.555   5.693   3.541 -0.1310 -2.6593 -0.6022
  116SAPE  H13S12191   2.664   5.822   3.612  0.7423 -0.4349 -1.9118
  116SAPE  C21412192   2.614   5.655   3.747 -0.0481  0.3288  0.4368
  116SAPE  H14R12193   2.576   5.552   3.752 -1.4133  0.6689 -1.7998
  116SAPE  C21512194   2.636   5.716   3.866 -0.5430 -0.0259  0.1457
  116SAPE  H15R12195   2.611   5.659   3.956  0.4062  0.0539  0.4708
  116SAPE  C21612196   2.682   5.859   3.886  0.2376  0.1338 -0.2218
  116SAPE  H16R12197   2.649   5.923   3.801  3.8271  1.6208 -0.6453
  116SAPE  H16S12198   2.792   5.866   3.890  0.3946 -1.9088  0.3169
  116SAPE  C21712199   2.621   5.926   4.015  0.6613  0.4629  0.2221
  116SAPE  H17R12200   2.510   5.918   4.011  0.5511  1.7750 -3.3853
  116SAPE  H17S12201   2.643   6.035   4.025  0.2471  0.6514 -0.7802
  116SAPE  C21812202   2.670   5.867   4.150  0.6349  0.3122  0.4375
  116SAPE  H18R12203   2.621   5.772   4.180  0.5813  0.8871  2.3344
  116SAPE  H18S12204   2.630   5.932   4.230 -3.0053 -0.9142 -0.2347
  116SAPE  C21912205   2.830   5.855   4.165  0.1727  0.4884 -0.2492
  116SAPE  H19R12206   2.879   5.952   4.144  1.6237  0.1585  1.3364
  116SAPE  H19S12207   2.864   5.788   4.083 -2.9752  0.2506 -1.4923
  116SAPE  C22012208   2.876   5.788   4.299  0.1369 -0.2753 -0.3494
  116SAPE  H20R12209   2.849   5.843   4.392 -0.7028 -0.0785 -0.7007
  116SAPE  H20S12210   2.987   5.794   4.303  0.0965 -0.0008  1.9700
  116SAPE  H20T12211   2.844   5.682   4.303  0.3408 -0.4128 -1.8782
  116SAPE   C3312212   2.543   4.759   3.326  0.8603  0.2391  0.2895
  116SAPE   H3X12213   2.433   4.767   3.316  0.9717 -0.3557 -2.0378
  116SAPE   H3Y12214   2.586   4.861   3.319  1.2867 -0.0045 -0.8980
  116SAPE   C3412215   2.583   4.693   3.461 -0.2219  0.2775 -0.5280
  116SAPE   H4X12216   2.691   4.687   3.486 -0.9561  1.0156  3.4429
  116SAPE   H4Y12217   2.535   4.595   3.478  0.9811 -0.2879 -0.3135
  116SAPE   C3512218   2.520   4.780   3.579 -0.1047  0.2457 -0.2167
  116SAPE   H5X12219   2.542   4.724   3.673  3.0143  1.8009  0.1150
  116SAPE   H5Y12220   2.411   4.775   3.560 -0.3821 -0.4454  1.4074
  116SAPE   C3612221   2.573   4.927   3.591 -0.4622 -0.3129  0.3128
  116SAPE   H6X12222   2.526   4.995   3.517 -1.9859  2.3939  3.4698
  116SAPE   H6Y12223   2.679   4.917   3.560 -1.0510 -1.9475 -1.3674
  116SAPE   C3712224   2.568   4.995   3.734 -0.4995  0.7537 -0.0419
  116SAPE   H7X12225   2.662   5.054   3.741  3.2382 -4.0448 -3.0374
  116SAPE   H7Y12226   2.572   4.911   3.806 -1.3382 -0.0713 -0.9380
  116SAPE   C3812227   2.441   5.072   3.754 -0.4791 -0.4746  0.0141
  116SAPE   H8X12228   2.350   5.009   3.752 -1.2755  0.6837 -0.8653
  116SAPE   H8Y12229   2.435   5.155   3.680 -2.9046  0.9842  1.7001
  116SAPE   C3912230   2.440   5.134   3.898 -0.4604 -0.2821 -0.3102
  116SAPE   H9X12231   2.348   5.196   3.893 -1.0786 -1.2014 -0.6105
  116SAPE   H9Y12232   2.522   5.208   3.913 -0.9521  0.1733  0.2147
  116SAPE  C31012233   2.435   5.041   4.019 -0.4759  0.0870  0.2850
  116SAPE  H10X12234   2.541   5.015   4.040  0.1665  1.5116 -1.0436
  116SAPE  H10Y12235   2.386   4.944   3.995 -2.0451  0.5927  1.2848
  116SAPE  C31112236   2.389   5.089   4.152  0.7110 -0.7619 -0.3625
  116SAPE  H11X12237   2.401   5.199   4.162  1.1907 -0.7371 -1.1078
  116SAPE  H11Y12238   2.455   5.051   4.232  1.2794  0.0863 -0.4212
  116SAPE  C31212239   2.239   5.047   4.183 -0.1649 -0.4297  0.3734
  116SAPE  H12X12240   2.244   4.936   4.185 -2.0836 -0.6108 -1.3074
  116SAPE  H12Y12241   2.178   5.070   4.093  1.8343 -1.7661 -1.4089
  116SAPE  C31312242   2.194   5.099   4.321  0.1382 -0.0439 -0.5283
  116SAPE  H13X12243   2.272   5.077   4.396  0.7656  1.6435 -0.6463
  116SAPE  H13Y12244   2.098   5.050   4.348  0.1887 -0.2016 -0.6369
  116SAPE  C31412245   2.168   5.254   4.311 -0.0129  0.1753  0.3000
  116SAPE  H14X12246   2.074   5.274   4.255 -1.7546  0.9262  3.2615
  116SAPE  H14Y12247   2.249   5.301   4.252  0.0198  1.6524  1.4434
  116SAPE  C31512248   2.136   5.320   4.443  0.6742 -0.5392 -0.3940
  116SAPE  H15X12249   2.232   5.345   4.493  0.2127 -1.7332  1.1921
  116SAPE  H15Y12250   2.089   5.252   4.517  0.9945 -1.6370 -1.1744
  116SAPE  C31612251   2.050   5.453   4.435  0.3183 -0.1861 -0.0857
  116SAPE  H16X12252   1.950   5.425   4.396 -0.3737  0.2152  1.3251
  116SAPE  H16Y12253   2.100   5.525   4.367 -0.8515  4.0955  3.1832
  116SAPE  C31712254   2.047   5.527   4.576 -0.1212  0.4791  1.0040
  116SAPE  H17X12255   2.146   5.573   4.597 -0.1748  1.1087 -0.0550
  116SAPE  H17Y12256   2.053   5.445   4.651  1.5389 -0.6370 -0.2726
  116SAPE  C31812257   1.939   5.630   4.589  0.6133  0.0066  0.0995
  116SAPE  H18X12258   1.844   5.574   4.576  1.4180 -2.1957  2.7805
  116SAPE  H18Y12259   1.934   5.711   4.513 -2.5547  0.0478  0.2023
  116SAPE  H18Z12260   1.941   5.685   4.685 -0.2646  0.1430  0.0509
  117SOPE     N12261   2.424   1.230   6.298  0.9300 -0.6982  0.2548
  117SOPE   HN112262   2.491   1.175   6.354  0.4722 -1.4474  0.0785
  117SOPE   HN212263   2.347   1.172   6.258 -1.9533  1.6536  1.9610
  117SOPE   HN312264   2.475   1.259   6.211 -0.0849 -0.0791 -0.1541
  117SOPE   C1212265   2.370   1.362   6.358  0.0168 -0.6143 -0.5127
  117SOPE  H12A12266   2.461   1.406   6.404 -1.4874  0.3415  1.7531
  117SOPE  H12B12267   2.311   1.340   6.449  0.7530  2.3843  0.8268
  117SOPE   C1112268   2.288   1.428   6.253 -0.8035 -0.5827  0.2214
  117SOPE  H11A12269   2.369   1.466   6.186 -1.4136  0.5251  0.0742
  117SOPE  H11B12270   2.248   1.527   6.284  0.8109 -0.3549  1.7410
  117SOPE     P12271   2.056   1.320   6.245  0.0750  0.0769 -0.1358
  117SOPE   O1312272   2.053   1.371   6.383 -0.0080 -0.7636  0.3967
  117SOPE   O1412273   2.014   1.179   6.226  0.1026  0.3916 -0.1930
  117SOPE   O1212274   2.200   1.343   6.183 -0.5869 -0.3693  0.2242
  117SOPE   O1112275   1.967   1.412   6.152 -0.6088 -0.5983 -0.2851
  117SOPE    C112276   2.025   1.507   6.063 -0.1475 -0.4882 -0.1218
  117SOPE    HA12277   2.094   1.451   5.997  0.4512  0.5783 -0.4226
  117SOPE    HB12278   2.093   1.568   6.126  0.7264 -0.2463 -1.2735
  117SOPE    C212279   1.922   1.592   5.984 -0.5817  0.0752 -1.6841
  117SOPE    HS12280   1.846   1.628   6.057 -0.0338  1.4573 -1.7685
  117SOPE   O2112281   1.870   1.512   5.882 -0.9315 -0.2754  0.2054
  117SOPE   C2112282   1.743   1.531   5.852 -0.3890 -0.0495 -0.0150
  117SOPE   O2212283   1.659   1.583   5.923  0.4837  0.5134 -0.1769
  117SOPE   C2212284   1.715   1.488   5.708  0.1289  0.2904  0.1943
  117SOPE   H2R12285   1.693   1.380   5.718  2.9678 -0.2635  1.6665
  117SOPE   H2S12286   1.805   1.494   5.642 -0.6253 -2.9116 -1.2874
  117SOPE    C312287   1.975   1.725   5.935  0.5196 -1.1165 -0.1198
  117SOPE    HX12288   2.067   1.702   5.879  0.5749 -1.5048  0.1267
  117SOPE    HY12289   2.011   1.790   6.017 -2.2280  0.5412 -0.1034
  117SOPE   O3112290   1.872   1.790   5.849 -0.0294 -0.4367  0.4318
  117SOPE   C3112291   1.930   1.899   5.786  0.8420  0.2171  0.0006
  117SOPE   O3212292   2.044   1.936   5.800  0.4369  0.2476  0.2960
  117SOPE   C3212293   1.827   1.969   5.700 -0.0167  0.1986 -0.0806
  117SOPE   H2X12294   1.849   2.077   5.716  0.6004  0.3619 -1.8597
  117SOPE   H2Y12295   1.723   1.947   5.734 -0.5345 -2.1412 -2.8426
  117SOPE   C2312296   1.589   1.558   5.652 -0.1687  0.1259 -0.4657
  117SOPE   H3R12297   1.593   1.668   5.662  0.8016 -0.0276  1.1992
  117SOPE   H3S12298   1.502   1.532   5.717 -1.2819  0.4089 -1.7878
  117SOPE   C2412299   1.577   1.514   5.505  0.3164 -0.1180  0.1264
  117SOPE   H4R12300   1.507   1.592   5.467 -0.7858 -1.1009  0.0988
  117SOPE   H4S12301   1.673   1.534   5.451  0.6233  1.1643  1.1045
  117SOPE   C2512302   1.517   1.375   5.478  0.2915 -0.3404 -0.5073
  117SOPE   H5R12303   1.575   1.302   5.538 -0.5482  0.3319  1.2125
  117SOPE   H5S12304   1.421   1.367   5.534  1.4449 -0.5982  1.5091
  117SOPE   C2612305   1.497   1.352   5.325 -0.8571 -0.5100  0.4163
  117SOPE   H6R12306   1.458   1.248   5.318 -0.0835 -0.6816 -2.5171
  117SOPE   H6S12307   1.413   1.414   5.286  0.8687  0.9705 -1.0909
  117SOPE   C2712308   1.613   1.386   5.225  0.8836  0.4251 -1.0880
  117SOPE   H7R12309   1.566   1.365   5.126  0.4255 -1.0887 -0.5845
  117SOPE   H7S12310   1.641   1.492   5.242 -1.9758  1.6427 -3.1496
  117SOPE   C2812311   1.730   1.288   5.239  0.3140 -0.9141  0.0107
  117SOPE   H8R12312   1.796   1.315   5.154 -0.0410  1.6938  0.4780
  117SOPE   H8S12313   1.773   1.308   5.340  0.4085 -1.6950  0.1367
  117SOPE   C2912314   1.675   1.142   5.216 -0.3152 -0.2447 -0.4075
  117SOPE   H9112315   1.611   1.101   5.296  1.7904  0.6266  1.8465
  117SOPE  C21012316   1.700   1.068   5.111 -0.0059  1.1452  0.5936
  117SOPE  H10112317   1.642   0.975   5.108  0.3256  0.9723 -1.2356
  117SOPE  C21112318   1.784   1.094   4.995  0.0130 -0.4316 -0.1180
  117SOPE  H11R12319   1.870   1.024   5.004 -0.8622 -1.5522 -0.2590
  117SOPE  H11S12320   1.823   1.198   4.987 -0.5279 -0.1728  0.4664
  117SOPE  C21212321   1.714   1.059   4.862  0.1099 -0.3891 -0.2948
  117SOPE  H12R12322   1.675   0.956   4.873 -2.8541  0.7244  0.8861
  117SOPE  H12S12323   1.774   1.074   4.770 -0.3360  2.2971 -0.2370
  117SOPE  C21312324   1.603   1.157   4.835  0.2440 -0.4915 -0.0276
  117SOPE  H13R12325   1.638   1.253   4.791  1.0536 -0.0155  1.5920
  117SOPE  H13S12326   1.542   1.179   4.925 -1.6263 -1.5429 -0.9684
  117SOPE  C21412327   1.499   1.103   4.731  0.5629  0.0202  0.1447
  117SOPE  H14R12328   1.424   1.182   4.706 -1.7582 -1.2451  2.5986
  117SOPE  H14S12329   1.438   1.026   4.782  0.0244 -1.4222 -2.4617
  117SOPE  C21512330   1.558   1.038   4.608 -1.1601 -0.0568 -0.1622
  117SOPE  H15R12331   1.640   0.965   4.628 -1.7657 -0.8913 -0.6097
  117SOPE  H15S12332   1.613   1.114   4.548  1.1105 -0.2658  1.5418
  117SOPE  C21612333   1.450   0.967   4.527  0.2216  0.1440 -0.2944
  117SOPE  H16R12334   1.361   1.031   4.511  0.6754  0.3659 -2.1531
  117SOPE  H16S12335   1.424   0.881   4.593  3.1167 -0.4284  0.2575
  117SOPE  C21712336   1.507   0.912   4.396 -0.3131 -0.2284  0.3198
  117SOPE  H17R12337   1.579   0.830   4.416  0.0914 -1.1446 -3.9627
  117SOPE  H17S12338   1.561   0.994   4.344  0.2611 -2.3967 -2.7859
  117SOPE  C21812339   1.399   0.847   4.315  0.0545  0.1448  0.0386
  117SOPE  H18R12340   1.354   0.782   4.393  1.5991 -1.5795 -0.4214
  117SOPE  H18S12341   1.438   0.790   4.228 -0.4242 -1.6489  0.9453
  117SOPE  H18T12342   1.324   0.926   4.295  0.2545 -0.1179 -1.9771
  117SOPE   C3312343   1.827   1.914   5.553 -0.4456  0.8425 -1.0418
  117SOPE   H3X12344   1.728   1.930   5.505 -0.1209 -1.2259 -2.5878
  117SOPE   H3Y12345   1.844   1.804   5.549  0.0976  0.8841 -0.0877
  117SOPE   C3412346   1.936   1.956   5.457 -0.5263 -0.6884 -0.2253
  117SOPE   H4X12347   1.927   1.924   5.351 -3.4696  0.4402 -0.4190
  117SOPE   H4Y12348   2.031   1.914   5.495 -0.6345  0.2323  1.1117
  117SOPE   C3512349   1.945   2.115   5.446  0.2771 -0.0956 -0.4694
  117SOPE   H5X12350   1.979   2.161   5.541  1.2408 -1.1404 -0.2873
  117SOPE   H5Y12351   1.843   2.149   5.422 -0.3614 -0.6503  1.3114
  117SOPE   C3612352   2.041   2.153   5.332  0.1098  0.4271  0.0458
  117SOPE   H6X12353   2.013   2.136   5.226  0.1884  0.7696 -0.0300
  117SOPE   H6Y12354   2.122   2.078   5.346  0.3241  0.2934 -1.6556
  117SOPE   C3712355   2.112   2.287   5.347 -0.1999 -0.6495  0.2815
  117SOPE   H7X12356   2.150   2.281   5.452  2.2793  0.3053 -0.4711
  117SOPE   H7Y12357   2.038   2.369   5.340  0.5804  0.0959  0.4794
  117SOPE   C3812358   2.226   2.312   5.259 -0.7503 -0.4273 -0.1701
  117SOPE   H8X12359   2.206   2.309   5.150 -0.6229 -2.1413 -0.1846
  117SOPE   H8Y12360   2.307   2.239   5.282  0.8917  1.0403 -1.0311
  117SOPE   C3912361   2.286   2.450   5.295 -0.5961  0.0159  0.4090
  117SOPE   H9X12362   2.291   2.453   5.406  1.8463 -1.3433  0.4006
  117SOPE   H9Y12363   2.225   2.532   5.252 -1.3838 -0.9099 -0.2802
  117SOPE  C31012364   2.425   2.458   5.242  0.0210  0.4305  0.6404
  117SOPE  H10X12365   2.487   2.369   5.267  1.2948  0.7140 -1.2780
  117SOPE  H10Y12366   2.485   2.542   5.282 -2.5176  2.8255 -0.2550
  117SOPE  C31112367   2.429   2.458   5.087 -0.0186 -0.3763 -0.6906
  117SOPE  H11X12368   2.409   2.354   5.053  1.3273 -1.7144  2.2783
  117SOPE  H11Y12369   2.533   2.480   5.056  0.0463  1.8452  0.8567
  117SOPE  C31212370   2.338   2.566   5.011 -0.3555 -0.2982 -0.1819
  117SOPE  H12X12371   2.369   2.667   5.044  0.6732 -0.4576 -0.6080
  117SOPE  H12Y12372   2.233   2.542   5.036 -0.4548  0.5771  0.2485
  117SOPE  C31312373   2.344   2.557   4.864 -0.5703  0.1419 -0.0827
  117SOPE  H13X12374   2.316   2.459   4.819  1.4005 -0.7797  0.5717
  117SOPE  H13Y12375   2.453   2.570   4.846 -0.6982  0.9253 -0.3418
  117SOPE  C31412376   2.267   2.676   4.798  0.1121 -0.1481 -0.4805
  117SOPE  H14X12377   2.328   2.764   4.828  0.2409 -0.8754  1.5292
  117SOPE  H14Y12378   2.170   2.705   4.843 -0.0897  2.1706 -2.2550
  117SOPE  C31512379   2.240   2.659   4.645 -0.1408  0.1737 -0.0299
  117SOPE  H15X12380   2.188   2.565   4.618 -0.8454 -0.0655  1.9918
  117SOPE  H15Y12381   2.342   2.654   4.602 -0.3821 -0.7425 -0.5219
  117SOPE  C31612382   2.169   2.782   4.579  1.0329  0.0675  0.0790
  117SOPE  H16X12383   2.214   2.872   4.627  1.4867 -0.5878  0.9165
  117SOPE  H16Y12384   2.062   2.775   4.610  1.1365  1.7397  0.9741
  117SOPE  C31712385   2.181   2.793   4.418  0.0129 -0.2011 -0.4808
  117SOPE  H17X12386   2.177   2.691   4.373  2.3320 -0.8894  0.6995
  117SOPE  H17Y12387   2.278   2.842   4.393 -0.2319  0.1549 -0.7320
  117SOPE  C31812388   2.066   2.873   4.363 -0.1236  0.3323 -0.1638
  117SOPE  H18X12389   1.969   2.823   4.381  0.7333 -0.4893  2.5073
  117SOPE  H18Y12390   2.088   2.886   4.254 -0.6121  0.6157 -0.2305
  117SOPE  H18Z12391   2.061   2.967   4.422  0.9897 -0.4880  1.2910
  118SOPE     N12392   2.650   3.142   6.676 -0.1878 -0.5053 -0.2593
  118SOPE   HN112393   2.603   3.129   6.768 -0.4128 -0.5565 -0.3807
  118SOPE   HN212394   2.687   3.054   6.636  2.9574  0.9412 -0.8774
  118SOPE   HN312395   2.729   3.209   6.689  0.9600 -1.6991 -0.8689
  118SOPE   C1212396   2.559   3.200   6.573  0.7510  0.2381  0.9616
  118SOPE  H12A12397   2.618   3.223   6.481  0.4464 -1.1302  0.3948
  118SOPE  H12B12398   2.506   3.289   6.612  0.5843  0.4921  0.1663
  118SOPE   C1112399   2.443   3.099   6.553  1.0262 -0.7776  0.0264
  118SOPE  H11A12400   2.481   2.998   6.524  1.7418 -0.6599  0.5375
  118SOPE  H11B12401   2.386   3.143   6.469  1.0007 -0.4252  0.2283
  118SOPE     P12402   2.325   2.973   6.752  0.0206 -0.1493 -0.4052
  118SOPE   O1312403   2.212   3.011   6.845  0.2737 -0.4894  0.0358
  118SOPE   O1412404   2.454   2.912   6.807  0.4883  0.0635  0.4837
  118SOPE   O1212405   2.364   3.101   6.678 -0.2309 -0.9226 -0.3230
  118SOPE   O1112406   2.277   2.880   6.639 -0.0265  0.3191  0.3871
  118SOPE    C112407   2.178   2.920   6.539 -0.1911  0.5342 -1.1633
  118SOPE    HA12408   2.169   2.834   6.469 -1.7416 -0.3775  0.0773
  118SOPE    HB12409   2.205   3.010   6.481  2.5464  0.7526  0.2830
  118SOPE    C212410   2.031   2.936   6.599 -0.2854  0.0353  0.4394
  118SOPE    HS12411   2.027   3.033   6.654  0.5504  0.3409 -0.0266
  118SOPE   O2112412   2.003   2.826   6.687 -0.3522 -0.1167 -0.4170
  118SOPE   C2112413   1.898   2.852   6.761 -0.2523  0.8617  0.1749
  118SOPE   O2212414   1.835   2.955   6.764  0.2023  0.2033  0.2732
  118SOPE   C2212415   1.864   2.720   6.838  0.1830 -0.5120  0.2596
  118SOPE   H2R12416   1.881   2.739   6.946  1.5513  1.8871 -0.2923
  118SOPE   H2S12417   1.936   2.640   6.810 -1.8193 -2.2144 -0.2240
  118SOPE    C312418   1.927   2.929   6.480  0.6823  0.3371 -0.3851
  118SOPE    HX12419   1.828   2.921   6.529  1.5202  0.8350  1.4711
  118SOPE    HY12420   1.942   2.832   6.428  1.5518  0.7904 -1.0090
  118SOPE   O3112421   1.944   3.032   6.388 -0.4909 -0.4972 -0.0906
  118SOPE   C3112422   1.892   3.148   6.432  0.3876  0.2757 -0.0071
  118SOPE   O3212423   1.828   3.157   6.533  0.7739 -0.0023 -0.4586
  118SOPE   C3212424   1.931   3.245   6.321 -0.1512 -0.0822 -0.2652
  118SOPE   H2X12425   1.928   3.182   6.229 -1.8882  1.3112 -1.2086
  118SOPE   H2Y12426   2.034   3.281   6.339 -0.7898  2.0628 -0.6596
  118SOPE   C2312427   1.723   2.672   6.808  0.3782  0.0431  0.8781
  118SOPE   H3R12428   1.668   2.768   6.823  0.6984  0.3812 -0.0434
  118SOPE   H3S12429   1.680   2.601   6.881  1.5564 -0.9847  0.6099
  118SOPE   C2412430   1.702   2.618   6.662  0.3249  0.6510  0.3781
  118SOPE   H4R12431   1.744   2.694   6.592 -0.9574 -1.9499 -3.5744
  118SOPE   H4S12432   1.763   2.526   6.650  0.8959  0.7423  2.2304
  118SOPE   C2512433   1.558   2.587   6.626 -0.5168  0.4910  0.0406
  118SOPE   H5R12434   1.544   2.498   6.691 -0.1613 -0.9068 -1.7246
  118SOPE   H5S12435   1.483   2.666   6.646 -1.2871 -0.3759  0.6545
  118SOPE   C2612436   1.554   2.543   6.482  0.2307  0.1367  0.4468
  118SOPE   H6R12437   1.636   2.472   6.461  1.2504  1.4212 -0.0529
  118SOPE   H6S12438   1.457   2.491   6.466 -1.0350  2.2208  0.8760
  118SOPE   C2712439   1.556   2.658   6.381  0.1987 -0.1443 -0.2675
  118SOPE   H7R12440   1.483   2.736   6.410 -2.0652 -1.3800 -2.2722
  118SOPE   H7S12441   1.658   2.702   6.388  0.4340 -0.9402  1.9179
  118SOPE   C2812442   1.518   2.624   6.237 -0.2004 -0.0800 -0.3417
  118SOPE   H8R12443   1.410   2.596   6.238  0.4001 -2.6388 -0.0405
  118SOPE   H8S12444   1.507   2.717   6.177 -1.9178  0.9662  1.4593
  118SOPE   C2912445   1.596   2.522   6.171  0.4902  0.3816 -0.4692
  118SOPE   H9112446   1.683   2.478   6.223  0.5977  1.3545  0.1878
  118SOPE  C21012447   1.570   2.481   6.047 -0.2765  0.1192  0.2496
  118SOPE  H10112448   1.631   2.400   6.004  1.6758  0.1241  2.7566
  118SOPE  C21112449   1.468   2.540   5.960  0.0335  0.1640 -0.1745
  118SOPE  H11R12450   1.471   2.651   5.948 -0.1611  0.1339 -0.5109
  118SOPE  H11S12451   1.367   2.521   6.003 -0.4942  0.2956 -1.3159
  118SOPE  C21212452   1.468   2.484   5.816 -0.2041 -0.4182 -0.0518
  118SOPE  H12R12453   1.389   2.538   5.759 -0.5443 -2.0724 -1.2265
  118SOPE  H12S12454   1.435   2.379   5.800  2.8950 -1.3554 -0.9783
  118SOPE  C21312455   1.607   2.506   5.743  0.6040 -0.2062  0.6763
  118SOPE  H13R12456   1.680   2.425   5.763  0.7354 -0.3897 -0.5174
  118SOPE  H13S12457   1.636   2.604   5.787 -1.3191  0.7674 -0.1221
  118SOPE  C21412458   1.591   2.519   5.587 -0.4061 -0.6990 -1.0564
  118SOPE  H14R12459   1.695   2.541   5.555 -0.0711 -1.0582 -0.2479
  118SOPE  H14S12460   1.520   2.601   5.564  0.4735  0.5652  0.4925
  118SOPE  C21512461   1.539   2.390   5.522 -0.2317  0.0186 -0.1492
  118SOPE  H15R12462   1.448   2.363   5.580  0.9572 -0.2249  1.6803
  118SOPE  H15S12463   1.608   2.308   5.553  1.2279  1.3620  0.3160
  118SOPE  C21612464   1.520   2.392   5.368  0.5801  0.2476 -0.3296
  118SOPE  H16R12465   1.445   2.465   5.331 -0.1402 -0.4532 -0.2905
  118SOPE  H16S12466   1.466   2.301   5.332 -1.3639  1.3780 -0.3957
  118SOPE  C21712467   1.655   2.388   5.289  0.3368 -0.0430 -0.9749
  118SOPE  H17R12468   1.724   2.326   5.348 -0.9093 -1.1269 -0.6163
  118SOPE  H17S12469   1.694   2.492   5.294  0.7253 -0.1923 -0.9548
  118SOPE  C21812470   1.636   2.335   5.148 -0.2963  0.0889 -0.8095
  118SOPE  H18R12471   1.552   2.263   5.140 -1.7043  1.5368  0.1765
  118SOPE  H18S12472   1.727   2.287   5.106  0.6082  0.8941  0.1743
  118SOPE  H18T12473   1.610   2.425   5.086 -1.4291  1.8563  2.0277
  118SOPE   C3312474   1.841   3.365   6.300 -0.5581  0.2344 -0.2263
  118SOPE   H3X12475   1.864   3.429   6.388 -1.2079  1.0888 -0.6698
  118SOPE   H3Y12476   1.738   3.324   6.299 -0.2076 -0.7847 -2.6965
  118SOPE   C3412477   1.874   3.441   6.168 -0.5270 -0.1962 -0.2095
  118SOPE   H4X12478   1.975   3.488   6.172  0.2823 -1.7144 -1.4650
  118SOPE   H4Y12479   1.793   3.517   6.165 -0.1085  0.3107  0.7776
  118SOPE   C3512480   1.860   3.364   6.043 -0.6241 -0.0142  0.6538
  118SOPE   H5X12481   1.760   3.319   6.029  0.0021 -1.1517 -0.3066
  118SOPE   H5Y12482   1.926   3.275   6.048  0.9469  1.0583  0.0277
  118SOPE   C3612483   1.898   3.438   5.919 -0.4467 -0.1763  0.5585
  118SOPE   H6X12484   1.908   3.372   5.830  0.4427  0.3080  0.2847
  118SOPE   H6Y12485   1.997   3.486   5.935  0.7761 -1.8886 -1.4057
  118SOPE   C3712486   1.799   3.549   5.871 -0.5481 -0.3062 -0.5811
  118SOPE   H7X12487   1.831   3.632   5.937 -1.3222 -0.8879  0.5535
  118SOPE   H7Y12488   1.694   3.532   5.902 -0.4009 -1.3472 -0.6196
  118SOPE   C3812489   1.802   3.579   5.720  0.1311 -0.3352 -0.2688
  118SOPE   H8X12490   1.779   3.493   5.654 -0.5844  1.1502 -2.0313
  118SOPE   H8Y12491   1.903   3.616   5.693 -1.0205  0.7501 -3.4855
  118SOPE   C3912492   1.714   3.696   5.690 -0.5530  0.0322  0.0676
  118SOPE   H9X12493   1.742   3.786   5.750  1.3078 -1.0100  0.8426
  118SOPE   H9Y12494   1.611   3.664   5.714 -0.1419  0.1273  2.1678
  118SOPE  C31012495   1.717   3.738   5.546 -0.0596 -0.2843 -0.6054
  118SOPE  H10X12496   1.679   3.655   5.483 -1.4247 -0.0922 -0.0640
  118SOPE  H10Y12497   1.822   3.756   5.512 -0.2381  2.1883 -0.0379
  118SOPE  C31112498   1.632   3.867   5.512  0.5755  0.1465 -0.4371
  118SOPE  H11X12499   1.659   3.951   5.580 -0.5767 -0.2511  0.5333
  118SOPE  H11Y12500   1.527   3.845   5.539  0.1091  1.5902 -0.9935
  118SOPE  C31212501   1.643   3.925   5.375 -0.3185  0.0461 -0.1500
  118SOPE  H12X12502   1.749   3.915   5.346 -0.8663 -0.7111 -2.0181
  118SOPE  H12Y12503   1.608   4.030   5.372 -1.4798 -0.3074  0.2725
  118SOPE  C31312504   1.562   3.847   5.268 -0.3531 -0.6493 -0.0501
  118SOPE  H13X12505   1.452   3.839   5.278 -0.5269 -1.9005 -2.4218
  118SOPE  H13Y12506   1.586   3.739   5.257  1.5755 -0.2391 -0.1426
  118SOPE  C31412507   1.570   3.915   5.128 -0.2402 -0.3345  0.7491
  118SOPE  H14X12508   1.677   3.924   5.102 -0.1454  0.9413  1.5049
  118SOPE  H14Y12509   1.537   4.021   5.127  0.2517 -0.1842  0.1465
  118SOPE  C31512510   1.504   3.830   5.014 -0.0233  0.1398 -0.3029
  118SOPE  H15X12511   1.395   3.852   5.017  0.2312  1.5116  2.5609
  118SOPE  H15Y12512   1.507   3.723   5.043 -3.4368  0.2090  0.7660
  118SOPE  C31612513   1.554   3.857   4.876 -0.6320  0.8581 -0.0337
  118SOPE  H16X12514   1.655   3.812   4.865 -0.3009  1.5077  0.2725
  118SOPE  H16Y12515   1.556   3.966   4.856 -0.8825  0.8706  0.0085
  118SOPE  C31712516   1.469   3.788   4.767 -0.6321 -0.2761  0.0304
  118SOPE  H17X12517   1.363   3.806   4.790 -0.3048 -0.8351  2.1761
  118SOPE  H17Y12518   1.484   3.678   4.779 -0.3080 -0.1012  1.2703
  118SOPE  C31812519   1.525   3.835   4.624  0.4908 -0.2571 -0.1813
  118SOPE  H18X12520   1.632   3.806   4.619  0.2485 -1.2049 -0.0347
  118SOPE  H18Y12521   1.533   3.945   4.610 -0.0656  0.0395  1.5920
  118SOPE  H18Z12522   1.461   3.795   4.542 -0.2669 -0.4122  0.4735
  119SOPE     N12523   4.400   1.150   6.632 -0.2414 -0.6228  0.1833
  119SOPE   HN112524   4.408   1.051   6.664  2.0814 -0.9764 -1.2995
  119SOPE   HN212525   4.424   1.139   6.532  1.0673 -2.0304  0.6218
  119SOPE   HN312526   4.476   1.200   6.682  1.5957 -3.5173  0.5528
  119SOPE   C1212527   4.265   1.201   6.669  0.0602  0.5508 -0.3557
  119SOPE  H12A12528   4.251   1.302   6.626 -0.8895  0.0711 -1.2050
  119SOPE  H12B12529   4.250   1.215   6.778  2.0097  0.9283 -0.1071
  119SOPE   C1112530   4.168   1.090   6.621  0.0449 -0.7736 -0.3401
  119SOPE  H11A12531   4.179   1.084   6.510  2.4691 -1.8472 -0.1175
  119SOPE  H11B12532   4.069   1.140   6.624 -0.1349 -0.9493 -2.0554
  119SOPE     P12533   4.084   0.885   6.761 -0.0213 -0.0150  0.2351
  119SOPE   O1312534   4.012   0.961   6.862 -0.1749  0.1915 -0.2582
  119SOPE   O1412535   4.140   0.756   6.813  0.2769 -0.4245 -0.2372
  119SOPE   O1212536   4.192   0.963   6.686 -0.1227 -0.3731  0.3856
  119SOPE   O1112537   3.980   0.859   6.655 -0.0269 -0.2250  0.2442
  119SOPE    C112538   4.004   0.746   6.563 -0.7880 -0.0643  0.7798
  119SOPE    HA12539   3.911   0.685   6.557 -1.1211  0.4286  0.8133
  119SOPE    HB12540   4.088   0.681   6.594 -1.7601 -2.2848 -0.9095
  119SOPE    C212541   4.042   0.801   6.414  0.1827  0.4195 -0.3019
  119SOPE    HS12542   4.033   0.716   6.343  0.3420  0.1688 -0.0299
  119SOPE   O2112543   4.185   0.845   6.408  0.5595  0.2433 -0.2673
  119SOPE   C2112544   4.278   0.761   6.414 -0.2276 -0.6108 -0.2120
  119SOPE   O2212545   4.260   0.639   6.428 -0.2265 -0.0749  0.1592
  119SOPE   C2212546   4.412   0.835   6.391  0.1235  0.5422  0.1392
  119SOPE   H2R12547   4.483   0.770   6.446 -1.7146 -1.3103  0.4649
  119SOPE   H2S12548   4.403   0.938   6.432  1.6806  0.8714 -0.2958
  119SOPE    C312549   3.949   0.907   6.362 -0.0051 -0.4656  0.1540
  119SOPE    HX12550   3.948   0.999   6.423 -3.1917 -0.5653  0.4220
  119SOPE    HY12551   3.845   0.868   6.372  0.5225 -1.5389  2.0357
  119SOPE   O3112552   3.973   0.930   6.218 -0.4089  0.0493 -0.5466
  119SOPE   C3112553   3.938   1.042   6.167  0.1588  0.5004 -0.2190
  119SOPE   O3212554   3.876   1.131   6.217  0.6742  0.2795 -0.2349
  119SOPE   C3212555   3.995   1.046   6.023  0.4672  0.4635 -0.7294
  119SOPE   H2X12556   3.955   1.131   5.964 -2.7396 -0.0616  0.4682
  119SOPE   H2Y12557   3.958   0.954   5.973 -0.6622 -0.5053  1.7156
  119SOPE   C2312558   4.459   0.848   6.246 -0.4961  0.5166  0.3681
  119SOPE   H3R12559   4.566   0.877   6.257 -1.1194  2.9570  0.6757
  119SOPE   H3S12560   4.396   0.924   6.195 -3.0755 -2.6383 -1.5407
  119SOPE   C2412561   4.425   0.720   6.165  0.0296  0.4417 -0.7859
  119SOPE   H4R12562   4.488   0.644   6.215 -1.0957 -0.4956 -0.7522
  119SOPE   H4S12563   4.319   0.687   6.161  0.6581 -1.6908 -1.2330
  119SOPE   C2512564   4.483   0.746   6.023 -0.0339  0.6598 -0.2075
  119SOPE   H5R12565   4.417   0.818   5.969 -0.0435  2.1762  1.7340
  119SOPE   H5S12566   4.573   0.811   6.029 -0.0631  0.9382 -2.0904
  119SOPE   C2612567   4.505   0.612   5.949  0.2673 -0.4994  0.0501
  119SOPE   H6R12568   4.549   0.541   6.023  0.2251  0.4999  1.0591
  119SOPE   H6S12569   4.411   0.572   5.906 -0.2251  0.8516 -0.1843
  119SOPE   C2712570   4.606   0.622   5.836 -0.1714 -0.2131  0.4135
  119SOPE   H7R12571   4.707   0.651   5.872  0.4160  2.9014 -3.0781
  119SOPE   H7S12572   4.615   0.523   5.787 -0.4678 -0.4471  0.8251
  119SOPE   C2812573   4.573   0.735   5.734 -0.9445  0.2794  0.4192
  119SOPE   H8R12574   4.463   0.742   5.721 -0.8663  0.5374 -0.1223
  119SOPE   H8S12575   4.600   0.835   5.775  0.8174  0.1726 -0.3798
  119SOPE   C2912576   4.649   0.718   5.605 -0.6450 -0.1613  0.0535
  119SOPE   H9112577   4.739   0.779   5.596 -0.1931 -0.7991  0.1963
  119SOPE  C21012578   4.622   0.624   5.512  0.7558  0.4271 -0.6867
  119SOPE  H10112579   4.685   0.632   5.422  1.6609  3.0891  0.0726
  119SOPE  C21112580   4.512   0.523   5.514 -0.2237  0.7967  0.2590
  119SOPE  H11R12581   4.440   0.533   5.598 -0.2663  1.4071  0.1551
  119SOPE  H11S12582   4.557   0.422   5.503 -2.6331 -0.4742  1.2939
  119SOPE  C21212583   4.407   0.514   5.390 -0.6358 -0.1560  0.0326
  119SOPE  H12R12584   4.352   0.610   5.379  2.3551  1.6589 -0.0807
  119SOPE  H12S12585   4.340   0.429   5.416 -0.8644  0.3561  1.1531
  119SOPE  C21312586   4.473   0.479   5.255  0.5018  0.5100  0.3468
  119SOPE  H13R12587   4.472   0.368   5.260 -0.0435  0.3582 -1.9162
  119SOPE  H13S12588   4.575   0.520   5.243  0.5851 -0.0827 -1.2670
  119SOPE  C21412589   4.378   0.512   5.135  0.0804  0.5202  0.5333
  119SOPE  H14R12590   4.363   0.622   5.124  2.3068  0.6798 -1.8454
  119SOPE  H14S12591   4.280   0.462   5.148 -0.7838  2.0350  0.1214
  119SOPE  C21512592   4.440   0.474   4.994 -0.2532 -0.2076 -0.4780
  119SOPE  H15R12593   4.469   0.367   5.001  0.3277  0.0249  1.0683
  119SOPE  H15S12594   4.535   0.531   4.987  1.0956 -2.1222  1.0513
  119SOPE  C21612595   4.349   0.499   4.874  0.1572  0.1430 -0.3054
  119SOPE  H16R12596   4.341   0.608   4.853  2.6918  0.7820  1.4781
  119SOPE  H16S12597   4.245   0.471   4.899  0.8012 -0.5279  1.7804
  119SOPE  C21712598   4.385   0.427   4.744 -0.7408 -0.0552 -0.7893
  119SOPE  H17R12599   4.330   0.476   4.661 -3.2105 -1.0132  0.1706
  119SOPE  H17S12600   4.342   0.325   4.759 -2.5633  0.9106  1.1310
  119SOPE  C21812601   4.538   0.411   4.717 -0.0052  1.2277  0.0906
  119SOPE  H18R12602   4.573   0.331   4.786 -2.9753  0.3172  0.6722
  119SOPE  H18S12603   4.591   0.507   4.734 -0.5062  2.1620 -2.9420
  119SOPE  H18T12604   4.551   0.379   4.611 -0.9753 -1.3350  0.6734
  119SOPE   C3312605   4.156   1.051   6.012 -0.1352  0.1456 -0.1338
  119SOPE   H3X12606   4.188   1.007   5.915 -2.6847  2.0254 -1.9661
  119SOPE   H3Y12607   4.195   0.978   6.086 -1.9693 -0.7614 -0.0196
  119SOPE   C3412608   4.211   1.191   6.016 -0.6908 -0.0702 -0.1820
  119SOPE   H4X12609   4.221   1.222   6.122  3.6099 -2.6994  0.3936
  119SOPE   H4Y12610   4.158   1.260   5.946  1.0411  0.6051 -0.8691
  119SOPE   C3512611   4.358   1.197   5.974  0.2164 -0.1394 -0.3905
  119SOPE   H5X12612   4.415   1.148   6.055 -0.0078  1.5442  0.8249
  119SOPE   H5Y12613   4.378   1.306   5.981  0.9754 -0.3070  0.0872
  119SOPE   C3612614   4.397   1.148   5.833 -1.0231 -0.3580  0.7251
  119SOPE   H6X12615   4.339   1.200   5.754  1.0611 -0.9630 -1.3427
  119SOPE   H6Y12616   4.381   1.039   5.819 -0.2261 -0.6095  1.6797
  119SOPE   C3712617   4.552   1.175   5.797  0.4968  0.1717 -0.7886
  119SOPE   H7X12618   4.612   1.126   5.877  1.3582 -0.4525 -1.8019
  119SOPE   H7Y12619   4.546   1.286   5.795 -3.1309  0.1654  1.1193
  119SOPE   C3812620   4.600   1.121   5.663  0.1996  0.3343  0.9377
  119SOPE   H8X12621   4.647   1.021   5.672  1.0393  0.4127 -1.7701
  119SOPE   H8Y12622   4.675   1.195   5.629  1.4198 -0.5868  1.5419
  119SOPE   C3912623   4.492   1.106   5.544 -0.0116  0.1482 -0.1435
  119SOPE   H9X12624   4.447   1.207   5.531  2.0096  1.2404  1.0075
  119SOPE   H9Y12625   4.419   1.030   5.579 -0.5530  0.5849 -0.3124
  119SOPE  C31012626   4.568   1.060   5.419  0.6724  0.1131 -0.4358
  119SOPE  H10X12627   4.589   0.951   5.425  0.6427  0.0545 -1.3176
  119SOPE  H10Y12628   4.666   1.113   5.416  0.1294  1.4236  2.0078
  119SOPE  C31112629   4.490   1.080   5.290 -0.6840 -0.3405  0.4364
  119SOPE  H11X12630   4.478   1.187   5.263 -1.1645 -0.4892  0.0505
  119SOPE  H11Y12631   4.393   1.029   5.303 -0.6610 -0.5486 -0.1799
  119SOPE  C31212632   4.556   0.995   5.179  0.6090  0.5920  0.6030
  119SOPE  H12X12633   4.558   0.889   5.214 -2.0067  0.3907  0.3128
  119SOPE  H12Y12634   4.662   1.024   5.165  1.0401  0.0985  2.5579
  119SOPE  C31312635   4.491   0.996   5.040  0.8720 -0.1734 -0.0808
  119SOPE  H13X12636   4.501   1.099   5.000  1.7870  0.2117  1.0708
  119SOPE  H13Y12637   4.383   0.970   5.039  0.9104 -0.3470 -1.1010
  119SOPE  C31412638   4.562   0.925   4.929 -0.0554 -0.1651  0.4817
  119SOPE  H14X12639   4.598   0.826   4.965  1.3641 -0.8923 -2.6425
  119SOPE  H14Y12640   4.652   0.984   4.900  0.8654 -1.5821  0.3453
  119SOPE  C31512641   4.476   0.900   4.806 -0.1135  0.0201 -0.2541
  119SOPE  H15X12642   4.441   0.994   4.759 -1.5619 -0.6454 -0.5432
  119SOPE  H15Y12643   4.392   0.833   4.835 -0.0354  0.6551  1.5810
  119SOPE  C31612644   4.546   0.811   4.698 -0.2537 -0.2664 -0.2179
  119SOPE  H16X12645   4.573   0.717   4.751  2.9550  1.9814  2.5953
  119SOPE  H16Y12646   4.637   0.868   4.668  0.5009 -0.2608  1.8991
  119SOPE  C31712647   4.464   0.779   4.581  0.0903  0.0716  0.8778
  119SOPE  H17X12648   4.409   0.862   4.533  0.3915  0.6549  1.5173
  119SOPE  H17Y12649   4.385   0.712   4.622  1.2101 -0.9949  1.3658
  119SOPE  C31812650   4.542   0.694   4.475  0.3387 -0.4895  0.1328
  119SOPE  H18X12651   4.473   0.647   4.401 -1.7471  0.3415  1.4531
  119SOPE  H18Y12652   4.603   0.612   4.519 -1.3235 -2.7721 -1.5730
  119SOPE  H18Z12653   4.614   0.765   4.429 -0.9894  1.7866  1.3851
  120SOPE     N12654   2.106   0.037   6.648 -0.1968 -0.1297 -0.2816
  120SOPE   HN112655   2.075   0.069   6.743 -1.0905  0.2569 -0.6913
  120SOPE   HN212656   2.173   0.108   6.612  1.3055 -1.4571 -0.2421
  120SOPE   HN312657   2.021   0.035   6.589  0.4295 -0.7375 -1.1930
  120SOPE   C1212658   2.165  -0.099   6.646 -0.8087 -0.9597 -0.5085
  120SOPE  H12A12659   2.240  -0.089   6.565 -0.9589  2.4574 -0.3526
  120SOPE  H12B12660   2.086  -0.176   6.628 -0.2749 -1.2907 -1.5004
  120SOPE   C1112661   2.246  -0.131   6.782  0.0684 -0.5956 -0.6874
  120SOPE  H11A12662   2.305  -0.225   6.781  0.3476 -0.4983  1.6429
  120SOPE  H11B12663   2.171  -0.152   6.861 -0.5816  1.9955 -0.5144
  120SOPE     P12664   2.478  -0.010   6.822 -0.2484  0.1392 -0.1084
  120SOPE   O1312665   2.544  -0.107   6.924 -0.0544  0.1085  0.7744
  120SOPE   O1412666   2.520   0.132   6.837 -0.9065  0.3821 -0.0491
  120SOPE   O1212667   2.324  -0.025   6.839 -0.3356  0.2020  0.3062
  120SOPE   O1112668   2.503  -0.047   6.669  0.6068 -0.4227 -0.0611
  120SOPE    C112669   2.523   0.042   6.563 -0.2573  0.0178 -0.7428
  120SOPE    HA12670   2.513   0.148   6.593  1.1039  0.6477 -2.3710
  120SOPE    HB12671   2.438   0.030   6.492 -0.2259  1.3887 -1.0391
  120SOPE    C212672   2.659   0.025   6.495  0.2259  0.4626  0.0536
  120SOPE    HS12673   2.666   0.107   6.421 -0.3259  0.9615  0.5430
  120SOPE   O2112674   2.668  -0.100   6.437  0.1317  0.1630 -0.0452
  120SOPE   C2112675   2.591  -0.139   6.337  0.7795  0.6349  0.6172
  120SOPE   O2212676   2.518  -0.072   6.273  0.2201 -0.4445 -0.3025
  120SOPE   C2212677   2.623  -0.291   6.312 -0.4203  0.2982  0.2621
  120SOPE   H2R12678   2.584  -0.353   6.396 -0.9782 -0.2901 -0.4206
  120SOPE   H2S12679   2.731  -0.314   6.315 -0.6914 -0.9381  1.4811
  120SOPE    C312680   2.782   0.039   6.590 -0.3844 -0.8594  0.0745
  120SOPE    HX12681   2.783  -0.051   6.656 -0.0728 -1.2144 -0.4068
  120SOPE    HY12682   2.757   0.134   6.643 -3.5070 -1.2855 -0.4847
  120SOPE   O3112683   2.909   0.065   6.519  0.3125  0.4382  0.6142
  120SOPE   C3112684   2.975  -0.049   6.489 -0.2460  0.4886 -0.1340
  120SOPE   O3212685   2.944  -0.164   6.525  0.8970 -0.2976  0.9198
  120SOPE   C3212686   3.093  -0.026   6.393 -1.1213 -0.2326 -0.5003
  120SOPE   H2X12687   3.183  -0.072   6.438 -1.5209  0.1029  0.6813
  120SOPE   H2Y12688   3.106   0.084   6.394 -2.2937 -0.0806 -0.6697
  120SOPE   C2312689   2.556  -0.345   6.184  0.4971  0.8068  0.0373
  120SOPE   H3R12690   2.608  -0.308   6.093  0.4880  0.8234  0.0390
  120SOPE   H3S12691   2.447  -0.323   6.185  0.1156 -0.9257 -0.1075
  120SOPE   C2412692   2.568  -0.499   6.177 -0.4523 -0.1839  0.0921
  120SOPE   H4R12693   2.664  -0.526   6.226  0.2203  0.4552 -0.8537
  120SOPE   H4S12694   2.484  -0.546   6.233 -0.8964  0.8726  0.3228
  120SOPE   C2512695   2.568  -0.556   6.029 -0.3891  0.0698  0.1840
  120SOPE   H5R12696   2.646  -0.507   5.968 -1.0449 -0.4045 -1.0595
  120SOPE   H5S12697   2.596  -0.663   6.037  1.4679  0.4539 -0.6194
  120SOPE   C2612698   2.436  -0.534   5.950  0.4841  0.6696 -0.2283
  120SOPE   H6R12699   2.433  -0.423   5.943 -1.2071  0.6488 -0.3940
  120SOPE   H6S12700   2.457  -0.584   5.852  1.4856 -2.9181  1.6424
  120SOPE   C2712701   2.306  -0.582   6.015  0.0518 -0.3023 -0.0268
  120SOPE   H7R12702   2.326  -0.677   6.068 -0.0008 -0.4757 -0.3147
  120SOPE   H7S12703   2.277  -0.516   6.100  0.2480  2.0992 -1.7283
  120SOPE   C2812704   2.186  -0.580   5.917 -0.3155  0.0140  0.4209
  120SOPE   H8R12705   2.099  -0.594   5.986  0.3572 -0.7063  1.1576
  120SOPE   H8S12706   2.166  -0.478   5.878 -1.2131  0.0341  0.8918
  120SOPE   C2912707   2.196  -0.682   5.800  0.2792 -0.4782  0.3000
  120SOPE   H9112708   2.183  -0.787   5.827  0.7866 -0.6335 -0.0499
  120SOPE  C21012709   2.208  -0.644   5.672 -0.6503  0.7711  0.5496
  120SOPE  H10112710   2.205  -0.723   5.595  0.4002 -0.1764  1.4376
  120SOPE  C21112711   2.221  -0.506   5.611 -0.0882 -0.8141 -0.0719
  120SOPE  H11R12712   2.249  -0.436   5.692  1.9350 -0.4738 -0.9974
  120SOPE  H11S12713   2.131  -0.462   5.564  1.7333  1.9936 -1.1981
  120SOPE  C21212714   2.320  -0.505   5.496 -0.5662 -0.0390  0.5386
  120SOPE  H12R12715   2.266  -0.519   5.400  0.9782 -0.6901 -0.2726
  120SOPE  H12S12716   2.400  -0.581   5.509  0.3654  0.9579  0.8015
  120SOPE  C21312717   2.396  -0.369   5.495  0.3571 -0.3946 -0.1791
  120SOPE  H13R12718   2.453  -0.345   5.587  1.9014  0.3381 -1.2732
  120SOPE  H13S12719   2.310  -0.299   5.485  0.5360 -0.0076  0.9107
  120SOPE  C21412720   2.491  -0.361   5.375  0.1584 -0.2947  0.0250
  120SOPE  H14R12721   2.551  -0.454   5.390 -0.4323 -0.4342  1.7663
  120SOPE  H14S12722   2.556  -0.271   5.370  0.1274 -0.3438 -2.4729
  120SOPE  C21512723   2.405  -0.359   5.243  0.1063  0.5844 -0.9437
  120SOPE  H15R12724   2.307  -0.310   5.261  0.6094  1.3480 -0.2195
  120SOPE  H15S12725   2.396  -0.458   5.193 -2.2890 -0.1029  0.7035
  120SOPE  C21612726   2.480  -0.273   5.141 -0.2257  0.1939  0.3567
  120SOPE  H16R12727   2.580  -0.314   5.116  0.0282  0.2644  1.2009
  120SOPE  H16S12728   2.491  -0.167   5.171  0.8647 -0.2660  1.7071
  120SOPE  C21712729   2.402  -0.276   5.010 -0.1944 -0.0603 -0.1185
  120SOPE  H17R12730   2.297  -0.243   4.997 -0.9343 -2.5844 -1.0709
  120SOPE  H17S12731   2.413  -0.382   4.977  1.8661 -0.5017  1.6977
  120SOPE  C21812732   2.474  -0.182   4.909  0.3562  0.2444 -0.0332
  120SOPE  H18R12733   2.575  -0.222   4.886 -0.7141 -1.6922 -1.7505
  120SOPE  H18S12734   2.473  -0.078   4.947  0.0537 -0.8610  3.3391
  120SOPE  H18T12735   2.423  -0.173   4.811  0.4728  2.0056  0.0441
  120SOPE   C3312736   3.067  -0.079   6.256 -0.5258  0.5589  0.4660
  120SOPE   H3X12737   3.020  -0.179   6.256 -2.9529  1.4799 -3.6943
  120SOPE   H3Y12738   3.153  -0.083   6.185 -0.2919 -1.3135  0.7907
  120SOPE   C3412739   2.948  -0.002   6.188  0.4211 -0.2086  0.5389
  120SOPE   H4X12740   2.972   0.106   6.200 -1.8145  0.3048  0.8225
  120SOPE   H4Y12741   2.849  -0.022   6.232 -0.0362  0.7647 -0.0121
  120SOPE   C3512742   2.930  -0.028   6.033 -1.0937 -0.8091  0.2855
  120SOPE   H5X12743   3.031  -0.025   5.986 -1.1318 -0.1062  0.2427
  120SOPE   H5Y12744   2.862   0.047   5.988 -2.7684 -0.7004  2.7938
  120SOPE   C3612745   2.845  -0.150   5.993 -0.4667  0.0230  0.4890
  120SOPE   H6X12746   2.743  -0.144   6.036 -0.3616  0.6064  0.6770
  120SOPE   H6Y12747   2.897  -0.245   6.018 -0.7027 -0.4176 -0.6183
  120SOPE   C3712748   2.841  -0.156   5.847  0.2245 -0.2490  0.3503
  120SOPE   H7X12749   2.935  -0.207   5.818  1.2142  1.0920  1.1166
  120SOPE   H7Y12750   2.833  -0.053   5.805 -0.6005 -0.8026 -0.9223
  120SOPE   C3812751   2.738  -0.254   5.794  0.2127 -0.0799  0.9571
  120SOPE   H8X12752   2.641  -0.211   5.829  0.5405  2.3292 -0.8603
  120SOPE   H8Y12753   2.748  -0.354   5.841 -2.5716  0.2687  2.5341
  120SOPE   C3912754   2.749  -0.251   5.636  0.3149 -0.5475 -0.0143
  120SOPE   H9X12755   2.763  -0.145   5.607 -0.2402 -0.4364  0.1062
  120SOPE   H9Y12756   2.653  -0.290   5.596  0.2707  0.0653 -0.5105
  120SOPE  C31012757   2.873  -0.319   5.585  0.1035 -0.5616 -0.0614
  120SOPE  H10X12758   2.902  -0.414   5.636 -0.6081 -0.3540  0.7495
  120SOPE  H10Y12759   2.961  -0.252   5.580  0.9660 -1.6494  0.0925
  120SOPE  C31112760   2.848  -0.352   5.438 -0.1776 -0.7965 -0.0704
  120SOPE  H11X12761   2.825  -0.256   5.387 -2.6216 -1.4848 -0.4050
  120SOPE  H11Y12762   2.752  -0.406   5.449 -1.2688  1.4641  3.0388
  120SOPE  C31212763   2.960  -0.432   5.371  0.0945  0.0442  0.4299
  120SOPE  H12X12764   2.975  -0.522   5.435 -2.7955 -0.7221  0.1792
  120SOPE  H12Y12765   3.054  -0.374   5.368 -0.7760  1.4683 -2.1481
  120SOPE  C31312766   2.934  -0.482   5.227  0.0450 -0.3307 -0.0403
  120SOPE  H13X12767   2.839  -0.539   5.229  0.5802 -1.2009  1.4404
  120SOPE  H13Y12768   3.018  -0.551   5.206  0.8108  0.0076  1.7279
  120SOPE  C31412769   2.925  -0.359   5.136  0.1008 -0.0751  0.1972
  120SOPE  H14X12770   3.020  -0.303   5.149  0.4540 -0.9083  1.4183
  120SOPE  H14Y12771   2.847  -0.290   5.175  1.1706  0.7267  1.0190
  120SOPE  C31512772   2.891  -0.397   4.998  0.0229  0.8489 -0.3737
  120SOPE  H15X12773   2.789  -0.442   5.007 -1.1034  2.9019 -2.0760
  120SOPE  H15Y12774   2.969  -0.471   4.969 -0.0949  0.7393 -0.4141
  120SOPE  C31612775   2.889  -0.296   4.880 -0.7089  0.3583 -0.2748
  120SOPE  H16X12776   2.836  -0.201   4.901  1.9039  2.2111 -1.4416
  120SOPE  H16Y12777   2.838  -0.340   4.792 -3.4786  5.3607 -1.5437
  120SOPE  C31712778   3.032  -0.255   4.838 -0.0152 -0.0828 -0.2860
  120SOPE  H17X12779   3.085  -0.353   4.836  1.0035  0.4674 -1.2937
  120SOPE  H17Y12780   3.067  -0.191   4.922 -0.8673 -1.1087  0.8900
  120SOPE  C31812781   3.046  -0.181   4.705  0.0555 -0.3855  0.0909
  120SOPE  H18X12782   3.154  -0.174   4.682  0.1865 -1.8737  0.1198
  120SOPE  H18Y12783   3.003  -0.079   4.702 -0.0705 -0.4311  0.3297
  120SOPE  H18Z12784   2.994  -0.234   4.622 -0.2497 -1.5770  1.0173
  121SOPE     N12785   2.348   5.908   7.085 -0.6848 -0.1473  0.4414
  121SOPE   HN112786   2.448   5.910   7.054 -1.1348 -1.9064 -1.2993
  121SOPE   HN212787   2.301   5.998   7.109 -1.8079  0.0693 -2.2955
  121SOPE   HN312788   2.339   5.831   7.155  0.3621 -0.7288 -0.0348
  121SOPE   C1212789   2.273   5.846   6.974  0.1616  0.2791  0.0275
  121SOPE  H12A12790   2.254   5.741   7.005 -1.4445  1.3309  3.0760
  121SOPE  H12B12791   2.341   5.850   6.887  1.5427  1.0599  1.0925
  121SOPE   C1112792   2.136   5.907   6.963  0.2770 -0.3640 -0.4198
  121SOPE  H11A12793   2.072   5.894   7.053 -1.5720  1.2023 -1.4257
  121SOPE  H11B12794   2.079   5.847   6.889  0.4416 -3.9968  2.1200
  121SOPE     P12795   2.034   6.123   6.873 -0.1910  0.6270  0.1738
  121SOPE   O1312796   2.084   6.260   6.856  0.0801  0.7196 -0.0099
  121SOPE   O1412797   1.914   6.093   6.950  1.0030 -0.5262 -0.0760
  121SOPE   O1212798   2.151   6.045   6.939  0.4574  0.1967 -0.0772
  121SOPE   O1112799   2.022   6.062   6.722  0.1694 -0.0888 -0.4342
  121SOPE    C112800   2.144   6.033   6.644 -0.0049  0.6300 -0.0712
  121SOPE    HA12801   2.165   5.925   6.659  1.8702  1.2652  2.5885
  121SOPE    HB12802   2.230   6.088   6.686  1.1335 -0.6208 -0.7011
  121SOPE    C212803   2.120   6.070   6.492 -0.3099  0.3656  0.3735
  121SOPE    HS12804   2.074   6.171   6.492 -1.7683 -0.2812  0.9718
  121SOPE   O2112805   2.034   5.967   6.430  0.1280 -0.3811 -0.1238
  121SOPE   C2112806   1.987   6.000   6.315 -0.7580 -0.7017 -0.2768
  121SOPE   O2212807   2.012   6.106   6.260 -0.4200 -0.1011  0.0596
  121SOPE   C2212808   1.922   5.881   6.251 -0.0203  0.1889 -0.5327
  121SOPE   H2R12809   1.892   5.924   6.153 -2.0729  2.5323  0.9964
  121SOPE   H2S12810   1.828   5.865   6.308  0.3850  1.3996  0.5344
  121SOPE    C312811   2.264   6.071   6.424  0.7009  0.0656  0.0664
  121SOPE    HX12812   2.332   6.121   6.496  1.6074 -1.0936  0.0428
  121SOPE    HY12813   2.259   6.128   6.328 -0.2581 -0.4111 -0.1801
  121SOPE   O3112814   2.315   5.940   6.404  0.7887 -0.1935  0.4809
  121SOPE   C3112815   2.446   5.941   6.356 -0.4130 -0.0186  0.0977
  121SOPE   O3212816   2.527   6.029   6.362  0.2543  0.1576  0.0263
  121SOPE   C3212817   2.468   5.798   6.296  0.0352  0.3552 -0.6676
  121SOPE   H2X12818   2.403   5.788   6.207 -0.0705 -0.3984 -0.5091
  121SOPE   H2Y12819   2.446   5.729   6.380 -0.4001  0.6306 -0.5497
  121SOPE   C2312820   2.013   5.755   6.266 -0.1983  0.5656 -0.0484
  121SOPE   H3R12821   1.951   5.664   6.255  1.1404 -0.3023 -0.6649
  121SOPE   H3S12822   2.052   5.743   6.370  2.1121  1.7459 -0.7114
  121SOPE   C2412823   2.131   5.752   6.176  0.2369  0.0740 -0.2528
  121SOPE   H4R12824   2.208   5.828   6.203  1.1164 -0.4439 -1.2451
  121SOPE   H4S12825   2.175   5.651   6.192  1.8359  0.4356 -2.0107
  121SOPE   C2512826   2.092   5.749   6.028 -0.3521 -0.1343  0.3931
  121SOPE   H5R12827   2.051   5.647   6.009  2.5772 -1.1022 -1.5045
  121SOPE   H5S12828   2.021   5.832   6.009 -1.6134 -1.2333  0.1610
  121SOPE   C2612829   2.209   5.755   5.927  0.3220 -0.4962 -0.2032
  121SOPE   H6R12830   2.247   5.859   5.921 -1.8444  0.4508  1.3851
  121SOPE   H6S12831   2.294   5.691   5.957 -0.1272  0.1188  2.6148
  121SOPE   C2712832   2.164   5.697   5.794 -0.0610 -0.2160  0.2956
  121SOPE   H7R12833   2.105   5.603   5.798 -0.1943 -0.3154 -2.1808
  121SOPE   H7S12834   2.096   5.774   5.753 -0.0182 -0.1349  0.3775
  121SOPE   C2812835   2.271   5.680   5.684  0.3104  0.1398 -0.7380
  121SOPE   H8R12836   2.329   5.590   5.714 -1.8841 -0.1763  3.2602
  121SOPE   H8S12837   2.219   5.644   5.592  1.7142  0.9845 -1.8930
  121SOPE   C2912838   2.353   5.797   5.648 -0.8672  0.4312 -0.2983
  121SOPE   H9112839   2.447   5.797   5.704 -1.9806 -2.1958  1.8147
  121SOPE  C21012840   2.328   5.876   5.540 -0.2947  0.0352  0.1690
  121SOPE  H10112841   2.391   5.964   5.521 -0.3619  0.8191  3.0789
  121SOPE  C21112842   2.201   5.867   5.454 -0.3647 -0.5524  0.2701
  121SOPE  H11R12843   2.140   5.958   5.474  1.2244  0.8379 -1.0197
  121SOPE  H11S12844   2.134   5.780   5.475 -2.2587  1.5563  3.9559
  121SOPE  C21212845   2.246   5.848   5.306 -0.2985 -0.1601  0.7247
  121SOPE  H12R12846   2.170   5.782   5.260  0.2117  0.4434 -1.0560
  121SOPE  H12S12847   2.340   5.790   5.299 -0.8945 -1.0364 -0.3296
  121SOPE  C21312848   2.242   5.983   5.237 -0.2632  0.4202 -0.1713
  121SOPE  H13R12849   2.338   6.031   5.263  0.3567  0.2037 -1.9610
  121SOPE  H13S12850   2.160   6.043   5.281  0.3905 -0.0011  1.7055
  121SOPE  C21412851   2.234   5.978   5.081  0.0593  0.5091 -0.2164
  121SOPE  H14R12852   2.133   5.953   5.043 -0.1863  0.1412  0.6516
  121SOPE  H14S12853   2.313   5.907   5.047  0.2159 -0.8375  2.6042
  121SOPE  C21512854   2.255   6.117   5.018  0.5362 -0.3950  0.0364
  121SOPE  H15R12855   2.362   6.139   5.037  1.0586 -2.4935 -0.1456
  121SOPE  H15S12856   2.189   6.191   5.067  0.4691  0.4882 -1.3416
  121SOPE  C21612857   2.225   6.128   4.862 -0.6279  0.1146 -0.1228
  121SOPE  H16R12858   2.199   6.231   4.830  0.5391 -0.3210 -2.6875
  121SOPE  H16S12859   2.149   6.055   4.830 -0.0848 -0.0903 -0.9786
  121SOPE  C21712860   2.358   6.114   4.779 -0.4242 -0.4437  0.1792
  121SOPE  H17R12861   2.341   6.146   4.674  0.2803  1.3901  0.5964
  121SOPE  H17S12862   2.378   6.004   4.774 -0.6049 -0.5113  0.9152
  121SOPE  C21812863   2.485   6.192   4.819  0.9422  0.1331 -0.2510
  121SOPE  H18R12864   2.438   6.290   4.797 -2.1735 -1.4440 -1.1450
  121SOPE  H18S12865   2.574   6.167   4.757  0.9071  0.0987 -0.2869
  121SOPE  H18T12866   2.514   6.192   4.927  0.7210 -1.7610 -0.1569
  121SOPE   C3312867   2.611   5.767   6.261 -0.5964 -0.4121  0.5248
  121SOPE   H3X12868   2.622   5.669   6.312 -2.9661 -0.9534  0.1386
  121SOPE   H3Y12869   2.685   5.843   6.294 -1.8207  0.3563  1.6193
  121SOPE   C3412870   2.629   5.748   6.112  0.0343  1.1594  0.2826
  121SOPE   H4X12871   2.548   5.676   6.087 -0.2184  1.2301  0.8856
  121SOPE   H4Y12872   2.724   5.694   6.090  0.5733  2.3879 -0.5075
  121SOPE   C3512873   2.613   5.867   6.026 -0.5433  0.3921 -0.2402
  121SOPE   H5X12874   2.684   5.944   6.062  0.0501  0.1985 -0.9744
  121SOPE   H5Y12875   2.510   5.908   6.039 -0.4503  0.0709  1.9510
  121SOPE   C3612876   2.657   5.850   5.879  0.1909  0.1367  0.2243
  121SOPE   H6X12877   2.602   5.764   5.836 -1.9738  1.8798 -0.6461
  121SOPE   H6Y12878   2.767   5.830   5.880  0.4553  1.3694  2.4665
  121SOPE   C3712879   2.627   5.977   5.800  0.1038  0.1755  0.0053
  121SOPE   H7X12880   2.682   6.046   5.867  0.9348  0.1795 -0.6696
  121SOPE   H7Y12881   2.518   6.001   5.798  0.1400  0.3424  0.0521
  121SOPE   C3812882   2.687   5.979   5.665 -0.2347  0.0946 -0.3621
  121SOPE   H8X12883   2.658   5.902   5.590  3.9481 -2.5727  0.4343
  121SOPE   H8Y12884   2.795   5.959   5.679 -0.8378 -3.0817  0.6466
  121SOPE   C3912885   2.665   6.119   5.609  0.2238  0.6263  0.2399
  121SOPE   H9X12886   2.709   6.193   5.680  0.7327  0.6918 -0.1426
  121SOPE   H9Y12887   2.556   6.140   5.604 -0.0960 -0.9917  0.0076
  121SOPE  C31012888   2.718   6.138   5.465  0.2407 -0.1589 -0.5554
  121SOPE  H10X12889   2.823   6.109   5.446  0.4760  1.4844 -2.0305
  121SOPE  H10Y12890   2.706   6.246   5.440 -2.0461 -0.6912 -2.0795
  121SOPE  C31112891   2.644   6.061   5.355  0.5855  0.0150  0.6936
  121SOPE  H11X12892   2.540   6.101   5.344 -0.0237 -1.5098  0.7561
  121SOPE  H11Y12893   2.632   5.958   5.394 -2.7370 -0.1343 -0.3769
  121SOPE  C31212894   2.717   6.066   5.215 -0.1930 -0.5393  1.2952
  121SOPE  H12X12895   2.822   6.031   5.229 -0.2436 -0.1617  2.7561
  121SOPE  H12Y12896   2.715   6.171   5.180  0.9178 -0.1063  2.4716
  121SOPE  C31312897   2.641   5.979   5.119  0.4975 -0.1335  0.5363
  121SOPE  H13X12898   2.539   6.017   5.103  0.9567  0.7535 -0.3888
  121SOPE  H13Y12899   2.620   5.885   5.175  0.8630  0.6049  1.9517
  121SOPE  C31412900   2.714   5.947   4.988  0.1848 -0.1759 -0.6100
  121SOPE  H14X12901   2.799   5.882   5.019 -0.6217 -0.5319  0.9534
  121SOPE  H14Y12902   2.752   6.044   4.949  1.2803 -0.3596 -0.0563
  121SOPE  C31512903   2.623   5.872   4.884  0.5588  0.6186 -0.5890
  121SOPE  H15X12904   2.545   5.942   4.849  0.7939  1.0190 -0.3205
  121SOPE  H15Y12905   2.577   5.782   4.930 -2.3144  2.1931 -0.1461
  121SOPE  C31612906   2.693   5.835   4.749  0.5169  0.1977  0.1233
  121SOPE  H16X12907   2.771   5.759   4.772  0.7742  0.4412  0.0652
  121SOPE  H16Y12908   2.740   5.932   4.721  1.0338  0.8689  2.9941
  121SOPE  C31712909   2.587   5.803   4.632 -0.3985 -0.0797 -0.3296
  121SOPE  H17X12910   2.628   5.842   4.536  2.1689  1.5346  1.2894
  121SOPE  H17Y12911   2.510   5.883   4.642 -2.0439 -1.3616 -2.0975
  121SOPE  C31812912   2.517   5.672   4.625  0.7232 -0.3657  0.4202
  121SOPE  H18X12913   2.591   5.589   4.630  1.1752 -0.1002 -1.3251
  121SOPE  H18Y12914   2.450   5.664   4.537 -0.6809 -0.0876  1.4219
  121SOPE  H18Z12915   2.455   5.647   4.714  0.9212 -1.4511  0.2712
  122SOPE     N12916   4.017   3.222   6.973 -0.3996 -0.7316 -0.2384
  122SOPE   HN112917   4.082   3.209   7.053  0.7260 -0.1067 -1.0138
  122SOPE   HN212918   3.941   3.153   6.981  0.8115 -2.0083  0.6598
  122SOPE   HN312919   4.065   3.209   6.882 -3.9010 -3.1217 -1.9401
  122SOPE   C1212920   3.957   3.365   6.975  0.3297 -0.1189 -0.3345
  122SOPE  H12A12921   4.038   3.439   6.956  0.7545 -0.4355  0.2265
  122SOPE  H12B12922   3.923   3.390   7.078  1.4141  1.6159 -0.3570
  122SOPE   C1112923   3.854   3.382   6.854 -0.0235 -0.4087 -0.4787
  122SOPE  H11A12924   3.822   3.488   6.850  0.2073 -0.3583 -1.2084
  122SOPE  H11B12925   3.761   3.324   6.872 -1.1263  0.8072 -1.8894
  122SOPE     P12926   3.812   3.297   6.613 -0.1329  0.7962  0.1350
  122SOPE   O1312927   3.709   3.403   6.593  0.0019  0.5139 -0.3368
  122SOPE   O1412928   3.759   3.163   6.635 -0.1668 -0.8243  0.2887
  122SOPE   O1212929   3.912   3.337   6.729  0.5347  0.4237 -0.3959
  122SOPE   O1112930   3.896   3.299   6.486  0.0227  0.4119 -0.3569
  122SOPE    C112931   4.015   3.375   6.465  0.0510  0.5522  0.6754
  122SOPE    HA12932   4.101   3.325   6.516 -0.4770 -3.0698 -1.5892
  122SOPE    HB12933   4.002   3.483   6.486 -0.8741  0.6298 -0.2339
  122SOPE    C212934   4.057   3.360   6.313  0.6965  0.5941 -0.0599
  122SOPE    HS12935   3.986   3.424   6.256  0.1039 -0.1604 -0.1760
  122SOPE   O2112936   4.049   3.223   6.265  0.1950  0.1924  0.7783
  122SOPE   C2112937   3.983   3.206   6.142 -0.8744 -0.3017 -0.1891
  122SOPE   O2212938   3.957   3.300   6.072  0.5796  0.4095 -0.0397
  122SOPE   C2212939   3.988   3.061   6.103  0.3366  0.5430  0.7343
  122SOPE   H2R12940   3.955   3.004   6.192  1.6587  3.1200  3.0674
  122SOPE   H2S12941   4.089   3.029   6.070 -0.3891 -1.3806  0.2807
  122SOPE    C312942   4.193   3.430   6.293 -0.3466 -0.2765 -0.0817
  122SOPE    HX12943   4.262   3.375   6.361 -1.6718 -1.5121  0.3290
  122SOPE    HY12944   4.187   3.535   6.329 -1.0761 -0.3596  0.0637
  122SOPE   O3112945   4.238   3.418   6.155 -0.5087 -0.6666  0.0181
  122SOPE   C3112946   4.182   3.506   6.067 -1.1929  0.0794  0.8212
  122SOPE   O3212947   4.102   3.594   6.096 -0.4379 -0.2001  0.0996
  122SOPE   C3212948   4.233   3.475   5.926  0.2256 -0.1279 -0.3242
  122SOPE   H2X12949   4.183   3.378   5.901 -2.1255  0.9220 -0.0135
  122SOPE   H2Y12950   4.342   3.457   5.930  0.2924  0.1579 -0.8080
  122SOPE   C2312951   3.890   3.034   5.978 -0.3387  0.5038  0.6718
  122SOPE   H3R12952   3.792   3.084   5.984 -0.6075  0.2170 -0.8060
  122SOPE   H3S12953   3.871   2.924   5.978 -1.6915  0.7210 -0.1235
  122SOPE   C2412954   3.956   3.050   5.845  0.5429 -0.2387  0.1509
  122SOPE   H4R12955   3.959   3.160   5.827 -0.6433 -0.6122 -2.9124
  122SOPE   H4S12956   4.060   3.010   5.843  0.5180 -0.4964  1.9615
  122SOPE   C2512957   3.882   2.985   5.726  0.4904 -0.4777 -0.4731
  122SOPE   H5R12958   3.885   2.874   5.723  0.1131 -0.5551  1.2612
  122SOPE   H5S12959   3.772   3.003   5.727  0.7016  0.9626 -1.1181
  122SOPE   C2612960   3.950   3.033   5.600  0.5121  0.0882 -0.2774
  122SOPE   H6R12961   4.058   3.009   5.606  0.7111  0.7870 -0.8442
  122SOPE   H6S12962   3.911   2.975   5.514 -1.7686 -0.8103  1.2708
  122SOPE   C2712963   3.930   3.185   5.566 -0.0229 -0.3269  1.1746
  122SOPE   H7R12964   3.998   3.236   5.638 -1.5690 -1.6580  3.7589
  122SOPE   H7S12965   3.978   3.198   5.467 -0.0189 -0.4200  1.1640
  122SOPE   C2812966   3.789   3.247   5.560  0.3717 -0.4331  0.1664
  122SOPE   H8R12967   3.743   3.216   5.657 -0.0861 -0.6713 -0.1235
  122SOPE   H8S12968   3.790   3.357   5.552  0.2298 -0.2815  1.7575
  122SOPE   C2912969   3.692   3.202   5.460 -0.4296 -0.6933 -0.0923
  122SOPE   H9112970   3.617   3.129   5.494  1.2048 -3.9514 -2.8679
  122SOPE  C21012971   3.686   3.244   5.329  0.4363  0.6529 -0.0657
  122SOPE  H10112972   3.603   3.209   5.267  0.2141  1.7529 -0.4109
  122SOPE  C21112973   3.781   3.333   5.255  0.8038 -0.2038 -0.4760
  122SOPE  H11R12974   3.878   3.282   5.235  1.4105  0.4391  0.7299
  122SOPE  H11S12975   3.817   3.409   5.327 -0.0673 -0.0387 -0.2100
  122SOPE  C21212976   3.723   3.386   5.134  0.1127  0.1786  0.1151
  122SOPE  H12R12977   3.788   3.464   5.089 -0.5685 -1.4805 -4.2074
  122SOPE  H12S12978   3.622   3.430   5.139 -0.7298 -1.7472  1.0614
  122SOPE  C21312979   3.718   3.286   5.019  0.0106  0.6118 -0.0126
  122SOPE  H13R12980   3.668   3.188   5.034  3.3449 -1.0765  1.1764
  122SOPE  H13S12981   3.823   3.269   4.985 -0.1874 -0.1957 -0.2398
  122SOPE  C21412982   3.627   3.337   4.901  0.9394  1.3223 -0.4265
  122SOPE  H14R12983   3.533   3.368   4.952  0.8050 -1.5481  1.2987
  122SOPE  H14S12984   3.593   3.264   4.824 -0.9998  0.5853  1.0520
  122SOPE  C21512985   3.676   3.468   4.838 -0.8848  0.0335  0.4954
  122SOPE  H15R12986   3.748   3.524   4.901 -0.1468  1.3290 -1.3948
  122SOPE  H15S12987   3.583   3.528   4.830  0.4665  2.2796  0.9048
  122SOPE  C21612988   3.746   3.455   4.707 -0.6508  0.1131  0.1526
  122SOPE  H16R12989   3.692   3.392   4.633  0.5160 -0.2035 -0.4370
  122SOPE  H16S12990   3.841   3.398   4.705 -1.3653 -1.1335 -1.7757
  122SOPE  C21712991   3.782   3.590   4.640  0.1201 -0.1027  0.0182
  122SOPE  H17R12992   3.872   3.623   4.697 -0.2877  0.4245  0.3608
  122SOPE  H17S12993   3.697   3.661   4.649 -1.2414 -1.6404 -0.2249
  122SOPE  C21812994   3.812   3.583   4.496 -0.4536  0.4482  0.0821
  122SOPE  H18R12995   3.907   3.529   4.475 -1.6693 -1.5724 -0.4239
  122SOPE  H18S12996   3.831   3.686   4.457 -0.6066  0.0947 -0.9679
  122SOPE  H18T12997   3.739   3.535   4.427  0.6120 -0.8843 -0.1439
  122SOPE   C3312998   4.186   3.580   5.819  0.3290  0.2266 -0.0867
  122SOPE   H3X12999   4.245   3.674   5.820  3.5233 -1.6144 -0.6536
  122SOPE   H3Y13000   4.078   3.601   5.830  0.4283 -0.3236  2.6792
  122SOPE   C3413001   4.192   3.515   5.682 -0.2317 -0.7115 -0.0958
  122SOPE   H4X13002   4.141   3.416   5.685 -1.4655 -0.1566 -1.6558
  122SOPE   H4Y13003   4.294   3.495   5.642 -0.1519  0.4152 -0.4716
  122SOPE   C3513004   4.122   3.603   5.585 -0.2031  0.9435 -0.3285
  122SOPE   H5X13005   4.164   3.705   5.575 -3.2937  2.4568  0.6355
  122SOPE   H5Y13006   4.015   3.604   5.616 -0.9217 -0.9525 -2.4968
  122SOPE   C3613007   4.128   3.536   5.442  0.6097  0.9541  0.1155
  122SOPE   H6X13008   4.056   3.452   5.430  1.9959 -0.2194 -0.4646
  122SOPE   H6Y13009   4.228   3.491   5.420  0.3531  0.5981 -0.3390
  122SOPE   C3713010   4.092   3.638   5.337 -0.4012  0.0331  0.1539
  122SOPE   H7X13011   4.155   3.728   5.353 -3.1797  1.7825  2.2038
  122SOPE   H7Y13012   3.990   3.676   5.359  1.3093  5.1068  0.4616
  122SOPE   C3813013   4.095   3.586   5.191  0.4845 -0.6063  0.6390
  122SOPE   H8X13014   4.021   3.506   5.174  0.7574 -0.6439 -0.4800
  122SOPE   H8Y13015   4.192   3.546   5.156 -0.8292 -0.5508 -3.6014
  122SOPE   C3913016   4.060   3.696   5.091  0.4344 -0.3211  0.2689
  122SOPE   H9X13017   4.061   3.658   4.986 -0.3048 -1.2808  0.5944
  122SOPE   H9Y13018   4.135   3.777   5.101  1.4772 -1.1000 -0.8964
  122SOPE  C31013019   3.919   3.761   5.104  0.2436 -0.4772 -0.3848
  122SOPE  H10X13020   3.948   3.843   5.173  0.5382 -0.8825 -0.0166
  122SOPE  H10Y13021   3.842   3.700   5.157 -0.4385  1.4107  0.9091
  122SOPE  C31113022   3.864   3.835   4.983  0.3619  0.3051  0.8102
  122SOPE  H11X13023   3.774   3.896   5.008  1.8155  2.3080  1.4607
  122SOPE  H11Y13024   3.826   3.764   4.907  0.8785  1.9658 -1.0757
  122SOPE  C31213025   3.967   3.933   4.919 -0.0348  0.5439 -0.9598
  122SOPE  H12X13026   4.049   3.875   4.872 -0.9877 -0.9848 -0.7981
  122SOPE  H12Y13027   4.002   4.002   4.998  0.2896  0.2305 -0.8297
  122SOPE  C31313028   3.906   4.018   4.803 -0.2681 -0.0652 -1.0581
  122SOPE  H13X13029   3.829   4.081   4.852  0.6941  0.2288  0.1108
  122SOPE  H13Y13030   3.851   3.954   4.731 -2.1820  1.0208 -0.6345
  122SOPE  C31413031   4.005   4.108   4.728  0.4942  0.2325 -0.0559
  122SOPE  H14X13032   4.086   4.042   4.689  0.9079  1.2388 -0.9258
  122SOPE  H14Y13033   4.056   4.183   4.793  1.5302  1.8286 -2.5783
  122SOPE  C31513034   3.933   4.162   4.604 -0.2592  0.2170  0.3446
  122SOPE  H15X13035   3.996   4.241   4.558 -0.2916  0.8552  1.3648
  122SOPE  H15Y13036   3.831   4.201   4.627  0.5203  2.3711  0.3424
  122SOPE  C31613037   3.908   4.059   4.495  0.4644  0.5912  0.2959
  122SOPE  H16X13038   3.827   3.988   4.518  0.9645 -0.5539 -1.2953
  122SOPE  H16Y13039   3.995   3.991   4.481 -1.2896 -1.8969  1.0355
  122SOPE  C31713040   3.879   4.114   4.355  0.9386  0.1935  0.1591
  122SOPE  H17X13041   3.836   4.033   4.293 -2.1346  1.7005  0.1257
  122SOPE  H17Y13042   3.975   4.152   4.314  0.6311  0.3941 -0.3778
  122SOPE  C31813043   3.777   4.225   4.351 -0.5163  0.2338  1.2157
  122SOPE  H18X13044   3.680   4.213   4.403 -2.2625  3.6788 -0.8373
  122SOPE  H18Y13045   3.746   4.223   4.244 -0.7851 -1.6692  1.2959
  122SOPE  H18Z13046   3.818   4.324   4.382 -1.4537  0.5699  1.4056
  123SOPE     N13047   5.632   2.298   2.391  0.5854  0.1506  0.2277
  123SOPE   HN113048   5.652   2.196   2.381 -0.9898 -0.3009  1.2623
  123SOPE   HN213049   5.694   2.350   2.327  0.2716 -2.4351 -2.3987
  123SOPE   HN313050   5.663   2.333   2.484 -0.4278  1.1513  0.2055
  123SOPE   C1213051   5.483   2.324   2.397 -0.0445 -0.4770 -0.6817
  123SOPE  H12A13052   5.452   2.333   2.504  1.6462  2.0121 -0.3037
  123SOPE  H12B13053   5.429   2.238   2.353  0.0457 -1.8062  1.6414
  123SOPE   C1113054   5.445   2.454   2.326 -0.0514 -0.4436  0.5773
  123SOPE  H11A13055   5.334   2.449   2.319 -0.1995  0.8007  1.7210
  123SOPE  H11B13056   5.487   2.463   2.223 -1.6532 -1.2422 -0.1736
  123SOPE     P13057   5.411   2.693   2.445 -0.0964  0.4363 -0.4342
  123SOPE   O1313058   5.297   2.660   2.527 -0.1273  0.3484 -0.3495
  123SOPE   O1413059   5.394   2.770   2.317 -0.9278  0.1785  0.3825
  123SOPE   O1213060   5.484   2.559   2.411 -0.0304  0.0975 -0.2631
  123SOPE   O1113061   5.520   2.774   2.527  0.3090 -0.4382  0.3685
  123SOPE    C113062   5.638   2.721   2.578 -0.2626 -0.7966  0.1607
  123SOPE    HA13063   5.698   2.811   2.605 -0.9525 -0.0515 -0.6905
  123SOPE    HB13064   5.704   2.677   2.500 -0.1446  2.1297 -1.5565
  123SOPE    C213065   5.602   2.631   2.697 -0.1523  0.0671  0.0069
  123SOPE    HS13066   5.552   2.543   2.652 -1.5888 -0.0272  1.6545
  123SOPE   O2113067   5.508   2.697   2.787 -0.3048  0.0636  0.4566
  123SOPE   C2113068   5.438   2.613   2.863 -0.2517  0.3217 -0.2044
  123SOPE   O2213069   5.426   2.494   2.840  0.0576 -0.8562  0.3448
  123SOPE   C2213070   5.347   2.697   2.962 -0.1711 -0.2163 -0.2119
  123SOPE   H2R13071   5.277   2.759   2.902 -0.9693  0.1416  1.0721
  123SOPE   H2S13072   5.419   2.755   3.022 -1.5808  0.6621  0.6721
  123SOPE    C313073   5.736   2.582   2.767  0.2972 -0.3947  0.5757
  123SOPE    HX13074   5.770   2.660   2.838  0.6367 -0.5521  0.5934
  123SOPE    HY13075   5.808   2.582   2.682  0.2079 -2.2438  0.4605
  123SOPE   O3113076   5.733   2.456   2.841 -0.1229  0.8560 -0.0697
  123SOPE   C3113077   5.711   2.351   2.764  0.3408 -0.0660 -0.5865
  123SOPE   O3213078   5.701   2.354   2.643  0.2100 -0.1717  0.2500
  123SOPE   C3213079   5.706   2.221   2.843  0.1150 -0.1111  0.0325
  123SOPE   H2X13080   5.788   2.163   2.796 -1.3052 -0.0025 -2.8076
  123SOPE   H2Y13081   5.613   2.172   2.809 -0.1913  0.3942  0.1345
  123SOPE   C2313082   5.266   2.600   3.053 -0.4341 -0.4967  0.1360
  123SOPE   H3R13083   5.340   2.548   3.118  0.2270  1.5108  1.0862
  123SOPE   H3S13084   5.205   2.528   2.995  0.6841 -0.2621 -1.3972
  123SOPE   C2413085   5.167   2.672   3.139  0.4370  0.0575 -0.4945
  123SOPE   H4R13086   5.197   2.757   3.203  1.0559  1.0361 -2.0318
  123SOPE   H4S13087   5.088   2.717   3.074  0.6867 -0.6586 -1.3149
  123SOPE   C2513088   5.085   2.590   3.241 -0.2559 -0.8264  0.1731
  123SOPE   H5R13089   4.985   2.633   3.260 -1.2468 -3.7999  2.5425
  123SOPE   H5S13090   5.064   2.493   3.191  1.9103 -0.2012 -2.1907
  123SOPE   C2613091   5.150   2.584   3.375 -0.5727 -0.0053 -0.1680
  123SOPE   H6R13092   5.244   2.525   3.371 -0.3742  0.3649 -1.2108
  123SOPE   H6S13093   5.189   2.678   3.421  1.1018 -1.1288  0.7938
  123SOPE   C2713094   5.057   2.531   3.480  0.6462  0.4305 -0.1655
  123SOPE   H7R13095   4.967   2.595   3.484  0.7067  0.6199 -1.4519
  123SOPE   H7S13096   5.034   2.433   3.433  1.1459 -0.1770  0.8247
  123SOPE   C2813097   5.132   2.509   3.614  0.7270  0.0375  0.5007
  123SOPE   H8R13098   5.084   2.424   3.667  2.7716 -0.6216  1.3571
  123SOPE   H8S13099   5.233   2.468   3.597  2.1725  3.3716  0.2729
  123SOPE   C2913100   5.144   2.635   3.696  0.0095 -0.0019 -1.3126
  123SOPE   H9113101   5.194   2.713   3.637 -1.6212 -0.6464 -3.6840
  123SOPE  C21013102   5.104   2.659   3.823  0.5722 -0.3957  0.1592
  123SOPE  H10113103   5.134   2.753   3.872  1.5175  1.1321 -3.0728
  123SOPE  C21113104   5.029   2.566   3.910 -0.3545  0.1131  0.3109
  123SOPE  H11R13105   5.005   2.470   3.858  1.5133 -0.0982 -0.2222
  123SOPE  H11S13106   4.934   2.615   3.941 -0.2905  0.4545 -0.0278
  123SOPE  C21213107   5.108   2.536   4.041  0.9353 -0.1659  0.5077
  123SOPE  H12R13108   5.126   2.630   4.097 -0.3307 -0.0251  0.7165
  123SOPE  H12S13109   5.205   2.501   4.000 -1.1445 -3.0111 -2.5051
  123SOPE  C21313110   5.038   2.436   4.130  0.6445  0.7342  0.2044
  123SOPE  H13R13111   5.104   2.403   4.214 -1.1798 -0.4027  1.2648
  123SOPE  H13S13112   5.005   2.341   4.082  1.2704 -0.0221  1.2273
  123SOPE  C21413113   4.926   2.508   4.212 -0.1193  0.4541  0.1476
  123SOPE  H14R13114   4.850   2.564   4.154  0.1026  3.3725  2.4283
  123SOPE  H14S13115   4.986   2.578   4.274  0.2409 -1.5756  2.2312
  123SOPE  C21513116   4.862   2.413   4.319  0.1671  0.5450  0.2967
  123SOPE  H15R13117   4.824   2.493   4.386  0.8707  1.2932 -0.1780
  123SOPE  H15S13118   4.935   2.369   4.389  0.2084 -0.4400 -0.3472
  123SOPE  C21613119   4.741   2.332   4.273 -0.2575 -0.1605 -0.2967
  123SOPE  H16R13120   4.773   2.242   4.217 -1.7402 -0.8443 -0.0952
  123SOPE  H16S13121   4.685   2.396   4.201  0.1606 -0.5025 -0.9397
  123SOPE  C21713122   4.655   2.284   4.386  0.0395 -0.5319 -0.0175
  123SOPE  H17R13123   4.553   2.270   4.345 -0.7890  0.7657  1.4951
  123SOPE  H17S13124   4.653   2.368   4.458 -1.5473 -0.2525 -0.3442
  123SOPE  C21813125   4.705   2.156   4.460  0.3642  0.1707  0.1017
  123SOPE  H18R13126   4.645   2.161   4.553  1.0001  1.6398  0.4486
  123SOPE  H18S13127   4.812   2.153   4.489  0.5462 -0.3017 -0.5966
  123SOPE  H18T13128   4.668   2.062   4.412 -2.9576  2.2471 -1.7540
  123SOPE   C3313129   5.726   2.229   2.992 -0.5716  0.0879 -0.1746
  123SOPE   H3X13130   5.645   2.283   3.044 -0.7674 -0.0072 -0.3792
  123SOPE   H3Y13131   5.820   2.284   3.016 -2.5446  3.4146  0.5985
  123SOPE   C3413132   5.743   2.088   3.050  0.5294  0.2346 -1.2180
  123SOPE   H4X13133   5.807   2.025   2.985 -0.1586 -2.1240  0.2551
  123SOPE   H4Y13134   5.648   2.029   3.050  0.5995 -0.0554  1.7639
  123SOPE   C3513135   5.802   2.089   3.192 -0.7834  0.2832  0.4648
  123SOPE   H5X13136   5.757   2.175   3.247 -0.7591  1.7833 -1.7497
  123SOPE   H5Y13137   5.911   2.108   3.180 -0.2561 -3.1210 -1.0543
  123SOPE   C3613138   5.772   1.959   3.264 -0.0252 -0.2253  0.2592
  123SOPE   H6X13139   5.809   1.879   3.196  0.4729  0.6634 -0.5415
  123SOPE   H6Y13140   5.664   1.934   3.266  0.0230 -0.3915  0.7743
  123SOPE   C3713141   5.842   1.934   3.398  0.2502 -0.1979  0.4285
  123SOPE   H7X13142   5.947   1.964   3.375  0.0526  0.2883  0.1538
  123SOPE   H7Y13143   5.845   1.824   3.413  0.3764 -0.4192 -1.0728
  123SOPE   C3813144   5.779   2.009   3.516 -0.8315  0.1431 -0.8174
  123SOPE   H8X13145   5.712   2.090   3.481  0.1492  1.2616 -0.1574
  123SOPE   H8Y13146   5.856   2.075   3.562 -1.5647  1.6931 -1.7187
  123SOPE   C3913147   5.708   1.921   3.627 -0.5618  0.1291  0.3313
  123SOPE   H9X13148   5.775   1.833   3.642 -1.8362 -0.9524 -0.1432
  123SOPE   H9Y13149   5.615   1.887   3.578  0.5994  0.1820 -2.1133
  123SOPE  C31013150   5.679   2.001   3.749  0.5284 -0.5643  0.3259
  123SOPE  H10X13151   5.613   2.089   3.732  1.1958  0.2747  1.8201
  123SOPE  H10Y13152   5.773   2.048   3.784  0.1447  0.6446 -0.2101
  123SOPE  C31113153   5.622   1.925   3.872  0.3692 -0.3470 -0.4993
  123SOPE  H11X13154   5.672   1.826   3.872  1.4623  0.1864  0.1778
  123SOPE  H11Y13155   5.518   1.901   3.843  0.1453  1.0466 -0.9355
  123SOPE  C31213156   5.651   1.991   4.010  0.5813  0.3589 -0.1805
  123SOPE  H12X13157   5.587   2.082   4.010  0.7078  0.4481 -0.1108
  123SOPE  H12Y13158   5.756   2.026   4.003  0.8188 -0.2520  0.1885
  123SOPE  C31313159   5.652   1.912   4.136 -0.0501  0.8164  0.2100
  123SOPE  H13X13160   5.704   1.815   4.119 -1.4444  0.1199 -0.3016
  123SOPE  H13Y13161   5.541   1.903   4.142 -0.3175  3.0390 -0.5246
  123SOPE  C31413162   5.706   1.997   4.256  0.3636  0.0487 -0.0997
  123SOPE  H14X13163   5.638   2.084   4.271  1.1005  0.4789  0.9413
  123SOPE  H14Y13164   5.795   2.045   4.210 -0.3664 -0.2829 -1.9188
  123SOPE  C31513165   5.746   1.919   4.382 -0.1471 -0.1951 -0.5455
  123SOPE  H15X13166   5.803   1.832   4.343  1.1377 -1.1644  3.1217
  123SOPE  H15Y13167   5.661   1.878   4.441 -1.2008  1.0131 -1.1803
  123SOPE  C31613168   5.852   2.003   4.472  0.3572 -0.5588 -0.3629
  123SOPE  H16X13169   5.936   2.044   4.413 -0.1562  0.8849 -0.1160
  123SOPE  H16Y13170   5.887   1.922   4.541 -2.3689 -0.9962  0.6271
  123SOPE  C31713171   5.792   2.103   4.563  0.2587 -0.0185 -0.5866
  123SOPE  H17X13172   5.719   2.064   4.637 -0.5476  2.9877  0.3605
  123SOPE  H17Y13173   5.727   2.180   4.515  0.9540  1.7158  1.0931
  123SOPE  C31813174   5.897   2.184   4.635  0.0405 -0.4294 -0.0305
  123SOPE  H18X13175   5.953   2.128   4.713  0.5620  1.0287  0.6853
  123SOPE  H18Y13176   5.857   2.274   4.687  1.0041 -0.9824  1.7311
  123SOPE  H18Z13177   5.975   2.218   4.564  0.1338  0.7627  0.6160
  124SOPE     N13178   6.130   5.952   2.112 -0.9515  0.7286  0.7045
  124SOPE   HN113179   6.065   6.001   2.178 -0.1406 -0.4534  2.4536
  124SOPE   HN213180   6.077   5.875   2.066  0.7172  0.7093 -1.3461
  124SOPE   HN313181   6.207   5.921   2.174 -0.1998 -1.1710 -1.0749
  124SOPE   C1213182   6.189   6.043   2.005  0.2906 -0.0650 -0.1275
  124SOPE  H12A13183   6.119   6.111   1.952  0.8385 -1.2962 -2.5539
  124SOPE  H12B13184   6.234   5.979   1.926  0.9573 -0.6946  0.7433
  124SOPE   C1113185   6.300   6.120   2.072 -0.0839 -0.2709 -0.1792
  124SOPE  H11A13186   6.260   6.196   2.142  1.8561  0.4270  0.2420
  124SOPE  H11B13187   6.351   6.178   1.992  0.1863  0.9507  0.8661
  124SOPE     P13188   6.530   6.064   2.185 -0.4741 -0.0642 -0.1220
  124SOPE   O1313189   6.595   6.162   2.097 -0.2322 -0.9105 -0.6269
  124SOPE   O1413190   6.601   5.939   2.222  0.3430  0.7509  0.6477
  124SOPE   O1213191   6.393   6.022   2.121 -0.2806 -0.2470  0.2198
  124SOPE   O1113192   6.478   6.154   2.317 -0.5107  0.1481 -0.0577
  124SOPE    C113193   6.387   6.102   2.416 -0.3305 -0.2480 -0.1625
  124SOPE    HA13194   6.379   5.991   2.421  1.1766 -0.5221 -2.5205
  124SOPE    HB13195   6.288   6.148   2.398 -0.8660  0.5133  3.6982
  124SOPE    C213196   6.436   6.150   2.556 -0.1898 -0.2415 -0.0719
  124SOPE    HS13197   6.361   6.127   2.634  0.0078 -0.2208  0.1257
  124SOPE   O2113198   6.497   6.289   2.558  0.1258  0.6297  0.3217
  124SOPE   C2113199   6.426   6.369   2.644  0.0464 -0.3075 -0.0349
  124SOPE   O2213200   6.321   6.331   2.700 -0.2552 -0.2681  0.3819
  124SOPE   C2213201   6.509   6.491   2.684 -0.2188  0.1882  0.3478
  124SOPE   H2R13202   6.505   6.561   2.598 -2.3519 -1.0719 -0.6502
  124SOPE   H2S13203   6.615   6.463   2.705  0.2759  1.0225 -0.9208
  124SOPE    C313204   6.561   6.062   2.611 -0.1754  0.2443 -0.1380
  124SOPE    HX13205   6.648   6.071   2.542  0.3654  1.9044  0.6892
  124SOPE    HY13206   6.528   5.957   2.598 -0.8584  0.6350 -1.9586
  124SOPE   O3113207   6.579   6.095   2.746 -0.2293  0.4867  0.3205
  124SOPE   C3113208   6.710   6.096   2.784 -0.7693 -0.3055  0.1571
  124SOPE   O3213209   6.810   6.097   2.718  0.1676 -0.5178 -0.2214
  124SOPE   C3213210   6.719   6.115   2.939  0.4341  0.3869 -1.1459
  124SOPE   H2X13211   6.649   6.197   2.964  0.4827 -0.0035  0.3734
  124SOPE   H2Y13212   6.824   6.140   2.966  0.3293 -0.5990  0.2648
  124SOPE   C2313213   6.441   6.562   2.811  0.4543  0.3877 -0.1601
  124SOPE   H3R13214   6.335   6.583   2.786  0.1289 -0.7268  0.2453
  124SOPE   H3S13215   6.489   6.662   2.813  0.9903  0.1295  0.6871
  124SOPE   C2413216   6.453   6.479   2.946  0.5995  0.2762  0.2167
  124SOPE   H4R13217   6.434   6.372   2.924 -0.6134 -0.0764  2.5799
  124SOPE   H4S13218   6.558   6.483   2.983  0.0537  1.6904  1.7453
  124SOPE   C2513219   6.370   6.529   3.072  0.0570 -0.4884 -0.0164
  124SOPE   H5R13220   6.367   6.639   3.058  1.1426 -0.7341 -2.9645
  124SOPE   H5S13221   6.269   6.487   3.049  0.2351  0.6141 -3.5161
  124SOPE   C2613222   6.432   6.487   3.199  0.0152  0.2753 -0.7211
  124SOPE   H6R13223   6.444   6.377   3.206  2.9290  0.5915  0.7930
  124SOPE   H6S13224   6.536   6.523   3.216 -0.4446  1.3682 -0.1159
  124SOPE   C2713225   6.342   6.538   3.320 -0.2860  0.5036  0.0078
  124SOPE   H7R13226   6.346   6.649   3.317 -2.2427  0.6363  0.9492
  124SOPE   H7S13227   6.235   6.510   3.310 -0.7651  2.6060 -1.6496
  124SOPE   C2813228   6.412   6.490   3.448  0.1054 -0.3494 -0.0219
  124SOPE   H8R13229   6.403   6.380   3.445  0.3123 -0.4129 -4.3260
  124SOPE   H8S13230   6.516   6.528   3.445  0.6951 -1.9676 -0.6799
  124SOPE   C2913231   6.341   6.563   3.560 -0.2337 -0.4659 -0.4893
  124SOPE   H9113232   6.232   6.566   3.549 -0.3851  0.9608  1.0429
  124SOPE  C21013233   6.393   6.630   3.669  1.3035  0.0940 -0.2280
  124SOPE  H10113234   6.326   6.675   3.744  0.7443 -1.6624  0.3698
  124SOPE  C21113235   6.534   6.633   3.716 -0.5064 -0.4927  0.0925
  124SOPE  H11R13236   6.551   6.742   3.721 -1.0648 -0.4290  0.6743
  124SOPE  H11S13237   6.610   6.580   3.655  0.9630  3.0341 -1.4084
  124SOPE  C21213238   6.546   6.584   3.864  0.4298  0.4558  0.8195
  124SOPE  H12R13239   6.531   6.474   3.869  1.0348  0.3249 -0.1337
  124SOPE  H12S13240   6.471   6.634   3.929 -1.1532  0.5386 -0.9819
  124SOPE  C21313241   6.685   6.599   3.933 -0.4630 -0.2769  0.8889
  124SOPE  H13R13242   6.717   6.704   3.947  0.2982 -0.5414  1.2193
  124SOPE  H13S13243   6.754   6.546   3.863 -2.3883 -0.5642 -0.8789
  124SOPE  C21413244   6.709   6.546   4.074  0.8140  0.3083 -0.5453
  124SOPE  H14R13245   6.711   6.435   4.070 -1.1091  0.2621 -1.0558
  124SOPE  H14S13246   6.616   6.571   4.130  0.5048  0.7117 -1.2427
  124SOPE  C21513247   6.835   6.584   4.153  0.1388 -0.2567 -0.0123
  124SOPE  H15R13248   6.881   6.675   4.110  0.3133  0.6270  1.9657
  124SOPE  H15S13249   6.910   6.502   4.145  1.7235  0.8625  2.4442
  124SOPE  C21613250   6.812   6.635   4.305 -0.0178  1.0180 -0.5174
  124SOPE  H16R13251   6.763   6.555   4.364  0.9629  0.5547 -0.3085
  124SOPE  H16S13252   6.744   6.724   4.308 -0.8384  0.4272 -1.1148
  124SOPE  C21713253   6.945   6.683   4.378  0.7039  0.2324 -0.2753
  124SOPE  H17R13254   7.012   6.743   4.313 -2.0569  2.5500 -1.2527
  124SOPE  H17S13255   6.988   6.592   4.423  0.4756  0.8764  1.3220
  124SOPE  C21813256   6.920   6.772   4.509  0.2914 -0.1748  0.3354
  124SOPE  H18R13257   6.855   6.860   4.487  1.0056  0.1642 -0.5042
  124SOPE  H18S13258   7.021   6.803   4.544  0.1155 -0.2917  0.9467
  124SOPE  H18T13259   6.871   6.710   4.586  0.4556  1.1817  1.5827
  124SOPE   C3313260   6.678   5.984   3.015 -0.3069  0.2435 -0.7261
  124SOPE   H3X13261   6.731   5.898   2.969 -0.2255 -0.2439  0.2472
  124SOPE   H3Y13262   6.568   5.976   3.011 -0.4623  1.0216  0.9072
  124SOPE   C3413263   6.712   5.986   3.167 -0.2343  0.4124 -0.3448
  124SOPE   H4X13264   6.815   5.945   3.174 -0.7358 -0.7407  0.7893
  124SOPE   H4Y13265   6.644   5.911   3.214 -1.7206  1.8934 -0.0298
  124SOPE   C3513266   6.691   6.113   3.253  0.2042  0.5993 -0.5182
  124SOPE   H5X13267   6.590   6.144   3.219  0.0147  1.2012  0.5843
  124SOPE   H5Y13268   6.775   6.183   3.233  0.3644  0.4692 -0.2928
  124SOPE   C3613269   6.696   6.097   3.408 -0.4861  0.7296  0.6900
  124SOPE   H6X13270   6.801   6.064   3.422 -0.1652  1.0153 -0.8397
  124SOPE   H6Y13271   6.643   6.004   3.435  1.3502 -0.0202  1.8452
  124SOPE   C3713272   6.656   6.214   3.489 -0.5039 -0.1185 -0.5149
  124SOPE   H7X13273   6.546   6.202   3.499 -0.4730 -0.4366 -0.5294
  124SOPE   H7Y13274   6.691   6.306   3.438  1.0936 -0.7104 -0.5469
  124SOPE   C3813275   6.721   6.218   3.629  0.2892  0.5869  0.4002
  124SOPE   H8X13276   6.705   6.319   3.672  0.3703  1.0697 -0.6941
  124SOPE   H8Y13277   6.828   6.192   3.611  0.3812  0.6626  0.8232
  124SOPE   C3913278   6.665   6.119   3.725 -0.0377  0.2358  0.0194
  124SOPE   H9X13279   6.691   6.015   3.698  0.1019  0.1378  0.5303
  124SOPE   H9Y13280   6.554   6.127   3.717 -0.2694 -1.1601  1.3174
  124SOPE  C31013281   6.701   6.134   3.874  0.3063 -0.3594  0.1985
  124SOPE  H10X13282   6.655   6.047   3.925 -2.8138 -0.2270 -2.0865
  124SOPE  H10Y13283   6.648   6.227   3.904 -0.6703 -0.7144 -0.3799
  124SOPE  C31113284   6.849   6.160   3.894  0.1620  0.2993  0.0665
  124SOPE  H11X13285   6.885   6.250   3.841 -0.7563  0.4520 -0.3253
  124SOPE  H11Y13286   6.902   6.075   3.847 -0.1336 -0.1450  0.5220
  124SOPE  C31213287   6.887   6.162   4.049  0.4722  0.0806  0.4491
  124SOPE  H12X13288   6.842   6.073   4.098 -2.2823  2.2510  2.1786
  124SOPE  H12Y13289   6.832   6.248   4.094  1.4592  0.5834  0.7330
  124SOPE  C31313290   7.032   6.154   4.066 -0.4684  0.5970 -0.0875
  124SOPE  H13X13291   7.085   6.228   4.002  1.8974 -0.4150  0.5656
  124SOPE  H13Y13292   7.073   6.054   4.042  0.8397  0.6286  1.7700
  124SOPE  C31413293   7.057   6.192   4.219 -0.0198 -0.0017 -0.0047
  124SOPE  H14X13294   7.014   6.103   4.269  0.9593 -1.7693 -2.1345
  124SOPE  H14Y13295   7.013   6.292   4.237 -1.1093 -0.6985  1.3511
  124SOPE  C31513296   7.209   6.192   4.260 -0.2400 -0.4841  0.4997
  124SOPE  H15X13297   7.265   6.270   4.203 -0.7109 -0.3111  0.2635
  124SOPE  H15Y13298   7.244   6.089   4.242  0.6049 -0.0451 -0.5139
  124SOPE  C31613299   7.220   6.222   4.409  0.4792 -0.1731 -0.0548
  124SOPE  H16X13300   7.131   6.168   4.446 -1.3463  2.0458 -0.9370
  124SOPE  H16Y13301   7.211   6.331   4.430  1.6511 -0.2054  0.7112
  124SOPE  C31713302   7.346   6.159   4.458  0.2911  0.1057 -0.6037
  124SOPE  H17X13303   7.434   6.202   4.405  2.0121 -1.2046  1.0635
  124SOPE  H17Y13304   7.343   6.049   4.450 -0.9809 -0.0003  0.8193
  124SOPE  C31813305   7.362   6.193   4.607  0.3765 -0.6635  0.3847
  124SOPE  H18X13306   7.446   6.135   4.652  0.2005 -0.6322  0.7615
  124SOPE  H18Y13307   7.277   6.172   4.675  2.7185  0.8877  4.1767
  124SOPE  H18Z13308   7.398   6.296   4.628  0.4312 -0.9128  1.6387
  125SOPE     N13309   2.823   1.650   1.846 -0.0182  0.7702 -0.1715
  125SOPE   HN113310   2.912   1.596   1.848  0.2583  1.1800 -1.0341
  125SOPE   HN213311   2.758   1.616   1.773 -1.7289  0.4364  1.4237
  125SOPE   HN313312   2.844   1.748   1.817 -0.7372  0.1566 -3.1314
  125SOPE   C1213313   2.742   1.649   1.973  0.5388 -0.5729  0.6507
  125SOPE  H12A13314   2.652   1.709   1.950  0.1790 -0.8709  1.2733
  125SOPE  H12B13315   2.806   1.706   2.043 -1.5117  1.7583  0.7821
  125SOPE   C1113316   2.712   1.508   2.031  0.6605  0.1762  0.2585
  125SOPE  H11A13317   2.628   1.467   1.971 -0.9331 -1.7008  3.5313
  125SOPE  H11B13318   2.678   1.520   2.136  1.2676 -2.2171  0.7807
  125SOPE     P13319   2.824   1.272   2.019  0.0348 -0.2207 -0.0849
  125SOPE   O1313320   2.958   1.218   2.064  0.4566  0.3714 -0.0929
  125SOPE   O1413321   2.763   1.242   1.886 -0.0297  0.2646  0.1207
  125SOPE   O1213322   2.829   1.425   2.024  0.2799 -0.2949  0.1967
  125SOPE   O1113323   2.723   1.222   2.136  0.5829  0.0112  0.1056
  125SOPE    C113324   2.755   1.238   2.272  0.1483  0.1180 -0.5140
  125SOPE    HA13325   2.785   1.343   2.293 -2.9078  0.8237  1.0136
  125SOPE    HB13326   2.821   1.158   2.310 -2.0865 -1.5356  0.0965
  125SOPE    C213327   2.626   1.223   2.368 -0.2149  0.3301  0.3397
  125SOPE    HS13328   2.652   1.251   2.472 -1.5790  1.0843  0.5042
  125SOPE   O2113329   2.577   1.090   2.356 -0.2980  0.7978  0.6958
  125SOPE   C2113330   2.523   1.036   2.461  0.3844  0.1459 -0.0862
  125SOPE   O2213331   2.526   1.077   2.577 -0.1671  0.2844 -0.6526
  125SOPE   C2213332   2.462   0.901   2.431  0.0016 -0.7533  0.1466
  125SOPE   H2R13333   2.504   0.865   2.335 -1.5015 -0.1012 -0.7819
  125SOPE   H2S13334   2.352   0.911   2.425  0.1993  1.6195 -0.2705
  125SOPE    C313335   2.505   1.322   2.330 -0.5753 -0.7673 -0.3042
  125SOPE    HX13336   2.455   1.288   2.237 -2.0408 -2.0468  0.9017
  125SOPE    HY13337   2.541   1.425   2.309 -0.5188 -0.4288  1.3027
  125SOPE   O3113338   2.405   1.324   2.428 -0.2288 -0.0412 -0.3527
  125SOPE   C3113339   2.393   1.430   2.508  0.1754  0.6550  0.2942
  125SOPE   O3213340   2.479   1.516   2.527 -0.3993 -0.2771 -0.1238
  125SOPE   C3213341   2.268   1.407   2.595  0.4389  0.4231 -0.5467
  125SOPE   H2X13342   2.268   1.302   2.633 -2.5571  0.5839  0.1889
  125SOPE   H2Y13343   2.174   1.411   2.535  0.0614  1.9606  0.1077
  125SOPE   C2313344   2.502   0.791   2.532  0.3832 -0.1005  0.3489
  125SOPE   H3R13345   2.613   0.781   2.529  0.3036 -0.6680 -0.9464
  125SOPE   H3S13346   2.460   0.695   2.496 -1.0160  0.1165  1.3318
  125SOPE   C2413347   2.461   0.791   2.679 -0.4496  0.2022 -0.9056
  125SOPE   H4R13348   2.512   0.711   2.736  0.2850  0.2705 -1.4528
  125SOPE   H4S13349   2.480   0.893   2.718 -1.0935 -0.5379  1.5355
  125SOPE   C2513350   2.308   0.777   2.692 -0.4209  0.1462 -0.3270
  125SOPE   H5R13351   2.246   0.829   2.616 -0.0427 -0.0603 -0.7808
  125SOPE   H5S13352   2.293   0.668   2.674 -1.8091  0.2741 -0.0988
  125SOPE   C2613353   2.259   0.816   2.835  0.3880 -0.1291  0.3870
  125SOPE   H6R13354   2.159   0.774   2.859  0.0130  1.3181  1.4922
  125SOPE   H6S13355   2.332   0.782   2.911  0.7373  2.7304  1.4563
  125SOPE   C2713356   2.260   0.967   2.853  0.9486 -1.0747  0.9304
  125SOPE   H7R13357   2.359   1.014   2.835 -0.0922  0.5952 -0.7821
  125SOPE   H7S13358   2.194   1.014   2.777  1.2513 -0.8391  0.8115
  125SOPE   C2813359   2.219   1.016   2.994 -0.2377  0.6119 -0.0721
  125SOPE   H8R13360   2.213   1.127   2.994  0.0336  0.6301  0.2271
  125SOPE   H8S13361   2.125   0.961   3.020  0.7618 -1.1836 -0.0770
  125SOPE   C2913362   2.322   0.976   3.097  0.5059  0.7990 -0.6307
  125SOPE   H9113363   2.419   0.953   3.050 -0.9098 -1.0159 -2.8442
  125SOPE  C21013364   2.293   0.947   3.232  0.9709 -0.0231 -0.2405
  125SOPE  H10113365   2.373   0.915   3.301  0.9125 -1.7027 -0.8961
  125SOPE  C21113366   2.159   0.987   3.301 -0.4051 -0.0669 -0.1915
  125SOPE  H11R13367   2.104   0.899   3.342 -0.6087  0.8178  1.5171
  125SOPE  H11S13368   2.090   1.038   3.231  0.8634  1.2166 -0.5630
  125SOPE  C21213369   2.173   1.084   3.420  0.5786  0.1014  0.0722
  125SOPE  H12R13370   2.074   1.130   3.438 -0.2304 -0.9036 -1.5839
  125SOPE  H12S13371   2.251   1.158   3.391  0.2690 -0.3127 -1.9533
  125SOPE  C21313372   2.221   1.014   3.551 -0.4198 -0.5321  0.1803
  125SOPE  H13R13373   2.314   0.955   3.535 -1.5178 -1.9960 -1.0801
  125SOPE  H13S13374   2.138   0.948   3.585 -1.3451  1.3714  1.8306
  125SOPE  C21413375   2.244   1.120   3.656 -0.8534  0.0999 -0.2172
  125SOPE  H14R13376   2.148   1.169   3.683 -0.4823  0.1055  1.1615
  125SOPE  H14S13377   2.303   1.199   3.603 -0.4475  0.2439  0.4249
  125SOPE  C21513378   2.302   1.084   3.790  0.2963  0.1150  0.2835
  125SOPE  H15R13379   2.256   0.993   3.833  1.9195 -1.6634 -1.4904
  125SOPE  H15S13380   2.278   1.169   3.858  2.6221  1.0469  0.0485
  125SOPE  C21613381   2.460   1.071   3.809 -0.0321  0.2033 -0.4329
  125SOPE  H16R13382   2.529   1.142   3.758 -1.1731  0.7372 -1.2788
  125SOPE  H16S13383   2.475   0.972   3.762  2.5566  0.2541  0.1262
  125SOPE  C21713384   2.501   1.060   3.962 -0.1058 -0.7656 -0.3988
  125SOPE  H17R13385   2.460   0.966   4.004  1.7178 -2.5435 -2.3525
  125SOPE  H17S13386   2.461   1.150   4.013 -0.2955 -0.6005 -0.8341
  125SOPE  C21813387   2.651   1.047   3.963  0.3206 -0.1632 -0.4635
  125SOPE  H18R13388   2.692   1.144   3.926 -3.2160  0.8841 -2.0994
  125SOPE  H18S13389   2.677   0.981   3.878  2.3943  0.1693 -0.1384
  125SOPE  H18T13390   2.692   1.014   4.061 -0.7089  1.0844  0.4170
  125SOPE   C3313391   2.242   1.504   2.717 -0.2401  0.5143 -0.2620
  125SOPE   H3X13392   2.158   1.572   2.692 -0.0499  1.2995  1.1348
  125SOPE   H3Y13393   2.335   1.563   2.728 -0.4356  0.7673  0.0456
  125SOPE   C3413394   2.211   1.434   2.847 -0.0794 -0.0157 -0.4647
  125SOPE   H4X13395   2.283   1.351   2.860 -0.3690 -0.4758 -1.6559
  125SOPE   H4Y13396   2.111   1.386   2.855  0.0855 -0.2978 -0.0267
  125SOPE   C3513397   2.222   1.526   2.972 -0.5378  0.1287 -0.3043
  125SOPE   H5X13398   2.147   1.607   2.956 -0.9919  0.4151  2.5919
  125SOPE   H5Y13399   2.324   1.568   2.984 -1.4059  1.7718  2.1131
  125SOPE   C3613400   2.180   1.454   3.102 -0.3077 -0.1915 -0.0885
  125SOPE   H6X13401   2.247   1.366   3.106  0.2207  0.2377  0.7098
  125SOPE   H6Y13402   2.073   1.425   3.095  0.2388 -2.1527 -0.9107
  125SOPE   C3713403   2.198   1.543   3.227  0.3840  0.1942 -0.1816
  125SOPE   H7X13404   2.129   1.629   3.213  0.8964  0.3941 -1.7063
  125SOPE   H7Y13405   2.304   1.574   3.238  0.1864  1.9972 -2.3723
  125SOPE   C3813406   2.154   1.475   3.368 -0.1191  0.5314 -0.3202
  125SOPE   H8X13407   2.208   1.379   3.383 -1.1791  0.0186  0.3367
  125SOPE   H8Y13408   2.046   1.449   3.363 -0.0363 -0.0709  0.6182
  125SOPE   C3913409   2.186   1.567   3.492  0.4870 -0.0590  0.1917
  125SOPE   H9X13410   2.157   1.671   3.465  1.4825  0.1996  0.1050
  125SOPE   H9Y13411   2.295   1.557   3.509  0.3974 -3.8487 -0.6689
  125SOPE  C31013412   2.109   1.510   3.608  0.0384  1.2705 -0.2374
  125SOPE  H10X13413   2.117   1.399   3.613  1.2756  1.3698  0.5036
  125SOPE  H10Y13414   2.001   1.529   3.590 -0.2922 -0.6691 -0.5437
  125SOPE  C31113415   2.150   1.575   3.745 -0.2239 -0.6655  0.3550
  125SOPE  H11X13416   2.141   1.685   3.726  0.2461 -0.7282 -0.2463
  125SOPE  H11Y13417   2.257   1.561   3.770 -0.5540 -1.2376  1.5075
  125SOPE  C31213418   2.054   1.543   3.859 -0.1084 -0.8653  0.0436
  125SOPE  H12X13419   2.044   1.432   3.866  0.4379 -0.8907  0.5940
  125SOPE  H12Y13420   1.955   1.590   3.846  1.8435  3.7320 -0.0255
  125SOPE  C31313421   2.120   1.597   3.992 -0.2785 -0.2297  0.3170
  125SOPE  H13X13422   2.173   1.694   3.983  0.4271 -0.7217 -0.9393
  125SOPE  H13Y13423   2.210   1.533   4.003 -1.6412 -1.9498  2.7524
  125SOPE  C31413424   2.023   1.600   4.109 -0.2179 -0.8039 -0.0451
  125SOPE  H14X13425   1.934   1.664   4.090 -0.5714 -1.0698  0.6715
  125SOPE  H14Y13426   2.083   1.635   4.196 -0.1376  0.0282 -0.4282
  125SOPE  C31513427   1.973   1.458   4.146  0.1112 -0.0551  0.5064
  125SOPE  H15X13428   2.057   1.388   4.129 -0.3756 -0.5086 -0.0654
  125SOPE  H15Y13429   1.903   1.429   4.065  0.9022 -0.4996 -0.0289
  125SOPE  C31613430   1.913   1.449   4.280  0.0545 -0.2294 -0.8484
  125SOPE  H16X13431   1.825   1.515   4.298  1.5105  1.8943 -1.1975
  125SOPE  H16Y13432   1.994   1.486   4.347 -2.7747  0.3935  2.5372
  125SOPE  C31713433   1.872   1.310   4.323  0.4171  1.0910  0.4229
  125SOPE  H17X13434   1.964   1.249   4.313  0.4443  0.9158  1.5525
  125SOPE  H17Y13435   1.791   1.283   4.253  0.5908  1.1580  0.1971
  125SOPE  C31813436   1.818   1.306   4.468  0.1539  0.0238  0.2626
  125SOPE  H18X13437   1.887   1.344   4.546 -0.6078  2.0290  0.0063
  125SOPE  H18Y13438   1.782   1.205   4.500 -0.6785  0.4636  0.7561
  125SOPE  H18Z13439   1.728   1.370   4.480 -1.0142 -1.5938  0.6208
  126SOPE     N13440   0.252   3.981   2.116 -0.2961 -0.0338 -0.8331
  126SOPE   HN113441   0.311   3.908   2.071 -1.1466 -1.6394  0.5255
  126SOPE   HN213442   0.266   4.073   2.069  1.9951 -0.2720 -0.7368
  126SOPE   HN313443   0.292   3.997   2.211 -1.7161 -1.0831 -0.0226
  126SOPE   C1213444   0.113   3.922   2.120 -0.2488 -0.0266 -0.2482
  126SOPE  H12A13445   0.109   3.844   2.199 -2.1972 -0.2181 -0.4878
  126SOPE  H12B13446   0.086   3.878   2.021  2.5790  0.0720 -1.1529
  126SOPE   C1113447   0.026   4.041   2.160 -0.3072 -1.1082  0.6804
  126SOPE  H11A13448  -0.077   4.000   2.165 -1.0054  0.4510 -0.2739
  126SOPE  H11B13449   0.028   4.115   2.078 -0.7383  0.8541  2.3697
  126SOPE     P13450  -0.022   4.195   2.375 -0.0707  0.0402 -0.1744
  126SOPE   O1313451  -0.118   4.277   2.298 -0.7627  0.1331  0.4806
  126SOPE   O1413452   0.072   4.271   2.463  0.2012  0.1546 -0.6375
  126SOPE   O1213453   0.063   4.093   2.284  0.8161 -0.3093 -0.7727
  126SOPE   O1113454  -0.108   4.095   2.463 -0.0752  0.8304  0.1167
  126SOPE    C113455  -0.078   3.966   2.498 -0.2420  0.4304  0.2816
  126SOPE    HA13456   0.027   3.950   2.529 -0.2299 -0.2421 -0.0822
  126SOPE    HB13457  -0.105   3.896   2.415  0.1720  1.5080 -0.7852
  126SOPE    C213458  -0.161   3.928   2.629 -0.0074  0.4967  0.3046
  126SOPE    HS13459  -0.256   3.881   2.597  0.8938 -0.5654 -0.9015
  126SOPE   O2113460  -0.200   4.039   2.712 -0.3292 -0.1258 -0.4509
  126SOPE   C2113461  -0.099   4.123   2.745 -0.0511 -0.1952  0.0806
  126SOPE   O2213462   0.017   4.085   2.756  0.0390  0.0220 -0.1290
  126SOPE   C2213463  -0.130   4.269   2.755 -0.1722  0.1012 -0.1350
  126SOPE   H2R13464  -0.111   4.309   2.653  0.7946  3.3251  1.2001
  126SOPE   H2S13465  -0.044   4.306   2.814 -0.2166  0.5399 -0.3410
  126SOPE    C313466  -0.086   3.814   2.710  0.8004  0.2230 -0.0384
  126SOPE    HX13467   0.023   3.835   2.718  0.3620  2.4390  1.1140
  126SOPE    HY13468  -0.110   3.723   2.650 -1.7304  1.2847 -0.8050
  126SOPE   O3113469  -0.133   3.804   2.844  0.0846 -1.3013  0.3015
  126SOPE   C3113470  -0.243   3.743   2.863  0.1798  0.1973 -0.3632
  126SOPE   O3213471  -0.318   3.685   2.785 -0.1970  0.4631 -0.0476
  126SOPE   C3213472  -0.281   3.769   3.009  0.4600  0.2709 -0.2192
  126SOPE   H2X13473  -0.278   3.878   3.033  0.2272  0.0814  0.6829
  126SOPE   H2Y13474  -0.193   3.734   3.067  1.8081  2.1881 -0.9867
  126SOPE   C2313475  -0.273   4.295   2.797 -1.0992 -0.0671 -0.3634
  126SOPE   H3R13476  -0.336   4.263   2.710  0.0105 -0.6348 -0.9778
  126SOPE   H3S13477  -0.290   4.404   2.811  0.6174  0.2749 -0.7795
  126SOPE   C2413478  -0.319   4.227   2.923 -0.3476  0.1749  0.6948
  126SOPE   H4R13479  -0.419   4.271   2.946 -0.9754 -1.4994  1.2879
  126SOPE   H4S13480  -0.332   4.120   2.898  2.4564 -0.2576  0.8404
  126SOPE   C2513481  -0.232   4.227   3.044  0.7860 -0.6758 -0.2848
  126SOPE   H5R13482  -0.132   4.182   3.027  0.4758 -0.6597 -2.4163
  126SOPE   H5S13483  -0.217   4.330   3.084  0.7866 -0.9320  0.3889
  126SOPE   C2613484  -0.304   4.145   3.168 -0.1922 -0.2886  0.8402
  126SOPE   H6R13485  -0.401   4.196   3.190 -0.4577  0.4602 -1.6726
  126SOPE   H6S13486  -0.330   4.046   3.125 -1.4402  0.5978 -0.5775
  126SOPE   C2713487  -0.217   4.134   3.290  0.7814  0.4102 -0.1282
  126SOPE   H7R13488  -0.122   4.083   3.263 -0.2091 -1.6814  0.1757
  126SOPE   H7S13489  -0.193   4.239   3.316  0.0438  1.0534 -1.8684
  126SOPE   C2813490  -0.285   4.039   3.398 -0.2090  0.1890 -0.3083
  126SOPE   H8R13491  -0.307   3.939   3.355 -1.4266 -0.0956  0.8758
  126SOPE   H8S13492  -0.209   4.025   3.478 -0.6874  2.3523  0.6239
  126SOPE   C2913493  -0.411   4.081   3.474 -0.5690  0.4345  0.2792
  126SOPE   H9113494  -0.482   3.997   3.482 -0.7815  0.7489  2.1298
  126SOPE  C21013495  -0.428   4.184   3.555 -0.2326  0.4046 -0.3019
  126SOPE  H10113496  -0.529   4.191   3.598  1.1281 -0.2600  3.4518
  126SOPE  C21113497  -0.336   4.298   3.572 -1.0885 -0.4632 -0.5458
  126SOPE  H11R13498  -0.383   4.386   3.523 -1.1548 -0.2595 -0.1184
  126SOPE  H11S13499  -0.242   4.276   3.517 -0.7154  1.1269 -0.5750
  126SOPE  C21213500  -0.308   4.328   3.720  0.1636  0.0354  0.0219
  126SOPE  H12R13501  -0.400   4.337   3.782 -0.1920  0.4954 -0.5649
  126SOPE  H12S13502  -0.242   4.417   3.727  0.3694 -0.2098  1.9990
  126SOPE  C21313503  -0.220   4.215   3.786  0.1476  0.0554  0.1191
  126SOPE  H13R13504  -0.116   4.238   3.755  0.2371  1.6944  1.4665
  126SOPE  H13S13505  -0.255   4.122   3.736 -0.1782  0.7120 -0.8987
  126SOPE  C21413506  -0.232   4.201   3.940 -0.3182 -0.0182 -0.1683
  126SOPE  H14R13507  -0.180   4.107   3.969 -0.2938  0.1833  0.4577
  126SOPE  H14S13508  -0.340   4.194   3.965 -0.1612  0.0921  0.5785
  126SOPE  C21513509  -0.179   4.320   4.020  0.1495  0.1862  0.5719
  126SOPE  H15R13510  -0.220   4.408   3.968  1.7703 -0.6168 -2.2642
  126SOPE  H15S13511  -0.070   4.320   3.999  0.2411 -2.0555  0.8070
  126SOPE  C21613512  -0.220   4.317   4.170 -0.2131  1.1911 -1.2662
  126SOPE  H16R13513  -0.167   4.232   4.217 -0.2053  2.5826  1.4616
  126SOPE  H16S13514  -0.327   4.290   4.183  0.0339  0.7881  0.0322
  126SOPE  C21713515  -0.175   4.441   4.241 -1.0852  0.3824  0.1164
  126SOPE  H17R13516  -0.067   4.442   4.214 -1.4573 -2.0372 -1.7783
  126SOPE  H17S13517  -0.206   4.427   4.347 -0.2802 -2.0984  0.0940
  126SOPE  C21813518  -0.251   4.571   4.199 -0.7882 -0.0332 -0.2836
  126SOPE  H18R13519  -0.359   4.555   4.218 -0.1672 -3.2821  1.2518
  126SOPE  H18S13520  -0.220   4.593   4.094 -0.2931 -1.3855 -0.4380
  126SOPE  H18T13521  -0.221   4.657   4.262  0.9830 -0.4167 -0.5226
  126SOPE   C3313522  -0.421   3.720   3.033 -0.0567  0.6876  0.2887
  126SOPE   H3X13523  -0.422   3.614   3.001 -0.9350  1.5907 -3.0611
  126SOPE   H3Y13524  -0.491   3.767   2.962 -0.1544  0.6017  0.3289
  126SOPE   C3413525  -0.462   3.741   3.170  0.3804 -0.2918 -1.1277
  126SOPE   H4X13526  -0.476   3.851   3.177  0.4949 -0.3476  0.1115
  126SOPE   H4Y13527  -0.395   3.706   3.251 -1.1310  0.4828  0.5002
  126SOPE   C3513528  -0.604   3.683   3.197 -0.3107 -0.5985  0.3147
  126SOPE   H5X13529  -0.603   3.574   3.176  1.8298 -0.5457 -0.1213
  126SOPE   H5Y13530  -0.670   3.728   3.121 -0.0416  0.1465  0.5146
  126SOPE   C3613531  -0.649   3.716   3.340  0.0845 -0.0372  0.1335
  126SOPE   H6X13532  -0.628   3.824   3.357 -0.2486  0.3815 -1.8455
  126SOPE   H6Y13533  -0.598   3.660   3.422  0.0184 -0.3748 -0.0518
  126SOPE   C3713534  -0.797   3.714   3.369 -0.1461 -0.2908 -0.2405
  126SOPE   H7X13535  -0.830   3.625   3.311  0.0843  0.5286 -1.6917
  126SOPE   H7Y13536  -0.827   3.812   3.326 -0.4823 -0.5980 -0.7244
  126SOPE   C3813537  -0.832   3.703   3.515 -0.3282 -0.0950 -0.1945
  126SOPE   H8X13538  -0.804   3.599   3.542 -2.9411 -0.7342  0.2688
  126SOPE   H8Y13539  -0.940   3.727   3.525 -0.1539  1.2196 -1.1373
  126SOPE   C3913540  -0.753   3.795   3.611 -0.2200  0.5407 -0.3584
  126SOPE   H9X13541  -0.782   3.897   3.576  1.0866  1.2328  0.4851
  126SOPE   H9Y13542  -0.643   3.784   3.603 -0.3268 -1.0794  0.0518
  126SOPE  C31013543  -0.796   3.779   3.760 -0.1013 -0.3896  0.5040
  126SOPE  H10X13544  -0.749   3.687   3.800  2.5784 -0.4875 -2.5577
  126SOPE  H10Y13545  -0.906   3.761   3.760 -0.2020 -0.0732 -1.7656
  126SOPE  C31113546  -0.744   3.898   3.849  0.1826  0.3874 -0.3252
  126SOPE  H11X13547  -0.808   3.982   3.816 -1.5224 -1.0981 -0.9570
  126SOPE  H11Y13548  -0.641   3.921   3.813  0.6725  1.0683  1.4270
  126SOPE  C31213549  -0.750   3.871   4.006  0.0614  0.0447  0.4746
  126SOPE  H12X13550  -0.711   3.960   4.061 -0.1336  0.4626 -0.0600
  126SOPE  H12Y13551  -0.690   3.784   4.038  0.1798  0.3017  0.9662
  126SOPE  C31313552  -0.884   3.849   4.065 -0.6078  0.3880 -0.4392
  126SOPE  H13X13553  -0.925   3.756   4.020  1.2190 -0.2201 -0.9297
  126SOPE  H13Y13554  -0.949   3.939   4.050 -1.5655  0.0272  1.3017
  126SOPE  C31413555  -0.867   3.836   4.221  0.2803 -0.5194  0.1111
  126SOPE  H14X13556  -0.811   3.928   4.247 -1.1673  0.4283  0.0107
  126SOPE  H14Y13557  -0.801   3.748   4.235  0.4334 -0.3359  0.5715
  126SOPE  C31513558  -0.999   3.831   4.299 -1.0568  0.4292 -0.4253
  126SOPE  H15X13559  -0.962   3.807   4.400 -0.3189 -1.1051 -1.0313
  126SOPE  H15Y13560  -1.062   3.744   4.272  0.4471 -0.3092 -1.6742
  126SOPE  C31613561  -1.071   3.969   4.304  0.5463  0.0145  0.0871
  126SOPE  H16X13562  -1.137   3.972   4.215  1.3249  0.7071 -0.4701
  126SOPE  H16Y13563  -0.994   4.042   4.273  1.1734 -1.8251 -3.1228
  126SOPE  C31713564  -1.164   4.016   4.410  1.0810 -0.6791 -0.0105
  126SOPE  H17X13565  -1.263   3.967   4.399 -0.8790  2.8531  0.2473
  126SOPE  H17Y13566  -1.191   4.123   4.396 -1.9996 -1.3570  0.0655
  126SOPE  C31813567  -1.115   3.999   4.560  0.3705  0.6661  0.6090
  126SOPE  H18X13568  -1.006   4.020   4.569  0.5435 -0.7635  2.4067
  126SOPE  H18Y13569  -1.133   3.892   4.586 -1.2446  0.3108 -1.6470
  126SOPE  H18Z13570  -1.173   4.070   4.621  0.8140  2.1162 -0.6010
  127SOPE     N13571   4.419   4.848   2.403 -0.2532  0.0015 -0.3190
  127SOPE   HN113572   4.339   4.895   2.355 -0.9500 -1.6766 -0.8444
  127SOPE   HN213573   4.426   4.889   2.498  0.9377 -0.7564 -0.0581
  127SOPE   HN313574   4.503   4.883   2.351 -1.1567  2.2271 -0.4258
  127SOPE   C1213575   4.397   4.698   2.396  0.5402  0.3174  0.4498
  127SOPE  H12A13576   4.418   4.670   2.290  0.7984 -1.4370  0.9507
  127SOPE  H12B13577   4.289   4.687   2.419  1.0078 -3.0240  1.4608
  127SOPE   C1113578   4.501   4.625   2.488  0.3079 -0.1434  0.5707
  127SOPE  H11A13579   4.483   4.515   2.488 -1.5824  0.1367  0.9978
  127SOPE  H11B13580   4.475   4.655   2.591 -1.8836  0.9685 -0.2358
  127SOPE     P13581   4.742   4.566   2.520  0.0118  0.0677  0.7257
  127SOPE   O1313582   4.866   4.654   2.517  0.0258  0.0492 -0.4398
  127SOPE   O1413583   4.739   4.438   2.442  0.2121 -0.0133  0.5541
  127SOPE   O1213584   4.634   4.658   2.458  0.3552 -0.3049  0.3399
  127SOPE   O1113585   4.698   4.530   2.665  0.4042 -0.7241 -0.3150
  127SOPE    C113586   4.698   4.632   2.766  0.7258 -0.3628 -0.0677
  127SOPE    HA13587   4.596   4.674   2.780  1.9466  3.1180 -0.6321
  127SOPE    HB13588   4.764   4.716   2.735  2.2256 -1.0410  1.1756
  127SOPE    C213589   4.746   4.577   2.904  0.1216  0.2928 -0.8903
  127SOPE    HS13590   4.783   4.671   2.951 -0.9467 -0.2920  1.2814
  127SOPE   O2113591   4.856   4.481   2.882  0.3077 -0.2566 -0.5779
  127SOPE   C2113592   4.967   4.528   2.822 -0.1667 -0.4329  0.1878
  127SOPE   O2213593   4.982   4.644   2.787  0.6782 -0.3329 -0.0894
  127SOPE   C2213594   5.065   4.421   2.806 -0.6660  0.5540 -0.0940
  127SOPE   H2R13595   5.128   4.445   2.718 -0.5297 -1.4722 -0.5918
  127SOPE   H2S13596   5.012   4.324   2.801 -0.4632  0.3645  1.1020
  127SOPE    C313597   4.655   4.506   3.005  0.9302 -0.2018 -0.3368
  127SOPE    HX13598   4.709   4.478   3.098 -0.0486 -2.5755 -0.3888
  127SOPE    HY13599   4.619   4.414   2.955  0.3760 -0.6522  0.8445
  127SOPE   O3113600   4.546   4.585   3.031  0.2208  0.0792  0.0499
  127SOPE   C3113601   4.438   4.521   3.087  0.2573 -0.6592 -0.4494
  127SOPE   O3213602   4.442   4.405   3.130 -0.1484  0.3687 -0.6589
  127SOPE   C3213603   4.316   4.612   3.091 -0.1371  0.2889  0.4114
  127SOPE   H2X13604   4.235   4.538   3.110  0.6909 -0.3693  1.5344
  127SOPE   H2Y13605   4.285   4.664   2.998 -0.3354 -3.0110 -1.5471
  127SOPE   C2313606   5.157   4.386   2.930  0.0219 -0.0395  0.0700
  127SOPE   H3R13607   5.096   4.340   3.011  0.7414  1.3291  1.4403
  127SOPE   H3S13608   5.193   4.481   2.973  0.5262 -0.0530 -0.3060
  127SOPE   C2413609   5.276   4.296   2.896  0.5307 -0.6248  0.4203
  127SOPE   H4R13610   5.249   4.206   2.835 -0.4747  0.8329 -1.3957
  127SOPE   H4S13611   5.339   4.353   2.824  0.7490 -1.1921  0.1504
  127SOPE   C2513612   5.360   4.265   3.020  0.0656  0.1927  0.1762
  127SOPE   H5R13613   5.462   4.226   2.997  1.2385  1.5965  2.5396
  127SOPE   H5S13614   5.377   4.360   3.075 -0.3992 -0.0387  0.7315
  127SOPE   C2613615   5.300   4.164   3.118  0.8738 -0.6408  0.4730
  127SOPE   H6R13616   5.206   4.211   3.155  0.7561 -1.0369  0.6865
  127SOPE   H6S13617   5.259   4.084   3.052 -0.9729  0.6747 -0.0711
  127SOPE   C2713618   5.385   4.096   3.229 -1.1512  0.3366 -0.1064
  127SOPE   H7R13619   5.311   4.027   3.276 -0.1056 -0.2705  0.7057
  127SOPE   H7S13620   5.471   4.041   3.184  1.3165  3.9228 -0.1928
  127SOPE   C2813621   5.458   4.193   3.328 -0.7603 -0.2429 -0.1747
  127SOPE   H8R13622   5.522   4.140   3.401 -0.7416 -0.2689 -0.2100
  127SOPE   H8S13623   5.514   4.267   3.267 -0.4253  0.3747  0.8550
  127SOPE   C2913624   5.358   4.284   3.400  0.3413 -0.0440  0.1748
  127SOPE   H9113625   5.345   4.385   3.357 -0.8876  0.0839  0.8007
  127SOPE  C21013626   5.309   4.259   3.525  0.2431  0.1537 -0.2129
  127SOPE  H10113627   5.233   4.322   3.572 -0.6919  0.1069 -1.5941
  127SOPE  C21113628   5.342   4.135   3.597  0.6257  0.4254 -0.1831
  127SOPE  H11R13629   5.452   4.128   3.617  0.3690  1.1113  1.7323
  127SOPE  H11S13630   5.311   4.042   3.545 -1.2695  0.7921  0.2462
  127SOPE  C21213631   5.271   4.150   3.732 -0.2656 -0.0044 -0.1069
  127SOPE  H12R13632   5.162   4.163   3.717 -0.4665 -1.0507  0.3814
  127SOPE  H12S13633   5.297   4.243   3.788 -1.2166  0.0115  0.3358
  127SOPE  C21313634   5.281   4.031   3.828  0.3560 -0.3324  0.3595
  127SOPE  H13R13635   5.236   3.941   3.780 -2.1211  0.1864  1.5650
  127SOPE  H13S13636   5.234   4.069   3.921  1.5958  0.7945  0.5674
  127SOPE  C21413637   5.424   3.983   3.864 -0.7365  0.6161  0.0159
  127SOPE  H14R13638   5.477   4.072   3.904 -2.3628  2.6059 -1.9990
  127SOPE  H14S13639   5.475   3.970   3.766 -1.3597  0.8808 -0.3522
  127SOPE  C21513640   5.417   3.854   3.948 -0.3936 -0.4871  0.3778
  127SOPE  H15R13641   5.519   3.812   3.957  1.5003  3.2500 -1.2756
  127SOPE  H15S13642   5.340   3.786   3.906 -4.1623  3.0393  0.9463
  127SOPE  C21613643   5.365   3.874   4.089  0.2749  0.2191  0.8663
  127SOPE  H16R13644   5.261   3.913   4.096  1.0168  2.2264  1.7421
  127SOPE  H16S13645   5.423   3.955   4.139  2.4357  0.4936 -1.8260
  127SOPE  C21713646   5.363   3.737   4.168 -0.2378 -0.8204  0.3616
  127SOPE  H17R13647   5.324   3.661   4.098 -3.5997  0.4927  0.6481
  127SOPE  H17S13648   5.293   3.743   4.254 -0.0075 -0.8006  0.5508
  127SOPE  C21813649   5.494   3.700   4.227 -0.0817  0.2925  0.0258
  127SOPE  H18R13650   5.513   3.761   4.318  0.0307 -0.1320  0.2931
  127SOPE  H18S13651   5.583   3.708   4.161 -0.7326  2.3483 -0.6844
  127SOPE  H18T13652   5.485   3.596   4.265  2.2178 -0.0830 -0.3154
  127SOPE   C3313653   4.331   4.710   3.205 -0.0187  0.0898 -0.4112
  127SOPE   H3X13654   4.420   4.776   3.196 -1.0165  1.5753  0.2813
  127SOPE   H3Y13655   4.346   4.651   3.298 -0.5777  0.5243 -0.0431
  127SOPE   C3413656   4.212   4.798   3.232  0.2784 -0.3617 -0.1108
  127SOPE   H4X13657   4.213   4.861   3.141  1.0689 -1.5652 -0.9757
  127SOPE   H4Y13658   4.235   4.855   3.324 -1.6656  0.1941  0.0788
  127SOPE   C3513659   4.080   4.721   3.240  0.2442  0.1007 -0.2898
  127SOPE   H5X13660   4.071   4.647   3.157 -1.3101  0.3532 -0.3879
  127SOPE   H5Y13661   3.994   4.783   3.206 -0.6245 -0.0299  1.5489
  127SOPE   C3613662   4.057   4.643   3.371  0.2526  1.5041 -1.3856
  127SOPE   H6X13663   4.148   4.582   3.390 -1.4860 -0.7802  0.1796
  127SOPE   H6Y13664   3.977   4.569   3.350  0.9577 -0.1592  1.3061
  127SOPE   C3713665   4.028   4.718   3.496  0.1099 -0.4060 -0.5247
  127SOPE   H7X13666   3.963   4.805   3.471  0.3851 -0.0907 -0.1678
  127SOPE   H7Y13667   4.121   4.767   3.532  0.6652 -0.8997 -1.2519
  127SOPE   C3813668   3.961   4.645   3.620 -0.2163  0.0288  0.6177
  127SOPE   H8X13669   4.032   4.564   3.647 -2.7682 -1.3303  3.8915
  127SOPE   H8Y13670   3.858   4.606   3.604  0.1848 -0.8484  0.0952
  127SOPE   C3913671   3.953   4.748   3.740 -0.0817 -0.8715  0.8693
  127SOPE   H9X13672   3.870   4.821   3.739  0.3003 -0.4295  0.9659
  127SOPE   H9Y13673   4.058   4.784   3.747 -0.4440  0.1330  1.1968
  127SOPE  C31013674   3.919   4.665   3.865 -0.2357 -0.0624  0.5630
  127SOPE  H10X13675   3.980   4.574   3.880 -1.9941 -1.3621  0.1564
  127SOPE  H10Y13676   3.813   4.634   3.853 -0.3369 -0.7930  2.8279
  127SOPE  C31113677   3.918   4.744   3.993  0.8536  0.0268  0.3456
  127SOPE  H11X13678   3.823   4.803   3.991  0.9768  0.2424  0.6575
  127SOPE  H11Y13679   3.997   4.821   3.982 -1.5794  2.4771 -1.1980
  127SOPE  C31213680   3.924   4.659   4.118 -0.2361  0.4051 -0.4547
  127SOPE  H12X13681   4.025   4.612   4.112 -0.5874 -0.6962  1.3440
  127SOPE  H12Y13682   3.864   4.566   4.108  0.4594 -0.3760  1.9718
  127SOPE  C31313683   3.883   4.711   4.258 -0.1025  0.5876  0.0282
  127SOPE  H13X13684   3.787   4.763   4.234 -2.0253 -2.8567 -0.4241
  127SOPE  H13Y13685   3.955   4.785   4.299  2.3063 -1.0241 -1.0535
  127SOPE  C31413686   3.857   4.601   4.353  0.2732  0.3027 -0.5745
  127SOPE  H14X13687   3.956   4.552   4.365 -0.4794 -1.1209  0.0324
  127SOPE  H14Y13688   3.788   4.528   4.307 -0.9776  2.0318 -1.5866
  127SOPE  C31513689   3.803   4.641   4.487  0.3125 -0.3117 -0.9190
  127SOPE  H15X13690   3.866   4.720   4.534  3.0239 -3.0051  0.2683
  127SOPE  H15Y13691   3.817   4.556   4.557  2.2311  0.5072 -0.2501
  127SOPE  C31613692   3.658   4.696   4.479 -0.5561 -0.5485 -0.1943
  127SOPE  H16X13693   3.597   4.648   4.399  1.1006 -0.8010 -1.3719
  127SOPE  H16Y13694   3.652   4.805   4.460 -0.3746 -0.7589 -1.6112
  127SOPE  C31713695   3.585   4.690   4.615  0.2560  0.3529  0.2746
  127SOPE  H17X13696   3.595   4.585   4.650 -1.3879 -0.1450 -0.6609
  127SOPE  H17Y13697   3.478   4.710   4.594  0.3954  0.3241 -0.5050
  127SOPE  C31813698   3.651   4.786   4.712  0.4420  0.3324  0.1687
  127SOPE  H18X13699   3.761   4.777   4.722  0.4753  0.8096  0.2164
  127SOPE  H18Y13700   3.609   4.790   4.815  1.2343  1.3471  0.4662
  127SOPE  H18Z13701   3.650   4.891   4.677 -0.9821  0.1794 -0.3129
  128SOPE     N13702   3.043   4.813   2.582  0.3721 -0.2726  0.3114
  128SOPE   HN113703   3.085   4.907   2.593 -0.2943  0.0583  0.0196
  128SOPE   HN213704   3.117   4.752   2.541  1.2690  0.3350  0.9710
  128SOPE   HN313705   2.966   4.814   2.512  0.8804  0.4333 -0.2561
  128SOPE   C1213706   3.001   4.755   2.713 -0.2033 -0.2692 -0.4257
  128SOPE  H12A13707   2.920   4.818   2.757 -0.9282 -2.1040  1.0062
  128SOPE  H12B13708   3.093   4.764   2.774  0.9119 -0.7781 -1.9963
  128SOPE   C1113709   2.944   4.616   2.697  0.3654 -0.4356 -0.2052
  128SOPE  H11A13710   2.900   4.577   2.790  1.5509  1.1059  1.0594
  128SOPE  H11B13711   3.025   4.543   2.675  1.8062  1.7236 -2.7157
  128SOPE     P13712   2.776   4.505   2.525 -0.0856 -0.0375  0.2123
  128SOPE   O1313713   2.855   4.428   2.427 -0.3160 -0.2403  0.2026
  128SOPE   O1413714   2.648   4.555   2.486  0.0624 -0.3475  0.3102
  128SOPE   O1213715   2.854   4.617   2.591 -0.5899  0.2016 -0.2759
  128SOPE   O1113716   2.748   4.411   2.648  0.1894 -0.6588  0.0698
  128SOPE    C113717   2.644   4.305   2.648  0.3146  0.3685 -0.6968
  128SOPE    HA13718   2.653   4.246   2.554  0.1930 -0.5155 -0.1649
  128SOPE    HB13719   2.542   4.350   2.654 -0.2256 -0.9664  0.8084
  128SOPE    C213720   2.665   4.185   2.749  0.4443  0.7561 -0.4104
  128SOPE    HS13721   2.596   4.103   2.722 -0.1322  1.6632 -1.7890
  128SOPE   O2113722   2.655   4.225   2.882  0.0861 -0.2053  0.1390
  128SOPE   C2113723   2.547   4.199   2.945 -0.3125  0.2369  0.3397
  128SOPE   O2213724   2.457   4.128   2.909 -0.4976 -0.3046 -0.0970
  128SOPE   C2213725   2.543   4.270   3.075  0.4917 -0.6616  0.5424
  128SOPE   H2R13726   2.507   4.374   3.059  1.8432 -0.3217 -0.4715
  128SOPE   H2S13727   2.644   4.288   3.117  0.5140  1.2557 -0.2097
  128SOPE    C313728   2.802   4.123   2.732 -0.2271 -0.1107  0.1057
  128SOPE    HX13729   2.880   4.200   2.750 -0.5921  1.3684 -3.6514
  128SOPE    HY13730   2.808   4.099   2.624  1.3206 -0.9378  0.3530
  128SOPE   O3113731   2.819   4.011   2.813  0.1611 -0.0251 -0.2141
  128SOPE   C3113732   2.788   3.894   2.771 -0.4728 -0.5177  1.3001
  128SOPE   O3213733   2.776   3.858   2.653  0.1221  0.0786  0.0028
  128SOPE   C3213734   2.785   3.796   2.893 -0.4376  0.0905  0.7909
  128SOPE   H2X13735   2.835   3.701   2.865 -0.9765 -0.1461  0.6243
  128SOPE   H2Y13736   2.679   3.767   2.906 -0.4419  0.1056  0.7883
  128SOPE   C2313737   2.448   4.200   3.175 -0.1358 -0.8306  0.6484
  128SOPE   H3R13738   2.483   4.098   3.202  2.0544 -0.1636  0.5419
  128SOPE   H3S13739   2.350   4.202   3.123  0.3261 -2.1887 -0.3310
  128SOPE   C2413740   2.441   4.270   3.309 -0.9698  0.2929  0.1190
  128SOPE   H4R13741   2.425   4.379   3.294 -2.0911  0.0050 -0.9721
  128SOPE   H4S13742   2.358   4.230   3.371  0.5401 -1.4670  1.0728
  128SOPE   C2513743   2.569   4.247   3.390  0.9341 -0.2235 -0.0192
  128SOPE   H5R13744   2.588   4.137   3.395  0.8928 -0.2603 -0.5919
  128SOPE   H5S13745   2.652   4.278   3.324  0.2264  0.0452 -0.7976
  128SOPE   C2613746   2.557   4.307   3.532 -0.4525 -0.6759 -0.1590
  128SOPE   H6R13747   2.504   4.404   3.527  1.0709  0.1217 -1.6824
  128SOPE   H6S13748   2.498   4.240   3.599 -0.8395  1.1986  1.4601
  128SOPE   C2713749   2.695   4.338   3.599  0.1482 -0.1552  0.2972
  128SOPE   H7R13750   2.747   4.241   3.613  0.7577  0.4769  2.9967
  128SOPE   H7S13751   2.761   4.395   3.530  0.2803 -0.0071  0.5430
  128SOPE   C2813752   2.689   4.407   3.735 -0.5397  0.2223 -0.6383
  128SOPE   H8R13753   2.787   4.458   3.746 -1.2116  1.5405 -0.6229
  128SOPE   H8S13754   2.617   4.491   3.725  0.0827  0.9420  0.6897
  128SOPE   C2913755   2.640   4.321   3.851  0.0666  0.9284  0.6981
  128SOPE   H9113756   2.720   4.258   3.892  1.1519  2.0480  0.3714
  128SOPE  C21013757   2.525   4.344   3.912  0.4057  0.2811  0.6180
  128SOPE  H10113758   2.492   4.285   3.999 -0.6193  2.5759  1.8764
  128SOPE  C21113759   2.408   4.434   3.873  0.8753 -0.0834 -0.4916
  128SOPE  H11R13760   2.436   4.476   3.774 -1.9715  0.8976 -0.9774
  128SOPE  H11S13761   2.407   4.518   3.946  0.2735  0.8883 -1.5956
  128SOPE  C21213762   2.260   4.384   3.847 -0.2009 -0.1417  0.4856
  128SOPE  H12R13763   2.274   4.306   3.769  0.4072  1.9121 -1.5784
  128SOPE  H12S13764   2.199   4.470   3.812 -0.3875  0.4325  2.1420
  128SOPE  C21313765   2.203   4.329   3.978  0.0917  0.0087  0.5274
  128SOPE  H13R13766   2.218   4.402   4.060  1.0803 -0.9103  1.2030
  128SOPE  H13S13767   2.254   4.231   3.994  1.4954  0.4057 -1.1374
  128SOPE  C21413768   2.058   4.290   3.973 -0.1236 -0.0539  0.1231
  128SOPE  H14R13769   2.049   4.205   3.903  1.2602  1.2220 -1.7106
  128SOPE  H14S13770   1.990   4.368   3.932 -0.1146 -0.4549 -0.6742
  128SOPE  C21513771   2.014   4.259   4.117  0.0973 -0.1602 -0.5912
  128SOPE  H15R13772   2.001   4.358   4.165  0.5134 -0.1580 -0.4813
  128SOPE  H15S13773   2.097   4.202   4.163 -1.7027 -2.3011  0.1936
  128SOPE  C21613774   1.878   4.188   4.136 -0.2099  0.6639  0.8121
  128SOPE  H16R13775   1.902   4.080   4.131 -0.8421  0.5543 -2.5644
  128SOPE  H16S13776   1.809   4.220   4.054  0.8013  0.6511 -0.0669
  128SOPE  C21713777   1.816   4.221   4.270 -0.6741  0.6764  0.5367
  128SOPE  H17R13778   1.786   4.327   4.283  2.3517  1.6482  0.2633
  128SOPE  H17S13779   1.895   4.213   4.347  0.5810 -0.7442 -0.8320
  128SOPE  C21813780   1.692   4.134   4.313  0.2568 -0.1184  0.1589
  128SOPE  H18R13781   1.613   4.148   4.236  1.4186 -1.0585 -1.2557
  128SOPE  H18S13782   1.654   4.169   4.411  1.8750 -0.9540  1.1322
  128SOPE  H18T13783   1.718   4.027   4.327 -0.5940 -0.4922 -0.9601
  128SOPE   C3313784   2.830   3.865   3.026  0.0441  0.3961  0.4815
  128SOPE   H3X13785   2.778   3.961   3.043  1.6470  1.2799  0.6762
  128SOPE   H3Y13786   2.936   3.898   3.025 -0.5057  2.2574 -0.7795
  128SOPE   C3413787   2.782   3.780   3.141  0.0684 -0.0369  0.9719
  128SOPE   H4X13788   2.836   3.684   3.154  0.1926 -0.3498 -1.3934
  128SOPE   H4Y13789   2.677   3.750   3.121 -0.3776  0.7622  2.0156
  128SOPE   C3513790   2.791   3.869   3.270 -0.3146 -0.1039  0.5566
  128SOPE   H5X13791   2.753   3.805   3.352 -1.5162  0.0582  0.1433
  128SOPE   H5Y13792   2.720   3.953   3.278  0.8359  1.0809 -1.0175
  128SOPE   C3613793   2.932   3.918   3.310 -0.0021 -0.4513  0.0631
  128SOPE   H6X13794   2.969   3.982   3.228  0.9057 -1.2361 -0.1647
  128SOPE   H6Y13795   3.010   3.840   3.329 -0.0084 -0.2724  0.8652
  128SOPE   C3713796   2.933   4.006   3.438 -0.5350  0.1257  0.8560
  128SOPE   H7X13797   2.889   3.947   3.521  3.3014 -2.8764  1.0017
  128SOPE   H7Y13798   2.865   4.094   3.430  1.1915  1.5230  0.9590
  128SOPE   C3813799   3.079   4.053   3.479  0.0385  0.9734  0.5396
  128SOPE   H8X13800   3.129   4.091   3.388 -1.7428  0.6368 -0.6109
  128SOPE   H8Y13801   3.140   3.965   3.511 -0.9927  0.4375  1.0758
  128SOPE   C3913802   3.086   4.158   3.585  0.4348 -0.1406 -0.2030
  128SOPE   H9X13803   3.056   4.256   3.541  1.9435 -0.9582 -3.3147
  128SOPE   H9Y13804   3.192   4.144   3.615 -0.0426 -3.1730  0.4115
  128SOPE  C31013805   3.015   4.118   3.719  0.1843 -0.4012 -0.2385
  128SOPE  H10X13806   2.913   4.096   3.681  0.7708 -1.3536 -1.3169
  128SOPE  H10Y13807   3.007   4.212   3.778  0.7147 -0.1982 -0.4740
  128SOPE  C31113808   3.090   4.011   3.798 -0.1735 -0.3358 -0.3654
  128SOPE  H11X13809   3.163   3.971   3.725 -0.8481 -0.8099 -0.7851
  128SOPE  H11Y13810   3.021   3.934   3.839  0.2610 -0.6311 -0.1763
  128SOPE  C31213811   3.172   4.053   3.926  0.1943  0.0747 -0.2421
  128SOPE  H12X13812   3.232   4.146   3.914  2.9429 -0.9823  3.3184
  128SOPE  H12Y13813   3.244   3.971   3.951 -2.1073 -2.0123 -0.0641
  128SOPE  C31313814   3.072   4.053   4.045 -0.7217 -0.6956  0.4272
  128SOPE  H13X13815   3.028   3.952   4.051 -0.8304 -0.7368 -0.7991
  128SOPE  H13Y13816   2.992   4.127   4.024  0.7900  0.7114 -0.7189
  128SOPE  C31413817   3.132   4.085   4.183 -0.0118 -0.1539  0.3226
  128SOPE  H14X13818   3.184   4.183   4.171  0.0967 -0.3148 -0.5624
  128SOPE  H14Y13819   3.213   4.011   4.199  0.8499  0.4348 -1.0505
  128SOPE  C31513820   3.027   4.084   4.300  0.0199 -0.1876 -0.1286
  128SOPE  H15X13821   3.002   3.976   4.295 -2.2214  0.1626  1.7030
  128SOPE  H15Y13822   2.934   4.143   4.283  0.2198 -0.1232 -1.0518
  128SOPE  C31613823   3.103   4.116   4.436 -0.6986 -0.1916  0.1578
  128SOPE  H16X13824   3.117   4.226   4.441 -0.1588 -0.2528 -0.0433
  128SOPE  H16Y13825   3.207   4.079   4.439  0.1440  2.0219  2.6460
  128SOPE  C31713826   3.031   4.054   4.556  0.6129  0.0085 -0.2965
  128SOPE  H17X13827   2.934   4.107   4.568  0.7212 -0.1105  1.2455
  128SOPE  H17Y13828   3.084   4.062   4.653  1.6925  0.5462 -0.9090
  128SOPE  C31813829   3.002   3.905   4.543  0.2702 -0.6088  0.7155
  128SOPE  H18X13830   2.933   3.891   4.457  2.4228  1.4350 -1.4845
  128SOPE  H18Y13831   2.955   3.874   4.639 -0.3693 -0.3783  0.4825
  128SOPE  H18Z13832   3.097   3.848   4.530  1.6697  1.8338 -0.4686
  129OSM      N13833   1.559   1.714   6.971  0.2453 -0.4500  0.6975
  129OSM    C1513834   1.553   1.568   6.936  0.1825 -0.1106 -0.7662
  129OSM   H15A13835   1.450   1.540   6.921  0.9235 -2.2598 -2.4720
  129OSM   H15B13836   1.603   1.511   7.013 -2.2093 -1.5756 -0.1858
  129OSM   H15C13837   1.607   1.555   6.843  0.8333  2.3110 -0.8001
  129OSM    C1413838   1.500   1.732   7.101 -0.3836 -0.1904  0.3381
  129OSM   H14A13839   1.556   1.677   7.175  1.6333  0.6370 -0.5058
  129OSM   H14B13840   1.395   1.707   7.106 -1.1028  2.6778  1.3774
  129OSM   H14C13841   1.510   1.838   7.118 -0.6307 -0.2253  0.7188
  129OSM    C1313842   1.707   1.748   6.983 -0.0352 -0.3685 -0.7388
  129OSM   H13A13843   1.758   1.714   7.073  1.3464  2.1803 -0.4792
  129OSM   H13B13844   1.707   1.855   6.985 -1.2804 -0.2868  3.2525
  129OSM   H13C13845   1.760   1.713   6.896  2.4185 -1.3059  0.9841
  129OSM    C1213846   1.505   1.806   6.862  0.2076  0.1033  0.5833
  129OSM   H12A13847   1.566   1.895   6.859  0.5983 -0.1822 -1.2437
  129OSM   H12B13848   1.404   1.836   6.886  0.3471  4.3466 -2.8930
  129OSM    C1113849   1.492   1.751   6.714 -0.2412  0.0261 -0.1616
  129OSM   H11A13850   1.443   1.826   6.648 -0.4034  2.5235  2.5949
  129OSM   H11B13851   1.410   1.676   6.719 -0.8813  0.6254 -1.3501
  129OSM      P13852   1.739   1.762   6.606  0.0066 -0.2954 -0.1310
  129OSM    O1313853   1.791   1.869   6.695  0.0310 -0.2322  0.1794
  129OSM    O1413854   1.838   1.655   6.583 -0.6902 -0.1430  0.0713
  129OSM    O1113855   1.688   1.812   6.466  0.2632 -0.2708 -0.4111
  129OSM    O1213856   1.614   1.694   6.675  0.0284 -0.0964  0.1012
  129OSM    C1S13857   1.635   1.717   6.376  0.7821  0.5117 -0.1747
  129OSM    H1S13858   1.552   1.660   6.423 -0.8534  1.7912 -1.3771
  129OSM    H1T13859   1.706   1.642   6.334 -1.4084 -1.7402 -0.1007
  129OSM     NF13860   1.522   1.680   6.162  0.3964  0.2473  0.2208
  129OSM    HNF13861   1.579   1.647   6.087 -0.7285  0.4141 -0.7375
  129OSM    C2S13862   1.572   1.786   6.244  1.0490  0.4436  0.1152
  129OSM    H2S13863   1.485   1.844   6.280  0.9900 -0.0241  0.7489
  129OSM    C3S13864   1.678   1.873   6.173  0.2935 -0.1942  0.2612
  129OSM    H3S13865   1.760   1.813   6.127 -0.0246 -0.0146 -0.5487
  129OSM     O313866   1.750   1.959   6.252 -0.8538  0.0649 -0.4492
  129OSM    HO313867   1.774   1.904   6.327  1.6572 -1.0175 -1.9228
  129OSM    C4S13868   1.612   1.934   6.058  0.2833  0.2122 -0.1227
  129OSM    H4S13869   1.606   1.865   5.973  3.1944  0.7565 -0.8840
  129OSM    C5S13870   1.551   2.055   6.044 -0.0210  1.0511  0.3450
  129OSM    H5S13871   1.551   2.129   6.126  0.8803  2.5522 -0.9502
  129OSM    C6S13872   1.481   2.105   5.920  0.2144 -0.0991  1.2651
  129OSM    H6S13873   1.539   2.174   5.854  0.7894 -0.8425  0.9872
  129OSM    H6T13874   1.392   2.156   5.964 -0.9533 -0.5887 -0.4407
  129OSM    C7S13875   1.425   1.997   5.823  0.6042  0.3484  0.7336
  129OSM    H7S13876   1.334   1.949   5.864  0.7782  0.6353  1.4624
  129OSM    H7T13877   1.503   1.924   5.795  0.4783 -0.4481  2.3584
  129OSM    C8S13878   1.379   2.066   5.691  0.3030  0.1692  0.0648
  129OSM    H8S13879   1.475   2.104   5.650  1.7802 -0.2591  2.8654
  129OSM    H8T13880   1.329   2.161   5.719  0.3125 -0.2368  1.5477
  129OSM    C9S13881   1.299   1.982   5.594  0.0533  0.2407  0.1407
  129OSM    H9S13882   1.193   1.981   5.625 -0.3837  2.8306 -1.0459
  129OSM    H9T13883   1.350   1.883   5.595  0.5130  0.4800  0.9274
  129OSM   C10S13884   1.295   2.037   5.458 -0.0970  0.2536  0.1900
  129OSM   H10S13885   1.388   2.094   5.434 -0.2144  1.2498  1.9770
  129OSM   H10T13886   1.202   2.093   5.437 -1.8942 -2.2515  0.9380
  129OSM   C11S13887   1.300   1.919   5.351 -0.3040 -0.2011 -0.4747
  129OSM   H11S13888   1.246   1.957   5.262 -1.4503  1.4287  0.8308
  129OSM   H11T13889   1.246   1.829   5.387 -1.3053  1.0026  1.2248
  129OSM   C12S13890   1.442   1.879   5.304  0.8389 -0.0636 -0.9236
  129OSM   H12S13891   1.490   1.836   5.394 -0.5106 -0.2586 -0.2716
  129OSM   H12T13892   1.495   1.972   5.276  2.1655  0.2574  2.2675
  129OSM   C13S13893   1.447   1.770   5.195 -0.2671 -0.8060 -0.0572
  129OSM   H13S13894   1.389   1.797   5.104  1.4293 -0.6414 -1.1401
  129OSM   H13T13895   1.410   1.671   5.230 -0.1664 -0.6267  0.5698
  129OSM   C14S13896   1.586   1.747   5.144 -0.7461 -0.0280 -0.0624
  129OSM   H14S13897   1.582   1.654   5.083  1.1662 -0.8200  0.9533
  129OSM   H14T13898   1.645   1.724   5.235 -0.8167  0.4109  0.0923
  129OSM   C15S13899   1.648   1.862   5.062  0.1977 -0.0578  0.2129
  129OSM   H15S13900   1.652   1.944   5.137 -2.8087 -0.3661  0.8533
  129OSM   H15T13901   1.573   1.894   4.986 -1.3659 -1.0698  1.2733
  129OSM   C16S13902   1.784   1.816   5.014  0.3291 -0.0041 -0.8506
  129OSM   H16S13903   1.766   1.725   4.953 -1.8758  2.0170 -3.4467
  129OSM   H16T13904   1.846   1.795   5.104 -1.3358  1.9872  0.8524
  129OSM   C17S13905   1.853   1.918   4.923 -0.9385 -0.2828  0.0425
  129OSM   H17S13906   1.863   2.013   4.979  0.9006 -0.6544  0.3998
  129OSM   H17T13907   1.792   1.931   4.831 -2.4821  0.4697  1.1160
  129OSM   C18S13908   1.989   1.872   4.875  0.0627 -0.5619 -0.3245
  129OSM   H18S13909   2.061   1.875   4.960 -0.4124 -0.5041  0.0836
  129OSM   H18T13910   2.029   1.937   4.794 -0.0578  0.8756  0.7348
  129OSM   H18U13911   1.986   1.768   4.837 -0.6877 -0.9823  0.8126
  129OSM    C1F13912   1.408   1.615   6.189 -0.3426  0.3731 -0.7844
  129OSM     OF13913   1.332   1.654   6.279 -0.0737 -0.0139  0.2644
  129OSM    C2F13914   1.376   1.500   6.086  0.2560 -0.8803 -0.6476
  129OSM    H2F13915   1.472   1.446   6.074  0.7238 -0.7946  2.1978
  129OSM    H2G13916   1.353   1.548   5.987  2.2142  1.1444 -0.2048
  129OSM    C3F13917   1.277   1.395   6.140  0.4644  0.0856 -0.6764
  129OSM    H3F13918   1.179   1.440   6.165  0.0251 -0.8998 -0.5626
  129OSM    H3G13919   1.312   1.346   6.234 -1.4641 -0.7334 -0.3294
  129OSM    C4F13920   1.258   1.285   6.034 -0.5735 -0.3172  0.5343
  129OSM    H4F13921   1.330   1.202   6.050  1.5547  1.5067  0.8086
  129OSM    H4G13922   1.271   1.333   5.935  1.0195  0.5509  1.1231
  129OSM    C5F13923   1.119   1.230   6.044  0.1744 -0.5064  0.4910
  129OSM    H5F13924   1.046   1.311   6.022 -0.1697 -0.8042  0.5051
  129OSM    H5G13925   1.107   1.202   6.151 -0.7505  2.0849  1.1307
  129OSM    C6F13926   1.098   1.112   5.953 -0.3144 -0.1583  0.4918
  129OSM    H6F13927   1.153   1.022   5.987 -0.6310  0.1236  1.8053
  129OSM    H6G13928   1.133   1.140   5.852 -2.7188 -1.8732 -0.9229
  129OSM    C7F13929   0.951   1.069   5.948  0.1563  0.2986 -0.2267
  129OSM    H7F13930   0.898   1.153   5.898 -1.0348 -0.0885  0.3295
  129OSM    H7G13931   0.911   1.061   6.052 -2.2501 -0.5140 -1.1472
  129OSM    C8F13932   0.934   0.938   5.870 -0.6790  0.3226  0.3523
  129OSM    H8F13933   1.004   0.871   5.924  1.3793  0.1863 -2.2930
  129OSM    H8G13934   0.965   0.962   5.766 -0.9041  4.2094  1.0609
  129OSM    C9F13935   0.797   0.883   5.893  0.2252 -0.3834 -0.0574
  129OSM    H9F13936   0.790   0.856   6.000  0.1759 -0.1868 -0.0101
  129OSM   C10F13937   0.687   0.894   5.812  0.0245  0.0484  0.0174
  129OSM   H10F13938   0.602   0.830   5.840 -0.7188  1.2324  0.5363
  129OSM   C11F13939   0.684   0.951   5.677 -0.0645  0.5107 -0.6219
  129OSM   H11F13940   0.752   1.039   5.668 -1.3206  1.4096 -1.8507
  129OSM   H11G13941   0.582   0.994   5.663 -0.3389 -0.1268 -0.6137
  129OSM   C12F13942   0.729   0.860   5.560 -0.2062  0.4732 -0.4633
  129OSM   H12F13943   0.646   0.785   5.554 -0.4339  0.7463 -0.7329
  129OSM   H12G13944   0.822   0.813   5.599 -0.8238 -0.3579  0.0586
  129OSM   C13F13945   0.737   0.937   5.429  0.0396  0.4562 -0.3069
  129OSM   H13F13946   0.813   0.873   5.380  1.1999  1.4433  0.1598
  129OSM   H13G13947   0.777   1.040   5.443  1.2967  0.0534 -0.8249
  129OSM   C14F13948   0.604   0.949   5.342  0.2619  0.2322 -0.9209
  129OSM   H14F13949   0.535   1.028   5.380  0.6229  0.1600 -0.0863
  129OSM   H14G13950   0.537   0.860   5.352  2.1345 -1.3436 -1.8441
  129OSM   C15F13951   0.616   0.984   5.194 -0.6281  0.6335 -0.0621
  129OSM   H15F13952   0.516   1.003   5.151  0.0163 -0.9729 -2.5217
  129OSM   H15G13953   0.667   0.901   5.141 -3.0284 -0.4151 -0.8547
  129OSM   C16F13954   0.696   1.112   5.171 -0.4934 -0.0204 -0.8844
  129OSM   H16F13955   0.792   1.107   5.227 -1.1501 -0.5844  0.2360
  129OSM   H16G13956   0.643   1.197   5.220  1.6075  1.3178 -0.7810
  129OSM   C17F13957   0.712   1.145   5.024 -0.7549  0.6772  0.1666
  129OSM   H17F13958   0.606   1.163   4.994 -1.3597 -0.5689  1.4210
  129OSM   H17G13959   0.763   1.065   4.967 -0.3769  2.0880 -1.5835
  129OSM   C18F13960   0.780   1.273   4.988 -0.5813  0.0014  0.8031
  129OSM   H18F13961   0.716   1.356   5.023 -1.0453 -0.6553  1.5650
  129OSM   H18G13962   0.796   1.283   4.879  0.5555 -0.9258  0.8639
  129OSM   H18H13963   0.880   1.279   5.037 -0.5829 -1.2817  1.0200
  130OSM      N13964   0.932   3.838   6.736  0.7888  0.1231  0.0561
  130OSM    C1513965   0.778   3.818   6.757  0.0021  0.6040 -0.0725
  130OSM   H15A13966   0.734   3.804   6.659  0.6352  1.1436 -0.4452
  130OSM   H15B13967   0.737   3.893   6.822  1.4677  0.7282  0.7540
  130OSM   H15C13968   0.760   3.725   6.809  0.9396  1.4077  1.7662
  130OSM    C1413969   0.946   3.970   6.666  0.5690 -0.8771  0.4686
  130OSM   H14A13970   0.893   3.963   6.572  2.5458 -1.2637 -0.6686
  130OSM   H14B13971   1.051   3.994   6.661  0.3284  0.5416  1.7511
  130OSM   H14C13972   0.895   4.047   6.722 -2.5503  0.2346 -3.4424
  130OSM    C1313973   1.007   3.854   6.858  0.3108  0.3554 -0.1215
  130OSM   H13A13974   0.957   3.910   6.936 -0.4211  0.0335 -0.3511
  130OSM   H13B13975   1.111   3.883   6.860  1.3573 -2.9815  0.9219
  130OSM   H13C13976   1.017   3.754   6.899 -1.5977  0.8218  1.6634
  130OSM    C1213977   0.979   3.729   6.640 -0.1262  0.3975 -0.5072
  130OSM   H12A13978   0.911   3.724   6.556 -1.5252  1.9231  0.4961
  130OSM   H12B13979   0.978   3.638   6.699  0.9346  0.6946 -0.0108
  130OSM    C1113980   1.118   3.753   6.582 -1.0215 -0.6550  0.6880
  130OSM   H11A13981   1.125   3.854   6.535 -0.9417 -1.0880 -0.2556
  130OSM   H11B13982   1.133   3.680   6.500  0.9827 -1.4263  1.6678
  130OSM      P13983   1.253   3.605   6.754  0.3035 -0.0173  0.2664
  130OSM    O1313984   1.314   3.643   6.881 -0.3079  0.2677  0.4114
  130OSM    O1413985   1.122   3.533   6.759 -0.2573  0.1511 -0.4944
  130OSM    O1113986   1.353   3.521   6.669  0.1162  0.0160 -0.2706
  130OSM    O1213987   1.237   3.745   6.664 -0.1505  0.5520  0.6554
  130OSM    C1S13988   1.375   3.564   6.537  0.4173  0.2981  0.0806
  130OSM    H1S13989   1.420   3.666   6.535  3.2200 -0.8031  1.3380
  130OSM    H1T13990   1.294   3.566   6.461  2.4418 -0.5571 -2.2905
  130OSM     NF13991   1.479   3.506   6.321  0.0478  0.2978 -0.0236
  130OSM    HNF13992   1.425   3.454   6.255 -0.9072 -2.2064  2.5148
  130OSM    C2S13993   1.455   3.453   6.456 -0.1921 -1.1172 -0.5608
  130OSM    H2S13994   1.556   3.435   6.499  0.5417  1.2992 -1.0954
  130OSM    C3S13995   1.384   3.313   6.466 -0.1759 -0.0235  0.6525
  130OSM    H3S13996   1.284   3.325   6.419 -0.1497  0.6749  0.7723
  130OSM     O313997   1.345   3.276   6.596 -0.4587  0.4249  0.2674
  130OSM    HO313998   1.369   3.357   6.641  0.4242  0.1233  0.3609
  130OSM    C4S13999   1.465   3.205   6.402 -0.9063 -0.1680 -0.3068
  130OSM    H4S14000   1.530   3.162   6.479 -2.9180 -2.8932  0.0332
  130OSM    C5S14001   1.455   3.141   6.280  0.3572 -0.3188 -1.2860
  130OSM    H5S14002   1.375   3.177   6.215 -0.4893 -0.8938 -0.5834
  130OSM    C6S14003   1.521   3.027   6.210  0.3122 -0.0792  0.1109
  130OSM    H6S14004   1.463   2.932   6.219 -0.8503  0.6802  0.9036
  130OSM    H6T14005   1.617   3.007   6.263  0.3624 -0.3479 -0.0781
  130OSM    C7S14006   1.560   3.069   6.072  0.4484 -0.1260 -0.0205
  130OSM    H7S14007   1.649   3.133   6.086  0.6553  0.1818 -2.3522
  130OSM    H7T14008   1.474   3.115   6.019  0.7633  0.8149  0.2664
  130OSM    C8S14009   1.613   2.954   5.992  0.3001  0.4203  0.3901
  130OSM    H8S14010   1.554   2.865   6.024  1.1279 -0.6102 -0.8495
  130OSM    H8T14011   1.717   2.927   6.020  0.6628  0.0749 -1.1792
  130OSM    C9S14012   1.611   2.978   5.839 -0.1235 -0.0712  0.1651
  130OSM    H9S14013   1.675   2.905   5.784 -1.6170  0.7907 -2.9907
  130OSM    H9T14014   1.654   3.080   5.823  0.6382 -0.4880 -0.5533
  130OSM   C10S14015   1.475   2.963   5.765  0.5831 -0.3321 -0.1686
  130OSM   H10S14016   1.415   3.055   5.782 -1.8760 -1.7110 -0.8858
  130OSM   H10T14017   1.418   2.874   5.800 -1.4801  0.5199 -1.1976
  130OSM   C11S14018   1.499   2.949   5.617  0.3334 -0.0478  0.7476
  130OSM   H11S14019   1.548   2.852   5.596 -0.0737  0.2695 -1.9844
  130OSM   H11T14020   1.552   3.039   5.579 -0.7539  0.1058 -0.4819
  130OSM   C12S14021   1.370   2.944   5.531 -0.2722 -0.8138 -0.2769
  130OSM   H12S14022   1.293   3.018   5.561  0.4898  0.0927 -0.5074
  130OSM   H12T14023   1.322   2.845   5.544 -0.6820 -0.3837  1.7583
  130OSM   C13S14024   1.394   2.963   5.381  0.4462  0.3807  0.8662
  130OSM   H13S14025   1.448   3.060   5.367  2.0738 -0.3470  1.8016
  130OSM   H13T14026   1.290   2.965   5.342 -0.5076 -0.1064  3.2428
  130OSM   C14S14027   1.465   2.843   5.320 -0.3019 -0.1413  0.7797
  130OSM   H14S14028   1.418   2.761   5.377 -0.4959  1.6409  3.3576
  130OSM   H14T14029   1.576   2.841   5.334  0.0982  1.8338 -1.4160
  130OSM   C15S14030   1.448   2.828   5.172 -0.0943 -0.1636  0.1622
  130OSM   H15S14031   1.344   2.800   5.142 -1.1071  0.2578  3.0060
  130OSM   H15T14032   1.508   2.738   5.148 -0.4306 -0.8444  1.7749
  130OSM   C16S14033   1.485   2.948   5.088 -0.2968 -0.2236  0.4332
  130OSM   H16S14034   1.595   2.956   5.085 -0.1610 -0.2045  2.9950
  130OSM   H16T14035   1.445   3.039   5.138 -1.4556 -0.2883 -0.3115
  130OSM   C17S14036   1.420   2.950   4.947 -0.1867  0.5579  0.2205
  130OSM   H17S14037   1.313   2.972   4.966 -0.0381 -0.4309  2.5580
  130OSM   H17T14038   1.419   2.853   4.893  0.4573  0.4346  0.4217
  130OSM   C18S14039   1.466   3.065   4.855  0.2894  0.7732 -0.2575
  130OSM   H18S14040   1.446   3.165   4.899 -1.2106  1.0298 -1.4504
  130OSM   H18T14041   1.426   3.062   4.752 -0.4473 -2.0608  0.0279
  130OSM   H18U14042   1.574   3.043   4.839  0.1821 -1.4404  1.4486
  130OSM    C1F14043   1.553   3.612   6.292 -0.0558  0.8944 -0.4625
  130OSM     OF14044   1.622   3.657   6.384 -0.4851 -0.2414 -0.6783
  130OSM    C2F14045   1.552   3.677   6.158  0.5771  0.4253  0.2851
  130OSM    H2F14046   1.444   3.689   6.135  0.0814  0.6147  2.5164
  130OSM    H2G14047   1.597   3.604   6.088 -2.0646  0.4502 -1.6068
  130OSM    C3F14048   1.640   3.810   6.147 -0.1058  0.5440  0.6597
  130OSM    H3F14049   1.746   3.778   6.142 -0.3603 -0.6190  2.0764
  130OSM    H3G14050   1.622   3.878   6.233  1.6821  2.2563 -0.2394
  130OSM    C4F14051   1.622   3.882   6.010  0.0458 -0.6290 -0.3891
  130OSM    H4F14052   1.616   3.810   5.926  0.5792  0.8437 -1.7542
  130OSM    H4G14053   1.700   3.961   5.999 -0.2226 -0.0601  1.4535
  130OSM    C5F14054   1.494   3.973   6.021  0.0885 -0.9125  0.8263
  130OSM    H5F14055   1.529   4.079   6.015  0.2853 -1.0475 -1.2661
  130OSM    H5G14056   1.458   3.960   6.125  1.2231  1.7838  1.6371
  130OSM    C6F14057   1.390   3.928   5.921  0.0734 -0.6281  0.4985
  130OSM    H6F14058   1.328   3.842   5.956 -1.3957  1.1313  2.4582
  130OSM    H6G14059   1.435   3.907   5.822  0.5308 -1.0087  0.7818
  130OSM    C7F14060   1.291   4.049   5.886  0.5854 -0.0087 -0.0181
  130OSM    H7F14061   1.348   4.143   5.873 -0.2834  0.3856 -1.0915
  130OSM    H7G14062   1.221   4.054   5.972  0.5391  0.7802 -0.0953
  130OSM    C8F14063   1.213   4.024   5.759 -0.3629  0.0486 -0.1452
  130OSM    H8F14064   1.288   4.005   5.679 -1.7783  0.3916 -1.6015
  130OSM    H8G14065   1.160   4.120   5.741  2.0385  1.3485 -0.6579
  130OSM    C9F14066   1.118   3.902   5.772  0.7285  0.6229 -0.3600
  130OSM    H9F14067   1.157   3.808   5.814 -1.6057 -0.4164 -0.3350
  130OSM   C10F14068   0.988   3.899   5.733 -0.2895  0.0875 -0.2041
  130OSM   H10F14069   0.943   3.799   5.724 -2.0780  0.9272 -1.2074
  130OSM   C11F14070   0.914   4.014   5.672 -0.1156  0.5111  0.4075
  130OSM   H11F14071   0.940   4.109   5.724  1.0749 -0.1612  1.0884
  130OSM   H11G14072   0.803   4.007   5.674 -0.1818  1.1075 -0.5260
  130OSM   C12F14073   0.959   4.038   5.516  0.1077 -0.1363 -1.3297
  130OSM   H12F14074   1.069   4.025   5.513  0.0856 -2.6366  2.5511
  130OSM   H12G14075   0.930   4.142   5.489 -1.0249  0.1876  0.8723
  130OSM   C13F14076   0.881   3.942   5.423 -0.1515 -0.1450 -0.0857
  130OSM   H13F14077   0.774   3.954   5.453 -0.7234 -2.4746 -0.9697
  130OSM   H13G14078   0.904   3.838   5.453  0.9621  0.6651  2.0938
  130OSM   C14F14079   0.901   3.967   5.272  0.4577 -0.6348 -0.7316
  130OSM   H14F14080   1.008   3.952   5.248  1.0772 -0.9606  1.9010
  130OSM   H14G14081   0.894   4.074   5.244 -0.3845 -1.0690 -2.2532
  130OSM   C15F14082   0.810   3.900   5.179  0.6787 -0.3395  0.2025
  130OSM   H15F14083   0.708   3.932   5.208  0.4877  0.8228 -1.6028
  130OSM   H15G14084   0.814   3.789   5.188  1.2231 -0.1966  2.1478
  130OSM   C16F14085   0.835   3.948   5.039 -0.2652 -0.3430  0.1109
  130OSM   H16F14086   0.926   3.905   4.992  0.3704  0.8315  0.2295
  130OSM   H16G14087   0.832   4.059   5.039 -0.5165 -0.3174  2.5057
  130OSM   C17F14088   0.724   3.903   4.940 -1.1009  0.5905 -0.2387
  130OSM   H17F14089   0.627   3.949   4.968 -0.3381  1.5959  0.8531
  130OSM   H17G14090   0.707   3.800   4.978  0.1907  0.3660 -0.2199
  130OSM   C18F14091   0.766   3.891   4.791  0.0983 -1.0114 -0.4398
  130OSM   H18F14092   0.680   3.853   4.731  0.7855 -1.6608 -1.0378
  130OSM   H18G14093   0.849   3.817   4.783  0.8495 -0.3509  0.9986
  130OSM   H18H14094   0.801   3.986   4.746 -1.4680 -0.2530 -0.1233
  131OSM      N14095   0.815   5.296   6.881 -0.1102 -0.0725 -0.0680
  131OSM    C1514096   0.822   5.179   6.977 -0.0396  0.0874 -0.2751
  131OSM   H15A14097   0.910   5.120   6.961 -0.9953 -1.1536 -1.1262
  131OSM   H15B14098   0.742   5.113   6.947  1.5959 -1.6774 -0.9294
  131OSM   H15C14099   0.810   5.216   7.078 -1.6281 -0.8836 -0.0715
  131OSM    C1414100   0.937   5.375   6.902  0.3239 -0.2338  0.5030
  131OSM   H14A14101   0.956   5.404   7.005  3.4016 -1.2827  0.3243
  131OSM   H14B14102   0.941   5.464   6.841  2.3043  1.1114  2.4424
  131OSM   H14C14103   1.020   5.314   6.871 -0.4802 -1.0786 -0.0349
  131OSM    C1314104   0.806   5.246   6.741  0.3489 -0.1590  0.1113
  131OSM   H13A14105   0.793   5.325   6.669  2.3167 -2.0544 -2.5498
  131OSM   H13B14106   0.727   5.173   6.732  0.8590 -0.8922  1.3268
  131OSM   H13C14107   0.899   5.197   6.715  1.1016  0.0666  2.1883
  131OSM    C1214108   0.688   5.377   6.906  0.5560  0.0351 -0.0068
  131OSM   H12A14109   0.680   5.386   7.013 -2.5573 -3.2146  0.2452
  131OSM   H12B14110   0.601   5.321   6.875 -1.1629  2.2192  0.6375
  131OSM    C1114111   0.676   5.517   6.856 -0.4220 -0.3774  0.0742
  131OSM   H11A14112   0.568   5.527   6.830 -0.4554 -1.8273 -0.4389
  131OSM   H11B14113   0.734   5.534   6.763  1.1779  0.5573  1.2135
  131OSM      P14114   0.657   5.746   6.975  0.0154  0.0404  0.1495
  131OSM    O1314115   0.519   5.732   7.038 -0.1568  0.1898  0.0280
  131OSM    O1414116   0.751   5.836   7.046 -0.1431  0.2122  0.4307
  131OSM    O1114117   0.646   5.789   6.826 -0.1755 -0.4507 -0.4174
  131OSM    O1214118   0.717   5.600   6.965  0.3378 -0.4804 -0.1628
  131OSM    C1S14119   0.634   5.919   6.775  0.0521 -0.2237 -0.5875
  131OSM    H1S14120   0.725   5.971   6.812 -0.7138  0.4190  0.4692
  131OSM    H1T14121   0.546   5.971   6.821  0.1785  0.5229 -1.1742
  131OSM     NF14122   0.632   6.042   6.555 -0.5140 -0.8093 -0.7392
  131OSM    HNF14123   0.559   6.068   6.492 -1.5843  0.6459  0.9872
  131OSM    C2S14124   0.626   5.914   6.622 -0.9010  0.3567 -0.2573
  131OSM    H2S14125   0.715   5.854   6.593 -1.0247  0.2378 -0.3925
  131OSM    C3S14126   0.512   5.822   6.576  0.8638  1.1909  0.2531
  131OSM    H3S14127   0.424   5.889   6.584 -0.3941 -0.4014  0.2036
  131OSM     O314128   0.477   5.709   6.659  0.2988 -0.6414 -0.0990
  131OSM    HO314129   0.499   5.746   6.745  0.0223  1.3503 -0.8282
  131OSM    C4S14130   0.529   5.785   6.435  0.2762  0.0723  0.5060
  131OSM    H4S14131   0.468   5.848   6.369  0.7224 -0.0936 -0.0728
  131OSM    C5S14132   0.588   5.679   6.374 -0.2476  0.7108 -0.2899
  131OSM    H5S14133   0.632   5.602   6.439 -2.9067 -0.2478  0.5203
  131OSM    C6S14134   0.574   5.646   6.227 -0.0402 -0.0889  0.4034
  131OSM    H6S14135   0.492   5.572   6.220  2.7717 -3.4483  0.1542
  131OSM    H6T14136   0.664   5.582   6.214  2.1794  2.5347  1.6933
  131OSM    C7S14137   0.558   5.741   6.106  0.3555 -1.0263 -0.2510
  131OSM    H7S14138   0.649   5.800   6.083 -0.6082  1.6723  2.2375
  131OSM    H7T14139   0.470   5.807   6.117  0.6826 -0.5868 -0.2514
  131OSM    C8S14140   0.513   5.666   5.980 -0.2937  0.5173 -0.0035
  131OSM    H8S14141   0.419   5.612   6.001 -0.1104  1.2402  3.1500
  131OSM    H8T14142   0.592   5.592   5.953 -0.1704 -0.3849  2.5861
  131OSM    C9S14143   0.489   5.759   5.852  0.1435  0.2094 -0.1631
  131OSM    H9S14144   0.594   5.790   5.832 -0.5224  1.9469 -1.2462
  131OSM    H9T14145   0.429   5.843   5.892  1.1876  0.7836  0.2576
  131OSM   C10S14146   0.422   5.693   5.731  0.3193 -0.7397 -0.0087
  131OSM   H10S14147   0.314   5.685   5.752  0.1244 -1.2300 -1.1308
  131OSM   H10T14148   0.461   5.590   5.739 -2.5611 -1.8222  1.3512
  131OSM   C11S14149   0.457   5.764   5.603 -0.3650  0.1150 -0.3131
  131OSM   H11S14150   0.567   5.768   5.587 -0.5017 -0.0192 -1.3709
  131OSM   H11T14151   0.426   5.868   5.628  2.3327  0.2238  3.2409
  131OSM   C12S14152   0.383   5.705   5.485  1.0739  0.0122 -0.1679
  131OSM   H12S14153   0.275   5.696   5.507  1.6063 -1.0012  2.3188
  131OSM   H12T14154   0.417   5.600   5.481  0.3863 -0.3090  1.4876
  131OSM   C13S14155   0.405   5.771   5.353 -0.9328  0.4883  0.1955
  131OSM   H13S14156   0.514   5.774   5.330 -0.8272 -2.4652 -0.1341
  131OSM   H13T14157   0.384   5.879   5.369 -1.3689  0.6052 -1.0434
  131OSM   C14S14158   0.313   5.711   5.244  0.5275 -0.0899  0.3224
  131OSM   H14S14159   0.210   5.710   5.287  0.0020  1.0673 -0.8144
  131OSM   H14T14160   0.327   5.602   5.232 -0.0058 -0.1219 -0.0474
  131OSM   C15S14161   0.315   5.784   5.106  0.0119  0.2146 -0.3108
  131OSM   H15S14162   0.270   5.718   5.029 -1.3063  2.2170 -1.3366
  131OSM   H15T14163   0.420   5.801   5.072 -0.2231  0.7438 -0.7935
  131OSM   C16S14164   0.239   5.917   5.096 -0.1359  0.2306 -0.5047
  131OSM   H16S14165   0.252   5.980   5.005 -0.7901  0.2753 -0.5702
  131OSM   H16T14166   0.283   5.982   5.174 -0.6530  1.1644 -0.9740
  131OSM   C17S14167   0.093   5.897   5.094  0.2216  0.7042 -0.6826
  131OSM   H17S14168   0.063   5.817   5.165  0.5994 -0.5743 -1.9075
  131OSM   H17T14169   0.061   5.850   4.998 -1.0732 -3.7870  1.6328
  131OSM   C18S14170   0.014   6.017   5.135  0.2201  0.0936 -1.0647
  131OSM   H18S14171  -0.091   6.018   5.099  0.1381 -1.0516 -0.8716
  131OSM   H18T14172   0.060   6.114   5.105  1.4495  0.3142  1.2732
  131OSM   H18U14173   0.019   6.028   5.246 -3.4923  0.8326 -0.8423
  131OSM    C1F14174   0.733   6.129   6.577  0.8152  0.5070  0.3072
  131OSM     OF14175   0.835   6.093   6.629 -0.1928  0.0275 -0.7045
  131OSM    C2F14176   0.715   6.273   6.535 -0.0236 -0.4856  0.1626
  131OSM    H2F14177   0.742   6.335   6.623  2.2939 -1.7162  0.3824
  131OSM    H2G14178   0.610   6.292   6.504 -1.2107 -0.4455  3.6902
  131OSM    C3F14179   0.820   6.308   6.422  0.1676 -0.6128 -0.7061
  131OSM    H3F14180   0.807   6.232   6.342 -0.3240 -1.7233  0.3946
  131OSM    H3G14181   0.920   6.307   6.468  0.6844 -0.1091 -1.7848
  131OSM    C4F14182   0.811   6.448   6.360  0.1158  0.5711 -0.1037
  131OSM    H4F14183   0.832   6.529   6.433  1.2881  1.0323 -0.9283
  131OSM    H4G14184   0.707   6.447   6.321  0.7416 -0.0686 -1.8349
  131OSM    C5F14185   0.912   6.464   6.244  0.1187 -0.4602  0.6343
  131OSM    H5F14186   1.016   6.462   6.282  0.5186 -0.9693 -0.4447
  131OSM    H5G14187   0.888   6.563   6.200  1.1908 -0.7421 -0.6459
  131OSM    C6F14188   0.896   6.367   6.125 -0.6293  0.0387 -0.1185
  131OSM    H6F14189   0.787   6.363   6.106 -0.6078  1.0672 -0.5190
  131OSM    H6G14190   0.938   6.275   6.171  1.6819  2.0815  2.1162
  131OSM    C7F14191   0.982   6.397   6.000 -0.2414  0.0116 -0.4070
  131OSM    H7F14192   1.085   6.384   6.039  0.1056  2.1716 -0.4959
  131OSM    H7G14193   0.966   6.503   5.973  0.1669 -0.0949 -1.1006
  131OSM    C8F14194   0.952   6.311   5.876  0.0374 -0.0973 -0.4732
  131OSM    H8F14195   0.851   6.344   5.846 -0.1989 -0.6659 -0.3252
  131OSM    H8G14196   0.948   6.206   5.914 -0.4457  0.3887  0.8905
  131OSM    C9F14197   1.053   6.316   5.769 -0.6774 -0.2077 -0.0522
  131OSM    H9F14198   1.157   6.320   5.806 -0.0858  0.3438 -1.6592
  131OSM   C10F14199   1.037   6.312   5.635  1.0254 -0.2762  0.0429
  131OSM   H10F14200   1.128   6.295   5.575 -0.4475  0.4493 -2.5388
  131OSM   C11F14201   0.907   6.319   5.557  0.4480 -0.5020 -0.4563
  131OSM   H11F14202   0.833   6.393   5.596  0.2628 -1.0928  0.3405
  131OSM   H11G14203   0.860   6.218   5.562 -0.2705 -0.1188  2.4038
  131OSM   C12F14204   0.951   6.355   5.416 -0.4504 -0.0234 -0.3563
  131OSM   H12F14205   1.001   6.260   5.386  2.9922  1.0602  1.3956
  131OSM   H12G14206   1.028   6.433   5.394 -0.4049 -0.4209 -1.7201
  131OSM   C13F14207   0.836   6.385   5.314 -0.3254  0.2230 -0.6219
  131OSM   H13F14208   0.787   6.477   5.352 -1.1627 -0.6210  0.4126
  131OSM   H13G14209   0.764   6.300   5.313  0.7237 -0.6978 -0.1023
  131OSM   C14F14210   0.888   6.411   5.175 -0.0406 -0.4523  0.1843
  131OSM   H14F14211   0.934   6.315   5.141 -0.3435 -0.6752  0.3946
  131OSM   H14G14212   0.959   6.495   5.183  0.2082 -0.7645  1.3990
  131OSM   C15F14213   0.772   6.454   5.082 -0.1824  0.4782 -0.0321
  131OSM   H15F14214   0.702   6.518   5.139 -2.4033 -1.4643 -0.4433
  131OSM   H15G14215   0.713   6.363   5.062 -0.9409  0.4822  1.9598
  131OSM   C16F14216   0.825   6.505   4.946  0.3725  0.2554  0.1513
  131OSM   H16F14217   0.891   6.436   4.887 -0.0250  0.0317 -0.0385
  131OSM   H16G14218   0.886   6.596   4.965 -0.2111  0.4873  0.9249
  131OSM   C17F14219   0.716   6.541   4.838  0.7264 -0.6229  0.9274
  131OSM   H17F14220   0.623   6.584   4.883  0.1422 -0.4479 -0.4059
  131OSM   H17G14221   0.685   6.444   4.795 -0.4620 -1.0077  2.5378
  131OSM   C18F14222   0.757   6.641   4.730 -0.3184  0.1266  0.1213
  131OSM   H18F14223   0.821   6.602   4.648 -1.7070 -1.0155 -0.4525
  131OSM   H18G14224   0.818   6.720   4.780 -1.9386  0.2486  2.0621
  131OSM   H18H14225   0.672   6.697   4.686  0.2670  2.9559  2.2458
  132OSM      N14226   3.433   1.991   6.620 -0.3331  0.5231  0.3680
  132OSM    C1514227   3.327   2.032   6.711 -0.5024 -0.0893  0.2875
  132OSM   H15A14228   3.267   2.108   6.664  0.4743  0.2526 -0.4462
  132OSM   H15B14229   3.360   2.071   6.806 -1.6163  0.7885  0.3206
  132OSM   H15C14230   3.255   1.954   6.730 -3.5191  2.1003 -1.4640
  132OSM    C1414231   3.527   1.893   6.688 -0.1763 -0.4544  0.7265
  132OSM   H14A14232   3.595   1.851   6.616 -0.1382  1.0077 -0.1233
  132OSM   H14B14233   3.469   1.811   6.727 -1.4807 -0.6464 -1.4484
  132OSM   H14C14234   3.583   1.945   6.765  0.2140 -0.6491  0.5746
  132OSM    C1314235   3.379   1.920   6.501  0.0391  0.3523  0.4360
  132OSM   H13A14236   3.456   1.908   6.426 -1.1223 -1.1280 -0.5775
  132OSM   H13B14237   3.313   1.987   6.446 -0.2524  0.2201  0.6210
  132OSM   H13C14238   3.337   1.823   6.523  0.2536  0.7476  2.7946
  132OSM    C1214239   3.509   2.112   6.578 -0.1842 -0.1876  0.9731
  132OSM   H12A14240   3.582   2.080   6.506 -0.0308  0.3120  0.9073
  132OSM   H12B14241   3.561   2.139   6.669  0.7790 -0.6849  0.5811
  132OSM    C1114242   3.434   2.240   6.520 -0.8719  0.4017 -0.4639
  132OSM   H11A14243   3.341   2.218   6.465  0.5206  1.2962 -3.3584
  132OSM   H11B14244   3.492   2.283   6.435 -1.1660  2.8729  0.5251
  132OSM      P14245   3.523   2.433   6.675  0.0525  0.0677 -0.3705
  132OSM    O1314246   3.470   2.514   6.785  0.4441 -0.6105  0.5949
  132OSM    O1414247   3.649   2.362   6.700  0.1452  0.4287  0.4850
  132OSM    O1114248   3.545   2.516   6.546 -0.5234 -0.0755  0.4596
  132OSM    O1214249   3.410   2.336   6.625 -0.7319  0.7960  0.4564
  132OSM    C1S14250   3.673   2.575   6.515 -0.6491  0.6935  0.0968
  132OSM    H1S14251   3.748   2.493   6.520 -0.0305  1.1509 -1.3402
  132OSM    H1T14252   3.705   2.633   6.605  0.9087 -0.6800  0.4747
  132OSM     NF14253   3.805   2.727   6.340 -0.3805  0.4743 -0.5420
  132OSM    HNF14254   3.801   2.825   6.356  0.4060  0.4675 -0.2414
  132OSM    C2S14255   3.681   2.656   6.375 -0.7788 -0.0659 -0.2125
  132OSM    H2S14256   3.666   2.580   6.295 -1.9512  0.7775 -0.8354
  132OSM    C3S14257   3.560   2.750   6.366 -0.6328  0.3164 -0.7701
  132OSM    H3S14258   3.580   2.831   6.439  1.0899  2.1257 -3.0902
  132OSM     O314259   3.433   2.706   6.411 -0.0228  0.1224 -0.0263
  132OSM    HO314260   3.460   2.623   6.450  1.2019 -0.0013 -1.0919
  132OSM    C4S14261   3.543   2.820   6.234 -0.1896 -0.3086  0.0562
  132OSM    H4S14262   3.601   2.913   6.219  1.4415 -1.2790  0.0720
  132OSM    C5S14263   3.459   2.800   6.126 -0.7505  1.1669  0.2014
  132OSM    H5S14264   3.389   2.715   6.122  1.1696 -0.4910 -0.1662
  132OSM    C6S14265   3.463   2.888   6.008  0.5502 -0.3142  0.1671
  132OSM    H6S14266   3.564   2.926   5.983  0.7841 -0.7092  0.5091
  132OSM    H6T14267   3.400   2.974   6.038  0.2703 -0.6942  0.7015
  132OSM    C7S14268   3.399   2.807   5.885  0.7053  0.4126  0.0131
  132OSM    H7S14269   3.305   2.760   5.922  1.2226  0.0639  0.9269
  132OSM    H7T14270   3.473   2.732   5.850  1.1815  1.5363 -1.4983
  132OSM    C8S14271   3.358   2.888   5.760 -0.0655 -0.0621  0.4364
  132OSM    H8S14272   3.449   2.943   5.725 -0.3774  0.2478  0.1104
  132OSM    H8T14273   3.288   2.968   5.789 -1.3443 -1.1309  0.3659
  132OSM    C9S14274   3.313   2.786   5.647 -0.3323 -0.2180  0.5021
  132OSM    H9S14275   3.393   2.710   5.634 -2.3510 -2.6293  1.2563
  132OSM    H9T14276   3.308   2.839   5.550  1.1538 -0.7898  0.0922
  132OSM   C10S14277   3.192   2.702   5.687 -0.1081 -0.1346  0.0666
  132OSM   H10S14278   3.101   2.762   5.669  0.5330  0.1661 -2.5017
  132OSM   H10T14279   3.205   2.665   5.791  3.2605  1.9378  0.5150
  132OSM   C11S14280   3.169   2.583   5.592  0.8843  0.4355  0.4530
  132OSM   H11S14281   3.075   2.525   5.605  1.3347 -0.4306 -0.0586
  132OSM   H11T14282   3.249   2.507   5.607 -0.6357 -0.9969  1.7171
  132OSM   C12S14283   3.163   2.623   5.440 -0.4066 -0.2054 -0.2555
  132OSM   H12S14284   3.258   2.669   5.408  0.1142 -2.2731 -1.9776
  132OSM   H12T14285   3.076   2.691   5.430  0.4678  0.8953 -0.4818
  132OSM   C13S14286   3.143   2.509   5.341 -0.5715 -0.0491  0.5543
  132OSM   H13S14287   3.072   2.442   5.395 -0.6668  1.2069  2.0537
  132OSM   H13T14288   3.237   2.451   5.331 -0.4697  0.4715 -2.4129
  132OSM   C14S14289   3.126   2.563   5.199 -0.1445  0.2845  0.1617
  132OSM   H14S14290   3.162   2.667   5.190  0.6886 -0.0510 -0.4868
  132OSM   H14T14291   3.016   2.570   5.183  0.0864 -2.0534 -3.7016
  132OSM   C15S14292   3.199   2.473   5.094 -0.3715 -0.3049  1.1006
  132OSM   H15S14293   3.115   2.417   5.047 -0.5733  1.0521 -0.2627
  132OSM   H15T14294   3.269   2.399   5.136 -0.6095 -1.9826 -1.2841
  132OSM   C16S14295   3.271   2.558   4.993  0.2808 -0.1248  0.1548
  132OSM   H16S14296   3.358   2.610   5.038  0.6839  1.6863 -2.5075
  132OSM   H16T14297   3.206   2.631   4.940  0.3687 -1.0900 -1.3639
  132OSM   C17S14298   3.320   2.465   4.879 -0.6130  0.0689 -0.5900
  132OSM   H17S14299   3.236   2.396   4.856 -1.6504  0.9053  0.5983
  132OSM   H17T14300   3.400   2.405   4.927 -1.8220 -1.6827 -0.6990
  132OSM   C18S14301   3.367   2.540   4.752 -0.2807 -0.1353  0.3903
  132OSM   H18S14302   3.446   2.617   4.762 -1.2785  1.3172 -1.9834
  132OSM   H18T14303   3.274   2.581   4.706 -1.8824  0.4930  3.8237
  132OSM   H18U14304   3.405   2.465   4.680 -1.8311 -0.4974 -0.0906
  132OSM    C1F14305   3.915   2.662   6.300 -0.1251  0.8465 -0.0026
  132OSM     OF14306   3.916   2.539   6.287  0.7457  0.1609 -0.0396
  132OSM    C2F14307   4.042   2.736   6.284 -0.6417 -0.1605  0.2476
  132OSM    H2F14308   4.096   2.749   6.380 -0.4626  1.1407 -0.0003
  132OSM    H2G14309   4.025   2.842   6.254 -1.3698 -0.0260  1.1027
  132OSM    C3F14310   4.140   2.681   6.175 -0.2542  0.0306  0.2787
  132OSM    H3F14311   4.181   2.588   6.220  0.7812 -0.6283 -1.8991
  132OSM    H3G14312   4.226   2.751   6.168  2.0649 -2.6413  0.2324
  132OSM    C4F14313   4.081   2.659   6.033 -0.4962  0.0792 -0.3137
  132OSM    H4F14314   3.989   2.719   6.014  1.0947  2.3717 -1.1608
  132OSM    H4G14315   4.066   2.551   6.010 -3.5376  0.4342 -0.4815
  132OSM    C5F14316   4.168   2.704   5.923  0.3318 -0.9845  0.3763
  132OSM    H5F14317   4.271   2.667   5.941  1.1843  1.3682  0.7221
  132OSM    H5G14318   4.180   2.813   5.907 -2.3341 -0.8202 -1.0952
  132OSM    C6F14319   4.122   2.649   5.790 -0.1157 -0.3612 -0.1237
  132OSM    H6F14320   4.016   2.667   5.765  0.2643 -0.3614 -1.8332
  132OSM    H6G14321   4.131   2.538   5.793  2.5210 -0.2818 -2.0202
  132OSM    C7F14322   4.213   2.697   5.674  0.0036 -0.5483 -0.1618
  132OSM    H7F14323   4.317   2.658   5.687  0.1590 -0.8936 -2.0688
  132OSM    H7G14324   4.216   2.808   5.669 -0.0502 -0.5560 -0.3657
  132OSM    C8F14325   4.165   2.671   5.527  0.7249  0.4772  0.3220
  132OSM    H8F14326   4.231   2.737   5.468  1.1978  0.2253  0.5650
  132OSM    H8G14327   4.058   2.696   5.515  0.4606 -0.1676  1.1557
  132OSM    C9F14328   4.192   2.526   5.506 -0.3360 -0.2628  0.6701
  132OSM    H9F14329   4.171   2.459   5.591 -1.1160  1.2621  1.7412
  132OSM   C10F14330   4.248   2.476   5.398  0.2733  0.0569 -0.1970
  132OSM   H10F14331   4.269   2.368   5.397 -0.1256 -0.0367 -1.8217
  132OSM   C11F14332   4.309   2.542   5.276 -0.4587  0.2074 -0.8952
  132OSM   H11F14333   4.399   2.483   5.248 -1.1807 -0.7126 -1.3290
  132OSM   H11G14334   4.342   2.643   5.309 -0.5411 -0.0332 -0.0368
  132OSM   C12F14335   4.228   2.560   5.146 -0.8343  0.3810 -0.1123
  132OSM   H12F14336   4.124   2.596   5.161 -0.7719  0.5723 -0.1384
  132OSM   H12G14337   4.197   2.465   5.095 -2.8831  1.3590 -0.8255
  132OSM   C13F14338   4.307   2.656   5.050 -0.0199 -0.3005  0.0228
  132OSM   H13F14339   4.406   2.615   5.022 -0.0330  0.1494 -0.6975
  132OSM   H13G14340   4.323   2.746   5.112  1.3979 -0.7431  0.3229
  132OSM   C14F14341   4.229   2.707   4.930 -0.2933  0.2474 -0.1089
  132OSM   H14F14342   4.147   2.778   4.955 -0.0596  0.1974  0.8148
  132OSM   H14G14343   4.185   2.615   4.885 -1.5007  1.2217 -0.9659
  132OSM   C15F14344   4.325   2.769   4.827 -0.7549 -0.2668 -0.0947
  132OSM   H15F14345   4.408   2.700   4.800  0.0114  0.4710  0.3324
  132OSM   H15G14346   4.363   2.859   4.880 -1.0191 -0.2337  0.0354
  132OSM   C16F14347   4.254   2.794   4.696  0.1647 -0.1332  0.2232
  132OSM   H16F14348   4.167   2.852   4.732  0.0425 -0.4212  0.3979
  132OSM   H16G14349   4.232   2.695   4.651  1.4828 -0.6771  0.6968
  132OSM   C17F14350   4.338   2.870   4.589  1.0567 -0.0256  0.2310
  132OSM   H17F14351   4.427   2.806   4.570 -0.2964 -1.7775 -0.4866
  132OSM   H17G14352   4.376   2.962   4.637 -1.4033  2.0110 -1.4105
  132OSM   C18F14353   4.270   2.918   4.467  0.0956 -0.2009 -0.6302
  132OSM   H18F14354   4.197   2.846   4.424 -0.5857  0.1587 -0.1023
  132OSM   H18G14355   4.333   2.933   4.377  0.8530 -2.0727 -0.4596
  132OSM   H18H14356   4.206   3.006   4.490 -2.0671 -1.4026 -1.6554
  133OSM      N14357   1.113   3.145   6.875  0.7094  0.1350  0.4688
  133OSM    C1514358   1.202   3.263   6.866 -0.6559  0.9747  0.5889
  133OSM   H15A14359   1.243   3.295   6.961  1.4437  0.3470 -0.0395
  133OSM   H15B14360   1.154   3.338   6.806 -0.4994 -0.2354 -1.1257
  133OSM   H15C14361   1.284   3.218   6.811 -2.0266 -2.0251  0.8326
  133OSM    C1414362   1.160   3.050   6.980 -0.4209  0.0475  0.7138
  133OSM   H14A14363   1.263   3.026   6.960 -0.3796  2.1340 -2.3216
  133OSM   H14B14364   1.107   2.957   6.995 -1.0520  0.5420  1.6162
  133OSM   H14C14365   1.168   3.103   7.073 -3.7805  2.1793 -0.0341
  133OSM    C1314366   0.983   3.203   6.922  0.1360 -0.2761 -0.7215
  133OSM   H13A14367   0.947   3.279   6.854  0.6961 -0.0564 -0.7729
  133OSM   H13B14368   1.001   3.253   7.016 -1.7344 -0.8245 -0.0203
  133OSM   H13C14369   0.907   3.127   6.934 -0.7500  0.5281 -1.0775
  133OSM    C1214370   1.099   3.079   6.739 -0.4485 -0.8816 -0.3565
  133OSM   H12A14371   1.193   3.060   6.690 -0.8677  0.2968 -1.7028
  133OSM   H12B14372   1.047   3.151   6.678  0.7538 -0.3854 -0.8255
  133OSM    C1114373   1.025   2.944   6.740 -0.2653  0.5619 -0.4258
  133OSM   H11A14374   1.078   2.869   6.803  1.8730  0.5235 -2.1589
  133OSM   H11B14375   1.027   2.902   6.637  1.7602 -0.7079  0.0688
  133OSM      P14376   0.817   2.863   6.879  0.3880  0.2985  0.1607
  133OSM    O1314377   0.916   2.825   6.983  0.4721  0.1100 -0.1693
  133OSM    O1414378   0.697   2.934   6.926  0.0318 -0.0256 -0.0668
  133OSM    O1114379   0.768   2.736   6.800 -0.4863 -0.4010 -0.1610
  133OSM    O1214380   0.887   2.961   6.778 -0.6330  0.8118  0.1449
  133OSM    C1S14381   0.668   2.729   6.703 -0.1793  0.6895  0.5914
  133OSM    H1S14382   0.576   2.788   6.724 -0.3455  0.3882  0.7121
  133OSM    H1T14383   0.635   2.624   6.694  2.1657  0.0303 -1.6181
  133OSM     NF14384   0.621   2.787   6.468 -0.4916 -0.5052  0.2226
  133OSM    HNF14385   0.610   2.705   6.413 -1.2350 -0.4311  0.2454
  133OSM    C2S14386   0.729   2.771   6.564 -0.0989  0.1533  0.2000
  133OSM    H2S14387   0.771   2.873   6.567  1.0275 -0.3194  2.1280
  133OSM    C3S14388   0.847   2.677   6.509  0.5971 -0.5386 -0.6651
  133OSM    H3S14389   0.804   2.584   6.467 -0.7832  0.2179 -0.9702
  133OSM     O314390   0.929   2.630   6.614 -0.3152  0.5511  0.1391
  133OSM    HO314391   0.884   2.645   6.697  1.1162  0.2864  0.9929
  133OSM    C4S14392   0.923   2.734   6.393  0.2201 -0.2827 -0.2455
  133OSM    H4S14393   0.955   2.838   6.410 -1.0763 -0.0005  0.6370
  133OSM    C5S14394   0.933   2.679   6.272  0.5888 -0.8382  0.1020
  133OSM    H5S14395   0.877   2.586   6.253  0.2429 -0.6455  0.1709
  133OSM    C6S14396   0.998   2.725   6.147 -0.2927  1.1868  0.0600
  133OSM    H6S14397   0.931   2.755   6.064 -0.6744 -2.9255 -1.3482
  133OSM    H6T14398   1.045   2.630   6.113 -0.8695  0.8074  0.3025
  133OSM    C7S14399   1.109   2.823   6.164 -0.2482 -1.2022  0.3507
  133OSM    H7S14400   1.170   2.788   6.250 -0.1864 -0.4390  0.6248
  133OSM    H7T14401   1.072   2.926   6.184  0.1824 -0.7157 -1.1895
  133OSM    C8S14402   1.198   2.842   6.039 -0.7286  0.4972  0.5202
  133OSM    H8S14403   1.251   2.746   6.025  1.0410  1.4251  0.6454
  133OSM    H8T14404   1.272   2.921   6.064  1.0007 -0.5689 -0.9442
  133OSM    C9S14405   1.122   2.869   5.909 -0.3173 -0.2581  0.2898
  133OSM    H9S14406   1.045   2.791   5.889  0.2530 -0.8106  0.1782
  133OSM    H9T14407   1.197   2.849   5.829  1.2426  1.0459  1.3695
  133OSM   C10S14408   1.056   3.014   5.899 -0.3796 -0.1009 -0.6217
  133OSM   H10S14409   1.124   3.098   5.925 -3.4854  2.1894  0.7396
  133OSM   H10T14410   0.972   3.014   5.972 -0.0649  0.4115 -0.2509
  133OSM   C11S14411   1.018   3.051   5.756  0.0400  0.1200 -0.0468
  133OSM   H11S14412   1.108   3.077   5.696 -0.2523 -0.1259 -0.6078
  133OSM   H11T14413   0.952   3.140   5.755 -0.0414  0.0569 -0.8214
  133OSM   C12S14414   0.938   2.941   5.677 -0.3415 -0.2232 -0.2861
  133OSM   H12S14415   0.857   2.904   5.743  0.6933 -0.6958  0.7620
  133OSM   H12T14416   1.008   2.858   5.653  0.9928  0.7980 -0.0852
  133OSM   C13S14417   0.878   2.987   5.541 -0.2757  0.1748  0.6104
  133OSM   H13S14418   0.823   3.081   5.561  1.5800  1.5383 -0.4337
  133OSM   H13T14419   0.819   2.899   5.505 -0.1736 -0.6713  2.3844
  133OSM   C14S14420   0.987   3.010   5.434 -0.3497 -0.1372  0.1779
  133OSM   H14S14421   1.057   2.924   5.432 -0.4938 -0.3294  1.9863
  133OSM   H14T14422   1.039   3.105   5.460 -0.6634  0.6488 -1.8517
  133OSM   C15S14423   0.927   3.036   5.291  0.0342 -0.0938 -0.4396
  133OSM   H15S14424   0.873   3.134   5.288 -0.0492 -0.1598 -2.0266
  133OSM   H15T14425   0.854   2.957   5.261 -0.5802  0.6945 -1.0826
  133OSM   C16S14426   1.035   3.036   5.182  0.5811 -0.8007  0.2321
  133OSM   H16S14427   1.086   2.939   5.197 -0.7361 -1.8098 -1.4236
  133OSM   H16T14428   1.102   3.119   5.210  1.0827 -1.3708  0.7427
  133OSM   C17S14429   0.992   3.043   5.031 -0.1768  0.2145 -0.0347
  133OSM   H17S14430   1.071   3.047   4.953 -0.4591 -1.5082 -0.4571
  133OSM   H17T14431   0.926   3.130   5.010 -0.3178  0.0717 -0.2048
  133OSM   C18S14432   0.896   2.927   4.997 -0.6914 -0.0110 -0.6747
  133OSM   H18S14433   0.934   2.830   5.036 -0.4652  0.5408  0.5203
  133OSM   H18T14434   0.876   2.930   4.888 -0.8218 -0.8259 -0.6800
  133OSM   H18U14435   0.803   2.943   5.055 -0.1290 -0.6172  0.4302
  133OSM    C1F14436   0.543   2.896   6.472  0.1335  0.2274 -0.0808
  133OSM     OF14437   0.545   2.968   6.570 -0.1369  0.0559  0.2456
  133OSM    C2F14438   0.461   2.935   6.354  0.5408 -0.9938 -0.1937
  133OSM    H2F14439   0.412   3.026   6.394 -0.8279 -0.7237 -2.3570
  133OSM    H2G14440   0.375   2.868   6.335 -1.3078  1.4795 -0.9808
  133OSM    C3F14441   0.540   2.961   6.229  0.0040 -0.4352  0.2760
  133OSM    H3F14442   0.610   2.883   6.193 -0.7275  0.2517 -2.9973
  133OSM    H3G14443   0.594   3.058   6.226 -1.1228  0.2272 -2.8974
  133OSM    C4F14444   0.443   2.972   6.116 -0.0553  0.1705  0.8822
  133OSM    H4F14445   0.371   3.047   6.154 -0.8766 -0.2347  0.1430
  133OSM    H4G14446   0.395   2.875   6.091  0.6713 -0.1403  0.6794
  133OSM    C5F14447   0.518   3.004   5.984  0.0745 -0.8212  0.0029
  133OSM    H5F14448   0.571   2.911   5.954  0.9720  0.1236 -1.4840
  133OSM    H5G14449   0.593   3.084   6.001  0.1496 -1.0833  0.9644
  133OSM    C6F14450   0.422   3.051   5.875 -0.9194  0.1069 -0.3208
  133OSM    H6F14451   0.393   3.156   5.896 -2.2759 -0.3328  0.1390
  133OSM    H6G14452   0.325   2.997   5.882 -1.3185  0.8193 -0.1780
  133OSM    C7F14453   0.482   3.024   5.734 -0.6595  0.3324  0.6903
  133OSM    H7F14454   0.465   2.918   5.708 -0.8270  0.6007 -0.3249
  133OSM    H7G14455   0.592   3.034   5.732 -0.7078  0.8367  0.0725
  133OSM    C8F14456   0.409   3.109   5.622 -1.0782  0.0926 -0.3498
  133OSM    H8F14457   0.469   3.102   5.529 -0.3042  1.5320  0.0143
  133OSM    H8G14458   0.424   3.217   5.638 -1.3746  0.6394 -3.3265
  133OSM    C9F14459   0.264   3.071   5.599  0.4831  0.1061 -0.3786
  133OSM    H9F14460   0.185   3.133   5.644  0.7424  0.5900 -0.5867
  133OSM   C10F14461   0.221   2.985   5.514  0.3121  0.1342  0.2641
  133OSM   H10F14462   0.114   2.965   5.494  0.3420  0.7232 -0.5044
  133OSM   C11F14463   0.300   2.896   5.416 -0.6824 -0.2660  0.4852
  133OSM   H11F14464   0.258   2.793   5.415  0.8054 -0.8824 -0.4868
  133OSM   H11G14465   0.400   2.873   5.458  0.3725 -1.7749 -2.5633
  133OSM   C12F14466   0.342   2.941   5.270 -0.8191 -0.2199  0.3002
  133OSM   H12F14467   0.380   3.045   5.276 -1.1288 -0.0856 -0.0657
  133OSM   H12G14468   0.254   2.940   5.202  0.2433  0.3457 -1.1283
  133OSM   C13F14469   0.438   2.846   5.201  0.1168  0.6360 -0.1791
  133OSM   H13F14470   0.382   2.750   5.207 -1.2542  1.4486  0.4222
  133OSM   H13G14471   0.532   2.850   5.259 -1.6692  0.9409  2.8947
  133OSM   C14F14472   0.463   2.902   5.060 -0.0946 -0.2300 -0.4423
  133OSM   H14F14473   0.505   3.004   5.065  2.3943 -1.2118  0.1986
  133OSM   H14G14474   0.372   2.905   4.996  0.6609  1.3754 -1.5030
  133OSM   C15F14475   0.567   2.810   4.987 -0.7095 -0.4277  0.4193
  133OSM   H15F14476   0.655   2.771   5.042  0.6543  3.2139  1.1169
  133OSM   H15G14477   0.614   2.871   4.907 -2.1403 -0.3406 -0.3879
  133OSM   C16F14478   0.509   2.690   4.918  0.0252 -0.2941  0.0033
  133OSM   H16F14479   0.440   2.722   4.837 -1.6396 -1.7375  0.7818
  133OSM   H16G14480   0.440   2.627   4.978 -0.8242  0.1986 -0.4230
  133OSM   C17F14481   0.620   2.599   4.872 -0.1890  0.5542  0.0529
  133OSM   H17F14482   0.574   2.504   4.836 -0.3180 -0.0407  1.7011
  133OSM   H17G14483   0.682   2.567   4.958 -1.3515 -0.4199  0.5605
  133OSM   C18F14484   0.707   2.648   4.754  0.1107  0.1336  0.0577
  133OSM   H18F14485   0.645   2.686   4.670 -2.3083 -1.3914  1.0340
  133OSM   H18G14486   0.755   2.560   4.705  1.7438  0.2450  1.3423
  133OSM   H18H14487   0.778   2.727   4.786 -1.5764  1.8561 -0.2608
  134OSM      N14488   6.011   1.111   6.705  0.5072  0.5738 -0.0082
  134OSM    C1514489   5.996   1.023   6.829  0.5881 -0.1595  0.3320
  134OSM   H15A14490   6.091   0.982   6.862  1.2060  2.4374  2.0775
  134OSM   H15B14491   5.932   0.939   6.807  1.5394 -0.6911 -0.5014
  134OSM   H15C14492   5.964   1.075   6.918  2.7957 -0.1003  1.1515
  134OSM    C1414493   6.109   1.212   6.756  0.5999  0.6199  0.0468
  134OSM   H14A14494   6.074   1.270   6.840 -0.5096  1.0879 -0.7176
  134OSM   H14B14495   6.129   1.279   6.674  0.2056 -0.0172 -0.5770
  134OSM   H14C14496   6.203   1.162   6.773 -0.1954 -0.3784  1.7794
  134OSM    C1314497   6.059   1.035   6.584 -0.3576  0.1517  0.4087
  134OSM   H13A14498   5.983   0.964   6.557  0.3317 -0.5967  0.3748
  134OSM   H13B14499   6.152   0.984   6.605  0.3720  2.4728  3.5978
  134OSM   H13C14500   6.068   1.103   6.500  1.1062  0.2008  0.5706
  134OSM    C1214501   5.882   1.184   6.677  0.4949  0.5152 -0.1854
  134OSM   H12A14502   5.891   1.223   6.576  1.1667 -0.5438 -0.5601
  134OSM   H12B14503   5.879   1.258   6.755  2.0542 -1.1236  1.5070
  134OSM    C1114504   5.754   1.105   6.690  0.5217 -0.6697 -0.8478
  134OSM   H11A14505   5.663   1.168   6.683 -0.0231 -1.6302 -3.5640
  134OSM   H11B14506   5.747   1.075   6.797 -0.0696  0.1605 -0.6358
  134OSM      P14507   5.719   0.848   6.649  0.0776 -0.0544 -0.0017
  134OSM    O1314508   5.768   0.755   6.552  0.3458  0.2234  0.5367
  134OSM    O1414509   5.767   0.824   6.788  0.3386 -0.0143  0.0666
  134OSM    O1114510   5.556   0.847   6.650 -0.4261  0.2897  0.4054
  134OSM    O1214511   5.748   0.998   6.601  0.2741  0.2247  0.2403
  134OSM    C1S14512   5.494   0.885   6.520 -0.2132  0.4529  0.1844
  134OSM    H1S14513   5.574   0.919   6.451  1.1620  1.8965  2.3826
  134OSM    H1T14514   5.424   0.971   6.532  1.5448  1.9003  0.4320
  134OSM     NF14515   5.368   0.782   6.318 -0.2519 -0.1660  0.6069
  134OSM    HNF14516   5.269   0.777   6.305  0.0046 -2.7861 -1.1957
  134OSM    C2S14517   5.418   0.763   6.455  0.3191  0.0659  0.0830
  134OSM    H2S14518   5.497   0.686   6.449  1.9014  1.4343  2.0099
  134OSM    C3S14519   5.301   0.709   6.551 -0.6265  0.2879  0.5775
  134OSM    H3S14520   5.214   0.779   6.553  0.7679  2.0819  0.8632
  134OSM     O314521   5.331   0.702   6.689  0.1324 -0.4310 -0.2272
  134OSM    HO314522   5.413   0.751   6.691  0.7701 -1.4712 -0.2989
  134OSM    C4S14523   5.250   0.575   6.493  0.0225 -0.4047  0.5817
  134OSM    H4S14524   5.334   0.511   6.464 -0.2401  0.3575 -2.1073
  134OSM    C5S14525   5.119   0.546   6.474 -1.4282  0.7606  0.2189
  134OSM    H5S14526   5.046   0.611   6.523  1.1625  2.5286  1.9498
  134OSM    C6S14527   5.072   0.410   6.420  0.0072  0.5569  0.2820
  134OSM    H6S14528   5.015   0.355   6.498 -0.1060 -2.4108 -1.7226
  134OSM    H6T14529   5.154   0.338   6.398 -0.2587  0.0859  0.8006
  134OSM    C7S14530   4.994   0.442   6.292 -0.8000  0.3369 -0.0747
  134OSM    H7S14531   4.923   0.523   6.318  2.3145  3.1757  0.2666
  134OSM    H7T14532   4.941   0.347   6.268 -0.0890 -0.7847  2.4762
  134OSM    C8S14533   5.084   0.497   6.180 -0.5863 -1.2609  0.1053
  134OSM    H8S14534   5.184   0.449   6.178 -0.3405 -0.7968 -2.5649
  134OSM    H8T14535   5.109   0.604   6.195  0.9699 -0.6056 -5.0996
  134OSM    C9S14536   5.009   0.492   6.047  0.2992  0.4554  0.3425
  134OSM    H9S14537   4.915   0.549   6.062  0.4956  0.2577  2.5784
  134OSM    H9T14538   4.981   0.385   6.038 -1.7597  0.8839  1.2615
  134OSM   C10S14539   5.098   0.551   5.940  0.6848  0.0446 -0.0767
  134OSM   H10S14540   5.201   0.509   5.936  0.5841 -0.3395  0.9798
  134OSM   H10T14541   5.105   0.660   5.958  1.1945 -0.0638  0.4200
  134OSM   C11S14542   5.037   0.527   5.799  0.8796  0.4818  0.8459
  134OSM   H11S14543   4.928   0.547   5.787  0.6008 -1.8786 -1.4602
  134OSM   H11T14544   5.043   0.418   5.777 -0.9181  0.8739 -2.0041
  134OSM   C12S14545   5.101   0.597   5.680 -0.6440  0.6331 -0.8933
  134OSM   H12S14546   5.203   0.554   5.684 -1.3786 -1.1550  2.4437
  134OSM   H12T14547   5.098   0.707   5.684 -0.0484  0.7593 -2.7854
  134OSM   C13S14548   5.020   0.558   5.560 -0.1243  0.0526  0.1516
  134OSM   H13S14549   4.911   0.567   5.578  0.0358  0.1347  1.1259
  134OSM   H13T14550   5.026   0.449   5.539 -0.3468  0.2413 -0.9550
  134OSM   C14S14551   5.065   0.637   5.435 -0.1539  0.5183 -0.6939
  134OSM   H14S14552   5.168   0.613   5.401 -0.1984 -0.4829 -0.1537
  134OSM   H14T14553   5.079   0.744   5.460  0.0785  0.2283  0.4841
  134OSM   C15S14554   4.964   0.610   5.319  0.2621 -0.4715  0.3867
  134OSM   H15S14555   4.863   0.619   5.365 -1.3218 -3.0811 -2.2527
  134OSM   H15T14556   4.973   0.504   5.287  0.2371 -0.6362  0.9067
  134OSM   C16S14557   4.981   0.709   5.208 -0.0522 -0.4732 -0.0260
  134OSM   H16S14558   5.079   0.725   5.159 -0.2760  0.7436 -0.1192
  134OSM   H16T14559   4.940   0.808   5.239  1.5112  0.5451 -1.0444
  134OSM   C17S14560   4.886   0.678   5.090  0.1768 -0.7194  0.3186
  134OSM   H17S14561   4.784   0.657   5.128 -0.5357 -0.0022 -1.1278
  134OSM   H17T14562   4.914   0.581   5.045 -0.0820 -0.3226 -0.7272
  134OSM   C18S14563   4.891   0.772   4.974  0.0673  0.1959  0.0878
  134OSM   H18S14564   4.834   0.730   4.889  1.6864 -0.8464 -0.5255
  134OSM   H18T14565   4.996   0.785   4.941 -0.2586  1.6380 -0.4236
  134OSM   H18U14566   4.852   0.874   4.994 -0.2062 -0.2925  2.3357
  134OSM    C1F14567   5.442   0.806   6.213 -0.4307 -0.3456 -0.0603
  134OSM     OF14568   5.562   0.803   6.215 -0.0769  0.0281  0.1303
  134OSM    C2F14569   5.373   0.836   6.084 -0.5906  0.4410 -0.2742
  134OSM    H2F14570   5.292   0.909   6.104 -1.3437 -0.4415 -0.0468
  134OSM    H2G14571   5.327   0.738   6.057 -0.8128  0.3346  0.4759
  134OSM    C3F14572   5.455   0.888   5.967  0.6071  0.9879 -0.3359
  134OSM    H3F14573   5.535   0.814   5.943 -0.3545  0.3116 -1.5706
  134OSM    H3G14574   5.512   0.977   6.000  0.9227 -0.0996  2.3441
  134OSM    C4F14575   5.375   0.902   5.841 -0.3140 -0.0895  0.1272
  134OSM    H4F14576   5.292   0.975   5.852  0.1468  0.9117 -2.2871
  134OSM    H4G14577   5.333   0.800   5.827  1.4249 -0.6903 -1.1824
  134OSM    C5F14578   5.471   0.918   5.722 -0.4427 -0.5271  0.0630
  134OSM    H5F14579   5.553   0.843   5.719  1.0917  1.0372  0.9672
  134OSM    H5G14580   5.534   1.005   5.752  1.6686 -3.0292  3.5224
  134OSM    C6F14581   5.393   0.924   5.587  0.1650 -0.7970 -0.4517
  134OSM    H6F14582   5.300   0.984   5.599  0.1935 -0.7806 -0.3061
  134OSM    H6G14583   5.358   0.820   5.571 -0.4362 -0.8839  1.2107
  134OSM    C7F14584   5.482   0.964   5.475  0.3283  0.5621 -0.2154
  134OSM    H7F14585   5.570   0.897   5.465 -0.1053 -0.2916  1.4361
  134OSM    H7G14586   5.520   1.064   5.506  0.3428  0.7658 -0.8608
  134OSM    C8F14587   5.406   0.990   5.349  0.4319  0.1556 -0.1815
  134OSM    H8F14588   5.478   1.045   5.285  0.9480 -0.7242 -0.3802
  134OSM    H8G14589   5.327   1.067   5.361 -0.5697 -0.2797 -3.1178
  134OSM    C9F14590   5.353   0.867   5.276 -0.7758 -0.0819 -0.7674
  134OSM    H9F14591   5.296   0.793   5.334 -0.4397  2.0712  2.5832
  134OSM   C10F14592   5.374   0.843   5.141  0.3526 -0.9185 -0.9506
  134OSM   H10F14593   5.323   0.757   5.094 -2.8924 -0.3754  1.2571
  134OSM   C11F14594   5.433   0.947   5.051  0.3282  0.2877  1.1178
  134OSM   H11F14595   5.543   0.932   5.051  0.5206  1.4634 -0.2495
  134OSM   H11G14596   5.428   1.051   5.089  1.6335 -0.1508  2.5628
  134OSM   C12F14597   5.378   0.948   4.903  0.2860  0.6929 -0.6632
  134OSM   H12F14598   5.365   0.844   4.867 -1.6790  1.0211 -1.0258
  134OSM   H12G14599   5.456   0.993   4.839  2.8969  2.0201  3.1028
  134OSM   C13F14600   5.255   1.035   4.883  0.1104  0.5556 -0.1108
  134OSM   H13F14601   5.280   1.142   4.894 -0.4110  0.6018  0.8355
  134OSM   H13G14602   5.191   1.008   4.971  1.0013 -1.6484 -0.0794
  134OSM   C14F14603   5.181   1.000   4.751 -0.3956 -1.3932 -0.0724
  134OSM   H14F14604   5.174   0.892   4.727 -1.7639 -1.4944  0.6491
  134OSM   H14G14605   5.233   1.048   4.665 -1.1009  0.5420  0.5156
  134OSM   C15F14606   5.027   1.034   4.737 -0.0597 -0.3580 -0.3606
  134OSM   H15F14607   5.008   1.134   4.782  1.3198  1.7333 -3.9328
  134OSM   H15G14608   4.967   0.965   4.800 -0.5459 -0.0666 -0.4983
  134OSM   C16F14609   4.973   1.042   4.589  0.5225  0.9175 -0.5044
  134OSM   H16F14610   4.862   1.044   4.587  0.5193  1.2250 -0.0905
  134OSM   H16G14611   5.009   0.948   4.542  3.8005  0.7956  1.8885
  134OSM   C17F14612   5.010   1.166   4.513 -0.0262 -0.1564  0.0785
  134OSM   H17F14613   5.121   1.170   4.517  0.0655 -0.9890 -1.1191
  134OSM   H17G14614   4.974   1.259   4.562  0.4610 -0.3592  0.8564
  134OSM   C18F14615   4.968   1.162   4.371 -0.3880  0.2624  0.1281
  134OSM   H18F14616   4.857   1.170   4.366 -0.2368  2.9236 -0.9928
  134OSM   H18G14617   5.003   1.066   4.327  0.9899  1.5288 -1.7012
  134OSM   H18H14618   5.011   1.241   4.306  0.6470 -0.4013 -0.0093
  135OSM      N14619   6.149   0.328   6.951  0.5713 -0.3290 -0.0663
  135OSM    C1514620   6.251   0.214   6.922  0.1610  0.3481 -0.3080
  135OSM   H15A14621   6.210   0.140   6.856  1.3183  0.3460 -1.0527
  135OSM   H15B14622   6.292   0.176   7.015 -2.1220  1.1675  1.1394
  135OSM   H15C14623   6.333   0.247   6.860  1.1958 -0.0916  0.7809
  135OSM    C1414624   6.207   0.421   7.050  0.4459 -0.8554  0.1537
  135OSM   H14A14625   6.140   0.504   7.064  0.2596 -0.3826 -2.8642
  135OSM   H14B14626   6.309   0.448   7.030  1.4178 -3.0247  1.7072
  135OSM   H14C14627   6.213   0.367   7.143 -0.5547 -0.8671  0.2186
  135OSM    C1314628   6.126   0.402   6.823  0.4637 -0.0758  0.0638
  135OSM   H13A14629   6.024   0.437   6.816 -0.1621 -2.0309 -1.8015
  135OSM   H13B14630   6.152   0.341   6.738  0.7666  0.4417 -0.2174
  135OSM   H13C14631   6.188   0.490   6.826 -3.3394  2.9393 -1.4686
  135OSM    C1214632   6.016   0.268   7.002 -0.5426 -0.3647  0.5657
  135OSM   H12A14633   6.043   0.209   7.089 -1.1605 -1.0206  0.3237
  135OSM   H12B14634   5.973   0.190   6.942 -1.1332 -0.3346  0.9442
  135OSM    C1114635   5.904   0.365   7.047 -0.4534 -0.0894  0.8590
  135OSM   H11A14636   5.951   0.455   7.092  0.4171 -0.4471  0.6793
  135OSM   H11B14637   5.841   0.318   7.126 -1.0953  0.2349  0.5443
  135OSM      P14638   5.716   0.280   6.875  0.1141  0.0230  0.0511
  135OSM    O1314639   5.783   0.148   6.870  0.5716  0.0788  0.4033
  135OSM    O1414640   5.590   0.290   6.959  0.2599 -0.6186  0.3917
  135OSM    O1114641   5.688   0.332   6.731  0.0359 -0.5509 -0.3528
  135OSM    O1214642   5.816   0.388   6.931  0.0208  0.2640  0.5896
  135OSM    C1S14643   5.771   0.398   6.637  0.2888 -0.1803 -0.6212
  135OSM    H1S14644   5.878   0.371   6.653 -0.4806 -1.6748  2.8407
  135OSM    H1T14645   5.752   0.507   6.640 -1.1181 -0.4287  0.0752
  135OSM     NF14646   5.838   0.424   6.404 -0.2381 -0.1272 -0.4948
  135OSM    HNF14647   5.810   0.508   6.359  0.9606  1.0602  0.8733
  135OSM    C2S14648   5.743   0.359   6.489  0.4289  0.6982  0.0384
  135OSM    H2S14649   5.766   0.251   6.484  1.9323  0.9983  0.0965
  135OSM    C3S14650   5.596   0.379   6.446 -0.6368  0.0998  1.0511
  135OSM    H3S14651   5.569   0.487   6.452 -1.4255  0.0371 -0.7824
  135OSM     O314652   5.498   0.321   6.535 -0.4325  0.0678  0.1918
  135OSM    HO314653   5.552   0.291   6.609  1.5208 -1.2029 -1.6167
  135OSM    C4S14654   5.565   0.326   6.303 -0.8451 -0.1091  0.5261
  135OSM    H4S14655   5.594   0.222   6.282  1.4702  0.8065 -1.3937
  135OSM    C5S14656   5.506   0.404   6.212  0.4041 -1.1179  0.2107
  135OSM    H5S14657   5.488   0.509   6.239 -0.2618 -1.0003 -0.6439
  135OSM    C6S14658   5.479   0.368   6.065  0.1246  0.0538 -1.1148
  135OSM    H6S14659   5.372   0.350   6.042 -0.4913  0.9504  0.8728
  135OSM    H6T14660   5.536   0.274   6.050  2.1871  0.3784  3.2192
  135OSM    C7S14661   5.535   0.470   5.965 -0.7807  0.4555  0.0571
  135OSM    H7S14662   5.634   0.509   5.997 -0.2313 -3.0159  3.2202
  135OSM    H7T14663   5.462   0.554   5.956  0.5537  1.4815 -2.3089
  135OSM    C8S14664   5.541   0.405   5.829  0.2763  0.0136 -0.0198
  135OSM    H8S14665   5.443   0.355   5.815  0.1192 -0.2673  1.8190
  135OSM    H8T14666   5.625   0.333   5.826  0.3397  0.1211 -2.2283
  135OSM    C9S14667   5.560   0.509   5.708 -0.0907 -0.4633 -0.3312
  135OSM    H9S14668   5.660   0.556   5.714  0.9285 -2.5253 -0.3011
  135OSM    H9T14669   5.487   0.591   5.724  0.7599  0.7498 -2.2020
  135OSM   C10S14670   5.541   0.448   5.566  0.4641  0.0339 -1.4763
  135OSM   H10S14671   5.439   0.405   5.564  0.4720 -0.0805 -0.1549
  135OSM   H10T14672   5.610   0.362   5.550  2.9506  1.1987  1.8639
  135OSM   C11S14673   5.555   0.564   5.468 -1.3261  0.5362 -0.1571
  135OSM   H11S14674   5.647   0.624   5.490 -1.4677  0.4770  0.6282
  135OSM   H11T14675   5.466   0.631   5.469 -0.6653  1.4564 -0.7325
  135OSM   C12S14676   5.558   0.501   5.326  0.4573  0.9731 -0.7746
  135OSM   H12S14677   5.455   0.486   5.287 -0.5007 -0.7926  2.1612
  135OSM   H12T14678   5.618   0.410   5.304 -0.6219  0.2975 -1.0328
  135OSM   C13S14679   5.620   0.595   5.222  0.6081  0.3361  1.0820
  135OSM   H13S14680   5.721   0.631   5.249  0.8195  0.3311  0.3380
  135OSM   H13T14681   5.551   0.681   5.207 -1.8166 -1.8602 -1.7007
  135OSM   C14S14682   5.634   0.542   5.072  0.2054 -0.3475 -0.5981
  135OSM   H14S14683   5.534   0.499   5.048  0.3158 -1.7320  1.2688
  135OSM   H14T14684   5.716   0.467   5.066  2.6005  2.1977 -1.9608
  135OSM   C15S14685   5.651   0.650   4.963  0.2467  0.4499  0.6560
  135OSM   H15S14686   5.744   0.708   4.980  0.0828  0.7251  0.6233
  135OSM   H15T14687   5.562   0.716   4.962 -0.1039  0.0333 -1.7736
  135OSM   C16S14688   5.647   0.592   4.813 -0.0341  0.2900  0.0294
  135OSM   H16S14689   5.599   0.669   4.748 -1.8521  1.5209  2.6549
  135OSM   H16T14690   5.578   0.505   4.815  0.0874  0.2052  1.1788
  135OSM   C17S14691   5.785   0.541   4.766  0.0053 -0.1530 -0.7410
  135OSM   H17S14692   5.842   0.500   4.852  0.2568  1.5645 -0.0268
  135OSM   H17T14693   5.839   0.634   4.738  1.5318 -0.0447  2.1446
  135OSM   C18S14694   5.787   0.436   4.658  0.6353  0.9218 -0.0014
  135OSM   H18S14695   5.887   0.395   4.631  0.6512  1.0589 -0.1552
  135OSM   H18T14696   5.743   0.471   4.562  1.1448  1.3144 -0.0936
  135OSM   H18U14697   5.721   0.353   4.691  2.3140  0.1423  1.5623
  135OSM    C1F14698   5.965   0.381   6.393 -0.2408 -0.2867  0.0712
  135OSM     OF14699   6.008   0.291   6.462  0.3075  0.3070 -0.1394
  135OSM    C2F14700   6.051   0.457   6.295  0.4423 -0.1251  0.0863
  135OSM    H2F14701   6.156   0.461   6.330  0.5439 -1.6458  0.0269
  135OSM    H2G14702   6.014   0.562   6.297 -0.2081 -0.3533  1.9104
  135OSM    C3F14703   6.046   0.395   6.157 -0.8784  0.6486 -0.4025
  135OSM    H3F14704   5.954   0.387   6.095 -0.7944  0.4028 -0.4999
  135OSM    H3G14705   6.083   0.291   6.173 -2.8441  0.1571  1.4724
  135OSM    C4F14706   6.138   0.481   6.059  0.1574  0.8325  0.1087
  135OSM    H4F14707   6.097   0.583   6.041 -0.2552  0.6491  0.0248
  135OSM    H4G14708   6.236   0.502   6.108  0.1751  0.6804  0.1400
  135OSM    C5F14709   6.181   0.411   5.934  0.5713 -0.3246  0.5840
  135OSM    H5F14710   6.197   0.303   5.954 -0.2945 -0.5314  0.2020
  135OSM    H5G14711   6.276   0.458   5.900  0.4602  0.2495  1.0486
  135OSM    C6F14712   6.071   0.420   5.823  0.2917  0.4957 -0.1985
  135OSM    H6F14713   6.067   0.526   5.790  1.2182  0.3605 -0.7863
  135OSM    H6G14714   5.973   0.376   5.850  0.2243 -0.0977 -1.3518
  135OSM    C7F14715   6.119   0.335   5.703 -0.7991 -0.2320 -0.0264
  135OSM    H7F14716   6.116   0.230   5.739 -1.6095 -0.0597  0.4136
  135OSM    H7G14717   6.223   0.370   5.685  0.1108 -3.3104 -1.4269
  135OSM    C8F14718   6.029   0.350   5.583  0.3358 -0.1385  0.1931
  135OSM    H8F14719   6.025   0.460   5.568  1.0177 -0.1971 -0.4943
  135OSM    H8G14720   5.923   0.324   5.603 -0.3035  0.5953 -1.9577
  135OSM    C9F14721   6.062   0.285   5.452 -1.0222  0.0515  0.3950
  135OSM    H9F14722   6.032   0.179   5.445 -1.6990  0.0109  2.8788
  135OSM   C10F14723   6.120   0.353   5.346 -0.2002  1.0981  0.0759
  135OSM   H10F14724   6.158   0.293   5.262 -1.3429  0.5117 -0.0462
  135OSM   C11F14725   6.163   0.497   5.345 -0.0605 -1.0853  0.3562
  135OSM   H11F14726   6.274   0.494   5.351  0.1809  0.7262 -1.8374
  135OSM   H11G14727   6.130   0.556   5.433  1.5569 -0.2474  0.4580
  135OSM   C12F14728   6.111   0.574   5.225 -0.4425  0.2878 -0.2441
  135OSM   H12F14729   6.146   0.680   5.227  0.6710 -0.0097 -1.6551
  135OSM   H12G14730   6.002   0.588   5.237 -0.4810 -0.7021  0.7687
  135OSM   C13F14731   6.138   0.519   5.080  0.4526 -0.1144 -0.1487
  135OSM   H13F14732   6.066   0.435   5.064  1.5215 -0.9535 -0.7078
  135OSM   H13G14733   6.243   0.491   5.055  0.0883  0.3899 -2.5000
  135OSM   C14F14734   6.121   0.622   4.966 -0.0953 -0.6686 -0.3308
  135OSM   H14F14735   6.196   0.702   4.983 -1.3114  0.7035 -1.1120
  135OSM   H14G14736   6.024   0.674   4.977 -0.6114 -1.1248 -2.2530
  135OSM   C15F14737   6.145   0.562   4.829  0.6457 -1.0463  0.2049
  135OSM   H15F14738   6.060   0.500   4.793 -1.1189  0.8590  0.9156
  135OSM   H15G14739   6.232   0.493   4.822  0.4944 -1.0670 -2.1825
  135OSM   C16F14740   6.174   0.675   4.721 -0.0630 -0.3900  0.6461
  135OSM   H16F14741   6.276   0.720   4.722 -0.1804  0.6058 -4.8940
  135OSM   H16G14742   6.098   0.755   4.736  0.9162  0.6667  0.1336
  135OSM   C17F14743   6.181   0.618   4.575 -0.4231 -0.3911 -0.1015
  135OSM   H17F14744   6.204   0.702   4.506 -0.7042 -0.7717 -0.6660
  135OSM   H17G14745   6.080   0.578   4.550 -0.2042  0.4016 -2.5065
  135OSM   C18F14746   6.276   0.499   4.546 -0.7282  0.3628  0.0827
  135OSM   H18F14747   6.385   0.525   4.546 -0.5496 -0.0562 -2.9630
  135OSM   H18G14748   6.255   0.471   4.441 -2.3520  0.8728  0.2562
  135OSM   H18H14749   6.249   0.417   4.615 -2.6793 -0.0674 -1.1405
  136OSM      N14750   3.540   6.604   6.897  0.4824  0.1379  0.2811
  136OSM    C1514751   3.439   6.576   7.000 -0.3921 -0.1646 -0.3488
  136OSM   H15A14752   3.480   6.600   7.097  0.8351  1.6412 -1.2440
  136OSM   H15B14753   3.407   6.473   6.993  0.3878 -0.3253 -2.2223
  136OSM   H15C14754   3.349   6.633   6.984 -2.4446 -3.3431 -0.9285
  136OSM    C1414755   3.670   6.539   6.926  0.4133 -0.1427 -0.1247
  136OSM   H14A14756   3.723   6.593   7.004  0.8966 -0.1886 -0.4194
  136OSM   H14B14757   3.738   6.552   6.843  1.2883  1.9419  0.8428
  136OSM   H14C14758   3.664   6.437   6.959  0.2268 -0.5958 -1.4918
  136OSM    C1314759   3.494   6.544   6.765  0.0758 -0.5880  0.9300
  136OSM   H13A14760   3.399   6.587   6.734  0.4051 -0.2203  0.4204
  136OSM   H13B14761   3.494   6.436   6.768  1.3105 -0.6294  0.1679
  136OSM   H13C14762   3.570   6.576   6.696  0.1166  0.1420  1.3079
  136OSM    C1214763   3.554   6.754   6.898 -0.1329 -0.4162 -0.2694
  136OSM   H12A14764   3.607   6.780   6.989  0.5032  3.1912 -1.5109
  136OSM   H12B14765   3.462   6.810   6.906  0.8573  1.6045 -2.1469
  136OSM    C1114766   3.627   6.833   6.781  0.3842 -0.2053  0.2070
  136OSM   H11A14767   3.614   6.943   6.796  1.7260  0.2163 -1.5036
  136OSM   H11B14768   3.568   6.809   6.690 -0.6013 -1.5186  1.1403
  136OSM      P14769   3.877   6.892   6.821  0.0026 -0.1066  0.1046
  136OSM    O1314770   3.850   6.930   6.959  0.2218 -0.2402 -0.7612
  136OSM    O1414771   4.009   6.830   6.801 -0.5245  0.2142 -0.1312
  136OSM    O1114772   3.870   7.018   6.726 -0.0603  0.8362 -0.2387
  136OSM    O1214773   3.763   6.797   6.769  0.3294 -0.2521  0.2740
  136OSM    C1S14774   3.891   6.998   6.580  0.3934  0.0538 -0.3791
  136OSM    H1S14775   3.872   6.893   6.550 -0.4681  0.8721 -3.0448
  136OSM    H1T14776   3.997   7.022   6.557  0.9248 -0.9080  0.9558
  136OSM     NF14777   3.788   7.048   6.362  0.5843  0.1237 -0.5298
  136OSM    HNF14778   3.807   7.120   6.295 -2.7440  2.3113  0.6059
  136OSM    C2S14779   3.796   7.088   6.500 -0.0065  0.0891 -0.3589
  136OSM    H2S14780   3.690   7.096   6.532 -0.4691 -1.0980 -1.5043
  136OSM    C3S14781   3.858   7.231   6.516 -0.3282 -0.3369  0.9041
  136OSM    H3S14782   3.966   7.219   6.492 -0.5591 -0.4191 -0.1766
  136OSM     O314783   3.860   7.278   6.651 -0.6224 -0.0599  0.1133
  136OSM    HO314784   3.823   7.204   6.698 -1.0446  0.4514  0.5941
  136OSM    C4S14785   3.800   7.331   6.425  0.3804  0.4691 -0.0611
  136OSM    H4S14786   3.871   7.377   6.355  2.5265  0.8239  2.2067
  136OSM    C5S14787   3.681   7.394   6.445 -0.7173  0.0641  0.4701
  136OSM    H5S14788   3.615   7.363   6.528 -1.5868  3.6491  1.2934
  136OSM    C6S14789   3.622   7.500   6.362  0.0192  0.2820  0.0090
  136OSM    H6S14790   3.629   7.601   6.407  2.8075  0.6319 -0.9763
  136OSM    H6T14791   3.515   7.472   6.366 -0.7334  2.4312 -2.2385
  136OSM    C7S14792   3.668   7.515   6.215 -0.2048  0.5127  0.5487
  136OSM    H7S14793   3.657   7.416   6.168 -1.4269  0.5022  0.8102
  136OSM    H7T14794   3.771   7.555   6.208 -0.1531  0.1793 -0.8792
  136OSM    C8S14795   3.584   7.613   6.135 -0.9897 -0.4113  0.2767
  136OSM    H8S14796   3.611   7.717   6.165  0.2587 -0.3035 -1.0715
  136OSM    H8T14797   3.474   7.605   6.143 -1.1260  1.0512  0.1757
  136OSM    C9S14798   3.617   7.587   5.993 -0.1222  0.1322  0.4755
  136OSM    H9S14799   3.545   7.507   5.966 -1.2478  1.6568 -1.3038
  136OSM    H9T14800   3.724   7.558   5.989  0.2820  1.3817  1.6022
  136OSM   C10S14801   3.610   7.715   5.911  0.4535 -0.1189  0.2441
  136OSM   H10S14802   3.667   7.797   5.959 -0.5944  0.7519  0.0159
  136OSM   H10T14803   3.510   7.760   5.926  0.2197  0.5271 -2.6385
  136OSM   C11S14804   3.641   7.697   5.765 -0.2838  0.5288  0.2713
  136OSM   H11S14805   3.595   7.601   5.733  0.4719  0.1606  0.2680
  136OSM   H11T14806   3.749   7.687   5.740 -0.5991  0.6184 -1.2751
  136OSM   C12S14807   3.576   7.806   5.681  0.0715 -0.6517  0.0893
  136OSM   H12S14808   3.593   7.907   5.725 -1.6635 -0.5005  0.4643
  136OSM   H12T14809   3.466   7.793   5.691  0.0264  0.7599  2.1898
  136OSM   C13S14810   3.631   7.797   5.538 -0.0278  0.7039 -0.8174
  136OSM   H13S14811   3.601   7.694   5.507  1.7650 -0.0863 -0.0771
  136OSM   H13T14812   3.741   7.804   5.536  0.2449 -1.3197  1.5054
  136OSM   C14S14813   3.562   7.902   5.452 -0.2317  0.2534 -0.3481
  136OSM   H14S14814   3.565   7.991   5.519 -1.9830 -0.1628  0.3523
  136OSM   H14T14815   3.454   7.879   5.439 -0.0028 -0.6583 -0.7162
  136OSM   C15S14816   3.630   7.927   5.318 -0.2931  0.0679  0.2959
  136OSM   H15S14817   3.737   7.957   5.329 -0.6914  1.5845  0.2331
  136OSM   H15T14818   3.587   8.012   5.263 -2.3152  0.7099  2.6745
  136OSM   C16S14819   3.612   7.809   5.217 -0.3838 -0.5242 -1.2703
  136OSM   H16S14820   3.504   7.795   5.198 -0.7256  1.4910 -1.0588
  136OSM   H16T14821   3.655   7.719   5.266 -2.4565 -1.0788 -0.3767
  136OSM   C17S14822   3.675   7.838   5.084  0.5075  0.2063  0.1010
  136OSM   H17S14823   3.781   7.872   5.087  0.9148 -1.0237 -0.1358
  136OSM   H17T14824   3.615   7.926   5.051  0.1678  0.3578  1.0715
  136OSM   C18S14825   3.655   7.723   4.985 -0.0889 -0.0862 -0.0085
  136OSM   H18S14826   3.548   7.690   4.985  0.3194 -1.5012  1.0490
  136OSM   H18T14827   3.722   7.639   5.014  1.5276  0.1373 -2.7924
  136OSM   H18U14828   3.684   7.755   4.883  0.3008  0.6042  0.3177
  136OSM    C1F14829   3.740   6.930   6.322  1.1544  0.1377 -0.2416
  136OSM     OF14830   3.666   6.862   6.394  0.8500 -0.5862 -0.2512
  136OSM    C2F14831   3.775   6.896   6.181  0.0042  0.0630  0.0594
  136OSM    H2F14832   3.885   6.880   6.181  0.0802  0.5504  0.4527
  136OSM    H2G14833   3.757   6.982   6.114 -0.6445  1.0166  1.3974
  136OSM    C3F14834   3.684   6.783   6.125 -0.8191  0.4737  0.0184
  136OSM    H3F14835   3.578   6.817   6.127 -1.4010 -1.2289  1.3366
  136OSM    H3G14836   3.697   6.686   6.178  2.1139 -0.7803 -2.6404
  136OSM    C4F14837   3.730   6.747   5.981  0.1139 -0.4910 -0.3682
  136OSM    H4F14838   3.685   6.648   5.957  0.8452 -0.8061 -0.4431
  136OSM    H4G14839   3.837   6.727   5.963 -0.1875 -3.3736  0.6041
  136OSM    C5F14840   3.677   6.851   5.880 -0.5687 -0.4826  0.4569
  136OSM    H5F14841   3.742   6.941   5.882  0.6210 -1.3140  2.1394
  136OSM    H5G14842   3.576   6.884   5.915 -0.0200 -0.9313  2.5907
  136OSM    C6F14843   3.677   6.806   5.736  0.0893  0.3680 -0.0307
  136OSM    H6F14844   3.614   6.716   5.716  1.5788 -0.7184 -0.0313
  136OSM    H6G14845   3.781   6.772   5.716  0.0122  1.1541 -1.9150
  136OSM    C7F14846   3.635   6.912   5.633  0.0727  0.2160 -0.4216
  136OSM    H7F14847   3.683   7.007   5.664 -0.8374  0.7953 -0.7556
  136OSM    H7G14848   3.525   6.922   5.627  0.1092 -0.0145 -2.0449
  136OSM    C8F14849   3.666   6.884   5.485 -0.1083  0.4275 -0.3746
  136OSM    H8F14850   3.633   6.785   5.448  1.5952 -0.0235 -0.7719
  136OSM    H8G14851   3.776   6.873   5.471 -0.3091  0.1943 -1.8359
  136OSM    C9F14852   3.614   6.990   5.400 -0.0660  0.2115  0.5807
  136OSM    H9F14853   3.524   7.041   5.438 -0.1625  1.2303 -0.9633
  136OSM   C10F14854   3.663   7.035   5.283  0.6137  0.7555 -0.4782
  136OSM   H10F14855   3.609   7.111   5.225  1.1241  0.2243 -1.7016
  136OSM   C11F14856   3.794   6.990   5.216  0.0709  0.5621  0.1504
  136OSM   H11F14857   3.792   6.879   5.207 -1.9388  0.5652  0.1067
  136OSM   H11G14858   3.883   7.015   5.277  0.6473 -2.3797  0.6549
  136OSM   C12F14859   3.807   7.043   5.072 -1.0776  0.3020 -0.5791
  136OSM   H12F14860   3.812   7.153   5.062  1.1185  0.5740  2.2269
  136OSM   H12G14861   3.725   6.991   5.018 -2.9008  0.2257  2.0399
  136OSM   C13F14862   3.937   6.995   5.000 -0.3060 -0.1826  0.6408
  136OSM   H13F14863   3.966   6.891   5.025  1.8211  0.1047 -0.3237
  136OSM   H13G14864   4.020   7.062   5.033 -0.2593 -1.3574  3.1004
  136OSM   C14F14865   3.918   7.003   4.850  0.2012 -0.0687  0.4952
  136OSM   H14F14866   3.824   6.949   4.828  0.5053 -1.4127  2.1889
  136OSM   H14G14867   4.002   6.950   4.800 -0.2633  1.1195 -1.6550
  136OSM   C15F14868   3.922   7.150   4.803 -0.6577  0.3392 -0.6965
  136OSM   H15F14869   3.974   7.204   4.885 -0.3525  0.8196 -1.1983
  136OSM   H15G14870   3.829   7.208   4.792 -1.0412 -0.3817 -1.3828
  136OSM   C16F14871   3.992   7.167   4.667  0.1304 -0.6222  0.1140
  136OSM   H16F14872   3.975   7.087   4.592  1.7275  1.5493 -2.8073
  136OSM   H16G14873   4.102   7.166   4.679  0.1492  0.5040  0.1725
  136OSM   C17F14874   3.947   7.297   4.593 -0.6202  0.0733 -0.0760
  136OSM   H17F14875   3.959   7.391   4.652 -0.4438 -0.5729  0.9418
  136OSM   H17G14876   3.841   7.299   4.562 -0.2697 -1.3522 -1.5217
  136OSM   C18F14877   4.021   7.299   4.457 -0.1018 -0.3138  0.3545
  136OSM   H18F14878   3.980   7.380   4.394  2.3027 -0.4224 -1.5019
  136OSM   H18G14879   4.018   7.201   4.404  0.9371  0.2378 -0.7860
  136OSM   H18H14880   4.129   7.319   4.475  0.3925 -1.1249 -1.4728
  137OSM      N14881   4.349   6.563   7.097 -0.1294  0.4380 -0.0532
  137OSM    C1514882   4.430   6.645   7.191  0.5822  0.1311  0.0449
  137OSM   H15A14883   4.482   6.580   7.261  0.1736 -0.6795 -0.3874
  137OSM   H15B14884   4.363   6.704   7.251 -0.3737 -0.5260 -0.3521
  137OSM   H15C14885   4.495   6.715   7.140  2.9035 -1.9992 -0.1552
  137OSM    C1414886   4.270   6.472   7.179  0.3431  0.2605  0.1688
  137OSM   H14A14887   4.194   6.526   7.233  0.7275  1.0178 -0.0314
  137OSM   H14B14888   4.319   6.411   7.254 -2.1905  1.3878  2.9413
  137OSM   H14C14889   4.219   6.404   7.112  0.2462  0.8590 -0.3640
  137OSM    C1314890   4.260   6.649   7.013 -0.1337 -0.2831  0.2213
  137OSM   H13A14891   4.205   6.714   7.079  1.0639  1.6871 -0.6215
  137OSM   H13B14892   4.190   6.579   6.970 -1.1129  0.0855  1.1798
  137OSM   H13C14893   4.318   6.712   6.946  0.3946 -1.0258 -0.0317
  137OSM    C1214894   4.445   6.481   7.004  0.0646 -0.3288  0.2048
  137OSM   H12A14895   4.525   6.443   7.066  1.0996 -0.4330 -1.1338
  137OSM   H12B14896   4.501   6.548   6.941 -0.9288  1.8013  1.4909
  137OSM    C1114897   4.373   6.370   6.924 -0.4218  0.9089  1.2542
  137OSM   H11A14898   4.431   6.363   6.830  0.8966 -1.2579  2.1631
  137OSM   H11B14899   4.267   6.397   6.904 -0.2647  1.3082  0.9614
  137OSM      P14900   4.517   6.169   7.038 -0.5988 -0.3823 -0.2368
  137OSM    O1314901   4.622   6.268   7.072  0.7048  0.6611  0.4267
  137OSM    O1414902   4.488   6.072   7.143  0.0803 -0.4184  0.2125
  137OSM    O1114903   4.567   6.082   6.924 -0.7887  0.0749 -0.0282
  137OSM    O1214904   4.384   6.244   6.992 -0.3578  0.4001 -0.4831
  137OSM    C1S14905   4.488   6.001   6.838  0.8751 -0.0251  0.4550
  137OSM    H1S14906   4.384   5.986   6.875 -0.1028 -2.9440 -2.8963
  137OSM    H1T14907   4.518   5.895   6.820 -1.5295 -1.1550  2.3807
  137OSM     NF14908   4.375   5.948   6.616  0.0834 -0.4097 -0.0491
  137OSM    HNF14909   4.431   5.881   6.567  0.7840 -0.5460  0.9105
  137OSM    C2S14910   4.465   6.046   6.686 -0.3479 -0.0915  0.6661
  137OSM    H2S14911   4.413   6.144   6.685 -0.1086  0.1690 -3.3002
  137OSM    C3S14912   4.605   6.072   6.620  0.7300  0.1193  0.4175
  137OSM    H3S14913   4.673   5.985   6.633  0.5887 -0.2922 -1.3929
  137OSM     O314914   4.679   6.173   6.687 -0.2402  0.3420  0.3037
  137OSM    HO314915   4.660   6.151   6.778  0.5193 -0.7051  0.2211
  137OSM    C4S14916   4.594   6.107   6.481  0.6076  0.0043  0.7552
  137OSM    H4S14917   4.535   6.195   6.451  0.2696 -0.7081 -0.8095
  137OSM    C5S14918   4.654   6.034   6.379 -0.7334 -0.2263  0.5688
  137OSM    H5S14919   4.722   5.952   6.407 -0.8129 -0.1877  0.8777
  137OSM    C6S14920   4.640   6.052   6.234  0.1526  0.3087  0.4433
  137OSM    H6S14921   4.681   5.961   6.185 -1.0489  0.5614 -1.0972
  137OSM    H6T14922   4.705   6.137   6.206  0.0963 -0.3924 -2.0305
  137OSM    C7S14923   4.490   6.079   6.189  0.2087  0.5893 -0.2357
  137OSM    H7S14924   4.449   6.173   6.232 -2.1994 -0.2440 -0.5817
  137OSM    H7T14925   4.432   5.993   6.228  1.5289 -0.1930  0.0897
  137OSM    C8S14926   4.463   6.111   6.042  0.4045 -0.1014  0.4398
  137OSM    H8S14927   4.475   6.019   5.981 -2.7701 -1.0007  0.9486
  137OSM    H8T14928   4.531   6.190   6.004  1.3178  0.2074  2.5621
  137OSM    C9S14929   4.314   6.145   6.023 -0.2135 -0.0354 -0.4453
  137OSM    H9S14930   4.309   6.255   6.039  0.9791 -0.0014 -0.1660
  137OSM    H9T14931   4.257   6.099   6.106  0.4792 -0.1317 -0.0162
  137OSM   C10S14932   4.253   6.105   5.885 -0.3716 -0.1497 -0.6545
  137OSM   H10S14933   4.148   6.142   5.880 -0.1361  0.8848  1.1379
  137OSM   H10T14934   4.265   5.995   5.876 -1.8033 -0.3005 -1.0475
  137OSM   C11S14935   4.335   6.166   5.771  0.0777 -0.6508 -0.1603
  137OSM   H11S14936   4.433   6.113   5.762  0.2315 -0.4666  0.4422
  137OSM   H11T14937   4.366   6.271   5.789  2.5567 -1.3261 -0.0891
  137OSM   C12S14938   4.263   6.160   5.631 -0.1892 -0.7789  0.2123
  137OSM   H12S14939   4.159   6.197   5.638 -0.6952 -2.0724 -0.1361
  137OSM   H12T14940   4.251   6.054   5.600 -2.4681 -0.5727  0.2538
  137OSM   C13S14941   4.328   6.254   5.519  0.3413  0.0252  0.8071
  137OSM   H13S14942   4.434   6.239   5.489  0.2010 -0.5608  0.5955
  137OSM   H13T14943   4.317   6.359   5.554 -1.8305  0.5275 -1.0706
  137OSM   C14S14944   4.259   6.243   5.381  0.1988 -0.6101  0.1138
  137OSM   H14S14945   4.149   6.245   5.398  0.2565 -0.6516  0.4920
  137OSM   H14T14946   4.284   6.145   5.337 -0.6171 -0.8613  0.1893
  137OSM   C15S14947   4.304   6.349   5.283 -0.4443 -0.4838  0.2013
  137OSM   H15S14948   4.415   6.341   5.282 -0.2825  0.8122  2.1555
  137OSM   H15T14949   4.269   6.452   5.305  1.0464  0.1732 -0.4058
  137OSM   C16S14950   4.245   6.316   5.140 -0.9328  0.4039 -0.2253
  137OSM   H16S14951   4.136   6.303   5.157 -1.0621  1.7927  0.0800
  137OSM   H16T14952   4.285   6.219   5.103  1.9768  2.2969 -2.5527
  137OSM   C17S14953   4.274   6.424   5.036 -0.2310 -0.1005  0.4913
  137OSM   H17S14954   4.377   6.465   5.038 -0.9040  1.6527  2.3475
  137OSM   H17T14955   4.207   6.505   5.071 -0.8745 -1.4937  2.6674
  137OSM   C18S14956   4.258   6.372   4.892 -0.4051 -0.8674 -0.0695
  137OSM   H18S14957   4.350   6.328   4.849 -0.3803  0.5361 -1.5456
  137OSM   H18T14958   4.225   6.452   4.822  1.8241  0.5059  0.3318
  137OSM   H18U14959   4.180   6.294   4.891 -3.1320  1.6537  0.7408
  137OSM    C1F14960   4.245   5.943   6.640 -0.3138 -0.3335  1.1658
  137OSM     OF14961   4.191   6.018   6.721 -0.6295  0.3672 -0.3497
  137OSM    C2F14962   4.159   5.838   6.563  0.3931 -0.0524 -0.1732
  137OSM    H2F14963   4.141   5.751   6.630 -1.2590 -0.3919 -1.0076
  137OSM    H2G14964   4.217   5.796   6.478  1.0462 -0.5949  0.5143
  137OSM    C3F14965   4.027   5.888   6.512  0.6548 -0.2101  0.0683
  137OSM    H3F14966   4.055   5.980   6.457  1.0785 -0.2414  0.2287
  137OSM    H3G14967   3.955   5.898   6.595  1.3198 -2.1746  0.9528
  137OSM    C4F14968   3.966   5.805   6.398 -0.0659 -0.4312  0.2405
  137OSM    H4F14969   3.866   5.843   6.370 -0.1266 -1.7228 -1.4438
  137OSM    H4G14970   3.953   5.700   6.433  2.5119 -0.3406  1.7722
  137OSM    C5F14971   4.051   5.819   6.272 -0.1654  0.1983 -0.3482
  137OSM    H5F14972   4.146   5.762   6.268  1.7917  2.9996  1.9353
  137OSM    H5G14973   4.070   5.927   6.259  2.1934 -0.0435  0.6179
  137OSM    C6F14974   3.975   5.774   6.146 -0.3810 -1.2977 -0.4370
  137OSM    H6F14975   3.878   5.827   6.149  0.2820 -0.0557  1.1696
  137OSM    H6G14976   3.973   5.665   6.167  0.4730 -1.1246  0.6609
  137OSM    C7F14977   4.055   5.800   6.016 -0.4798  0.7039 -0.6199
  137OSM    H7F14978   4.157   5.757   6.023 -1.2912 -1.0899  0.6592
  137OSM    H7G14979   4.081   5.908   6.013  2.2140  0.2596  2.1004
  137OSM    C8F14980   3.984   5.780   5.886 -0.0105  0.3505  0.2244
  137OSM    H8F14981   3.901   5.854   5.885 -0.4122  0.0985  3.7182
  137OSM    H8G14982   3.940   5.678   5.889 -0.7647  0.6428 -0.4055
  137OSM    C9F14983   4.072   5.804   5.761  0.2559  0.1619  0.4179
  137OSM    H9F14984   4.180   5.790   5.774  0.8110  2.4134 -1.2588
  137OSM   C10F14985   4.039   5.861   5.644  0.7179  0.6334  0.5610
  137OSM   H10F14986   4.119   5.869   5.569 -0.5463 -1.8268 -1.1852
  137OSM   C11F14987   3.902   5.894   5.597  0.2890 -0.3739  0.0408
  137OSM   H11F14988   3.897   5.997   5.555 -2.4415 -0.2866  0.3554
  137OSM   H11G14989   3.831   5.892   5.683  0.8338 -0.2415  0.5001
  137OSM   C12F14990   3.856   5.782   5.499 -0.2378  0.2209  0.6237
  137OSM   H12F14991   3.754   5.805   5.461  0.0460 -1.1540 -1.0995
  137OSM   H12G14992   3.848   5.681   5.543 -0.5066 -0.5570 -1.1207
  137OSM   C13F14993   3.942   5.771   5.368  0.1758 -0.3487 -0.0989
  137OSM   H13F14994   3.895   5.686   5.314  0.9810 -0.0065 -1.3898
  137OSM   H13G14995   4.047   5.745   5.391  0.0001 -0.9124  0.0657
  137OSM   C14F14996   3.925   5.900   5.288 -0.3955 -0.7957  0.4807
  137OSM   H14F14997   3.967   5.997   5.322 -3.8053  1.6682 -1.6680
  137OSM   H14G14998   3.816   5.914   5.273 -0.5428 -0.5258  1.7195
  137OSM   C15F14999   3.972   5.874   5.143 -0.3018  0.0732  0.1171
  137OSM   H15F15000   3.933   5.776   5.106 -0.2971 -0.1026  0.5625
  137OSM   H15G15001   4.083   5.881   5.137 -0.4507  2.6003 -0.5509
  137OSM   C16F15002   3.936   5.985   5.036  0.3982 -0.3884 -1.0226
  137OSM   H16F15003   3.992   5.970   4.941  1.4908 -0.9889 -0.3099
  137OSM   H16G15004   3.969   6.085   5.073 -0.0691  0.0117 -1.6688
  137OSM   C17F15005   3.786   5.998   5.001  0.0541 -0.0044  0.2391
  137OSM   H17F15006   3.778   6.083   4.930  0.1927 -1.4398 -1.5885
  137OSM   H17G15007   3.722   6.032   5.085 -0.0865 -0.2021  0.2134
  137OSM   C18F15008   3.722   5.876   4.939  0.4265 -0.1698 -0.1105
  137OSM   H18F15009   3.772   5.838   4.847 -0.9013 -2.2539 -0.0428
  137OSM   H18G15010   3.614   5.891   4.922  0.7671  2.3539 -0.4544
  137OSM   H18H15011   3.729   5.786   5.004  1.9199 -1.5774 -2.1138
  138OSM      N15012   0.121   5.659   6.912  0.7757  0.1650  0.7257
  138OSM    C1515013   0.200   5.740   7.011  0.4040  0.5904  0.5198
  138OSM   H15A15014   0.195   5.693   7.108  2.6876  0.8736  0.8334
  138OSM   H15B15015   0.175   5.845   7.017 -1.4223  0.1853  0.5072
  138OSM   H15C15016   0.305   5.723   6.992 -0.1021 -3.4728  0.5954
  138OSM    C1415017  -0.021   5.707   6.942 -0.2161 -0.1931  0.0269
  138OSM   H14A15018  -0.052   5.673   7.040 -0.5317 -0.2635 -0.0934
  138OSM   H14B15019  -0.091   5.668   6.868  0.9208 -0.7264 -0.8009
  138OSM   H14C15020  -0.011   5.814   6.935  0.4146 -0.2505  0.0646
  138OSM    C1315021   0.166   5.701   6.773 -0.3483  0.4868 -0.6014
  138OSM   H13A15022   0.109   5.650   6.696 -0.0581  0.6006 -0.8928
  138OSM   H13B15023   0.267   5.669   6.754 -0.2834  1.5699 -2.2354
  138OSM   H13C15024   0.165   5.807   6.754  0.8624  0.2441 -2.1856
  138OSM    C1215025   0.140   5.516   6.929  0.5332  0.2017 -0.3967
  138OSM   H12A15026   0.062   5.460   6.879  0.7333  0.0531 -0.5455
  138OSM   H12B15027   0.121   5.488   7.032  1.2377  0.1750 -0.2695
  138OSM    C1115028   0.283   5.460   6.914  0.4285 -0.4778  0.5587
  138OSM   H11A15029   0.356   5.511   6.980  0.4314  1.9108 -1.1518
  138OSM   H11B15030   0.328   5.482   6.814  2.4144  0.7768  1.6488
  138OSM      P15031   0.311   5.209   6.840  0.3134  0.2624 -0.1018
  138OSM    O1315032   0.458   5.216   6.819  0.9785  0.6602 -0.0003
  138OSM    O1415033   0.261   5.081   6.891  0.4515  0.3080  0.0687
  138OSM    O1115034   0.239   5.241   6.711 -0.0771  0.0834  0.0632
  138OSM    O1215035   0.276   5.324   6.940 -0.2219 -0.3174  0.2303
  138OSM    C1S15036   0.294   5.216   6.584 -0.1100  0.1575  0.2933
  138OSM    H1S15037   0.344   5.118   6.572 -1.6987 -0.7115  0.4121
  138OSM    H1T15038   0.378   5.285   6.560 -0.1297  0.0916  0.0308
  138OSM     NF15039   0.235   5.147   6.340  0.2669 -0.2188  0.3402
  138OSM    HNF15040   0.220   5.200   6.257 -0.1121 -0.9229 -0.0545
  138OSM    C2S15041   0.187   5.213   6.467 -0.0380 -0.1675  0.8432
  138OSM    H2S15042   0.115   5.138   6.504 -0.3552 -0.6192 -0.6305
  138OSM    C3S15043   0.126   5.350   6.443 -0.1225  0.3388  0.6034
  138OSM    H3S15044   0.201   5.409   6.386 -1.5606  1.5511 -0.1062
  138OSM     O315045   0.098   5.416   6.566  0.2301 -0.3502 -0.0463
  138OSM    HO315046   0.145   5.364   6.631  0.1770  0.5494  0.7413
  138OSM    C4S15047   0.002   5.335   6.356  0.0887 -0.4783  0.1616
  138OSM    H4S15048   0.023   5.317   6.250  1.8564 -3.8735  0.9737
  138OSM    C5S15049  -0.128   5.359   6.393  0.3761 -0.1015 -0.2598
  138OSM    H5S15050  -0.151   5.393   6.495 -2.8374  1.9367 -1.5172
  138OSM    C6S15051  -0.250   5.374   6.301  0.0806  0.1548 -0.5164
  138OSM    H6S15052  -0.294   5.474   6.316  0.0246  0.1336 -0.5378
  138OSM    H6T15053  -0.323   5.294   6.327  2.3016 -1.4762  1.1398
  138OSM    C7S15054  -0.217   5.381   6.149  0.8285 -0.3482 -0.9094
  138OSM    H7S15055  -0.183   5.284   6.106 -2.4092 -1.3008 -1.6193
  138OSM    H7T15056  -0.137   5.456   6.132 -1.2723  2.5339  0.7693
  138OSM    C8S15057  -0.337   5.422   6.072 -0.4122 -0.2837  0.1176
  138OSM    H8S15058  -0.371   5.526   6.089 -1.6148 -0.7579  0.7145
  138OSM    H8T15059  -0.422   5.361   6.107 -0.4329 -0.1060  0.3790
  138OSM    C9S15060  -0.314   5.426   5.918 -0.1863  1.1447 -0.2863
  138OSM    H9S15061  -0.298   5.322   5.884 -0.3614  0.8346  0.5716
  138OSM    H9T15062  -0.224   5.488   5.898  0.7850 -0.5552 -1.3956
  138OSM   C10S15063  -0.437   5.481   5.848  0.7892  0.3630 -0.5009
  138OSM   H10S15064  -0.459   5.583   5.886  0.6657 -0.2425  1.1491
  138OSM   H10T15065  -0.519   5.415   5.882  0.6985  1.1267  0.8372
  138OSM   C11S15066  -0.434   5.482   5.697 -0.5583  0.0754  0.3820
  138OSM   H11S15067  -0.418   5.377   5.664  2.8186  0.8410 -0.8782
  138OSM   H11T15068  -0.345   5.538   5.659 -0.6273 -0.3277 -0.3955
  138OSM   C12S15069  -0.557   5.542   5.630  0.3763  0.2455 -0.3695
  138OSM   H12S15070  -0.602   5.628   5.685 -0.1278 -0.4115  0.2686
  138OSM   H12T15071  -0.643   5.472   5.631  0.9282 -0.5003 -1.9507
  138OSM   C13S15072  -0.548   5.563   5.484 -0.2960 -0.1764  0.6701
  138OSM   H13S15073  -0.462   5.627   5.456  0.2996 -1.6287 -0.9779
  138OSM   H13T15074  -0.636   5.622   5.452 -0.8435 -1.0421  0.5561
  138OSM   C14S15075  -0.542   5.426   5.404  0.0554 -0.7033  0.9743
  138OSM   H14S15076  -0.639   5.371   5.402 -0.7292  0.5470  2.3606
  138OSM   H14T15077  -0.470   5.358   5.453  2.9027  0.9514 -0.6602
  138OSM   C15S15078  -0.488   5.441   5.259 -0.0866  0.0468 -0.6129
  138OSM   H15S15079  -0.478   5.343   5.206  0.3418  0.6826 -1.7621
  138OSM   H15T15080  -0.387   5.487   5.253  0.1198 -0.0991  1.2629
  138OSM   C16S15081  -0.580   5.527   5.166  0.1606  0.3879 -0.6523
  138OSM   H16S15082  -0.535   5.539   5.065 -0.3683  1.4162 -0.7755
  138OSM   H16T15083  -0.593   5.631   5.202  2.8243  0.2946  0.8171
  138OSM   C17S15084  -0.725   5.475   5.165 -0.4003 -0.5784  0.2145
  138OSM   H17S15085  -0.769   5.502   5.263 -0.9435 -0.0926 -0.1565
  138OSM   H17T15086  -0.722   5.364   5.171 -1.1903 -0.5482  1.4411
  138OSM   C18S15087  -0.817   5.522   5.051  0.3025  0.5222 -0.0061
  138OSM   H18S15088  -0.859   5.623   5.070 -0.4994 -0.0931  1.6728
  138OSM   H18T15089  -0.902   5.451   5.046  0.4931  0.2931  0.0282
  138OSM   H18U15090  -0.768   5.527   4.951 -0.7414 -0.4622 -0.5797
  138OSM    C1F15091   0.275   5.021   6.319 -0.3217  0.0588  0.1330
  138OSM     OF15092   0.291   4.941   6.412 -0.2265 -0.1929  0.0047
  138OSM    C2F15093   0.305   4.975   6.171  0.6620  0.1845  0.2879
  138OSM    H2F15094   0.376   5.054   6.139  0.1287  0.4500 -0.2662
  138OSM    H2G15095   0.211   4.990   6.113  0.7951 -0.0222  0.0213
  138OSM    C3F15096   0.385   4.840   6.172 -0.0082 -0.4739  0.6540
  138OSM    H3F15097   0.327   4.749   6.199  0.1945 -1.1746 -1.1521
  138OSM    H3G15098   0.477   4.863   6.230  2.1695 -3.2841 -1.4183
  138OSM    C4F15099   0.433   4.814   6.031  0.1893 -0.1401  0.4143
  138OSM    H4F15100   0.517   4.741   6.041  0.2681  0.1659  2.5497
  138OSM    H4G15101   0.469   4.904   5.977 -1.5865 -0.8578 -2.1079
  138OSM    C5F15102   0.324   4.747   5.948  0.1520 -0.6119  0.1579
  138OSM    H5F15103   0.248   4.827   5.937 -0.8958 -1.6804 -0.5070
  138OSM    H5G15104   0.282   4.655   5.994 -1.3835  0.3417  0.7219
  138OSM    C6F15105   0.369   4.715   5.809 -0.7395  0.6196  0.6345
  138OSM    H6F15106   0.458   4.648   5.810  0.3691  1.6402 -4.2729
  138OSM    H6G15107   0.397   4.811   5.760  0.5359  1.0236  2.0735
  138OSM    C7F15108   0.266   4.645   5.708 -0.0061  0.2805  0.0080
  138OSM    H7F15109   0.175   4.703   5.681 -0.1131  0.6103  1.0290
  138OSM    H7G15110   0.229   4.553   5.758 -1.6813  0.0539 -1.5289
  138OSM    C8F15111   0.325   4.614   5.569 -0.0917  0.0156  0.3899
  138OSM    H8F15112   0.260   4.538   5.520  1.8627 -0.4973 -1.5866
  138OSM    H8G15113   0.428   4.574   5.569  0.5435  1.5635  1.6163
  138OSM    C9F15114   0.321   4.735   5.479 -0.1816  0.7734  0.8816
  138OSM    H9F15115   0.335   4.834   5.526 -0.4902  1.7247 -0.9501
  138OSM   C10F15116   0.279   4.734   5.352 -0.4379 -0.2415  0.7701
  138OSM   H10F15117   0.278   4.833   5.304 -1.0179 -0.0133  1.2440
  138OSM   C11F15118   0.257   4.622   5.256 -0.5814 -0.0995  0.1959
  138OSM   H11F15119   0.166   4.561   5.278 -0.7257  0.0147 -0.0741
  138OSM   H11G15120   0.340   4.550   5.268 -2.0297 -1.9436 -0.3237
  138OSM   C12F15121   0.251   4.669   5.109  0.8273 -0.4908 -0.6789
  138OSM   H12F15122   0.345   4.710   5.066  0.0972  1.6159 -0.3608
  138OSM   H12G15123   0.173   4.747   5.105  0.4483 -0.8745 -0.9490
  138OSM   C13F15124   0.189   4.559   5.018  0.0245 -0.1662  0.5480
  138OSM   H13F15125   0.079   4.544   5.029 -0.0083 -1.3032 -1.0419
  138OSM   H13G15126   0.246   4.464   5.023 -1.3302 -1.1835 -1.7052
  138OSM   C14F15127   0.194   4.605   4.869  0.1196 -0.1574 -0.2066
  138OSM   H14F15128   0.212   4.517   4.804 -0.8137  0.0973 -0.8243
  138OSM   H14G15129   0.275   4.679   4.850 -0.5198  0.8994  0.9874
  138OSM   C15F15130   0.063   4.661   4.816 -0.0125  0.3238  0.1913
  138OSM   H15F15131   0.035   4.757   4.866  1.1634  1.1634 -0.6935
  138OSM   H15G15132  -0.013   4.582   4.833  1.1321 -0.5205  1.6074
  138OSM   C16F15133   0.075   4.694   4.674 -0.1637 -0.4520 -0.3908
  138OSM   H16F15134   0.127   4.608   4.628  0.9535 -0.9591  1.6940
  138OSM   H16G15135   0.134   4.787   4.658  1.0664 -0.4895  3.1729
  138OSM   C17F15136  -0.057   4.714   4.603  0.0565 -0.5103 -0.3387
  138OSM   H17F15137  -0.098   4.611   4.594  2.7987 -1.7256  0.0123
  138OSM   H17G15138  -0.023   4.750   4.504  1.7653  0.7104  0.6323
  138OSM   C18F15139  -0.160   4.811   4.664  0.5891 -0.1087  0.3188
  138OSM   H18F15140  -0.129   4.916   4.645  0.7383 -0.2836 -0.4225
  138OSM   H18G15141  -0.170   4.788   4.772  2.2480  1.4412  0.8508
  138OSM   H18H15142  -0.261   4.805   4.617  1.0712  0.8736 -0.8964
  139OSM      N15143   4.378   2.884   7.254 -0.0997 -0.2207 -0.7167
  139OSM    C1515144   4.528   2.854   7.298  0.4513 -0.2232 -0.3076
  139OSM   H15A15145   4.539   2.805   7.394  0.3587 -1.9186 -1.1267
  139OSM   H15B15146   4.581   2.948   7.300 -0.9518  0.5833  1.1558
  139OSM   H15C15147   4.559   2.787   7.219  0.0894  2.0038 -2.4580
  139OSM    C1415148   4.286   2.759   7.248 -0.1572  0.7835  0.3131
  139OSM   H14A15149   4.185   2.790   7.227 -0.5026  0.6425  1.6635
  139OSM   H14B15150   4.279   2.703   7.340  0.1018  0.5066  0.1684
  139OSM   H14C15151   4.330   2.706   7.165 -1.1615  1.5727 -0.7509
  139OSM    C1315152   4.324   2.989   7.350 -0.6605  0.4797 -0.1517
  139OSM   H13A15153   4.227   3.028   7.327 -0.7570  0.9638  1.0096
  139OSM   H13B15154   4.382   3.079   7.361  2.8469 -1.5772 -0.0847
  139OSM   H13C15155   4.327   2.955   7.453  1.9750 -0.8201 -0.5695
  139OSM    C1215156   4.391   2.944   7.113 -0.0459 -0.0047  0.2991
  139OSM   H12A15157   4.455   3.030   7.126  2.0200 -1.7282  2.5996
  139OSM   H12B15158   4.299   2.989   7.079 -0.4984 -1.4594 -0.4793
  139OSM    C1115159   4.449   2.851   7.003 -0.9301 -0.1105 -0.8533
  139OSM   H11A15160   4.539   2.805   7.049 -2.6815 -1.7593  1.1546
  139OSM   H11B15161   4.475   2.908   6.912  0.1061  0.7729 -0.0347
  139OSM      P15162   4.265   2.735   6.849  0.3729  0.4542  0.0914
  139OSM    O1315163   4.240   2.588   6.822  0.1584 -0.5318 -0.5335
  139OSM    O1415164   4.143   2.814   6.880  0.0683 -0.0533 -0.6760
  139OSM    O1115165   4.335   2.794   6.721  0.1356  0.2688 -0.1940
  139OSM    O1215166   4.364   2.745   6.972  0.3240 -0.0427  0.6102
  139OSM    C1S15167   4.431   2.711   6.652 -0.1769  0.3137 -0.4275
  139OSM    H1S15168   4.397   2.605   6.651  1.4828 -0.2420 -0.8350
  139OSM    H1T15169   4.532   2.717   6.698 -1.2869 -0.2931  2.2638
  139OSM     NF15170   4.494   2.647   6.416  0.1450 -0.5192  0.0047
  139OSM    HNF15171   4.593   2.645   6.413  0.1317 -0.6760 -0.5812
  139OSM    C2S15172   4.433   2.747   6.501 -0.0264  0.3744 -0.3039
  139OSM    H2S15173   4.325   2.746   6.474  0.3911 -1.1898 -2.1789
  139OSM    C3S15174   4.500   2.885   6.484 -0.0847  0.1852  0.0062
  139OSM    H3S15175   4.608   2.874   6.506 -0.4038  0.0504  1.6376
  139OSM     O315176   4.463   2.973   6.589  0.1625 -0.4273  0.0724
  139OSM    HO315177   4.404   2.922   6.644 -1.5742  0.0647 -1.2653
  139OSM    C4S15178   4.476   2.950   6.351  0.0269 -0.6202 -0.0907
  139OSM    H4S15179   4.523   2.893   6.270 -0.1955 -0.8614 -0.0492
  139OSM    C5S15180   4.390   3.054   6.324  0.3808  0.1152  0.3193
  139OSM    H5S15181   4.339   3.100   6.410  0.5368  0.9150 -0.0067
  139OSM    C6S15182   4.367   3.110   6.183  0.4357 -0.0597 -0.4899
  139OSM    H6S15183   4.398   3.216   6.172 -2.1832  1.3057  3.0524
  139OSM    H6T15184   4.258   3.133   6.181  0.3731 -0.3868 -0.9882
  139OSM    C7S15185   4.415   3.023   6.072  0.0308  0.8844  0.4683
  139OSM    H7S15186   4.365   2.925   6.059  2.1219 -0.2772  0.7515
  139OSM    H7T15187   4.522   2.996   6.070 -0.0754  0.4899 -0.2117
  139OSM    C8S15188   4.386   3.088   5.936  0.4286 -0.1177  0.1043
  139OSM    H8S15189   4.429   3.190   5.937  0.9764 -0.3208 -0.6993
  139OSM    H8T15190   4.276   3.091   5.923  0.5892  0.8570 -1.2751
  139OSM    C9S15191   4.463   3.034   5.811  0.3356  0.8747  0.8363
  139OSM    H9S15192   4.453   2.923   5.812 -0.5620  0.9406  2.1842
  139OSM    H9T15193   4.566   3.077   5.816 -0.0975  1.8269  2.7973
  139OSM   C10S15194   4.391   3.091   5.694  0.0166  0.6432  0.6711
  139OSM   H10S15195   4.411   3.200   5.688 -2.1723  1.0875  0.6718
  139OSM   H10T15196   4.283   3.094   5.719 -0.4178  3.8343 -1.0597
  139OSM   C11S15197   4.421   3.015   5.564 -0.2464  0.1281 -0.0128
  139OSM   H11S15198   4.372   2.916   5.576 -0.4767  0.2173 -0.2196
  139OSM   H11T15199   4.530   3.012   5.540 -0.1260  1.1989  0.3755
  139OSM   C12S15200   4.336   3.078   5.454 -0.0059 -0.2240 -0.1546
  139OSM   H12S15201   4.375   3.182   5.449  1.3204 -0.5954  1.5441
  139OSM   H12T15202   4.230   3.075   5.486  0.4338  1.2056  1.5869
  139OSM   C13S15203   4.341   3.003   5.318  0.5067 -0.1955  0.1501
  139OSM   H13S15204   4.326   2.895   5.336 -0.0877 -0.4913 -1.8992
  139OSM   H13T15205   4.438   3.015   5.266  1.8375  0.0657  2.5430
  139OSM   C14S15206   4.232   3.062   5.227  0.4198 -0.1796  0.2686
  139OSM   H14S15207   4.130   3.075   5.269 -0.8923  0.1905 -2.8183
  139OSM   H14T15208   4.217   2.995   5.140  0.6789  1.4248 -1.0646
  139OSM   C15S15209   4.288   3.192   5.158  0.8112 -0.2257 -0.3079
  139OSM   H15S15210   4.388   3.167   5.115  0.8384  0.5934 -0.7510
  139OSM   H15T15211   4.305   3.277   5.228  1.4572 -0.4739 -0.1530
  139OSM   C16S15212   4.181   3.254   5.062  0.0297 -0.2145  0.0832
  139OSM   H16S15213   4.206   3.360   5.040  0.4514  0.0948  1.9069
  139OSM   H16T15214   4.082   3.257   5.111  0.8460  2.1081  1.7419
  139OSM   C17S15215   4.170   3.171   4.937  0.7034 -0.2968 -0.4547
  139OSM   H17S15216   4.123   3.074   4.960  0.1590  0.2534  0.8183
  139OSM   H17T15217   4.270   3.151   4.893  1.1828  0.0897  0.4260
  139OSM   C18S15218   4.087   3.242   4.830  0.2999  0.4668 -0.2630
  139OSM   H18S15219   4.128   3.345   4.818 -3.1635  1.9664 -0.3885
  139OSM   H18T15220   3.983   3.268   4.857  0.6332  2.6878 -0.8410
  139OSM   H18U15221   4.090   3.181   4.737  2.7566 -0.1895  0.1845
  139OSM    C1F15222   4.443   2.528   6.396 -0.0324  0.3506  0.8440
  139OSM     OF15223   4.328   2.501   6.428 -0.6194  0.0416 -0.3722
  139OSM    C2F15224   4.530   2.429   6.322  0.3630 -0.6929 -0.5700
  139OSM    H2F15225   4.495   2.328   6.351  0.1323 -0.8805 -1.4873
  139OSM    H2G15226   4.635   2.440   6.356 -0.1166 -1.6694  1.3902
  139OSM    C3F15227   4.507   2.459   6.171 -0.6520  1.0634 -0.5031
  139OSM    H3F15228   4.532   2.566   6.152 -0.6088  0.7354 -2.5206
  139OSM    H3G15229   4.398   2.441   6.158 -0.5909  0.4630 -0.2243
  139OSM    C4F15230   4.595   2.364   6.093 -0.7775  0.3474 -0.3230
  139OSM    H4F15231   4.593   2.260   6.132 -3.8492  0.7734  0.9648
  139OSM    H4G15232   4.699   2.403   6.092 -0.7427  0.2577 -0.2171
  139OSM    C5F15233   4.564   2.340   5.945  0.2138 -0.4497 -0.2929
  139OSM    H5F15234   4.455   2.317   5.940  0.4591 -2.8605  2.5117
  139OSM    H5G15235   4.630   2.258   5.909  0.8525 -1.7413  3.3802
  139OSM    C6F15236   4.585   2.466   5.857 -0.1361  0.0355  0.6202
  139OSM    H6F15237   4.674   2.522   5.894 -2.8689  4.8269  0.8304
  139OSM    H6G15238   4.504   2.542   5.863 -0.7767 -0.4039 -1.4721
  139OSM    C7F15239   4.596   2.431   5.705  0.0565 -0.2683 -0.3318
  139OSM    H7F15240   4.497   2.413   5.659  1.3448 -1.1232 -2.9852
  139OSM    H7G15241   4.646   2.335   5.681 -0.3936 -0.1537 -1.8309
  139OSM    C8F15242   4.688   2.530   5.629 -0.0376  0.0633  0.5713
  139OSM    H8F15243   4.726   2.479   5.538  0.8333 -0.6609  1.3132
  139OSM    H8G15244   4.779   2.541   5.693  0.3413 -2.7268  0.6227
  139OSM    C9F15245   4.627   2.666   5.593 -0.2058 -0.1518 -0.0837
  139OSM    H9F15246   4.562   2.702   5.674 -0.6373 -1.4999  0.2027
  139OSM   C10F15247   4.640   2.739   5.481  0.8002  0.1300  1.0183
  139OSM   H10F15248   4.571   2.825   5.479 -0.9267 -1.1624  1.9361
  139OSM   C11F15249   4.718   2.700   5.355  0.6304 -0.0173  0.1929
  139OSM   H11F15250   4.703   2.591   5.339 -1.0967  0.2960 -0.5798
  139OSM   H11G15251   4.826   2.720   5.372  0.9319 -0.4586 -1.1315
  139OSM   C12F15252   4.666   2.774   5.234 -0.5365  0.3808  0.0105
  139OSM   H12F15253   4.698   2.880   5.243  0.3102  0.0051  1.9487
  139OSM   H12G15254   4.556   2.772   5.217 -0.2118  1.7235 -2.7063
  139OSM   C13F15255   4.736   2.717   5.104  0.1509 -0.2988 -0.9032
  139OSM   H13F15256   4.701   2.615   5.074  1.0562 -0.7031 -0.5925
  139OSM   H13G15257   4.844   2.699   5.120 -0.0537 -2.6664 -1.6321
  139OSM   C14F15258   4.714   2.800   4.977 -0.6233  0.3823 -0.2517
  139OSM   H14F15259   4.716   2.909   4.995  1.0277  0.7328 -2.2108
  139OSM   H14G15260   4.615   2.760   4.946  0.8126 -3.3585 -0.5672
  139OSM   C15F15261   4.815   2.773   4.869  0.4117  0.7327 -0.1922
  139OSM   H15F15262   4.841   2.667   4.848  2.5674  1.1792  0.0120
  139OSM   H15G15263   4.914   2.809   4.904  1.5141 -1.9228 -0.3401
  139OSM   C16F15264   4.784   2.844   4.734  0.0926 -0.0722 -0.0692
  139OSM   H16F15265   4.755   2.947   4.764 -0.5180 -0.2708  0.0344
  139OSM   H16G15266   4.690   2.799   4.696  0.3750 -0.6642 -0.0868
  139OSM   C17F15267   4.896   2.824   4.635 -0.1105 -0.0911 -0.5054
  139OSM   H17F15268   4.985   2.876   4.676  0.9462 -1.5718 -0.8217
  139OSM   H17G15269   4.870   2.872   4.538  1.2400  2.2931  0.2551
  139OSM   C18F15270   4.946   2.686   4.599  0.2051 -0.2149 -0.3517
  139OSM   H18F15271   4.962   2.625   4.690 -1.7480  1.8871  1.5055
  139OSM   H18G15272   5.039   2.696   4.537 -0.1240  0.0756 -0.8057
  139OSM   H18H15273   4.873   2.628   4.539 -0.1190 -0.6653  0.4675
  140OSM      N15274   4.123   5.417   7.086 -0.5523 -0.0948 -0.3205
  140OSM    C1515275   4.157   5.339   6.960  0.9332  0.5427 -1.1507
  140OSM   H15A15276   4.087   5.360   6.880  2.2913  1.0442 -2.2515
  140OSM   H15B15277   4.148   5.232   6.971 -0.1027  0.8022  0.9306
  140OSM   H15C15278   4.258   5.365   6.935  1.7758 -1.8152 -0.4056
  140OSM    C1415279   4.227   5.377   7.185  0.2295 -0.1373 -0.5225
  140OSM   H14A15280   4.224   5.269   7.192 -0.9408 -0.0254  1.1883
  140OSM   H14B15281   4.207   5.432   7.275  0.0425 -0.7535 -0.1832
  140OSM   H14C15282   4.324   5.396   7.141  0.3964  0.4552  0.0801
  140OSM    C1315283   4.135   5.562   7.071 -0.7987 -0.4453  0.4755
  140OSM   H13A15284   4.071   5.601   6.993  2.2221  0.1893 -1.8596
  140OSM   H13B15285   4.234   5.594   7.040  0.8472 -1.7005  3.9538
  140OSM   H13C15286   4.123   5.613   7.165  0.3586  2.0847 -0.6446
  140OSM    C1215287   3.984   5.382   7.138 -0.0583 -0.6806 -0.5086
  140OSM   H12A15288   3.958   5.447   7.220 -0.7795 -3.4301  1.5799
  140OSM   H12B15289   3.983   5.286   7.186 -0.9134 -0.6495 -0.4468
  140OSM    C1115290   3.871   5.407   7.036 -0.0121 -0.3069 -0.0455
  140OSM   H11A15291   3.776   5.394   7.092  1.5885  0.2762  3.0314
  140OSM   H11B15292   3.886   5.323   6.966  0.6747 -0.7921  0.6681
  140OSM      P15293   3.884   5.574   6.823  0.4713 -0.1294  0.6437
  140OSM    O1315294   3.746   5.592   6.770  0.4963 -0.3592  0.4271
  140OSM    O1415295   3.989   5.682   6.809  0.2395  0.0013  0.3184
  140OSM    O1115296   3.959   5.461   6.750  0.3131  0.2601 -0.3253
  140OSM    O1215297   3.873   5.532   6.973  0.1899 -0.8207 -0.1399
  140OSM    C1S15298   3.897   5.365   6.668 -1.1027 -0.1274  0.5763
  140OSM    H1S15299   3.787   5.369   6.681 -0.8348  2.3633  2.6673
  140OSM    H1T15300   3.932   5.263   6.696 -0.3041 -0.4799 -1.4576
  140OSM     NF15301   3.822   5.313   6.445  0.1537 -0.0308  0.4148
  140OSM    HNF15302   3.856   5.221   6.427  1.2768  0.0969  1.7621
  140OSM    C2S15303   3.917   5.392   6.519 -0.2345  0.2004  0.3734
  140OSM    H2S15304   3.884   5.497   6.506 -0.0744  0.0735 -1.1968
  140OSM    C3S15305   4.068   5.377   6.481  0.8808  0.2125 -0.1971
  140OSM    H3S15306   4.091   5.269   6.481  1.9027  0.3987  1.2513
  140OSM     O315307   4.148   5.449   6.576 -0.4431 -0.5206  0.7403
  140OSM    HO315308   4.089   5.472   6.649 -1.5780  0.1148 -0.3463
  140OSM    C4S15309   4.108   5.423   6.339 -0.0588 -0.0396 -1.0385
  140OSM    H4S15310   4.144   5.527   6.338  0.0572 -0.0834 -1.4594
  140OSM    C5S15311   4.112   5.351   6.226 -0.2175  0.4334 -0.2187
  140OSM    H5S15312   4.071   5.249   6.215  0.2896  0.4062 -2.3072
  140OSM    C6S15313   4.176   5.401   6.096 -0.1582 -0.2727 -0.0650
  140OSM    H6S15314   4.266   5.345   6.064  0.2946  0.8182 -0.7684
  140OSM    H6T15315   4.212   5.506   6.097 -1.2503  0.1491 -1.5069
  140OSM    C7S15316   4.064   5.378   5.989 -0.3274  0.0985  0.3757
  140OSM    H7S15317   3.986   5.456   5.992 -0.2780  0.1210  2.1526
  140OSM    H7T15318   4.022   5.275   5.995  0.1676 -0.2324 -1.1545
  140OSM    C8S15319   4.127   5.387   5.849  0.3369 -0.1097 -0.4551
  140OSM    H8S15320   4.182   5.291   5.834 -0.1719 -0.3227 -0.9946
  140OSM    H8T15321   4.201   5.469   5.838  1.1453 -0.6490  0.7720
  140OSM    C9S15322   4.020   5.392   5.740  0.6723 -0.0194  0.0450
  140OSM    H9S15323   3.968   5.490   5.744  0.9316  0.0953  0.6133
  140OSM    H9T15324   3.951   5.304   5.749  0.9151 -0.0619  1.8852
  140OSM   C10S15325   4.076   5.390   5.594 -0.3347 -0.2311  0.3379
  140OSM   H10S15326   4.140   5.299   5.598 -1.5602 -1.0899  1.2569
  140OSM   H10T15327   4.135   5.482   5.573 -0.7647  0.2626  1.2282
  140OSM   C11S15328   3.963   5.365   5.487  0.0851  0.2990 -0.7480
  140OSM   H11S15329   3.907   5.461   5.482  1.2420  1.0148 -0.0635
  140OSM   H11T15330   3.896   5.278   5.506 -0.0604  0.7870  1.1319
  140OSM   C12S15331   4.036   5.345   5.353  0.6554  0.4992 -0.2618
  140OSM   H12S15332   4.092   5.250   5.366 -0.9418 -0.4182  0.1931
  140OSM   H12T15333   4.108   5.428   5.340  2.9536 -1.7491 -3.1672
  140OSM   C13S15334   3.934   5.307   5.243  0.3738 -0.5401  0.0559
  140OSM   H13S15335   3.875   5.220   5.279  1.8763 -1.9674 -0.7994
  140OSM   H13T15336   3.991   5.274   5.154 -1.0012 -0.2762 -0.9406
  140OSM   C14S15337   3.830   5.417   5.214  0.3605  0.2102 -1.0994
  140OSM   H14S15338   3.869   5.490   5.140  1.8421 -0.5124 -1.0707
  140OSM   H14T15339   3.809   5.473   5.307 -0.1344 -1.5942 -0.0906
  140OSM   C15S15340   3.694   5.367   5.166 -0.3990 -0.4649  0.4336
  140OSM   H15S15341   3.656   5.300   5.246  0.7708  0.0101  1.3981
  140OSM   H15T15342   3.713   5.307   5.074  0.3005  0.2312  0.1063
  140OSM   C16S15343   3.588   5.477   5.143  0.2261 -0.6626  0.1727
  140OSM   H16S15344   3.592   5.565   5.210  0.5060 -0.0822 -0.5816
  140OSM   H16T15345   3.493   5.422   5.159  1.5994 -3.5630 -0.8186
  140OSM   C17S15346   3.599   5.521   4.997 -0.5801 -0.8220  0.1515
  140OSM   H17S15347   3.597   5.436   4.926  4.2222 -0.2965 -0.9657
  140OSM   H17T15348   3.705   5.553   4.987 -0.4226 -0.8023  1.6019
  140OSM   C18S15349   3.496   5.629   4.955 -0.2220  0.1674  0.4307
  140OSM   H18S15350   3.524   5.672   4.856  0.4262 -0.4882  0.3185
  140OSM   H18T15351   3.494   5.708   5.033  1.0191  0.1461  0.5032
  140OSM   H18U15352   3.392   5.590   4.956  0.0667 -0.6391  0.0670
  140OSM    C1F15353   3.701   5.361   6.419 -0.1174 -0.3565 -0.0461
  140OSM     OF15354   3.667   5.477   6.455 -0.3045 -0.2598  0.6664
  140OSM    C2F15355   3.610   5.264   6.355  0.0309  0.4216  0.1376
  140OSM    H2F15356   3.595   5.172   6.415  0.1135 -1.0032 -1.9285
  140OSM    H2G15357   3.646   5.217   6.260 -2.1618  0.3509 -0.7226
  140OSM    C3F15358   3.468   5.315   6.328 -0.2133  0.2757  0.2649
  140OSM    H3F15359   3.483   5.390   6.247 -1.6316 -1.0447 -1.2705
  140OSM    H3G15360   3.416   5.351   6.420 -1.2491  1.5159 -0.7743
  140OSM    C4F15361   3.375   5.214   6.271  0.4604 -0.2539 -0.2023
  140OSM    H4F15362   3.274   5.259   6.269  0.7861  0.4636 -0.6944
  140OSM    H4G15363   3.363   5.122   6.333 -2.8163  0.2542  0.0769
  140OSM    C5F15364   3.406   5.178   6.123  0.6550 -0.5210 -0.2901
  140OSM    H5F15365   3.514   5.151   6.120  0.8876  0.4319 -0.7677
  140OSM    H5G15366   3.374   5.254   6.049 -0.3139 -0.0625  0.5610
  140OSM    C6F15367   3.318   5.058   6.076  0.5856  0.2214  0.2871
  140OSM    H6F15368   3.218   5.100   6.097  1.0165  1.5749 -0.2855
  140OSM    H6G15369   3.333   4.967   6.138  0.1636  1.4525  2.2832
  140OSM    C7F15370   3.325   5.028   5.925  0.0848 -0.1071 -0.1382
  140OSM    H7F15371   3.431   5.047   5.897 -0.3234  1.5772 -0.6724
  140OSM    H7G15372   3.258   5.106   5.883 -0.8158  0.1496  1.6955
  140OSM    C8F15373   3.291   4.882   5.884  0.2397 -0.1292  0.7673
  140OSM    H8F15374   3.210   4.830   5.940 -0.0930 -0.6109 -0.1452
  140OSM    H8G15375   3.389   4.835   5.910  1.0079  1.6296  1.2229
  140OSM    C9F15376   3.273   4.878   5.731 -0.6172 -0.4048 -0.0699
  140OSM    H9F15377   3.250   4.973   5.680 -1.8151 -0.3850  0.4593
  140OSM   C10F15378   3.305   4.774   5.653  0.0207  0.0603 -0.0419
  140OSM   H10F15379   3.276   4.786   5.547 -1.7068  1.2129  0.5221
  140OSM   C11F15380   3.358   4.636   5.688  0.8021  0.4327  0.0470
  140OSM   H11F15381   3.282   4.555   5.675 -0.5923  1.6543  0.2916
  140OSM   H11G15382   3.384   4.636   5.796 -0.6937 -1.6647  0.4760
  140OSM   C12F15383   3.470   4.596   5.595 -0.1903 -0.5311  0.2106
  140OSM   H12F15384   3.444   4.589   5.487  0.1879  1.9735 -0.0976
  140OSM   H12G15385   3.510   4.496   5.623  0.0677 -1.1578 -2.1525
  140OSM   C13F15386   3.591   4.692   5.605 -0.0867 -0.0371  0.0066
  140OSM   H13F15387   3.598   4.752   5.699 -0.1086  0.1541 -0.1137
  140OSM   H13G15388   3.570   4.770   5.529 -1.0813 -0.7977 -0.5212
  140OSM   C14F15389   3.734   4.630   5.588 -0.5565  0.3739 -0.7370
  140OSM   H14F15390   3.805   4.715   5.586 -1.0608  0.8216 -0.0830
  140OSM   H14G15391   3.743   4.581   5.489  2.0668 -0.0354 -0.3603
  140OSM   C15F15392   3.774   4.536   5.712 -0.4212  0.2318 -0.3653
  140OSM   H15F15393   3.685   4.485   5.754 -0.9192 -1.1741 -2.9007
  140OSM   H15G15394   3.811   4.610   5.786 -1.0195  1.0097 -0.8427
  140OSM   C16F15395   3.879   4.426   5.683  0.4220 -0.1118 -0.0070
  140OSM   H16F15396   3.817   4.348   5.634  0.0759  0.2920 -0.2091
  140OSM   H16G15397   3.924   4.398   5.781  0.5522  2.7806  0.8375
  140OSM   C17F15398   3.999   4.468   5.593 -0.2029 -0.3607  0.0939
  140OSM   H17F15399   4.044   4.558   5.639 -1.2039  1.4703 -2.3181
  140OSM   H17G15400   3.960   4.495   5.492 -4.6609 -0.1459  1.6332
  140OSM   C18F15401   4.111   4.362   5.596 -0.4353 -0.6372 -0.1944
  140OSM   H18F15402   4.088   4.272   5.535 -1.2736  0.7366 -1.9928
  140OSM   H18G15403   4.140   4.333   5.699  1.3001  1.7567  0.0662
  140OSM   H18H15404   4.206   4.402   5.555 -0.3241 -1.8546 -1.1840
  141OSM      N15405   3.444   4.585   7.258 -0.2040 -0.7010 -0.2080
  141OSM    C1515406   3.434   4.445   7.305 -0.3860 -0.2937 -0.6388
  141OSM   H15A15407   3.536   4.409   7.311 -0.1297  0.5217  0.2562
  141OSM   H15B15408   3.360   4.397   7.244 -0.3190 -0.2392 -0.7630
  141OSM   H15C15409   3.403   4.445   7.408 -0.2410  0.0551 -0.5899
  141OSM    C1415410   3.302   4.636   7.240 -0.1748  0.0584 -0.1431
  141OSM   H14A15411   3.319   4.741   7.221  0.4494  0.1761  1.0129
  141OSM   H14B15412   3.240   4.628   7.328 -1.9763  0.1822 -1.3574
  141OSM   H14C15413   3.256   4.591   7.153  0.4999  1.2807 -1.1796
  141OSM    C1315414   3.519   4.660   7.362 -0.0309  0.7412  0.0430
  141OSM   H13A15415   3.476   4.635   7.457 -0.7091 -0.0909 -0.4647
  141OSM   H13B15416   3.518   4.767   7.346 -1.5536  0.9180  1.1845
  141OSM   H13C15417   3.620   4.621   7.350 -0.2366  0.4855 -0.9290
  141OSM    C1215418   3.521   4.601   7.128 -0.0964 -0.0558 -0.3902
  141OSM   H12A15419   3.473   4.547   7.047  1.9364  0.2328 -1.8674
  141OSM   H12B15420   3.613   4.547   7.141  0.2988  0.7992  0.4497
  141OSM    C1115421   3.556   4.739   7.064 -0.3236  0.5731  0.0437
  141OSM   H11A15422   3.638   4.728   6.990  0.3443 -1.4815  1.0291
  141OSM   H11B15423   3.592   4.804   7.146  0.0871 -0.5035  0.7317
  141OSM      P15424   3.461   4.951   6.941 -0.0267 -0.0590  0.2658
  141OSM    O1315425   3.341   5.031   6.947  0.0519 -0.1084 -0.0023
  141OSM    O1415426   3.584   5.022   6.994  0.0377 -0.6505 -0.7722
  141OSM    O1115427   3.501   4.919   6.790  0.1664  0.1362  0.0340
  141OSM    O1215428   3.436   4.803   7.006 -0.5487 -0.6673  0.5132
  141OSM    C1S15429   3.398   4.852   6.706 -0.2522 -0.0555 -0.9851
  141OSM    H1S15430   3.297   4.891   6.731  0.8803  2.0188  0.6781
  141OSM    H1T15431   3.400   4.742   6.718 -2.5996  0.0735  1.5227
  141OSM     NF15432   3.309   4.868   6.468  0.5161  0.4338 -0.0937
  141OSM    HNF15433   3.302   4.786   6.412 -0.5805  0.6983 -0.3624
  141OSM    C2S15434   3.424   4.883   6.557 -0.3296 -0.2824  0.7059
  141OSM    H2S15435   3.451   4.990   6.543 -0.1922 -0.4411 -0.3402
  141OSM    C3S15436   3.554   4.798   6.518 -0.7995 -0.1027  0.4072
  141OSM    H3S15437   3.525   4.691   6.525  1.6883 -0.7974  1.0715
  141OSM     O315438   3.657   4.833   6.606  0.0917  0.3342 -0.1243
  141OSM    HO315439   3.617   4.889   6.673 -0.1793 -1.4265  1.2666
  141OSM    C4S15440   3.589   4.830   6.374 -0.4955 -0.3675 -0.0364
  141OSM    H4S15441   3.668   4.906   6.364  0.9144 -1.6267  1.0809
  141OSM    C5S15442   3.558   4.755   6.268 -0.0847  0.1390 -0.0298
  141OSM    H5S15443   3.520   4.652   6.277  1.6173 -0.5845 -0.6280
  141OSM    C6S15444   3.631   4.784   6.133 -0.6801 -0.0052  0.2156
  141OSM    H6S15445   3.547   4.790   6.061 -0.7630  0.6274  0.3625
  141OSM    H6T15446   3.696   4.701   6.096 -0.9307  0.2451 -0.8078
  141OSM    C7S15447   3.718   4.906   6.105 -0.7875 -0.0512  0.4982
  141OSM    H7S15448   3.783   4.920   6.194 -1.7711 -0.1652  1.2596
  141OSM    H7T15449   3.648   4.992   6.097  0.8514  1.1885 -1.5261
  141OSM    C8S15450   3.804   4.876   5.982  0.3951 -0.4634 -1.0028
  141OSM    H8S15451   3.737   4.831   5.906 -1.4192  0.4182 -0.0031
  141OSM    H8T15452   3.869   4.787   5.991 -1.7622 -2.0348 -0.0288
  141OSM    C9S15453   3.873   4.997   5.917 -0.7221  0.0172  0.0136
  141OSM    H9S15454   3.915   5.053   6.004 -0.7218 -0.1429  0.1160
  141OSM    H9T15455   3.792   5.053   5.864  0.4028  0.1258 -1.6723
  141OSM   C10S15456   3.993   4.971   5.823  0.0928 -0.1247  0.4235
  141OSM   H10S15457   4.037   4.875   5.859  0.1773 -0.9486 -1.7411
  141OSM   H10T15458   4.071   5.050   5.824  0.4131 -0.3995 -1.0002
  141OSM   C11S15459   3.955   4.972   5.676 -0.2605  0.3907 -0.1522
  141OSM   H11S15460   3.941   5.075   5.636  0.7696  0.2884 -0.7971
  141OSM   H11T15461   3.855   4.928   5.656 -1.2056  2.0215  0.7344
  141OSM   C12S15462   4.058   4.890   5.590  0.1676  0.1621  0.4167
  141OSM   H12S15463   4.056   4.786   5.627  0.2762  0.0695  0.1612
  141OSM   H12T15464   4.159   4.931   5.612  0.5758 -0.0361 -0.9513
  141OSM   C13S15465   4.025   4.907   5.442 -0.2448 -0.3539  0.6851
  141OSM   H13S15466   4.071   5.006   5.421 -2.1695  0.5881  0.7009
  141OSM   H13T15467   3.915   4.917   5.426  0.0646  3.1797  0.0923
  141OSM   C14S15468   4.096   4.804   5.354  0.1660  0.6541 -0.1666
  141OSM   H14S15469   4.096   4.843   5.250 -0.0565 -2.0512 -1.2732
  141OSM   H14T15470   4.045   4.705   5.359  0.9503  0.1044 -2.0175
  141OSM   C15S15471   4.244   4.790   5.382  0.2713 -0.1371 -0.2597
  141OSM   H15S15472   4.287   4.882   5.427  1.4307 -0.1460 -1.2824
  141OSM   H15T15473   4.291   4.783   5.281  3.1862  2.0516  0.8030
  141OSM   C16S15474   4.311   4.682   5.474  0.5348  0.2416  0.9695
  141OSM   H16S15475   4.274   4.587   5.431  0.0496  1.7641 -2.3164
  141OSM   H16T15476   4.268   4.705   5.573 -2.1414  0.7447 -0.2157
  141OSM   C17S15477   4.455   4.713   5.485 -0.8854 -0.5550  0.2344
  141OSM   H17S15478   4.494   4.649   5.568  0.1066 -1.2026 -0.7036
  141OSM   H17T15479   4.459   4.815   5.529 -1.7500  0.5216 -2.0623
  141OSM   C18S15480   4.552   4.694   5.374 -0.2025  0.1994 -0.0885
  141OSM   H18S15481   4.653   4.712   5.415 -0.0529  1.2672 -0.9036
  141OSM   H18T15482   4.527   4.754   5.284 -1.0587 -1.3974 -0.9606
  141OSM   H18U15483   4.550   4.589   5.337  3.4199 -0.0308  0.0241
  141OSM    C1F15484   3.204   4.941   6.483  0.8928 -0.0677 -0.3896
  141OSM     OF15485   3.197   5.030   6.572 -0.5300  0.2260  0.6017
  141OSM    C2F15486   3.086   4.895   6.404 -0.0139 -0.4316  0.5017
  141OSM    H2F15487   3.012   4.838   6.465  0.4580  0.5203  2.0421
  141OSM    H2G15488   3.125   4.821   6.332  0.6133 -0.7759  1.1793
  141OSM    C3F15489   3.007   5.021   6.350  1.1504  0.3703 -1.0050
  141OSM    H3F15490   3.075   5.093   6.301  0.9059  2.3949  1.4190
  141OSM    H3G15491   2.960   5.074   6.436 -0.5031 -1.3866 -0.7440
  141OSM    C4F15492   2.898   4.964   6.257  0.2747  0.6522  0.2321
  141OSM    H4F15493   2.817   5.039   6.272  0.1811  0.3323  1.4795
  141OSM    H4G15494   2.875   4.861   6.292  0.2753  0.5903  0.0487
  141OSM    C5F15495   2.948   4.943   6.113  0.1875 -0.9588 -0.0937
  141OSM    H5F15496   2.947   4.834   6.094  0.8147 -0.6804 -1.9217
  141OSM    H5G15497   3.054   4.978   6.111  0.5549 -2.0612 -0.7200
  141OSM    C6F15498   2.861   5.023   6.012  0.5521 -0.2766 -0.8815
  141OSM    H6F15499   2.834   5.120   6.060 -0.5138 -0.2015 -1.6128
  141OSM    H6G15500   2.762   4.976   5.998 -0.5989  1.2429  1.4032
  141OSM    C7F15501   2.930   5.031   5.879 -0.2343 -0.0085  0.2818
  141OSM    H7F15502   2.967   4.932   5.846  2.0045  0.2003  1.9739
  141OSM    H7G15503   3.010   5.105   5.898 -2.6540  2.3416  2.1965
  141OSM    C8F15504   2.841   5.089   5.771  0.6654 -0.6633 -0.3367
  141OSM    H8F15505   2.912   5.130   5.696  0.7945  1.7458  1.0042
  141OSM    H8G15506   2.797   5.181   5.816  1.2320 -0.3359 -0.4422
  141OSM    C9F15507   2.735   5.002   5.702 -0.4246  0.1696 -0.1648
  141OSM    H9F15508   2.665   4.956   5.774  1.0014 -1.6371  0.1237
  141OSM   C10F15509   2.699   4.993   5.571  0.0422 -0.6396 -0.2124
  141OSM   H10F15510   2.630   4.912   5.544 -0.8293  0.1086 -0.2553
  141OSM   C11F15511   2.758   5.075   5.463 -0.4674 -0.5037  0.0495
  141OSM   H11F15512   2.834   5.143   5.507  0.2554 -1.1788 -0.1236
  141OSM   H11G15513   2.678   5.137   5.418  0.7949  0.3847 -1.0323
  141OSM   C12F15514   2.813   5.014   5.329 -0.0285 -0.2571  0.1176
  141OSM   H12F15515   2.736   4.948   5.284 -1.1532  0.2891  1.1848
  141OSM   H12G15516   2.903   4.950   5.344 -0.0588 -1.0687 -2.7256
  141OSM   C13F15517   2.840   5.121   5.218 -0.7931  0.4342 -0.1575
  141OSM   H13F15518   2.894   5.205   5.267  0.1283 -0.0520 -0.3131
  141OSM   H13G15519   2.739   5.154   5.186 -0.7638 -0.5072 -1.2845
  141OSM   C14F15520   2.901   5.072   5.087 -0.6320  0.0870  0.3238
  141OSM   H14F15521   3.006   5.039   5.100 -0.0286  0.9602 -1.8798
  141OSM   H14G15522   2.910   5.152   5.011  1.4291 -1.4767 -1.2077
  141OSM   C15F15523   2.830   4.955   5.022 -0.3511  0.2365  0.2507
  141OSM   H15F15524   2.725   4.984   5.043 -0.8993 -0.5540 -1.2663
  141OSM   H15G15525   2.856   4.864   5.080  2.1261  1.0034  0.4453
  141OSM   C16F15526   2.862   4.942   4.873 -0.2020  0.4077  0.6544
  141OSM   H16F15527   2.865   5.044   4.828  0.6285  0.1050  0.0004
  141OSM   H16G15528   2.784   4.880   4.824  0.8000 -0.3081 -0.0697
  141OSM   C17F15529   3.005   4.888   4.849 -0.8459  0.7699 -0.0222
  141OSM   H17F15530   3.013   4.788   4.896  0.1170  0.2825 -1.1763
  141OSM   H17G15531   3.073   4.956   4.903  0.5007  0.1849 -0.9317
  141OSM   C18F15532   3.033   4.886   4.696 -0.5471 -0.2035  0.1607
  141OSM   H18F15533   3.067   4.982   4.653 -0.9105 -0.0878  0.1359
  141OSM   H18G15534   2.951   4.831   4.645 -2.1695  3.3054 -1.3103
  141OSM   H18H15535   3.129   4.830   4.701 -0.6886 -0.3254  2.3024
  142OSM      N15536   2.067   3.389   6.825 -0.4709 -0.4610 -0.4296
  142OSM    C1515537   2.102   3.405   6.969 -0.0862 -0.1947 -0.7010
  142OSM   H15A15538   2.120   3.312   7.021 -3.6797 -1.5913 -1.6644
  142OSM   H15B15539   2.030   3.460   7.029  0.0965  0.6720 -1.2509
  142OSM   H15C15540   2.199   3.451   6.980  0.1053 -0.9722  1.3036
  142OSM    C1415541   2.183   3.309   6.773 -0.4635 -0.8818  0.3052
  142OSM   H14A15542   2.176   3.300   6.666  3.3005  0.7167 -0.2172
  142OSM   H14B15543   2.177   3.217   6.829 -2.4466 -0.8539  0.2296
  142OSM   H14C15544   2.276   3.362   6.786 -0.6804 -0.6058  0.7436
  142OSM    C1315545   1.940   3.307   6.818 -0.3256  0.5257 -0.4655
  142OSM   H13A15546   1.853   3.362   6.851  0.0281  0.6725  0.2348
  142OSM   H13B15547   1.957   3.221   6.881  2.2870  1.9140  0.9001
  142OSM   H13C15548   1.925   3.268   6.718 -0.2526  0.2839 -0.3815
  142OSM    C1215549   2.054   3.526   6.748  0.0603  0.1343 -0.2065
  142OSM   H12A15550   1.964   3.573   6.785  0.0753 -0.6764  0.9074
  142OSM   H12B15551   2.025   3.516   6.644  0.9340  1.9285 -0.6762
  142OSM    C1115552   2.172   3.623   6.756  0.3515 -0.0094 -0.0587
  142OSM   H11A15553   2.201   3.630   6.863 -2.6063 -1.8309  0.9839
  142OSM   H11B15554   2.134   3.721   6.720 -0.8117 -1.1688 -2.1648
  142OSM      P15555   2.420   3.630   6.708 -0.1912  0.2545 -0.0449
  142OSM    O1315556   2.407   3.748   6.799  0.0171 -0.2986  0.3851
  142OSM    O1415557   2.516   3.527   6.749 -0.2423  0.2206 -0.1609
  142OSM    O1115558   2.473   3.689   6.573  0.0126  0.1495  0.4670
  142OSM    O1215559   2.276   3.579   6.667 -0.4415  0.2404  0.0276
  142OSM    C1S15560   2.546   3.595   6.486  0.3143 -0.0892 -0.3599
  142OSM    H1S15561   2.514   3.491   6.507 -1.0203  0.2224 -0.7373
  142OSM    H1T15562   2.656   3.601   6.504  0.4419 -1.7117 -0.5044
  142OSM     NF15563   2.590   3.533   6.239  1.2600 -0.5332  0.3508
  142OSM    HNF15564   2.667   3.540   6.177  0.1533 -2.1437 -1.3122
  142OSM    C2S15565   2.538   3.639   6.335 -0.1343  0.4477  0.0929
  142OSM    H2S15566   2.428   3.655   6.327 -0.2278 -0.6284 -1.1310
  142OSM    C3S15567   2.610   3.770   6.324 -0.5383  0.1081 -0.3369
  142OSM    H3S15568   2.709   3.760   6.373 -0.8485 -2.1638 -0.0516
  142OSM     O315569   2.539   3.875   6.384 -0.1279 -0.2729  0.6525
  142OSM    HO315570   2.464   3.843   6.435 -0.5468  2.3878  1.8469
  142OSM    C4S15571   2.626   3.816   6.187 -0.5561  0.6679  0.5460
  142OSM    H4S15572   2.537   3.817   6.123 -0.4839  2.4611  0.4230
  142OSM    C5S15573   2.741   3.863   6.133 -0.6088 -0.5134 -0.3144
  142OSM    H5S15574   2.832   3.849   6.193 -1.2602  0.6484  1.0081
  142OSM    C6S15575   2.746   3.917   5.995  0.2126 -0.4729 -0.1804
  142OSM    H6S15576   2.840   3.968   5.968  1.0789 -2.6520 -1.5748
  142OSM    H6T15577   2.665   3.991   5.979  0.1977 -0.6643 -1.0252
  142OSM    C7S15578   2.738   3.812   5.888 -0.0380 -0.2385  0.5641
  142OSM    H7S15579   2.649   3.752   5.915 -1.9970  2.8393  1.4316
  142OSM    H7T15580   2.824   3.741   5.881 -0.9774 -1.2438 -2.4998
  142OSM    C8S15581   2.713   3.873   5.754 -0.3753  1.0167 -0.4246
  142OSM    H8S15582   2.794   3.945   5.727  0.7476  0.2574  0.8246
  142OSM    H8T15583   2.617   3.929   5.761 -0.0188  1.8089 -1.5202
  142OSM    C9S15584   2.697   3.770   5.644 -0.1012  0.1210  0.2849
  142OSM    H9S15585   2.618   3.693   5.660  0.4981 -0.8929 -1.3900
  142OSM    H9T15586   2.786   3.704   5.639  0.4430  0.9071 -0.4177
  142OSM   C10S15587   2.673   3.839   5.510  1.0649  0.6123  0.4569
  142OSM   H10S15588   2.698   3.780   5.419  0.0449  1.5510 -0.4659
  142OSM   H10T15589   2.746   3.922   5.499  1.4928  0.0496 -1.2708
  142OSM   C11S15590   2.536   3.903   5.498 -0.1112 -0.8966 -0.0135
  142OSM   H11S15591   2.506   3.983   5.569 -1.2162 -0.2585 -1.1354
  142OSM   H11T15592   2.451   3.831   5.502  0.4099 -1.4691  1.3356
  142OSM   C12S15593   2.535   3.985   5.369 -0.6498  0.0115  1.0146
  142OSM   H12S15594   2.526   3.906   5.291 -0.0297  2.1854 -1.4041
  142OSM   H12T15595   2.627   4.045   5.355 -0.0969 -0.4261  2.5590
  142OSM   C13S15596   2.408   4.072   5.356  0.3073  0.1560 -0.2560
  142OSM   H13S15597   2.414   4.147   5.438  0.3105 -2.2473  2.0973
  142OSM   H13T15598   2.328   4.006   5.396  1.9946 -1.3234  0.8405
  142OSM   C14S15599   2.380   4.133   5.224  0.2883  0.2005 -0.3903
  142OSM   H14S15600   2.415   4.067   5.141  1.4812  0.9345 -0.4928
  142OSM   H14T15601   2.445   4.223   5.217  1.2751 -0.5988 -2.5582
  142OSM   C15S15602   2.239   4.187   5.212  0.6016 -0.9597 -0.4816
  142OSM   H15S15603   2.224   4.265   5.290 -0.8394  2.4918 -3.8599
  142OSM   H15T15604   2.172   4.102   5.238 -1.7555  1.0337  0.3857
  142OSM   C16S15605   2.215   4.248   5.072 -0.4351 -0.6209 -0.6007
  142OSM   H16S15606   2.106   4.273   5.075 -0.5904 -1.3552  0.7288
  142OSM   H16T15607   2.236   4.170   4.996 -2.9538  1.3217 -3.5019
  142OSM   C17S15608   2.291   4.385   5.036 -0.4332  0.4199 -0.2009
  142OSM   H17S15609   2.397   4.352   5.027 -1.1765 -2.0991 -0.4230
  142OSM   H17T15610   2.291   4.448   5.128  0.0168  1.0938 -0.6422
  142OSM   C18S15611   2.232   4.458   4.914  0.1509  0.5688 -0.1648
  142OSM   H18S15612   2.219   4.390   4.827  1.2612  3.0967 -2.4783
  142OSM   H18T15613   2.303   4.537   4.881  0.6556 -0.1393 -0.8007
  142OSM   H18U15614   2.143   4.514   4.951  1.2264  1.7276  0.7472
  142OSM    C1F15615   2.517   3.421   6.221 -0.3282  0.0375 -0.7900
  142OSM     OF15616   2.421   3.394   6.295 -0.3722  0.1046 -0.1982
  142OSM    C2F15617   2.553   3.336   6.101 -0.1763 -0.6080 -0.0363
  142OSM    H2F15618   2.638   3.274   6.135  0.9199  0.7831 -0.1184
  142OSM    H2G15619   2.593   3.400   6.019 -1.0072 -1.5942 -1.2447
  142OSM    C3F15620   2.453   3.233   6.052  0.6492  0.0579 -0.1750
  142OSM    H3F15621   2.350   3.267   6.028 -0.1648 -3.5014 -2.3529
  142OSM    H3G15622   2.439   3.158   6.132  0.5600  0.3414  0.0776
  142OSM    C4F15623   2.487   3.169   5.916 -0.2685 -0.0240 -0.5210
  142OSM    H4F15624   2.419   3.081   5.915 -0.7234  0.3197 -1.1955
  142OSM    H4G15625   2.595   3.144   5.905 -0.1254  0.9936 -1.5848
  142OSM    C5F15626   2.453   3.245   5.784 -0.5565  0.4554 -0.8388
  142OSM    H5F15627   2.507   3.342   5.783  0.4146  0.0046  1.4190
  142OSM    H5G15628   2.345   3.271   5.787 -0.6182  0.3617 -2.0140
  142OSM    C6F15629   2.471   3.153   5.657  0.4698 -0.3385 -0.3275
  142OSM    H6F15630   2.409   3.063   5.676  0.0141 -0.8016 -3.3704
  142OSM    H6G15631   2.577   3.121   5.654  0.4560 -0.3223 -1.6966
  142OSM    C7F15632   2.439   3.227   5.529  0.1269  0.4324  0.6456
  142OSM    H7F15633   2.503   3.317   5.535  1.3965 -0.3852 -0.1965
  142OSM    H7G15634   2.335   3.265   5.527  1.2871  3.8527 -0.0869
  142OSM    C8F15635   2.473   3.155   5.396 -0.1239 -0.7055  0.1105
  142OSM    H8F15636   2.583   3.155   5.388 -0.1306  0.6922 -0.1767
  142OSM    H8G15637   2.441   3.227   5.317  0.0523  0.0534  0.7209
  142OSM    C9F15638   2.416   3.010   5.372  0.5890 -0.5679 -0.3687
  142OSM    H9F15639   2.479   2.938   5.427 -0.3131 -0.1155  1.3535
  142OSM   C10F15640   2.310   2.971   5.303 -0.1344 -0.0492 -0.2701
  142OSM   H10F15641   2.283   2.864   5.304  2.5312 -0.7756  0.8443
  142OSM   C11F15642   2.203   3.054   5.231  0.5337  0.3004 -0.3328
  142OSM   H11F15643   2.194   3.161   5.260 -3.5004  1.0029 -3.2925
  142OSM   H11G15644   2.105   3.010   5.259  1.8482 -2.8849 -0.3481
  142OSM   C12F15645   2.213   3.043   5.075 -0.0835 -0.1673 -0.5483
  142OSM   H12F15646   2.206   2.934   5.056 -1.6778 -0.3168  0.6954
  142OSM   H12G15647   2.315   3.071   5.041  0.7812 -0.6599  1.4802
  142OSM   C13F15648   2.090   3.097   5.012  0.3885  0.1089  0.9561
  142OSM   H13F15649   2.095   3.208   5.007 -0.0422  0.1058  0.2816
  142OSM   H13G15650   1.998   3.070   5.067 -0.2818 -0.8106 -0.5513
  142OSM   C14F15651   2.072   3.047   4.863  0.2658 -0.0174 -0.3094
  142OSM   H14F15652   2.089   2.938   4.854 -0.6977 -0.0241 -2.7863
  142OSM   H14G15653   2.149   3.093   4.798 -0.4518  0.3795 -0.9044
  142OSM   C15F15654   1.937   3.107   4.805 -0.8988 -0.5871  0.0585
  142OSM   H15F15655   1.936   3.214   4.833  0.1005 -0.4275 -0.4786
  142OSM   H15G15656   1.852   3.059   4.859 -0.2375 -1.2380  0.5495
  142OSM   C16F15657   1.918   3.097   4.655  0.1434 -0.4369  0.0539
  142OSM   H16F15658   1.905   2.994   4.617 -0.7629 -0.0300 -0.7752
  142OSM   H16G15659   2.011   3.129   4.604  0.9608 -0.1614  1.6454
  142OSM   C17F15660   1.793   3.165   4.605 -0.1519 -0.1473  0.5051
  142OSM   H17F15661   1.807   3.275   4.609  0.3775 -0.0192 -2.4244
  142OSM   H17G15662   1.717   3.145   4.683  0.2929  0.9784  1.2449
  142OSM   C18F15663   1.738   3.123   4.464 -0.2063 -0.4735 -0.1278
  142OSM   H18F15664   1.690   3.023   4.462 -0.7774 -0.4659  4.2618
  142OSM   H18G15665   1.816   3.139   4.386 -1.4161 -0.2734 -1.3323
  142OSM   H18H15666   1.657   3.196   4.442  1.9984  1.8581 -1.0535
  143OSM      N15667   5.729   2.507   7.033 -0.1874 -0.4604 -0.3007
  143OSM    C1515668   5.791   2.411   7.132  0.0170 -0.0603 -0.0041
  143OSM   H15A15669   5.721   2.342   7.176  0.7872 -0.2368  0.9816
  143OSM   H15B15670   5.839   2.463   7.214 -1.2172  0.1631  0.5884
  143OSM   H15C15671   5.875   2.361   7.084 -0.5908 -0.8015 -0.3212
  143OSM    C1415672   5.689   2.426   6.913  0.8534  0.1195 -0.6233
  143OSM   H14A15673   5.765   2.369   6.861 -0.7117 -3.6258  0.8102
  143OSM   H14B15674   5.629   2.481   6.842 -0.5880  0.5770  0.8904
  143OSM   H14C15675   5.631   2.343   6.951  1.8317 -0.4924 -0.4507
  143OSM    C1315676   5.619   2.577   7.100  0.2130 -0.0464 -0.2458
  143OSM   H13A15677   5.665   2.640   7.175  2.2860 -2.6331  0.8156
  143OSM   H13B15678   5.547   2.513   7.149  0.7549 -0.4245  0.0652
  143OSM   H13C15679   5.570   2.651   7.039 -2.5693  1.5811  3.5277
  143OSM    C1215680   5.829   2.611   6.984 -0.7626 -0.3572 -0.5262
  143OSM   H12A15681   5.789   2.656   6.894  0.1735  1.1251 -0.2306
  143OSM   H12B15682   5.918   2.565   6.945  0.2414  1.1879 -0.1170
  143OSM    C1115683   5.865   2.729   7.082  0.0667  0.1034  0.1307
  143OSM   H11A15684   5.957   2.784   7.054 -0.4559  0.9997  0.1285
  143OSM   H11B15685   5.891   2.694   7.185  1.0653 -0.2952 -0.2469
  143OSM      P15686   5.722   2.930   6.987  0.0488  0.2109 -0.3683
  143OSM    O1315687   5.587   2.982   7.011  0.0184 -0.2603  0.4250
  143OSM    O1415688   5.836   3.030   6.974 -0.7504  0.0570  0.6068
  143OSM    O1115689   5.718   2.838   6.855 -0.5034 -0.5991  0.1172
  143OSM    O1215690   5.763   2.822   7.099  0.3585 -0.3664  0.7305
  143OSM    C1S15691   5.717   2.901   6.727  0.1736  0.5586  0.3722
  143OSM    H1S15692   5.811   2.960   6.719  0.0529  0.6312 -0.6134
  143OSM    H1T15693   5.627   2.966   6.723  0.8313  1.7571  2.7445
  143OSM     NF15694   5.712   2.861   6.487 -0.2861  0.0608  0.1153
  143OSM    HNF15695   5.626   2.895   6.450  0.5513 -0.7467 -2.9246
  143OSM    C2S15696   5.703   2.796   6.612 -0.3203  0.3018 -0.1953
  143OSM    H2S15697   5.788   2.726   6.624 -0.3934  0.2959  0.3093
  143OSM    C3S15698   5.564   2.723   6.619 -0.1466 -0.2917  0.3819
  143OSM    H3S15699   5.481   2.796   6.625  0.2578  0.0775  1.9400
  143OSM     O315700   5.552   2.651   6.741 -0.0789 -0.0036 -0.1513
  143OSM    HO315701   5.596   2.712   6.801 -1.1528  3.1061 -2.2428
  143OSM    C4S15702   5.557   2.623   6.504  0.1321  0.8814 -0.2979
  143OSM    H4S15703   5.614   2.530   6.522  1.6189  2.1658  2.2137
  143OSM    C5S15704   5.476   2.629   6.401  0.0376 -0.1255  0.2841
  143OSM    H5S15705   5.429   2.726   6.379 -0.1471 -0.1896  0.3967
  143OSM    C6S15706   5.454   2.527   6.301 -0.2879 -0.7748 -0.2436
  143OSM    H6S15707   5.345   2.505   6.306 -0.8643  1.2197 -2.1411
  143OSM    H6T15708   5.509   2.432   6.320 -0.0658 -0.8942 -1.3894
  143OSM    C7S15709   5.497   2.579   6.162  0.1413 -0.0115  0.4610
  143OSM    H7S15710   5.596   2.627   6.172  0.5526 -1.0964  1.9811
  143OSM    H7T15711   5.424   2.651   6.121 -1.0140 -2.2815 -1.7716
  143OSM    C8S15712   5.509   2.464   6.058 -0.0399  0.1829  0.2516
  143OSM    H8S15713   5.432   2.384   6.065  0.7839 -0.6466  0.0885
  143OSM    H8T15714   5.604   2.412   6.085 -1.4716 -0.9960  3.4450
  143OSM    C9S15715   5.497   2.517   5.910 -0.6494  0.2667 -0.0470
  143OSM    H9S15716   5.579   2.587   5.885  0.6547 -2.0983 -3.1555
  143OSM    H9T15717   5.395   2.559   5.899 -0.1580  1.3927 -0.4201
  143OSM   C10S15718   5.495   2.400   5.804 -0.2168  0.7382  0.0705
  143OSM   H10S15719   5.409   2.332   5.821 -0.5702  1.2560  0.3767
  143OSM   H10T15720   5.594   2.353   5.818 -0.6816  0.5567  3.6909
  143OSM   C11S15721   5.477   2.466   5.661 -0.7447 -0.2980 -0.8629
  143OSM   H11S15722   5.562   2.537   5.652  0.3074 -1.4936 -0.7346
  143OSM   H11T15723   5.381   2.519   5.647 -0.1103  0.5337 -2.3195
  143OSM   C12S15724   5.476   2.350   5.559  0.1291  0.1792  0.0893
  143OSM   H12S15725   5.373   2.309   5.573 -0.6022  2.0783  0.5136
  143OSM   H12T15726   5.538   2.263   5.588 -0.7684 -0.2567  0.7693
  143OSM   C13S15727   5.513   2.383   5.412  0.0199 -0.5049 -0.3703
  143OSM   H13S15728   5.612   2.432   5.421 -0.4557  1.0937 -2.7077
  143OSM   H13T15729   5.440   2.457   5.373  1.8186  2.1122  1.0067
  143OSM   C14S15730   5.524   2.272   5.310 -0.2400 -0.3529 -0.7774
  143OSM   H14S15731   5.423   2.227   5.295 -0.6872  1.1903 -2.9174
  143OSM   H14T15732   5.594   2.194   5.347  0.6729  0.0194 -1.6717
  143OSM   C15S15733   5.573   2.317   5.172  0.4707  0.1555 -0.6270
  143OSM   H15S15734   5.535   2.417   5.140 -0.7877  0.6407  2.1162
  143OSM   H15T15735   5.551   2.236   5.099 -1.9813  0.3307 -0.1804
  143OSM   C16S15736   5.729   2.324   5.154 -0.7113 -0.9055 -0.2090
  143OSM   H16S15737   5.748   2.301   5.048 -2.2960  0.6630 -0.8813
  143OSM   H16T15738   5.786   2.256   5.221  0.8336  0.8777  0.3906
  143OSM   C17S15739   5.780   2.469   5.180 -0.8969 -0.6341  0.2052
  143OSM   H17S15740   5.767   2.506   5.284 -0.4343  1.5840 -0.4709
  143OSM   H17T15741   5.715   2.534   5.118 -1.2340  0.0241  1.2237
  143OSM   C18S15742   5.927   2.506   5.127  0.1881 -0.4338  0.6157
  143OSM   H18S15743   5.945   2.615   5.140  1.8888 -0.4937 -0.8388
  143OSM   H18T15744   5.928   2.480   5.019 -2.3470 -2.8659  1.0622
  143OSM   H18U15745   6.005   2.459   5.190  0.1788  0.7919  1.5934
  143OSM    C1F15746   5.827   2.907   6.444 -0.0536  0.6943  0.1074
  143OSM     OF15747   5.929   2.896   6.511  0.2871 -0.1566 -0.3060
  143OSM    C2F15748   5.831   2.977   6.310  0.2184  0.4177 -0.2280
  143OSM    H2F15749   5.829   3.087   6.326 -1.1314  0.3313  0.3753
  143OSM    H2G15750   5.752   2.930   6.249  0.6632 -1.8196  0.8124
  143OSM    C3F15751   5.957   2.937   6.231  0.0532  0.4308 -0.5110
  143OSM    H3F15752   5.957   2.827   6.216 -0.8662  0.3276  0.1346
  143OSM    H3G15753   6.050   2.950   6.290 -0.5421  0.0983  0.5461
  143OSM    C4F15754   5.976   3.013   6.096 -0.4447  0.4331  0.6536
  143OSM    H4F15755   6.082   2.995   6.067  0.3036  1.6986  2.4491
  143OSM    H4G15756   5.964   3.122   6.115 -1.3610  0.4578 -0.0045
  143OSM    C5F15757   5.894   2.952   5.972  0.2764 -0.3134 -0.5551
  143OSM    H5F15758   5.790   2.952   6.009  0.0089  2.0516 -1.1047
  143OSM    H5G15759   5.918   2.845   5.959 -2.6907 -0.8984 -2.1828
  143OSM    C6F15760   5.908   3.032   5.843  0.3994 -0.7434  0.3231
  143OSM    H6F15761   6.011   3.014   5.806  0.4515  1.4389 -0.7634
  143OSM    H6G15762   5.897   3.141   5.860  0.0379 -0.6203 -0.6193
  143OSM    C7F15763   5.822   2.985   5.725  0.1574 -0.2995 -0.0495
  143OSM    H7F15764   5.835   3.061   5.645 -0.7072 -1.0841 -0.9536
  143OSM    H7G15765   5.718   2.984   5.764  0.8799  0.2794  2.0067
  143OSM    C8F15766   5.868   2.847   5.669 -0.5918 -0.0787 -0.2468
  143OSM    H8F15767   5.874   2.775   5.753  0.7463  1.3466  0.9421
  143OSM    H8G15768   5.974   2.870   5.649 -0.2461 -2.2306 -1.2296
  143OSM    C9F15769   5.793   2.778   5.553 -0.2432  0.2748 -0.4182
  143OSM    H9F15770   5.703   2.724   5.586  1.5538 -1.9305  1.1722
  143OSM   C10F15771   5.825   2.791   5.424 -0.6079 -0.3127  0.6609
  143OSM   H10F15772   5.760   2.758   5.342 -1.0990  0.7843  0.5886
  143OSM   C11F15773   5.941   2.869   5.373 -0.3053 -0.7161  0.5187
  143OSM   H11F15774   6.007   2.807   5.310 -0.4241 -0.4615  0.1392
  143OSM   H11G15775   5.996   2.920   5.455 -2.9109  2.4584  0.5036
  143OSM   C12F15776   5.895   2.993   5.294 -0.0596 -0.0269 -0.2784
  143OSM   H12F15777   5.833   2.955   5.211  1.0499  0.6481 -1.4583
  143OSM   H12G15778   5.983   3.046   5.250  1.1217 -1.9126 -0.2820
  143OSM   C13F15779   5.817   3.097   5.382  0.1622 -0.0541  0.2431
  143OSM   H13F15780   5.879   3.158   5.451  0.4378  0.5516 -0.5244
  143OSM   H13G15781   5.746   3.034   5.439 -2.0846  0.0977 -2.2149
  143OSM   C14F15782   5.726   3.201   5.309  0.1207 -0.8945 -0.0120
  143OSM   H14F15783   5.650   3.151   5.245 -0.0475 -2.0228  1.0469
  143OSM   H14G15784   5.802   3.265   5.257 -0.0725 -1.3127 -0.8269
  143OSM   C15F15785   5.645   3.290   5.406  0.8996  0.1200 -0.2165
  143OSM   H15F15786   5.586   3.365   5.349 -2.2530 -0.5315  1.9081
  143OSM   H15G15787   5.713   3.344   5.475 -0.9178 -0.3706  2.0996
  143OSM   C16F15788   5.540   3.208   5.489  0.0901  0.1717  0.5033
  143OSM   H16F15789   5.585   3.124   5.547 -1.6116 -0.5440  0.8589
  143OSM   H16G15790   5.464   3.171   5.417  1.0606  2.3517 -1.8032
  143OSM   C17F15791   5.474   3.288   5.600 -0.3862  0.3167  0.7677
  143OSM   H17F15792   5.390   3.235   5.650 -1.3864  0.9566 -0.1879
  143OSM   H17G15793   5.415   3.372   5.558 -1.5659 -1.0486 -0.4327
  143OSM   C18F15794   5.574   3.342   5.705  1.0740 -0.2892  0.5626
  143OSM   H18F15795   5.513   3.389   5.785  1.0257  1.1946 -0.3086
  143OSM   H18G15796   5.635   3.425   5.663  0.8704 -0.2513  0.3382
  143OSM   H18H15797   5.649   3.270   5.743  0.0195 -0.5260  2.2989
  144OSM      N15798   0.199   1.025   7.288 -0.0267  0.0819 -0.1231
  144OSM    C1515799   0.334   0.988   7.332 -0.2653 -0.7092  1.0269
  144OSM   H15A15800   0.405   1.060   7.292 -0.0279 -0.6660  1.5147
  144OSM   H15B15801   0.357   0.898   7.277 -0.5182 -0.5064  0.5832
  144OSM   H15C15802   0.348   0.974   7.438  0.6288 -2.4830  0.7038
  144OSM    C1415803   0.167   1.161   7.331 -0.1837 -0.3513 -0.6168
  144OSM   H14A15804   0.066   1.186   7.302 -0.3719 -1.0208 -0.5662
  144OSM   H14B15805   0.233   1.237   7.291  1.3262 -3.1841 -4.0814
  144OSM   H14C15806   0.161   1.174   7.438  1.1138  0.8808 -0.6654
  144OSM    C1315807   0.192   1.024   7.140  0.3433  0.2389  0.1265
  144OSM   H13A15808   0.234   1.115   7.100 -1.8392  0.7489 -1.1631
  144OSM   H13B15809   0.091   1.000   7.111 -0.1164  0.6335  1.3439
  144OSM   H13C15810   0.253   0.941   7.105  0.6590  0.0896  1.0072
  144OSM    C1215811   0.089   0.944   7.335  0.7584 -0.5146  0.5030
  144OSM   H12A15812  -0.004   0.978   7.292  1.5035  0.6944 -0.2225
  144OSM   H12B15813   0.083   0.962   7.442  0.0460 -1.4328  0.6234
  144OSM    C1115814   0.088   0.796   7.312  0.2521  0.1900 -1.2471
  144OSM   H11A15815   0.010   0.751   7.377 -0.2733  0.3687 -1.7434
  144OSM   H11B15816   0.185   0.758   7.349 -0.7487 -1.0040  0.3203
  144OSM      P15817   0.070   0.618   7.131  0.0050  0.3168 -0.0993
  144OSM    O1315818   0.218   0.588   7.099 -0.3673 -0.5295 -0.1921
  144OSM    O1415819   0.006   0.533   7.238 -0.1590  0.6260 -0.2786
  144OSM    O1115820  -0.016   0.602   7.004  0.1088 -0.1461  0.2672
  144OSM    O1215821   0.060   0.768   7.175 -0.1550 -0.4010 -0.2981
  144OSM    C1S15822  -0.023   0.706   6.900 -0.6768  0.2964 -0.6149
  144OSM    H1S15823   0.079   0.717   6.857  0.2170  0.1276  1.3346
  144OSM    H1T15824  -0.054   0.801   6.949  0.7655  1.0142 -1.0276
  144OSM     NF15825  -0.138   0.759   6.685 -0.6586  0.2478  0.1470
  144OSM    HNF15826  -0.212   0.824   6.699  0.0190  1.2719 -0.9197
  144OSM    C2S15827  -0.122   0.659   6.791  0.1771 -0.1679 -1.4633
  144OSM    H2S15828  -0.079   0.566   6.748  0.0951 -0.9410  0.0669
  144OSM    C3S15829  -0.265   0.616   6.849  0.7362 -0.7504  0.6572
  144OSM    H3S15830  -0.310   0.710   6.885  0.2603 -0.7140 -0.0010
  144OSM     O315831  -0.271   0.524   6.953  0.5134  0.3709 -0.2261
  144OSM    HO315832  -0.184   0.507   6.990 -1.1402 -2.5606  2.8233
  144OSM    C4S15833  -0.349   0.561   6.739 -0.3067  0.1363  0.2204
  144OSM    H4S15834  -0.410   0.635   6.684  0.1905  0.1124 -0.3772
  144OSM    C5S15835  -0.352   0.432   6.697  0.6069 -0.1843 -0.0646
  144OSM    H5S15836  -0.291   0.356   6.748  3.1110  1.7435  0.0048
  144OSM    C6S15837  -0.431   0.392   6.581  0.3532  0.2182  0.4874
  144OSM    H6S15838  -0.503   0.471   6.551 -0.1951 -0.7461 -0.8409
  144OSM    H6T15839  -0.485   0.295   6.594 -1.3691  1.3696  2.6353
  144OSM    C7S15840  -0.328   0.363   6.465  0.4251 -0.4107  0.4206
  144OSM    H7S15841  -0.265   0.275   6.490 -1.5954 -2.7453 -2.1055
  144OSM    H7T15842  -0.276   0.458   6.443 -0.7225  0.5111  1.5461
  144OSM    C8S15843  -0.405   0.314   6.346  0.6551 -0.3960  0.0751
  144OSM    H8S15844  -0.456   0.403   6.304 -1.5207 -2.5766 -2.3527
  144OSM    H8T15845  -0.485   0.241   6.371 -0.2594 -0.0664 -1.6877
  144OSM    C9S15846  -0.313   0.269   6.236 -0.1739 -0.5867 -0.1287
  144OSM    H9S15847  -0.260   0.174   6.262 -0.8046 -0.4783  1.6078
  144OSM    H9T15848  -0.234   0.347   6.227  0.0269 -0.3495  2.8453
  144OSM   C10S15849  -0.387   0.247   6.099  0.0533 -0.0712 -0.0906
  144OSM   H10S15850  -0.434   0.345   6.075 -2.3165 -0.6139  1.9155
  144OSM   H10T15851  -0.462   0.166   6.091 -1.7126  1.5961 -1.3747
  144OSM   C11S15852  -0.289   0.234   5.986 -0.3816 -0.3735 -0.1161
  144OSM   H11S15853  -0.225   0.144   5.999  0.0414 -0.1536 -0.6313
  144OSM   H11T15854  -0.213   0.314   5.994  0.3626 -1.1013  0.2652
  144OSM   C12S15855  -0.345   0.259   5.847  0.1883  0.2306  0.3488
  144OSM   H12S15856  -0.366   0.368   5.838 -0.0472  0.0329 -2.2122
  144OSM   H12T15857  -0.444   0.209   5.843  0.0464  0.4892  0.5797
  144OSM   C13S15858  -0.253   0.215   5.732 -0.0692  0.2064 -0.0405
  144OSM   H13S15859  -0.241   0.105   5.743 -1.9239 -0.2283 -1.7629
  144OSM   H13T15860  -0.153   0.262   5.746 -0.5635  0.7070  2.2234
  144OSM   C14S15861  -0.298   0.258   5.593  0.7848 -0.1582 -0.3105
  144OSM   H14S15862  -0.282   0.367   5.601  1.7484 -0.3545  0.7371
  144OSM   H14T15863  -0.402   0.228   5.569  0.5285  0.4824 -0.0215
  144OSM   C15S15864  -0.212   0.214   5.474 -0.3423  0.0956  0.3127
  144OSM   H15S15865  -0.203   0.104   5.464  0.8996  0.3721 -2.8458
  144OSM   H15T15866  -0.107   0.240   5.499  0.1530 -1.8280  0.3794
  144OSM   C16S15867  -0.236   0.272   5.340 -0.1896  0.2128 -0.7760
  144OSM   H16S15868  -0.138   0.257   5.289  0.0190  2.3729 -1.0815
  144OSM   H16T15869  -0.246   0.380   5.362 -0.9701  0.1300 -0.6931
  144OSM   C17S15870  -0.348   0.187   5.274  0.5136 -0.0082  0.1860
  144OSM   H17S15871  -0.443   0.172   5.330  0.2965 -0.6099 -0.3220
  144OSM   H17T15872  -0.296   0.091   5.252 -0.0292  0.0051 -1.2709
  144OSM   C18S15873  -0.386   0.266   5.151  0.2459  0.8947  0.5160
  144OSM   H18S15874  -0.289   0.279   5.099  0.2009 -2.0540 -0.4671
  144OSM   H18T15875  -0.433   0.365   5.172 -0.3450  0.8820 -0.6221
  144OSM   H18U15876  -0.449   0.203   5.084  0.3845  2.5288 -1.2330
  144OSM    C1F15877  -0.038   0.786   6.600  0.5255 -1.2345  0.1551
  144OSM     OF15878   0.059   0.709   6.584 -0.1663  0.3630  0.4975
  144OSM    C2F15879  -0.061   0.915   6.525  0.0806  0.5976  0.9121
  144OSM    H2F15880  -0.091   0.999   6.591  3.3489  1.0276  2.0287
  144OSM    H2G15881  -0.156   0.898   6.469  0.9679 -2.8632  0.2272
  144OSM    C3F15882   0.054   0.956   6.428  0.0416 -0.3483 -0.7505
  144OSM    H3F15883   0.087   0.861   6.379  1.2687 -0.3420  0.0219
  144OSM    H3G15884   0.137   1.001   6.486 -0.4992 -0.6102  0.2394
  144OSM    C4F15885   0.006   1.060   6.324 -0.2271  0.3225 -0.5270
  144OSM    H4F15886   0.098   1.102   6.278 -0.8484  0.8681 -1.2994
  144OSM    H4G15887  -0.069   1.131   6.365 -0.5287  0.5522 -1.4503
  144OSM    C5F15888  -0.079   1.011   6.207 -0.2687 -0.3533 -0.0021
  144OSM    H5F15889  -0.177   0.977   6.245  1.4834 -2.7809  2.6943
  144OSM    H5G15890  -0.029   0.916   6.178  0.7871  0.3093 -0.4032
  144OSM    C6F15891  -0.103   1.120   6.097 -0.7500 -0.5297 -0.0290
  144OSM    H6F15892  -0.167   1.203   6.133 -1.3316 -0.4778 -1.1538
  144OSM    H6G15893  -0.163   1.076   6.014  1.3787 -1.4947 -1.1369
  144OSM    C7F15894   0.025   1.179   6.030  0.1869  0.0227  0.2897
  144OSM    H7F15895   0.089   1.093   6.001 -1.5374 -0.4155 -2.5444
  144OSM    H7G15896   0.057   1.246   6.113  0.5961 -0.2423  0.3515
  144OSM    C8F15897  -0.010   1.270   5.916 -0.1877 -0.3507 -0.5523
  144OSM    H8F15898   0.078   1.337   5.903 -0.7082 -0.0952 -3.4795
  144OSM    H8G15899  -0.089   1.339   5.953  0.8744 -0.5006  2.2400
  144OSM    C9F15900  -0.040   1.202   5.786  0.3036 -0.2591 -0.0811
  144OSM    H9F15901  -0.098   1.112   5.812  0.3461 -0.0248  0.8526
  144OSM   C10F15902  -0.033   1.247   5.659  0.7113 -0.6459  0.8599
  144OSM   H10F15903  -0.073   1.187   5.576 -1.5448  1.2097  0.4861
  144OSM   C11F15904   0.016   1.383   5.606 -0.6496  0.1664 -0.6102
  144OSM   H11F15905   0.068   1.427   5.693  1.2327 -1.6843 -0.7228
  144OSM   H11G15906  -0.074   1.437   5.568 -1.3733  0.4688  1.4456
  144OSM   C12F15907   0.122   1.374   5.496  0.4540 -0.0912 -0.0027
  144OSM   H12F15908   0.210   1.333   5.549  1.0180  1.0713 -0.0146
  144OSM   H12G15909   0.143   1.477   5.463 -1.8989  0.1490 -0.9827
  144OSM   C13F15910   0.080   1.304   5.370 -0.1456  0.2458 -0.2169
  144OSM   H13F15911  -0.005   1.356   5.321  0.1366 -0.7482 -1.8180
  144OSM   H13G15912   0.033   1.210   5.406 -0.8920  0.9057  0.5781
  144OSM   C14F15913   0.193   1.267   5.269 -0.3478 -0.5622 -0.0713
  144OSM   H14F15914   0.270   1.203   5.317 -2.3417 -3.4342 -0.4179
  144OSM   H14G15915   0.233   1.365   5.236 -2.0009  1.1932  2.7206
  144OSM   C15F15916   0.141   1.189   5.148 -0.2160  0.9376  0.4778
  144OSM   H15F15917   0.054   1.244   5.107  0.0567 -1.2040 -3.5480
  144OSM   H15G15918   0.122   1.087   5.189  1.9455 -1.2611 -3.3465
  144OSM   C16F15919   0.245   1.177   5.032 -0.0261 -0.7727  0.4318
  144OSM   H16F15920   0.209   1.091   4.971  0.0415 -0.5034  0.0127
  144OSM   H16G15921   0.344   1.148   5.074 -0.1558 -0.4166  0.9980
  144OSM   C17F15922   0.247   1.309   4.949 -0.8883 -0.6122 -0.4106
  144OSM   H17F15923   0.254   1.404   5.006 -4.1715  1.5585 -3.2416
  144OSM   H17G15924   0.146   1.318   4.903 -1.4413 -0.7607  0.7218
  144OSM   C18F15925   0.348   1.294   4.837 -0.6947  0.2031 -0.0661
  144OSM   H18F15926   0.446   1.266   4.880 -0.5799 -0.3666 -0.6799
  144OSM   H18G15927   0.348   1.383   4.771 -1.0398 -0.8506 -1.5189
  144OSM   H18H15928   0.333   1.208   4.768  0.0667  0.4631 -0.5662
  145OSM      N15929   6.450   4.641   6.861  0.2144  0.2906  0.1364
  145OSM    C1515930   6.533   4.522   6.895  0.3263 -0.0863  0.0767
  145OSM   H15A15931   6.584   4.536   6.989 -0.4693 -0.7344  0.6150
  145OSM   H15B15932   6.609   4.508   6.819  0.3712  0.5814 -0.0088
  145OSM   H15C15933   6.475   4.431   6.885  2.0564 -1.0736 -1.8615
  145OSM    C1415934   6.387   4.697   6.979  0.2658  0.1491 -0.6880
  145OSM   H14A15935   6.358   4.800   6.966  2.4990  0.6482 -2.2693
  145OSM   H14B15936   6.463   4.709   7.054 -0.6885  1.9813  0.0374
  145OSM   H14C15937   6.306   4.637   7.019  2.0259 -3.1446 -1.6262
  145OSM    C1315938   6.543   4.741   6.804  0.3543 -0.4472  0.2889
  145OSM   H13A15939   6.494   4.810   6.737  0.0691 -1.7860 -0.9422
  145OSM   H13B15940   6.626   4.705   6.744  0.3185  0.0535 -0.0723
  145OSM   H13C15941   6.583   4.801   6.884 -2.2722  0.6139  0.8899
  145OSM    C1215942   6.348   4.598   6.759  0.5985  0.4535 -0.0088
  145OSM   H12A15943   6.309   4.689   6.715 -0.5279  1.0280  2.0771
  145OSM   H12B15944   6.270   4.537   6.801  0.2060 -1.0939 -2.7380
  145OSM    C1115945   6.410   4.518   6.634  0.3292  0.2414 -0.5133
  145OSM   H11A15946   6.502   4.575   6.609 -0.2100  1.9828  1.2470
  145OSM   H11B15947   6.335   4.539   6.555  1.4395  2.1203 -1.1542
  145OSM      P15948   6.299   4.283   6.690 -0.3995  0.0024 -0.3830
  145OSM    O1315949   6.323   4.150   6.636 -0.0806 -0.1464 -0.0046
  145OSM    O1415950   6.277   4.300   6.835 -0.0002 -0.2401  0.0895
  145OSM    O1115951   6.186   4.353   6.618  0.4459  0.4084  0.0955
  145OSM    O1215952   6.427   4.375   6.663  0.1855 -0.2153 -0.1409
  145OSM    C1S15953   6.045   4.341   6.659 -0.2762  0.1141  0.0651
  145OSM    H1S15954   6.026   4.425   6.730  2.5410  0.2992  0.7070
  145OSM    H1T15955   6.016   4.249   6.715  0.9295 -1.7839 -2.2589
  145OSM     NF15956   5.805   4.348   6.586 -0.5029 -0.2417  0.1439
  145OSM    HNF15957   5.758   4.260   6.591  1.2977 -1.1882  1.3664
  145OSM    C2S15958   5.941   4.345   6.541 -0.0689  0.6520  0.1043
  145OSM    H2S15959   5.962   4.444   6.494 -0.6079  1.0883  0.7599
  145OSM    C3S15960   5.974   4.230   6.437 -0.0915 -0.2097 -0.8360
  145OSM    H3S15961   5.965   4.126   6.475  3.0563 -0.6844 -1.0960
  145OSM     O315962   6.113   4.233   6.399 -0.0647 -0.5442  0.2981
  145OSM    HO315963   6.150   4.295   6.462 -0.5708  1.8104 -1.5938
  145OSM    C4S15964   5.893   4.230   6.302 -0.3803  0.1125  0.2196
  145OSM    H4S15965   5.822   4.146   6.302  0.9511 -1.0662 -0.2832
  145OSM    C5S15966   5.914   4.310   6.194  1.1337  0.0915  0.0827
  145OSM    H5S15967   5.996   4.383   6.192  0.1854  1.2732  2.0113
  145OSM    C6S15968   5.839   4.308   6.062 -0.5273  0.0737 -0.1841
  145OSM    H6S15969   5.917   4.312   5.983 -2.2073 -0.0845 -1.9093
  145OSM    H6T15970   5.784   4.403   6.048 -1.9800 -1.0076 -2.4678
  145OSM    C7S15971   5.744   4.192   6.032  0.1168  0.1289  0.8416
  145OSM    H7S15972   5.671   4.186   6.115  0.4901  1.4634  1.3032
  145OSM    H7T15973   5.806   4.100   6.033 -0.7421 -0.4596  1.2041
  145OSM    C8S15974   5.681   4.209   5.898 -0.2846 -0.4447  0.3897
  145OSM    H8S15975   5.603   4.288   5.904 -1.6004 -1.2877 -3.0595
  145OSM    H8T15976   5.623   4.119   5.869 -0.7605  0.4018 -1.3915
  145OSM    C9S15977   5.771   4.226   5.773  0.4276 -0.5867  0.2875
  145OSM    H9S15978   5.833   4.134   5.768  0.4952 -0.5732  0.7669
  145OSM    H9T15979   5.831   4.319   5.781 -0.6433  0.0851  0.8072
  145OSM   C10S15980   5.681   4.232   5.652  0.1038 -0.0174  0.0164
  145OSM   H10S15981   5.632   4.332   5.643  0.0547 -0.1109 -0.8192
  145OSM   H10T15982   5.601   4.156   5.663  0.8423 -0.7711  0.2701
  145OSM   C11S15983   5.754   4.224   5.514 -0.3214  0.4295 -0.2341
  145OSM   H11S15984   5.788   4.119   5.501 -0.4158  0.0888  1.8705
  145OSM   H11T15985   5.847   4.286   5.513  0.5588 -0.7418  1.8854
  145OSM   C12S15986   5.660   4.269   5.397  0.0107  0.6090  0.0606
  145OSM   H12S15987   5.648   4.380   5.399  1.2510  0.7959 -1.3639
  145OSM   H12T15988   5.558   4.227   5.412 -0.8897  3.1277  1.6718
  145OSM   C13S15989   5.718   4.217   5.268 -0.1717  0.0681 -0.1548
  145OSM   H13S15990   5.820   4.261   5.275 -1.1285  2.1691  2.3336
  145OSM   H13T15991   5.659   4.260   5.184 -1.8666 -2.9360 -0.6435
  145OSM   C14S15992   5.726   4.069   5.245 -0.4963 -0.4503 -1.2142
  145OSM   H14S15993   5.638   4.034   5.304 -0.2342 -0.1838 -0.6573
  145OSM   H14T15994   5.820   4.030   5.289 -0.8641 -1.5261 -1.3492
  145OSM   C15S15995   5.708   4.039   5.102 -0.2695 -0.6422  1.1422
  145OSM   H15S15996   5.629   4.105   5.060  1.8369  0.3010 -1.6306
  145OSM   H15T15997   5.676   3.936   5.076  2.3438 -0.9004 -1.6439
  145OSM   C16S15998   5.847   4.052   5.027 -0.3559 -0.4544  0.0619
  145OSM   H16S15999   5.917   3.993   5.090  0.4705  0.1005 -0.3207
  145OSM   H16T16000   5.876   4.159   5.023  1.4385 -0.8376  1.4496
  145OSM   C17S16001   5.842   3.973   4.895  0.1278  0.1677 -0.3314
  145OSM   H17S16002   5.767   4.023   4.830  0.0802 -0.0214 -0.4230
  145OSM   H17T16003   5.798   3.873   4.913 -0.9071  0.3960 -1.4615
  145OSM   C18S16004   5.978   3.959   4.818  0.3324 -0.4456  0.4878
  145OSM   H18S16005   6.047   3.908   4.889  1.7305  0.5906 -0.0838
  145OSM   H18T16006   6.018   4.063   4.816 -1.8598  0.5400  2.7122
  145OSM   H18U16007   5.959   3.906   4.722  0.1809  0.8176 -0.2065
  145OSM    C1F16008   5.752   4.451   6.646  0.0320  0.4564 -0.5429
  145OSM     OF16009   5.811   4.553   6.670 -0.1002  0.0082 -0.2760
  145OSM    C2F16010   5.610   4.427   6.684  0.7082  0.1315  1.1709
  145OSM    H2F16011   5.596   4.442   6.793 -1.7703 -2.6716  1.3819
  145OSM    H2G16012   5.583   4.321   6.664  1.4544  0.1353  0.0185
  145OSM    C3F16013   5.515   4.528   6.610  0.0957 -0.1175  0.4253
  145OSM    H3F16014   5.540   4.630   6.647 -2.5356  1.5737 -1.9620
  145OSM    H3G16015   5.408   4.517   6.639 -0.2842  0.0123 -0.8457
  145OSM    C4F16016   5.529   4.528   6.455  0.0015 -0.3108 -0.3060
  145OSM    H4F16017   5.629   4.570   6.430  0.4782  0.5213  2.6677
  145OSM    H4G16018   5.460   4.603   6.409  3.1449  0.5144 -4.2713
  145OSM    C5F16019   5.487   4.391   6.403 -0.8207  0.3672 -0.0534
  145OSM    H5F16020   5.380   4.381   6.430 -1.2543  0.0073 -1.7995
  145OSM    H5G16021   5.541   4.309   6.455 -1.9690  0.1524  0.8575
  145OSM    C6F16022   5.526   4.364   6.258 -0.1458  1.0036 -0.6724
  145OSM    H6F16023   5.503   4.257   6.236 -1.8039  1.6041 -2.1268
  145OSM    H6G16024   5.635   4.389   6.250 -0.3302  2.4925  0.9257
  145OSM    C7F16025   5.464   4.454   6.147 -0.3875  0.5105 -0.2870
  145OSM    H7F16026   5.491   4.411   6.048  1.8386 -0.4539  0.6722
  145OSM    H7G16027   5.518   4.551   6.145  2.7521 -1.0783 -3.0351
  145OSM    C8F16028   5.312   4.462   6.164  0.1756 -0.7290 -0.3016
  145OSM    H8F16029   5.276   4.555   6.115  2.5515  0.3558 -0.1372
  145OSM    H8G16030   5.303   4.491   6.271 -0.3240 -3.2046  0.3737
  145OSM    C9F16031   5.228   4.347   6.138  0.8699 -0.0448  0.8165
  145OSM    H9F16032   5.207   4.284   6.226 -0.0815  0.6974  1.1447
  145OSM   C10F16033   5.165   4.315   6.023 -0.4103  0.3976  0.4863
  145OSM   H10F16034   5.102   4.225   6.027  0.1063  0.0713  1.3313
  145OSM   C11F16035   5.176   4.389   5.893 -0.1128 -0.9205  0.3075
  145OSM   H11F16036   5.283   4.417   5.882 -0.0093 -1.6974 -0.8529
  145OSM   H11G16037   5.116   4.482   5.893  0.1375 -0.6472  3.3994
  145OSM   C12F16038   5.130   4.310   5.766 -0.3338  0.8922 -1.0970
  145OSM   H12F16039   5.020   4.294   5.762 -0.7683  3.2550 -0.4961
  145OSM   H12G16040   5.179   4.211   5.771  0.3915  1.3038  0.8001
  145OSM   C13F16041   5.175   4.390   5.642 -0.1636 -0.6738 -0.1772
  145OSM   H13F16042   5.285   4.402   5.635 -0.2724 -0.4136 -1.7643
  145OSM   H13G16043   5.131   4.491   5.659  2.4687  0.5820 -0.1873
  145OSM   C14F16044   5.123   4.340   5.505  0.5065  0.2772 -0.0669
  145OSM   H14F16045   5.016   4.365   5.493  0.6306  1.0651  0.3782
  145OSM   H14G16046   5.139   4.231   5.509 -0.9985  0.0705  3.2667
  145OSM   C15F16047   5.204   4.402   5.388 -0.2515 -0.0422 -0.3263
  145OSM   H15F16048   5.311   4.384   5.411 -0.6603 -1.6901  0.4279
  145OSM   H15G16049   5.190   4.513   5.382  0.5350  0.1127  0.4976
  145OSM   C16F16050   5.170   4.348   5.247 -0.6546  0.7274 -0.0951
  145OSM   H16F16051   5.064   4.370   5.220 -1.0280 -1.4260 -0.5847
  145OSM   H16G16052   5.164   4.237   5.248 -1.1893  0.7535  1.2034
  145OSM   C17F16053   5.264   4.386   5.131  0.1813 -0.1218  0.1418
  145OSM   H17F16054   5.226   4.335   5.040  0.4798  2.5570 -1.5623
  145OSM   H17G16055   5.362   4.342   5.160  0.7718  1.5601  0.8251
  145OSM   C18F16056   5.273   4.540   5.116  0.0784  0.0537 -0.0867
  145OSM   H18F16057   5.316   4.579   5.022  2.0265 -0.9860  0.3299
  145OSM   H18G16058   5.335   4.582   5.198 -2.0158  0.8959  1.1542
  145OSM   H18H16059   5.173   4.586   5.130 -0.4935 -1.1561 -0.0349
  146OSM      N16060   1.835   4.735   7.146  0.1710  0.5491  0.0651
  146OSM    C1516061   1.872   4.888   7.161  0.0352  0.3248 -0.2613
  146OSM   H15A16062   1.851   4.935   7.256 -1.5743 -0.6838 -0.0731
  146OSM   H15B16063   1.814   4.941   7.087 -1.2204  0.2726  0.6457
  146OSM   H15C16064   1.977   4.891   7.137  0.1491 -0.5210  0.0710
  146OSM    C1416065   1.907   4.660   7.248  0.3206 -0.1597 -0.7802
  146OSM   H14A16066   1.862   4.699   7.337 -0.9710  0.2920 -1.6009
  146OSM   H14B16067   2.012   4.684   7.231 -0.3529  2.7736 -1.4387
  146OSM   H14C16068   1.890   4.554   7.240  2.5303 -0.7274  1.0640
  146OSM    C1316069   1.689   4.711   7.159  0.7662 -1.2404 -0.9779
  146OSM   H13A16070   1.630   4.778   7.099  1.4904 -1.0939 -1.5372
  146OSM   H13B16071   1.648   4.729   7.257  1.8500 -1.2737 -0.5079
  146OSM   H13C16072   1.659   4.609   7.142  0.3952 -1.4140  0.5982
  146OSM    C1216073   1.882   4.682   7.014  0.3917 -0.1858 -0.1372
  146OSM   H12A16074   1.822   4.725   6.935  0.5696 -0.7785 -0.6044
  146OSM   H12B16075   1.867   4.575   7.006 -2.1431 -0.0657  1.8880
  146OSM    C1116076   2.034   4.703   6.974 -0.2948  0.0464 -0.8268
  146OSM   H11A16077   2.057   4.811   6.991 -1.8576  0.2959 -0.0016
  146OSM   H11B16078   2.045   4.682   6.866 -0.3087  1.1634 -1.0615
  146OSM      P16079   2.140   4.476   7.020 -0.2532  0.0021  0.6707
  146OSM    O1316080   2.248   4.428   7.107  0.0839 -0.0583 -0.0369
  146OSM    O1416081   2.009   4.417   7.026 -0.3471 -0.0598 -0.4030
  146OSM    O1116082   2.183   4.475   6.874  0.2117 -0.2351  0.0043
  146OSM    O1216083   2.121   4.624   7.052  0.5077  0.4199  0.2743
  146OSM    C1S16084   2.238   4.375   6.791  0.3865 -0.2996 -0.4596
  146OSM    H1S16085   2.200   4.273   6.815 -0.3313 -0.0356 -0.4500
  146OSM    H1T16086   2.349   4.380   6.797  0.2812  1.0946  0.7678
  146OSM     NF16087   2.219   4.289   6.566  0.0345  0.2315  0.5277
  146OSM    HNF16088   2.294   4.288   6.500 -0.2930  3.9945 -0.1017
  146OSM    C2S16089   2.204   4.410   6.648  0.3071  0.5427 -0.6897
  146OSM    H2S16090   2.096   4.436   6.644  0.3075  0.6752  0.0129
  146OSM    C3S16091   2.279   4.536   6.604 -0.2312 -0.0847 -0.8064
  146OSM    H3S16092   2.387   4.509   6.598 -0.6163 -1.6312 -1.0733
  146OSM     O316093   2.294   4.632   6.705  0.1841  0.3777  0.0907
  146OSM    HO316094   2.259   4.587   6.782  0.4262 -0.4959 -0.3030
  146OSM    C4S16095   2.227   4.597   6.478 -0.1827 -0.2545  0.0833
  146OSM    H4S16096   2.128   4.557   6.454 -1.0685  1.0126  1.4966
  146OSM    C5S16097   2.308   4.681   6.399  0.2561 -0.7225  0.2549
  146OSM    H5S16098   2.407   4.710   6.435 -0.0667  0.3917  0.2677
  146OSM    C6S16099   2.263   4.742   6.265 -0.7736  0.5090  0.8602
  146OSM    H6S16100   2.357   4.765   6.210  0.6846 -0.2386  2.9274
  146OSM    H6T16101   2.214   4.840   6.284 -0.7659  0.4838  1.0093
  146OSM    C7S16102   2.155   4.660   6.194  0.1369  0.7939  0.1028
  146OSM    H7S16103   2.062   4.639   6.250  0.4275 -1.1138 -0.0361
  146OSM    H7T16104   2.199   4.558   6.182 -0.6674  0.2571  1.5012
  146OSM    C8S16105   2.124   4.722   6.061  0.1175  0.7278  0.4935
  146OSM    H8S16106   2.220   4.757   6.017 -0.5638  1.2200 -0.6273
  146OSM    H8T16107   2.057   4.810   6.074  0.7286  1.2450  0.2283
  146OSM    C9S16108   2.062   4.631   5.958 -0.2151  0.6298  0.2324
  146OSM    H9S16109   1.965   4.605   6.005 -1.9640  1.4261 -2.7184
  146OSM    H9T16110   2.125   4.539   5.952 -0.9927  0.0980 -0.0062
  146OSM   C10S16111   2.041   4.688   5.823 -1.0983 -0.5016  0.7586
  146OSM   H10S16112   2.037   4.602   5.752  1.7074  0.9423 -1.3643
  146OSM   H10T16113   2.136   4.735   5.789 -1.4712 -0.5872 -0.4717
  146OSM   C11S16114   1.919   4.778   5.804 -0.6974 -0.3714 -0.1285
  146OSM   H11S16115   1.928   4.870   5.866 -2.2647 -0.5834  0.4340
  146OSM   H11T16116   1.830   4.732   5.851 -1.1789  1.5596  0.9415
  146OSM   C12S16117   1.888   4.805   5.657 -0.2404  0.6459  0.4434
  146OSM   H12S16118   1.974   4.870   5.631  1.5358 -1.1821  1.4266
  146OSM   H12T16119   1.792   4.862   5.662  0.1224  1.1757  1.9712
  146OSM   C13S16120   1.882   4.677   5.575 -0.2900  1.0064 -0.0651
  146OSM   H13S16121   1.838   4.598   5.639  0.9304 -0.4206 -0.9359
  146OSM   H13T16122   1.991   4.658   5.565 -0.6206 -0.8754 -0.3645
  146OSM   C14S16123   1.813   4.687   5.441  0.2992  0.5481 -0.1025
  146OSM   H14S16124   1.848   4.598   5.385  1.0558  0.8553 -0.1308
  146OSM   H14T16125   1.835   4.779   5.382 -0.2343  0.2254 -0.8309
  146OSM   C15S16126   1.657   4.692   5.454 -0.6166  0.7064  0.8341
  146OSM   H15S16127   1.636   4.786   5.509 -2.4029  0.7693  0.1300
  146OSM   H15T16128   1.617   4.608   5.515  2.3379 -2.1346 -0.8307
  146OSM   C16S16129   1.578   4.703   5.321 -0.2091  0.0906  0.0798
  146OSM   H16S16130   1.648   4.746   5.247  1.4295 -1.2379  0.7860
  146OSM   H16T16131   1.489   4.771   5.324 -0.2217  0.3587 -3.0540
  146OSM   C17S16132   1.510   4.578   5.263  0.2440 -0.9130 -0.1456
  146OSM   H17S16133   1.446   4.551   5.350  3.3147  2.9789  3.7671
  146OSM   H17T16134   1.591   4.503   5.252  1.9096  0.2550  2.8580
  146OSM   C18S16135   1.435   4.600   5.131  0.6009 -0.4621  0.1169
  146OSM   H18S16136   1.409   4.505   5.080  0.2703  0.4721 -1.5481
  146OSM   H18T16137   1.500   4.651   5.057 -1.9331  1.8417 -0.6979
  146OSM   H18U16138   1.345   4.664   5.141  1.6438  1.5046 -2.1557
  146OSM    C1F16139   2.147   4.184   6.566 -0.6226 -0.2395 -0.0100
  146OSM     OF16140   2.048   4.177   6.642  0.3057 -0.9226 -0.0964
  146OSM    C2F16141   2.197   4.071   6.491 -0.4135  0.1801 -0.0856
  146OSM    H2F16142   2.307   4.062   6.495 -0.6049 -2.4738  1.6343
  146OSM    H2G16143   2.165   4.103   6.389  2.2432 -1.3487 -1.5025
  146OSM    C3F16144   2.126   3.932   6.511 -0.5610  0.1175 -0.0904
  146OSM    H3F16145   2.017   3.937   6.489 -0.3024 -1.7281 -2.1000
  146OSM    H3G16146   2.131   3.887   6.613 -0.8449 -1.3295 -0.6864
  146OSM    C4F16147   2.173   3.829   6.414  1.1110 -0.6169  0.1198
  146OSM    H4F16148   2.121   3.731   6.419  1.4302 -0.7705  0.4881
  146OSM    H4G16149   2.281   3.807   6.433  1.1071 -1.4160 -0.7132
  146OSM    C5F16150   2.150   3.867   6.263 -0.1717 -0.4656 -0.2985
  146OSM    H5F16151   2.188   3.971   6.249 -0.3427  0.2125  3.3065
  146OSM    H5G16152   2.041   3.872   6.242 -0.7088  1.4066  2.4297
  146OSM    C6F16153   2.215   3.776   6.160 -0.6084  0.1037 -0.3967
  146OSM    H6F16154   2.191   3.671   6.187  1.0747 -0.0348  0.7267
  146OSM    H6G16155   2.324   3.793   6.170 -0.7267  0.8387 -0.2651
  146OSM    C7F16156   2.173   3.819   6.013 -0.1013 -0.0143 -0.3722
  146OSM    H7F16157   2.166   3.930   6.019 -1.6596 -0.1295  0.1575
  146OSM    H7G16158   2.073   3.785   5.980 -0.1232  1.3922 -1.9345
  146OSM    C8F16159   2.276   3.777   5.902 -0.7396  0.9794  0.0780
  146OSM    H8F16160   2.380   3.803   5.930 -0.1695 -0.9613 -0.0786
  146OSM    H8G16161   2.252   3.832   5.809 -1.6905  3.2358  1.5725
  146OSM    C9F16162   2.270   3.625   5.889 -0.3369  0.0580 -0.5418
  146OSM    H9F16163   2.230   3.579   5.980  2.0774 -2.0785 -0.4535
  146OSM   C10F16164   2.278   3.562   5.768 -0.5998 -0.4901  0.3587
  146OSM   H10F16165   2.261   3.453   5.763  2.0912 -0.9423 -4.0186
  146OSM   C11F16166   2.308   3.622   5.631  0.0939 -0.0772 -0.9237
  146OSM   H11F16167   2.402   3.572   5.600  0.6547 -0.9073  1.9177
  146OSM   H11G16168   2.313   3.733   5.640 -0.8484  0.0590 -1.8848
  146OSM   C12F16169   2.189   3.586   5.536 -0.0542 -0.7588  0.1944
  146OSM   H12F16170   2.111   3.664   5.538  1.3798  0.8611 -2.1650
  146OSM   H12G16171   2.148   3.483   5.545 -1.4024 -0.2872 -0.3100
  146OSM   C13F16172   2.220   3.602   5.385  0.2430  1.2975  0.3240
  146OSM   H13F16173   2.272   3.699   5.372  0.0170  1.4797  0.7387
  146OSM   H13G16174   2.128   3.629   5.331  2.1927  0.8160 -3.5972
  146OSM   C14F16175   2.289   3.486   5.316 -0.4080 -0.7496  0.2282
  146OSM   H14F16176   2.400   3.487   5.329 -0.5772  1.3040  2.0376
  146OSM   H14G16177   2.239   3.393   5.348 -0.3629  0.1432  3.2269
  146OSM   C15F16178   2.253   3.476   5.160  0.1065 -0.2720  0.0547
  146OSM   H15F16179   2.143   3.467   5.156  0.0264  0.2706  0.7498
  146OSM   H15G16180   2.294   3.383   5.116  1.9917  0.0329  1.0316
  146OSM   C16F16181   2.291   3.610   5.085  0.0126  0.2230  0.1494
  146OSM   H16F16182   2.402   3.603   5.082  0.0691  0.7277  0.9176
  146OSM   H16G16183   2.240   3.700   5.125 -1.0286 -0.0666 -0.4672
  146OSM   C17F16184   2.253   3.593   4.931 -0.4501 -0.3480  0.3276
  146OSM   H17F16185   2.143   3.597   4.917 -0.4664  1.8900  0.7665
  146OSM   H17G16186   2.287   3.491   4.903  1.3996  0.3988 -0.2771
  146OSM   C18F16187   2.319   3.701   4.843  0.4401 -0.4206  0.3673
  146OSM   H18F16188   2.426   3.717   4.868  0.9380 -1.0741 -1.2674
  146OSM   H18G16189   2.262   3.797   4.847  0.5416 -0.3824  1.0923
  146OSM   H18H16190   2.323   3.675   4.735  2.6551 -0.3194  0.3794
  147OSM      N16191   4.968   6.050   1.978  0.3484 -0.0092  0.4856
  147OSM    C1516192   5.083   6.059   1.874  0.7246 -0.4959  0.3161
  147OSM   H15A16193   5.051   6.148   1.821 -1.6391 -1.6710 -0.3615
  147OSM   H15B16194   5.078   5.976   1.805  2.0367  0.5604 -1.1189
  147OSM   H15C16195   5.179   6.065   1.924  0.5496 -1.7926  0.8430
  147OSM    C1416196   4.838   6.061   1.907 -0.7104 -0.6810 -0.0577
  147OSM   H14A16197   4.832   6.150   1.846 -2.4257 -1.5564 -1.2618
  147OSM   H14B16198   4.749   6.082   1.965 -1.7052  0.7506 -1.9856
  147OSM   H14C16199   4.817   5.980   1.838  0.5164 -1.0251 -0.0347
  147OSM    C1316200   4.988   5.921   2.055 -0.3566 -0.1062 -0.1990
  147OSM   H13A16201   4.913   5.898   2.129 -1.0402 -2.4659 -1.5159
  147OSM   H13B16202   5.086   5.922   2.100 -0.3827 -1.2428 -0.1014
  147OSM   H13C16203   4.995   5.841   1.983  0.0428  0.5694 -0.9279
  147OSM    C1216204   4.990   6.170   2.072  0.3265  0.4564  0.4474
  147OSM   H12A16205   5.013   6.253   2.007 -0.0884 -0.6519 -1.1907
  147OSM   H12B16206   5.079   6.163   2.132  0.0876 -0.9425  0.6767
  147OSM    C1116207   4.881   6.191   2.179 -0.2205  0.6288  0.6352
  147OSM   H11A16208   4.923   6.267   2.248 -1.9231  2.4987 -0.3058
  147OSM   H11B16209   4.858   6.102   2.241  0.2488  1.5086  2.1215
  147OSM      P16210   4.619   6.194   2.147 -0.0074  0.2845  0.2241
  147OSM    O1316211   4.538   6.255   2.043  0.0557 -0.0835 -0.4676
  147OSM    O1416212   4.623   6.048   2.142 -0.1525 -0.4415 -0.6831
  147OSM    O1116213   4.581   6.234   2.296 -0.2807  0.6512  0.5278
  147OSM    O1216214   4.767   6.240   2.114  0.0736 -0.0823  0.9700
  147OSM    C1S16215   4.593   6.373   2.326 -0.5034  0.3503 -0.0213
  147OSM    H1S16216   4.498   6.424   2.296 -2.6144 -2.3874  1.5184
  147OSM    H1T16217   4.678   6.423   2.276 -1.4493  1.0955 -0.9350
  147OSM     NF16218   4.608   6.543   2.511 -0.5727  0.3257  0.7830
  147OSM    HNF16219   4.691   6.588   2.542 -0.9679  0.8210  1.1400
  147OSM    C2S16220   4.617   6.402   2.474 -0.0650  0.3266 -0.8218
  147OSM    H2S16221   4.535   6.350   2.527  1.5138 -1.2448  0.1603
  147OSM    C3S16222   4.750   6.325   2.519  0.4413  0.2275  0.1400
  147OSM    H3S16223   4.830   6.357   2.448 -0.1860 -0.2383 -0.8052
  147OSM     O316224   4.747   6.180   2.508  0.3899 -0.4900 -0.0861
  147OSM    HO316225   4.674   6.162   2.448  0.8545  2.9810 -1.9018
  147OSM    C4S16226   4.785   6.350   2.662 -0.6141  0.1617 -0.4640
  147OSM    H4S16227   4.879   6.404   2.680 -1.3415  2.5136 -2.9511
  147OSM    C5S16228   4.742   6.287   2.767  0.2453 -0.3005 -0.5909
  147OSM    H5S16229   4.652   6.223   2.768  1.3740 -1.9564 -1.5673
  147OSM    C6S16230   4.807   6.307   2.904 -0.2751  0.0921  0.0448
  147OSM    H6S16231   4.917   6.322   2.893  0.1038 -0.6523  2.3323
  147OSM    H6T16232   4.799   6.220   2.972  0.9295 -0.7068 -0.7855
  147OSM    C7S16233   4.764   6.442   2.963  0.5644 -0.5292 -0.1904
  147OSM    H7S16234   4.653   6.446   2.960  0.5305 -0.2340  0.9483
  147OSM    H7T16235   4.776   6.535   2.903 -0.0214  1.1575  2.1839
  147OSM    C8S16236   4.815   6.466   3.102  0.0285 -0.4047 -0.2450
  147OSM    H8S16237   4.778   6.567   3.131  0.6686  0.8184 -3.2923
  147OSM    H8T16238   4.926   6.470   3.093  0.0102  3.5223 -0.6446
  147OSM    C9S16239   4.774   6.366   3.208 -0.0014  0.3696 -0.4994
  147OSM    H9S16240   4.834   6.273   3.194  2.1093  1.4727  0.7506
  147OSM    H9T16241   4.664   6.354   3.202 -0.3571  1.2502  2.6400
  147OSM   C10S16242   4.794   6.432   3.343  1.2030  0.3993 -0.0848
  147OSM   H10S16243   4.751   6.533   3.325 -0.8241 -0.3423  0.4597
  147OSM   H10T16244   4.901   6.458   3.363  1.1668 -0.2822  1.0686
  147OSM   C11S16245   4.722   6.357   3.460 -0.8089 -0.3496  0.2014
  147OSM   H11S16246   4.771   6.258   3.461 -1.1017 -0.5189 -0.8283
  147OSM   H11T16247   4.614   6.339   3.440 -0.7296  0.8097 -1.4653
  147OSM   C12S16248   4.726   6.420   3.592  0.0505 -0.2371 -0.2799
  147OSM   H12S16249   4.674   6.519   3.587 -1.5839 -1.0948 -1.3491
  147OSM   H12T16250   4.831   6.428   3.627  0.3695  0.0159 -1.2447
  147OSM   C13S16251   4.666   6.337   3.704  0.2364 -0.4361 -0.3110
  147OSM   H13S16252   4.727   6.248   3.728  0.1755 -0.3766  0.0734
  147OSM   H13T16253   4.565   6.310   3.666 -1.5164  0.6190  3.1872
  147OSM   C14S16254   4.633   6.406   3.834 -0.8741 -0.0573  0.1886
  147OSM   H14S16255   4.564   6.337   3.887  0.7917 -1.8087  0.1873
  147OSM   H14T16256   4.577   6.501   3.820 -0.3307  0.0359 -1.7050
  147OSM   C15S16257   4.754   6.438   3.914 -0.1104 -0.5618 -0.1059
  147OSM   H15S16258   4.814   6.518   3.865 -1.6692  1.5927  1.3216
  147OSM   H15T16259   4.830   6.357   3.914 -0.5760 -1.0146 -0.6834
  147OSM   C16S16260   4.716   6.488   4.059 -0.3699  0.4388 -0.4731
  147OSM   H16S16261   4.620   6.543   4.057  0.9816  3.1983  2.1754
  147OSM   H16T16262   4.793   6.557   4.100  1.7880 -2.1946  0.2500
  147OSM   C17S16263   4.702   6.374   4.162 -0.2696  0.1267  0.7465
  147OSM   H17S16264   4.638   6.296   4.114 -0.1730  0.9865 -0.8254
  147OSM   H17T16265   4.640   6.400   4.250 -0.4709  1.2802  0.2819
  147OSM   C18S16266   4.834   6.306   4.204  0.1560 -0.1580 -0.0637
  147OSM   H18S16267   4.863   6.262   4.106 -0.1097 -0.3774 -0.0455
  147OSM   H18T16268   4.813   6.225   4.277 -2.3245  0.4870 -0.0014
  147OSM   H18U16269   4.911   6.377   4.242 -1.0289  1.2128 -0.1518
  147OSM    C1F16270   4.495   6.611   2.525 -0.3547 -0.8538  0.2686
  147OSM     OF16271   4.390   6.563   2.494  0.3966 -0.4200  0.5053
  147OSM    C2F16272   4.501   6.740   2.590 -0.2707 -0.1844  0.0466
  147OSM    H2F16273   4.542   6.826   2.533  0.1706 -1.1572 -1.1497
  147OSM    H2G16274   4.572   6.736   2.675 -2.1606  1.0813  1.7545
  147OSM    C3F16275   4.372   6.772   2.662  0.1785 -0.2894  0.8291
  147OSM    H3F16276   4.287   6.776   2.590  1.8222  0.2621 -1.1693
  147OSM    H3G16277   4.377   6.873   2.708  0.8043 -0.0607  0.2796
  147OSM    C4F16278   4.347   6.666   2.775 -0.2832 -0.6301  0.6104
  147OSM    H4F16279   4.338   6.570   2.719  0.6004 -0.1969 -0.3250
  147OSM    H4G16280   4.254   6.700   2.824  0.8418  2.0021  1.0600
  147OSM    C5F16281   4.451   6.670   2.888  0.5039  0.3724  0.6630
  147OSM    H5F16282   4.467   6.769   2.935  1.0212 -0.5182  2.4864
  147OSM    H5G16283   4.544   6.626   2.846 -0.3336 -0.0424 -0.8098
  147OSM    C6F16284   4.412   6.579   3.007  0.0351 -0.3618  0.3313
  147OSM    H6F16285   4.508   6.572   3.062  0.7399 -1.5322 -0.9602
  147OSM    H6G16286   4.375   6.483   2.964 -0.5881  0.1537 -0.3007
  147OSM    C7F16287   4.300   6.628   3.097  0.3918 -0.8263 -0.3271
  147OSM    H7F16288   4.283   6.545   3.169 -2.2518 -0.0371  0.0795
  147OSM    H7G16289   4.209   6.644   3.036 -0.0669  3.0698  1.1025
  147OSM    C8F16290   4.314   6.760   3.169 -0.6285  0.6112  0.6200
  147OSM    H8F16291   4.217   6.786   3.216 -1.6812 -0.4009 -0.9058
  147OSM    H8G16292   4.335   6.832   3.087  0.7943 -2.5059 -1.9556
  147OSM    C9F16293   4.440   6.760   3.258  0.2192 -0.0490  0.5833
  147OSM    H9F16294   4.532   6.802   3.215  0.3560 -1.7565 -0.8719
  147OSM   C10F16295   4.447   6.718   3.382  0.0695  0.4088 -0.0720
  147OSM   H10F16296   4.551   6.719   3.420  0.8392 -2.0501 -1.8118
  147OSM   C11F16297   4.343   6.653   3.464  0.5423 -0.7422 -0.7101
  147OSM   H11F16298   4.307   6.566   3.406 -1.0963  1.2324 -2.8778
  147OSM   H11G16299   4.257   6.721   3.482  1.4409  0.2829 -0.1533
  147OSM   C12F16300   4.378   6.607   3.602  0.4281 -0.2073 -0.0880
  147OSM   H12F16301   4.483   6.629   3.631 -0.3351  0.2603  2.5945
  147OSM   H12G16302   4.368   6.496   3.601 -2.7826 -0.0049 -0.2938
  147OSM   C13F16303   4.280   6.660   3.707  0.2890 -0.3575 -0.4997
  147OSM   H13F16304   4.178   6.635   3.670 -0.2725  3.6626 -2.1903
  147OSM   H13G16305   4.292   6.770   3.698 -0.5821 -0.3791 -2.5046
  147OSM   C14F16306   4.302   6.616   3.848 -0.3134 -0.7317  0.3092
  147OSM   H14F16307   4.409   6.632   3.873  0.1161 -1.3742 -1.0604
  147OSM   H14G16308   4.277   6.511   3.873 -0.5774 -0.6594  0.3561
  147OSM   C15F16309   4.224   6.692   3.951  0.1619  0.0589  0.3239
  147OSM   H15F16310   4.116   6.679   3.927  0.1482  0.8795 -0.1086
  147OSM   H15G16311   4.241   6.802   3.949 -1.2133  0.2922 -0.5409
  147OSM   C16F16312   4.243   6.623   4.094 -0.8719  0.0614 -0.3053
  147OSM   H16F16313   4.351   6.611   4.114 -0.8656 -0.7181 -0.7707
  147OSM   H16G16314   4.190   6.525   4.087 -0.7115 -0.2135  1.8604
  147OSM   C17F16315   4.160   6.691   4.211 -0.7955 -0.5639  0.5340
  147OSM   H17F16316   4.154   6.629   4.303 -1.0021  0.5869  1.3171
  147OSM   H17G16317   4.058   6.712   4.174  0.4904  0.9756 -2.4948
  147OSM   C18F16318   4.223   6.831   4.251  0.4263  0.9271  0.0907
  147OSM   H18F16319   4.162   6.868   4.336 -0.5722  0.2987 -0.3272
  147OSM   H18G16320   4.223   6.911   4.173 -0.8504  0.4929 -0.3792
  147OSM   H18H16321   4.322   6.811   4.296 -1.3956 -1.4881  3.4712
  148OSM      N16322   6.329   5.414   2.120  0.1675  0.5142 -0.5606
  148OSM    C1516323   6.300   5.285   2.053 -0.1485  0.8539 -0.4914
  148OSM   H15A16324   6.368   5.201   2.061 -2.5023 -1.1141  0.3386
  148OSM   H15B16325   6.291   5.309   1.948  0.0772  2.9480 -0.0789
  148OSM   H15C16326   6.199   5.257   2.077 -0.4177  0.4553 -2.0170
  148OSM    C1416327   6.460   5.465   2.072 -0.4741  0.0839 -0.2006
  148OSM   H14A16328   6.493   5.559   2.112 -0.2389  0.2163 -0.6891
  148OSM   H14B16329   6.462   5.464   1.964 -1.0614  0.4990 -0.2211
  148OSM   H14C16330   6.538   5.395   2.096  0.9656  0.7539 -2.5341
  148OSM    C1316331   6.220   5.514   2.089  0.1319  0.5153 -0.1015
  148OSM   H13A16332   6.127   5.493   2.139  0.5387 -0.2949  0.3373
  148OSM   H13B16333   6.211   5.524   1.982  2.3347 -2.1318 -0.6431
  148OSM   H13C16334   6.257   5.611   2.121 -0.0306 -0.0114  1.7747
  148OSM    C1216335   6.329   5.384   2.268  0.3744 -0.5493  0.5959
  148OSM   H12A16336   6.412   5.317   2.284  0.4321 -0.6031  0.0870
  148OSM   H12B16337   6.236   5.331   2.285  0.7966 -1.4480  0.2090
  148OSM    C1116338   6.356   5.505   2.363  0.1241 -0.2791  0.9292
  148OSM   H11A16339   6.428   5.574   2.314  0.3388  0.2379  1.9487
  148OSM   H11B16340   6.406   5.460   2.451 -0.6357 -0.7034  1.1512
  148OSM      P16341   6.196   5.710   2.393 -0.2102 -0.0368 -0.1655
  148OSM    O1316342   6.242   5.767   2.266 -0.0247 -0.0207  0.5508
  148OSM    O1416343   6.055   5.726   2.437  0.1940 -0.1218  0.5133
  148OSM    O1116344   6.292   5.758   2.511 -0.2670 -0.2944 -0.0369
  148OSM    O1216345   6.231   5.553   2.401 -0.0225 -0.6095  0.4898
  148OSM    C1S16346   6.319   5.692   2.635 -0.8975  0.0185  1.0094
  148OSM    H1S16347   6.421   5.646   2.639  0.1016  1.7384 -1.7242
  148OSM    H1T16348   6.250   5.607   2.652 -0.8521 -0.7199 -1.8839
  148OSM     NF16349   6.369   5.689   2.879  1.1523 -0.7786 -0.2466
  148OSM    HNF16350   6.293   5.667   2.939  0.0963  2.0573 -0.3740
  148OSM    C2S16351   6.331   5.778   2.764 -0.5240  0.5294 -0.4949
  148OSM    H2S16352   6.414   5.846   2.739  2.0493 -2.6150 -1.1855
  148OSM    C3S16353   6.195   5.862   2.778  1.1698 -1.0857  0.2301
  148OSM    H3S16354   6.112   5.788   2.779  0.3856 -0.2462 -0.8524
  148OSM     O316355   6.161   5.942   2.662 -0.2588  0.3778  0.2409
  148OSM    HO316356   6.210   5.898   2.592 -0.8359 -1.0081  0.6895
  148OSM    C4S16357   6.190   5.944   2.908 -0.0604  0.1564 -0.1110
  148OSM    H4S16358   6.130   5.903   2.990  0.3979 -0.8609 -0.2785
  148OSM    C5S16359   6.242   6.063   2.930 -0.4628 -0.5394  0.3033
  148OSM    H5S16360   6.294   6.106   2.843  0.5120 -1.8296  0.2013
  148OSM    C6S16361   6.235   6.143   3.057 -0.5606 -0.2077 -0.1534
  148OSM    H6S16362   6.151   6.215   3.053 -0.5414  0.0505  2.4653
  148OSM    H6T16363   6.329   6.202   3.063 -1.4910  1.2099  1.0174
  148OSM    C7S16364   6.218   6.068   3.190 -0.1177 -0.6793  1.0700
  148OSM    H7S16365   6.290   5.984   3.180  0.1189 -0.2687 -1.1915
  148OSM    H7T16366   6.112   6.035   3.182 -0.3943  0.3646  0.1267
  148OSM    C8S16367   6.240   6.151   3.320 -0.1006  1.1130  0.4099
  148OSM    H8S16368   6.207   6.254   3.297  0.6895  1.4963  0.9347
  148OSM    H8T16369   6.350   6.163   3.330 -0.1025  1.0051  0.5710
  148OSM    C9S16370   6.183   6.099   3.451  0.1248  0.1052  0.0967
  148OSM    H9S16371   6.207   5.991   3.454 -1.9645 -0.4662 -1.5070
  148OSM    H9T16372   6.073   6.106   3.446  0.2386  2.2681 -0.2569
  148OSM   C10S16373   6.229   6.178   3.582  0.9347  0.1419 -0.7701
  148OSM   H10S16374   6.210   6.284   3.554 -4.6696 -0.5486 -0.7338
  148OSM   H10T16375   6.339   6.165   3.590  0.7836 -0.5504  0.3775
  148OSM   C11S16376   6.159   6.124   3.708  0.7201  0.0058  0.1345
  148OSM   H11S16377   6.206   6.026   3.725  2.4289  1.2678  3.6673
  148OSM   H11T16378   6.049   6.120   3.691  0.2989  2.3663  1.7466
  148OSM   C12S16379   6.191   6.199   3.835  0.7897 -0.5092  1.3748
  148OSM   H12S16380   6.161   6.306   3.828 -0.2691 -0.7388  2.1129
  148OSM   H12T16381   6.299   6.190   3.859  0.6582  0.2924  2.3455
  148OSM   C13S16382   6.118   6.145   3.963  0.0844 -0.3270  0.1177
  148OSM   H13S16383   6.140   6.038   3.980 -0.2200 -0.5034 -0.5726
  148OSM   H13T16384   6.008   6.148   3.950  0.0195  1.6577  0.7248
  148OSM   C14S16385   6.152   6.214   4.099 -0.5830 -0.2664 -1.2538
  148OSM   H14S16386   6.095   6.308   4.117  0.6655 -0.0891  2.8076
  148OSM   H14T16387   6.258   6.246   4.109  0.1222 -2.7015  0.1348
  148OSM   C15S16388   6.114   6.131   4.225  0.2844 -0.0553 -0.4821
  148OSM   H15S16389   6.157   6.029   4.227 -0.3664 -0.4397  3.8360
  148OSM   H15T16390   6.007   6.105   4.213  0.1111 -0.5351  1.6517
  148OSM   C16S16391   6.151   6.212   4.360  0.1932  0.6981  1.2814
  148OSM   H16S16392   6.079   6.293   4.383  1.0062  0.8488  3.5223
  148OSM   H16T16393   6.257   6.246   4.357  0.8407 -1.0979 -2.9357
  148OSM   C17S16394   6.147   6.103   4.474 -0.2358  0.9213  0.6748
  148OSM   H17S16395   6.208   6.014   4.447 -1.7504 -0.3219  1.2133
  148OSM   H17T16396   6.044   6.062   4.478 -0.2895  0.7453 -1.4604
  148OSM   C18S16397   6.200   6.155   4.611 -0.4768  0.3115  0.9950
  148OSM   H18S16398   6.159   6.257   4.629 -1.1235 -0.2461  3.0636
  148OSM   H18T16399   6.310   6.152   4.602 -0.5308 -2.1659  0.5234
  148OSM   H18U16400   6.171   6.095   4.700  0.4170  0.7539  1.6017
  148OSM    C1F16401   6.483   5.628   2.882 -0.4932  0.6439  0.0039
  148OSM     OF16402   6.569   5.669   2.805  0.1722 -0.6104  0.0513
  148OSM    C2F16403   6.507   5.511   2.966  0.0206 -0.1111 -0.0028
  148OSM    H2F16404   6.575   5.451   2.902  0.8355  0.2132  0.5396
  148OSM    H2G16405   6.409   5.461   2.985 -0.9587  1.7442  0.1042
  148OSM    C3F16406   6.580   5.558   3.096  0.6217  0.1396  0.3194
  148OSM    H3F16407   6.662   5.630   3.073  0.4186  0.6711  1.2161
  148OSM    H3G16408   6.617   5.469   3.151 -3.4626 -0.0571  3.1633
  148OSM    C4F16409   6.492   5.649   3.191  0.4801  0.2585  0.0693
  148OSM    H4F16410   6.399   5.590   3.208  0.7689  0.2426  1.8112
  148OSM    H4G16411   6.465   5.752   3.157 -1.2589  0.6116  2.2578
  148OSM    C5F16412   6.559   5.665   3.330 -0.0328  0.1416  0.4927
  148OSM    H5F16413   6.630   5.750   3.323 -0.9967  0.8450 -1.9308
  148OSM    H5G16414   6.617   5.574   3.358 -0.5464  0.3857  2.4633
  148OSM    C6F16415   6.467   5.697   3.442 -0.0883 -0.1237  0.3017
  148OSM    H6F16416   6.403   5.611   3.469  0.0678 -1.1996 -2.4085
  148OSM    H6G16417   6.408   5.787   3.415  2.6618  1.0607 -2.5160
  148OSM    C7F16418   6.550   5.727   3.567  0.7606 -0.3790 -0.4301
  148OSM    H7F16419   6.640   5.789   3.551  0.7682 -0.3132 -0.1318
  148OSM    H7G16420   6.576   5.629   3.613 -2.1204 -1.0928 -0.0674
  148OSM    C8F16421   6.453   5.786   3.677 -0.3539 -0.4079 -0.0505
  148OSM    H8F16422   6.403   5.871   3.627 -1.1060 -0.8202 -0.0187
  148OSM    H8G16423   6.513   5.833   3.757  0.1801 -0.5646 -0.3558
  148OSM    C9F16424   6.349   5.698   3.744 -0.4961  0.4144 -0.3748
  148OSM    H9F16425   6.271   5.664   3.675  0.4851  0.1522 -1.4008
  148OSM   C10F16426   6.359   5.655   3.876  0.5635  0.1377 -0.0998
  148OSM   H10F16427   6.275   5.594   3.914  1.2570  0.6145  2.3711
  148OSM   C11F16428   6.458   5.683   3.980 -0.2922 -0.8296 -0.0893
  148OSM   H11F16429   6.556   5.722   3.946  0.5010 -1.2472  1.6423
  148OSM   H11G16430   6.478   5.593   4.041 -1.8057 -1.0809  0.0762
  148OSM   C12F16431   6.398   5.795   4.067  0.5302  0.6760  0.0232
  148OSM   H12F16432   6.304   5.757   4.112 -0.5784  0.2400 -2.4539
  148OSM   H12G16433   6.369   5.882   4.004 -1.5565 -0.3671 -0.5636
  148OSM   C13F16434   6.498   5.846   4.163 -0.6614 -0.9008 -0.1616
  148OSM   H13F16435   6.597   5.878   4.125 -0.8016 -2.2255 -1.7910
  148OSM   H13G16436   6.521   5.768   4.239  0.3931  1.5498  2.1901
  148OSM   C14F16437   6.450   5.958   4.255 -0.3052  0.7574 -0.0886
  148OSM   H14F16438   6.390   5.932   4.345  0.3696 -0.5308  0.0146
  148OSM   H14G16439   6.379   6.023   4.201 -1.9004  1.0172  2.1775
  148OSM   C15F16440   6.553   6.061   4.311  0.1168 -0.3041  0.4112
  148OSM   H15F16441   6.489   6.129   4.371  0.6750  0.6774 -0.0873
  148OSM   H15G16442   6.598   6.116   4.225  1.8110 -0.5397  1.1060
  148OSM   C16F16443   6.663   5.994   4.400 -0.4691  0.4289 -0.7156
  148OSM   H16F16444   6.744   5.947   4.341 -0.5221  0.7436 -1.0389
  148OSM   H16G16445   6.619   5.931   4.480  2.2835 -0.3768  0.2982
  148OSM   C17F16446   6.742   6.100   4.490 -0.1607  0.1770 -0.6545
  148OSM   H17F16447   6.677   6.132   4.574  2.6186 -0.2698  1.8478
  148OSM   H17G16448   6.777   6.190   4.434 -0.0150 -0.4491 -1.5955
  148OSM   C18F16449   6.863   6.038   4.563 -0.2306 -0.0855 -0.3631
  148OSM   H18F16450   6.850   5.942   4.617  0.9753 -1.0155 -1.6667
  148OSM   H18G16451   6.906   6.120   4.625  0.5628  0.5118 -1.6616
  148OSM   H18H16452   6.950   6.038   4.494  0.9690  0.5242  1.1015
  149OSM      N16453   4.939   0.028   1.969  0.3179 -0.3498 -0.4060
  149OSM    C1516454   4.809   0.090   1.916  0.5098 -0.1926 -0.6061
  149OSM   H15A16455   4.785   0.078   1.812 -3.0852  1.1074 -0.0693
  149OSM   H15B16456   4.804   0.194   1.947  0.3347 -0.5794  0.7154
  149OSM   H15C16457   4.730   0.047   1.976 -0.1542  1.5148 -0.1753
  149OSM    C1416458   4.939  -0.111   1.918  0.0083  0.0530 -0.0246
  149OSM   H14A16459   4.979  -0.113   1.818 -1.9892  1.3931 -0.9239
  149OSM   H14B16460   4.840  -0.152   1.928 -0.1935  0.7640  1.1429
  149OSM   H14C16461   5.009  -0.169   1.976  0.7785  0.4437 -0.5505
  149OSM    C1316462   5.042   0.117   1.920  0.0413 -0.1607 -0.2311
  149OSM   H13A16463   5.025   0.218   1.955 -0.9580 -0.4224  0.0625
  149OSM   H13B16464   5.051   0.120   1.813  2.0216  0.9072 -0.0849
  149OSM   H13C16465   5.138   0.080   1.954 -0.2999 -3.7496 -2.7046
  149OSM    C1216466   4.940   0.039   2.118  0.3381 -0.8409 -0.9695
  149OSM   H12A16467   4.872  -0.036   2.156  1.0101 -1.2379 -0.5238
  149OSM   H12B16468   4.913   0.139   2.148  0.2659 -2.0545  3.9660
  149OSM    C1116469   5.077   0.007   2.189 -0.4801 -0.0350 -0.1359
  149OSM   H11A16470   5.060   0.053   2.289  2.3142  0.8149  0.0335
  149OSM   H11B16471   5.153   0.067   2.136 -0.0607 -2.9430 -3.1327
  149OSM      P16472   5.027  -0.243   2.252  0.0807  0.0455 -0.5621
  149OSM    O1316473   4.881  -0.225   2.227  0.1992 -0.0620  0.3309
  149OSM    O1416474   5.095  -0.370   2.207 -0.0078  0.0100  0.3729
  149OSM    O1116475   5.050  -0.219   2.410 -0.1171  0.2344  0.4829
  149OSM    O1216476   5.105  -0.123   2.187 -0.5615 -0.0111 -0.4203
  149OSM    C1S16477   5.183  -0.195   2.457 -0.1151 -0.1243  0.3170
  149OSM    H1S16478   5.199  -0.085   2.457  1.7047 -0.3687 -0.3603
  149OSM    H1T16479   5.265  -0.245   2.402 -0.4571 -1.0178  0.5997
  149OSM     NF16480   5.322  -0.178   2.654  0.5520  0.3639  0.0381
  149OSM    HNF16481   5.399  -0.241   2.661  0.6188  0.3634 -0.6327
  149OSM    C2S16482   5.204  -0.247   2.603  0.2560 -1.0552 -1.0892
  149OSM    H2S16483   5.115  -0.219   2.663  0.4480 -1.6797 -0.4942
  149OSM    C3S16484   5.213  -0.407   2.607 -0.0784 -0.6837  0.5917
  149OSM    H3S16485   5.305  -0.440   2.553 -0.8444 -0.7548 -0.6909
  149OSM     O316486   5.103  -0.468   2.537  0.2033  0.2998  0.7833
  149OSM    HO316487   5.055  -0.391   2.507 -1.9490 -0.2704  2.4887
  149OSM    C4S16488   5.213  -0.456   2.744  0.1266 -0.1836 -0.6678
  149OSM    H4S16489   5.119  -0.437   2.799  0.0855 -0.2446 -0.7163
  149OSM    C5S16490   5.317  -0.507   2.817 -0.3841 -0.5598 -0.4467
  149OSM    H5S16491   5.416  -0.526   2.772  1.5379  1.2628  2.5950
  149OSM    C6S16492   5.298  -0.556   2.960  0.4517 -0.3089 -0.1136
  149OSM    H6S16493   5.365  -0.492   3.021  0.1977 -0.7614  0.6609
  149OSM    H6T16494   5.340  -0.657   2.980  0.6003 -0.0219  1.1525
  149OSM    C7S16495   5.158  -0.559   3.020 -0.5734  0.1741 -0.6655
  149OSM    H7S16496   5.097  -0.627   2.957 -0.9325 -0.1619  0.0310
  149OSM    H7T16497   5.109  -0.459   3.025  1.2637  1.0450  1.3307
  149OSM    C8S16498   5.144  -0.620   3.157  0.0457  0.4426  0.2766
  149OSM    H8S16499   5.206  -0.712   3.156  2.0099  1.6303 -2.6983
  149OSM    H8T16500   5.038  -0.647   3.173 -0.1341  0.9917  0.0270
  149OSM    C9S16501   5.173  -0.525   3.275  1.1812  0.8333  0.8201
  149OSM    H9S16502   5.108  -0.435   3.267 -0.3895 -0.2583  1.0017
  149OSM    H9T16503   5.280  -0.495   3.285  0.9050  3.1180 -1.8518
  149OSM   C10S16504   5.130  -0.585   3.413 -0.2957  0.0321  0.7779
  149OSM   H10S16505   5.172  -0.687   3.423  1.9786  0.8847  0.5003
  149OSM   H10T16506   5.019  -0.597   3.417 -0.4372  0.7488 -0.5385
  149OSM   C11S16507   5.172  -0.496   3.533 -0.5258 -0.3050  0.4419
  149OSM   H11S16508   5.127  -0.395   3.523  1.2168  0.5256  0.6714
  149OSM   H11T16509   5.282  -0.481   3.535 -0.5804  0.0536  0.9113
  149OSM   C12S16510   5.131  -0.549   3.674 -0.1342  0.3125 -0.4682
  149OSM   H12S16511   5.186  -0.645   3.681  0.2410  0.6336  2.6800
  149OSM   H12T16512   5.021  -0.566   3.669  0.0212 -0.9339 -0.0638
  149OSM   C13S16513   5.153  -0.454   3.788  0.7523  0.3534 -0.5564
  149OSM   H13S16514   5.073  -0.377   3.795  1.6800  1.3356 -0.6087
  149OSM   H13T16515   5.250  -0.401   3.774  0.1105  1.5501 -0.6221
  149OSM   C14S16516   5.150  -0.530   3.926 -0.0865  0.1349  0.6010
  149OSM   H14S16517   5.250  -0.580   3.922 -0.7893 -1.2816  0.0453
  149OSM   H14T16518   5.070  -0.606   3.933  0.1738 -0.1207  0.8071
  149OSM   C15S16519   5.143  -0.437   4.052 -0.3488  0.1044  0.5907
  149OSM   H15S16520   5.038  -0.402   4.060 -0.2586  0.6582 -0.4303
  149OSM   H15T16521   5.203  -0.345   4.033  0.5875 -0.3090  1.4657
  149OSM   C16S16522   5.181  -0.508   4.184  0.1399 -0.3482 -0.1818
  149OSM   H16S16523   5.282  -0.550   4.165  1.0130  1.4237  0.2786
  149OSM   H16T16524   5.111  -0.591   4.205 -0.2903 -0.6968 -2.7532
  149OSM   C17S16525   5.193  -0.416   4.309 -0.3590  0.5936  0.2803
  149OSM   H17S16526   5.254  -0.460   4.390  0.2946  2.2068  0.7015
  149OSM   H17T16527   5.090  -0.397   4.347  0.6672  0.2188  3.5227
  149OSM   C18S16528   5.250  -0.279   4.273  0.0393  0.4205  0.1072
  149OSM   H18S16529   5.351  -0.276   4.227 -1.1053  1.6264 -2.4971
  149OSM   H18T16530   5.242  -0.209   4.359 -1.4746  1.9083 -1.1975
  149OSM   H18U16531   5.180  -0.235   4.199  0.5964 -0.4423 -0.9687
  149OSM    C1F16532   5.342  -0.045   2.681  0.3576  0.4960  0.5168
  149OSM     OF16533   5.265   0.044   2.655 -0.0436  0.4522 -0.1490
  149OSM    C2F16534   5.472  -0.016   2.747  0.3577 -0.3139  0.4462
  149OSM    H2F16535   5.476   0.094   2.760  1.4866 -0.3017  0.0764
  149OSM    H2G16536   5.554  -0.039   2.675 -0.5312 -0.9383 -0.4049
  149OSM    C3F16537   5.495  -0.080   2.889  0.7350 -0.0758 -0.7194
  149OSM    H3F16538   5.482  -0.189   2.872  0.2785 -0.1089 -0.1585
  149OSM    H3G16539   5.423  -0.046   2.967  1.3334  1.9025 -0.9799
  149OSM    C4F16540   5.629  -0.048   2.957 -0.0367  0.4345  0.7985
  149OSM    H4F16541   5.635   0.049   3.011  1.6191  0.9908 -0.3132
  149OSM    H4G16542   5.703  -0.054   2.875 -0.8701 -0.2866  0.0719
  149OSM    C5F16543   5.652  -0.161   3.058  0.2527  0.2799  0.7257
  149OSM    H5F16544   5.757  -0.149   3.092  0.9633 -2.3330 -0.3481
  149OSM    H5G16545   5.635  -0.260   3.010 -1.6071  0.0635  1.7398
  149OSM    C6F16546   5.564  -0.147   3.178 -0.6371  0.2190 -0.9117
  149OSM    H6F16547   5.544  -0.041   3.205 -2.3486  0.2579 -2.2033
  149OSM    H6G16548   5.631  -0.183   3.260 -3.0960 -0.3637  0.9763
  149OSM    C7F16549   5.438  -0.232   3.173 -0.1237 -0.4722  0.5283
  149OSM    H7F16550   5.474  -0.328   3.132 -3.1283 -0.3729 -2.8063
  149OSM    H7G16551   5.359  -0.204   3.100  0.5030 -2.7521 -1.1408
  149OSM    C8F16552   5.366  -0.260   3.310 -0.2854 -0.1691  0.3523
  149OSM    H8F16553   5.415  -0.349   3.355  1.3517  0.7000  0.3605
  149OSM    H8G16554   5.261  -0.293   3.297 -0.6212  0.0911  2.1590
  149OSM    C9F16555   5.367  -0.135   3.394 -0.3167  0.2530 -0.3126
  149OSM    H9F16556   5.317  -0.046   3.354 -0.5643  1.2266  1.9901
  149OSM   C10F16557   5.410  -0.114   3.522 -0.3568  1.2102 -0.0661
  149OSM   H10F16558   5.419  -0.009   3.554  1.0568  0.2668  3.0380
  149OSM   C11F16559   5.480  -0.216   3.612  0.2426 -0.1192 -0.4171
  149OSM   H11F16560   5.588  -0.198   3.600  0.1126  1.0910  0.1352
  149OSM   H11G16561   5.451  -0.319   3.580  0.3122 -0.2343 -0.1200
  149OSM   C12F16562   5.441  -0.216   3.766 -0.2250 -0.3996  0.3240
  149OSM   H12F16563   5.460  -0.318   3.806  1.3299 -1.2307 -2.2821
  149OSM   H12G16564   5.334  -0.197   3.789 -0.2889 -2.1078  1.6196
  149OSM   C13F16565   5.532  -0.112   3.843  0.8317  0.0631 -0.0862
  149OSM   H13F16566   5.498  -0.013   3.806  1.3406  0.1568 -0.3016
  149OSM   H13G16567   5.639  -0.137   3.833  0.5647 -1.7107  1.0261
  149OSM   C14F16568   5.510  -0.128   3.989 -0.8888  0.2874  0.1712
  149OSM   H14F16569   5.526  -0.236   4.012  3.5231  0.7917  0.3026
  149OSM   H14G16570   5.405  -0.098   4.010 -0.5241  3.0373 -1.4791
  149OSM   C15F16571   5.615  -0.041   4.062 -0.1486 -0.0943  0.0663
  149OSM   H15F16572   5.610   0.064   4.026  0.8379  0.0837  0.4396
  149OSM   H15G16573   5.717  -0.072   4.033  0.7121  1.2495  1.4793
  149OSM   C16F16574   5.598  -0.039   4.212  0.0665 -0.5854 -0.1796
  149OSM   H16F16575   5.490  -0.021   4.229  0.3898  1.5919 -0.1273
  149OSM   H16G16576   5.649   0.053   4.246  1.8216 -0.8232 -1.9909
  149OSM   C17F16577   5.669  -0.151   4.287  0.2550  0.5403 -0.8372
  149OSM   H17F16578   5.780  -0.144   4.286  0.3313 -0.4990 -1.2562
  149OSM   H17G16579   5.659  -0.256   4.252  0.6385 -0.2818  1.3703
  149OSM   C18F16580   5.625  -0.158   4.438 -0.2327 -0.7076  0.1344
  149OSM   H18F16581   5.635  -0.053   4.474  0.0931 -0.7774  0.2500
  149OSM   H18G16582   5.677  -0.232   4.503 -0.8356 -1.2699 -0.0130
  149OSM   H18H16583   5.516  -0.174   4.449 -0.6506 -0.1452 -2.5512
  150OSM      N16584   1.217   1.633   1.952  0.2041 -0.9758 -0.4788
  150OSM    C1516585   1.309   1.674   1.837  0.1923 -0.0364 -0.4080
  150OSM   H15A16586   1.371   1.759   1.862  1.3537 -1.6254  2.6115
  150OSM   H15B16587   1.254   1.701   1.749  2.5578 -0.5046 -2.1316
  150OSM   H15C16588   1.367   1.585   1.820 -2.7858 -1.9056 -1.5518
  150OSM    C1416589   1.283   1.589   2.071  0.2460 -0.1287 -0.6109
  150OSM   H14A16590   1.329   1.492   2.057  3.3797  0.9248  1.3236
  150OSM   H14B16591   1.209   1.578   2.150  1.2373 -0.5060  0.2848
  150OSM   H14C16592   1.362   1.652   2.108  0.2232 -0.3698 -0.1367
  150OSM    C1316593   1.150   1.757   1.999  0.0455 -0.9908 -0.4664
  150OSM   H13A16594   1.102   1.820   1.925  0.3574  1.4325  1.2668
  150OSM   H13B16595   1.226   1.813   2.052 -0.6682 -3.2132  3.2604
  150OSM   H13C16596   1.078   1.729   2.074  1.8823  1.6287  2.5402
  150OSM    C1216597   1.108   1.533   1.908 -0.1755 -0.0090 -0.7311
  150OSM   H12A16598   1.051   1.580   1.830  0.1669  0.3292 -0.7843
  150OSM   H12B16599   1.039   1.499   1.984 -0.5702 -3.5252 -2.4453
  150OSM    C1116600   1.164   1.405   1.844 -0.3879 -0.3236  0.3807
  150OSM   H11A16601   1.252   1.429   1.781  0.2143 -1.2197  0.8649
  150OSM   H11B16602   1.081   1.367   1.780 -1.4321 -1.4952  2.3242
  150OSM      P16603   1.296   1.198   1.917 -0.2197 -0.0549  0.2123
  150OSM    O1316604   1.234   1.084   1.850 -0.9760 -0.0212  0.5076
  150OSM    O1416605   1.422   1.258   1.865  0.2487 -0.1376  0.1996
  150OSM    O1116606   1.321   1.151   2.058 -0.6209  1.1439  0.5179
  150OSM    O1216607   1.189   1.311   1.947 -0.0135 -0.4182  0.4509
  150OSM    C1S16608   1.433   1.186   2.139 -0.0116  0.3808  1.2061
  150OSM    H1S16609   1.435   1.296   2.134 -0.7706  0.3501 -2.0801
  150OSM    H1T16610   1.529   1.147   2.098  0.2345 -0.3588  2.4327
  150OSM     NF16611   1.517   1.203   2.371 -0.1774 -0.3539 -0.0473
  150OSM    HNF16612   1.583   1.138   2.408  0.4072 -1.6007 -2.9944
  150OSM    C2S16613   1.413   1.148   2.286  0.9738  0.1008 -0.5141
  150OSM    H2S16614   1.317   1.190   2.322  1.8480  1.3157  0.4741
  150OSM    C3S16615   1.403   0.993   2.300  0.4303  0.4530 -0.5299
  150OSM    H3S16616   1.498   0.950   2.262  0.3477 -1.3477  1.1823
  150OSM     O316617   1.299   0.926   2.222 -0.5805 -0.1585  0.9798
  150OSM    HO316618   1.276   0.994   2.159 -1.0457 -0.1717  1.1265
  150OSM    C4S16619   1.387   0.956   2.444 -0.1580 -0.9103 -0.1254
  150OSM    H4S16620   1.303   1.008   2.492 -0.6457 -0.3205 -1.5520
  150OSM    C5S16621   1.462   0.872   2.516 -0.8141 -0.2634 -0.1050
  150OSM    H5S16622   1.548   0.830   2.463  1.1920  1.2095  1.7980
  150OSM    C6S16623   1.443   0.862   2.666 -0.0109  0.1314 -0.3404
  150OSM    H6S16624   1.542   0.870   2.717  0.7301 -1.2126 -1.5078
  150OSM    H6T16625   1.407   0.760   2.693  0.2373  0.3041  0.6931
  150OSM    C7S16626   1.354   0.968   2.732 -0.1030  0.4060 -0.1668
  150OSM    H7S16627   1.258   0.966   2.677  0.1535 -0.4873 -0.6126
  150OSM    H7T16628   1.403   1.067   2.724 -1.0174  0.7615 -1.6301
  150OSM    C8S16629   1.324   0.922   2.880 -0.0963  0.1772  0.2355
  150OSM    H8S16630   1.409   0.874   2.933  1.9327  3.7215  0.4650
  150OSM    H8T16631   1.244   0.846   2.864  0.4551 -0.8445  2.0680
  150OSM    C9S16632   1.270   1.043   2.961 -0.1489  0.2866 -0.5343
  150OSM    H9S16633   1.195   1.103   2.905 -2.3124 -0.3090  1.5485
  150OSM    H9T16634   1.357   1.110   2.976  0.0935  0.3028 -1.9175
  150OSM   C10S16635   1.197   1.000   3.088 -0.0832  0.0103  0.0796
  150OSM   H10S16636   1.258   0.912   3.119  2.0831  1.2244 -0.5029
  150OSM   H10T16637   1.088   0.980   3.079  0.4414 -2.8315 -1.4335
  150OSM   C11S16638   1.200   1.109   3.196  0.7034 -0.4533  0.3001
  150OSM   H11S16639   1.128   1.087   3.278  0.4642 -1.1406 -0.0862
  150OSM   H11T16640   1.156   1.202   3.152 -0.5604 -1.2078 -0.0836
  150OSM   C12S16641   1.338   1.138   3.259 -0.1148  0.6744 -0.0623
  150OSM   H12S16642   1.344   1.236   3.311  3.3051 -0.4321  2.0043
  150OSM   H12T16643   1.420   1.143   3.184 -0.2738  1.1425 -0.2089
  150OSM   C13S16644   1.390   1.024   3.354 -0.5479 -0.0270  0.0102
  150OSM   H13S16645   1.497   1.041   3.377 -0.3165  1.0071 -1.6652
  150OSM   H13T16646   1.378   0.932   3.292  2.1516  0.4979 -1.4451
  150OSM   C14S16647   1.322   1.017   3.493  0.2885  0.7896  0.2579
  150OSM   H14S16648   1.220   0.975   3.481  0.6061  0.5515 -2.2023
  150OSM   H14T16649   1.317   1.121   3.532  0.1463  0.9125 -0.0833
  150OSM   C15S16650   1.388   0.920   3.590 -0.1834 -0.4084 -0.9061
  150OSM   H15S16651   1.493   0.947   3.616 -0.8633  1.3654  0.2089
  150OSM   H15T16652   1.402   0.826   3.532 -0.4718 -1.4919  0.7294
  150OSM   C16S16653   1.313   0.904   3.725  0.6811  0.2449 -0.3138
  150OSM   H16S16654   1.207   0.924   3.696  0.4044  1.2558  1.3092
  150OSM   H16T16655   1.342   0.974   3.805 -1.7968  3.0784 -1.6857
  150OSM   C17S16656   1.310   0.762   3.771 -0.2366  0.0806 -0.0279
  150OSM   H17S16657   1.272   0.695   3.691  0.8983  0.1664 -0.6474
  150OSM   H17T16658   1.240   0.745   3.856  0.5102 -1.8882  0.2316
  150OSM   C18S16659   1.446   0.705   3.810  0.1153  0.0011  0.2455
  150OSM   H18S16660   1.485   0.662   3.715  0.0183  0.5758 -0.0581
  150OSM   H18T16661   1.447   0.638   3.899  1.0750  0.4031  0.5541
  150OSM   H18U16662   1.511   0.788   3.845  0.0830  0.5537 -0.9710
  150OSM    C1F16663   1.520   1.337   2.398  1.1742 -0.4928 -0.3169
  150OSM     OF16664   1.429   1.419   2.377 -0.3820  0.1277 -0.4179
  150OSM    C2F16665   1.648   1.400   2.448  0.7306 -0.5072 -0.2755
  150OSM    H2F16666   1.689   1.454   2.360 -0.2391 -0.8569 -0.9528
  150OSM    H2G16667   1.720   1.321   2.480 -0.0305 -1.2221 -0.3151
  150OSM    C3F16668   1.608   1.483   2.577 -0.3332  0.4965  0.8156
  150OSM    H3F16669   1.534   1.563   2.561 -0.7516  0.1127  0.8205
  150OSM    H3G16670   1.700   1.522   2.627  0.4505  0.1215 -0.2971
  150OSM    C4F16671   1.534   1.398   2.690 -0.4514  0.4863  1.3748
  150OSM    H4F16672   1.599   1.323   2.739 -2.5907 -2.7599 -0.3773
  150OSM    H4G16673   1.454   1.331   2.651 -0.3868  0.5832  1.0785
  150OSM    C5F16674   1.468   1.479   2.796  0.2221 -0.4725  0.0842
  150OSM    H5F16675   1.389   1.544   2.752 -1.4289 -1.5338  1.3331
  150OSM    H5G16676   1.544   1.547   2.839 -1.3663  0.9095  0.8228
  150OSM    C6F16677   1.388   1.409   2.907  0.7318 -0.5934 -1.5886
  150OSM    H6F16678   1.441   1.323   2.953  1.2262  0.5137 -0.0055
  150OSM    H6G16679   1.299   1.356   2.868  0.0135 -2.5307  2.1982
  150OSM    C7F16680   1.357   1.493   3.037  0.3676  0.2514  0.1888
  150OSM    H7F16681   1.255   1.481   3.079 -0.7396  2.5292 -1.6134
  150OSM    H7G16682   1.373   1.597   3.002  1.3968 -0.5270 -1.8256
  150OSM    C8F16683   1.462   1.467   3.149  0.6199  0.1090  0.4541
  150OSM    H8F16684   1.560   1.465   3.097  0.3489  2.5030 -0.2667
  150OSM    H8G16685   1.435   1.374   3.204 -0.1998 -0.0475 -0.1928
  150OSM    C9F16686   1.455   1.578   3.244  0.3966  0.0636  0.4392
  150OSM    H9F16687   1.355   1.610   3.274 -0.4570 -1.8396 -0.1916
  150OSM   C10F16688   1.560   1.655   3.278 -0.5736  0.0283 -0.1867
  150OSM   H10F16689   1.540   1.734   3.352 -1.2526 -0.4724  0.1793
  150OSM   C11F16690   1.708   1.639   3.238  0.1283 -0.0619 -0.2646
  150OSM   H11F16691   1.730   1.555   3.168  2.4163 -0.1111  0.4180
  150OSM   H11G16692   1.766   1.599   3.324  0.6762 -1.5255 -1.2598
  150OSM   C12F16693   1.773   1.775   3.194  0.3339 -0.3869 -1.3994
  150OSM   H12F16694   1.877   1.771   3.234  0.0562 -0.6754 -0.6759
  150OSM   H12G16695   1.723   1.858   3.248  1.1487  0.8548 -2.4891
  150OSM   C13F16696   1.778   1.784   3.046  0.5162 -0.7439  0.3814
  150OSM   H13F16697   1.781   1.896   3.045 -0.3126 -0.7188 -0.5998
  150OSM   H13G16698   1.687   1.746   2.995  1.2998 -1.7674 -0.2795
  150OSM   C14F16699   1.911   1.737   2.993 -0.5874 -0.0251 -0.4153
  150OSM   H14F16700   1.927   1.627   3.001 -1.1349 -0.2699 -2.1886
  150OSM   H14G16701   1.988   1.785   3.057  0.8747 -1.2697 -1.1626
  150OSM   C15F16702   1.931   1.755   2.834 -0.2247 -0.0905 -0.4010
  150OSM   H15F16703   1.857   1.695   2.777  0.6456 -0.9944 -0.6090
  150OSM   H15G16704   2.025   1.705   2.802 -1.0221 -0.8950 -1.5920
  150OSM   C16F16705   1.934   1.902   2.784  0.0707  0.5992 -0.2418
  150OSM   H16F16706   2.021   1.949   2.836  2.1755 -2.9854 -0.1759
  150OSM   H16G16707   1.847   1.962   2.816  0.7093  0.0714  2.7565
  150OSM   C17F16708   1.967   1.896   2.634  0.2399 -0.2919  0.3814
  150OSM   H17F16709   1.879   1.858   2.578  1.5786 -0.5539 -1.6582
  150OSM   H17G16710   2.057   1.832   2.621  0.6247  0.2134  0.4969
  150OSM   C18F16711   2.019   2.033   2.585 -0.1556 -0.1063  0.2474
  150OSM   H18F16712   2.128   2.052   2.594  0.2903 -2.8860  1.8229
  150OSM   H18G16713   1.960   2.121   2.616  0.3221 -0.0727  1.0996
  150OSM   H18H16714   2.012   2.033   2.474  1.3693  4.3847 -0.0693
  151OSM      N16715   2.301   6.446   2.264 -0.1718 -0.2279  0.9386
  151OSM    C1516716   2.368   6.353   2.359  0.8167 -0.0969 -0.1473
  151OSM   H15A16717   2.442   6.299   2.303  0.7411  0.4988 -0.8295
  151OSM   H15B16718   2.295   6.279   2.390  0.3113 -0.4483 -2.0445
  151OSM   H15C16719   2.407   6.408   2.444  1.3218 -1.5081  0.5595
  151OSM    C1416720   2.404   6.480   2.165 -0.1384  0.1600  0.4179
  151OSM   H14A16721   2.488   6.510   2.226 -2.4817 -0.6668  4.3902
  151OSM   H14B16722   2.367   6.556   2.098  1.5743 -1.5038 -2.6761
  151OSM   H14C16723   2.422   6.394   2.102 -0.5019  1.0713 -0.9831
  151OSM    C1316724   2.196   6.365   2.197 -0.2234  0.2257 -1.0682
  151OSM   H13A16725   2.150   6.431   2.124  2.1557  4.4892  0.9043
  151OSM   H13B16726   2.117   6.340   2.265  0.5418  0.4502 -0.0809
  151OSM   H13C16727   2.231   6.275   2.149 -2.5942 -1.8456  0.8174
  151OSM    C1216728   2.243   6.569   2.326  0.5328 -0.0097 -0.8708
  151OSM   H12A16729   2.323   6.616   2.381 -0.1537 -2.1988  2.3071
  151OSM   H12B16730   2.160   6.538   2.388  2.3356 -0.8597  1.2489
  151OSM    C1116731   2.182   6.676   2.238 -0.4008  0.1155 -0.1683
  151OSM   H11A16732   2.264   6.722   2.179 -0.4713  0.3759 -0.0644
  151OSM   H11B16733   2.147   6.755   2.308  3.1204  0.8797  0.9266
  151OSM      P16734   1.935   6.585   2.205  0.2729 -0.3932 -0.2565
  151OSM    O1316735   1.845   6.697   2.180  0.0496 -0.5216 -0.4345
  151OSM    O1416736   1.889   6.465   2.128  0.1225 -0.5813 -0.6437
  151OSM    O1116737   1.955   6.558   2.362 -0.4492  0.3523  0.0860
  151OSM    O1216738   2.082   6.621   2.155 -0.0921  0.5461  0.4397
  151OSM    C1S16739   1.848   6.492   2.436 -0.0994 -0.1765  0.3602
  151OSM    H1S16740   1.862   6.382   2.427 -1.2287 -0.3733  0.8223
  151OSM    H1T16741   1.751   6.524   2.392  0.4068  1.0274  0.0891
  151OSM     NF16742   1.719   6.480   2.645  0.4519  0.0362 -0.8712
  151OSM    HNF16743   1.637   6.536   2.643  1.1446  1.3170  1.9853
  151OSM    C2S16744   1.829   6.546   2.583 -1.1691 -0.1883 -0.7372
  151OSM    H2S16745   1.916   6.511   2.642 -1.1841 -1.4493 -1.4407
  151OSM    C3S16746   1.836   6.705   2.590  0.3007  0.1988 -0.9222
  151OSM    H3S16747   1.747   6.744   2.538 -1.6112 -0.0282  1.9620
  151OSM     O316748   1.951   6.763   2.534 -1.0706 -0.2164  0.0242
  151OSM    HO316749   1.973   6.683   2.485 -1.7361 -2.7522  3.4132
  151OSM    C4S16750   1.820   6.760   2.731  0.4870 -0.3064  0.0223
  151OSM    H4S16751   1.714   6.760   2.761  0.5522  1.0865  0.3110
  151OSM    C5S16752   1.919   6.784   2.817 -0.6401  0.3164 -0.3165
  151OSM    H5S16753   2.025   6.766   2.790  0.1675  1.4325  1.8474
  151OSM    C6S16754   1.912   6.821   2.965  0.6475  0.5490  0.0128
  151OSM    H6S16755   1.929   6.930   2.958  2.0754  0.2331 -4.0518
  151OSM    H6T16756   1.990   6.762   3.018 -0.2395 -0.6187  0.0577
  151OSM    C7S16757   1.781   6.793   3.027  0.3204 -0.2870 -0.9673
  151OSM    H7S16758   1.746   6.688   3.037  2.8906 -1.0885  0.5222
  151OSM    H7T16759   1.703   6.840   2.963  0.4326 -0.2275 -1.0604
  151OSM    C8S16760   1.758   6.862   3.162  0.0726 -0.0228 -0.5941
  151OSM    H8S16761   1.649   6.874   3.184  0.1382 -0.6075  0.1009
  151OSM    H8T16762   1.803   6.962   3.179  0.4224 -0.2294 -0.3024
  151OSM    C9S16763   1.814   6.783   3.278 -0.3183 -0.7257 -0.9887
  151OSM    H9S16764   1.924   6.778   3.271  0.4502  1.0658  4.5529
  151OSM    H9T16765   1.777   6.679   3.291  0.7061 -1.3370 -2.6465
  151OSM   C10S16766   1.794   6.847   3.417 -0.0818  0.0113 -0.6028
  151OSM   H10S16767   1.851   6.790   3.493  1.5267  0.8149 -1.1599
  151OSM   H10T16768   1.684   6.833   3.432  0.3027 -1.2370  1.3685
  151OSM   C11S16769   1.836   6.999   3.438  0.2081  0.1476  0.0754
  151OSM   H11S16770   1.762   7.057   3.380 -2.2504 -1.4446  1.4018
  151OSM   H11T16771   1.942   7.007   3.407  0.1955 -0.5048 -0.1609
  151OSM   C12S16772   1.822   7.051   3.585 -0.5613  0.0295 -0.6693
  151OSM   H12S16773   1.857   6.966   3.647  0.1026  0.9377  0.2274
  151OSM   H12T16774   1.715   7.070   3.608 -0.2566  2.2708 -0.8837
  151OSM   C13S16775   1.899   7.180   3.618  0.0467 -0.2437 -0.0102
  151OSM   H13S16776   1.835   7.257   3.570 -0.6611 -1.1806 -0.6208
  151OSM   H13T16777   1.999   7.196   3.572  0.3356  1.7087  1.1926
  151OSM   C14S16778   1.915   7.206   3.764  0.2797 -0.4566 -0.0028
  151OSM   H14S16779   1.990   7.286   3.781 -1.3655  0.9021  1.2629
  151OSM   H14T16780   1.943   7.118   3.826  1.1937 -0.7830 -0.8582
  151OSM   C15S16781   1.787   7.266   3.832 -0.1577 -0.6771 -1.8642
  151OSM   H15S16782   1.706   7.192   3.811 -1.7575  1.0860 -2.1685
  151OSM   H15T16783   1.767   7.367   3.791  1.1939  0.2713 -0.3033
  151OSM   C16S16784   1.816   7.290   3.983 -0.3956 -0.2347 -0.3408
  151OSM   H16S16785   1.898   7.359   4.010 -0.5133 -0.5501  0.8765
  151OSM   H16T16786   1.835   7.197   4.041  4.8638  0.2789 -0.7539
  151OSM   C17S16787   1.691   7.352   4.058  1.0456 -0.2767 -0.0081
  151OSM   H17S16788   1.621   7.265   4.049  1.1370 -0.2738 -0.7660
  151OSM   H17T16789   1.648   7.435   4.000  1.0202  2.4484  3.5600
  151OSM   C18S16790   1.706   7.386   4.206 -0.2562 -0.3818 -0.3138
  151OSM   H18S16791   1.616   7.435   4.249  1.6601  2.9422  0.2445
  151OSM   H18T16792   1.786   7.463   4.221 -1.0270  0.6539 -1.3585
  151OSM   H18U16793   1.723   7.289   4.257  0.2766 -2.2439 -3.7372
  151OSM    C1F16794   1.713   6.347   2.673 -0.3801 -0.2418 -0.2817
  151OSM     OF16795   1.820   6.288   2.679 -0.6105  0.0891 -0.1735
  151OSM    C2F16796   1.578   6.294   2.680 -0.1857 -0.2970  0.5578
  151OSM    H2F16797   1.573   6.210   2.607 -1.0376 -0.4316  0.7624
  151OSM    H2G16798   1.510   6.379   2.661  2.7057  2.0002 -0.2672
  151OSM    C3F16799   1.551   6.234   2.819  0.1193  0.5596 -1.0918
  151OSM    H3F16800   1.626   6.157   2.845 -0.0064  0.3016 -1.4918
  151OSM    H3G16801   1.453   6.183   2.825  1.2936 -1.7758 -0.3428
  151OSM    C4F16802   1.564   6.335   2.944 -0.1558  0.5584 -0.2494
  151OSM    H4F16803   1.661   6.388   2.954  0.6079 -0.2615 -2.6311
  151OSM    H4G16804   1.546   6.285   3.042  1.9310  0.0809 -0.0539
  151OSM    C5F16805   1.450   6.441   2.940 -0.0953 -0.1713  0.4694
  151OSM    H5F16806   1.357   6.382   2.928 -0.8244  0.8735  0.8062
  151OSM    H5G16807   1.447   6.503   2.848  0.3558 -0.5494  0.2007
  151OSM    C6F16808   1.443   6.520   3.069 -0.6646 -0.6679 -0.2288
  151OSM    H6F16809   1.392   6.618   3.057 -0.8475 -0.9593 -2.3381
  151OSM    H6G16810   1.545   6.545   3.105 -1.1257  2.0280 -0.5546
  151OSM    C7F16811   1.350   6.465   3.166  0.2831 -0.0368 -0.2934
  151OSM    H7F16812   1.411   6.390   3.222 -0.6500 -0.8758 -0.3740
  151OSM    H7G16813   1.257   6.429   3.117 -0.6440  2.2770 -0.3404
  151OSM    C8F16814   1.295   6.563   3.274 -0.1948 -0.6676 -0.1058
  151OSM    H8F16815   1.235   6.502   3.345  0.2416 -1.6645 -0.5618
  151OSM    H8G16816   1.226   6.631   3.220  0.6787 -0.9256 -1.6133
  151OSM    C9F16817   1.393   6.645   3.349  0.6160  0.1635  0.4811
  151OSM    H9F16818   1.441   6.714   3.279 -0.6976  1.1933  0.5622
  151OSM   C10F16819   1.416   6.657   3.481 -0.0815  0.6040 -1.1723
  151OSM   H10F16820   1.499   6.726   3.505  0.3426 -0.3023  0.1126
  151OSM   C11F16821   1.350   6.595   3.596  0.1467  0.6646  0.4076
  151OSM   H11F16822   1.266   6.529   3.567 -0.4011  0.7328  1.7750
  151OSM   H11G16823   1.312   6.676   3.661  2.4659  0.8297  1.7083
  151OSM   C12F16824   1.459   6.502   3.663  0.0840 -0.0959 -0.2588
  151OSM   H12F16825   1.510   6.434   3.591  1.3421  0.0263  0.4874
  151OSM   H12G16826   1.401   6.436   3.730  1.4762 -1.3384 -0.2265
  151OSM   C13F16827   1.554   6.564   3.760 -1.1456  0.3218 -0.0378
  151OSM   H13F16828   1.637   6.619   3.710 -0.0157  1.2451  2.6644
  151OSM   H13G16829   1.599   6.475   3.810 -1.8038 -0.6343 -1.0983
  151OSM   C14F16830   1.492   6.647   3.868  0.4479 -0.3830 -0.1865
  151OSM   H14F16831   1.420   6.578   3.918 -0.3076  1.8922  2.0944
  151OSM   H14G16832   1.431   6.724   3.816 -1.5852 -1.3271  0.7058
  151OSM   C15F16833   1.588   6.697   3.978 -0.2728  0.0461  0.6836
  151OSM   H15F16834   1.672   6.742   3.922 -0.8992 -0.4279 -0.6792
  151OSM   H15G16835   1.619   6.604   4.029  0.6082 -1.0560 -1.7331
  151OSM   C16F16836   1.527   6.800   4.084  0.2525  0.3648  0.1535
  151OSM   H16F16837   1.619   6.811   4.145  1.3854  0.2075 -1.4712
  151OSM   H16G16838   1.437   6.751   4.127 -0.8778 -1.5708 -4.0086
  151OSM   C17F16839   1.481   6.939   4.031  0.2702  0.1922  0.0855
  151OSM   H17F16840   1.409   6.921   3.948 -1.6643  1.3380  1.4481
  151OSM   H17G16841   1.563   7.001   3.988 -1.3125  0.5248 -2.6752
  151OSM   C18F16842   1.398   7.013   4.137 -0.8452  0.7047 -0.3633
  151OSM   H18F16843   1.324   6.941   4.179 -1.7940  1.2075 -1.1600
  151OSM   H18G16844   1.342   7.094   4.086  0.2354 -0.2139 -3.2305
  151OSM   H18H16845   1.457   7.060   4.218 -1.4258  1.1452 -0.1951
  152OSM      N16846   3.202   0.086   1.935 -0.5377 -0.2365 -0.0023
  152OSM    C1516847   3.070   0.162   1.907  0.0623  0.6455  0.0849
  152OSM   H15A16848   2.986   0.143   1.973 -1.2702  1.8477 -1.2088
  152OSM   H15B16849   3.054   0.147   1.802  3.7432 -1.2317 -0.3517
  152OSM   H15C16850   3.086   0.267   1.926 -0.6677  0.5639  1.2714
  152OSM    C1416851   3.170  -0.060   1.920  0.3801  0.2819  0.3055
  152OSM   H14A16852   3.083  -0.087   1.978 -0.1784  2.1100  0.3523
  152OSM   H14B16853   3.252  -0.126   1.945  0.7084  0.5059 -0.1684
  152OSM   H14C16854   3.146  -0.086   1.818 -0.9683 -0.3785  0.7559
  152OSM    C1316855   3.308   0.125   1.840 -0.0239 -0.1217 -0.6009
  152OSM   H13A16856   3.310   0.231   1.859 -2.9211 -0.0099 -0.5220
  152OSM   H13B16857   3.279   0.114   1.736 -0.0452  1.5432 -0.8025
  152OSM   H13C16858   3.404   0.083   1.865  0.3737  0.8437 -0.4750
  152OSM    C1216859   3.246   0.110   2.079  0.2311  0.7907  0.9398
  152OSM   H12A16860   3.354   0.101   2.078  0.2180  0.6198 -0.5477
  152OSM   H12B16861   3.206   0.028   2.137  0.6289 -0.9315 -1.1200
  152OSM    C1116862   3.220   0.248   2.147  0.0768 -0.0491  0.0864
  152OSM   H11A16863   3.247   0.246   2.255 -0.7302 -0.6387  0.2869
  152OSM   H11B16864   3.111   0.265   2.135  0.1307 -0.4174 -1.0094
  152OSM      P16865   3.462   0.353   2.091  0.2731 -0.0967  0.0156
  152OSM    O1316866   3.511   0.221   2.127 -0.2926 -0.2930 -0.3405
  152OSM    O1416867   3.515   0.412   1.963  0.3723  0.2210 -0.8389
  152OSM    O1116868   3.499   0.455   2.210 -0.6331  0.1392  0.7538
  152OSM    O1216869   3.301   0.349   2.083  0.7109 -0.2319 -0.1705
  152OSM    C1S16870   3.408   0.486   2.324 -0.0542  0.8327  0.1053
  152OSM    H1S16871   3.318   0.421   2.314 -0.3057  1.2430 -0.3301
  152OSM    H1T16872   3.376   0.592   2.321 -1.0831  0.5356  0.1505
  152OSM     NF16873   3.380   0.507   2.569 -1.0938 -0.3640 -0.6043
  152OSM    HNF16874   3.422   0.582   2.619  0.9684 -1.5433 -0.4062
  152OSM    C2S16875   3.470   0.462   2.462 -0.4467  0.4178  0.5858
  152OSM    H2S16876   3.469   0.352   2.477  2.0558 -0.1067 -2.2275
  152OSM    C3S16877   3.619   0.510   2.463  0.2148  0.4968 -0.4917
  152OSM    H3S16878   3.627   0.617   2.432 -0.9015  0.1638 -2.0279
  152OSM     O316879   3.703   0.441   2.372  0.5204  0.1207 -0.3604
  152OSM    HO316880   3.638   0.419   2.305 -0.7877 -1.3806  1.2979
  152OSM    C4S16881   3.684   0.482   2.595 -0.5864 -0.2071 -0.8200
  152OSM    H4S16882   3.667   0.377   2.624  0.9474 -0.8398 -2.0805
  152OSM    C5S16883   3.726   0.573   2.681  0.3181 -0.2143 -0.2404
  152OSM    H5S16884   3.709   0.678   2.655  0.5584 -0.2289 -0.4572
  152OSM    C6S16885   3.781   0.545   2.818 -0.7681  0.2147 -0.2123
  152OSM    H6S16886   3.832   0.638   2.850 -1.6125 -0.3855  3.2172
  152OSM    H6T16887   3.855   0.462   2.822 -0.0221  0.7130 -2.3449
  152OSM    C7S16888   3.673   0.516   2.929 -0.5299  0.3705  0.3697
  152OSM    H7S16889   3.626   0.415   2.934 -0.4124  0.3833  3.3500
  152OSM    H7T16890   3.598   0.595   2.907  0.9818  1.5377 -0.8541
  152OSM    C8S16891   3.738   0.532   3.069 -0.2633  0.6894 -0.7158
  152OSM    H8S16892   3.763   0.640   3.079  1.0236  0.4130 -0.8026
  152OSM    H8T16893   3.829   0.470   3.085 -1.9993 -1.8936 -0.1816
  152OSM    C9S16894   3.640   0.484   3.186  0.1840  0.6426  0.2330
  152OSM    H9S16895   3.621   0.385   3.140 -0.9830  1.4517 -1.0926
  152OSM    H9T16896   3.545   0.541   3.186  0.2172  0.6973 -0.5167
  152OSM   C10S16897   3.704   0.473   3.319  0.4908  0.2177 -0.0385
  152OSM   H10S16898   3.800   0.418   3.313  1.6522  1.8349  2.0638
  152OSM   H10T16899   3.645   0.406   3.386  1.8741 -0.3649  0.6337
  152OSM   C11S16900   3.719   0.603   3.392  0.6246 -0.3116  0.3813
  152OSM   H11S16901   3.615   0.638   3.411  0.1124 -1.4182 -0.2590
  152OSM   H11T16902   3.771   0.673   3.324  0.6296 -0.1676  0.5314
  152OSM   C12S16903   3.802   0.598   3.515 -0.5547 -0.0169 -0.0684
  152OSM   H12S16904   3.821   0.704   3.541  2.3079 -1.0988  2.7588
  152OSM   H12T16905   3.903   0.552   3.508 -0.0606  1.1180 -0.5170
  152OSM   C13S16906   3.738   0.547   3.646  0.6101 -0.1186  0.0487
  152OSM   H13S16907   3.704   0.443   3.627  0.3723 -0.4646  2.0997
  152OSM   H13T16908   3.651   0.616   3.652  0.3808 -0.4629  0.8057
  152OSM   C14S16909   3.814   0.574   3.779 -0.4093  0.1801 -0.5668
  152OSM   H14S16910   3.853   0.678   3.785  0.4001 -0.1475 -0.0761
  152OSM   H14T16911   3.897   0.501   3.769 -0.9148 -1.1589  3.2524
  152OSM   C15S16912   3.744   0.535   3.904  0.1342 -0.3110 -0.0281
  152OSM   H15S16913   3.729   0.425   3.917 -1.7031  0.0643  1.4230
  152OSM   H15T16914   3.645   0.583   3.896 -0.4112 -1.4707 -0.4334
  152OSM   C16S16915   3.831   0.587   4.024 -0.8570  0.0976  0.0797
  152OSM   H16S16916   3.876   0.685   3.997  0.5470 -0.7560 -0.8025
  152OSM   H16T16917   3.912   0.515   4.049  0.9784  1.3423 -1.9235
  152OSM   C17S16918   3.742   0.616   4.143 -0.3625 -0.1761 -0.3367
  152OSM   H17S16919   3.739   0.533   4.217  3.6473 -0.4788 -0.3151
  152OSM   H17T16920   3.647   0.645   4.093 -1.1630  1.2930  1.8769
  152OSM   C18S16921   3.794   0.737   4.219  0.0522  0.2223 -0.6658
  152OSM   H18S16922   3.733   0.753   4.310  1.9100 -1.3462  0.9520
  152OSM   H18T16923   3.779   0.828   4.157  2.7940  0.6884 -0.7800
  152OSM   H18U16924   3.904   0.736   4.238  0.3323  3.9943 -1.2449
  152OSM    C1F16925   3.270   0.451   2.608  0.1297  0.4242  0.2487
  152OSM     OF16926   3.222   0.351   2.548  0.2088  0.0365 -0.6405
  152OSM    C2F16927   3.181   0.534   2.700 -0.4458 -0.0129 -0.4104
  152OSM    H2F16928   3.073   0.506   2.695 -0.2364 -0.7960 -0.8562
  152OSM    H2G16929   3.190   0.638   2.662 -1.0571  0.4920  0.7746
  152OSM    C3F16930   3.229   0.519   2.850  0.1905 -0.0054 -0.0577
  152OSM    H3F16931   3.171   0.597   2.904  0.7451  1.5605 -1.6345
  152OSM    H3G16932   3.338   0.537   2.860  0.5536 -0.6456 -2.3025
  152OSM    C4F16933   3.189   0.379   2.913 -0.6548 -1.2371 -0.1247
  152OSM    H4F16934   3.277   0.317   2.938 -0.2030  0.1263  2.0073
  152OSM    H4G16935   3.128   0.325   2.838 -1.2562 -0.7693  0.0152
  152OSM    C5F16936   3.107   0.390   3.042  0.3017  0.3311  0.1231
  152OSM    H5F16937   3.052   0.295   3.056  2.1678 -0.5095  2.4679
  152OSM    H5G16938   3.032   0.472   3.044 -0.2707 -0.1959  1.0589
  152OSM    C6F16939   3.187   0.415   3.173  0.5619 -0.0235  0.4028
  152OSM    H6F16940   3.233   0.515   3.167  0.9877 -0.2560 -0.3181
  152OSM    H6G16941   3.264   0.335   3.173  1.4038  0.7677 -0.6597
  152OSM    C7F16942   3.099   0.418   3.299 -0.2666  0.0646  0.6944
  152OSM    H7F16943   3.069   0.315   3.328 -0.3230  0.5933  2.6099
  152OSM    H7G16944   3.003   0.468   3.276 -1.3786 -1.7106  1.2591
  152OSM    C8F16945   3.176   0.469   3.416  0.1702  0.0007  1.1396
  152OSM    H8F16946   3.106   0.494   3.499  0.1763  2.8378  0.4164
  152OSM    H8G16947   3.219   0.564   3.378 -3.3830  0.5769 -2.1163
  152OSM    C9F16948   3.286   0.381   3.461 -0.2702  0.0578 -0.2516
  152OSM    H9F16949   3.359   0.349   3.386  1.2490  2.6405  0.0158
  152OSM   C10F16950   3.318   0.347   3.589  0.5675 -0.3205 -0.1761
  152OSM   H10F16951   3.412   0.289   3.587  0.8763  0.1687 -1.5456
  152OSM   C11F16952   3.246   0.385   3.714 -0.3438 -0.1343 -0.1331
  152OSM   H11F16953   3.167   0.314   3.747 -0.2395  0.4621  1.4921
  152OSM   H11G16954   3.193   0.483   3.710  0.8277  0.4833 -1.4372
  152OSM   C12F16955   3.346   0.405   3.824  0.1148 -0.3166 -0.0126
  152OSM   H12F16956   3.421   0.476   3.784 -0.7713 -0.9597 -3.0735
  152OSM   H12G16957   3.395   0.307   3.838 -0.0761 -0.2463  1.2492
  152OSM   C13F16958   3.289   0.461   3.949  0.3322 -1.2142 -0.4434
  152OSM   H13F16959   3.204   0.399   3.984  0.2656 -0.6445  0.4423
  152OSM   H13G16960   3.250   0.563   3.929 -0.9272 -1.7878 -1.0580
  152OSM   C14F16961   3.385   0.453   4.067 -0.0213 -0.0873 -0.2405
  152OSM   H14F16962   3.476   0.510   4.040 -1.7951  2.1601 -1.8347
  152OSM   H14G16963   3.406   0.345   4.085  1.0597 -0.3338 -2.6201
  152OSM   C15F16964   3.324   0.529   4.187  0.1278 -0.2764  0.1997
  152OSM   H15F16965   3.225   0.482   4.211 -0.1220 -0.3800 -0.9581
  152OSM   H15G16966   3.303   0.634   4.157  0.2938  0.1856  1.6440
  152OSM   C16F16967   3.412   0.529   4.317 -0.3772 -0.0475 -0.5523
  152OSM   H16F16968   3.512   0.569   4.290 -1.5426  2.8584 -0.9477
  152OSM   H16G16969   3.422   0.426   4.358  0.0471  0.9890  2.1472
  152OSM   C17F16970   3.348   0.609   4.425 -0.8834 -0.5533 -0.2155
  152OSM   H17F16971   3.240   0.585   4.439 -1.0937  0.3655 -0.1938
  152OSM   H17G16972   3.335   0.713   4.387  1.6291 -0.1935 -0.2703
  152OSM   C18F16973   3.428   0.633   4.553  0.1148 -0.0553  0.2576
  152OSM   H18F16974   3.389   0.704   4.629 -0.0012 -0.8477  0.9435
  152OSM   H18G16975   3.521   0.688   4.526  0.5671 -1.2753 -0.7381
  152OSM   H18H16976   3.461   0.543   4.609  2.9947 -1.6873 -3.6318
  153OSM      N16977   2.855   0.757   2.144 -0.3455  0.4900  0.7135
  153OSM    C1516978   2.728   0.668   2.132 -0.5696  0.1894 -0.2262
  153OSM   H15A16979   2.756   0.591   2.062 -0.8632 -0.1173 -0.0048
  153OSM   H15B16980   2.636   0.714   2.099 -1.0717 -1.1033 -0.6797
  153OSM   H15C16981   2.710   0.615   2.224  1.0482  0.5253  0.3186
  153OSM    C1416982   2.858   0.830   2.015 -0.2741  0.4994  0.2185
  153OSM   H14A16983   2.766   0.882   1.992 -0.5812 -0.6370 -1.3047
  153OSM   H14B16984   2.859   0.758   1.935  0.1674  1.1921 -0.4020
  153OSM   H14C16985   2.945   0.894   2.013  0.6422 -0.7193  0.1137
  153OSM    C1316986   2.833   0.861   2.249 -0.7519 -0.0094 -0.3978
  153OSM   H13A16987   2.772   0.946   2.224 -2.8904 -0.5392  2.4550
  153OSM   H13B16988   2.919   0.920   2.276 -1.3866  1.4840 -1.4704
  153OSM   H13C16989   2.799   0.812   2.339 -0.5139 -0.7662 -0.7110
  153OSM    C1216990   2.982   0.671   2.174 -0.3382 -0.5398  0.7446
  153OSM   H12A16991   3.010   0.621   2.082  2.1341  0.8565  0.6697
  153OSM   H12B16992   2.951   0.583   2.229  2.5902 -2.1399  0.0468
  153OSM    C1116993   3.107   0.733   2.247  0.1327  0.0432 -0.7865
  153OSM   H11A16994   3.177   0.647   2.253  1.1414  0.9179  0.5000
  153OSM   H11B16995   3.085   0.751   2.355  4.2261 -0.0467  0.2281
  153OSM      P16996   3.291   0.849   2.104 -0.1393  0.1645  0.4627
  153OSM    O1316997   3.315   0.723   2.022 -0.0244 -0.7023 -0.8666
  153OSM    O1416998   3.296   0.968   2.025  0.0856 -0.0378 -0.5829
  153OSM    O1116999   3.408   0.844   2.213  0.3163  0.1279 -0.4962
  153OSM    O1217000   3.154   0.851   2.183 -0.2098 -0.4819 -0.7885
  153OSM    C1S17001   3.381   0.888   2.347 -0.3087  0.2767 -0.1389
  153OSM    H1S17002   3.340   0.807   2.410  1.0075 -0.8634 -0.6972
  153OSM    H1T17003   3.307   0.970   2.358 -0.6222  0.2284 -1.6872
  153OSM     NF17004   3.487   0.967   2.568 -0.0796  0.7802  0.5689
  153OSM    HNF17005   3.515   1.060   2.590 -1.6080  1.5596 -0.6013
  153OSM    C2S17006   3.507   0.933   2.426 -0.0182  0.0041  0.2165
  153OSM    H2S17007   3.582   0.850   2.427  1.0681  0.9709  1.2085
  153OSM    C3S17008   3.586   1.039   2.349  0.4259 -0.2163  0.8508
  153OSM    H3S17009   3.541   1.140   2.359 -0.3871 -0.6535  1.7408
  153OSM     O317010   3.593   1.023   2.203  0.5568  0.6718 -0.1369
  153OSM    HO317011   3.541   0.946   2.178  1.2840  0.8441 -2.3482
  153OSM    C4S17012   3.719   1.066   2.412 -0.7831 -0.5628  0.0942
  153OSM    H4S17013   3.703   1.137   2.495  0.0715  0.9858 -1.0155
  153OSM    C5S17014   3.839   1.008   2.381  0.5337  0.1116 -0.2760
  153OSM    H5S17015   3.852   0.943   2.293  0.5981 -0.4838  0.1707
  153OSM    C6S17016   3.955   1.034   2.471 -0.1320  0.0925  0.6278
  153OSM    H6S17017   3.954   1.135   2.517 -3.5496  0.4588  0.0128
  153OSM    H6T17018   4.052   1.014   2.420  0.5134 -1.8007  2.4366
  153OSM    C7S17019   3.961   0.927   2.577  0.4445  0.0521 -0.3643
  153OSM    H7S17020   4.067   0.909   2.604  0.3665  1.6617  1.2076
  153OSM    H7T17021   3.922   0.828   2.543 -0.5234 -0.6060  2.3297
  153OSM    C8S17022   3.872   0.963   2.699 -0.8710  0.0564 -0.0222
  153OSM    H8S17023   3.779   0.906   2.676 -0.3324 -0.3199 -1.3597
  153OSM    H8T17024   3.840   1.069   2.689  1.8583  1.0508  0.8550
  153OSM    C9S17025   3.933   0.936   2.840 -0.2098 -0.4501  0.1624
  153OSM    H9S17026   4.037   0.972   2.853 -0.1708 -1.1239  2.0308
  153OSM    H9T17027   3.934   0.826   2.850  0.3707 -0.5504 -0.8389
  153OSM   C10S17028   3.853   0.998   2.957  0.7006 -0.5510  0.2278
  153OSM   H10S17029   3.745   0.973   2.947  0.4058  0.1880  1.3646
  153OSM   H10T17030   3.859   1.108   2.947  0.4610 -0.6234 -0.8153
  153OSM   C11S17031   3.907   0.957   3.093  0.0159  0.9192 -0.5121
  153OSM   H11S17032   4.010   1.001   3.098 -0.0497  1.3050 -1.9393
  153OSM   H11T17033   3.918   0.847   3.103  1.6245  1.2254  2.1429
  153OSM   C12S17034   3.817   1.014   3.206  0.1110  0.1446 -0.4630
  153OSM   H12S17035   3.720   0.962   3.216 -0.0345  0.4742 -0.1265
  153OSM   H12T17036   3.804   1.123   3.191  1.2404  0.1049 -1.9478
  153OSM   C13S17037   3.886   0.992   3.348  0.2748  0.0071  0.4230
  153OSM   H13S17038   3.986   1.038   3.331  0.4769  0.0531  1.6313
  153OSM   H13T17039   3.891   0.883   3.368  0.8849  0.0387  0.4638
  153OSM   C14S17040   3.810   1.063   3.463 -0.5389 -0.3426  0.4963
  153OSM   H14S17041   3.706   1.030   3.440  0.2056 -1.2268 -1.9884
  153OSM   H14T17042   3.811   1.174   3.459  0.2631 -0.3713 -0.7782
  153OSM   C15S17043   3.866   1.014   3.593 -0.0417  0.0184 -0.2393
  153OSM   H15S17044   3.956   0.950   3.581 -0.5822 -0.3592 -2.6581
  153OSM   H15T17045   3.791   0.949   3.643  1.1643 -0.7021  0.7080
  153OSM   C16S17046   3.918   1.118   3.689 -0.1494  0.1463  1.0171
  153OSM   H16S17047   3.834   1.186   3.715 -1.2596 -1.3568  1.5258
  153OSM   H16T17048   3.997   1.172   3.632  1.6260 -3.3895 -0.1592
  153OSM   C17S17049   3.968   1.042   3.817  0.1502 -0.4374 -0.4182
  153OSM   H17S17050   4.064   0.989   3.799  1.4957  1.0831  1.7132
  153OSM   H17T17051   3.884   0.976   3.844  1.5793 -2.2725 -0.2549
  153OSM   C18S17052   3.999   1.122   3.947  0.6399  0.1229 -0.9157
  153OSM   H18S17053   3.920   1.191   3.982 -0.1360 -1.1566 -0.0722
  153OSM   H18T17054   4.088   1.189   3.942  0.5299  0.4935  1.0926
  153OSM   H18U17055   4.018   1.053   4.032 -2.7661 -0.1664 -0.2538
  153OSM    C1F17056   3.432   0.892   2.658 -0.5053  0.1776 -0.5021
  153OSM     OF17057   3.408   0.773   2.636  0.0751 -0.9082  0.3047
  153OSM    C2F17058   3.403   0.966   2.785 -0.1647  0.8124  0.0901
  153OSM    H2F17059   3.297   0.991   2.806 -0.2572 -0.2890  1.0411
  153OSM    H2G17060   3.468   1.056   2.790  0.1205  0.6605 -0.7859
  153OSM    C3F17061   3.442   0.870   2.905  0.8475 -0.3398  0.7015
  153OSM    H3F17062   3.550   0.849   2.897  1.1601  1.3936 -0.0099
  153OSM    H3G17063   3.381   0.778   2.915  1.7964 -1.0273  0.2921
  153OSM    C4F17064   3.437   0.943   3.051  0.0241 -0.2023  0.1126
  153OSM    H4F17065   3.347   1.008   3.060 -0.9042 -0.9644 -2.8647
  153OSM    H4G17066   3.533   0.993   3.077 -0.6711  1.5003 -0.4503
  153OSM    C5F17067   3.431   0.840   3.164  0.4574 -0.3963  0.6212
  153OSM    H5F17068   3.508   0.762   3.150  0.7907 -0.1459  1.0195
  153OSM    H5G17069   3.330   0.794   3.160 -0.1845  0.9053  1.2179
  153OSM    C6F17070   3.455   0.887   3.312  0.0663  0.3557 -0.2118
  153OSM    H6F17071   3.420   0.991   3.326  2.0134  1.2415 -1.4856
  153OSM    H6G17072   3.562   0.883   3.342  0.1896 -0.5674 -0.7468
  153OSM    C7F17073   3.379   0.803   3.419 -0.3924 -0.1840 -0.5346
  153OSM    H7F17074   3.414   0.697   3.424 -0.1987 -0.1155 -0.4315
  153OSM    H7G17075   3.279   0.806   3.370 -0.9860  1.7025  0.6949
  153OSM    C8F17076   3.353   0.857   3.565  0.7386  0.7088  0.2458
  153OSM    H8F17077   3.281   0.792   3.620 -0.9574  2.1410 -0.2050
  153OSM    H8G17078   3.303   0.956   3.559 -0.1925  0.4102  2.2809
  153OSM    C9F17079   3.484   0.872   3.631 -0.6870 -1.0896 -0.5010
  153OSM    H9F17080   3.569   0.886   3.562 -1.6965  0.5088 -1.4623
  153OSM   C10F17081   3.504   0.881   3.761  0.3047 -0.4116 -0.3791
  153OSM   H10F17082   3.607   0.895   3.796  0.1001 -2.1354  1.1012
  153OSM   C11F17083   3.400   0.868   3.869 -0.2124  0.3004 -0.0842
  153OSM   H11F17084   3.445   0.800   3.944 -0.7351 -0.9724 -0.8900
  153OSM   H11G17085   3.306   0.823   3.832 -1.0004  0.4845  1.6223
  153OSM   C12F17086   3.365   0.999   3.926  0.4996  1.0065  0.4301
  153OSM   H12F17087   3.292   0.983   4.008  0.1839 -0.7747 -0.1555
  153OSM   H12G17088   3.314   1.048   3.840 -1.1713 -1.6091 -0.1769
  153OSM   C13F17089   3.483   1.075   3.982  0.2243  0.6370  0.0429
  153OSM   H13F17090   3.467   1.184   4.002  3.6031  1.8139 -2.7074
  153OSM   H13G17091   3.561   1.088   3.904 -0.9971  0.2180 -1.2859
  153OSM   C14F17092   3.541   1.018   4.103  0.6367 -0.2847  0.9372
  153OSM   H14F17093   3.567   0.910   4.092  1.2684  0.0136 -0.8776
  153OSM   H14G17094   3.464   1.010   4.183  0.9937  0.6686  1.3921
  153OSM   C15F17095   3.675   1.090   4.139  0.0727 -0.5220  0.3275
  153OSM   H15F17096   3.751   1.058   4.064  0.3278  1.1221 -0.1535
  153OSM   H15G17097   3.704   1.050   4.239 -0.9489 -2.0223  0.0504
  153OSM   C16F17098   3.676   1.241   4.142 -0.3547 -0.2653 -0.0218
  153OSM   H16F17099   3.660   1.276   4.038 -0.1235 -0.2371 -0.0500
  153OSM   H16G17100   3.780   1.275   4.162 -0.5172  0.7067 -0.7682
  153OSM   C17F17101   3.591   1.315   4.241  1.1567 -0.6120 -0.4112
  153OSM   H17F17102   3.483   1.288   4.231  0.8276  0.2056  0.7862
  153OSM   H17G17103   3.581   1.422   4.213 -1.7857 -0.4307  0.9250
  153OSM   C18F17104   3.628   1.305   4.390 -0.1711  0.3165 -0.3540
  153OSM   H18F17105   3.603   1.203   4.426  0.4728 -0.2184 -1.3639
  153OSM   H18G17106   3.576   1.371   4.462 -0.5026 -0.6570  0.3263
  153OSM   H18H17107   3.738   1.313   4.394 -0.1779  0.7879 -1.0149
  154OSM      N17108   3.716   4.988   2.271  0.2707 -0.3447  0.0935
  154OSM    C1517109   3.661   4.870   2.193 -0.4570  0.7836 -0.0143
  154OSM   H15A17110   3.706   4.775   2.217  1.3021  1.8622  1.1878
  154OSM   H15B17111   3.666   4.877   2.086  0.8271 -0.7076 -0.0974
  154OSM   H15C17112   3.556   4.866   2.217 -0.6006  1.6458 -0.4585
  154OSM    C1417113   3.861   5.002   2.238 -0.0063 -0.0775  0.0774
  154OSM   H14A17114   3.882   5.010   2.133  0.5896 -2.0717  0.0176
  154OSM   H14B17115   3.927   4.925   2.276  0.1522  0.2433  0.4739
  154OSM   H14C17116   3.898   5.089   2.292 -0.3075  1.0771 -1.5077
  154OSM    C1317117   3.634   5.102   2.224  0.3379 -0.6557  0.3773
  154OSM   H13A17118   3.646   5.190   2.285 -0.9629 -0.7024  0.7266
  154OSM   H13B17119   3.529   5.084   2.241  0.1457  0.1183  0.0361
  154OSM   H13C17120   3.664   5.124   2.122 -0.7708  0.1478  0.2069
  154OSM    C1217121   3.703   4.968   2.415  0.3955 -0.1092 -0.3436
  154OSM   H12A17122   3.758   4.877   2.434 -0.0587  0.0745  2.1364
  154OSM   H12B17123   3.602   4.946   2.444  1.2328 -3.1873  0.5582
  154OSM    C1117124   3.767   5.061   2.517 -0.0013 -0.7974 -0.8413
  154OSM   H11A17125   3.873   5.076   2.489 -0.2108  5.4145  0.3581
  154OSM   H11B17126   3.765   5.025   2.622  0.3592  0.3178 -0.4412
  154OSM      P17127   3.775   5.324   2.506  0.1673  0.1419  0.2470
  154OSM    O1317128   3.844   5.328   2.372  0.2095 -0.4059 -0.1211
  154OSM    O1417129   3.684   5.432   2.544  0.2468  0.2524  0.2954
  154OSM    O1117130   3.886   5.299   2.612  0.1592 -0.2312 -0.0177
  154OSM    O1217131   3.698   5.186   2.511 -0.2305  0.2098 -0.1204
  154OSM    C1S17132   3.922   5.406   2.700 -0.2694  0.4219 -0.4166
  154OSM    H1S17133   3.878   5.503   2.667 -2.1035 -0.4599 -0.7154
  154OSM    H1T17134   4.032   5.415   2.707 -0.3217 -0.0985  2.3259
  154OSM     NF17135   3.899   5.501   2.924 -0.0358  0.1847  0.1959
  154OSM    HNF17136   3.971   5.504   2.993 -2.5899  1.4924  3.0542
  154OSM    C2S17137   3.879   5.383   2.852 -0.3850 -0.5084 -0.8529
  154OSM    H2S17138   3.769   5.367   2.855 -0.7372  1.7717  1.7995
  154OSM    C3S17139   3.947   5.259   2.911 -1.0458 -0.4165 -0.7568
  154OSM    H3S17140   4.057   5.274   2.907 -1.1398  0.7423  0.2716
  154OSM     O317141   3.927   5.139   2.836  0.7965 -0.1389 -0.4899
  154OSM    HO317142   3.895   5.177   2.754  0.6397 -0.1661 -0.4416
  154OSM    C4S17143   3.922   5.247   3.065 -0.3333 -0.0326  0.2646
  154OSM    H4S17144   3.993   5.306   3.126  2.0320 -1.0838 -1.3014
  154OSM    C5S17145   3.833   5.162   3.119 -0.3767  0.2802 -0.0481
  154OSM    H5S17146   3.767   5.105   3.052  1.2680 -1.3520 -0.3857
  154OSM    C6S17147   3.829   5.122   3.271  0.0976  0.0338  0.1502
  154OSM    H6S17148   3.855   5.014   3.280 -1.5633 -0.3382  0.7991
  154OSM    H6T17149   3.726   5.136   3.311 -1.1816  0.8030 -3.0686
  154OSM    C7S17150   3.920   5.204   3.360  0.2614 -0.5105  0.5996
  154OSM    H7S17151   3.906   5.312   3.339  2.1409 -0.1147  1.1688
  154OSM    H7T17152   4.027   5.185   3.342  0.2734  0.2431 -0.1977
  154OSM    C8S17153   3.887   5.184   3.504 -0.2233  1.1997  0.8738
  154OSM    H8S17154   3.913   5.080   3.532  1.2739  0.7258 -1.9012
  154OSM    H8T17155   3.781   5.199   3.533 -0.5840  0.0479  0.2251
  154OSM    C9S17156   3.971   5.268   3.597 -0.0198  0.3384 -0.0753
  154OSM    H9S17157   3.952   5.377   3.586  0.0662  0.2769 -0.9688
  154OSM    H9T17158   4.076   5.270   3.559  0.7392 -1.4248  1.7810
  154OSM   C10S17159   3.956   5.211   3.743 -0.3461  0.0282  0.1873
  154OSM   H10S17160   3.984   5.104   3.757  0.9595  0.6152  2.7505
  154OSM   H10T17161   3.851   5.230   3.775 -0.9225 -0.5400 -1.3060
  154OSM   C11S17162   4.028   5.292   3.852  0.0099 -0.4479  0.8109
  154OSM   H11S17163   3.990   5.393   3.877  3.0614  1.5588 -1.7832
  154OSM   H11T17164   4.129   5.320   3.815  0.4168  0.9428  2.8148
  154OSM   C12S17165   4.051   5.217   3.988 -0.9201  0.3059  0.2690
  154OSM   H12S17166   4.120   5.283   4.045 -1.3850  0.4572  0.6614
  154OSM   H12T17167   4.104   5.119   3.985 -1.1755 -0.1081  3.8994
  154OSM   C13S17168   3.917   5.184   4.051  0.1503  0.2483 -0.3224
  154OSM   H13S17169   3.849   5.126   3.985 -0.2569  0.5547 -0.1749
  154OSM   H13T17170   3.861   5.279   4.064  1.1674  0.9295 -0.7585
  154OSM   C14S17171   3.929   5.119   4.189  0.1326 -0.1087 -0.3756
  154OSM   H14S17172   3.992   5.186   4.252  0.0750 -2.6978  2.6474
  154OSM   H14T17173   3.984   5.023   4.181 -2.1030 -1.4960  0.2849
  154OSM   C15S17174   3.798   5.082   4.255 -0.0595  0.0917 -0.0615
  154OSM   H15S17175   3.744   5.002   4.199  1.7883 -2.5670  1.7328
  154OSM   H15T17176   3.735   5.174   4.266  2.0603  1.6843 -0.6315
  154OSM   C16S17177   3.816   5.029   4.401  0.1229 -0.5103 -0.0976
  154OSM   H16S17178   3.862   4.928   4.397 -1.0907 -1.0717 -0.5480
  154OSM   H16T17179   3.718   5.015   4.451 -0.7100 -2.2624 -2.0393
  154OSM   C17S17180   3.910   5.122   4.483 -0.2318 -0.2136 -0.2202
  154OSM   H17S17181   3.910   5.227   4.448 -1.8120 -0.0001  0.3595
  154OSM   H17T17182   4.012   5.077   4.481 -0.2937 -0.3335 -0.9590
  154OSM   C18S17183   3.865   5.132   4.632  0.3695  0.0317 -0.0406
  154OSM   H18S17184   3.777   5.201   4.636  0.1567 -0.1830 -0.9404
  154OSM   H18T17185   3.941   5.180   4.698 -1.3421  1.8017  0.7543
  154OSM   H18U17186   3.842   5.037   4.685 -2.4041 -0.0926 -1.3150
  154OSM    C1F17187   3.826   5.618   2.905 -0.1225  0.7475  0.3784
  154OSM     OF17188   3.721   5.611   2.844 -0.5168 -0.1597  0.3610
  154OSM    C2F17189   3.883   5.741   2.973  0.8113 -0.4630 -0.6533
  154OSM    H2F17190   3.952   5.800   2.909 -0.6732  1.9629 -0.1780
  154OSM    H2G17191   3.951   5.715   3.057 -1.5008  1.3804  1.9990
  154OSM    C3F17192   3.762   5.833   3.012 -0.7129 -0.0260 -0.6210
  154OSM    H3F17193   3.699   5.851   2.923 -1.2689  2.1773  0.1381
  154OSM    H3G17194   3.808   5.933   3.031 -1.3822  0.6938 -2.5700
  154OSM    C4F17195   3.677   5.785   3.134  1.0314  0.1631  0.0169
  154OSM    H4F17196   3.598   5.723   3.084  1.4038  0.7338 -1.3059
  154OSM    H4G17197   3.620   5.864   3.187  0.6557 -0.2033  0.1773
  154OSM    C5F17198   3.756   5.718   3.238  0.3784 -0.5308 -0.2781
  154OSM    H5F17199   3.850   5.769   3.269  1.3023 -1.1651 -1.9300
  154OSM    H5G17200   3.791   5.622   3.195  1.4482 -0.0053 -0.5895
  154OSM    C6F17201   3.682   5.658   3.363  0.9640 -0.5494  1.0474
  154OSM    H6F17202   3.629   5.565   3.336 -1.1558  1.0415 -0.6600
  154OSM    H6G17203   3.605   5.736   3.382  1.2727  0.3305 -1.0457
  154OSM    C7F17204   3.773   5.648   3.482 -0.2433  0.5110 -0.0090
  154OSM    H7F17205   3.844   5.733   3.479  1.2887 -0.7495 -0.6526
  154OSM    H7G17206   3.833   5.555   3.472  0.2000  0.8120 -0.1885
  154OSM    C8F17207   3.701   5.632   3.613  0.3968  0.9494 -0.4867
  154OSM    H8F17208   3.630   5.716   3.628 -0.8758 -0.1332 -0.2446
  154OSM    H8G17209   3.768   5.646   3.700  0.9362 -1.0153 -0.5362
  154OSM    C9F17210   3.642   5.491   3.630  0.7305  0.0900 -0.0765
  154OSM    H9F17211   3.603   5.447   3.536 -0.2424  0.4546  0.1456
  154OSM   C10F17212   3.616   5.414   3.740  0.1317  0.3505 -0.0626
  154OSM   H10F17213   3.576   5.312   3.738 -1.2270  0.8523  0.5696
  154OSM   C11F17214   3.665   5.461   3.877  0.1208 -0.5001  0.1017
  154OSM   H11F17215   3.720   5.556   3.860 -3.7676  1.6685 -1.7938
  154OSM   H11G17216   3.730   5.386   3.927  3.1973  0.4074 -2.2220
  154OSM   C12F17217   3.557   5.485   3.970 -0.3809 -0.4456  0.8413
  154OSM   H12F17218   3.469   5.530   3.918 -1.6854 -0.2482  3.0990
  154OSM   H12G17219   3.584   5.547   4.058 -1.5224  0.5390  0.5404
  154OSM   C13F17220   3.492   5.351   4.033  0.3352 -0.1439 -0.1059
  154OSM   H13F17221   3.565   5.322   4.112  0.2823  0.1451  0.0525
  154OSM   H13G17222   3.491   5.270   3.957 -2.0552 -2.5300  2.1984
  154OSM   C14F17223   3.346   5.368   4.078 -0.2493 -0.0564 -0.0265
  154OSM   H14F17224   3.303   5.266   4.092  1.0137 -0.5488  0.3771
  154OSM   H14G17225   3.284   5.431   4.011  0.7704  3.8186  2.3331
  154OSM   C15F17226   3.338   5.440   4.214 -0.4237  0.3856  0.3752
  154OSM   H15F17227   3.369   5.545   4.196  3.4359 -0.3533  1.7484
  154OSM   H15G17228   3.417   5.414   4.287 -0.2938  1.0599  0.4794
  154OSM   C16F17229   3.196   5.433   4.274 -0.1155  0.0010 -0.3653
  154OSM   H16F17230   3.173   5.328   4.304 -1.8629  0.6177  0.6292
  154OSM   H16G17231   3.130   5.450   4.187 -0.0649 -0.2281 -0.4489
  154OSM   C17F17232   3.168   5.530   4.382 -1.1126 -1.2160 -0.5489
  154OSM   H17F17233   3.177   5.634   4.346 -0.3382 -1.2527 -0.4813
  154OSM   H17G17234   3.235   5.535   4.471 -0.8944 -3.0954 -0.5576
  154OSM   C18F17235   3.035   5.504   4.450 -0.5263 -0.5334 -0.3815
  154OSM   H18F17236   3.012   5.582   4.526  2.6045 -1.0046  1.2366
  154OSM   H18G17237   3.034   5.401   4.493 -0.5473  0.3966  1.9670
  154OSM   H18H17238   2.962   5.497   4.366  0.0832  1.2937 -1.1008
  155OSM      N17239   4.014   2.947   2.547  0.3778  0.4032 -0.3924
  155OSM    C1517240   3.954   2.922   2.682  0.4881 -0.1442  0.0021
  155OSM   H15A17241   3.941   2.817   2.704 -2.9103 -0.2691 -1.8804
  155OSM   H15B17242   3.854   2.964   2.685  1.0025  1.2875 -1.3757
  155OSM   H15C17243   4.009   2.963   2.765  1.1704  0.4127 -0.7094
  155OSM    C1417244   3.941   2.863   2.439  0.3475  0.0423 -0.2363
  155OSM   H14A17245   3.954   2.759   2.462  1.9715  0.1177 -0.6768
  155OSM   H14B17246   4.000   2.886   2.351  1.5762 -1.0738  0.2681
  155OSM   H14C17247   3.841   2.899   2.417 -0.2090 -0.5211  1.2356
  155OSM    C1317248   4.010   3.087   2.499 -0.1589 -0.1569 -0.3511
  155OSM   H13A17249   3.919   3.137   2.531 -0.8109 -1.1785 -0.5654
  155OSM   H13B17250   4.021   3.105   2.393  1.7601 -1.7704 -0.4826
  155OSM   H13C17251   4.089   3.140   2.550 -0.2806  1.4318 -1.7257
  155OSM    C1217252   4.148   2.885   2.555  0.2667  0.1733 -0.3645
  155OSM   H12A17253   4.138   2.781   2.580  2.6788 -0.1968 -0.7209
  155OSM   H12B17254   4.197   2.937   2.635  0.4198  1.3574 -1.2020
  155OSM    C1117255   4.250   2.887   2.436 -0.1469 -0.1015  0.5007
  155OSM   H11A17256   4.202   2.843   2.346 -1.6267 -0.3683  1.3992
  155OSM   H11B17257   4.339   2.824   2.459  0.3492  0.3316 -0.1843
  155OSM      P17258   4.385   3.097   2.505 -0.3412 -0.0243 -0.1449
  155OSM    O1317259   4.435   3.215   2.427  0.1772 -0.0202  0.4833
  155OSM    O1417260   4.313   3.124   2.632 -1.0113 -0.3735 -0.0135
  155OSM    O1117261   4.505   2.991   2.527  0.2519  0.2168  0.1038
  155OSM    O1217262   4.293   3.018   2.408 -0.0459  0.8560 -0.1185
  155OSM    C1S17263   4.632   3.038   2.574  0.3713  0.2200 -0.3132
  155OSM    H1S17264   4.665   3.128   2.517  0.6471  0.0343 -0.4530
  155OSM    H1T17265   4.710   2.963   2.546 -0.8332 -1.0392 -0.3881
  155OSM     NF17266   4.762   3.113   2.768  0.3784 -0.1642  0.5282
  155OSM    HNF17267   4.820   3.043   2.809 -1.8483 -1.3646  1.8778
  155OSM    C2S17268   4.627   3.069   2.731 -0.7619 -0.2001  0.5514
  155OSM    H2S17269   4.558   3.156   2.737  0.3366  0.7393  0.1156
  155OSM    C3S17270   4.587   2.942   2.809 -0.5227  0.1198  0.2399
  155OSM    H3S17271   4.629   2.847   2.770  1.3572  0.4316  1.4045
  155OSM     O317272   4.450   2.896   2.782 -0.0309 -0.8586  0.0418
  155OSM    HO317273   4.419   2.937   2.701  1.1797 -1.3618 -0.7041
  155OSM    C4S17274   4.596   2.969   2.952 -0.0994  0.0486 -0.4261
  155OSM    H4S17275   4.545   3.057   2.994  3.4442  1.4977  1.2861
  155OSM    C5S17276   4.675   2.898   3.036  0.2697 -0.5986  0.3537
  155OSM    H5S17277   4.744   2.825   2.990  1.0970 -1.1092  2.2534
  155OSM    C6S17278   4.696   2.907   3.186 -1.0397  0.0143  0.6489
  155OSM    H6S17279   4.656   3.003   3.226 -1.7788 -0.1680  0.3646
  155OSM    H6T17280   4.804   2.900   3.211 -0.6083  0.3031 -0.9929
  155OSM    C7S17281   4.628   2.800   3.271  0.2467  0.9749  0.1864
  155OSM    H7S17282   4.655   2.702   3.225  3.5193  1.2584  1.2213
  155OSM    H7T17283   4.519   2.819   3.275  0.3123  1.1709  1.4527
  155OSM    C8S17284   4.678   2.796   3.417  0.2891 -0.1794 -0.1693
  155OSM    H8S17285   4.642   2.890   3.464 -2.0641 -0.9807 -0.2413
  155OSM    H8T17286   4.787   2.775   3.409  0.5891  1.2695 -0.1867
  155OSM    C9S17287   4.620   2.670   3.491 -0.3207 -0.3983 -0.7099
  155OSM    H9S17288   4.666   2.580   3.444 -1.0691 -1.0371 -0.2434
  155OSM    H9T17289   4.512   2.653   3.469 -0.6027 -2.2163  1.7241
  155OSM   C10S17290   4.652   2.676   3.641 -0.1275 -0.4116  0.2693
  155OSM   H10S17291   4.642   2.782   3.673  0.1454  0.0220 -0.9961
  155OSM   H10T17292   4.757   2.640   3.649  0.0241 -0.9764 -2.9193
  155OSM   C11S17293   4.565   2.579   3.717 -0.4698 -0.2030  0.2541
  155OSM   H11S17294   4.464   2.604   3.677 -0.5621 -0.9769 -0.0114
  155OSM   H11T17295   4.573   2.610   3.823  2.5453 -0.4296  0.1649
  155OSM   C12S17296   4.611   2.432   3.699  0.5646  0.3056 -0.0082
  155OSM   H12S17297   4.721   2.431   3.715  0.5797  1.7893  0.0449
  155OSM   H12T17298   4.594   2.388   3.599  1.4798 -0.3858  0.1263
  155OSM   C13S17299   4.533   2.351   3.803  0.1927  0.0025  0.1447
  155OSM   H13S17300   4.424   2.374   3.798  0.5695  1.9053 -0.3336
  155OSM   H13T17301   4.571   2.398   3.896  0.3347  0.1574  0.0114
  155OSM   C14S17302   4.563   2.201   3.796 -0.1155 -0.4721  0.7468
  155OSM   H14S17303   4.672   2.187   3.776 -0.2480  1.0744 -1.4016
  155OSM   H14T17304   4.518   2.163   3.701  0.2065 -1.4203  0.9650
  155OSM   C15S17305   4.500   2.120   3.901  0.1528  0.3475  0.1576
  155OSM   H15S17306   4.391   2.105   3.884  0.2480  0.0367 -0.1887
  155OSM   H15T17307   4.519   2.149   4.007  0.3861 -1.0746  0.5331
  155OSM   C16S17308   4.532   1.971   3.903 -0.7834  0.5499 -0.1974
  155OSM   H16S17309   4.493   1.935   3.805 -1.2147  1.6615 -0.4461
  155OSM   H16T17310   4.474   1.911   3.977  1.9125 -2.2341 -0.1274
  155OSM   C17S17311   4.680   1.934   3.918  0.0964  0.0231  0.0137
  155OSM   H17S17312   4.743   1.969   3.833 -0.6192  0.5983 -0.2938
  155OSM   H17T17313   4.683   1.823   3.923 -0.1153  0.0755  2.0263
  155OSM   C18S17314   4.737   1.983   4.055 -0.1999  0.8366  0.4483
  155OSM   H18S17315   4.763   2.091   4.052  0.8238  0.6223  1.0802
  155OSM   H18T17316   4.835   1.934   4.077 -0.4105  0.0919 -0.2416
  155OSM   H18U17317   4.658   1.960   4.129 -0.0165 -1.5911 -0.0248
  155OSM    C1F17318   4.818   3.231   2.733  0.5111  0.2244  0.2894
  155OSM     OF17319   4.758   3.310   2.659 -0.5505 -0.4987 -0.5234
  155OSM    C2F17320   4.956   3.257   2.789  0.7530 -0.6007 -0.0708
  155OSM    H2F17321   4.996   3.336   2.722 -0.9530  0.6698  0.3441
  155OSM    H2G17322   5.022   3.168   2.783 -0.0587 -1.1808 -0.5787
  155OSM    C3F17323   4.956   3.329   2.924 -0.1594  0.1654 -0.1951
  155OSM    H3F17324   4.879   3.409   2.931 -0.9557 -0.5245 -0.8821
  155OSM    H3G17325   5.060   3.365   2.941 -0.3563 -0.1570  1.9384
  155OSM    C4F17326   4.935   3.231   3.038 -0.4601  0.4522  0.1579
  155OSM    H4F17327   5.011   3.152   3.020 -1.1891 -0.2022 -0.1229
  155OSM    H4G17328   4.835   3.182   3.028 -0.7470  1.1762 -0.7542
  155OSM    C5F17329   4.956   3.290   3.173  0.0907  0.5338  0.2214
  155OSM    H5F17330   4.923   3.396   3.184  2.1928  1.2309  0.1905
  155OSM    H5G17331   5.066   3.291   3.183  0.0700 -0.6225  0.8123
  155OSM    C6F17332   4.892   3.203   3.289 -0.7946  0.5459 -0.4784
  155OSM    H6F17333   4.935   3.105   3.257 -0.6522 -0.0578  1.4421
  155OSM    H6G17334   4.781   3.195   3.291 -0.6842 -1.6204  1.1097
  155OSM    C7F17335   4.958   3.242   3.429  0.2310  0.5613 -0.2840
  155OSM    H7F17336   4.893   3.216   3.515  2.8411 -2.5361  0.9676
  155OSM    H7G17337   4.975   3.350   3.447 -0.6426  0.5802  0.4940
  155OSM    C8F17338   5.090   3.164   3.457  1.4176 -0.0095  0.2756
  155OSM    H8F17339   5.127   3.205   3.553 -3.7237 -2.0533  3.5766
  155OSM    H8G17340   5.154   3.196   3.372  0.2392  1.1754 -0.2115
  155OSM    C9F17341   5.079   3.014   3.455 -0.9135 -0.2399 -0.0778
  155OSM    H9F17342   5.107   2.968   3.359 -2.2172  1.7620 -1.4915
  155OSM   C10F17343   5.046   2.941   3.559  0.4149 -0.7248 -0.8724
  155OSM   H10F17344   5.033   2.832   3.548  0.1860 -0.6077 -1.7947
  155OSM   C11F17345   5.004   2.996   3.694  0.5090  0.7730  0.8563
  155OSM   H11F17346   5.019   3.106   3.701  1.4115  0.7376 -0.2601
  155OSM   H11G17347   5.064   2.944   3.770 -0.5726 -0.7478  0.7226
  155OSM   C12F17348   4.855   2.963   3.727 -0.2383 -0.7105 -0.7504
  155OSM   H12F17349   4.848   2.852   3.721  1.4022 -0.7709 -2.4795
  155OSM   H12G17350   4.779   2.985   3.648 -1.1628  1.7751  0.7103
  155OSM   C13F17351   4.823   3.011   3.873 -0.5048  0.5561  0.1433
  155OSM   H13F17352   4.833   3.120   3.886  2.6614  0.1566  2.1008
  155OSM   H13G17353   4.901   2.966   3.939 -2.1041 -2.0488  0.4246
  155OSM   C14F17354   4.691   2.952   3.905  0.2177  0.8012  0.7261
  155OSM   H14F17355   4.685   2.842   3.899  1.2258  0.7700  0.1633
  155OSM   H14G17356   4.618   2.989   3.829 -0.6242 -0.7605  0.7444
  155OSM   C15F17357   4.639   2.988   4.041 -0.0039 -0.0166  0.5961
  155OSM   H15F17358   4.530   2.965   4.032  0.0841 -0.0951 -0.2967
  155OSM   H15G17359   4.649   3.097   4.057 -2.4063  0.8412 -2.6803
  155OSM   C16F17360   4.707   2.910   4.158  0.0680 -0.3496 -0.5815
  155OSM   H16F17361   4.817   2.926   4.158 -0.2368  2.2415  0.5989
  155OSM   H16G17362   4.687   2.802   4.145 -2.9611 -0.2484  1.8946
  155OSM   C17F17363   4.653   2.961   4.289 -1.0441  0.3432  0.4107
  155OSM   H17F17364   4.637   2.881   4.364 -0.9479  0.3189  0.4045
  155OSM   H17G17365   4.551   2.999   4.263 -0.9049 -0.5531 -1.7041
  155OSM   C18F17366   4.734   3.078   4.347 -0.0285  0.6876 -0.4735
  155OSM   H18F17367   4.688   3.110   4.443  1.7025 -0.2363  0.7141
  155OSM   H18G17368   4.732   3.159   4.272 -0.4006  0.5752 -0.5863
  155OSM   H18H17369   4.841   3.048   4.360 -0.3248 -0.3430 -0.2860
  156OSM      N17370   0.307   2.473   2.029  0.0249 -0.2061  0.0767
  156OSM    C1517371   0.303   2.620   2.003 -0.1609  0.7613 -0.0267
  156OSM   H15A17372   0.377   2.635   1.925  1.1201 -3.1849  0.2269
  156OSM   H15B17373   0.326   2.674   2.094  0.4701 -2.4886  1.9033
  156OSM   H15C17374   0.208   2.646   1.959 -0.1586 -2.1962 -2.0542
  156OSM    C1417375   0.227   2.445   2.149  0.1780  0.7930 -0.6050
  156OSM   H14A17376   0.293   2.463   2.233 -1.2148 -1.3348  1.0533
  156OSM   H14B17377   0.195   2.342   2.162  0.6782  0.9571  2.8000
  156OSM   H14C17378   0.138   2.503   2.167 -0.7468 -0.4941 -0.8480
  156OSM    C1317379   0.256   2.409   1.907 -0.0891  0.1779 -0.5942
  156OSM   H13A17380   0.153   2.441   1.904  0.3762  2.5858  3.1797
  156OSM   H13B17381   0.254   2.301   1.911 -0.9141  0.2355  1.5690
  156OSM   H13C17382   0.300   2.437   1.812 -0.4857  0.9223 -0.5687
  156OSM    C1217383   0.447   2.427   2.049  0.2459 -0.3713 -0.8898
  156OSM   H12A17384   0.513   2.437   1.963 -0.6829 -2.8525 -1.9902
  156OSM   H12B17385   0.446   2.319   2.055 -0.4498 -0.3097  0.2257
  156OSM    C1117386   0.514   2.491   2.179 -0.1261 -0.3983 -0.3300
  156OSM   H11A17387   0.486   2.599   2.182  2.5279  0.3408  1.2482
  156OSM   H11B17388   0.623   2.496   2.157 -0.2967  2.1107 -0.9683
  156OSM      P17389   0.597   2.414   2.420 -0.0760  0.4670  0.5647
  156OSM    O1317390   0.539   2.322   2.518 -0.8920  0.7365  0.2988
  156OSM    O1417391   0.732   2.378   2.371  0.1601  0.2980  0.0056
  156OSM    O1117392   0.605   2.560   2.476  0.3488  0.1006 -0.1745
  156OSM    O1217393   0.489   2.419   2.304 -0.0442 -0.7004  0.1507
  156OSM    C1S17394   0.484   2.637   2.499  0.4953 -0.3911 -0.4139
  156OSM    H1S17395   0.395   2.603   2.441 -0.1322  1.3397 -0.5312
  156OSM    H1T17396   0.501   2.744   2.472 -0.1549  0.2083  1.4337
  156OSM     NF17397   0.310   2.715   2.660  0.5607  0.1422 -0.2952
  156OSM    HNF17398   0.308   2.805   2.703  0.6094 -0.1023  0.2281
  156OSM    C2S17399   0.430   2.637   2.651  0.1006  0.2203  0.1651
  156OSM    H2S17400   0.409   2.537   2.695 -0.2329  0.7758  1.3103
  156OSM    C3S17401   0.540   2.705   2.729  0.3052  0.2641  0.4209
  156OSM    H3S17402   0.547   2.809   2.690 -0.7671 -0.4161 -1.8068
  156OSM     O317403   0.670   2.660   2.708  0.2154 -0.3590 -0.0324
  156OSM    HO317404   0.664   2.621   2.620  0.1832 -0.4553  0.0129
  156OSM    C4S17405   0.506   2.706   2.875 -0.7426 -0.0446  0.2172
  156OSM    H4S17406   0.463   2.801   2.911 -0.9224 -0.3850  0.9060
  156OSM    C5S17407   0.543   2.626   2.976  1.0571 -0.1943 -0.2097
  156OSM    H5S17408   0.601   2.535   2.957 -0.0200 -1.0951  0.6700
  156OSM    C6S17409   0.523   2.651   3.123  0.7988 -0.3458  0.0607
  156OSM    H6S17410   0.555   2.752   3.156  0.0731 -0.6284  1.7911
  156OSM    H6T17411   0.575   2.577   3.188  0.6451 -0.1447  0.4146
  156OSM    C7S17412   0.377   2.662   3.156  0.2331  0.7710 -0.0385
  156OSM    H7S17413   0.322   2.572   3.123 -0.0922  0.8470  0.2928
  156OSM    H7T17414   0.330   2.745   3.100 -0.1820  1.0692  0.7314
  156OSM    C8S17415   0.348   2.694   3.307 -0.5995  0.1317 -0.4711
  156OSM    H8S17416   0.244   2.729   3.322 -0.2008  0.5567  1.6469
  156OSM    H8T17417   0.411   2.773   3.354 -1.0563 -0.9965  2.2665
  156OSM    C9S17418   0.351   2.573   3.402 -0.3149  0.0821  0.6429
  156OSM    H9S17419   0.448   2.521   3.387 -1.0654 -0.6693 -2.4619
  156OSM    H9T17420   0.268   2.501   3.383 -0.8830  1.1237 -1.1023
  156OSM   C10S17421   0.363   2.614   3.547  0.0727  0.4253 -0.1986
  156OSM   H10S17422   0.307   2.536   3.602  0.1605  0.0107 -0.6918
  156OSM   H10T17423   0.322   2.716   3.560 -1.0428  0.0505 -0.7134
  156OSM   C11S17424   0.508   2.597   3.603 -0.3594  0.4335 -1.1442
  156OSM   H11S17425   0.575   2.654   3.534  2.0321 -1.9611 -0.9489
  156OSM   H11T17426   0.545   2.493   3.593  4.1224  1.6070  0.7222
  156OSM   C12S17427   0.527   2.633   3.751 -0.4817 -0.6388  0.3903
  156OSM   H12S17428   0.478   2.732   3.762  1.4379  0.6114 -1.5677
  156OSM   H12T17429   0.634   2.657   3.769 -0.4848 -1.0676  1.0464
  156OSM   C13S17430   0.468   2.532   3.852  0.0857  0.2195  0.8109
  156OSM   H13S17431   0.517   2.434   3.831 -0.2968  0.1946  0.0033
  156OSM   H13T17432   0.358   2.518   3.842 -0.0599  1.6684  0.1855
  156OSM   C14S17433   0.488   2.582   3.997 -0.6961  0.1998  0.0303
  156OSM   H14S17434   0.437   2.679   4.016 -0.4207 -0.0899  2.5596
  156OSM   H14T17435   0.597   2.597   4.010 -0.4528 -1.4718  0.1261
  156OSM   C15S17436   0.431   2.485   4.109 -0.5454 -0.9986  0.1572
  156OSM   H15S17437   0.496   2.395   4.106 -0.4978 -0.9929 -2.8135
  156OSM   H15T17438   0.327   2.460   4.081 -0.3860 -1.2475 -0.2234
  156OSM   C16S17439   0.438   2.554   4.245 -0.5534  0.1852 -0.2983
  156OSM   H16S17440   0.381   2.649   4.235 -2.1654 -0.7524 -0.3604
  156OSM   H16T17441   0.544   2.571   4.273 -0.1518 -2.6650  0.2160
  156OSM   C17S17442   0.377   2.465   4.354  0.3143 -0.1574  0.2301
  156OSM   H17S17443   0.433   2.369   4.346  1.8476  0.3691  3.3045
  156OSM   H17T17444   0.270   2.456   4.325 -0.3571  2.1612  1.7022
  156OSM   C18S17445   0.367   2.528   4.493 -0.5891  0.6349  0.3976
  156OSM   H18S17446   0.314   2.454   4.557  1.2821 -1.4744 -0.3523
  156OSM   H18T17447   0.308   2.623   4.491  0.4056  1.3167  1.9623
  156OSM   H18U17448   0.470   2.543   4.531  0.3118 -0.5428 -1.4461
  156OSM    C1F17449   0.198   2.685   2.607 -0.2542  0.2830  0.5784
  156OSM     OF17450   0.182   2.583   2.543 -0.2390  0.1192 -0.1025
  156OSM    C2F17451   0.087   2.783   2.630  0.4226  0.3316  0.2655
  156OSM    H2F17452   0.023   2.798   2.540 -1.1716  0.4818  1.3823
  156OSM    H2G17453   0.124   2.880   2.669  1.2312  1.0148 -2.0199
  156OSM    C3F17454  -0.023   2.723   2.729 -0.3138  0.5222 -0.4112
  156OSM    H3F17455  -0.071   2.630   2.691 -1.3312  1.2634 -1.0107
  156OSM    H3G17456  -0.100   2.803   2.722  0.3397  1.1107 -1.1941
  156OSM    C4F17457   0.019   2.727   2.870  0.0300  0.1391 -0.5348
  156OSM    H4F17458   0.118   2.676   2.873  0.4051  0.8583 -0.5309
  156OSM    H4G17459  -0.048   2.659   2.926 -0.6011 -1.3880 -2.9787
  156OSM    C5F17460   0.011   2.860   2.940 -0.0808 -0.4294 -0.2774
  156OSM    H5F17461  -0.080   2.911   2.901  0.8597 -0.7970 -3.2243
  156OSM    H5G17462   0.100   2.917   2.904 -0.8557 -0.3951 -2.2596
  156OSM    C6F17463  -0.014   2.838   3.089 -0.0990 -0.1631  0.2558
  156OSM    H6F17464   0.081   2.794   3.128  0.1229 -0.6327 -0.7906
  156OSM    H6G17465  -0.089   2.755   3.093 -0.6579  0.1993 -1.8324
  156OSM    C7F17466  -0.052   2.966   3.160  0.2735  0.2919 -0.6338
  156OSM    H7F17467  -0.155   3.004   3.146  0.0231  0.0211  0.3989
  156OSM    H7G17468   0.014   3.037   3.106 -0.1711 -0.1449 -1.7993
  156OSM    C8F17469  -0.009   2.963   3.307 -0.3948 -0.2922 -0.0398
  156OSM    H8F17470   0.045   3.058   3.331  0.1807  0.1650 -2.7665
  156OSM    H8G17471   0.067   2.883   3.319 -0.4317 -0.6295 -1.7368
  156OSM    C9F17472  -0.120   2.956   3.397 -0.2615  1.0310 -0.0577
  156OSM    H9F17473  -0.220   2.979   3.358  0.3628  2.3050 -0.9922
  156OSM   C10F17474  -0.112   2.904   3.520  0.1074  0.0903 -0.5115
  156OSM   H10F17475  -0.202   2.897   3.584  0.1811  4.8321  0.4722
  156OSM   C11F17476   0.016   2.853   3.589  0.5829 -0.0346 -0.0227
  156OSM   H11F17477   0.109   2.849   3.528 -0.4030 -0.6618 -1.5504
  156OSM   H11G17478  -0.009   2.747   3.611  1.5419 -0.4003 -0.6339
  156OSM   C12F17479   0.055   2.922   3.717 -0.4139 -0.4041  1.0261
  156OSM   H12F17480  -0.019   2.885   3.792 -1.1412 -1.6934 -0.2653
  156OSM   H12G17481   0.052   3.031   3.695 -2.9867 -0.7624 -0.8636
  156OSM   C13F17482   0.195   2.887   3.762 -0.4971 -0.2903  0.1897
  156OSM   H13F17483   0.269   2.906   3.681 -1.5297 -1.0856 -0.9822
  156OSM   H13G17484   0.222   2.780   3.781 -0.2418 -0.5101 -1.2802
  156OSM   C14F17485   0.241   2.980   3.873  0.0662  0.3278 -0.0392
  156OSM   H14F17486   0.238   3.084   3.834  0.5514  0.8113  1.1558
  156OSM   H14G17487   0.349   2.964   3.897 -0.8001 -1.8309  3.1340
  156OSM   C15F17488   0.147   2.960   4.000 -0.6749 -0.4071  0.5183
  156OSM   H15F17489   0.041   2.988   3.982 -0.3479  0.7645  0.3491
  156OSM   H15G17490   0.200   3.020   4.077  3.8574 -0.1233 -2.4065
  156OSM   C16F17491   0.142   2.819   4.045 -0.0999  0.0409 -0.8107
  156OSM   H16F17492   0.242   2.792   4.085  0.1514  0.9359 -0.8074
  156OSM   H16G17493   0.118   2.742   3.968 -2.0605 -2.6645  2.2740
  156OSM   C17F17494   0.032   2.800   4.153 -0.4442  0.6766  0.3937
  156OSM   H17F17495  -0.068   2.802   4.105 -0.1414  0.3289 -0.2630
  156OSM   H17G17496   0.036   2.876   4.234  1.3791 -1.8830  2.9270
  156OSM   C18F17497   0.043   2.655   4.211 -0.2132 -0.2290  0.4480
  156OSM   H18F17498  -0.016   2.636   4.303 -1.0401 -0.7053 -0.1656
  156OSM   H18G17499   0.147   2.624   4.235  0.2951  0.2473 -1.0587
  156OSM   H18H17500   0.006   2.591   4.129  0.5279  1.4878 -1.3049
  157OSM      N17501   0.179   3.266   2.042 -0.2851 -0.0413 -0.6898
  157OSM    C1517502   0.193   3.414   2.021  0.0474 -0.2416 -0.5007
  157OSM   H15A17503   0.099   3.463   2.041 -0.4030 -0.9367 -0.8627
  157OSM   H15B17504   0.244   3.440   1.929 -0.2287  0.8871 -0.3501
  157OSM   H15C17505   0.262   3.450   2.095  1.3854  0.7117 -2.1410
  157OSM    C1417506   0.097   3.221   1.921  0.7355 -0.5354 -0.8042
  157OSM   H14A17507   0.010   3.285   1.917  0.3650 -0.9090  0.6649
  157OSM   H14B17508   0.057   3.122   1.935  0.3147 -0.4317 -1.2315
  157OSM   H14C17509   0.146   3.239   1.826  1.9500 -0.9336 -0.2764
  157OSM    C1317510   0.311   3.199   2.036  0.3908 -0.5589  0.3489
  157OSM   H13A17511   0.381   3.226   2.114 -0.3137 -0.1316  0.8417
  157OSM   H13B17512   0.357   3.221   1.941  1.6256  1.1136  1.2660
  157OSM   H13C17513   0.299   3.094   2.061 -0.9318 -0.0481  2.0637
  157OSM    C1217514   0.098   3.230   2.168  0.7207 -0.3152  0.0311
  157OSM   H12A17515   0.096   3.123   2.174  1.0453 -0.4967 -2.2930
  157OSM   H12B17516  -0.003   3.268   2.165  0.4450 -1.0579 -2.9395
  157OSM    C1117517   0.154   3.283   2.301  0.9047  0.2961 -0.2166
  157OSM   H11A17518   0.071   3.273   2.374 -1.2500 -0.2940 -2.6027
  157OSM   H11B17519   0.174   3.392   2.305  2.0617  0.0656  1.2592
  157OSM      P17520   0.271   3.082   2.424 -0.0045  0.1270 -0.1816
  157OSM    O1317521   0.147   3.004   2.398 -0.0827 -0.4348 -0.7116
  157OSM    O1417522   0.391   3.015   2.377  0.1280 -0.4074 -0.1220
  157OSM    O1117523   0.280   3.123   2.575 -0.0076 -0.1179  0.0702
  157OSM    O1217524   0.268   3.216   2.345  0.0890  0.6523  0.6058
  157OSM    C1S17525   0.386   3.213   2.606 -0.1064  0.0100 -0.0421
  157OSM    H1S17526   0.361   3.313   2.565  2.0174  0.4293 -0.4154
  157OSM    H1T17527   0.483   3.188   2.559 -0.4805  1.3058 -1.6017
  157OSM     NF17528   0.493   3.335   2.798  0.1845  1.0998 -0.6854
  157OSM    HNF17529   0.584   3.299   2.816 -0.8958 -1.1344  0.7560
  157OSM    C2S17530   0.401   3.224   2.754  0.0382 -0.1786 -0.0586
  157OSM    H2S17531   0.306   3.254   2.803  0.9128 -0.7279  2.0956
  157OSM    C3S17532   0.439   3.083   2.820  0.3913 -0.7199  0.1044
  157OSM    H3S17533   0.547   3.060   2.803  0.6536  0.5332 -0.0423
  157OSM     O317534   0.368   2.976   2.762  0.2921 -0.3542 -0.4986
  157OSM    HO317535   0.333   3.022   2.686  2.2257  1.8112 -0.2002
  157OSM    C4S17536   0.442   3.091   2.966 -0.1388 -0.0449 -0.5816
  157OSM    H4S17537   0.543   3.103   3.008 -0.5116 -0.4510  0.4753
  157OSM    C5S17538   0.330   3.069   3.038  0.0173 -0.2331 -0.5578
  157OSM    H5S17539   0.242   3.056   2.974  0.7016  1.7842 -2.0065
  157OSM    C6S17540   0.302   3.069   3.184 -0.0975 -0.2042  0.3170
  157OSM    H6S17541   0.261   2.969   3.207 -0.2838 -0.3404 -0.5699
  157OSM    H6T17542   0.213   3.135   3.199 -0.6362 -0.5810 -1.0742
  157OSM    C7S17543   0.408   3.100   3.294  0.0612 -0.0564  0.1587
  157OSM    H7S17544   0.433   3.208   3.288  2.2094 -0.4487  1.1403
  157OSM    H7T17545   0.495   3.037   3.266  0.7097  0.9984 -0.2229
  157OSM    C8S17546   0.343   3.065   3.428  0.0065 -0.9553  0.4115
  157OSM    H8S17547   0.310   2.959   3.422  1.9915 -1.5839 -0.5727
  157OSM    H8T17548   0.261   3.137   3.447  2.5623  2.3894 -0.3634
  157OSM    C9S17549   0.449   3.078   3.544 -0.1666 -0.5554  0.4642
  157OSM    H9S17550   0.401   3.045   3.639  1.4190  2.0083  2.2815
  157OSM    H9T17551   0.482   3.184   3.552 -0.3773 -0.4802  0.3705
  157OSM   C10S17552   0.564   2.980   3.535  0.2324  0.5285 -0.2333
  157OSM   H10S17553   0.588   2.971   3.427 -4.2381  2.1803 -1.6163
  157OSM   H10T17554   0.534   2.879   3.571 -0.8599  0.8758 -0.1373
  157OSM   C11S17555   0.678   3.017   3.637  0.3318  0.0845 -0.3824
  157OSM   H11S17556   0.683   3.127   3.625 -0.6295  0.0026 -1.7975
  157OSM   H11T17557   0.771   2.967   3.601 -0.3584 -1.4718 -0.0770
  157OSM   C12S17558   0.655   2.989   3.786  0.4718  0.5362 -0.4039
  157OSM   H12S17559   0.654   2.879   3.801  0.6584  0.6610  0.6263
  157OSM   H12T17560   0.553   3.029   3.799  1.0500  1.3379  2.3082
  157OSM   C13S17561   0.753   3.065   3.882 -0.2560 -0.2514  0.7471
  157OSM   H13S17562   0.721   3.171   3.890 -1.1080 -0.4981  0.7418
  157OSM   H13T17563   0.853   3.045   3.839 -0.6907 -0.2654 -0.2967
  157OSM   C14S17564   0.752   2.992   4.009  0.5734  0.1901  0.1024
  157OSM   H14S17565   0.827   3.029   4.082  0.5529  2.2823 -0.8607
  157OSM   H14T17566   0.765   2.883   3.992 -2.2262 -0.4626  1.4885
  157OSM   C15S17567   0.620   2.989   4.095  0.6692  0.1314 -0.2835
  157OSM   H15S17568   0.541   2.958   4.023 -0.8990  0.5199  1.2066
  157OSM   H15T17569   0.600   3.092   4.131  1.9678  0.1563  0.4433
  157OSM   C16S17570   0.627   2.907   4.225 -0.2527 -0.5893 -0.1739
  157OSM   H16S17571   0.718   2.937   4.281 -0.2377 -1.7059  0.4264
  157OSM   H16T17572   0.627   2.803   4.188 -0.9113 -0.7261  0.2027
  157OSM   C17S17573   0.505   2.930   4.309  0.4818 -0.7932  0.7851
  157OSM   H17S17574   0.422   2.896   4.244  0.3239 -0.0516  0.5957
  157OSM   H17T17575   0.494   3.038   4.335  1.3581 -0.7436  0.9685
  157OSM   C18S17576   0.506   2.837   4.429  0.2883 -1.0677 -0.2738
  157OSM   H18S17577   0.549   2.895   4.513 -1.8941  4.6191 -2.5718
  157OSM   H18T17578   0.575   2.752   4.410 -0.1287 -1.5259  0.2083
  157OSM   H18U17579   0.410   2.807   4.478  3.0567 -2.9827  4.7219
  157OSM    C1F17580   0.461   3.464   2.779  0.1388 -0.3498  0.0184
  157OSM     OF17581   0.342   3.494   2.753 -0.4889  0.5994 -0.0290
  157OSM    C2F17582   0.560   3.579   2.800  0.6243 -0.0208 -0.1680
  157OSM    H2F17583   0.548   3.647   2.714 -0.4580 -0.5745 -0.4778
  157OSM    H2G17584   0.665   3.544   2.812  0.4314 -0.0562  1.7676
  157OSM    C3F17585   0.542   3.664   2.932 -1.1594  0.1892 -0.3471
  157OSM    H3F17586   0.452   3.725   2.914 -0.4373  1.5210  0.4363
  157OSM    H3G17587   0.633   3.724   2.955 -0.3821 -1.0284 -0.1066
  157OSM    C4F17588   0.516   3.582   3.059 -0.0293  0.2550  0.2283
  157OSM    H4F17589   0.594   3.510   3.092 -1.0753 -1.7098 -1.3041
  157OSM    H4G17590   0.433   3.512   3.034  0.5341  0.0454 -1.2026
  157OSM    C5F17591   0.450   3.656   3.177 -0.5811  0.3223 -0.3204
  157OSM    H5F17592   0.362   3.714   3.143 -0.2116  1.3677  0.4715
  157OSM    H5G17593   0.521   3.726   3.225 -0.6361 -1.5504  2.7226
  157OSM    C6F17594   0.393   3.553   3.281 -0.4084 -1.0983 -0.5248
  157OSM    H6F17595   0.463   3.468   3.296 -0.7729 -1.0958  1.4780
  157OSM    H6G17596   0.297   3.510   3.245 -1.4486  1.0566 -0.5164
  157OSM    C7F17597   0.379   3.623   3.422 -0.6257 -0.4599  0.6538
  157OSM    H7F17598   0.285   3.680   3.412 -0.5400 -0.6786 -2.3449
  157OSM    H7G17599   0.469   3.689   3.433 -1.3545  0.6101  0.3343
  157OSM    C8F17600   0.365   3.535   3.537 -0.7184  0.4074 -0.8629
  157OSM    H8F17601   0.295   3.454   3.507 -1.8731  1.6816 -1.7435
  157OSM    H8G17602   0.309   3.586   3.618  1.5523 -0.6037  1.4661
  157OSM    C9F17603   0.481   3.467   3.610  0.2467 -0.4175 -0.6327
  157OSM    H9F17604   0.582   3.477   3.569  1.1007 -0.1706  1.4422
  157OSM   C10F17605   0.460   3.403   3.730 -0.4826 -0.3131 -0.1492
  157OSM   H10F17606   0.540   3.353   3.786 -0.6872  0.9042  1.2693
  157OSM   C11F17607   0.327   3.385   3.799  0.8348 -0.1873 -0.0827
  157OSM   H11F17608   0.314   3.281   3.836  0.1455  0.1006  0.5235
  157OSM   H11G17609   0.235   3.418   3.746 -0.3638 -0.0466  1.9490
  157OSM   C12F17610   0.325   3.452   3.937  0.1733 -0.1479 -0.9343
  157OSM   H12F17611   0.311   3.559   3.911 -1.4358 -0.7215 -2.6603
  157OSM   H12G17612   0.420   3.441   3.994 -1.9904  0.1805  3.0551
  157OSM   C13F17613   0.208   3.409   4.028  0.0087  0.9104  0.3857
  157OSM   H13F17614   0.230   3.304   4.055  2.1625  1.0314 -0.7462
  157OSM   H13G17615   0.106   3.406   3.983  0.9057 -3.7739 -1.9314
  157OSM   C14F17616   0.192   3.473   4.161 -0.7400  0.4342  0.0885
  157OSM   H14F17617   0.281   3.494   4.223  0.9822 -0.2456 -2.0211
  157OSM   H14G17618   0.126   3.403   4.216  0.7938 -1.5965 -0.5319
  157OSM   C15F17619   0.131   3.609   4.150 -0.3674 -0.1592  0.9130
  157OSM   H15F17620   0.031   3.604   4.100 -0.6115 -1.6862  1.5037
  157OSM   H15G17621   0.198   3.663   4.080  1.3129 -1.5466  1.3918
  157OSM   C16F17622   0.125   3.689   4.291  0.1759  0.0969  0.7342
  157OSM   H16F17623   0.119   3.798   4.269 -0.6185  0.0184  0.5041
  157OSM   H16G17624   0.225   3.670   4.333 -0.3461 -1.9203  1.1531
  157OSM   C17F17625   0.009   3.643   4.388 -0.5903  0.0275  0.6512
  157OSM   H17F17626   0.021   3.533   4.379 -0.3223  0.1360 -0.5731
  157OSM   H17G17627  -0.094   3.661   4.352  0.4519  2.6003 -1.3997
  157OSM   C18F17628   0.020   3.684   4.531 -0.2931 -0.8227 -0.1926
  157OSM   H18F17629   0.023   3.795   4.527 -0.4489 -0.8435 -3.4710
  157OSM   H18G17630   0.104   3.647   4.594 -0.3932  1.4466  1.4100
  157OSM   H18H17631  -0.078   3.665   4.580 -1.3311 -2.1151 -2.5767
  158OSM      N17632   4.555   0.706   2.041 -0.5000  0.4953  0.1203
  158OSM    C1517633   4.674   0.768   1.973 -0.4688  0.3851 -0.4878
  158OSM   H15A17634   4.749   0.780   2.049 -0.5425  1.0973 -0.5221
  158OSM   H15B17635   4.660   0.863   1.923  0.0184  1.5593  1.5047
  158OSM   H15C17636   4.723   0.708   1.898  1.4976 -0.4230  1.3552
  158OSM    C1417637   4.508   0.811   2.143 -0.2171 -0.0014 -0.1513
  158OSM   H14A17638   4.410   0.794   2.186 -0.6322  0.8609 -0.7191
  158OSM   H14B17639   4.494   0.902   2.087  2.3547 -1.6825 -3.8988
  158OSM   H14C17640   4.579   0.821   2.224 -0.5074 -1.7223  0.3553
  158OSM    C1317641   4.453   0.694   1.933  0.1859 -0.0139 -0.5692
  158OSM   H13A17642   4.367   0.641   1.970  0.2582  0.6023  0.5072
  158OSM   H13B17643   4.494   0.634   1.853  1.8028 -0.4463  0.5445
  158OSM   H13C17644   4.438   0.796   1.902  1.5578  0.2273 -0.5210
  158OSM    C1217645   4.585   0.563   2.092 -0.0530 -0.4379 -0.7081
  158OSM   H12A17646   4.626   0.496   2.018  0.1093 -3.3794  1.8043
  158OSM   H12B17647   4.487   0.523   2.115 -0.3774  0.4579 -0.4755
  158OSM    C1117648   4.684   0.539   2.215 -0.7951  0.0890  0.0877
  158OSM   H11A17649   4.661   0.437   2.253  0.3777  0.1661  1.0873
  158OSM   H11B17650   4.667   0.612   2.297  1.7080 -0.1949  0.9593
  158OSM      P17651   4.895   0.457   2.071  0.3213 -0.0337 -0.1465
  158OSM    O1317652   4.796   0.413   1.970 -0.5959 -0.0050  0.0145
  158OSM    O1417653   5.010   0.527   2.018 -0.5363  0.4360  0.0433
  158OSM    O1117654   4.940   0.339   2.158  0.6736 -0.2051 -0.1768
  158OSM    O1217655   4.821   0.556   2.175 -0.6257 -0.2791  0.1119
  158OSM    C1S17656   5.017   0.358   2.278  0.1086 -0.2583  0.3861
  158OSM    H1S17657   5.073   0.454   2.279 -1.8526  1.0070 -1.5165
  158OSM    H1T17658   5.096   0.281   2.289  0.1533 -0.0859  1.3662
  158OSM     NF17659   5.021   0.401   2.516 -0.3433 -0.2279 -0.5728
  158OSM    HNF17660   5.033   0.328   2.582  0.7613 -0.2028 -0.7254
  158OSM    C2S17661   4.931   0.370   2.411  1.4521  0.6507  0.1718
  158OSM    H2S17662   4.868   0.461   2.402  0.0985 -0.1119  1.5290
  158OSM    C3S17663   4.837   0.250   2.430  0.9703 -0.1052  0.0453
  158OSM    H3S17664   4.907   0.164   2.436  1.1395  0.0968  1.4376
  158OSM     O317665   4.761   0.206   2.311 -0.3657 -0.7386 -0.9987
  158OSM    HO317666   4.818   0.256   2.252  0.0130  0.6820  0.5038
  158OSM    C4S17667   4.748   0.262   2.560 -0.5941  0.0246  0.2772
  158OSM    H4S17668   4.807   0.262   2.653  0.4224  1.3932 -0.3325
  158OSM    C5S17669   4.621   0.305   2.563  0.0519 -0.5468  0.2100
  158OSM    H5S17670   4.580   0.327   2.464 -0.6136 -0.0679  0.5820
  158OSM    C6S17671   4.540   0.335   2.682  0.5575  0.5779 -0.1066
  158OSM    H6S17672   4.433   0.305   2.674  1.1518 -1.4968 -0.6975
  158OSM    H6T17673   4.537   0.445   2.702  1.2243  0.1124  3.1250
  158OSM    C7S17674   4.582   0.264   2.818 -0.1766  0.2045  0.1520
  158OSM    H7S17675   4.693   0.265   2.825 -0.2206 -0.6664  1.2499
  158OSM    H7T17676   4.558   0.156   2.813 -1.4070  0.2476  3.0591
  158OSM    C8S17677   4.521   0.325   2.946 -0.1485 -0.9808  0.6237
  158OSM    H8S17678   4.420   0.278   2.953 -1.3494  0.8576 -2.2349
  158OSM    H8T17679   4.507   0.435   2.936 -2.3556 -1.2953 -0.4668
  158OSM    C9S17680   4.593   0.277   3.068 -0.9913  0.4490  0.0394
  158OSM    H9S17681   4.693   0.324   3.072 -0.6646 -0.2296  0.1318
  158OSM    H9T17682   4.616   0.168   3.059  1.1476  0.8672  0.0480
  158OSM   C10S17683   4.505   0.279   3.194 -0.3287 -0.4878  0.5843
  158OSM   H10S17684   4.412   0.222   3.176 -0.5387  0.2207 -0.6913
  158OSM   H10T17685   4.461   0.381   3.202 -0.7145 -0.7348  1.8689
  158OSM   C11S17686   4.571   0.236   3.330  0.6537 -0.8631 -0.1668
  158OSM   H11S17687   4.666   0.292   3.330 -0.0133  0.3867 -2.1319
  158OSM   H11T17688   4.601   0.129   3.320 -1.4208 -1.3462 -2.1307
  158OSM   C12S17689   4.478   0.264   3.444 -0.1181  0.2534 -0.0376
  158OSM   H12S17690   4.396   0.195   3.414 -0.1051  0.5455 -0.7494
  158OSM   H12T17691   4.436   0.367   3.442 -3.4941 -0.9378  1.0336
  158OSM   C13S17692   4.526   0.228   3.587  0.0469 -1.0138  0.0058
  158OSM   H13S17693   4.625   0.278   3.596 -0.2238 -0.4234 -0.2335
  158OSM   H13T17694   4.547   0.120   3.602  3.8916 -0.5459 -0.9503
  158OSM   C14S17695   4.429   0.276   3.698  0.6808 -0.2727 -0.0061
  158OSM   H14S17696   4.338   0.213   3.688  1.2153 -1.2658  1.1744
  158OSM   H14T17697   4.398   0.383   3.689 -0.0003 -0.3851  0.9312
  158OSM   C15S17698   4.485   0.253   3.839 -0.3414 -0.4592 -0.5216
  158OSM   H15S17699   4.579   0.308   3.860  0.4741 -0.8586 -2.7688
  158OSM   H15T17700   4.502   0.145   3.861  0.1251 -0.2227  0.2851
  158OSM   C16S17701   4.382   0.310   3.946 -0.3620  0.0478  0.4054
  158OSM   H16S17702   4.292   0.245   3.950  0.8936 -1.7286  3.6448
  158OSM   H16T17703   4.351   0.413   3.918  2.0626  0.7219 -0.0004
  158OSM   C17S17704   4.446   0.316   4.086 -0.2355  0.2035  1.0805
  158OSM   H17S17705   4.532   0.386   4.080  1.4501 -1.8604 -2.8063
  158OSM   H17T17706   4.479   0.212   4.107  0.6334  0.0764 -0.6917
  158OSM   C18S17707   4.347   0.361   4.187  0.4129  0.0059 -0.4372
  158OSM   H18S17708   4.365   0.318   4.288 -1.7228 -2.0373 -0.8259
  158OSM   H18T17709   4.245   0.326   4.159  0.3183 -1.1063  1.1523
  158OSM   H18U17710   4.343   0.472   4.192  1.1184  0.0647 -1.0852
  158OSM    C1F17711   5.098   0.513   2.528  0.1970 -0.4281 -0.3773
  158OSM     OF17712   5.078   0.610   2.459  0.1793 -0.2952  0.0009
  158OSM    C2F17713   5.215   0.516   2.626 -0.3469 -0.1959 -0.5332
  158OSM    H2F17714   5.284   0.601   2.606  0.5579 -0.6510  0.5568
  158OSM    H2G17715   5.262   0.415   2.630  0.2052  0.0950  0.8227
  158OSM    C3F17716   5.169   0.535   2.772 -0.0490 -0.1803  0.5026
  158OSM    H3F17717   5.250   0.499   2.839 -0.9601 -1.3397  1.0091
  158OSM    H3G17718   5.074   0.485   2.798 -2.0955  3.0783 -0.1333
  158OSM    C4F17719   5.144   0.681   2.809  0.8605 -0.8737 -0.0420
  158OSM    H4F17720   5.076   0.716   2.729  1.3134 -1.6597 -0.7896
  158OSM    H4G17721   5.233   0.747   2.807  1.7301 -1.7916  2.6969
  158OSM    C5F17722   5.084   0.700   2.951 -0.5111 -0.4541 -0.2038
  158OSM    H5F17723   5.008   0.628   2.987  0.3951 -1.0444  0.5462
  158OSM    H5G17724   5.044   0.801   2.975  3.4076  0.8003  1.9683
  158OSM    C6F17725   5.194   0.681   3.061  0.1331  0.3021 -0.0230
  158OSM    H6F17726   5.272   0.759   3.048 -0.1505  0.6788  0.4818
  158OSM    H6G17727   5.222   0.574   3.049  1.1517  0.8256 -3.0730
  158OSM    C7F17728   5.142   0.689   3.207  0.4921 -0.3631 -0.4667
  158OSM    H7F17729   5.062   0.614   3.225  1.1401 -1.1737 -0.8994
  158OSM    H7G17730   5.093   0.788   3.226 -0.8290 -1.0010 -0.4110
  158OSM    C8F17731   5.249   0.671   3.310 -0.1919  0.2783 -0.1938
  158OSM    H8F17732   5.279   0.565   3.320  3.6474  1.2044 -0.5126
  158OSM    H8G17733   5.211   0.700   3.410  0.6423  0.7256  0.0035
  158OSM    C9F17734   5.375   0.755   3.283  0.0198  0.0390 -0.6420
  158OSM    H9F17735   5.428   0.708   3.199 -1.1789 -2.8984  0.1283
  158OSM   C10F17736   5.441   0.845   3.362  0.1196 -0.1532 -0.1635
  158OSM   H10F17737   5.520   0.905   3.316 -0.7022  0.1967 -1.1531
  158OSM   C11F17738   5.387   0.882   3.497  1.0714  0.0384  0.0002
  158OSM   H11F17739   5.461   0.842   3.569  0.6542 -3.8462 -1.4851
  158OSM   H11G17740   5.290   0.836   3.529  0.7386 -0.3508 -1.4906
  158OSM   C12F17741   5.381   1.039   3.508  0.0323 -0.1266  0.0156
  158OSM   H12F17742   5.312   1.080   3.432 -1.5585 -1.7302  0.5111
  158OSM   H12G17743   5.488   1.067   3.499  1.0654 -3.4266  0.4879
  158OSM   C13F17744   5.344   1.085   3.649 -0.4982 -0.3183 -0.5371
  158OSM   H13F17745   5.406   1.028   3.721 -0.2817 -1.3146 -1.4827
  158OSM   H13G17746   5.238   1.057   3.666 -0.0828 -0.9105  1.2636
  158OSM   C14F17747   5.355   1.234   3.674 -0.3343  0.2758  0.6748
  158OSM   H14F17748   5.284   1.289   3.609  0.0802 -1.7136 -1.6178
  158OSM   H14G17749   5.452   1.268   3.631 -1.9819  2.4124 -1.5789
  158OSM   C15F17750   5.334   1.271   3.820 -0.1672 -0.4826 -0.6884
  158OSM   H15F17751   5.415   1.237   3.888 -0.5398  0.6147  0.3355
  158OSM   H15G17752   5.246   1.212   3.853 -0.2101 -0.1968 -0.2852
  158OSM   C16F17753   5.312   1.419   3.857 -0.0380  0.6403  0.3183
  158OSM   H16F17754   5.222   1.452   3.802  0.6546  0.0392 -1.2262
  158OSM   H16G17755   5.398   1.487   3.833  2.1956 -1.3943  2.0440
  158OSM   C17F17756   5.291   1.423   4.004 -0.3039  0.1868 -0.3095
  158OSM   H17F17757   5.374   1.378   4.061 -1.0568 -1.2667 -0.3159
  158OSM   H17G17758   5.211   1.353   4.037  0.2789 -1.1369 -1.5969
  158OSM   C18F17759   5.260   1.564   4.055  0.1800  0.1363 -0.1973
  158OSM   H18F17760   5.215   1.564   4.156 -0.3281 -1.4265 -0.4010
  158OSM   H18G17761   5.188   1.618   3.989 -0.4629  1.8723  1.8263
  158OSM   H18H17762   5.351   1.627   4.064  1.2514 -1.1114 -1.7411
  159OSM      N17763   5.364   4.399   2.323 -0.3332  0.6905 -0.5009
  159OSM    C1517764   5.276   4.314   2.241  0.0382 -0.1938  0.2192
  159OSM   H15A17765   5.315   4.315   2.140 -1.1980 -1.1924 -0.3030
  159OSM   H15B17766   5.179   4.361   2.228  0.1956  0.1551  0.3249
  159OSM   H15C17767   5.270   4.207   2.259 -0.6664 -0.8584 -3.1760
  159OSM    C1417768   5.325   4.388   2.467  0.2957 -0.2500 -0.3472
  159OSM   H14A17769   5.358   4.290   2.498  1.3613  0.4754  0.9110
  159OSM   H14B17770   5.221   4.411   2.485  0.4411  2.2636 -2.1567
  159OSM   H14C17771   5.381   4.461   2.523  0.2885  1.4058 -2.3886
  159OSM    C1317772   5.506   4.350   2.308 -0.2460  0.2025 -0.2548
  159OSM   H13A17773   5.534   4.351   2.204 -1.0447  0.5939 -0.4807
  159OSM   H13B17774   5.515   4.251   2.349  3.4493  0.4210 -0.2583
  159OSM   H13C17775   5.575   4.415   2.359  2.3849 -2.3388 -0.3700
  159OSM    C1217776   5.355   4.544   2.266  0.3979 -0.5987  0.2971
  159OSM   H12A17777   5.419   4.595   2.336 -0.5102  1.3385 -0.2165
  159OSM   H12B17778   5.253   4.576   2.275  0.6696 -0.3723  3.7355
  159OSM    C1117779   5.401   4.578   2.119  0.6640 -0.2615 -0.3175
  159OSM   H11A17780   5.394   4.688   2.104  1.1214 -0.1972 -0.0915
  159OSM   H11B17781   5.328   4.532   2.050 -0.9540 -1.7779  2.2350
  159OSM      P17782   5.659   4.644   2.106  0.2944 -0.4741 -0.4151
  159OSM    O1317783   5.765   4.587   2.024 -0.5542 -0.0218 -0.1260
  159OSM    O1417784   5.611   4.780   2.065  0.0814 -0.3219  0.2562
  159OSM    O1117785   5.700   4.650   2.258  0.4144  0.4535 -0.0239
  159OSM    O1217786   5.537   4.545   2.099  0.0647  0.0573 -0.2406
  159OSM    C1S17787   5.644   4.749   2.345 -0.0632 -0.1832  0.0981
  159OSM    H1S17788   5.545   4.783   2.309 -0.0734 -1.0185 -0.6882
  159OSM    H1T17789   5.709   4.839   2.354  2.1041 -1.7860  1.5852
  159OSM     NF17790   5.567   4.795   2.566 -0.0294  0.5547  0.0981
  159OSM    HNF17791   5.617   4.851   2.631  0.8383 -0.2851  0.1715
  159OSM    C2S17792   5.634   4.695   2.489  0.5167  0.2220  0.0984
  159OSM    H2S17793   5.567   4.607   2.480 -1.5692  1.8568 -1.5365
  159OSM    C3S17794   5.770   4.653   2.548  0.0029 -0.2676  0.2985
  159OSM    H3S17795   5.837   4.741   2.544 -1.6013  1.0256  0.5020
  159OSM     O317796   5.827   4.557   2.460 -0.2582  0.5151  0.6873
  159OSM    HO317797   5.769   4.573   2.385 -1.3808  1.9706  1.7945
  159OSM    C4S17798   5.760   4.604   2.693  0.1822 -0.9091 -0.1506
  159OSM    H4S17799   5.780   4.678   2.771 -0.5287 -1.4202  0.5329
  159OSM    C5S17800   5.766   4.473   2.730  0.1685  0.6532 -0.0294
  159OSM    H5S17801   5.770   4.394   2.653  0.3271 -0.0290  0.6572
  159OSM    C6S17802   5.781   4.412   2.868  0.3356  0.5063  0.0472
  159OSM    H6S17803   5.872   4.349   2.875  1.4298  1.7454 -2.1160
  159OSM    H6T17804   5.701   4.339   2.893 -0.3541  0.4995 -1.9978
  159OSM    C7S17805   5.801   4.517   2.981 -0.9173 -0.2685 -0.4730
  159OSM    H7S17806   5.727   4.600   2.983  0.5793  1.0990  0.7771
  159OSM    H7T17807   5.899   4.565   2.967 -0.9131 -0.1450 -0.0367
  159OSM    C8S17808   5.800   4.446   3.122  0.4286  0.4387  0.4202
  159OSM    H8S17809   5.873   4.363   3.133  0.0076  0.1597  1.2100
  159OSM    H8T17810   5.700   4.397   3.126  0.5708 -0.1880 -2.0059
  159OSM    C9S17811   5.818   4.550   3.234 -0.1667  0.6159 -0.1625
  159OSM    H9S17812   5.760   4.638   3.201 -0.4290  0.3212 -0.4966
  159OSM    H9T17813   5.925   4.575   3.253 -0.0210  1.0932 -1.5386
  159OSM   C10S17814   5.751   4.505   3.364  0.1685  1.1032 -0.7643
  159OSM   H10S17815   5.814   4.421   3.401  0.1849  1.5979  0.3727
  159OSM   H10T17816   5.651   4.464   3.337  1.1269 -1.4258 -0.7214
  159OSM   C11S17817   5.747   4.597   3.481  0.3452  0.3477  0.0308
  159OSM   H11S17818   5.706   4.696   3.454  1.2688  0.3975 -1.2468
  159OSM   H11T17819   5.854   4.604   3.510  0.0431  1.5795  0.9458
  159OSM   C12S17820   5.667   4.545   3.608 -0.3244 -0.2154  0.6032
  159OSM   H12S17821   5.714   4.450   3.643  1.2596 -0.0176 -0.8582
  159OSM   H12T17822   5.559   4.532   3.589 -0.5093  1.1750  0.6235
  159OSM   C13S17823   5.687   4.640   3.727 -0.0493 -0.0755 -0.6582
  159OSM   H13S17824   5.666   4.747   3.707 -0.3809  0.4480  2.1126
  159OSM   H13T17825   5.796   4.645   3.746 -0.5441  0.3195  2.6197
  159OSM   C14S17826   5.593   4.601   3.846 -0.4352 -0.2484 -0.5547
  159OSM   H14S17827   5.614   4.501   3.890 -1.1555 -1.5719 -3.0166
  159OSM   H14T17828   5.488   4.609   3.811 -0.6363  0.4980  0.1920
  159OSM   C15S17829   5.619   4.695   3.970  0.2230  0.1855  0.2654
  159OSM   H15S17830   5.636   4.789   3.913  0.2130  0.6287  0.9935
  159OSM   H15T17831   5.715   4.671   4.019  0.6243  1.1460 -0.0242
  159OSM   C16S17832   5.510   4.706   4.076  0.0624 -0.4366  0.3855
  159OSM   H16S17833   5.471   4.605   4.101  1.6736 -1.2561 -0.2343
  159OSM   H16T17834   5.420   4.750   4.028  0.3787 -0.7564 -0.5309
  159OSM   C17S17835   5.559   4.766   4.202 -0.3025 -0.1398 -0.0044
  159OSM   H17S17836   5.636   4.844   4.183  0.1267 -0.4053  0.6040
  159OSM   H17T17837   5.623   4.693   4.256 -0.1878  0.4755  0.7158
  159OSM   C18S17838   5.453   4.821   4.290  0.1975 -0.3889  0.3667
  159OSM   H18S17839   5.376   4.743   4.311 -0.0264 -0.1369  0.4937
  159OSM   H18T17840   5.398   4.905   4.243  0.4594 -0.8698 -0.8517
  159OSM   H18U17841   5.491   4.859   4.387 -0.3736  1.6909 -0.1741
  159OSM    C1F17842   5.436   4.812   2.577 -0.1519 -0.0220  0.2262
  159OSM     OF17843   5.363   4.738   2.507  0.5391  0.0424 -0.6928
  159OSM    C2F17844   5.390   4.901   2.684  1.2535 -0.0262 -0.2256
  159OSM    H2F17845   5.377   5.009   2.662 -1.0805  0.5766  3.3067
  159OSM    H2G17846   5.458   4.892   2.771 -0.4995 -1.7421  1.0652
  159OSM    C3F17847   5.251   4.871   2.740  0.1237 -0.1052 -0.5717
  159OSM    H3F17848   5.249   4.762   2.760  1.4680  0.0480  0.4963
  159OSM    H3G17849   5.168   4.887   2.667 -0.1253  0.3611 -0.1937
  159OSM    C4F17850   5.212   4.956   2.866  0.2990  0.9159  0.6969
  159OSM    H4F17851   5.103   4.936   2.876  0.2261  1.0854  0.2775
  159OSM    H4G17852   5.226   5.065   2.849 -2.1717  1.0527 -0.9208
  159OSM    C5F17853   5.271   4.894   2.998  1.0926 -0.1074 -0.6183
  159OSM    H5F17854   5.251   4.955   3.089 -0.7295 -2.1735  0.4406
  159OSM    H5G17855   5.382   4.884   2.988  1.0074 -0.1937 -1.5618
  159OSM    C6F17856   5.229   4.755   3.044 -0.3263 -0.8833  0.0383
  159OSM    H6F17857   5.231   4.687   2.956 -0.0796  3.0638 -3.3242
  159OSM    H6G17858   5.121   4.763   3.070  0.4664  1.2471  3.1163
  159OSM    C7F17859   5.317   4.698   3.160  0.1244 -0.0563 -0.0004
  159OSM    H7F17860   5.425   4.710   3.140 -0.0990 -0.0183 -1.2820
  159OSM    H7G17861   5.290   4.590   3.159 -2.4235  0.4919 -2.1532
  159OSM    C8F17862   5.288   4.766   3.296 -0.3912 -0.0490 -0.6003
  159OSM    H8F17863   5.179   4.773   3.320 -0.5469  0.0472 -1.3144
  159OSM    H8G17864   5.313   4.872   3.274 -0.4648 -0.1735 -1.2968
  159OSM    C9F17865   5.363   4.714   3.416 -0.7872  0.5299 -0.2220
  159OSM    H9F17866   5.462   4.674   3.390 -0.9910  0.1551 -0.4301
  159OSM   C10F17867   5.327   4.726   3.547  0.0554 -0.6168  0.4774
  159OSM   H10F17868   5.400   4.686   3.619  1.2921  0.8194  0.0714
  159OSM   C11F17869   5.216   4.814   3.604  0.2777  0.2737 -0.1458
  159OSM   H11F17870   5.163   4.868   3.522 -1.7368 -0.5021  0.5671
  159OSM   H11G17871   5.262   4.892   3.669 -2.4742  0.8851  1.2525
  159OSM   C12F17872   5.111   4.734   3.683 -0.3814  0.1617  0.2586
  159OSM   H12F17873   5.068   4.655   3.618  0.1625 -0.0288  0.1223
  159OSM   H12G17874   5.024   4.801   3.697 -1.0676 -0.5803 -0.3701
  159OSM   C13F17875   5.168   4.668   3.807  0.3844  0.7170  0.2615
  159OSM   H13F17876   5.206   4.746   3.876  4.1617 -1.4101  0.8685
  159OSM   H13G17877   5.245   4.593   3.778  0.2803  0.8616 -0.4104
  159OSM   C14F17878   5.063   4.575   3.880  0.1407 -0.0262 -0.6390
  159OSM   H14F17879   5.027   4.488   3.822 -1.6566 -0.0654  0.4321
  159OSM   H14G17880   4.980   4.646   3.903 -0.9434 -1.5331  0.2297
  159OSM   C15F17881   5.113   4.533   4.019 -0.1453 -0.6586  0.1471
  159OSM   H15F17882   5.036   4.485   4.084  0.9192 -1.1133  1.1081
  159OSM   H15G17883   5.164   4.615   4.074  0.1730  0.2861 -1.4778
  159OSM   C16F17884   5.215   4.423   4.012 -0.2508  0.2636  0.0090
  159OSM   H16F17885   5.309   4.446   3.958 -0.3758 -0.1565 -0.3914
  159OSM   H16G17886   5.175   4.337   3.954  1.8129 -0.0701 -1.0118
  159OSM   C17F17887   5.255   4.366   4.149 -1.4007 -0.0680  0.4322
  159OSM   H17F17888   5.172   4.332   4.215 -0.7371 -2.6407  0.0477
  159OSM   H17G17889   5.321   4.440   4.201  0.4864 -1.6368  0.3824
  159OSM   C18F17890   5.336   4.230   4.150  0.0724  0.1269  0.9020
  159OSM   H18F17891   5.375   4.196   4.248  0.7354 -2.4660 -0.1781
  159OSM   H18G17892   5.418   4.234   4.075 -2.3227 -0.0581 -1.9520
  159OSM   H18H17893   5.278   4.142   4.115  0.7525  0.4431 -1.1807
  160OSM      N17894   3.376   2.714   1.748  0.5323  0.1558 -0.0080
  160OSM    C1517895   3.229   2.755   1.742  0.0983 -0.3295 -0.7168
  160OSM   H15A17896   3.201   2.807   1.652  0.0854  0.3119 -0.3481
  160OSM   H15B17897   3.194   2.823   1.818 -1.5585 -0.3645 -1.3958
  160OSM   H15C17898   3.172   2.663   1.744 -0.7806  0.1674  2.1321
  160OSM    C1417899   3.401   2.639   1.619 -0.6493 -0.2336  0.2502
  160OSM   H14A17900   3.371   2.694   1.531  0.3178 -1.1413 -0.6850
  160OSM   H14B17901   3.347   2.545   1.620 -0.8592 -0.1733 -1.6269
  160OSM   H14C17902   3.507   2.620   1.611 -0.4682  0.5865  0.6680
  160OSM    C1317903   3.465   2.837   1.747 -0.3042 -0.2872  0.0561
  160OSM   H13A17904   3.457   2.890   1.841 -2.4820  0.7580 -0.6625
  160OSM   H13B17905   3.441   2.908   1.670  1.3992  1.5367  1.1124
  160OSM   H13C17906   3.567   2.806   1.727 -0.4451 -0.9443  0.3361
  160OSM    C1217907   3.405   2.622   1.864 -0.2057  0.1393  0.1211
  160OSM   H12A17908   3.512   2.610   1.867 -0.1629  0.6948  2.1439
  160OSM   H12B17909   3.367   2.528   1.825 -0.8737  1.4388 -2.5773
  160OSM    C1117910   3.363   2.660   2.006  0.1012 -0.3550 -0.1431
  160OSM   H11A17911   3.385   2.567   2.063  0.7683 -0.7558 -1.0230
  160OSM   H11B17912   3.252   2.667   1.997  0.2703  0.0939 -2.5997
  160OSM      P17913   3.581   2.759   2.095  0.0700  0.2455  0.4156
  160OSM    O1317914   3.652   2.667   2.009 -0.1328  0.4105  0.2038
  160OSM    O1417915   3.643   2.891   2.114  0.5495 -0.3641  0.0473
  160OSM    O1117916   3.561   2.696   2.234 -0.1804 -0.5581 -0.2764
  160OSM    O1217917   3.431   2.777   2.047 -0.0205  0.0144  0.2880
  160OSM    C1S17918   3.477   2.757   2.336  0.6814  0.0175 -0.2145
  160OSM    H1S17919   3.370   2.744   2.310  0.9150  0.6161 -1.5452
  160OSM    H1T17920   3.493   2.867   2.345  1.5829 -0.1082 -0.2337
  160OSM     NF17921   3.443   2.789   2.593  0.4016 -0.4172  0.2799
  160OSM    HNF17922   3.501   2.837   2.658 -0.1781 -0.3937  0.7833
  160OSM    C2S17923   3.501   2.710   2.487 -0.1922  0.6841 -0.6906
  160OSM    H2S17924   3.458   2.608   2.486  1.2945  0.0257 -0.6355
  160OSM    C3S17925   3.652   2.689   2.522  0.3985 -0.5000  0.4448
  160OSM    H3S17926   3.695   2.792   2.526  0.5076 -0.4401 -1.5283
  160OSM     O317927   3.722   2.627   2.418 -0.0357  0.1765 -0.3041
  160OSM    HO317928   3.679   2.657   2.338  2.2568 -1.7590 -2.4326
  160OSM    C4S17929   3.687   2.622   2.655  0.0478  0.4993 -0.5201
  160OSM    H4S17930   3.710   2.695   2.733  0.2175 -0.8331  0.7275
  160OSM    C5S17931   3.685   2.491   2.682 -0.3342 -0.7670 -0.1724
  160OSM    H5S17932   3.664   2.418   2.602  0.3232 -2.3023  1.0061
  160OSM    C6S17933   3.704   2.427   2.820 -0.0951  0.2618  0.6390
  160OSM    H6S17934   3.784   2.350   2.818 -0.0285  0.3323 -1.3030
  160OSM    H6T17935   3.612   2.373   2.850 -1.7862  0.4999 -3.4265
  160OSM    C7S17936   3.751   2.525   2.930 -0.0819 -0.0619 -0.0115
  160OSM    H7S17937   3.665   2.596   2.931 -0.1767 -0.0825 -2.2258
  160OSM    H7T17938   3.851   2.570   2.911  0.2281  0.8700  3.1087
  160OSM    C8S17939   3.763   2.458   3.066  0.0733 -0.2629  0.3057
  160OSM    H8S17940   3.861   2.407   3.065  0.5134  0.5560 -1.1045
  160OSM    H8T17941   3.684   2.381   3.080  0.2594 -0.3597  0.8700
  160OSM    C9S17942   3.751   2.563   3.182 -0.0189 -0.3163  0.2327
  160OSM    H9S17943   3.645   2.597   3.187  0.3326  0.7437  0.8257
  160OSM    H9T17944   3.819   2.651   3.176 -0.4788  0.0044 -0.3821
  160OSM   C10S17945   3.788   2.498   3.315 -0.1858  0.5515  0.2903
  160OSM   H10S17946   3.892   2.461   3.303  0.9639  3.4442  0.6623
  160OSM   H10T17947   3.720   2.409   3.316 -0.4301  0.7003 -0.9263
  160OSM   C11S17948   3.774   2.579   3.437 -0.2815 -0.1948 -0.4534
  160OSM   H11S17949   3.853   2.657   3.439 -1.6323  1.2564 -0.8729
  160OSM   H11T17950   3.794   2.514   3.525 -0.7473 -0.4543 -0.5349
  160OSM   C12S17951   3.648   2.666   3.452  0.4275 -0.8623 -0.2208
  160OSM   H12S17952   3.560   2.617   3.404  0.1650  1.2772 -2.1079
  160OSM   H12T17953   3.655   2.761   3.395 -1.3603 -1.9157 -2.3903
  160OSM   C13S17954   3.599   2.692   3.600 -0.0898  0.5438 -0.3602
  160OSM   H13S17955   3.581   2.598   3.657  0.7079  1.3425  1.3017
  160OSM   H13T17956   3.503   2.745   3.591 -1.2496 -1.4997 -0.7129
  160OSM   C14S17957   3.693   2.779   3.681 -0.2492 -0.0175  0.4299
  160OSM   H14S17958   3.702   2.870   3.619  1.2096 -0.4792 -0.0887
  160OSM   H14T17959   3.796   2.737   3.686  0.9145  2.2723 -1.9484
  160OSM   C15S17960   3.626   2.826   3.808  0.6580  0.6854 -1.1664
  160OSM   H15S17961   3.585   2.739   3.863 -0.9925  0.4707 -2.6377
  160OSM   H15T17962   3.540   2.893   3.789 -0.8442 -0.0847  2.2528
  160OSM   C16S17963   3.718   2.917   3.898 -0.3358  0.7202  0.0134
  160OSM   H16S17964   3.709   3.021   3.858 -2.2497  0.6916  0.3027
  160OSM   H16T17965   3.826   2.892   3.889  0.1308  2.3373  0.6337
  160OSM   C17S17966   3.669   2.917   4.042 -0.0982  0.8997  0.3212
  160OSM   H17S17967   3.560   2.895   4.045 -0.1319  1.0495  0.2409
  160OSM   H17T17968   3.673   3.024   4.074 -1.9950  0.7467  1.1980
  160OSM   C18S17969   3.747   2.823   4.131  0.3949  0.5539 -0.5244
  160OSM   H18S17970   3.719   2.727   4.083 -3.7164  1.4411 -0.2214
  160OSM   H18T17971   3.703   2.824   4.233 -1.8140 -0.1230 -1.4019
  160OSM   H18U17972   3.855   2.847   4.141  0.0297  1.7907  0.9217
  160OSM    C1F17973   3.320   2.802   2.607 -0.3440 -0.3688 -0.5615
  160OSM     OF17974   3.249   2.787   2.512  1.1126 -0.8327  0.2732
  160OSM    C2F17975   3.264   2.841   2.751 -0.3907 -0.5260 -0.4818
  160OSM    H2F17976   3.272   2.952   2.760  1.6661 -0.7127  0.5975
  160OSM    H2G17977   3.318   2.790   2.832 -1.1172 -0.4089  0.0861
  160OSM    C3F17978   3.119   2.797   2.757 -0.2334  0.6646 -0.0098
  160OSM    H3F17979   3.114   2.688   2.738 -0.8357  0.9154 -1.3857
  160OSM    H3G17980   3.061   2.842   2.674  0.4641  1.5347 -0.0348
  160OSM    C4F17981   3.058   2.817   2.897  0.4933 -0.4738  0.0996
  160OSM    H4F17982   2.949   2.793   2.893  0.5824 -1.9605  3.3057
  160OSM    H4G17983   3.057   2.927   2.911 -0.4908 -0.6398  1.5534
  160OSM    C5F17984   3.131   2.746   3.010  0.2858  0.5503  0.1927
  160OSM    H5F17985   3.235   2.784   3.016  0.5665  0.2632 -2.0446
  160OSM    H5G17986   3.127   2.638   2.981  1.2793  0.2547  1.1045
  160OSM    C6F17987   3.077   2.766   3.154  0.5682  0.0860 -0.3349
  160OSM    H6F17988   2.979   2.713   3.155  0.1860  0.7593 -1.0450
  160OSM    H6G17989   3.055   2.870   3.185 -1.1537 -0.2622 -0.2826
  160OSM    C7F17990   3.163   2.709   3.272  0.0608 -0.6163 -0.5678
  160OSM    H7F17991   3.264   2.755   3.263  0.3672 -1.2158 -0.2499
  160OSM    H7G17992   3.171   2.599   3.264 -1.1884 -0.9621  1.9575
  160OSM    C8F17993   3.094   2.740   3.405  1.2075  0.3969  0.2642
  160OSM    H8F17994   3.002   2.681   3.388  3.1284 -2.8590  0.1576
  160OSM    H8G17995   3.072   2.849   3.404 -0.5395  0.0812  1.2697
  160OSM    C9F17996   3.158   2.695   3.535 -0.0041 -0.4645  0.0019
  160OSM    H9F17997   3.151   2.586   3.553  0.7417 -0.4086  0.7111
  160OSM   C10F17998   3.229   2.764   3.622 -0.1863 -0.3207 -0.1701
  160OSM   H10F17999   3.265   2.723   3.718 -1.3454  0.1097  0.4710
  160OSM   C11F18000   3.249   2.913   3.608  0.1687 -0.4149 -0.1408
  160OSM   H11F18001   3.256   2.957   3.506  0.4649 -0.9678 -0.3666
  160OSM   H11G18002   3.350   2.938   3.647 -0.2492  1.0521  0.0612
  160OSM   C12F18003   3.138   2.986   3.684  0.4678 -0.3901  0.1270
  160OSM   H12F18004   3.038   2.942   3.662 -0.4677  1.7137 -0.1212
  160OSM   H12G18005   3.133   3.086   3.636 -0.5954  0.1778  1.3584
  160OSM   C13F18006   3.157   3.019   3.834 -0.3119 -0.7542 -0.0455
  160OSM   H13F18007   3.155   2.921   3.886  0.0587 -0.3818  0.6806
  160OSM   H13G18008   3.055   3.060   3.853 -0.3569 -1.1975  0.6938
  160OSM   C14F18009   3.275   3.105   3.872 -0.1782 -0.0093 -0.4182
  160OSM   H14F18010   3.275   3.199   3.813 -0.1548  0.9099  0.9813
  160OSM   H14G18011   3.372   3.050   3.869 -0.8684 -1.2772 -0.0943
  160OSM   C15F18012   3.249   3.151   4.017  0.2053  0.0988  0.5866
  160OSM   H15F18013   3.239   3.056   4.075  0.4624  0.1625  0.7362
  160OSM   H15G18014   3.155   3.209   4.026  1.0129  1.5632 -0.1619
  160OSM   C16F18015   3.365   3.229   4.082  0.5215 -0.2171  0.1978
  160OSM   H16F18016   3.365   3.329   4.034 -1.1666 -0.0323  0.5211
  160OSM   H16G18017   3.466   3.186   4.062 -0.1418 -1.8411  0.1705
  160OSM   C17F18018   3.345   3.241   4.231  0.6462  0.3358  0.1438
  160OSM   H17F18019   3.338   3.141   4.280 -0.1407 -0.2669 -1.1533
  160OSM   H17G18020   3.262   3.307   4.263 -1.6392 -1.5979 -1.3999
  160OSM   C18F18021   3.471   3.308   4.290  0.3150  0.8024  0.0250
  160OSM   H18F18022   3.567   3.260   4.264 -1.1247 -3.1546  1.4029
  160OSM   H18G18023   3.456   3.317   4.399 -2.3866  1.6919 -0.3225
  160OSM   H18H18024   3.480   3.414   4.255  1.8089  1.5647  2.5069
  161OSM      N18025   0.677   3.757   2.281  0.3232  0.4089 -0.2665
  161OSM    C1518026   0.532   3.723   2.315 -0.1845  0.7507  0.8485
  161OSM   H15A18027   0.532   3.618   2.343  1.6783  0.8605  1.4099
  161OSM   H15B18028   0.479   3.735   2.221  0.9746  1.0097  0.2071
  161OSM   H15C18029   0.498   3.785   2.396  2.2341  1.4290  1.4347
  161OSM    C1418030   0.730   3.658   2.192 -0.2161 -0.0354 -0.4267
  161OSM   H14A18031   0.722   3.562   2.239  1.0685 -0.5992 -1.2993
  161OSM   H14B18032   0.834   3.673   2.164 -0.6082 -0.3677 -2.2018
  161OSM   H14C18033   0.663   3.654   2.107 -2.6279  0.0109  1.3789
  161OSM    C1318034   0.665   3.893   2.211 -0.5659 -0.6549  0.3079
  161OSM   H13A18035   0.764   3.933   2.191 -0.8143  0.0549  0.4787
  161OSM   H13B18036   0.620   3.968   2.274 -0.9058  0.8458 -1.6537
  161OSM   H13C18037   0.597   3.892   2.128  0.4972  1.1598 -0.6617
  161OSM    C1218038   0.756   3.766   2.403 -0.5234  0.3638  0.7722
  161OSM   H12A18039   0.726   3.852   2.461 -2.6642  1.3945 -1.6762
  161OSM   H12B18040   0.854   3.802   2.377 -0.4702 -0.6983 -0.6214
  161OSM    C1118041   0.767   3.636   2.496  0.0333 -0.8831 -0.2863
  161OSM   H11A18042   0.664   3.608   2.526 -0.4227  0.5829 -0.3893
  161OSM   H11B18043   0.830   3.653   2.585  1.2228  1.0068 -1.4206
  161OSM      P18044   0.813   3.372   2.462  0.2072  0.1220  0.1262
  161OSM    O1318045   0.686   3.318   2.401 -0.0705  0.0183 -0.2387
  161OSM    O1418046   0.936   3.307   2.416 -0.1598 -0.4720  0.6191
  161OSM    O1118047   0.819   3.380   2.620  0.3476  0.3681 -0.7166
  161OSM    O1218048   0.817   3.528   2.420 -0.4073 -0.0793  0.8609
  161OSM    C1S18049   0.938   3.391   2.699  0.3613  0.9121  0.0261
  161OSM    H1S18050   0.993   3.483   2.671  2.7355  0.4755  2.7980
  161OSM    H1T18051   1.009   3.310   2.673 -0.3828  0.4075 -0.4777
  161OSM     NF18052   1.040   3.447   2.918 -0.0221 -0.1701  0.2856
  161OSM    HNF18053   1.083   3.381   2.978 -0.5144 -1.8306 -1.1020
  161OSM    C2S18054   0.920   3.398   2.851 -0.1134 -0.1174  0.3656
  161OSM    H2S18055   0.839   3.472   2.864  0.8938  1.0716  0.0929
  161OSM    C3S18056   0.878   3.265   2.912 -0.2230 -0.4683  0.1370
  161OSM    H3S18057   0.970   3.203   2.904  0.1777  0.0656  0.5337
  161OSM     O318058   0.774   3.215   2.826  0.0713 -0.9739  0.1591
  161OSM    HO318059   0.785   3.253   2.739 -2.9759 -1.5391 -0.6049
  161OSM    C4S18060   0.816   3.273   3.051 -0.3052  0.8219  0.8411
  161OSM    H4S18061   0.729   3.341   3.051 -1.9456 -1.1648  0.7864
  161OSM    C5S18062   0.864   3.220   3.165  0.0828  0.3361 -0.0688
  161OSM    H5S18063   0.962   3.169   3.169  0.2352  0.5793 -0.6098
  161OSM    C6S18064   0.808   3.255   3.303 -0.3965 -0.5211  0.1577
  161OSM    H6S18065   0.779   3.156   3.345  1.0967 -1.3722 -0.6779
  161OSM    H6T18066   0.722   3.324   3.302  0.4931  0.6380  1.1911
  161OSM    C7S18067   0.908   3.316   3.408  0.0847 -0.0777  0.3701
  161OSM    H7S18068   0.956   3.401   3.355  0.5511 -0.1654  0.6462
  161OSM    H7T18069   0.981   3.236   3.433 -1.1489 -1.1483  0.6808
  161OSM    C8S18070   0.844   3.375   3.531  0.1101  0.1741  0.4781
  161OSM    H8S18071   0.771   3.298   3.563 -0.3147 -0.0558 -0.9568
  161OSM    H8T18072   0.787   3.466   3.502 -1.5066 -0.3917  1.7043
  161OSM    C9S18073   0.939   3.410   3.644 -0.1517 -0.1531 -0.1043
  161OSM    H9S18074   1.005   3.494   3.615 -0.2220  1.4883  3.8675
  161OSM    H9T18075   0.984   3.313   3.674 -2.6426 -0.8985  1.5781
  161OSM   C10S18076   0.851   3.459   3.759  0.5459 -0.1475  0.2484
  161OSM   H10S18077   0.757   3.401   3.762  1.7779 -2.2240  0.2857
  161OSM   H10T18078   0.838   3.570   3.755  2.2557  0.0690  0.1252
  161OSM   C11S18079   0.918   3.426   3.891 -0.1438  0.0442 -0.0367
  161OSM   H11S18080   1.016   3.477   3.881 -1.3874  2.5082 -0.3280
  161OSM   H11T18081   0.928   3.316   3.900  0.2540  0.0034 -0.8954
  161OSM   C12S18082   0.857   3.490   4.017 -0.3572  0.2687 -0.2175
  161OSM   H12S18083   0.751   3.458   4.019 -0.6555  1.1576  2.6329
  161OSM   H12T18084   0.857   3.600   4.000  0.8956  0.2607 -0.3589
  161OSM   C13S18085   0.931   3.463   4.145 -1.2885  0.5964 -0.8449
  161OSM   H13S18086   0.909   3.547   4.215  1.1676  0.8095 -0.2459
  161OSM   H13T18087   1.040   3.465   4.127 -0.5230  1.0824  3.0376
  161OSM   C14S18088   0.886   3.330   4.206 -0.0818  0.6629 -0.9404
  161OSM   H14S18089   0.907   3.238   4.148  0.1674 -2.2805  3.3599
  161OSM   H14T18090   0.775   3.337   4.212 -0.2342 -1.9551  0.9481
  161OSM   C15S18091   0.952   3.307   4.344  0.3176  0.3431 -0.0393
  161OSM   H15S18092   0.917   3.387   4.413 -2.2281 -0.0842 -0.7110
  161OSM   H15T18093   1.062   3.306   4.333  0.3316 -0.8010  0.0896
  161OSM   C16S18094   0.898   3.171   4.404 -0.1053 -0.0570 -0.2838
  161OSM   H16S18095   0.933   3.095   4.331 -1.7040  0.4337 -1.6203
  161OSM   H16T18096   0.788   3.169   4.417 -0.0634  2.3294  1.0431
  161OSM   C17S18097   0.956   3.144   4.547 -0.2007 -0.0831  0.3469
  161OSM   H17S18098   0.930   3.223   4.620 -2.2692  1.2023 -1.6473
  161OSM   H17T18099   1.066   3.148   4.533 -0.2027 -1.3250 -0.2074
  161OSM   C18S18100   0.902   3.017   4.605 -0.3498  0.6923 -0.1062
  161OSM   H18S18101   0.959   3.016   4.701  2.1581 -0.3069 -1.5086
  161OSM   H18T18102   0.922   2.930   4.539  0.7147 -0.5369  1.7159
  161OSM   H18U18103   0.794   3.021   4.632 -0.3855 -1.5019  0.2843
  161OSM    C1F18104   1.100   3.572   2.908  0.6811 -0.3570  0.4078
  161OSM     OF18105   1.051   3.655   2.830  0.2079  0.4532 -0.1321
  161OSM    C2F18106   1.224   3.596   2.989 -0.1156 -0.2781  0.5764
  161OSM    H2F18107   1.258   3.701   2.974 -0.6882 -0.1005  0.4909
  161OSM    H2G18108   1.305   3.538   2.941  1.0982  2.6585 -1.1900
  161OSM    C3F18109   1.195   3.577   3.143 -0.0191  0.4978 -0.2160
  161OSM    H3F18110   1.284   3.594   3.208  0.2915  0.7070 -0.6863
  161OSM    H3G18111   1.144   3.480   3.159 -0.6574  1.0392  1.2089
  161OSM    C4F18112   1.083   3.676   3.192 -0.3973 -0.3477  0.1492
  161OSM    H4F18113   0.993   3.632   3.144  0.6663 -1.0291 -1.2804
  161OSM    H4G18114   1.108   3.778   3.159 -1.9584 -0.2780 -0.9060
  161OSM    C5F18115   1.065   3.672   3.347  0.0939 -0.0982 -0.2918
  161OSM    H5F18116   1.156   3.723   3.388  0.4085 -1.6423  1.0245
  161OSM    H5G18117   1.068   3.567   3.383 -2.2035 -0.0774  0.0718
  161OSM    C6F18118   0.935   3.738   3.388 -0.6846  0.0158 -0.2888
  161OSM    H6F18119   0.852   3.671   3.360 -0.1902 -0.7056 -0.0455
  161OSM    H6G18120   0.921   3.831   3.328  2.9496  1.8561  1.3686
  161OSM    C7F18121   0.938   3.790   3.534  0.0272 -0.3980  0.2925
  161OSM    H7F18122   1.031   3.848   3.555 -0.0894 -0.0486 -0.1388
  161OSM    H7G18123   0.929   3.702   3.601  0.9830 -1.1399 -0.5265
  161OSM    C8F18124   0.818   3.891   3.560 -0.5307  0.0671  0.2805
  161OSM    H8F18125   0.830   3.980   3.495  1.7266 -0.9696 -0.8322
  161OSM    H8G18126   0.836   3.924   3.665 -0.0564  1.1811 -0.1317
  161OSM    C9F18127   0.688   3.817   3.544  0.2475  0.0468 -0.1316
  161OSM    H9F18128   0.653   3.809   3.440  3.0711 -0.0749 -1.1617
  161OSM   C10F18129   0.608   3.780   3.647 -0.4862 -0.0711  0.4866
  161OSM   H10F18130   0.511   3.730   3.635 -0.9885  1.0684 -0.3619
  161OSM   C11F18131   0.642   3.808   3.794 -0.7566 -0.0625 -0.0911
  161OSM   H11F18132   0.640   3.917   3.815 -1.7808 -0.4058  1.7331
  161OSM   H11G18133   0.746   3.772   3.808 -1.1011 -1.1397 -0.2481
  161OSM   C12F18134   0.557   3.736   3.901 -0.3555 -0.7977  0.1199
  161OSM   H12F18135   0.594   3.632   3.889  1.8727  0.0820 -1.1828
  161OSM   H12G18136   0.450   3.748   3.873 -0.4876 -2.6381 -0.3043
  161OSM   C13F18137   0.580   3.797   4.036 -0.0148  0.0579  0.3634
  161OSM   H13F18138   0.545   3.902   4.048  1.0431  0.4574  0.0423
  161OSM   H13G18139   0.690   3.797   4.046  0.1750 -0.2849 -1.2789
  161OSM   C14F18140   0.531   3.703   4.155  0.1205 -0.2027  0.4663
  161OSM   H14F18141   0.575   3.602   4.145  1.1997  0.2281  0.7307
  161OSM   H14G18142   0.420   3.692   4.156  0.1762 -1.5392 -1.8845
  161OSM   C15F18143   0.587   3.772   4.279 -0.1849 -0.0221 -0.1846
  161OSM   H15F18144   0.550   3.877   4.284  1.2411  0.6226 -2.2354
  161OSM   H15G18145   0.698   3.764   4.282  0.0261  2.2317  0.5522
  161OSM   C16F18146   0.548   3.694   4.406  0.0405 -0.0896 -0.8473
  161OSM   H16F18147   0.439   3.674   4.413  0.0193  0.5830  3.7148
  161OSM   H16G18148   0.582   3.759   4.490  1.0785 -1.7474  0.0757
  161OSM   C17F18149   0.617   3.559   4.432  0.7754 -0.4470 -0.4351
  161OSM   H17F18150   0.717   3.566   4.384  0.1784 -3.3619 -2.3921
  161OSM   H17G18151   0.563   3.477   4.380  0.2043  0.0339 -0.6051
  161OSM   C18F18152   0.638   3.515   4.576 -0.1592  0.1087 -0.0159
  161OSM   H18F18153   0.683   3.414   4.584 -1.7418 -0.6101  0.2884
  161OSM   H18G18154   0.548   3.540   4.636  1.2956 -0.5701  2.6584
  161OSM   H18H18155   0.722   3.567   4.627 -0.8103  0.2404  0.9473
  162OSM      N18156   2.364   3.176   2.390  0.2069 -0.7218 -0.5287
  162OSM    C1518157   2.294   3.049   2.402 -0.4599  0.4865  0.3558
  162OSM   H15A18158   2.255   3.019   2.306 -0.6466  2.5848 -0.2701
  162OSM   H15B18159   2.220   3.051   2.480 -0.2886  2.0859  0.5153
  162OSM   H15C18160   2.363   2.970   2.431  0.9332  1.8673  0.9598
  162OSM    C1418161   2.448   3.185   2.511 -1.0481 -0.1902  0.6917
  162OSM   H14A18162   2.385   3.219   2.592  1.4611  1.8379  1.9412
  162OSM   H14B18163   2.524   3.259   2.493 -2.2355  1.5764  2.5488
  162OSM   H14C18164   2.501   3.092   2.529 -0.5476 -0.2326 -0.8736
  162OSM    C1318165   2.463   3.168   2.277  0.3980  0.1017  0.8058
  162OSM   H13A18166   2.418   3.145   2.181  2.3786  2.4474 -0.7976
  162OSM   H13B18167   2.528   3.087   2.305 -0.9323 -1.1564  0.3741
  162OSM   H13C18168   2.517   3.262   2.270 -0.3018  0.4838  0.4329
  162OSM    C1218169   2.270   3.292   2.367  0.1240  0.1609 -0.1054
  162OSM   H12A18170   2.225   3.275   2.270 -1.6776 -1.6267  0.9683
  162OSM   H12B18171   2.326   3.382   2.346  1.4927 -0.4850  0.6431
  162OSM    C1118172   2.160   3.324   2.469  0.0547  0.0473  0.9033
  162OSM   H11A18173   2.098   3.403   2.420 -1.0569 -2.2449 -1.6748
  162OSM   H11B18174   2.209   3.360   2.562 -0.3290  1.1837  0.6827
  162OSM      P18175   1.944   3.175   2.431  0.2725  0.0455  0.3422
  162OSM    O1318176   1.830   3.250   2.488  0.2942 -0.9300  0.7449
  162OSM    O1418177   1.963   3.176   2.284 -0.8013 -0.0276  0.0772
  162OSM    O1118178   1.920   3.019   2.461  0.4463  0.0206  0.4767
  162OSM    O1218179   2.068   3.220   2.511 -0.2163  0.1869  0.1125
  162OSM    C1S18180   1.947   2.979   2.596 -0.0357 -0.3116 -0.2095
  162OSM    H1S18181   1.995   3.055   2.660 -1.2929  1.5917 -1.4083
  162OSM    H1T18182   2.019   2.895   2.597  0.4837  0.1318 -0.1322
  162OSM     NF18183   1.807   2.933   2.812 -0.4716  0.2177 -0.0360
  162OSM    HNF18184   1.804   2.846   2.860  0.7508  0.1650 -0.0338
  162OSM    C2S18185   1.815   2.940   2.666 -0.0407 -0.1895  0.9814
  162OSM    H2S18186   1.733   3.011   2.643 -0.3148  0.4270  3.5488
  162OSM    C3S18187   1.765   2.810   2.583 -1.0996  0.1784  0.1580
  162OSM    H3S18188   1.849   2.739   2.566 -1.3820  0.0579 -0.8239
  162OSM     O318189   1.714   2.838   2.451  0.9091 -0.2021  0.1703
  162OSM    HO318190   1.747   2.927   2.438  1.8420 -0.2660  1.8307
  162OSM    C4S18191   1.658   2.743   2.663  0.2739 -0.1713 -0.4501
  162OSM    H4S18192   1.583   2.811   2.707  1.0752  0.3112  0.1736
  162OSM    C5S18193   1.653   2.613   2.684 -0.1750  0.5830 -0.0954
  162OSM    H5S18194   1.745   2.565   2.648 -1.0077  1.4990 -3.8244
  162OSM    C6S18195   1.551   2.536   2.759  0.6067  0.3126  0.1998
  162OSM    H6S18196   1.527   2.441   2.708  0.3623 -1.1216  2.7943
  162OSM    H6T18197   1.458   2.596   2.769  0.1888 -0.2165 -0.4730
  162OSM    C7S18198   1.609   2.493   2.891 -0.9670  0.2895  0.5707
  162OSM    H7S18199   1.521   2.468   2.955  0.6767 -1.3356  2.3291
  162OSM    H7T18200   1.665   2.567   2.952  1.9186 -0.0245 -1.5083
  162OSM    C8S18201   1.714   2.370   2.888  0.2412 -0.6902  0.2750
  162OSM    H8S18202   1.801   2.405   2.828 -0.1031  2.8248  1.6398
  162OSM    H8T18203   1.667   2.284   2.835 -2.6821  0.8621  0.1553
  162OSM    C9S18204   1.762   2.335   3.025  0.1157  0.3329 -0.1673
  162OSM    H9S18205   1.676   2.309   3.090 -1.4059  1.4993 -1.6108
  162OSM    H9T18206   1.813   2.425   3.067  0.8522 -0.4178  0.5752
  162OSM   C10S18207   1.863   2.218   3.029 -0.3446  1.0803  0.2246
  162OSM   H10S18208   1.957   2.243   2.976 -0.3179  2.7911  0.9906
  162OSM   H10T18209   1.809   2.136   2.977 -0.5716  1.0286  0.5337
  162OSM   C11S18210   1.905   2.157   3.167  0.4465  0.0782 -0.6621
  162OSM   H11S18211   1.964   2.063   3.164  2.0356  0.7659  3.3556
  162OSM   H11T18212   1.815   2.131   3.225  0.1071  3.8248  0.7471
  162OSM   C12S18213   1.977   2.269   3.248  0.1905 -0.4638 -0.5416
  162OSM   H12S18214   1.952   2.371   3.214  3.5327  1.2093  1.4979
  162OSM   H12T18215   2.085   2.262   3.223  0.2871  2.6452 -1.3869
  162OSM   C13S18216   1.971   2.248   3.398  0.3912  0.0117 -0.3260
  162OSM   H13S18217   2.037   2.321   3.451  0.3984 -0.6649  0.6203
  162OSM   H13T18218   2.013   2.148   3.422  0.5875 -0.1947 -1.4849
  162OSM   C14S18219   1.838   2.260   3.474  0.6189  0.2451 -0.2566
  162OSM   H14S18220   1.751   2.209   3.429 -0.6324  1.0917  1.1372
  162OSM   H14T18221   1.813   2.368   3.474  0.9699  0.3724 -2.6129
  162OSM   C15S18222   1.849   2.213   3.619  0.8098 -0.0429  0.0018
  162OSM   H15S18223   1.752   2.246   3.663 -0.8263 -1.3630 -2.3705
  162OSM   H15T18224   1.929   2.273   3.667  1.2915 -1.1483  0.5957
  162OSM   C16S18225   1.860   2.058   3.621 -0.2714  0.3308 -0.2584
  162OSM   H16S18226   1.859   2.018   3.725 -1.0632  1.4721  0.1874
  162OSM   H16T18227   1.957   2.018   3.583 -1.8785 -0.7284 -3.7253
  162OSM   C17S18228   1.748   1.983   3.553  0.1629 -0.2117 -0.1143
  162OSM   H17S18229   1.766   1.985   3.444 -1.5177  0.5307 -0.4109
  162OSM   H17T18230   1.651   2.035   3.567  0.2627 -0.0042 -0.1816
  162OSM   C18S18231   1.732   1.831   3.573 -0.3449  0.4688 -0.0418
  162OSM   H18S18232   1.697   1.808   3.676  1.4691  1.0561  0.7531
  162OSM   H18T18233   1.830   1.778   3.571  0.3182  1.6752 -0.4632
  162OSM   H18U18234   1.674   1.789   3.488 -1.9511 -1.3110  1.8157
  162OSM    C1F18235   1.836   3.031   2.895  0.8296  0.1251 -0.0570
  162OSM     OF18236   1.837   3.149   2.850  0.2644  0.5447  0.1841
  162OSM    C2F18237   1.873   3.003   3.035  0.0656 -0.0354 -0.0200
  162OSM    H2F18238   1.939   2.914   3.032  0.5408  0.2981  0.3790
  162OSM    H2G18239   1.777   2.979   3.086  0.3829  0.6886  0.9586
  162OSM    C3F18240   1.939   3.127   3.109 -0.0306 -0.5147 -0.0432
  162OSM    H3F18241   1.858   3.203   3.118 -0.9347 -1.4704  0.0868
  162OSM    H3G18242   2.019   3.163   3.041 -0.9678  0.7232 -0.5248
  162OSM    C4F18243   2.001   3.092   3.243  0.5304  0.2482 -0.3753
  162OSM    H4F18244   2.038   3.185   3.291  0.9897 -1.4992  2.9054
  162OSM    H4G18245   2.085   3.027   3.212 -0.4200  0.0618 -2.7436
  162OSM    C5F18246   1.919   3.015   3.353  0.3302  0.3974  0.5647
  162OSM    H5F18247   1.980   3.001   3.445  1.8230  0.5485 -0.3536
  162OSM    H5G18248   1.901   2.915   3.310  1.0950  0.7283 -0.5775
  162OSM    C6F18249   1.782   3.070   3.388  0.5855 -0.0583  0.0861
  162OSM    H6F18250   1.735   3.091   3.289  0.5840  0.1181  0.1227
  162OSM    H6G18251   1.800   3.167   3.439  1.4704 -0.0398 -0.2299
  162OSM    C7F18252   1.700   2.982   3.481 -0.0696  0.3217 -0.0630
  162OSM    H7F18253   1.779   2.944   3.550 -0.2819 -0.6441 -0.3371
  162OSM    H7G18254   1.651   2.899   3.425 -2.3795  1.1394  0.6472
  162OSM    C8F18255   1.594   3.061   3.571 -0.2725  0.2577 -0.0123
  162OSM    H8F18256   1.512   3.099   3.506 -1.0291 -0.2696  0.6110
  162OSM    H8G18257   1.660   3.148   3.592  1.2569 -0.7610 -0.4158
  162OSM    C9F18258   1.531   2.982   3.684 -0.7258 -0.6917 -0.0608
  162OSM    H9F18259   1.591   2.897   3.719  1.2119  0.4522 -0.4298
  162OSM   C10F18260   1.413   2.993   3.738 -0.0918 -0.2751  0.3989
  162OSM   H10F18261   1.394   2.937   3.830  0.1038 -0.3484  0.3943
  162OSM   C11F18262   1.311   3.095   3.694  1.0376  0.0787 -0.1874
  162OSM   H11F18263   1.349   3.145   3.602 -0.3847 -0.0053 -0.8401
  162OSM   H11G18264   1.308   3.160   3.785  1.9900 -1.2416  0.8294
  162OSM   C12F18265   1.185   3.018   3.666 -0.1040  0.5663  0.2913
  162OSM   H12F18266   1.106   3.096   3.657  1.9148  2.7349  0.3548
  162OSM   H12G18267   1.151   2.945   3.743  1.9919  0.5765  1.3085
  162OSM   C13F18268   1.194   2.961   3.519  0.5169  0.1187  0.4461
  162OSM   H13F18269   1.259   2.870   3.518 -0.3643 -0.5232  0.2475
  162OSM   H13G18270   1.249   3.033   3.455 -0.5535  0.2677 -0.3212
  162OSM   C14F18271   1.059   2.920   3.456  0.3732 -0.5187 -0.2681
  162OSM   H14F18272   0.986   3.001   3.476 -0.0077 -1.1722  1.0934
  162OSM   H14G18273   1.004   2.843   3.516 -0.2281 -0.4660 -0.7370
  162OSM   C15F18274   1.074   2.888   3.300  0.3199 -0.3015 -0.2130
  162OSM   H15F18275   1.129   2.792   3.284 -3.3503 -2.0007 -5.1803
  162OSM   H15G18276   1.149   2.955   3.252 -0.7440  0.2423 -1.1600
  162OSM   C16F18277   0.944   2.883   3.230  0.7293 -0.2911 -0.0857
  162OSM   H16F18278   0.893   2.975   3.268  1.8123  0.5763 -0.6631
  162OSM   H16G18279   0.885   2.792   3.249 -0.4946  0.4992  0.0152
  162OSM   C17F18280   0.953   2.896   3.076  0.2796 -0.1543 -0.0522
  162OSM   H17F18281   1.015   2.812   3.040 -0.0403 -0.1317 -0.6671
  162OSM   H17G18282   1.000   2.997   3.069 -3.0202  1.8418  3.1267
  162OSM   C18F18283   0.817   2.881   3.004  0.2997 -0.1253  1.2186
  162OSM   H18F18284   0.758   2.792   3.035 -0.0050 -0.1696  0.5368
  162OSM   H18G18285   0.839   2.869   2.896  2.1108  0.2683  1.5042
  162OSM   H18H18286   0.765   2.979   3.004  0.3431 -0.0351 -1.2859
  163OSM      N18287   1.307   4.102   2.384 -0.2960 -0.1090 -0.0644
  163OSM    C1518288   1.337   4.021   2.259  0.1302  0.8657 -0.4196
  163OSM   H15A18289   1.246   3.973   2.227  0.4722  0.7091 -1.1744
  163OSM   H15B18290   1.411   3.946   2.281 -2.1810 -1.6371 -0.6008
  163OSM   H15C18291   1.363   4.093   2.183  0.0889  0.1250 -1.1420
  163OSM    C1418292   1.192   4.187   2.346  0.6051 -0.5440 -0.0444
  163OSM   H14A18293   1.106   4.130   2.314  0.6757 -0.7644  0.1546
  163OSM   H14B18294   1.203   4.253   2.261  1.2368 -0.1785  0.3156
  163OSM   H14C18295   1.149   4.248   2.425  0.1408 -1.4827  0.4406
  163OSM    C1318296   1.257   4.005   2.487 -0.0058 -0.0730  0.2742
  163OSM   H13A18297   1.216   4.053   2.575  1.6598 -0.8605  1.5330
  163OSM   H13B18298   1.334   3.936   2.518  0.6270  0.4693 -0.0578
  163OSM   H13C18299   1.171   3.953   2.448  0.7206 -0.7912 -0.4053
  163OSM    C1218300   1.416   4.198   2.426  0.0184  0.5417  0.2762
  163OSM   H12A18301   1.502   4.148   2.469  0.0239  1.4501  1.3690
  163OSM   H12B18302   1.370   4.267   2.496 -2.8944  1.0575 -1.9735
  163OSM    C1118303   1.477   4.294   2.323 -0.5617 -0.3552  0.0865
  163OSM   H11A18304   1.513   4.231   2.239 -1.0174 -0.0363 -0.3576
  163OSM   H11B18305   1.566   4.331   2.376 -0.3682 -1.2764  0.4236
  163OSM      P18306   1.368   4.529   2.348  0.0363  0.2478 -0.3100
  163OSM    O1318307   1.423   4.633   2.259  0.1217 -0.1274  0.1559
  163OSM    O1418308   1.223   4.540   2.380 -0.5595 -0.2006  0.1758
  163OSM    O1118309   1.461   4.517   2.479  0.2575  0.0567  0.3106
  163OSM    O1218310   1.391   4.395   2.272 -0.0622  0.4594 -0.0866
  163OSM    C1S18311   1.536   4.627   2.521 -0.0224 -0.3954  0.7966
  163OSM    H1S18312   1.482   4.722   2.501 -2.3496 -2.0484 -1.4897
  163OSM    H1T18313   1.629   4.632   2.460 -0.0825 -0.2500  0.7142
  163OSM     NF18314   1.644   4.738   2.691 -0.5716 -0.4490 -0.0003
  163OSM    HNF18315   1.743   4.727   2.696 -0.6610 -0.6736  2.1784
  163OSM    C2S18316   1.570   4.621   2.668  0.4463 -0.1769  0.6997
  163OSM    H2S18317   1.475   4.626   2.725 -0.3206  2.5382 -0.6527
  163OSM    C3S18318   1.647   4.495   2.712 -0.1186 -0.1226 -0.0008
  163OSM    H3S18319   1.734   4.469   2.647 -0.0109 -0.2011  0.1722
  163OSM     O318320   1.566   4.378   2.688 -0.1707 -0.4205 -0.2223
  163OSM    HO318321   1.517   4.412   2.614  0.0608  1.1503  0.3039
  163OSM    C4S18322   1.692   4.501   2.858 -0.7328  0.1862 -0.5739
  163OSM    H4S18323   1.800   4.487   2.873 -0.3544  0.5979 -2.6372
  163OSM    C5S18324   1.613   4.515   2.971 -0.1856 -0.1426  0.8589
  163OSM    H5S18325   1.505   4.527   2.954 -0.0705 -0.5406 -0.1855
  163OSM    C6S18326   1.668   4.520   3.111  0.0551 -0.0678 -0.0033
  163OSM    H6S18327   1.776   4.542   3.100 -0.0229 -0.1213 -1.0220
  163OSM    H6T18328   1.660   4.426   3.170 -0.5415  0.9457  1.5648
  163OSM    C7S18329   1.599   4.624   3.196  0.9473 -0.2345 -0.2072
  163OSM    H7S18330   1.488   4.611   3.196  1.0170 -1.4717  2.4051
  163OSM    H7T18331   1.612   4.726   3.155  0.6690  0.9258  2.4147
  163OSM    C8S18332   1.646   4.631   3.348 -0.6664  0.4970  0.2193
  163OSM    H8S18333   1.752   4.664   3.341 -0.3785 -0.0911  1.4937
  163OSM    H8T18334   1.644   4.528   3.388  1.5227  0.4052  0.2201
  163OSM    C9S18335   1.553   4.715   3.433 -0.5248  0.4212  0.8948
  163OSM    H9S18336   1.449   4.680   3.416 -0.2359  0.5155 -1.3234
  163OSM    H9T18337   1.560   4.822   3.402  1.4761  0.2523  0.6560
  163OSM   C10S18338   1.584   4.721   3.583 -0.2806  0.3895  0.6474
  163OSM   H10S18339   1.686   4.763   3.599  0.2211 -0.9726  1.1516
  163OSM   H10T18340   1.589   4.618   3.625  4.0741  0.7458  1.4367
  163OSM   C11S18341   1.471   4.802   3.646 -0.0815 -0.2441  0.0780
  163OSM   H11S18342   1.379   4.743   3.624  0.7261 -0.7439 -2.2847
  163OSM   H11T18343   1.467   4.898   3.590 -1.6591 -0.9162 -1.0246
  163OSM   C12S18344   1.491   4.825   3.798 -0.3655  0.5760  0.1187
  163OSM   H12S18345   1.406   4.881   3.842 -0.0205  1.1537  0.0631
  163OSM   H12T18346   1.577   4.890   3.826 -1.7829  1.6591  2.1794
  163OSM   C13S18347   1.512   4.687   3.879 -0.0930  0.2428  0.3020
  163OSM   H13S18348   1.613   4.642   3.867 -0.6865 -1.0383 -0.0139
  163OSM   H13T18349   1.430   4.616   3.856 -0.4298 -0.1588  2.5671
  163OSM   C14S18350   1.504   4.719   4.026 -0.6857 -0.3793  0.0649
  163OSM   H14S18351   1.567   4.811   4.028 -0.6966 -0.3838  0.6433
  163OSM   H14T18352   1.562   4.646   4.087 -0.2394  0.3871  0.5708
  163OSM   C15S18353   1.361   4.742   4.085 -0.0904  0.5263 -0.8866
  163OSM   H15S18354   1.310   4.644   4.072 -1.0122  1.1091 -1.8266
  163OSM   H15T18355   1.301   4.816   4.028 -0.8036  0.5757 -0.0983
  163OSM   C16S18356   1.353   4.795   4.231 -0.2125 -0.0452 -0.4570
  163OSM   H16S18357   1.249   4.828   4.248  0.2129 -0.0045  2.5091
  163OSM   H16T18358   1.420   4.884   4.237 -0.5394  0.2315 -0.8180
  163OSM   C17S18359   1.387   4.689   4.334  0.0150 -0.4254  0.2983
  163OSM   H17S18360   1.491   4.651   4.324 -0.1645 -0.6263 -0.9015
  163OSM   H17T18361   1.319   4.602   4.332 -0.6115  0.0661 -0.0582
  163OSM   C18S18362   1.374   4.751   4.471 -0.1448 -0.9705 -0.3126
  163OSM   H18S18363   1.269   4.786   4.480  0.8365  1.9645  0.9915
  163OSM   H18T18364   1.429   4.848   4.472 -3.1695  0.9272 -1.3846
  163OSM   H18U18365   1.412   4.684   4.551  1.2716  1.7938  1.4968
  163OSM    C1F18366   1.589   4.859   2.700  0.2924 -0.0403  0.4807
  163OSM     OF18367   1.468   4.867   2.702  0.3729  0.1096  0.0620
  163OSM    C2F18368   1.677   4.984   2.707 -0.2610  0.0437 -0.4863
  163OSM    H2F18369   1.642   5.044   2.620 -0.9363 -0.3217 -0.4700
  163OSM    H2G18370   1.784   4.954   2.704 -0.2492 -1.0184  3.7322
  163OSM    C3F18371   1.657   5.067   2.836  0.0172 -0.1337  0.6297
  163OSM    H3F18372   1.553   5.104   2.855  0.0180  0.4267 -0.4107
  163OSM    H3G18373   1.698   5.167   2.811 -1.1556  0.3925  0.6899
  163OSM    C4F18374   1.724   5.010   2.962 -0.0832 -0.2245  0.4570
  163OSM    H4F18375   1.824   4.969   2.933 -1.0737 -3.0301  0.7326
  163OSM    H4G18376   1.659   4.924   2.986 -0.3430  0.2786  1.6161
  163OSM    C5F18377   1.734   5.112   3.068  0.2547  0.4952  0.1085
  163OSM    H5F18378   1.633   5.154   3.082 -0.5890 -0.5741 -2.2128
  163OSM    H5G18379   1.807   5.192   3.041  0.0230  0.8182  0.4320
  163OSM    C6F18380   1.753   5.047   3.210 -0.0313  0.1928  0.1241
  163OSM    H6F18381   1.845   4.986   3.220 -1.9258 -2.4983  3.2513
  163OSM    H6G18382   1.662   4.986   3.229  0.6659 -0.4788  1.3923
  163OSM    C7F18383   1.757   5.154   3.324  0.2432 -0.2806  0.9873
  163OSM    H7F18384   1.677   5.222   3.287 -0.1496 -1.9992 -1.5737
  163OSM    H7G18385   1.852   5.211   3.315 -0.9817  1.8763  1.0124
  163OSM    C8F18386   1.731   5.102   3.462  0.0236 -0.0751  0.3809
  163OSM    H8F18387   1.802   5.018   3.481 -0.5167 -0.5474  0.3598
  163OSM    H8G18388   1.628   5.060   3.457 -1.2575  2.8310  0.3137
  163OSM    C9F18389   1.734   5.223   3.561 -0.1564  1.0347  0.3996
  163OSM    H9F18390   1.681   5.317   3.538  0.4451  1.4901  0.8332
  163OSM   C10F18391   1.801   5.223   3.675  0.6675 -0.7536 -0.0659
  163OSM   H10F18392   1.801   5.306   3.747 -1.2499 -2.6497  2.2669
  163OSM   C11F18393   1.882   5.107   3.735 -0.1983 -0.3288  0.3366
  163OSM   H11F18394   1.973   5.084   3.676  0.9270  0.9724  1.4873
  163OSM   H11G18395   1.820   5.015   3.739  0.1907 -0.7648 -2.0823
  163OSM   C12F18396   1.934   5.142   3.880  0.3297  0.6139  0.1125
  163OSM   H12F18397   1.981   5.242   3.876  1.1123  0.2457 -0.0578
  163OSM   H12G18398   1.995   5.057   3.918  0.6204 -0.6561 -2.8305
  163OSM   C13F18399   1.815   5.152   3.971 -0.2496  0.1384  0.6212
  163OSM   H13F18400   1.750   5.062   3.974 -1.7548  1.1962  0.8635
  163OSM   H13G18401   1.743   5.228   3.932 -2.7348 -2.5958 -0.5373
  163OSM   C14F18402   1.856   5.187   4.119  0.5956 -0.0102  0.2716
  163OSM   H14F18403   1.909   5.285   4.125  3.8145 -1.6292  0.1703
  163OSM   H14G18404   1.940   5.122   4.150  0.1077 -1.5718 -1.4739
  163OSM   C15F18405   1.748   5.149   4.218 -0.1014  0.2663  0.6404
  163OSM   H15F18406   1.720   5.041   4.210 -0.8343  0.5647 -1.9443
  163OSM   H15G18407   1.656   5.201   4.184 -0.3047  0.4577  1.4533
  163OSM   C16F18408   1.802   5.192   4.365  0.7801  0.1270  0.0711
  163OSM   H16F18409   1.807   5.303   4.366  0.3655  0.1539 -0.2688
  163OSM   H16G18410   1.907   5.156   4.364  0.0414 -2.3915  2.3037
  163OSM   C17F18411   1.721   5.126   4.480 -0.0764 -0.1982  0.4794
  163OSM   H17F18412   1.731   5.018   4.455 -0.4327  0.6104 -4.0156
  163OSM   H17G18413   1.614   5.152   4.486 -0.6548 -2.5773  1.9249
  163OSM   C18F18414   1.787   5.153   4.615  0.5760  1.1343 -0.1865
  163OSM   H18F18415   1.748   5.084   4.694  1.1511  1.5828  0.5069
  163OSM   H18G18416   1.759   5.255   4.649 -2.0742  0.0488  1.1924
  163OSM   H18H18417   1.898   5.145   4.611  0.5786 -1.4647  1.9960
  164OSM      N18418   3.290   1.380   2.292  0.0770  0.4957 -0.4755
  164OSM    C1518419   3.355   1.290   2.191  0.0342  0.0376 -0.1724
  164OSM   H15A18420   3.447   1.254   2.235 -0.8269 -0.9999  0.8690
  164OSM   H15B18421   3.379   1.345   2.102 -0.1610 -0.1958 -0.3700
  164OSM   H15C18422   3.295   1.205   2.162 -0.6834  0.7062 -0.6795
  164OSM    C1418423   3.268   1.317   2.424 -0.1811  0.0370  0.3360
  164OSM   H14A18424   3.356   1.297   2.481  0.4410  0.0370 -0.6020
  164OSM   H14B18425   3.202   1.232   2.420 -0.0413 -0.0555 -0.0152
  164OSM   H14C18426   3.218   1.398   2.475 -0.0713 -0.4383  1.2097
  164OSM    C1318427   3.391   1.490   2.316  0.4162 -0.0478 -0.1008
  164OSM   H13A18428   3.424   1.532   2.222  0.5943  0.2653  0.1039
  164OSM   H13B18429   3.464   1.443   2.380 -1.5389 -1.5577  1.1511
  164OSM   H13C18430   3.347   1.568   2.376 -1.3394 -1.2059  0.2046
  164OSM    C1218431   3.161   1.438   2.240 -1.3314 -0.4187 -0.3844
  164OSM   H12A18432   3.094   1.355   2.225 -0.4723 -1.3338  0.6770
  164OSM   H12B18433   3.176   1.481   2.143  0.3756 -1.2679 -0.5211
  164OSM    C1118434   3.083   1.543   2.319 -0.2646  0.0940  0.4243
  164OSM   H11A18435   3.060   1.511   2.423 -0.4710  0.9547  0.6591
  164OSM   H11B18436   2.980   1.563   2.283 -0.8972 -0.9935  1.5795
  164OSM      P18437   3.160   1.751   2.190 -0.2328  0.0349  0.1819
  164OSM    O1318438   3.241   1.875   2.218  0.0484  0.2541 -0.1606
  164OSM    O1418439   3.210   1.669   2.079 -0.2156  0.3015  0.4245
  164OSM    O1118440   3.008   1.794   2.174  0.2493 -0.3036 -0.0415
  164OSM    O1218441   3.156   1.667   2.324 -0.4971  0.3199  0.1444
  164OSM    C1S18442   2.936   1.837   2.296 -0.2511  0.3548  0.3965
  164OSM    H1S18443   2.970   1.771   2.379  0.6374  0.7020  0.3170
  164OSM    H1T18444   2.828   1.816   2.282 -0.4653  0.8443  1.2941
  164OSM     NF18445   2.902   2.012   2.474 -0.2432  0.6961  0.0050
  164OSM    HNF18446   2.808   2.043   2.489 -0.3335  0.7927 -0.7044
  164OSM    C2S18447   2.955   1.990   2.337 -0.3457  0.3783  0.0310
  164OSM    H2S18448   3.065   2.004   2.331 -0.0598 -1.9824 -1.0565
  164OSM    C3S18449   2.906   2.083   2.215 -0.9946 -0.0100 -0.1222
  164OSM    H3S18450   2.795   2.090   2.223 -1.0730 -0.2609 -0.8326
  164OSM     O318451   2.929   2.040   2.080 -0.4842 -0.0007 -0.1489
  164OSM    HO318452   2.963   1.951   2.090  0.3474  0.1909 -1.1079
  164OSM    C4S18453   2.964   2.223   2.232  0.2762 -0.4065 -0.2948
  164OSM    H4S18454   2.914   2.286   2.307  0.4963 -1.4877  0.7860
  164OSM    C5S18455   3.084   2.272   2.185  0.1086 -0.2242  0.0032
  164OSM    H5S18456   3.137   2.208   2.113  0.1133 -2.0972  1.6179
  164OSM    C6S18457   3.140   2.406   2.209 -0.7626  1.0681  0.3899
  164OSM    H6S18458   3.065   2.460   2.271 -3.2184 -0.3558 -1.1539
  164OSM    H6T18459   3.154   2.457   2.112  0.2068 -0.8696 -0.5430
  164OSM    C7S18460   3.273   2.397   2.286  0.0614 -0.4324  0.0897
  164OSM    H7S18461   3.306   2.501   2.306 -0.4317 -0.3976  0.7332
  164OSM    H7T18462   3.356   2.351   2.227  1.1324 -0.5099  1.5997
  164OSM    C8S18463   3.274   2.319   2.413  0.3360 -0.3214  0.3202
  164OSM    H8S18464   3.382   2.300   2.433  0.6040  1.0734  0.2596
  164OSM    H8T18465   3.219   2.223   2.403 -0.8782  0.3881  0.0585
  164OSM    C9S18466   3.216   2.389   2.532  0.2974 -0.0309 -0.5126
  164OSM    H9S18467   3.107   2.409   2.530  0.3384  0.1379 -1.3309
  164OSM    H9T18468   3.277   2.482   2.537 -2.0168  1.5695 -0.4663
  164OSM   C10S18469   3.252   2.311   2.657 -0.1877 -0.6317 -0.4173
  164OSM   H10S18470   3.362   2.299   2.656 -0.0122  0.0466  2.3705
  164OSM   H10T18471   3.209   2.208   2.657 -3.4137  0.5568 -1.9706
  164OSM   C11S18472   3.229   2.380   2.790  0.3898 -0.0627 -0.6379
  164OSM   H11S18473   3.119   2.390   2.803  0.4192 -2.5329  2.7060
  164OSM   H11T18474   3.270   2.483   2.790  1.9995 -0.6043  2.0147
  164OSM   C12S18475   3.289   2.296   2.905  1.0426 -0.0604 -0.9851
  164OSM   H12S18476   3.400   2.297   2.897  1.2441 -0.5785  1.2443
  164OSM   H12T18477   3.247   2.193   2.895 -1.0388  0.8236 -2.0481
  164OSM   C13S18478   3.261   2.357   3.042 -0.5783 -0.3299  1.0181
  164OSM   H13S18479   3.150   2.359   3.048 -0.6989 -1.6887 -0.2306
  164OSM   H13T18480   3.310   2.457   3.043 -0.3591 -0.4418  1.3215
  164OSM   C14S18481   3.333   2.283   3.160  0.0785 -0.7450  0.0404
  164OSM   H14S18482   3.444   2.298   3.156  0.0035 -0.2138 -0.2111
  164OSM   H14T18483   3.319   2.174   3.152 -0.3376 -0.7341  0.6061
  164OSM   C15S18484   3.263   2.339   3.285  0.3037 -0.3475 -0.5411
  164OSM   H15S18485   3.156   2.335   3.254  0.3707  0.1285 -0.8490
  164OSM   H15T18486   3.303   2.443   3.295 -0.1444 -0.1322 -0.9120
  164OSM   C16S18487   3.312   2.274   3.416  0.8254 -0.1418 -0.0765
  164OSM   H16S18488   3.421   2.252   3.410  0.2807 -2.9045 -2.1013
  164OSM   H16T18489   3.256   2.177   3.413 -1.6650  1.2220 -1.1714
  164OSM   C17S18490   3.282   2.348   3.546 -0.1766  0.3358 -0.1431
  164OSM   H17S18491   3.172   2.364   3.553 -0.6385 -2.2238 -0.5381
  164OSM   H17T18492   3.331   2.448   3.547  1.9189 -0.6137 -1.3452
  164OSM   C18S18493   3.316   2.264   3.673 -0.2854 -0.8634  0.1778
  164OSM   H18S18494   3.257   2.300   3.760  1.3386  2.2096  0.1634
  164OSM   H18T18495   3.426   2.260   3.689 -0.3408 -2.6484  0.3483
  164OSM   H18U18496   3.281   2.159   3.665  1.1580 -1.5199  1.8905
  164OSM    C1F18497   2.956   1.957   2.581 -0.5103  0.1157  0.0449
  164OSM     OF18498   3.064   1.898   2.580  0.7851 -0.1190 -0.2920
  164OSM    C2F18499   2.858   1.954   2.701  0.2317 -0.2397  0.0503
  164OSM    H2F18500   2.786   1.873   2.677 -2.7391  2.1567  0.3427
  164OSM    H2G18501   2.806   2.052   2.708 -0.7642 -0.7281 -0.2771
  164OSM    C3F18502   2.940   1.931   2.830 -0.2183 -0.7035 -1.0356
  164OSM    H3F18503   3.026   1.864   2.808  1.5174  0.0811  2.6338
  164OSM    H3G18504   2.885   1.864   2.899  1.0017  0.4904  1.1933
  164OSM    C4F18505   2.977   2.057   2.907  0.2515  0.2904 -0.1637
  164OSM    H4F18506   2.884   2.107   2.939 -0.1873 -0.1335 -0.7520
  164OSM    H4G18507   3.032   2.120   2.834  1.6096 -1.1428 -0.4495
  164OSM    C5F18508   3.073   2.029   3.025 -0.5004  0.6573 -0.3491
  164OSM    H5F18509   3.117   2.124   3.063  0.8309 -1.1176  3.0781
  164OSM    H5G18510   3.153   1.957   2.997 -1.2267 -0.8170  1.1851
  164OSM    C6F18511   3.006   1.961   3.143 -0.3090  0.0473 -0.1691
  164OSM    H6F18512   2.977   1.860   3.107 -1.3707  0.0528  0.6457
  164OSM    H6G18513   2.909   2.009   3.168 -0.5429  0.1066 -1.1474
  164OSM    C7F18514   3.085   1.965   3.276  0.4489 -1.1780  0.1961
  164OSM    H7F18515   3.090   2.069   3.313  3.7058 -1.5345  1.0407
  164OSM    H7G18516   3.190   1.939   3.255  0.1508 -1.8626 -0.5010
  164OSM    C8F18517   3.040   1.873   3.392  0.1466  0.8250  0.1459
  164OSM    H8F18518   3.116   1.862   3.472  0.3663 -1.4565 -0.2943
  164OSM    H8G18519   3.039   1.765   3.365  1.0692  0.8292  0.0525
  164OSM    C9F18520   2.903   1.917   3.457 -0.5565 -0.0917  0.3498
  164OSM    H9F18521   2.830   1.967   3.392  1.1530  2.8210  0.5282
  164OSM   C10F18522   2.873   1.910   3.589 -0.2476  0.2032  0.1711
  164OSM   H10F18523   2.773   1.925   3.633 -0.2449 -1.7389  0.9392
  164OSM   C11F18524   2.971   1.864   3.690  0.1789  0.0322 -0.5257
  164OSM   H11F18525   3.050   1.800   3.646  3.7124  3.8239 -0.2774
  164OSM   H11G18526   2.921   1.806   3.770 -2.5620  3.3637  0.4520
  164OSM   C12F18527   3.035   1.988   3.759  0.1398 -0.6325 -0.5126
  164OSM   H12F18528   2.947   2.050   3.786 -0.7377 -2.8538  2.1400
  164OSM   H12G18529   3.101   2.042   3.688 -0.5426  2.2050  0.8657
  164OSM   C13F18530   3.108   1.954   3.885 -0.3517 -0.6094 -0.2534
  164OSM   H13F18531   3.175   1.871   3.855  0.8781  0.2803 -0.0653
  164OSM   H13G18532   3.029   1.915   3.952 -0.7320  1.7738  0.8128
  164OSM   C14F18533   3.194   2.064   3.950  0.4757  0.1830 -0.5566
  164OSM   H14F18534   3.127   2.152   3.940 -0.3874 -0.3390  0.4743
  164OSM   H14G18535   3.293   2.072   3.900  1.6885 -1.3086  1.4466
  164OSM   C15F18536   3.207   2.026   4.100  0.4467  0.1197  0.1658
  164OSM   H15F18537   3.248   1.923   4.096  1.7332  0.6344 -2.9825
  164OSM   H15G18538   3.106   2.030   4.147 -0.3307  3.3033 -1.4466
  164OSM   C16F18539   3.298   2.114   4.188  0.2517  0.1975 -0.3247
  164OSM   H16F18540   3.239   2.206   4.205  0.2320 -0.1410  1.7074
  164OSM   H16G18541   3.386   2.158   4.135  0.6854 -0.1952  0.0587
  164OSM   C17F18542   3.341   2.057   4.325  0.4493 -0.5236 -0.6160
  164OSM   H17F18543   3.413   1.974   4.315  3.0327  1.5653 -0.3267
  164OSM   H17G18544   3.248   2.023   4.375 -0.4558  2.9572  0.3789
  164OSM   C18F18545   3.401   2.175   4.403  0.5692  0.3460  0.1199
  164OSM   H18F18546   3.503   2.203   4.369  1.2773 -0.5069  1.4429
  164OSM   H18G18547   3.412   2.149   4.511  1.6640  1.7368  0.3686
  164OSM   H18H18548   3.339   2.266   4.393  2.6612  1.7554 -0.6095
  165SAPS     N18549   3.627   2.979   6.792  0.5427  0.1281  0.6677
  165SAPS   HN118550   3.665   3.057   6.734 -0.1474  0.7362  1.0125
  165SAPS   HN218551   3.719   2.935   6.810  2.2659  2.1889 -2.1591
  165SAPS   HN318552   3.562   2.919   6.739 -0.7299 -0.1973  2.4923
  165SAPS   C1218553   3.566   3.032   6.913  0.1299 -0.3958 -0.3044
  165SAPS  H12A18554   3.500   2.955   6.951  2.0084 -1.0887  1.8373
  165SAPS   C1318555   3.665   3.079   7.016  0.7970  0.0600 -0.5382
  165SAPS  O13A18556   3.789   3.072   6.987  0.2469 -0.1303 -0.3703
  165SAPS  O13B18557   3.616   3.139   7.119 -0.6784 -0.6703 -0.1735
  165SAPS   C1118558   3.482   3.150   6.875  0.5658 -0.6751  0.2095
  165SAPS  H11A18559   3.554   3.218   6.824  1.2282 -0.2011  1.7088
  165SAPS  H11B18560   3.444   3.199   6.967 -1.2446  0.6578 -1.1945
  165SAPS     P18561   3.290   3.211   6.713  0.2069 -0.4604 -0.2305
  165SAPS   O1318562   3.158   3.162   6.672 -0.3416  0.3227  0.3632
  165SAPS   O1418563   3.285   3.335   6.786 -0.1831 -0.9483 -0.9397
  165SAPS   O1218564   3.365   3.102   6.796  0.0486 -0.1144  0.1473
  165SAPS   O1118565   3.382   3.225   6.582 -0.0334 -0.1676  0.2030
  165SAPS    C118566   3.384   3.120   6.483  0.6519 -0.1500 -0.4753
  165SAPS    HA18567   3.485   3.074   6.478  1.2881  1.2988 -1.7616
  165SAPS    HB18568   3.311   3.038   6.497  1.8637 -0.8691  2.0530
  165SAPS    C218569   3.369   3.176   6.337  0.2212 -0.4675 -0.3672
  165SAPS    HS18570   3.385   3.097   6.260  2.3264  0.5783 -1.0743
  165SAPS   O2118571   3.447   3.294   6.306  0.3513  0.3859 -0.4554
  165SAPS   C2118572   3.572   3.263   6.261  0.5546  0.1457  0.2793
  165SAPS   O2218573   3.613   3.148   6.264 -0.1703 -0.2539 -0.8659
  165SAPS   C2218574   3.637   3.391   6.207 -0.2231  0.2179  0.0360
  165SAPS   H2R18575   3.573   3.482   6.212  1.8897  1.9181 -1.9979
  165SAPS   H2S18576   3.727   3.405   6.270 -0.5131  0.6795  0.3559
  165SAPS    C318577   3.226   3.217   6.325 -0.2421  0.4945  0.5146
  165SAPS    HX18578   3.210   3.283   6.236 -0.2772 -0.0109  0.1403
  165SAPS    HY18579   3.206   3.279   6.415  1.2685  0.5652  0.8136
  165SAPS   O3118580   3.131   3.103   6.331 -0.4928  0.4707 -0.4867
  165SAPS   C3118581   3.109   3.043   6.213  0.0818 -0.5184  0.2389
  165SAPS   O3218582   3.163   3.068   6.110  0.2779 -0.2172 -0.4599
  165SAPS   C3218583   3.002   2.934   6.236  0.2133  0.3647  1.0057
  165SAPS   H2X18584   2.911   2.969   6.289 -2.3185 -2.8422 -0.8484
  165SAPS   H2Y18585   3.039   2.865   6.315 -1.7708  0.1574  1.8185
  165SAPS   C2318586   3.662   3.383   6.051 -0.2638 -0.3905 -0.0699
  165SAPS   H3R18587   3.567   3.365   5.996  0.1074  1.3094 -1.3410
  165SAPS   H3S18588   3.726   3.292   6.039  0.6151  0.3807 -1.4369
  165SAPS   C2418589   3.731   3.515   5.994 -0.5120  0.1941 -0.3655
  165SAPS   H4R18590   3.759   3.486   5.890  0.3405 -1.8571  0.3761
  165SAPS   H4S18591   3.831   3.520   6.042 -0.1261 -0.6792 -1.0397
  165SAPS   C2518592   3.673   3.654   6.006  0.5508  0.6346 -0.1592
  165SAPS   H5R18593   3.645   3.684   6.108  0.3620  0.5951 -0.1994
  165SAPS   C2618594   3.658   3.739   5.906  0.5118  0.6919  0.2143
  165SAPS   H6R18595   3.608   3.833   5.935 -0.3763  0.3226 -0.1115
  165SAPS   C2718596   3.696   3.718   5.761 -0.1196  0.6212 -0.4671
  165SAPS   H7R18597   3.802   3.688   5.752 -0.3458 -0.7216  0.8526
  165SAPS   H7S18598   3.682   3.815   5.709  2.9201  1.2011 -0.3497
  165SAPS   C2818599   3.611   3.614   5.694  0.0697 -0.3670  0.3833
  165SAPS   H8R18600   3.543   3.547   5.749  0.2240 -2.5196 -1.8705
  165SAPS   C2918601   3.599   3.598   5.560  0.1084  0.2157 -0.2423
  165SAPS   H9R18602   3.537   3.515   5.522  0.7447  0.0603 -0.9773
  165SAPS  C21018603   3.672   3.687   5.466  1.1330  0.4265  0.3832
  165SAPS  H10R18604   3.699   3.633   5.373 -0.8068 -0.2059  0.1456
  165SAPS  H10S18605   3.772   3.709   5.510  0.2117 -0.3763  3.0935
  165SAPS  C21118606   3.604   3.818   5.436  0.3292 -0.6069 -0.0675
  165SAPS  H11R18607   3.623   3.897   5.509 -0.3583 -1.0111  0.5634
  165SAPS  C21218608   3.519   3.839   5.340 -0.7013 -0.7374  0.0003
  165SAPS  H12R18609   3.484   3.943   5.338  2.0648  0.5219  3.6873
  165SAPS  C21318610   3.472   3.743   5.237  0.3612 -0.3050 -0.3898
  165SAPS  H13R18611   3.369   3.713   5.265  0.4289  0.0571  0.2785
  165SAPS  H13S18612   3.523   3.646   5.251  0.4730 -0.1097  0.7170
  165SAPS  C21418613   3.477   3.815   5.104  0.4744  0.7730 -0.8031
  165SAPS  H14R18614   3.581   3.846   5.083  0.3366  1.9652  0.1746
  165SAPS  C21518615   3.374   3.816   5.021  0.1056 -0.1014 -0.1349
  165SAPS  H15R18616   3.386   3.877   4.931  0.1452  3.1514  1.9112
  165SAPS  C21618617   3.231   3.753   5.034 -0.4596 -0.2607 -0.0512
  165SAPS  H16R18618   3.149   3.828   5.026 -0.8303 -0.8161 -1.9456
  165SAPS  H16S18619   3.217   3.714   5.137 -2.6084 -0.5386 -0.3871
  165SAPS  C21718620   3.212   3.628   4.939  0.2326 -0.1172  0.4513
  165SAPS  H17R18621   3.135   3.554   4.972 -0.6943  1.4197  1.8622
  165SAPS  H17S18622   3.303   3.566   4.940  0.2188 -0.1647 -0.2586
  165SAPS  C21818623   3.174   3.664   4.790 -0.5604  0.0610 -0.3712
  165SAPS  H18R18624   3.244   3.742   4.752  0.0298  0.5304  1.5540
  165SAPS  H18S18625   3.073   3.709   4.777  0.6945  2.3552 -3.3421
  165SAPS  C21918626   3.165   3.536   4.694  0.2226  0.1927  0.3028
  165SAPS  H19R18627   3.137   3.573   4.593  0.0133  0.7403  0.5577
  165SAPS  H19S18628   3.073   3.487   4.734 -0.5157  0.7374 -0.6999
  165SAPS  C22018629   3.285   3.439   4.701 -0.0878  0.4443  0.3996
  165SAPS  H20R18630   3.279   3.356   4.627 -2.8503  1.9467 -1.2072
  165SAPS  H20S18631   3.289   3.384   4.798  0.5699 -0.3844 -0.0855
  165SAPS  H20T18632   3.380   3.494   4.688  0.9878 -0.7976  2.3725
  165SAPS   C3318633   2.977   2.862   6.103 -0.1033 -0.4390  0.5313
  165SAPS   H3X18634   2.929   2.762   6.118  0.6993 -0.7878  0.8220
  165SAPS   H3Y18635   3.070   2.850   6.043 -1.3959  0.1594 -1.7132
  165SAPS   C3418636   2.882   2.939   6.006  0.2123 -0.0338  0.0512
  165SAPS   H4X18637   2.873   3.048   6.027 -2.5788 -0.7019  3.0638
  165SAPS   H4Y18638   2.784   2.886   6.007  1.2802 -2.1278 -0.1136
  165SAPS   C3518639   2.935   2.940   5.862 -0.5186 -0.1543 -0.0468
  165SAPS   H5X18640   2.967   2.837   5.838  0.5221 -0.0763  0.9092
  165SAPS   H5Y18641   3.024   3.006   5.859 -0.4498 -0.1262  1.6534
  165SAPS   C3618642   2.839   2.995   5.758 -0.0425  0.3512  0.2122
  165SAPS   H6X18643   2.830   3.105   5.761  1.8464  0.5433  0.1072
  165SAPS   H6Y18644   2.735   2.959   5.770 -0.4261  1.4457  0.2623
  165SAPS   C3718645   2.881   2.963   5.609 -0.2510 -0.9850  0.2944
  165SAPS   H7X18646   2.881   2.852   5.601 -0.0279 -1.1477  2.1341
  165SAPS   H7Y18647   2.983   3.006   5.600 -0.4618 -0.6017 -0.3752
  165SAPS   C3818648   2.778   3.016   5.511 -0.0817 -0.1293 -0.2776
  165SAPS   H8X18649   2.771   3.127   5.518  2.3737  0.0738  0.1082
  165SAPS   H8Y18650   2.680   2.971   5.536 -0.2762  0.9451  1.0185
  165SAPS   C3918651   2.822   2.985   5.371 -0.2233  0.8157 -0.6246
  165SAPS   H9X18652   2.932   2.977   5.368 -0.3434 -1.0500 -1.5564
  165SAPS   H9Y18653   2.784   3.070   5.311 -2.7039  0.6084  0.4833
  165SAPS  C31018654   2.757   2.863   5.301  0.1873  0.1972 -0.4347
  165SAPS  H10X18655   2.646   2.873   5.290  0.0908  3.1076  1.8098
  165SAPS  H10Y18656   2.790   2.774   5.358  3.0095  0.7983 -0.9963
  165SAPS  C31118657   2.818   2.848   5.155  0.6056 -0.2061  0.2233
  165SAPS  H11X18658   2.929   2.858   5.162  0.5761  0.2557  0.0713
  165SAPS  H11Y18659   2.787   2.933   5.091 -0.3247  0.7412  1.8667
  165SAPS  C31218660   2.771   2.724   5.089 -0.2587  0.0144 -0.7060
  165SAPS  H12X18661   2.664   2.736   5.064 -0.7350 -2.6330 -0.1719
  165SAPS  H12Y18662   2.782   2.641   5.162 -3.9685 -0.8171 -0.9218
  165SAPS  C31318663   2.846   2.685   4.961  0.1311  0.2641  1.0224
  165SAPS  H13X18664   2.954   2.708   4.967  0.3041  0.0120 -0.6066
  165SAPS  H13Y18665   2.819   2.756   4.879  0.7744 -0.9036 -0.2382
  165SAPS  C31418666   2.817   2.538   4.928 -0.4101 -0.1606 -0.3022
  165SAPS  H14X18667   2.707   2.522   4.918 -0.5043  0.7329 -0.8685
  165SAPS  H14Y18668   2.850   2.472   5.010  0.5223  0.8781  0.1874
  165SAPS  C31518669   2.892   2.493   4.798 -0.0337 -0.3983  0.7872
  165SAPS  H15X18670   2.871   2.385   4.781  2.1039 -0.8165  0.5218
  165SAPS  H15Y18671   3.000   2.517   4.806  0.0139 -0.0140 -0.7583
  165SAPS  C31618672   2.837   2.561   4.670  0.3889  0.2863 -0.7960
  165SAPS  H16X18673   2.871   2.666   4.677  1.2557 -0.0967  2.1418
  165SAPS  H16Y18674   2.727   2.569   4.682  0.1909 -1.4531 -1.1051
  165SAPS  C31718675   2.882   2.493   4.540  0.0256 -0.2808  0.2371
  165SAPS  H17X18676   2.855   2.385   4.550  0.4356 -0.3612  0.4830
  165SAPS  H17Y18677   2.993   2.495   4.533 -0.0726 -0.9163 -3.3147
  165SAPS  C31818678   2.816   2.548   4.415 -0.2994  0.4868  0.7049
  165SAPS  H18X18679   2.856   2.502   4.322 -0.5927 -4.4928  2.7520
  165SAPS  H18Y18680   2.828   2.658   4.421 -0.1432  0.5851 -0.8480
  165SAPS  H18Z18681   2.709   2.520   4.416  0.0984 -1.1798  3.0064
  166SAPS     N18682   4.977   1.055   7.003  0.5843 -0.3158  0.3048
  166SAPS   HN118683   5.028   1.125   6.945 -1.4015  0.7475 -0.2321
  166SAPS   HN218684   4.962   1.100   7.095 -0.1501 -0.4087  0.2358
  166SAPS   HN318685   5.045   0.976   7.008  1.2044  0.1438 -0.4586
  166SAPS   C1218686   4.844   1.012   6.942  0.0156  0.0966 -0.0481
  166SAPS  H12A18687   4.867   0.968   6.846 -2.3779  0.2389 -0.7691
  166SAPS   C1318688   4.760   0.916   7.019  0.2706 -0.0446 -0.0150
  166SAPS  O13A18689   4.800   0.878   7.136  0.4847  0.4967 -0.3181
  166SAPS  O13B18690   4.659   0.860   6.968 -0.1146  0.8043 -0.5444
  166SAPS   C1118691   4.754   1.137   6.910  0.8362 -0.4491 -0.0414
  166SAPS  H11A18692   4.736   1.203   6.997  0.8855 -0.1885 -0.2288
  166SAPS  H11B18693   4.659   1.095   6.870  0.6174 -0.1497  0.1657
  166SAPS     P18694   4.732   1.318   6.724 -0.3339  0.4355  0.4855
  166SAPS   O1318695   4.592   1.309   6.759 -0.2727 -0.0544 -0.2559
  166SAPS   O1418696   4.792   1.453   6.731 -0.2662  0.4109  0.4836
  166SAPS   O1218697   4.819   1.219   6.809 -0.0401  0.7114 -0.2631
  166SAPS   O1118698   4.745   1.264   6.577  0.4768  0.6759  0.1555
  166SAPS    C118699   4.760   1.126   6.537  0.3071 -0.1102 -0.3574
  166SAPS    HA18700   4.701   1.060   6.605  0.2483 -0.2762 -0.5689
  166SAPS    HB18701   4.725   1.117   6.432  1.3488  2.3803 -0.9656
  166SAPS    C218702   4.906   1.072   6.553  0.0263 -0.6481 -0.1577
  166SAPS    HS18703   4.937   1.090   6.658  2.2475 -0.7295 -0.7433
  166SAPS   O2118704   4.987   1.151   6.462 -0.1677 -0.1020 -0.0610
  166SAPS   C2118705   5.121   1.140   6.489 -0.9185 -0.6614 -0.2645
  166SAPS   O2218706   5.166   1.098   6.590  0.0229  0.1140  0.6504
  166SAPS   C2218707   5.201   1.198   6.373 -0.4561 -0.4935 -0.1476
  166SAPS   H2R18708   5.164   1.152   6.279  1.2762 -0.4022 -0.9127
  166SAPS   H2S18709   5.176   1.306   6.364 -3.3864 -0.8905  1.8653
  166SAPS    C318710   4.918   0.927   6.508 -0.1457  0.3621 -1.2331
  166SAPS    HX18711   4.853   0.873   6.580  1.6210 -0.0109  0.1235
  166SAPS    HY18712   5.020   0.883   6.513 -0.6864 -1.4499 -3.8973
  166SAPS   O3118713   4.872   0.907   6.379 -0.0081  0.4994  0.0982
  166SAPS   C3118714   4.953   0.848   6.294 -0.5748  0.0239 -0.2713
  166SAPS   O3218715   5.072   0.815   6.310 -0.2663 -0.3686  0.1686
  166SAPS   C3218716   4.887   0.851   6.158 -0.0082 -0.2743 -0.0007
  166SAPS   H2X18717   4.782   0.887   6.165 -0.1241 -0.5073 -0.4749
  166SAPS   H2Y18718   4.882   0.743   6.129  1.6539  0.2310 -2.5072
  166SAPS   C2318719   5.353   1.161   6.369  0.1488 -0.4558  0.3492
  166SAPS   H3R18720   5.352   1.051   6.354 -4.0204 -0.4023 -1.2391
  166SAPS   H3S18721   5.404   1.184   6.464  0.2391  0.6941  0.0452
  166SAPS   C2418722   5.422   1.239   6.254 -0.3801 -0.2276 -0.2210
  166SAPS   H4R18723   5.389   1.199   6.156  0.8473 -0.7366 -0.4447
  166SAPS   H4S18724   5.529   1.211   6.267 -0.1939  1.1931  1.7407
  166SAPS   C2518725   5.428   1.389   6.245  0.5515 -0.0934 -0.0359
  166SAPS   H5R18726   5.419   1.436   6.343  0.5966  0.8658 -0.4853
  166SAPS   C2618727   5.429   1.465   6.138  0.4679  0.5596  0.3922
  166SAPS   H6R18728   5.430   1.574   6.155  0.8930  0.8918 -1.5348
  166SAPS   C2718729   5.422   1.409   6.000  0.2262  0.9542  0.1720
  166SAPS   H7R18730   5.362   1.316   5.990 -1.3750  1.9479  0.0674
  166SAPS   H7S18731   5.527   1.393   5.969 -0.0883 -0.0613 -0.4032
  166SAPS   C2818732   5.352   1.496   5.899  0.1209  0.5313  0.0187
  166SAPS   H8R18733   5.275   1.564   5.940 -0.8089  1.3226 -2.7645
  166SAPS   C2918734   5.359   1.472   5.769 -0.0858 -0.1495  0.4526
  166SAPS   H9R18735   5.299   1.539   5.706 -0.5706 -0.1899  0.8641
  166SAPS  C21018736   5.437   1.364   5.696  0.3353  0.0678 -0.3939
  166SAPS  H10R18737   5.363   1.312   5.631  1.3329 -1.7049 -0.1858
  166SAPS  H10S18738   5.464   1.286   5.770 -3.1819  1.0472  2.1973
  166SAPS  C21118739   5.546   1.428   5.613  0.3789 -0.0072  0.1240
  166SAPS  H11R18740   5.614   1.480   5.681 -0.4673 -0.7038  1.5435
  166SAPS  C21218741   5.554   1.426   5.478 -1.0361 -0.5134 -0.0162
  166SAPS  H12R18742   5.641   1.474   5.430 -0.4719  0.2585  1.6977
  166SAPS  C21318743   5.464   1.359   5.381 -0.2683 -0.7323  0.2505
  166SAPS  H13R18744   5.393   1.291   5.433  0.2654 -2.0959 -0.7219
  166SAPS  H13S18745   5.532   1.299   5.316  0.2562  1.7819 -1.6835
  166SAPS  C21418746   5.394   1.462   5.283 -0.6566  0.1254 -0.5007
  166SAPS  H14R18747   5.329   1.533   5.337 -1.2593 -1.3777  0.8221
  166SAPS  C21518748   5.382   1.452   5.150  0.0664  0.4730 -0.0638
  166SAPS  H15R18749   5.326   1.526   5.091  1.3373  0.6929 -1.0533
  166SAPS  C21618750   5.451   1.353   5.057 -0.0565 -0.6022 -0.2392
  166SAPS  H16R18751   5.420   1.248   5.077 -0.2873 -0.6616 -0.8913
  166SAPS  H16S18752   5.560   1.363   5.079 -0.0892 -0.7025 -0.0300
  166SAPS  C21718753   5.439   1.384   4.909 -0.7322 -0.8041 -0.5221
  166SAPS  H17R18754   5.473   1.488   4.894  0.8056 -1.0049  1.2236
  166SAPS  H17S18755   5.331   1.381   4.881 -0.6273  2.0593 -1.5680
  166SAPS  C21818756   5.524   1.300   4.816 -0.3797  0.2470  0.1875
  166SAPS  H18R18757   5.514   1.193   4.844 -1.3992  0.2933  0.0649
  166SAPS  H18S18758   5.630   1.329   4.833  0.2418 -0.8912 -1.4950
  166SAPS  C21918759   5.484   1.327   4.675  0.3232 -0.5933  0.0265
  166SAPS  H19R18760   5.531   1.421   4.640  2.1285 -1.3092  0.3887
  166SAPS  H19S18761   5.377   1.355   4.664  0.8329  2.2500  1.4516
  166SAPS  C22018762   5.531   1.210   4.595 -0.3143  0.5708 -0.5322
  166SAPS  H20R18763   5.641   1.203   4.581 -0.2532  1.6019 -0.6440
  166SAPS  H20S18764   5.479   1.207   4.496  0.2786  0.1415 -0.8370
  166SAPS  H20T18765   5.495   1.115   4.640 -1.1760 -0.2257 -2.7493
  166SAPS   C3318766   4.961   0.951   6.062  0.4076 -0.0854 -0.4421
  166SAPS   H3X18767   5.072   0.953   6.072  0.7274  2.0590 -3.2320
  166SAPS   H3Y18768   4.937   1.053   6.099  2.3001 -0.1747  1.2262
  166SAPS   C3418769   4.907   0.947   5.919 -0.6502  0.0500  0.4640
  166SAPS   H4X18770   4.796   0.948   5.920 -0.7249 -1.1904 -1.6553
  166SAPS   H4Y18771   4.926   0.843   5.883  2.1763  0.2354  1.1427
  166SAPS   C3518772   4.964   1.046   5.818 -0.4580 -0.1344  0.0747
  166SAPS   H5X18773   5.068   1.067   5.851 -1.1632  1.5313  1.4167
  166SAPS   H5Y18774   4.913   1.145   5.818  0.5797  0.4341  0.9547
  166SAPS   C3618775   4.952   1.008   5.670  0.0687 -0.6744  0.5067
  166SAPS   H6X18776   4.849   0.990   5.634 -0.2155  2.9357 -0.9406
  166SAPS   H6Y18777   5.010   0.914   5.663  0.0834 -0.5816 -0.8644
  166SAPS   C3718778   5.015   1.115   5.581  0.4504  0.9970 -0.1750
  166SAPS   H7X18779   5.112   1.146   5.625  1.2265 -0.3568 -0.8848
  166SAPS   H7Y18780   4.946   1.202   5.589 -0.6826  0.0382  0.9716
  166SAPS   C3818781   5.036   1.074   5.430  0.1417  0.5510 -0.2168
  166SAPS   H8X18782   4.945   1.025   5.389 -1.3045  1.5961  1.5777
  166SAPS   H8Y18783   5.120   1.001   5.422  1.1668  1.4913  1.3968
  166SAPS   C3918784   5.062   1.193   5.332 -0.3180  0.6811  0.8939
  166SAPS   H9X18785   5.163   1.236   5.352 -0.0984 -0.0438  1.3613
  166SAPS   H9Y18786   4.978   1.264   5.345 -1.2027 -0.0824 -0.4425
  166SAPS  C31018787   5.067   1.142   5.187 -0.0204 -0.0386  0.1496
  166SAPS  H10X18788   4.999   1.055   5.175 -1.7808  1.1625  1.0334
  166SAPS  H10Y18789   5.166   1.104   5.151 -0.1175 -2.0687  1.8267
  166SAPS  C31118790   5.029   1.253   5.094 -0.4497 -0.1946  0.6726
  166SAPS  H11X18791   5.063   1.226   4.992 -1.9025  0.6032 -0.0462
  166SAPS  H11Y18792   5.078   1.351   5.113 -0.7751  0.4889 -1.6512
  166SAPS  C31218793   4.886   1.281   5.068  0.5849 -0.0955 -0.0866
  166SAPS  H12X18794   4.842   1.301   5.168  0.4720  0.7014 -0.2867
  166SAPS  H12Y18795   4.835   1.199   5.013  0.1562  0.6797 -0.8709
  166SAPS  C31318796   4.876   1.413   4.988 -0.4159  1.0249 -0.1676
  166SAPS  H13X18797   4.894   1.500   5.055 -2.4066  0.0049  1.8128
  166SAPS  H13Y18798   4.769   1.405   4.958  0.1033 -3.0551 -1.5546
  166SAPS  C31418799   4.955   1.412   4.852 -0.7433 -0.5525 -0.5160
  166SAPS  H14X18800   4.913   1.346   4.774 -2.2694  1.9434 -1.9650
  166SAPS  H14Y18801   5.065   1.404   4.860 -0.4928  1.5202 -1.1853
  166SAPS  C31518802   4.940   1.548   4.778 -0.2551  0.8481 -0.3579
  166SAPS  H15X18803   4.999   1.631   4.823  1.9496 -0.6107 -0.3786
  166SAPS  H15Y18804   4.833   1.574   4.766 -0.0535  3.1906  2.1238
  166SAPS  C31618805   4.997   1.554   4.631  0.7135 -0.2860 -0.3578
  166SAPS  H16X18806   4.939   1.487   4.564  0.6398  0.5665 -1.1886
  166SAPS  H16Y18807   5.102   1.519   4.636  0.7449 -0.5925 -2.1604
  166SAPS  C31718808   4.988   1.699   4.583  0.2162  0.5062  0.4741
  166SAPS  H17X18809   5.067   1.765   4.626 -0.9842  0.9276  2.1429
  166SAPS  H17Y18810   4.888   1.744   4.598  0.1165  0.1959  0.7480
  166SAPS  C31818811   5.016   1.689   4.429 -0.1714 -0.1539  0.1767
  166SAPS  H18X18812   5.007   1.790   4.383 -0.0209 -1.0368 -1.9128
  166SAPS  H18Y18813   4.950   1.611   4.386 -0.4520 -0.6311  1.4243
  166SAPS  H18Z18814   5.116   1.648   4.407 -0.8647 -1.9222  0.1633
  167SAPS     N18815   4.945   2.056   6.981  0.9283 -0.2647 -0.1984
  167SAPS   HN118816   4.918   1.977   7.043 -3.4288 -0.2025 -1.6742
  167SAPS   HN218817   4.877   2.133   6.996 -0.1493 -1.3288  0.6532
  167SAPS   HN318818   4.945   2.018   6.884 -1.3430  0.9943 -0.7794
  167SAPS   C1218819   5.061   2.134   7.027 -0.0375  0.1981  0.5519
  167SAPS  H12A18820   5.041   2.173   7.126 -0.8707  1.0432  0.0582
  167SAPS   C1318821   5.191   2.060   7.037 -0.3170 -0.3906 -0.4876
  167SAPS  O13A18822   5.204   1.946   6.992  0.0232 -0.1409 -0.3910
  167SAPS  O13B18823   5.293   2.125   7.068  0.6163  0.0430 -0.1322
  167SAPS   C1118824   5.078   2.263   6.941 -0.6744  0.4797 -0.1446
  167SAPS  H11A18825   5.096   2.223   6.839  1.4883  0.6287  0.1297
  167SAPS  H11B18826   5.160   2.325   6.982 -2.6339  2.3123  1.2367
  167SAPS     P18827   4.934   2.466   6.891  0.1680 -0.0782  0.2453
  167SAPS   O1318828   4.824   2.535   6.949 -0.0798 -0.1743 -0.5452
  167SAPS   O1418829   5.064   2.533   6.914  0.3464 -0.0089 -0.3657
  167SAPS   O1218830   4.947   2.323   6.956 -0.3182 -0.2134  0.4841
  167SAPS   O1118831   4.920   2.451   6.730  0.1322  0.3885 -0.5180
  167SAPS    C118832   4.815   2.358   6.684  0.1031 -0.9135 -0.5827
  167SAPS    HA18833   4.758   2.297   6.758 -0.5877 -0.0483 -0.3892
  167SAPS    HB18834   4.730   2.413   6.638 -0.3748 -0.7735  0.4409
  167SAPS    C218835   4.873   2.261   6.578  0.1202  0.2301 -0.0291
  167SAPS    HS18836   4.970   2.225   6.617  0.9880 -0.3916 -2.5825
  167SAPS   O2118837   4.888   2.339   6.455  0.0184  0.6213 -0.6212
  167SAPS   C2118838   4.998   2.318   6.391 -0.1491  0.1074 -0.8685
  167SAPS   O2218839   5.094   2.253   6.423  0.0890 -0.2020 -0.4256
  167SAPS   C2218840   4.982   2.390   6.262 -0.5656 -0.2822 -0.0372
  167SAPS   H2R18841   4.884   2.363   6.218 -0.5340  2.3666 -2.0082
  167SAPS   H2S18842   4.973   2.499   6.279  0.4707 -0.3235  0.8580
  167SAPS    C318843   4.772   2.146   6.551 -0.7659  1.1410  0.1186
  167SAPS    HX18844   4.676   2.187   6.513 -0.1048  1.6814 -1.0156
  167SAPS    HY18845   4.762   2.089   6.645 -2.4206 -0.6855 -1.0650
  167SAPS   O3118846   4.830   2.057   6.456 -0.2396 -0.3339 -0.5014
  167SAPS   C3118847   4.764   2.031   6.341 -0.2781 -0.4099 -0.4707
  167SAPS   O3218848   4.649   2.069   6.323 -0.1171 -0.3124  0.5381
  167SAPS   C3218849   4.843   1.935   6.244 -0.4063 -0.0109 -0.0677
  167SAPS   H2X18850   4.859   1.841   6.301 -3.5316 -1.4405 -1.3312
  167SAPS   H2Y18851   4.937   1.988   6.219 -0.3596  1.0998  2.2115
  167SAPS   C2318852   5.093   2.349   6.159  0.3061  0.3741 -0.1025
  167SAPS   H3R18853   5.088   2.239   6.141  2.4699  0.2913 -0.4100
  167SAPS   H3S18854   5.177   2.384   6.222  1.2504 -0.9623 -0.5535
  167SAPS   C2418855   5.100   2.429   6.029  0.4706  0.2734  0.4536
  167SAPS   H4R18856   5.183   2.386   5.968 -0.6119 -1.8226  0.3719
  167SAPS   H4S18857   5.108   2.537   6.052 -2.2948  0.2221  2.0886
  167SAPS   C2518858   4.973   2.410   5.942  0.0159 -0.3443 -0.2961
  167SAPS   H5R18859   4.883   2.462   5.978 -0.1739 -0.2752 -0.8668
  167SAPS   C2618860   4.960   2.348   5.826  0.3869  0.3654  0.0439
  167SAPS   H6R18861   4.863   2.354   5.775 -0.2097  5.0082  1.2393
  167SAPS   C2718862   5.071   2.280   5.750  0.0763 -0.4139 -0.3201
  167SAPS   H7R18863   5.024   2.182   5.725 -1.0320  0.0164  0.0057
  167SAPS   H7S18864   5.158   2.246   5.810  0.5412 -0.9235 -1.2571
  167SAPS   C2818865   5.105   2.353   5.618  0.1914  0.3335 -0.0294
  167SAPS   H8R18866   5.122   2.460   5.638  1.7301 -0.1083  1.2493
  167SAPS   C2918867   5.113   2.302   5.497 -0.0744 -0.4885  0.4631
  167SAPS   H9R18868   5.139   2.370   5.414 -1.3694 -0.0813  0.3751
  167SAPS  C21018869   5.106   2.158   5.450  0.4071 -0.4133  0.1325
  167SAPS  H10R18870   5.174   2.090   5.506 -1.6751 -0.5188  2.6982
  167SAPS  H10S18871   5.153   2.171   5.350  0.1450  0.3744  0.1066
  167SAPS  C21118872   4.970   2.099   5.439 -0.3326  0.5990 -0.6370
  167SAPS  H11R18873   4.927   2.064   5.534 -1.1435  0.5111 -1.0269
  167SAPS  C21218874   4.877   2.086   5.342 -0.6114 -0.3613 -0.4328
  167SAPS  H12R18875   4.790   2.019   5.349 -0.5241 -0.5897 -1.3713
  167SAPS  C21318876   4.896   2.144   5.200  0.3395  0.7963  0.2229
  167SAPS  H13R18877   4.809   2.100   5.147  1.0275 -0.2139 -0.0993
  167SAPS  H13S18878   4.980   2.095   5.146 -1.3428 -1.9567 -0.1388
  167SAPS  C21418879   4.899   2.295   5.193  0.2712 -0.4907  0.0182
  167SAPS  H14R18880   4.853   2.339   5.283  1.8659 -0.5244  0.8899
  167SAPS  C21518881   4.959   2.370   5.102 -0.2322  0.1670 -0.4333
  167SAPS  H15R18882   4.937   2.477   5.108  0.0279  0.3152 -1.9279
  167SAPS  C21618883   5.056   2.335   4.997  0.4498  0.2001 -0.2374
  167SAPS  H16R18884   5.069   2.225   4.994  0.8842  0.1021  2.4028
  167SAPS  H16S18885   5.155   2.379   5.023  0.1966 -0.5570  2.2508
  167SAPS  C21718886   5.021   2.390   4.851  0.2642  0.1175 -0.8849
  167SAPS  H17R18887   5.104   2.354   4.787 -0.1938  1.1737 -2.1134
  167SAPS  H17S18888   5.020   2.501   4.849 -3.3360  0.2007 -0.9756
  167SAPS  C21818889   4.886   2.349   4.792 -0.2340 -0.1312 -0.3622
  167SAPS  H18R18890   4.904   2.375   4.685  2.9794  1.2851  0.3956
  167SAPS  H18S18891   4.808   2.417   4.833 -0.3737  0.1530 -1.0877
  167SAPS  C21918892   4.850   2.199   4.800 -0.1515  0.3474 -0.6434
  167SAPS  H19R18893   4.751   2.183   4.753 -0.4657  0.0827  0.1028
  167SAPS  H19S18894   4.835   2.178   4.908  0.9594  1.3163 -0.2739
  167SAPS  C22018895   4.946   2.090   4.740 -0.1067 -0.4829  0.3067
  167SAPS  H20R18896   5.032   2.101   4.809  0.5914  0.4368 -0.6847
  167SAPS  H20S18897   4.973   2.103   4.633 -0.6260  0.4877  0.2793
  167SAPS  H20T18898   4.910   1.985   4.734 -0.6666 -0.1994 -1.9982
  167SAPS   C3318899   4.770   1.908   6.106  0.4304  0.3497  0.2007
  167SAPS   H3X18900   4.661   1.909   6.125  0.7172 -0.2869  2.0427
  167SAPS   H3Y18901   4.796   1.806   6.073 -0.8443  0.0044  0.2095
  167SAPS   C3418902   4.800   2.016   6.005 -0.0094  0.0287  0.7485
  167SAPS   H4X18903   4.906   2.038   5.979  0.3061 -0.8308  1.2536
  167SAPS   H4Y18904   4.745   2.110   6.026 -2.5525 -1.4513  1.2262
  167SAPS   C3518905   4.754   1.976   5.867  0.4041  0.0376  0.2987
  167SAPS   H5X18906   4.804   1.880   5.844  0.3247 -0.0507  0.4989
  167SAPS   H5Y18907   4.800   2.048   5.796  0.1999 -0.1170  0.0102
  167SAPS   C3618908   4.604   1.960   5.856  0.2778 -0.2334  0.4271
  167SAPS   H6X18909   4.569   2.061   5.886 -0.7186  0.8393 -3.6599
  167SAPS   H6Y18910   4.565   1.877   5.919 -0.0251  0.8867  1.7548
  167SAPS   C3718911   4.559   1.939   5.714  0.5889 -0.6951  0.1552
  167SAPS   H7X18912   4.449   1.923   5.717  0.5313 -0.3946 -0.1288
  167SAPS   H7Y18913   4.613   1.861   5.656  1.3018 -0.0522 -0.0641
  167SAPS   C3818914   4.569   2.069   5.619 -0.0940  0.6730 -0.4411
  167SAPS   H8X18915   4.673   2.109   5.615  0.0126  0.3335 -1.4761
  167SAPS   H8Y18916   4.496   2.145   5.655  1.8012  2.1286  0.5410
  167SAPS   C3918917   4.544   2.024   5.478 -0.4904  0.5759  0.8015
  167SAPS   H9X18918   4.456   1.955   5.475  0.5613 -0.8103 -1.9131
  167SAPS   H9Y18919   4.625   1.958   5.440 -0.5183  0.3049  1.2027
  167SAPS  C31018920   4.533   2.149   5.379  0.4986  0.1997  0.1714
  167SAPS  H10X18921   4.629   2.203   5.390  0.3131  0.7400 -0.7481
  167SAPS  H10Y18922   4.449   2.211   5.416 -0.4375 -0.7773 -0.2480
  167SAPS  C31118923   4.512   2.112   5.230  0.5871 -0.2126 -0.3753
  167SAPS  H11X18924   4.423   2.046   5.227 -1.1264  2.0109 -0.6514
  167SAPS  H11Y18925   4.597   2.058   5.182  1.4716  0.9923 -0.2117
  167SAPS  C31218926   4.478   2.234   5.139 -0.0589  0.3360  0.0733
  167SAPS  H12X18927   4.523   2.322   5.190  0.2647 -0.7906  1.8173
  167SAPS  H12Y18928   4.371   2.263   5.147  0.2776  1.2367  1.9936
  167SAPS  C31318929   4.531   2.217   4.999 -0.2203 -0.4863 -0.0561
  167SAPS  H13X18930   4.637   2.184   5.005  0.3318  0.9950 -1.1451
  167SAPS  H13Y18931   4.538   2.319   4.957 -1.5937 -0.6333 -0.7076
  167SAPS  C31418932   4.448   2.121   4.922 -0.5304 -0.1861 -0.6586
  167SAPS  H14X18933   4.443   2.021   4.970 -3.0122 -0.7399 -1.8530
  167SAPS  H14Y18934   4.504   2.106   4.827  1.3424 -0.6872  0.4853
  167SAPS  C31518935   4.306   2.167   4.884  0.5148 -0.4128  0.1330
  167SAPS  H15X18936   4.252   2.192   4.978 -0.3792  0.3750 -0.5656
  167SAPS  H15Y18937   4.257   2.078   4.839  0.5005 -0.5873  0.4863
  167SAPS  C31618938   4.301   2.295   4.791  0.5799 -0.2897 -0.5086
  167SAPS  H16X18939   4.354   2.378   4.842  0.1044  0.4296 -1.1638
  167SAPS  H16Y18940   4.197   2.333   4.779  0.4537  1.0920  3.5365
  167SAPS  C31718941   4.373   2.276   4.660  0.2865  0.3421 -0.2361
  167SAPS  H17X18942   4.332   2.193   4.598 -1.2854 -0.8149  2.2078
  167SAPS  H17Y18943   4.475   2.243   4.691 -1.0023 -2.9876  0.8947
  167SAPS  C31818944   4.387   2.406   4.580 -0.1735  0.0355  0.1755
  167SAPS  H18X18945   4.463   2.474   4.624 -0.7196 -0.7193  2.4199
  167SAPS  H18Y18946   4.290   2.459   4.576  0.5958  2.0759  3.8930
  167SAPS  H18Z18947   4.423   2.377   4.479  0.5345 -0.2192  0.4899
  168SAPS     N18948   0.488   3.070   6.810 -0.1799  0.0997 -0.0735
  168SAPS   HN118949   0.424   2.988   6.815 -1.0539  0.7501 -0.1644
  168SAPS   HN218950   0.515   3.079   6.710 -0.3607 -0.5616 -0.1910
  168SAPS   HN318951   0.568   3.038   6.868  0.0872 -0.9817 -1.0120
  168SAPS   C1218952   0.432   3.205   6.850  0.3555 -0.1407  0.4810
  168SAPS  H12A18953   0.359   3.234   6.775  0.5180 -2.1970 -0.5358
  168SAPS   C1318954   0.347   3.218   6.977  0.6151  0.5534  0.2990
  168SAPS  O13A18955   0.362   3.126   7.058 -0.0263  0.2777 -0.5623
  168SAPS  O13B18956   0.280   3.322   7.001  0.8660 -0.6809 -0.3548
  168SAPS   C1118957   0.545   3.313   6.865 -0.0894  0.1143  0.6803
  168SAPS  H11A18958   0.616   3.280   6.944  1.1934  0.9606 -0.0848
  168SAPS  H11B18959   0.501   3.413   6.889 -1.5981 -0.5419  0.7180
  168SAPS     P18960   0.707   3.427   6.698  0.4048 -0.4043 -0.4905
  168SAPS   O1318961   0.728   3.522   6.811 -0.1289  0.5072  0.2532
  168SAPS   O1418962   0.832   3.363   6.654  0.2099 -0.1689  0.2030
  168SAPS   O1218963   0.612   3.312   6.737  0.2425  0.3273  0.0179
  168SAPS   O1118964   0.626   3.503   6.589  0.3414 -0.0631  0.4104
  168SAPS    C118965   0.563   3.440   6.482 -0.1565  0.2430  0.3767
  168SAPS    HA18966   0.505   3.349   6.509 -0.4344  1.0473  2.7478
  168SAPS    HB18967   0.483   3.507   6.446 -2.4988 -2.3460  0.4567
  168SAPS    C218968   0.661   3.403   6.363  0.0539  0.4915  0.2379
  168SAPS    HS18969   0.728   3.323   6.401  1.9039  2.0768  0.4899
  168SAPS   O2118970   0.740   3.513   6.326 -0.1860 -0.7541  0.4982
  168SAPS   C2118971   0.839   3.487   6.245 -0.8589 -0.1446 -0.3618
  168SAPS   O2218972   0.876   3.381   6.200 -0.8131 -0.2727 -0.1663
  168SAPS   C2218973   0.917   3.620   6.229 -0.3228  0.3127  0.2869
  168SAPS   H2R18974   0.843   3.697   6.197 -0.5316  0.4187  1.0083
  168SAPS   H2S18975   0.955   3.650   6.329  2.9369  2.2311 -1.3560
  168SAPS    C318976   0.587   3.342   6.243 -0.0106 -0.2802  0.1061
  168SAPS    HX18977   0.528   3.259   6.286  1.3640 -0.9592  0.7501
  168SAPS    HY18978   0.656   3.302   6.165  1.5028  1.8495  0.2550
  168SAPS   O3118979   0.501   3.435   6.177  0.3095 -0.4463 -0.8207
  168SAPS   C3118980   0.367   3.435   6.206  0.2808  0.0733  0.7076
  168SAPS   O3218981   0.310   3.355   6.276  0.0024  0.0962 -0.2018
  168SAPS   C3218982   0.293   3.546   6.126 -0.6325  0.3452 -0.0084
  168SAPS   H2X18983   0.326   3.639   6.176 -1.0085  0.9909 -0.9407
  168SAPS   H2Y18984   0.185   3.533   6.149 -0.4903  2.0493  1.8633
  168SAPS   C2318985   1.038   3.612   6.137 -0.0361 -0.2017  0.4759
  168SAPS   H3R18986   1.009   3.567   6.040 -0.2019  1.2789 -0.1857
  168SAPS   H3S18987   1.114   3.554   6.193 -0.0677  1.5366  2.4726
  168SAPS   C2418988   1.090   3.749   6.087 -0.4271 -0.5638 -0.9100
  168SAPS   H4R18989   1.012   3.802   6.029 -1.3242 -1.9892 -1.0596
  168SAPS   H4S18990   1.170   3.722   6.014 -0.9973 -0.6215 -1.5197
  168SAPS   C2518991   1.143   3.834   6.203 -0.0339  0.0423  0.1222
  168SAPS   H5R18992   1.215   3.775   6.262 -0.3532 -0.3122  0.1591
  168SAPS   C2618993   1.095   3.945   6.249  0.3358  0.2777  0.1911
  168SAPS   H6R18994   1.139   3.985   6.342 -0.8316  1.2349  0.3599
  168SAPS   C2718995   0.993   4.041   6.185 -0.1383  0.1121  0.0149
  168SAPS   H7R18996   0.923   3.980   6.125 -2.3460 -0.6201  3.0628
  168SAPS   H7S18997   1.041   4.107   6.110  0.2776  2.3816  2.1426
  168SAPS   C2818998   0.919   4.132   6.282  0.2987 -0.1134  0.4369
  168SAPS   H8R18999   0.921   4.103   6.389  0.8943  1.1278  0.7735
  168SAPS   C2919000   0.842   4.242   6.245 -0.5219  1.0871  0.2163
  168SAPS   H9R19001   0.775   4.288   6.320 -0.5018  1.4494  0.0179
  168SAPS  C21019002   0.819   4.285   6.105  0.3079  0.1776  0.3792
  168SAPS  H10R19003   0.791   4.198   6.041 -0.7939  0.9729 -0.2533
  168SAPS  H10S19004   0.916   4.320   6.063  0.3066 -0.1231  0.1164
  168SAPS  C21119005   0.722   4.406   6.100 -0.0778 -0.3051  0.1320
  168SAPS  H11R19006   0.740   4.481   6.178  2.7736  1.5160 -2.0844
  168SAPS  C21219007   0.628   4.423   6.005  0.1991 -0.7274  0.7007
  168SAPS  H12R19008   0.577   4.521   6.002 -0.0534 -0.8600  0.5860
  168SAPS  C21319009   0.583   4.332   5.891  0.4797  1.2008  0.3384
  168SAPS  H13R19010   0.620   4.228   5.898 -1.5818  0.4582  0.8565
  168SAPS  H13S19011   0.625   4.363   5.793 -0.3648 -0.6875 -0.6777
  168SAPS  C21419012   0.434   4.321   5.874  0.4536 -0.1995  0.4971
  168SAPS  H14R19013   0.372   4.359   5.957  1.1095  0.9314  0.4978
  168SAPS  C21519014   0.362   4.290   5.764 -0.4084 -0.1776  0.1977
  168SAPS  H15R19015   0.253   4.298   5.777 -0.3659  0.8334 -0.0497
  168SAPS  C21619016   0.417   4.230   5.638  0.2786  0.6438 -0.8966
  168SAPS  H16R19017   0.517   4.184   5.651 -0.7571 -1.3052  0.8162
  168SAPS  H16S19018   0.429   4.310   5.562  1.0863  0.4459 -0.9839
  168SAPS  C21719019   0.333   4.111   5.585  0.8017 -0.1972  0.3701
  168SAPS  H17R19020   0.230   4.150   5.573 -0.3509 -2.4795  1.9731
  168SAPS  H17S19021   0.325   4.027   5.657 -2.1072 -1.7671 -1.5850
  168SAPS  C21819022   0.373   4.057   5.452  0.3476 -0.3257  0.2956
  168SAPS  H18R19023   0.482   4.036   5.460  0.1084 -1.5709  0.5256
  168SAPS  H18S19024   0.362   4.123   5.364 -1.8183  0.3521  1.0056
  168SAPS  C21919025   0.312   3.918   5.418 -0.1269  0.4971 -0.2308
  168SAPS  H19R19026   0.207   3.935   5.386 -0.4283 -2.3012 -0.9996
  168SAPS  H19S19027   0.314   3.847   5.503 -0.3216  1.2721  0.4234
  168SAPS  C22019028   0.396   3.860   5.300 -0.5733 -0.5192 -0.5001
  168SAPS  H20R19029   0.496   3.844   5.344 -1.1758  1.5062  1.8701
  168SAPS  H20S19030   0.406   3.928   5.212 -4.6118 -0.7701 -1.3575
  168SAPS  H20T19031   0.345   3.771   5.257 -1.1122 -0.8002  0.6940
  168SAPS   C3319032   0.325   3.561   5.984  0.2633 -0.0172 -0.5438
  168SAPS   H3X19033   0.327   3.466   5.928  1.5871 -1.4729  1.8301
  168SAPS   H3Y19034   0.429   3.597   5.968 -0.5889  1.8002 -2.5640
  168SAPS   C3419035   0.227   3.660   5.925  0.6027  0.2973  0.0470
  168SAPS   H4X19036   0.223   3.760   5.974 -2.8404  0.8418 -1.0891
  168SAPS   H4Y19037   0.122   3.628   5.940  0.8470  0.4029  2.3969
  168SAPS   C3519038   0.231   3.675   5.768  0.1453 -0.5432 -0.2856
  168SAPS   H5X19039   0.331   3.709   5.733  0.3451 -0.0713  0.7009
  168SAPS   H5Y19040   0.157   3.750   5.736  1.2860  1.0328  0.6053
  168SAPS   C3619041   0.197   3.538   5.698 -0.4727  0.6443 -0.5023
  168SAPS   H6X19042   0.096   3.498   5.723 -0.3008  0.6784  0.2820
  168SAPS   H6Y19043   0.261   3.453   5.728 -0.2994  1.1221  0.5121
  168SAPS   C3719044   0.218   3.542   5.550  0.4653  0.5908  0.1897
  168SAPS   H7X19045   0.324   3.564   5.524  0.3440  1.0952  0.1067
  168SAPS   H7Y19046   0.156   3.624   5.508 -0.6138 -0.3693 -0.1495
  168SAPS   C3819047   0.176   3.407   5.484  0.0292 -0.3094  0.6901
  168SAPS   H8X19048   0.070   3.379   5.503 -0.3020 -1.9455 -2.8830
  168SAPS   H8Y19049   0.244   3.330   5.526  1.2366  0.3656  0.0391
  168SAPS   C3919050   0.193   3.401   5.332  0.4698  0.0133 -0.3631
  168SAPS   H9X19051   0.300   3.382   5.311  0.6209  0.7250 -0.2518
  168SAPS   H9Y19052   0.155   3.493   5.284  0.4410 -0.7106 -1.7855
  168SAPS  C31019053   0.111   3.275   5.279  0.4038 -0.1419 -0.8261
  168SAPS  H10X19054   0.001   3.293   5.276  0.6009  1.1555 -0.6830
  168SAPS  H10Y19055   0.125   3.186   5.344 -0.9234  0.3299  0.1463
  168SAPS  C31119056   0.170   3.226   5.145 -0.9056  0.0440 -0.8596
  168SAPS  H11X19057   0.126   3.128   5.118  0.5240 -0.8829  0.0044
  168SAPS  H11Y19058   0.280   3.213   5.160 -0.8538  0.8360 -0.4760
  168SAPS  C31219059   0.140   3.323   5.034 -0.0334 -0.2047 -0.5417
  168SAPS  H12X19060   0.169   3.427   5.059  1.1556 -0.3172 -1.3356
  168SAPS  H12Y19061   0.030   3.327   5.047  0.0970 -0.4194  0.8292
  168SAPS  C31319062   0.172   3.278   4.895 -0.6469 -0.6867 -0.2004
  168SAPS  H13X19063   0.130   3.178   4.869 -0.0383 -1.1368  0.4646
  168SAPS  H13Y19064   0.282   3.262   4.893 -0.4505 -0.7595  3.4662
  168SAPS  C31419065   0.126   3.388   4.798 -0.0948  0.3477 -0.1627
  168SAPS  H14X19066   0.163   3.488   4.831  1.0952 -0.3600  0.7275
  168SAPS  H14Y19067   0.015   3.387   4.807 -0.1288 -0.2085 -0.6253
  168SAPS  C31519068   0.148   3.344   4.647  0.1769  0.0637 -0.7638
  168SAPS  H15X19069   0.123   3.434   4.587  0.6004  0.2210 -0.7122
  168SAPS  H15Y19070   0.093   3.249   4.628  1.0806 -0.7503  0.4937
  168SAPS  C31619071   0.292   3.314   4.615 -0.0939 -0.1315 -0.4761
  168SAPS  H16X19072   0.328   3.236   4.685 -0.3882 -0.9397 -1.2208
  168SAPS  H16Y19073   0.344   3.411   4.635 -1.2906  0.1805  1.3788
  168SAPS  C31719074   0.318   3.261   4.472  0.6331  0.2919 -0.2366
  168SAPS  H17X19075   0.428   3.262   4.458  0.6129  1.1689 -0.3865
  168SAPS  H17Y19076   0.290   3.330   4.389  0.7540  0.7945  0.1406
  168SAPS  C31819077   0.253   3.128   4.441 -0.0212 -0.2647 -0.6899
  168SAPS  H18X19078   0.270   3.096   4.336  1.5357  0.2316 -0.6192
  168SAPS  H18Y19079   0.143   3.134   4.449  0.0569  0.4104  0.0544
  168SAPS  H18Z19080   0.286   3.049   4.512 -2.7376  0.0665  1.0984
  169SAPS     N19081   1.452   6.174   6.736 -0.4148  0.0234  0.1552
  169SAPS   HN119082   1.467   6.075   6.763 -1.1039 -0.9818 -2.7168
  169SAPS   HN219083   1.352   6.204   6.745 -0.1677  0.3922  2.1135
  169SAPS   HN319084   1.492   6.195   6.643  1.0521  0.2683  0.8243
  169SAPS   C1219085   1.533   6.261   6.832 -0.4274  0.3698  0.3507
  169SAPS  H12A19086   1.494   6.358   6.807  1.5276  0.8591 -1.0069
  169SAPS   C1319087   1.537   6.227   6.982 -0.5474  0.6474  0.2830
  169SAPS  O13A19088   1.447   6.151   7.025 -0.4288 -0.4463 -0.1451
  169SAPS  O13B19089   1.590   6.312   7.059  0.6121 -0.5737  0.2307
  169SAPS   C1119090   1.681   6.275   6.781 -0.4949  0.4923 -0.1464
  169SAPS  H11A19091   1.732   6.177   6.795 -0.7498 -0.0993 -2.6705
  169SAPS  H11B19092   1.736   6.351   6.839  1.3802 -0.3512 -0.7373
  169SAPS     P19093   1.700   6.439   6.584 -0.0634 -0.5329  0.4381
  169SAPS   O1319094   1.599   6.535   6.617 -0.0161  0.0146 -0.4908
  169SAPS   O1419095   1.835   6.478   6.627  0.1958  0.0115  0.4832
  169SAPS   O1219096   1.675   6.296   6.643  0.0200  0.0999 -0.0988
  169SAPS   O1119097   1.700   6.418   6.433  0.3378  0.0303  0.0652
  169SAPS    C119098   1.807   6.362   6.351  0.6061 -0.0694 -0.1089
  169SAPS    HA19099   1.884   6.302   6.403  1.2855  0.7806 -0.1280
  169SAPS    HB19100   1.767   6.293   6.274 -1.1356  1.6366 -0.8223
  169SAPS    C219101   1.876   6.479   6.265 -0.1463  0.7153  0.2125
  169SAPS    HS19102   1.931   6.546   6.335  2.4522 -1.7494  0.7429
  169SAPS   O2119103   1.771   6.553   6.195 -0.3968  0.1618  0.5915
  169SAPS   C2119104   1.778   6.684   6.181 -0.3324  0.3141 -0.1710
  169SAPS   O2219105   1.866   6.761   6.217 -0.3376  0.3165 -1.1693
  169SAPS   C2219106   1.646   6.729   6.107  0.0596 -0.3221  0.3587
  169SAPS   H2R19107   1.589   6.647   6.059  1.7666  0.7522 -3.9737
  169SAPS   H2S19108   1.596   6.776   6.194 -0.4372 -2.2271  1.1610
  169SAPS    C319109   1.983   6.409   6.180  0.3453  0.1309  0.4115
  169SAPS    HX19110   1.926   6.336   6.119 -2.7942  1.4324  1.6136
  169SAPS    HY19111   2.051   6.352   6.247 -0.9155 -1.1648  0.6408
  169SAPS   O3119112   2.042   6.510   6.092  0.3696  0.5199 -0.0487
  169SAPS   C3119113   2.128   6.588   6.147 -0.3839  0.2706  0.8574
  169SAPS   O3219114   2.181   6.568   6.253 -0.7020  0.5004 -0.0205
  169SAPS   C3219115   2.156   6.708   6.047  0.8678  0.0113 -0.0259
  169SAPS   H2X19116   2.228   6.769   6.104 -0.4458 -0.1180  1.8735
  169SAPS   H2Y19117   2.063   6.759   6.012 -0.3503 -1.8392  0.3594
  169SAPS   C2319118   1.676   6.819   5.986 -0.0638  0.0824 -0.0478
  169SAPS   H3R19119   1.751   6.897   6.012  1.7992  0.1515 -4.7463
  169SAPS   H3S19120   1.579   6.864   5.956 -0.1924 -0.3151 -0.2271
  169SAPS   C2419121   1.713   6.748   5.852 -0.3292 -0.7257  0.6437
  169SAPS   H4R19122   1.717   6.822   5.770  0.9045 -0.1729  1.1829
  169SAPS   H4S19123   1.628   6.680   5.829 -0.4298 -0.9949  1.7477
  169SAPS   C2519124   1.846   6.669   5.853  0.3710  0.2987  0.5185
  169SAPS   H5R19125   1.936   6.732   5.853 -0.2386  1.1977  0.9013
  169SAPS   C2619126   1.852   6.537   5.851  0.0681  0.1192 -0.0332
  169SAPS   H6R19127   1.952   6.491   5.854  0.1005  0.2456  1.2315
  169SAPS   C2719128   1.739   6.438   5.844 -0.1826 -0.3106  0.0361
  169SAPS   H7R19129   1.680   6.447   5.751 -0.6645  0.0729  0.3764
  169SAPS   H7S19130   1.667   6.487   5.914 -0.6944 -0.1942 -0.5621
  169SAPS   C2819131   1.759   6.298   5.888 -0.3041  0.5394  0.4370
  169SAPS   H8R19132   1.750   6.287   5.997 -0.3019  0.0587  0.3902
  169SAPS   C2919133   1.800   6.195   5.809  0.1506 -0.7598  0.6054
  169SAPS   H9R19134   1.798   6.095   5.854  0.4080 -0.4585  1.2910
  169SAPS  C21019135   1.809   6.200   5.662 -0.1556  0.1241 -0.5299
  169SAPS  H10R19136   1.876   6.284   5.632 -0.2343  0.8104  1.0798
  169SAPS  H10S19137   1.711   6.227   5.617 -0.2949  0.0914 -0.2450
  169SAPS  C21119138   1.859   6.075   5.591 -0.4610  0.1135 -1.0106
  169SAPS  H11R19139   1.911   6.005   5.659  1.4763 -1.0426 -3.4951
  169SAPS  C21219140   1.850   6.039   5.458 -0.1840  0.1488 -0.3601
  169SAPS  H12R19141   1.886   5.938   5.436 -0.9657  0.0193 -1.1084
  169SAPS  C21319142   1.766   6.101   5.347 -0.1906  0.2811 -1.0033
  169SAPS  H13R19143   1.733   6.200   5.384 -0.9259 -0.2998 -0.0671
  169SAPS  H13S19144   1.679   6.034   5.332 -0.9031  1.1688 -0.8883
  169SAPS  C21419145   1.836   6.115   5.215 -0.3051 -0.6119  0.0144
  169SAPS  H14R19146   1.922   6.050   5.198  0.7659  1.1456 -1.7937
  169SAPS  C21519147   1.805   6.199   5.119 -0.1507 -0.7116 -0.1567
  169SAPS  H15R19148   1.870   6.209   5.031  0.3889 -0.4652  0.2631
  169SAPS  C21619149   1.692   6.301   5.121 -0.5607  0.5334 -0.2873
  169SAPS  H16R19150   1.627   6.291   5.211 -0.6347 -0.3157 -0.4184
  169SAPS  H16S19151   1.615   6.287   5.041 -0.8866 -1.4787  0.3187
  169SAPS  C21719152   1.746   6.444   5.142  0.0364  0.0738 -0.2698
  169SAPS  H17R19153   1.668   6.516   5.109  0.8144  1.1135  0.0928
  169SAPS  H17S19154   1.833   6.460   5.074 -0.6112  0.0396 -1.1161
  169SAPS  C21819155   1.806   6.468   5.288 -0.0378 -0.2863 -0.5018
  169SAPS  H18R19156   1.893   6.400   5.307  0.0176  0.2010  1.0834
  169SAPS  H18S19157   1.743   6.429   5.370  0.1392 -2.0792 -1.1668
  169SAPS  C21919158   1.844   6.614   5.316 -0.3584  0.3597  0.1103
  169SAPS  H19R19159   1.756   6.680   5.298 -1.3642 -0.6976  0.9552
  169SAPS  H19S19160   1.922   6.641   5.242 -0.8989  2.0458  0.1236
  169SAPS  C22019161   1.894   6.656   5.453 -0.3815  0.3082 -0.0114
  169SAPS  H20R19162   1.991   6.603   5.467 -0.7145  0.3000  2.8354
  169SAPS  H20S19163   1.830   6.621   5.537 -0.3563 -1.1773 -0.5660
  169SAPS  H20T19164   1.908   6.766   5.447  0.2180  0.1508 -2.5455
  169SAPS   C3319165   2.224   6.671   5.916 -0.2338  0.8706 -0.4683
  169SAPS   H3X19166   2.182   6.581   5.868  1.7438 -0.6539  0.5086
  169SAPS   H3Y19167   2.330   6.651   5.944 -0.8817  0.4819  1.9012
  169SAPS   C3419168   2.220   6.800   5.827 -0.7534  0.6840 -0.0566
  169SAPS   H4X19169   2.262   6.881   5.889  3.8204 -0.5312 -1.1655
  169SAPS   H4Y19170   2.114   6.824   5.805 -0.7550 -0.2884 -1.2766
  169SAPS   C3519171   2.296   6.797   5.690  0.1669 -0.1810  0.1703
  169SAPS   H5X19172   2.250   6.724   5.621  1.7158 -1.0175 -0.0251
  169SAPS   H5Y19173   2.401   6.763   5.707  1.2154  2.5544 -0.2769
  169SAPS   C3619174   2.299   6.929   5.614 -0.1512  0.2074 -0.6249
  169SAPS   H6X19175   2.373   7.003   5.653 -0.5674  0.5203 -0.4191
  169SAPS   H6Y19176   2.210   6.992   5.635 -0.7275 -0.2212 -1.7349
  169SAPS   C3719177   2.334   6.910   5.465  0.6607  0.2024 -0.3047
  169SAPS   H7X19178   2.304   6.814   5.416  2.0507 -0.8530  0.8161
  169SAPS   H7Y19179   2.444   6.902   5.448  0.5554  0.6972 -1.2967
  169SAPS   C3819180   2.281   7.030   5.388 -0.2797 -0.2810 -0.7033
  169SAPS   H8X19181   2.325   7.127   5.419 -0.3578 -0.1193 -1.0828
  169SAPS   H8Y19182   2.171   7.040   5.396 -0.0494  0.7432  2.2853
  169SAPS   C3919183   2.311   7.020   5.244 -0.0839 -0.8876  0.0205
  169SAPS   H9X19184   2.273   6.920   5.211 -1.5963 -0.0083 -1.0281
  169SAPS   H9Y19185   2.419   7.019   5.218 -0.4184  1.5642 -1.8013
  169SAPS  C31019186   2.273   7.140   5.162 -0.3666  0.5411 -0.5501
  169SAPS  H10X19187   2.326   7.233   5.192 -1.0372  0.6630  0.2868
  169SAPS  H10Y19188   2.163   7.152   5.167 -0.3801 -0.0769  1.5288
  169SAPS  C31119189   2.319   7.127   5.008 -0.4001  0.0785 -0.2228
  169SAPS  H11X19190   2.299   7.027   4.964 -3.3369  1.0221 -1.2703
  169SAPS  H11Y19191   2.425   7.157   4.991 -0.4649 -0.9070 -2.7355
  169SAPS  C31219192   2.245   7.224   4.924  0.7380 -0.0887  0.8851
  169SAPS  H12X19193   2.267   7.327   4.958  3.8521 -0.6724  0.9712
  169SAPS  H12Y19194   2.136   7.212   4.938  0.3554  0.1056 -1.4930
  169SAPS  C31319195   2.286   7.219   4.773  0.7692 -0.5831 -0.6421
  169SAPS  H13X19196   2.266   7.111   4.755  3.4441 -1.1815 -0.3917
  169SAPS  H13Y19197   2.395   7.240   4.766  0.6387  0.9094  0.9590
  169SAPS  C31419198   2.210   7.302   4.677 -0.0496 -0.5885  0.2018
  169SAPS  H14X19199   2.102   7.284   4.696 -0.1858 -0.3196 -0.3056
  169SAPS  H14Y19200   2.238   7.271   4.574 -1.9872  1.6309 -1.0986
  169SAPS  C31519201   2.234   7.454   4.687 -0.0325 -0.1011  0.2566
  169SAPS  H15X19202   2.340   7.473   4.661  0.0175  0.4754  0.8442
  169SAPS  H15Y19203   2.226   7.495   4.790  0.2619  0.2665  0.1349
  169SAPS  C31619204   2.136   7.514   4.590  0.6798  0.3135 -0.6132
  169SAPS  H16X19205   2.148   7.457   4.495 -1.2246 -1.3898  0.0792
  169SAPS  H16Y19206   2.169   7.619   4.575  0.9436  0.3429  0.1311
  169SAPS  C31719207   1.995   7.517   4.638 -0.2323 -0.2814  0.5975
  169SAPS  H17X19208   1.998   7.520   4.749 -0.9621 -0.0669  0.6180
  169SAPS  H17Y19209   1.942   7.425   4.606  2.5272 -1.4910 -0.8216
  169SAPS  C31819210   1.911   7.632   4.585  0.5562 -0.1913  0.1731
  169SAPS  H18X19211   1.824   7.655   4.649  0.1511 -1.7167  0.2160
  169SAPS  H18Y19212   1.866   7.603   4.487  0.6787 -1.4796  0.4788
  169SAPS  H18Z19213   1.976   7.722   4.582  2.1316 -1.2012  1.8454
  170SAPS     N19214   4.313   3.818   7.163  0.4216  0.4470 -0.5057
  170SAPS   HN119215   4.277   3.890   7.097  0.4761  0.7986 -0.1639
  170SAPS   HN219216   4.259   3.734   7.136  0.9819 -0.4132  0.9324
  170SAPS   HN319217   4.282   3.847   7.259  1.0099 -1.8568  0.4513
  170SAPS   C1219218   4.463   3.793   7.157 -1.1276 -0.1779  0.0790
  170SAPS  H12A19219   4.517   3.886   7.164 -0.5120 -0.5229 -0.0230
  170SAPS   C1319220   4.517   3.713   7.276  0.0133  0.4634  0.3316
  170SAPS  O13A19221   4.440   3.658   7.358  0.8170 -0.8168 -0.5575
  170SAPS  O13B19222   4.639   3.680   7.276 -0.2113  0.1792  0.1778
  170SAPS   C1119223   4.486   3.706   7.029 -0.6376 -0.7248 -0.2196
  170SAPS  H11A19224   4.437   3.608   7.050  1.1065 -1.3997  0.9660
  170SAPS  H11B19225   4.594   3.679   7.030  0.1233  2.0315  0.0683
  170SAPS     P19226   4.546   3.766   6.781 -0.0742 -0.0783 -0.1349
  170SAPS   O1319227   4.450   3.730   6.674 -0.0280  0.3527  0.2576
  170SAPS   O1419228   4.622   3.894   6.775  0.1162  0.5365 -0.6200
  170SAPS   O1219229   4.453   3.772   6.911  0.5410 -0.3376  0.6060
  170SAPS   O1119230   4.645   3.647   6.816 -0.2352 -0.1904 -0.0780
  170SAPS    C119231   4.773   3.648   6.751  0.2635 -0.2955  0.4951
  170SAPS    HA19232   4.821   3.748   6.745  1.2872 -0.8594 -1.5268
  170SAPS    HB19233   4.838   3.583   6.814 -1.1928 -0.0655  2.3480
  170SAPS    C219234   4.769   3.588   6.604  0.2175  0.2544 -0.6217
  170SAPS    HS19235   4.874   3.582   6.569 -0.3675  0.7873 -2.6389
  170SAPS   O2119236   4.689   3.665   6.520 -0.7682  0.0657 -0.2621
  170SAPS   C2119237   4.748   3.769   6.468 -0.4810 -0.3313 -0.7134
  170SAPS   O2219238   4.867   3.796   6.479 -0.2270 -0.6809 -0.5389
  170SAPS   C2219239   4.647   3.849   6.378 -0.1992  0.2798 -0.4322
  170SAPS   H2R19240   4.548   3.801   6.394  1.6500 -3.1933  1.8479
  170SAPS   H2S19241   4.636   3.956   6.406  0.1671  0.2951 -0.3458
  170SAPS    C319242   4.714   3.445   6.607  0.1387 -1.2136 -0.3517
  170SAPS    HX19243   4.603   3.444   6.609  0.0708  0.7775  2.4649
  170SAPS    HY19244   4.754   3.396   6.698  4.8210  0.4915 -1.2093
  170SAPS   O3119245   4.764   3.390   6.483 -0.2111 -0.2329 -0.7637
  170SAPS   C3119246   4.668   3.363   6.389  0.3497 -0.2206  0.0669
  170SAPS   O3219247   4.548   3.380   6.402  0.3263 -0.2075 -0.4199
  170SAPS   C3219248   4.734   3.330   6.253 -1.2537 -0.5564 -0.1552
  170SAPS   H2X19249   4.744   3.219   6.259 -3.2954 -0.6893  3.1626
  170SAPS   H2Y19250   4.830   3.385   6.246 -1.6002  0.3389  1.6240
  170SAPS   C2319251   4.676   3.843   6.229 -0.5435  0.0786  0.5454
  170SAPS   H3R19252   4.683   3.737   6.195  0.4261  0.9350 -2.2093
  170SAPS   H3S19253   4.774   3.889   6.205 -0.5667 -0.7081 -1.1877
  170SAPS   C2419254   4.575   3.906   6.130 -0.2312 -0.2598 -0.4500
  170SAPS   H4R19255   4.618   3.912   6.028 -1.2315  2.5678 -0.8009
  170SAPS   H4S19256   4.565   4.011   6.163  1.2592 -0.0417 -0.6383
  170SAPS   C2519257   4.443   3.837   6.129  0.4637  0.4478  0.1434
  170SAPS   H5R19258   4.409   3.788   6.222  1.6898  0.3309  0.5501
  170SAPS   C2619259   4.371   3.820   6.014 -0.2342  0.2842 -0.7965
  170SAPS   H6R19260   4.278   3.760   6.012  0.0256 -0.1453 -0.3533
  170SAPS   C2719261   4.403   3.890   5.885  0.1131  0.0244  0.0830
  170SAPS   H7R19262   4.439   3.814   5.811  3.2795 -0.6408  2.0674
  170SAPS   H7S19263   4.494   3.954   5.884 -0.6880  1.1798 -1.4601
  170SAPS   C2819264   4.295   3.976   5.836  0.8031 -0.1999  0.4263
  170SAPS   H8R19265   4.201   3.992   5.892  1.9283  0.6716  2.1514
  170SAPS   C2919266   4.294   4.029   5.717  0.5035  0.2177  0.2517
  170SAPS   H9R19267   4.202   4.077   5.679 -0.4509 -0.3197  1.7950
  170SAPS  C21019268   4.397   4.007   5.607 -0.3798 -0.1420  0.5022
  170SAPS  H10R19269   4.499   4.009   5.652 -0.4678 -3.0124  0.9753
  170SAPS  H10S19270   4.386   4.090   5.533 -0.6427 -0.7497 -0.1473
  170SAPS  C21119271   4.379   3.876   5.533  0.0623  0.3736  0.7324
  170SAPS  H11R19272   4.322   3.796   5.582 -0.6459 -0.6596 -1.6038
  170SAPS  C21219273   4.394   3.857   5.402  0.0206  0.2441  0.6886
  170SAPS  H12R19274   4.384   3.755   5.360  2.1739  1.1117 -2.2962
  170SAPS  C21319275   4.456   3.968   5.321 -0.2760  0.1343  0.5474
  170SAPS  H13R19276   4.518   3.924   5.239  0.1747 -0.5685  1.2499
  170SAPS  H13S19277   4.547   4.018   5.360 -0.3150  0.1938  0.5614
  170SAPS  C21419278   4.354   4.058   5.262 -0.0015 -0.1652 -0.6004
  170SAPS  H14R19279   4.307   4.126   5.334  0.1968  0.7097 -1.2744
  170SAPS  C21519280   4.299   4.069   5.138 -0.4149  0.7222 -0.4236
  170SAPS  H15R19281   4.222   4.145   5.120  0.0531  1.0677 -0.9746
  170SAPS  C21619282   4.345   3.982   5.019 -0.0325 -0.3558 -0.6261
  170SAPS  H16R19283   4.258   3.925   4.979  0.8884 -0.6790 -2.2595
  170SAPS  H16S19284   4.418   3.907   5.057  4.0250  2.4365 -2.2665
  170SAPS  C21719285   4.426   4.042   4.902  0.7195  0.2489  0.2862
  170SAPS  H17R19286   4.496   4.118   4.943  1.5613 -0.1874 -0.3053
  170SAPS  H17S19287   4.358   4.093   4.830 -1.1759 -0.2723  1.6169
  170SAPS  C21819288   4.487   3.937   4.812 -0.2034  0.1936 -0.2019
  170SAPS  H18R19289   4.405   3.866   4.790 -2.2282  1.9220  1.2525
  170SAPS  H18S19290   4.559   3.885   4.879 -1.1835  2.7669  3.1692
  170SAPS  C21919291   4.555   3.983   4.682  0.0053 -0.3046  0.3373
  170SAPS  H19R19292   4.623   3.901   4.652 -1.2090 -0.7882 -1.2095
  170SAPS  H19S19293   4.607   4.080   4.700 -1.1372  0.3547  0.1277
  170SAPS  C22019294   4.445   4.004   4.584 -0.2430 -0.1012  0.2136
  170SAPS  H20R19295   4.373   3.920   4.574 -1.0109  0.7763 -2.7036
  170SAPS  H20S19296   4.474   4.015   4.477  1.1971 -0.7291  0.5176
  170SAPS  H20T19297   4.391   4.098   4.606  1.2931  0.6145  1.0969
  170SAPS   C3319298   4.655   3.379   6.127 -0.0535 -0.5571 -0.1056
  170SAPS   H3X19299   4.644   3.489   6.138 -0.2852 -0.3424 -2.1694
  170SAPS   H3Y19300   4.552   3.336   6.128 -0.8070  1.1617  1.1691
  170SAPS   C3419301   4.732   3.341   6.001 -0.2536 -0.6954  0.8961
  170SAPS   H4X19302   4.759   3.234   6.002  1.9093 -0.2187 -0.4684
  170SAPS   H4Y19303   4.832   3.388   6.013 -0.9462  1.6350 -1.4575
  170SAPS   C3519304   4.657   3.384   5.866 -0.3862 -0.7222 -0.2981
  170SAPS   H5X19305   4.555   3.341   5.855 -0.4891 -0.1301 -1.9139
  170SAPS   H5Y19306   4.717   3.331   5.789  1.9530  0.4006  0.6537
  170SAPS   C3619307   4.672   3.535   5.833  0.4760  0.2593 -0.3845
  170SAPS   H6X19308   4.781   3.555   5.842  0.9842 -2.0605 -0.6426
  170SAPS   H6Y19309   4.616   3.595   5.907 -0.3927  0.1101 -0.9016
  170SAPS   C3719310   4.611   3.558   5.697  0.3647 -0.5378  0.6154
  170SAPS   H7X19311   4.627   3.666   5.679  0.9658 -0.4472  1.6071
  170SAPS   H7Y19312   4.505   3.524   5.696  0.2555 -0.2861  1.8228
  170SAPS   C3819313   4.682   3.483   5.587 -0.1869  0.2097 -0.4339
  170SAPS   H8X19314   4.663   3.374   5.591 -0.8304  0.3310 -0.0201
  170SAPS   H8Y19315   4.789   3.512   5.586 -0.3084  0.7342 -1.9320
  170SAPS   C3919316   4.614   3.504   5.453 -0.6195  0.1452 -0.0402
  170SAPS   H9X19317   4.591   3.609   5.426 -3.1953 -0.5506 -0.7480
  170SAPS   H9Y19318   4.510   3.469   5.469  0.0434 -1.2906  1.4177
  170SAPS  C31019319   4.679   3.428   5.335 -0.5112 -0.0133  0.1773
  170SAPS  H10X19320   4.694   3.327   5.379  0.3055  0.4156  0.9166
  170SAPS  H10Y19321   4.771   3.482   5.303 -1.1312  0.1895 -1.3120
  170SAPS  C31119322   4.580   3.412   5.222 -0.2628 -0.9443  0.3187
  170SAPS  H11X19323   4.485   3.366   5.255 -0.9701 -0.6016 -1.1887
  170SAPS  H11Y19324   4.633   3.354   5.144  0.2108  1.4209 -1.2179
  170SAPS  C31219325   4.546   3.539   5.135 -0.4470 -0.0013  0.3871
  170SAPS  H12X19326   4.646   3.585   5.128 -1.1231  1.2383 -2.6029
  170SAPS  H12Y19327   4.475   3.607   5.187 -2.1616 -0.8730 -0.6926
  170SAPS  C31319328   4.492   3.508   4.998 -0.7412 -0.2396 -0.0192
  170SAPS  H13X19329   4.439   3.601   4.969 -0.0902  1.1411  2.8532
  170SAPS  H13Y19330   4.411   3.434   5.009 -0.1199 -1.1566 -1.3689
  170SAPS  C31419331   4.600   3.491   4.889 -0.7655  0.4826  0.1268
  170SAPS  H14X19332   4.663   3.402   4.912 -0.3261  1.1619  1.7135
  170SAPS  H14Y19333   4.677   3.570   4.883  1.4386 -1.6181 -1.2131
  170SAPS  C31519334   4.547   3.467   4.750  0.2337  0.1010 -0.4164
  170SAPS  H15X19335   4.616   3.490   4.667  1.8201 -0.6199  0.6598
  170SAPS  H15Y19336   4.456   3.532   4.744  0.8170  1.0815  0.8786
  170SAPS  C31619337   4.499   3.328   4.719 -0.1034 -0.2400 -0.4600
  170SAPS  H16X19338   4.434   3.283   4.796  1.4315  1.3545  1.9132
  170SAPS  H16Y19339   4.593   3.269   4.716 -0.2138 -0.4996  0.7254
  170SAPS  C31719340   4.433   3.326   4.581 -0.2756 -0.1709  0.8017
  170SAPS  H17X19341   4.341   3.388   4.590 -0.3878 -0.3382  0.8206
  170SAPS  H17Y19342   4.390   3.226   4.557 -2.2666  0.9231 -0.4533
  170SAPS  C31819343   4.522   3.365   4.463 -0.0069 -0.0965  0.1301
  170SAPS  H18X19344   4.543   3.474   4.469 -1.8552  0.2535  1.0750
  170SAPS  H18Y19345   4.470   3.347   4.367  0.3090 -2.2850  0.3185
  170SAPS  H18Z19346   4.615   3.305   4.462 -0.5189 -0.9046 -1.6680
  171SAPS     N19347   5.943   3.881   6.653  0.2863 -0.5164  0.6028
  171SAPS   HN119348   5.887   3.839   6.577  3.2541 -1.4492 -1.2165
  171SAPS   HN219349   6.001   3.956   6.611  0.9843 -0.4025  1.7188
  171SAPS   HN319350   6.010   3.809   6.687 -0.0868 -0.2372  2.0274
  171SAPS   C1219351   5.857   3.931   6.760  0.4751  0.3794  0.1047
  171SAPS  H12A19352   5.921   3.951   6.845  3.6250 -0.3186 -1.9420
  171SAPS   C1319353   5.757   4.044   6.734 -0.2361 -0.5674  0.0972
  171SAPS  O13A19354   5.734   4.085   6.615  0.4493  0.1080 -0.0459
  171SAPS  O13B19355   5.709   4.108   6.834  0.5223  0.1516 -0.0755
  171SAPS   C1119356   5.764   3.813   6.811 -0.5220 -0.3323 -0.8205
  171SAPS  H11A19357   5.710   3.854   6.900  0.4377  1.6660 -1.0967
  171SAPS  H11B19358   5.835   3.735   6.844  0.2034 -1.0438 -3.7895
  171SAPS     P19359   5.570   3.655   6.748  0.2702  0.1419  0.4801
  171SAPS   O1319360   5.607   3.587   6.876  0.2090  0.4817 -0.3078
  171SAPS   O1419361   5.438   3.724   6.745 -0.0442 -0.0012 -0.1924
  171SAPS   O1219362   5.688   3.755   6.708  0.2443 -1.0771  0.0840
  171SAPS   O1119363   5.586   3.541   6.636  0.0979 -0.9928 -0.1269
  171SAPS    C119364   5.627   3.561   6.502  0.3706 -0.2132 -0.6394
  171SAPS    HA19365   5.717   3.625   6.507  0.3549 -0.1950 -0.5852
  171SAPS    HB19366   5.655   3.464   6.455 -2.9043 -1.0054 -1.2190
  171SAPS    C219367   5.513   3.609   6.414 -0.1144 -0.4478 -0.0876
  171SAPS    HS19368   5.483   3.711   6.448 -0.8296 -0.8657  0.5699
  171SAPS   O2119369   5.392   3.533   6.429 -0.3491  0.2125  0.4530
  171SAPS   C2119370   5.279   3.595   6.382  0.1562  0.8214 -0.2334
  171SAPS   O2219371   5.270   3.714   6.356 -0.3634 -0.3520  0.2643
  171SAPS   C2219372   5.169   3.486   6.378  0.2101  0.4133 -0.0603
  171SAPS   H2R19373   5.182   3.419   6.465  2.1966  0.1907 -0.4901
  171SAPS   H2S19374   5.077   3.542   6.407 -0.3555  0.9098 -2.5506
  171SAPS    C319375   5.556   3.610   6.265  0.3851 -1.3686  0.0154
  171SAPS    HX19376   5.541   3.506   6.230  0.2047 -0.9974 -1.0576
  171SAPS    HY19377   5.666   3.625   6.257  0.1366 -0.4888 -2.6711
  171SAPS   O3119378   5.488   3.699   6.165  0.8085 -0.5541  0.0068
  171SAPS   C3119379   5.527   3.820   6.183 -0.5352 -0.4455 -0.5709
  171SAPS   O3219380   5.600   3.867   6.265 -0.3088 -0.1151 -0.3145
  171SAPS   C3219381   5.454   3.905   6.082  0.0838  1.3020  0.7024
  171SAPS   H2X19382   5.503   4.005   6.094  2.8239  0.3241 -1.2401
  171SAPS   H2Y19383   5.346   3.906   6.105 -0.5920 -0.1587 -2.0112
  171SAPS   C2319384   5.171   3.397   6.251  0.0931 -0.4961  0.1305
  171SAPS   H3R19385   5.090   3.322   6.264  0.7130 -1.0875  0.5996
  171SAPS   H3S19386   5.267   3.344   6.238 -0.9968 -2.8028  0.8922
  171SAPS   C2419387   5.150   3.469   6.119  0.1589 -0.2431  0.5188
  171SAPS   H4R19388   5.237   3.535   6.100 -1.4168  1.4243 -1.2380
  171SAPS   H4S19389   5.059   3.532   6.121 -1.7939 -2.8542  0.3077
  171SAPS   C2519390   5.123   3.375   6.005 -0.2085  0.1115  0.4515
  171SAPS   H5R19391   5.059   3.287   6.025 -1.9522  1.7030  2.2461
  171SAPS   C2619392   5.163   3.393   5.876  0.0260 -0.2141 -0.6041
  171SAPS   H6R19393   5.146   3.313   5.802 -0.6635  1.7197 -2.6491
  171SAPS   C2719394   5.238   3.511   5.816 -0.1544  0.5570 -0.3539
  171SAPS   H7R19395   5.307   3.486   5.733  0.1548  4.1518 -1.3317
  171SAPS   H7S19396   5.303   3.544   5.899 -0.9763 -2.3836  1.6358
  171SAPS   C2819397   5.134   3.615   5.771 -0.1996  0.5451 -0.4918
  171SAPS   H8R19398   5.093   3.678   5.852  0.4945 -1.5179  1.5524
  171SAPS   C2919399   5.106   3.647   5.643 -0.3178  0.0152 -0.4341
  171SAPS   H9R19400   5.031   3.724   5.622 -0.0476  0.7633  1.2205
  171SAPS  C21019401   5.150   3.555   5.531 -0.5772 -0.6265 -0.5067
  171SAPS  H10R19402   5.106   3.454   5.541 -0.2173 -0.8296 -0.9363
  171SAPS  H10S19403   5.259   3.532   5.533  0.1806  2.1725 -2.9708
  171SAPS  C21119404   5.111   3.616   5.400 -0.4561 -0.1186 -0.7420
  171SAPS  H11R19405   5.012   3.664   5.392 -0.2649  0.4483  0.1022
  171SAPS  C21219406   5.182   3.604   5.288 -0.4104 -0.7033  0.1291
  171SAPS  H12R19407   5.138   3.661   5.205 -3.3961 -4.4422 -1.1296
  171SAPS  C21319408   5.317   3.544   5.272 -0.0457  0.5539  0.3567
  171SAPS  H13R19409   5.382   3.567   5.360  1.7459 -0.0084 -0.7639
  171SAPS  H13S19410   5.357   3.599   5.184 -1.9535  0.7457 -0.4219
  171SAPS  C21419411   5.307   3.396   5.252 -0.1442 -0.7184  0.6348
  171SAPS  H14R19412   5.275   3.334   5.337  1.3495 -1.7631  0.4869
  171SAPS  C21519413   5.325   3.328   5.137  0.4613 -0.3594 -0.0432
  171SAPS  H15R19414   5.299   3.222   5.147  1.3750 -0.4179  2.3051
  171SAPS  C21619415   5.375   3.379   5.001 -0.3103  0.2554 -0.3589
  171SAPS  H16R19416   5.375   3.490   5.015 -0.7366  0.4535 -1.7789
  171SAPS  H16S19417   5.303   3.363   4.919  0.1692  0.5997 -0.8592
  171SAPS  C21719418   5.506   3.322   4.959  0.3731  0.5105  0.2496
  171SAPS  H17R19419   5.587   3.344   5.032  0.0289  1.5070  0.3504
  171SAPS  H17S19420   5.540   3.371   4.865  0.1171  2.0219  0.9047
  171SAPS  C21819421   5.491   3.168   4.937  0.4082  0.1515  0.8122
  171SAPS  H18R19422   5.384   3.159   4.907  0.2139  0.5931  1.3455
  171SAPS  H18S19423   5.501   3.109   5.031 -2.2670 -2.0323 -0.1264
  171SAPS  C21919424   5.592   3.120   4.825  0.6022 -0.6641  0.0796
  171SAPS  H19R19425   5.592   3.188   4.737 -0.5767 -0.9599 -0.1746
  171SAPS  H19S19426   5.548   3.025   4.789  1.1504  0.0195 -2.5809
  171SAPS  C22019427   5.728   3.103   4.884 -0.4588  1.0061 -0.0399
  171SAPS  H20R19428   5.799   3.122   4.801 -0.6577 -1.9184 -1.0104
  171SAPS  H20S19429   5.746   3.006   4.935  1.0802  0.0883 -2.1826
  171SAPS  H20T19430   5.753   3.181   4.959 -1.0782  0.4664  0.7451
  171SAPS   C3319431   5.482   3.859   5.938  0.2542 -0.1792 -0.7063
  171SAPS   H3X19432   5.471   3.749   5.934 -1.2886 -0.0386 -0.8711
  171SAPS   H3Y19433   5.590   3.871   5.914  0.0375 -0.1548 -1.6899
  171SAPS   C3419434   5.405   3.927   5.834 -0.7906  0.0558  0.3667
  171SAPS   H4X19435   5.413   4.037   5.844 -2.1571  0.2333 -0.2676
  171SAPS   H4Y19436   5.299   3.904   5.855 -0.9383 -1.5033 -1.7359
  171SAPS   C3519437   5.429   3.872   5.691 -0.6527 -0.3686  0.2641
  171SAPS   H5X19438   5.388   3.768   5.692  0.6467 -0.8996  0.7240
  171SAPS   H5Y19439   5.535   3.869   5.659 -1.1539  0.3260 -1.5509
  171SAPS   C3619440   5.361   3.957   5.585  0.3556  0.4195  0.3743
  171SAPS   H6X19441   5.387   4.064   5.601 -1.9814  1.0108  0.6320
  171SAPS   H6Y19442   5.251   3.953   5.601 -0.0069  0.3218 -1.8104
  171SAPS   C3719443   5.407   3.913   5.452 -0.0500 -0.5254  0.0279
  171SAPS   H7X19444   5.393   3.803   5.445 -2.3125 -0.2563 -0.5426
  171SAPS   H7Y19445   5.514   3.944   5.456 -0.5297  1.1018  1.6737
  171SAPS   C3819446   5.328   3.983   5.339 -0.8049 -0.0430 -0.3967
  171SAPS   H8X19447   5.345   4.093   5.348 -2.6517  0.0835  3.5432
  171SAPS   H8Y19448   5.221   3.961   5.359 -0.5591  0.2719  1.4409
  171SAPS   C3919449   5.365   3.926   5.205  0.1917 -0.4696 -0.7244
  171SAPS   H9X19450   5.334   3.823   5.178 -0.9406  0.5263 -3.5822
  171SAPS   H9Y19451   5.476   3.932   5.205  0.1937  0.2899  0.8747
  171SAPS  C31019452   5.305   4.012   5.093 -0.1699  0.4552  0.2299
  171SAPS  H10X19453   5.339   4.117   5.097 -0.3126  0.5653 -1.0381
  171SAPS  H10Y19454   5.194   4.012   5.096 -0.1996 -1.5835  2.0690
  171SAPS  C31119455   5.349   3.957   4.962 -0.1662 -0.4811  0.2040
  171SAPS  H11X19456   5.298   3.861   4.938 -1.8353  0.8007 -1.7065
  171SAPS  H11Y19457   5.457   3.930   4.963 -0.0846 -0.2398 -0.8401
  171SAPS  C31219458   5.341   4.052   4.839 -0.1073 -0.4946  0.2430
  171SAPS  H12X19459   5.383   4.153   4.858  0.2152 -0.8787  1.6559
  171SAPS  H12Y19460   5.238   4.068   4.802 -1.1488 -1.6565  2.4283
  171SAPS  C31319461   5.422   3.986   4.724 -0.8981 -0.2760  0.2865
  171SAPS  H13X19462   5.529   3.989   4.754 -0.4108  2.5026 -1.3776
  171SAPS  H13Y19463   5.420   4.046   4.631 -2.4130 -0.2083  0.3438
  171SAPS  C31419464   5.385   3.851   4.671 -0.5485  0.3029  0.1381
  171SAPS  H14X19465   5.411   3.829   4.565 -2.2765 -0.2228 -0.1978
  171SAPS  H14Y19466   5.274   3.847   4.672 -0.5326 -3.2345  0.1585
  171SAPS  C31519467   5.436   3.731   4.748 -0.4475  0.9161  0.3564
  171SAPS  H15X19468   5.367   3.701   4.830  2.2404 -0.8705  2.0953
  171SAPS  H15Y19469   5.528   3.766   4.800  0.2563 -2.1499  1.3746
  171SAPS  C31619470   5.460   3.605   4.656 -0.3905 -0.0739 -0.1115
  171SAPS  H16X19471   5.507   3.519   4.708 -1.1560 -0.3116  0.2099
  171SAPS  H16Y19472   5.536   3.645   4.586 -0.5216 -0.6810 -0.6076
  171SAPS  C31719473   5.341   3.544   4.585  0.2562 -0.3045 -0.5007
  171SAPS  H17X19474   5.287   3.615   4.520 -1.5696 -0.1581  1.0904
  171SAPS  H17Y19475   5.266   3.525   4.665  1.3810  1.3986  1.0404
  171SAPS  C31819476   5.381   3.434   4.482 -0.0189  0.2988 -0.4371
  171SAPS  H18X19477   5.392   3.336   4.534 -1.3416  1.3117  1.9009
  171SAPS  H18Y19478   5.478   3.458   4.432  1.2878 -1.2682  1.1889
  171SAPS  H18Z19479   5.298   3.413   4.411 -0.2878  2.2785 -0.7602
  172SAPS     N19480   3.975   3.939   6.796  0.2350 -0.0231  0.2333
  172SAPS   HN119481   3.971   3.843   6.835 -0.6486  0.0693  0.3939
  172SAPS   HN219482   3.887   3.942   6.740 -0.2713 -1.1079  0.9308
  172SAPS   HN319483   4.063   3.937   6.741 -1.0984 -1.6859 -1.9876
  172SAPS   C1219484   3.975   4.040   6.910 -0.0958  0.9064 -0.5877
  172SAPS  H12A19485   3.903   4.002   6.980 -1.1855  0.4657 -1.8955
  172SAPS   C1319486   4.101   4.046   7.000 -0.1946  0.8286  0.3212
  172SAPS  O13A19487   4.196   3.968   6.982  0.0951 -0.7147  0.2137
  172SAPS  O13B19488   4.095   4.110   7.104 -0.1025  0.2899  0.3147
  172SAPS   C1119489   3.921   4.174   6.855 -0.6586 -0.2911  0.2186
  172SAPS  H11A19490   3.996   4.232   6.797 -0.0503  0.5956  1.8069
  172SAPS  H11B19491   3.919   4.233   6.949  2.5829  2.6700 -1.3287
  172SAPS     P19492   3.659   4.195   6.868 -0.3307 -0.2268  0.1329
  172SAPS   O1319493   3.578   4.071   6.865 -0.0307 -0.2785 -0.0824
  172SAPS   O1419494   3.672   4.259   6.998  0.6100  0.7031  0.7296
  172SAPS   O1219495   3.796   4.166   6.791  0.6062 -0.1029 -0.3090
  172SAPS   O1119496   3.589   4.300   6.771 -1.0510 -0.3540 -0.4285
  172SAPS    C119497   3.659   4.393   6.687  0.1553 -0.9015 -0.0036
  172SAPS    HA19498   3.589   4.477   6.669  0.9910  0.0379  1.0383
  172SAPS    HB19499   3.746   4.433   6.742 -1.7707  0.3844  2.2762
  172SAPS    C219500   3.698   4.325   6.552 -0.2155 -0.0708 -0.0085
  172SAPS    HS19501   3.662   4.220   6.560  0.2651 -0.2027  0.5128
  172SAPS   O2119502   3.842   4.325   6.548 -0.0398 -0.3848 -0.2636
  172SAPS   C2119503   3.897   4.236   6.474 -0.0671 -0.7662  0.1454
  172SAPS   O2219504   3.841   4.151   6.410 -0.3237 -0.5391  0.0765
  172SAPS   C2219505   4.046   4.238   6.516  0.8352  0.2555  0.3044
  172SAPS   H2R19506   4.070   4.347   6.526  0.5561  0.4559 -1.0045
  172SAPS   H2S19507   4.042   4.175   6.607  1.0592  0.3662  0.3923
  172SAPS    C319508   3.653   4.411   6.433  0.2364  0.0273 -0.2168
  172SAPS    HX19509   3.697   4.513   6.436 -0.9639  0.5513  0.1689
  172SAPS    HY19510   3.545   4.431   6.450  0.2077 -1.0260  0.9647
  172SAPS   O3119511   3.670   4.353   6.302 -0.4216  0.2457 -1.1007
  172SAPS   C3119512   3.568   4.283   6.244  0.0214 -0.3937 -0.5904
  172SAPS   O3219513   3.463   4.252   6.299 -0.9270 -0.6087  0.0159
  172SAPS   C3219514   3.618   4.241   6.100 -0.4482  0.0056 -0.0900
  172SAPS   H2X19515   3.724   4.208   6.101 -0.4494 -0.1323 -2.1710
  172SAPS   H2Y19516   3.631   4.336   6.045  1.8497  0.1331  0.5522
  172SAPS   C2319517   4.137   4.171   6.407  0.2220  0.4658  0.1146
  172SAPS   H3R19518   4.093   4.088   6.349  3.5770  0.6136 -2.9787
  172SAPS   H3S19519   4.224   4.121   6.454 -0.0227  0.8093  0.9544
  172SAPS   C2419520   4.192   4.267   6.300  0.6925 -0.4919 -0.5408
  172SAPS   H4R19521   4.256   4.210   6.230  1.5257  2.3532 -2.2771
  172SAPS   H4S19522   4.274   4.332   6.338  0.3200  0.8025 -1.8567
  172SAPS   C2519523   4.077   4.333   6.229  0.0359 -0.3342  0.6252
  172SAPS   H5R19524   4.027   4.407   6.294 -0.0410 -1.0739  1.4244
  172SAPS   C2619525   4.028   4.312   6.106  0.3694  0.1298  0.1311
  172SAPS   H6R19526   3.948   4.375   6.064  1.6841  0.9288 -1.2587
  172SAPS   C2719527   4.087   4.209   6.013  0.5380  0.2384  0.2108
  172SAPS   H7R19528   4.180   4.167   6.056 -0.4385 -0.0302  2.2041
  172SAPS   H7S19529   4.111   4.251   5.913  0.9846 -3.4484 -1.3612
  172SAPS   C2819530   3.979   4.099   6.018 -0.3638  0.3950 -0.1222
  172SAPS   H8R19531   3.958   4.065   6.121 -0.7977  0.3739 -0.2183
  172SAPS   C2919532   3.909   4.038   5.919  0.0534 -0.0421  0.2548
  172SAPS   H9R19533   3.840   3.960   5.953 -0.6800  0.3645 -0.2761
  172SAPS  C21019534   3.908   4.069   5.772 -0.5136 -0.1236  0.0832
  172SAPS  H10R19535   3.970   4.159   5.751 -0.1370 -0.7584 -1.6589
  172SAPS  H10S19536   3.806   4.093   5.734 -0.4447  0.7598  0.4187
  172SAPS  C21119537   3.964   3.964   5.682  0.1902  0.3310 -0.7721
  172SAPS  H11R19538   3.986   3.867   5.729 -0.0495  1.5075  1.9227
  172SAPS  C21219539   3.961   3.972   5.549  0.1993  0.3442  0.5598
  172SAPS  H12R19540   4.005   3.885   5.497  1.6125  2.1290 -1.3780
  172SAPS  C21319541   3.905   4.088   5.474  0.3391 -1.1734  0.3705
  172SAPS  H13R19542   3.903   4.181   5.534  1.5603  0.0021 -1.3059
  172SAPS  H13S19543   3.799   4.067   5.451  0.5893 -1.2307 -0.8254
  172SAPS  C21419544   3.984   4.129   5.351 -0.4351  0.6372  0.5586
  172SAPS  H14R19545   4.086   4.088   5.350 -0.7423 -0.1959 -1.5369
  172SAPS  C21519546   3.937   4.185   5.242 -0.6116 -0.7396  0.1506
  172SAPS  H15R19547   4.015   4.197   5.165  0.8644 -0.7126  1.5985
  172SAPS  C21619548   3.795   4.232   5.218 -0.8147 -0.1704  0.0788
  172SAPS  H16R19549   3.731   4.212   5.307  1.8054 -1.7679  1.7495
  172SAPS  H16S19550   3.755   4.184   5.127 -0.2498 -0.5952  0.0499
  172SAPS  C21719551   3.810   4.382   5.203  0.1924 -0.2808  1.3036
  172SAPS  H17R19552   3.858   4.423   5.294  0.1765 -2.3696  2.3148
  172SAPS  H17S19553   3.705   4.417   5.212  0.0789 -0.9194  2.8043
  172SAPS  C21819554   3.882   4.430   5.074 -0.2929 -0.4003 -0.3532
  172SAPS  H18R19555   3.983   4.384   5.074 -0.4628 -0.7968  0.3956
  172SAPS  H18S19556   3.905   4.538   5.086  0.0523 -0.0293 -3.6139
  172SAPS  C21919557   3.809   4.396   4.941  0.1056  0.0806 -0.2280
  172SAPS  H19R19558   3.709   4.443   4.940 -0.1810 -0.5116 -1.8291
  172SAPS  H19S19559   3.775   4.290   4.934 -0.7933  0.0933  2.6858
  172SAPS  C22019560   3.884   4.438   4.820 -0.1168 -0.3450  0.6074
  172SAPS  H20R19561   3.821   4.453   4.730  0.4240  1.0028  0.4289
  172SAPS  H20S19562   3.967   4.367   4.799 -0.9746 -1.1462 -0.2040
  172SAPS  H20T19563   3.940   4.533   4.824  1.1362 -1.0610  0.4476
  172SAPS   C3319564   3.541   4.117   6.045 -0.6098 -0.3346 -0.3253
  172SAPS   H3X19565   3.431   4.113   6.055 -0.6717  0.4822 -0.5927
  172SAPS   H3Y19566   3.598   4.031   6.086  1.6260  1.6434  0.9727
  172SAPS   C3419567   3.554   4.114   5.890 -0.1245 -0.2717  0.4453
  172SAPS   H4X19568   3.528   4.014   5.849  1.3932 -0.7391  0.5761
  172SAPS   H4Y19569   3.661   4.132   5.869 -0.2764 -0.4733 -0.5557
  172SAPS   C3519570   3.468   4.208   5.811  0.8922 -0.1831  0.7105
  172SAPS   H5X19571   3.466   4.315   5.842  1.5597  0.0237  0.0733
  172SAPS   H5Y19572   3.364   4.169   5.812  1.4191 -1.7400 -0.2624
  172SAPS   C3619573   3.517   4.198   5.667  0.0533 -0.2391  0.8761
  172SAPS   H6X19574   3.563   4.101   5.638 -0.5384 -0.7224  1.5076
  172SAPS   H6Y19575   3.600   4.272   5.671 -0.7508  0.6880  0.7700
  172SAPS   C3719576   3.408   4.235   5.576 -0.3656  0.0991 -0.0922
  172SAPS   H7X19577   3.357   4.331   5.600 -2.3127 -0.5534 -1.3193
  172SAPS   H7Y19578   3.323   4.163   5.583 -1.1630  0.7347 -2.2471
  172SAPS   C3819579   3.452   4.245   5.427  0.7334  0.2509  0.3102
  172SAPS   H8X19580   3.491   4.143   5.408 -0.9056 -0.3118 -0.1667
  172SAPS   H8Y19581   3.529   4.321   5.399 -0.0962  0.6146 -1.0895
  172SAPS   C3919582   3.341   4.260   5.326  0.4660 -0.0831  0.0581
  172SAPS   H9X19583   3.299   4.363   5.321  1.3078  0.2321 -1.1112
  172SAPS   H9Y19584   3.260   4.185   5.333  1.4716 -1.1773  0.2521
  172SAPS  C31019585   3.383   4.229   5.179 -0.5759 -0.5249  0.2215
  172SAPS  H10X19586   3.420   4.124   5.175 -0.3574 -0.4274 -0.4358
  172SAPS  H10Y19587   3.471   4.292   5.156 -0.9374 -0.4322 -0.9857
  172SAPS  C31119588   3.273   4.268   5.079  0.5848  0.6087  0.2591
  172SAPS  H11X19589   3.254   4.377   5.077 -0.8532  0.3663 -0.6278
  172SAPS  H11Y19590   3.180   4.217   5.113  0.0147  1.6209  0.2761
  172SAPS  C31219591   3.300   4.199   4.938  1.0731  0.2779  0.3302
  172SAPS  H12X19592   3.228   4.235   4.861  3.1199  4.5668  0.0979
  172SAPS  H12Y19593   3.298   4.089   4.952  1.0811  0.3195  0.6773
  172SAPS  C31319594   3.430   4.248   4.876 -0.1377  0.2716  0.5329
  172SAPS  H13X19595   3.497   4.192   4.945 -0.6353 -2.5694 -1.1025
  172SAPS  H13Y19596   3.433   4.358   4.888 -0.7698  0.3354  0.1216
  172SAPS  C31419597   3.444   4.195   4.729  0.1372 -0.0098 -0.0558
  172SAPS  H14X19598   3.538   4.247   4.700 -1.4364  2.3135 -1.3020
  172SAPS  H14Y19599   3.363   4.246   4.673  0.7539  1.2282  0.1515
  172SAPS  C31519600   3.459   4.044   4.713  0.1711  0.5136  0.5212
  172SAPS  H15X19601   3.364   3.988   4.729  0.7953 -0.2530  1.6460
  172SAPS  H15Y19602   3.526   3.998   4.788 -1.4211  0.0814  1.7348
  172SAPS  C31619603   3.510   4.018   4.566  0.2421  0.8199  0.3916
  172SAPS  H16X19604   3.441   4.081   4.507 -1.8070 -0.8644  0.8882
  172SAPS  H16Y19605   3.616   4.049   4.553  0.1635  1.1687  0.5599
  172SAPS  C31719606   3.499   3.865   4.532  0.9916 -0.4393 -0.4352
  172SAPS  H17X19607   3.391   3.842   4.522  0.9456 -0.2041 -0.4977
  172SAPS  H17Y19608   3.544   3.798   4.608  1.5365  0.4709  0.0648
  172SAPS  C31819609   3.561   3.822   4.391  0.0991 -0.0938 -0.5118
  172SAPS  H18X19610   3.494   3.879   4.323  0.0573  0.4435 -0.0310
  172SAPS  H18Y19611   3.574   3.714   4.371  0.2584 -0.5090  1.5748
  172SAPS  H18Z19612   3.663   3.865   4.396 -0.4981  1.4596 -1.0844
  173SAPS     N19613   4.207   1.603   2.235 -0.3191  0.3087  0.6928
  173SAPS   HN119614   4.265   1.640   2.313  0.3203 -0.1301  0.4350
  173SAPS   HN219615   4.107   1.630   2.233 -1.2737 -2.8689  0.2650
  173SAPS   HN319616   4.199   1.501   2.256 -1.2863  0.3995  0.7809
  173SAPS   C1219617   4.283   1.616   2.106 -0.1185  0.2382 -0.2520
  173SAPS  H12A19618   4.212   1.592   2.028 -0.3326  1.6326 -0.5168
  173SAPS   C1319619   4.346   1.745   2.059 -0.2608  0.4210 -0.3465
  173SAPS  O13A19620   4.344   1.850   2.134 -0.1289 -0.0128  0.3813
  173SAPS  O13B19621   4.379   1.762   1.935 -0.0809 -0.0037  0.2171
  173SAPS   C1119622   4.383   1.500   2.098  0.4980 -0.0360  0.4470
  173SAPS  H11A19623   4.469   1.522   2.165  0.8411  1.9509 -0.5702
  173SAPS  H11B19624   4.414   1.492   1.992 -3.8473 -2.1329 -0.8930
  173SAPS     P19625   4.378   1.237   2.111  0.4976  0.1413 -0.0663
  173SAPS   O1319626   4.288   1.125   2.148  0.4349 -0.5005  0.2110
  173SAPS   O1419627   4.432   1.224   1.977 -0.5460 -0.0533 -0.2434
  173SAPS   O1219628   4.305   1.378   2.130 -0.2652  0.4135 -0.0739
  173SAPS   O1119629   4.500   1.241   2.215  0.4991  0.4198  0.1606
  173SAPS    C119630   4.477   1.297   2.342 -0.1179  0.1573 -0.4487
  173SAPS    HA19631   4.556   1.371   2.369  0.3988 -0.2340 -0.8574
  173SAPS    HB19632   4.379   1.346   2.357  1.2164  2.3623  1.8484
  173SAPS    C219633   4.472   1.192   2.454 -0.4789 -0.1871  0.1196
  173SAPS    HS19634   4.400   1.113   2.423 -0.6654 -0.9097  2.2516
  173SAPS   O2119635   4.443   1.264   2.581 -0.4782 -0.2553  0.0869
  173SAPS   C2119636   4.312   1.278   2.593 -0.6348  0.0562  0.4823
  173SAPS   O2219637   4.224   1.225   2.526 -0.1637  0.6951 -0.2522
  173SAPS   C2219638   4.289   1.367   2.711 -0.0118  0.5413 -0.1560
  173SAPS   H2R19639   4.302   1.305   2.803 -1.7856 -0.7115 -0.6935
  173SAPS   H2S19640   4.367   1.445   2.701  1.2677 -0.6202  0.3386
  173SAPS    C319641   4.608   1.114   2.475  0.2211 -0.6736  0.1424
  173SAPS    HX19642   4.689   1.184   2.502 -0.6874  0.2071  0.6340
  173SAPS    HY19643   4.643   1.067   2.380 -0.8498 -0.6593 -0.2741
  173SAPS   O3119644   4.603   1.015   2.580  0.4844 -0.2543 -1.1804
  173SAPS   C3119645   4.539   0.908   2.552  0.7186  0.2011  1.3448
  173SAPS   O3219646   4.493   0.873   2.444 -0.1474  0.4109 -0.4628
  173SAPS   C3219647   4.533   0.828   2.678 -0.6723 -0.4188 -0.6759
  173SAPS   H2X19648   4.435   0.778   2.691 -0.2289 -1.8815 -2.3900
  173SAPS   H2Y19649   4.553   0.895   2.764  1.7039 -1.1872 -0.5421
  173SAPS   C2319650   4.153   1.438   2.710 -0.5069  0.1128  0.4233
  173SAPS   H3R19651   4.148   1.494   2.615  3.8731  0.8511  0.4303
  173SAPS   H3S19652   4.157   1.514   2.791 -1.1384  1.1255 -0.4714
  173SAPS   C2419653   4.029   1.348   2.745 -0.8364 -1.0036 -0.2202
  173SAPS   H4R19654   4.068   1.286   2.829 -0.2700  0.0910  0.3531
  173SAPS   H4S19655   4.008   1.271   2.668 -0.2474 -0.3941 -1.0040
  173SAPS   C2519656   3.896   1.403   2.764 -0.9652 -0.3171 -0.1339
  173SAPS   H5R19657   3.837   1.435   2.677 -0.9999  0.7662  0.2707
  173SAPS   C2619658   3.839   1.419   2.884  0.5132 -0.2535  0.1825
  173SAPS   H6R19659   3.737   1.459   2.891  1.0811  0.9602  2.5702
  173SAPS   C2719660   3.904   1.391   3.015  0.7173  0.1848  0.6198
  173SAPS   H7R19661   4.013   1.398   2.992  0.9057  1.7936  1.8656
  173SAPS   H7S19662   3.878   1.285   3.036 -3.3493  0.8099 -0.5227
  173SAPS   C2819663   3.864   1.478   3.126 -0.0676 -0.1831 -0.4305
  173SAPS   H8R19664   3.776   1.541   3.104 -0.3740 -0.9896 -1.6155
  173SAPS   C2919665   3.925   1.494   3.245  0.0707 -0.0557 -0.6613
  173SAPS   H9R19666   3.880   1.561   3.320 -0.2336  1.0880 -1.8385
  173SAPS  C21019667   4.045   1.413   3.288  0.5887 -0.2016  0.6470
  173SAPS  H10R19668   4.112   1.383   3.205 -1.2450  0.5139 -1.1633
  173SAPS  H10S19669   4.008   1.313   3.321  0.2654 -0.8314 -1.4986
  173SAPS  C21119670   4.131   1.485   3.384 -0.2438 -0.0835  0.4776
  173SAPS  H11R19671   4.230   1.522   3.353 -0.9286  1.3327 -0.0997
  173SAPS  C21219672   4.101   1.520   3.509  0.7429  0.1470 -0.4382
  173SAPS  H12R19673   4.173   1.575   3.572  0.8818  0.7444 -1.1083
  173SAPS  C21319674   3.970   1.488   3.575 -0.0975  0.6113 -0.3530
  173SAPS  H13R19675   3.918   1.410   3.516  1.3332  0.0277 -0.8749
  173SAPS  H13S19676   3.913   1.584   3.582  0.6283  0.9557  1.2183
  173SAPS  C21419677   3.994   1.436   3.709 -0.4792 -0.5464 -0.9264
  173SAPS  H14R19678   4.070   1.357   3.712  1.3692  1.1825  0.9232
  173SAPS  C21519679   3.952   1.482   3.829  0.2036 -0.0562  0.0634
  173SAPS  H15R19680   3.990   1.418   3.910  1.2044  1.3476  0.7395
  173SAPS  C21619681   3.867   1.600   3.858  0.3056 -0.4625 -0.2960
  173SAPS  H16R19682   3.796   1.574   3.940 -1.2403  1.0963 -1.0775
  173SAPS  H16S19683   3.801   1.619   3.770  0.4631 -1.6784 -0.7030
  173SAPS  C21719684   3.951   1.738   3.894  0.4044 -0.0827  0.0475
  173SAPS  H17R19685   3.998   1.724   3.994  2.9435 -1.2275 -1.2247
  173SAPS  H17S19686   3.871   1.815   3.905  2.0180  1.8208 -0.7853
  173SAPS  C21819687   4.041   1.793   3.786  0.1851 -0.7012 -0.2153
  173SAPS  H18R19688   3.981   1.802   3.693 -1.7919  0.1883  1.0731
  173SAPS  H18S19689   4.115   1.712   3.773  1.4788  0.1667  1.2948
  173SAPS  C21919690   4.116   1.929   3.803 -0.1251 -0.1815 -0.2978
  173SAPS  H19R19691   4.167   1.920   3.902 -1.4039 -0.5317  0.3579
  173SAPS  H19S19692   4.047   2.016   3.813  2.1809  1.5272  1.8347
  173SAPS  C22019693   4.216   1.963   3.689  0.3515  0.1740 -0.4831
  173SAPS  H20R19694   4.165   1.959   3.590  1.6236  1.9209 -1.2688
  173SAPS  H20S19695   4.302   1.894   3.690  3.3696  3.6113 -0.6115
  173SAPS  H20T19696   4.254   2.066   3.708 -0.2595  0.2418  0.4509
  173SAPS   C3319697   4.650   0.724   2.678  0.0566 -0.3684 -0.4693
  173SAPS   H3X19698   4.748   0.772   2.657  0.8145 -2.2578 -1.4217
  173SAPS   H3Y19699   4.630   0.639   2.609 -0.2074 -0.3123 -0.4637
  173SAPS   C3419700   4.658   0.680   2.825  0.7794  0.5613  0.2529
  173SAPS   H4X19701   4.721   0.589   2.819  1.7282  1.2214  0.0133
  173SAPS   H4Y19702   4.555   0.647   2.852  0.3717  0.9964 -0.7472
  173SAPS   C3519703   4.730   0.779   2.920 -0.1059  0.4659  0.0525
  173SAPS   H5X19704   4.652   0.858   2.927 -1.9933 -1.4755  2.6147
  173SAPS   H5Y19705   4.817   0.823   2.865  1.1862 -1.1106  0.7488
  173SAPS   C3619706   4.760   0.728   3.070  0.1449  0.5453 -0.2699
  173SAPS   H6X19707   4.823   0.801   3.125  1.6222 -0.7753 -0.1365
  173SAPS   H6Y19708   4.822   0.636   3.061  1.0408  1.2242 -1.4903
  173SAPS   C3719709   4.633   0.689   3.144 -0.1007 -0.6193  0.1960
  173SAPS   H7X19710   4.559   0.649   3.071  1.8081 -0.0047 -2.1833
  173SAPS   H7Y19711   4.588   0.775   3.197  0.4208 -1.0081  1.3012
  173SAPS   C3819712   4.662   0.570   3.238 -0.3609  0.3382  0.4479
  173SAPS   H8X19713   4.719   0.485   3.195  0.4600  1.3063 -0.4337
  173SAPS   H8Y19714   4.568   0.531   3.283  0.6068 -3.1596 -0.2409
  173SAPS   C3919715   4.741   0.622   3.361 -0.8851 -0.1885  0.6342
  173SAPS   H9X19716   4.701   0.722   3.387 -0.4661  0.7156 -1.9054
  173SAPS   H9Y19717   4.849   0.637   3.341 -1.2896  0.6142 -1.1450
  173SAPS  C31019718   4.710   0.537   3.487  0.1332 -0.5813  0.3011
  173SAPS  H10X19719   4.778   0.451   3.500 -1.5241 -1.8290  1.1531
  173SAPS  H10Y19720   4.603   0.509   3.479 -1.0711  2.7609  2.5732
  173SAPS  C31119721   4.727   0.628   3.616 -0.3735  0.3739  0.4838
  173SAPS  H11X19722   4.653   0.711   3.617  0.6489  1.3733 -1.3287
  173SAPS  H11Y19723   4.830   0.667   3.612 -0.3797  0.2484 -1.4355
  173SAPS  C31219724   4.716   0.543   3.747  0.3980  0.1106 -0.5513
  173SAPS  H12X19725   4.746   0.439   3.722  0.3928  0.0515 -0.3137
  173SAPS  H12Y19726   4.609   0.529   3.774  0.4644  0.2076 -0.2357
  173SAPS  C31319727   4.789   0.609   3.869 -0.6322  0.8217 -0.1886
  173SAPS  H13X19728   4.723   0.687   3.913  0.9441  1.9036  0.3374
  173SAPS  H13Y19729   4.867   0.669   3.818 -1.2267  1.7345 -0.0342
  173SAPS  C31419730   4.842   0.515   3.980 -1.1464  0.4937 -0.4053
  173SAPS  H14X19731   4.899   0.423   3.957  0.5694  1.1841  0.9186
  173SAPS  H14Y19732   4.752   0.478   4.035 -0.4949  0.2659  0.5306
  173SAPS  C31519733   4.935   0.589   4.078  0.1322  0.3684  0.2339
  173SAPS  H15X19734   4.965   0.684   4.029  0.4931 -0.3686 -1.0250
  173SAPS  H15Y19735   5.023   0.524   4.098  1.0392  1.1931 -0.9729
  173SAPS  C31619736   4.869   0.619   4.209  0.0379  0.0528  1.0337
  173SAPS  H16X19737   4.815   0.532   4.252 -2.9747  1.5752  0.6345
  173SAPS  H16Y19738   4.795   0.700   4.197 -0.6695 -0.6714  0.3093
  173SAPS  C31719739   4.969   0.656   4.317 -0.2772 -0.1039  0.5437
  173SAPS  H17X19740   5.015   0.754   4.293  0.2546 -0.7127 -1.0967
  173SAPS  H17Y19741   5.057   0.588   4.307  0.8560  1.3103  0.6380
  173SAPS  C31819742   4.928   0.648   4.466  0.2410  0.0105 -0.3645
  173SAPS  H18X19743   4.905   0.544   4.497  0.3636  0.7457  2.4265
  173SAPS  H18Y19744   4.841   0.715   4.483  0.3533  0.1579 -0.3627
  173SAPS  H18Z19745   5.001   0.689   4.539  1.3958 -0.2828 -1.3179
  174SAPS     N19746   4.069   4.132   2.383  0.2650  0.0881 -0.4027
  174SAPS   HN119747   4.124   4.055   2.339  0.6985  0.4840 -0.5524
  174SAPS   HN219748   4.029   4.099   2.473  2.1613  1.2449  0.9357
  174SAPS   HN319749   3.990   4.157   2.321 -1.9340 -2.4036  1.1771
  174SAPS   C1219750   4.155   4.255   2.424  0.2085  0.5996  0.8041
  174SAPS  H12A19751   4.232   4.213   2.487 -1.0478  0.1292  2.0565
  174SAPS   C1319752   4.226   4.316   2.305  0.0321  0.5942 -0.4283
  174SAPS  O13A19753   4.177   4.307   2.189  0.3692 -0.2368  0.2677
  174SAPS  O13B19754   4.297   4.415   2.339  0.0484  0.7044 -0.0987
  174SAPS   C1119755   4.064   4.369   2.490  0.4995  0.1056 -0.9826
  174SAPS  H11A19756   3.991   4.404   2.414 -1.0126  1.2821  0.9136
  174SAPS  H11B19757   4.128   4.453   2.523 -0.1391  0.1505  0.1974
  174SAPS     P19758   3.873   4.389   2.665  0.1528  0.1370 -0.1029
  174SAPS   O1319759   3.893   4.537   2.663 -0.4801  0.4948  0.2215
  174SAPS   O1419760   3.759   4.332   2.592  0.5379  0.3652 -0.0431
  174SAPS   O1219761   3.998   4.312   2.609 -0.2834 -0.5546 -0.0467
  174SAPS   O1119762   3.859   4.331   2.810 -0.0029  0.0532 -0.3689
  174SAPS    C119763   3.822   4.196   2.828  0.0750 -0.4887 -0.4196
  174SAPS    HA19764   3.716   4.186   2.795 -0.3692 -0.7764  1.0358
  174SAPS    HB19765   3.881   4.123   2.769  0.1858  0.5470 -1.6506
  174SAPS    C219766   3.834   4.147   2.973  0.1120  0.0704  0.8803
  174SAPS    HS19767   3.772   4.055   2.965  0.2276  0.0552  0.0892
  174SAPS   O2119768   3.769   4.245   3.059 -0.0312  0.4728 -0.1052
  174SAPS   C2119769   3.677   4.207   3.143 -0.4239  0.7690 -0.0943
  174SAPS   O2219770   3.630   4.091   3.153  0.3098 -0.2805  0.6865
  174SAPS   C2219771   3.626   4.322   3.233 -1.1313  0.0863  0.6277
  174SAPS   H2R19772   3.708   4.349   3.303  0.2804 -0.8441 -0.6139
  174SAPS   H2S19773   3.607   4.410   3.168 -0.9504 -0.9803 -0.9279
  174SAPS    C319774   3.982   4.124   3.008 -0.1479 -0.1121  0.6677
  174SAPS    HX19775   4.045   4.203   2.963 -0.3831 -0.2463  0.0995
  174SAPS    HY19776   4.022   4.032   2.960 -0.4539  0.7975 -1.4306
  174SAPS   O3119777   3.998   4.117   3.152  0.1828 -0.1860 -0.2867
  174SAPS   C3119778   4.078   4.208   3.211  0.2352  0.1957 -0.3358
  174SAPS   O3219779   4.139   4.303   3.157  0.3030  0.7099 -0.5690
  174SAPS   C3219780   4.092   4.180   3.359 -0.3207  0.4625  0.1136
  174SAPS   H2X19781   4.114   4.076   3.392 -2.5332 -0.5167 -1.2837
  174SAPS   H2Y19782   3.997   4.207   3.411  0.2829  3.3086 -0.0802
  174SAPS   C2319783   3.508   4.275   3.312  0.8266 -0.1377 -1.0521
  174SAPS   H3R19784   3.530   4.189   3.379 -0.8496 -0.7035 -1.1823
  174SAPS   H3S19785   3.434   4.222   3.248 -0.2007 -0.5549  0.4444
  174SAPS   C2419786   3.422   4.387   3.384 -0.4008 -0.2933 -0.3331
  174SAPS   H4R19787   3.326   4.337   3.408 -0.4417 -0.4307 -0.7758
  174SAPS   H4S19788   3.414   4.474   3.316  4.1039 -0.7615 -1.8353
  174SAPS   C2519789   3.501   4.421   3.507  0.6571 -0.4638  0.1333
  174SAPS   H5R19790   3.611   4.432   3.503  0.7280 -0.9084  0.7310
  174SAPS   C2619791   3.452   4.446   3.627  1.0795  0.1141  0.2855
  174SAPS   H6R19792   3.527   4.472   3.703  1.1026 -0.3569  0.4289
  174SAPS   C2719793   3.307   4.458   3.658 -0.2570  0.0171  0.6036
  174SAPS   H7R19794   3.258   4.368   3.700 -1.9640 -0.1103 -1.4676
  174SAPS   H7S19795   3.247   4.476   3.566  2.1520  1.1034 -0.8403
  174SAPS   C2819796   3.274   4.572   3.746 -0.8055 -1.1087  0.5894
  174SAPS   H8R19797   3.302   4.670   3.706 -1.3856 -1.5703 -1.0151
  174SAPS   C2919798   3.234   4.569   3.874  0.2601 -0.4664  0.0242
  174SAPS   H9R19799   3.229   4.665   3.928 -0.2701 -0.5256  0.0855
  174SAPS  C21019800   3.203   4.448   3.960 -0.0881  0.1756 -0.0345
  174SAPS  H10R19801   3.287   4.380   3.935  0.4330  0.2965  1.2761
  174SAPS  H10S19802   3.101   4.410   3.937 -1.7970  1.8872  3.7781
  174SAPS  C21119803   3.205   4.472   4.107  0.4387 -0.5333  0.2331
  174SAPS  H11R19804   3.114   4.512   4.153  1.3821  0.0687  1.6856
  174SAPS  C21219805   3.317   4.459   4.179  0.2122 -0.0554 -0.2559
  174SAPS  H12R19806   3.316   4.478   4.287  1.3013  2.1066 -0.5666
  174SAPS  C21319807   3.459   4.415   4.138 -0.0069 -0.8793  0.2999
  174SAPS  H13R19808   3.535   4.460   4.205 -1.0831 -0.1637  1.0930
  174SAPS  H13S19809   3.479   4.451   4.035  0.9549  0.7204  1.0124
  174SAPS  C21419810   3.487   4.266   4.128  0.1160 -0.2586 -0.0606
  174SAPS  H14R19811   3.450   4.203   4.209  0.7139 -0.4371  0.0806
  174SAPS  C21519812   3.560   4.207   4.035  0.2963  0.0767  1.0195
  174SAPS  H15R19813   3.576   4.098   4.044  1.4885  0.2424  1.0665
  174SAPS  C21619814   3.640   4.266   3.922  0.1712  0.0212  0.3614
  174SAPS  H16R19815   3.652   4.375   3.941  0.0407 -0.4135  3.4039
  174SAPS  H16S19816   3.596   4.227   3.828  0.2459  0.9253 -0.0605
  174SAPS  C21719817   3.787   4.213   3.918  0.0874  0.4212  0.2237
  174SAPS  H17R19818   3.784   4.102   3.919  1.2497  0.3623  2.0582
  174SAPS  H17S19819   3.859   4.240   3.998  0.0445  0.7362  0.1573
  174SAPS  C21819820   3.868   4.271   3.800  0.9342  0.2517 -0.0832
  174SAPS  H18R19821   3.977   4.249   3.812  0.6302 -1.7539 -0.6182
  174SAPS  H18S19822   3.857   4.381   3.788 -0.5457 -0.0115 -1.4636
  174SAPS  C21919823   3.828   4.210   3.663  0.5064 -0.6595 -0.2250
  174SAPS  H19R19824   3.864   4.280   3.584  0.3081 -0.5755 -0.2422
  174SAPS  H19S19825   3.719   4.226   3.649  0.7824 -0.4806 -2.6439
  174SAPS  C22019826   3.870   4.064   3.638 -0.0832 -0.5835  0.3536
  174SAPS  H20R19827   3.980   4.056   3.624 -0.1027 -0.6031  0.2035
  174SAPS  H20S19828   3.814   4.023   3.551 -0.7103  1.9036 -0.5100
  174SAPS  H20T19829   3.856   4.004   3.730 -0.2811 -4.9956 -2.3086
  174SAPS   C3319830   4.200   4.267   3.416  0.0607  0.6241  0.4119
  174SAPS   H3X19831   4.180   4.370   3.378 -2.5195 -1.1745 -3.7420
  174SAPS   H3Y19832   4.299   4.244   3.370  0.3719  2.0664  0.3072
  174SAPS   C3419833   4.209   4.267   3.568  0.4996  0.1649 -0.7108
  174SAPS   H4X19834   4.165   4.180   3.621  1.7431 -0.0355  0.0048
  174SAPS   H4Y19835   4.154   4.355   3.608  1.0816  0.5667 -0.7830
  174SAPS   C3519836   4.351   4.286   3.620  0.4220 -0.1073 -0.5951
  174SAPS   H5X19837   4.411   4.351   3.554  0.0601  0.3851 -0.4443
  174SAPS   H5Y19838   4.411   4.192   3.626  2.1736  1.0297  0.3982
  174SAPS   C3619839   4.356   4.334   3.768  0.4226  0.2910 -0.1981
  174SAPS   H6X19840   4.296   4.427   3.767  0.4732  0.3275 -1.2171
  174SAPS   H6Y19841   4.465   4.357   3.771  0.5745 -0.4081 -0.0935
  174SAPS   C3719842   4.311   4.246   3.873 -0.5909  0.7093 -0.2484
  174SAPS   H7X19843   4.367   4.151   3.859 -1.6859  0.1720 -1.0791
  174SAPS   H7Y19844   4.203   4.222   3.863 -0.7848  1.0108  0.9280
  174SAPS   C3819845   4.338   4.287   4.018 -0.6957 -0.4085  0.3587
  174SAPS   H8X19846   4.289   4.386   4.025 -2.9406 -1.3136 -1.4061
  174SAPS   H8Y19847   4.446   4.300   4.041 -1.0571  2.0239  0.9544
  174SAPS   C3919848   4.280   4.188   4.118  1.6732  0.1871  0.3449
  174SAPS   H9X19849   4.304   4.086   4.081 -0.6015  0.4263 -2.1783
  174SAPS   H9Y19850   4.170   4.208   4.112  2.1420  2.7266 -1.6222
  174SAPS  C31019851   4.320   4.208   4.262 -0.5116 -0.4967  0.0544
  174SAPS  H10X19852   4.428   4.189   4.279 -0.2361 -0.0277 -1.1137
  174SAPS  H10Y19853   4.267   4.133   4.325  0.0701 -1.7376 -0.9016
  174SAPS  C31119854   4.285   4.347   4.325  0.6973  0.6833  0.1642
  174SAPS  H11X19855   4.176   4.358   4.306  1.1664  0.6387 -3.1294
  174SAPS  H11Y19856   4.336   4.438   4.286 -1.2300  1.3512 -0.9629
  174SAPS  C31219857   4.329   4.349   4.471 -0.4892 -0.2088 -0.1986
  174SAPS  H12X19858   4.438   4.334   4.484 -0.7991 -3.2598 -0.4826
  174SAPS  H12Y19859   4.279   4.258   4.510  0.0604 -0.7213 -0.6721
  174SAPS  C31319860   4.281   4.467   4.552 -0.1086 -0.4788 -0.8342
  174SAPS  H13X19861   4.181   4.496   4.513 -1.1526 -2.5625  0.1781
  174SAPS  H13Y19862   4.351   4.550   4.527 -1.8744  1.4824  0.3374
  174SAPS  C31419863   4.266   4.433   4.696  0.5817  0.2639  0.3870
  174SAPS  H14X19864   4.204   4.342   4.714 -1.1719  1.4407  0.4486
  174SAPS  H14Y19865   4.203   4.518   4.729  0.1635  0.1355 -0.0631
  174SAPS  C31519866   4.393   4.432   4.781 -0.0744 -0.2167  0.3243
  174SAPS  H15X19867   4.440   4.533   4.775  0.2666 -0.4333 -0.7748
  174SAPS  H15Y19868   4.457   4.354   4.736 -1.0183 -0.9898  0.2970
  174SAPS  C31619869   4.375   4.394   4.932  0.3364  0.4531 -0.4096
  174SAPS  H16X19870   4.477   4.372   4.972 -0.6752 -2.2950  0.9082
  174SAPS  H16Y19871   4.314   4.301   4.944  0.4007  0.6472  1.7371
  174SAPS  C31719872   4.299   4.503   5.004  0.3621 -0.6386 -0.2024
  174SAPS  H17X19873   4.196   4.499   4.962  0.4407 -1.6612 -0.3256
  174SAPS  H17Y19874   4.346   4.603   4.992  0.2535 -0.7287 -1.5073
  174SAPS  C31819875   4.286   4.481   5.154 -0.6556 -1.1512  0.5830
  174SAPS  H18X19876   4.258   4.375   5.173 -0.0944 -1.3613  0.2245
  174SAPS  H18Y19877   4.219   4.557   5.201  0.4897  1.0572 -1.1578
  174SAPS  H18Z19878   4.379   4.487   5.214 -0.8838 -1.9213  1.0308
  175SAPS     N19879   0.310   4.197   2.559 -0.1966 -0.6674 -0.2467
  175SAPS   HN119880   0.217   4.220   2.517 -0.0197 -0.1173 -0.3464
  175SAPS   HN219881   0.318   4.099   2.592 -2.0014 -0.4820  0.8539
  175SAPS   HN319882   0.318   4.253   2.646  0.7292 -0.9793 -0.1260
  175SAPS   C1219883   0.418   4.228   2.466  0.2488 -0.1006 -0.4931
  175SAPS  H12A19884   0.501   4.234   2.534  1.3824  1.0928 -1.9346
  175SAPS   C1319885   0.458   4.122   2.356  0.3683  0.2049 -0.3381
  175SAPS  O13A19886   0.388   4.016   2.337 -0.1490  0.1827 -0.3265
  175SAPS  O13B19887   0.550   4.162   2.276  0.1902 -0.0109  0.1020
  175SAPS   C1119888   0.394   4.361   2.400  0.9338 -0.1535  0.2171
  175SAPS  H11A19889   0.319   4.353   2.319  0.0724 -0.9238  1.0642
  175SAPS  H11B19890   0.489   4.389   2.351  0.8612  0.9903  0.7131
  175SAPS     P19891   0.394   4.607   2.496 -0.1218 -0.2180 -0.1504
  175SAPS   O1319892   0.537   4.607   2.539 -0.0039  0.2692  0.2647
  175SAPS   O1419893   0.376   4.672   2.364 -0.4839  0.4558 -0.0430
  175SAPS   O1219894   0.349   4.459   2.492  0.0690  0.5342 -0.0444
  175SAPS   O1119895   0.308   4.683   2.599  0.0566  0.0995  0.0790
  175SAPS    C119896   0.206   4.610   2.671  0.1223 -0.3188 -0.4540
  175SAPS    HA19897   0.152   4.528   2.618 -0.2259 -1.6884  1.8845
  175SAPS    HB19898   0.253   4.566   2.761  1.1428  1.1865 -0.2223
  175SAPS    C219899   0.105   4.706   2.732  0.4597 -0.1006  0.9153
  175SAPS    HS19900   0.068   4.764   2.645  1.6283 -2.3831 -1.2416
  175SAPS   O2119901   0.170   4.798   2.824  0.0646  0.2787 -0.1697
  175SAPS   C2119902   0.106   4.916   2.832 -0.6173  0.8666  0.8264
  175SAPS   O2219903   0.003   4.942   2.785 -0.0669 -0.0598  0.5995
  175SAPS   C2219904   0.188   4.987   2.940 -0.5090 -0.3803  0.0827
  175SAPS   H2R19905   0.150   4.940   3.033 -0.5847 -0.9265 -0.2212
  175SAPS   H2S19906   0.295   4.963   2.922  0.0688  2.2799 -0.4713
  175SAPS    C319907  -0.005   4.617   2.805  0.0823 -0.0041 -0.2704
  175SAPS    HX19908  -0.055   4.551   2.732 -1.7649 -0.7395  1.5765
  175SAPS    HY19909  -0.082   4.680   2.853  0.0769 -1.2993  1.5313
  175SAPS   O3119910   0.042   4.530   2.912  0.2260 -1.4706 -0.3618
  175SAPS   C3119911   0.047   4.588   3.033  0.4898 -0.1702 -0.0669
  175SAPS   O3219912   0.012   4.704   3.055 -0.0844 -0.4250  0.5873
  175SAPS   C3219913   0.110   4.492   3.130  0.7731  0.1190  0.6063
  175SAPS   H2X19914   0.213   4.515   3.161  1.4572 -0.6969 -0.9232
  175SAPS   H2Y19915   0.119   4.395   3.075 -2.4433  0.7422 -1.3317
  175SAPS   C2319916   0.173   5.139   2.949  0.1764  0.1263 -0.0545
  175SAPS   H3R19917   0.075   5.160   2.998 -1.8115 -2.3559 -2.6167
  175SAPS   H3S19918   0.173   5.181   2.847  1.6371  0.3931  0.0385
  175SAPS   C2419919   0.292   5.206   3.026 -0.6559 -0.1273  0.0831
  175SAPS   H4R19920   0.255   5.309   3.048 -0.7535  0.0887 -1.0227
  175SAPS   H4S19921   0.366   5.220   2.944 -0.5249  2.7332  0.5724
  175SAPS   C2519922   0.350   5.152   3.156  0.2234  0.0941 -0.3710
  175SAPS   H5R19923   0.454   5.116   3.154  1.0021  2.1192  0.5046
  175SAPS   C2619924   0.291   5.142   3.278 -0.0534 -0.4808  0.5211
  175SAPS   H6R19925   0.347   5.087   3.356 -1.5319 -2.9902 -0.0790
  175SAPS   C2719926   0.147   5.182   3.311 -0.3070  0.1057  0.1133
  175SAPS   H7R19927   0.105   5.235   3.223 -1.4379  3.3259  2.4168
  175SAPS   H7S19928   0.151   5.257   3.392  2.4022  1.0413 -0.7835
  175SAPS   C2819929   0.070   5.060   3.339 -0.8064 -0.0314  0.5642
  175SAPS   H8R19930   0.120   4.963   3.356 -0.0869  0.0948 -0.7147
  175SAPS   C2919931  -0.068   5.077   3.343 -0.3909  0.3996  0.4944
  175SAPS   H9R19932  -0.144   4.998   3.353 -2.0283  1.9969  1.0542
  175SAPS  C21019933  -0.136   5.212   3.307  0.7020  0.2347 -0.4178
  175SAPS  H10R19934  -0.101   5.241   3.206  0.9098 -0.9009 -0.6836
  175SAPS  H10S19935  -0.118   5.289   3.385  0.0805  1.3067 -1.3061
  175SAPS  C21119936  -0.286   5.197   3.295  0.6535 -0.1564 -0.0187
  175SAPS  H11R19937  -0.318   5.191   3.190  0.9825 -1.4748 -0.0566
  175SAPS  C21219938  -0.381   5.169   3.388 -0.1160 -0.5255 -0.1171
  175SAPS  H12R19939  -0.485   5.163   3.352  1.0196 -2.5031 -3.5428
  175SAPS  C21319940  -0.363   5.154   3.537 -0.3674 -0.1423 -0.0869
  175SAPS  H13R19941  -0.268   5.101   3.563 -1.8182 -2.7296  0.2666
  175SAPS  H13S19942  -0.441   5.087   3.578  0.6305  0.0978  2.4030
  175SAPS  C21419943  -0.378   5.286   3.598 -0.8787  0.5898  0.1239
  175SAPS  H14R19944  -0.333   5.366   3.536  2.4606 -0.4204  1.0051
  175SAPS  C21519945  -0.401   5.307   3.732 -0.0981  0.1517 -0.2765
  175SAPS  H15R19946  -0.403   5.413   3.761 -0.3698  0.1745 -0.3758
  175SAPS  C21619947  -0.432   5.203   3.836 -0.1851 -0.3418 -0.4870
  175SAPS  H16R19948  -0.374   5.214   3.930 -2.9279 -1.6321  1.4901
  175SAPS  H16S19949  -0.419   5.098   3.803 -1.3919 -0.1597 -1.6201
  175SAPS  C21719950  -0.578   5.217   3.867  0.5074 -0.6965  0.2257
  175SAPS  H17R19951  -0.642   5.178   3.785 -0.3612 -0.4089  0.7561
  175SAPS  H17S19952  -0.612   5.323   3.871  1.9955 -0.1054 -1.3910
  175SAPS  C21819953  -0.622   5.158   3.999  0.0284 -0.2785  0.8390
  175SAPS  H18R19954  -0.565   5.065   4.019  0.7448  0.3904  2.0184
  175SAPS  H18S19955  -0.732   5.140   4.000 -0.6142  2.6057 -1.7484
  175SAPS  C21919956  -0.604   5.256   4.121 -0.1930 -0.9022  0.2019
  175SAPS  H19R19957  -0.704   5.273   4.166 -1.5204 -1.5471 -2.3501
  175SAPS  H19S19958  -0.561   5.356   4.095  0.3876 -0.4740  2.5590
  175SAPS  C22019959  -0.500   5.202   4.227  0.2986 -0.1028  0.7366
  175SAPS  H20R19960  -0.398   5.242   4.205  1.0769 -1.0802  2.3556
  175SAPS  H20S19961  -0.489   5.091   4.227  0.9633 -0.0613 -0.6638
  175SAPS  H20T19962  -0.528   5.230   4.331  1.6342  1.9920  0.5841
  175SAPS   C3319963   0.024   4.449   3.252 -0.2014 -0.1500  0.2838
  175SAPS   H3X19964   0.050   4.346   3.282  2.7169  0.5715  0.5475
  175SAPS   H3Y19965  -0.082   4.470   3.226  0.2533  2.5209  0.2578
  175SAPS   C3419966   0.046   4.537   3.376 -0.2013  0.4136  0.0596
  175SAPS   H4X19967   0.010   4.635   3.340  1.7309  0.8919 -0.7145
  175SAPS   H4Y19968   0.154   4.553   3.396 -0.1626 -0.3221  0.4828
  175SAPS   C3519969  -0.016   4.486   3.503  0.2177 -0.4776  0.2795
  175SAPS   H5X19970   0.034   4.397   3.545 -2.1586 -1.1658  1.8528
  175SAPS   H5Y19971  -0.123   4.465   3.482  0.0897  0.6375 -0.2652
  175SAPS   C3619972  -0.008   4.580   3.620  0.9014 -0.4783 -0.5210
  175SAPS   H6X19973   0.097   4.617   3.619  1.2731 -1.2462  2.2643
  175SAPS   H6Y19974  -0.034   4.532   3.717  0.4631  0.0839 -0.3548
  175SAPS   C3719975  -0.097   4.707   3.600  0.1974  0.5639  0.0551
  175SAPS   H7X19976  -0.197   4.673   3.567  0.5004 -0.4008  0.1099
  175SAPS   H7Y19977  -0.058   4.776   3.522  3.1481 -1.3588 -0.3201
  175SAPS   C3819978  -0.123   4.784   3.733  0.0270 -0.2782  0.2842
  175SAPS   H8X19979  -0.024   4.777   3.783  0.3467 -0.5428 -0.3788
  175SAPS   H8Y19980  -0.198   4.733   3.797  1.3761 -0.9613  1.3694
  175SAPS   C3919981  -0.163   4.933   3.711  0.4151  0.9946  0.1232
  175SAPS   H9X19982  -0.269   4.930   3.676  0.1302 -4.0802  0.7914
  175SAPS   H9Y19983  -0.095   4.976   3.634  1.8899  0.9016  1.3518
  175SAPS  C31019984  -0.151   5.016   3.840 -0.4736 -0.5298  0.7040
  175SAPS  H10X19985  -0.177   5.123   3.824  1.3919 -0.1764 -0.2887
  175SAPS  H10Y19986  -0.043   5.014   3.868 -0.3787 -0.2981  0.3575
  175SAPS  C31119987  -0.215   4.956   3.969  0.1926 -0.3296  0.3784
  175SAPS  H11X19988  -0.177   4.856   4.001  0.3327  0.1731  1.8409
  175SAPS  H11Y19989  -0.323   4.953   3.941 -0.0093  3.6544  0.2286
  175SAPS  C31219990  -0.202   5.047   4.089  0.2822 -0.4254 -1.0748
  175SAPS  H12X19991  -0.273   5.014   4.168 -1.5518 -0.3670 -2.6374
  175SAPS  H12Y19992  -0.243   5.143   4.052  0.7924  0.3407  0.2638
  175SAPS  C31319993  -0.062   5.066   4.144 -0.3430  0.6977 -0.1548
  175SAPS  H13X19994  -0.007   5.120   4.064 -0.6184  1.0061 -0.1342
  175SAPS  H13Y19995  -0.005   4.970   4.139  1.1686  1.6047 -1.3468
  175SAPS  C31419996  -0.044   5.130   4.283  0.5166  0.1393  0.0176
  175SAPS  H14X19997  -0.094   5.051   4.343  1.0109 -1.6505 -1.8256
  175SAPS  H14Y19998  -0.108   5.221   4.294 -0.6751 -0.8314  1.4918
  175SAPS  C31519999   0.107   5.147   4.329 -0.3326  0.7016  0.0989
  175SAPS  H15X20000   0.171   5.059   4.310  1.1853  1.6773  0.5354
  175SAPS  H15Y20001   0.107   5.168   4.439 -1.4487  0.1772  0.2198
  175SAPS  C31620002   0.166   5.263   4.246  0.8105  0.4365 -0.1590
  175SAPS  H16X20003   0.087   5.340   4.249 -1.1524 -1.4930  0.1608
  175SAPS  H16Y20004   0.171   5.217   4.144  0.1323 -0.4282  0.1858
  175SAPS  C31720005   0.302   5.297   4.282 -0.8036  0.4748 -0.3277
  175SAPS  H17X20006   0.347   5.364   4.206  1.4015 -2.1687 -1.5251
  175SAPS  H17Y20007   0.367   5.206   4.286 -1.8461 -0.6147 -3.9379
  175SAPS  C31820008   0.311   5.386   4.408 -0.0020 -0.7778  0.2567
  175SAPS  H18X20009   0.411   5.431   4.424 -0.3487 -0.3443  1.2655
  175SAPS  H18Y20010   0.270   5.335   4.498 -0.5556  0.5677  0.7931
  175SAPS  H18Z20011   0.240   5.470   4.393 -1.4396 -1.7859  1.1804
  176SAPS     N20012   4.984   3.249   2.052  0.5655  0.1636 -0.1965
  176SAPS   HN120013   4.919   3.261   1.972  2.2058 -2.2626 -2.0354
  176SAPS   HN220014   4.926   3.208   2.128 -1.4145 -0.2556 -1.8529
  176SAPS   HN320015   5.022   3.339   2.089 -0.8642  1.3712 -1.5166
  176SAPS   C1220016   5.087   3.157   2.014 -0.1596 -0.0835  0.5359
  176SAPS  H12A20017   5.045   3.082   1.950 -2.2641  1.6831 -0.2709
  176SAPS   C1320018   5.204   3.215   1.937  0.0326 -0.3250  0.7378
  176SAPS  O13A20019   5.211   3.332   1.893 -0.0965  0.3770  0.5111
  176SAPS  O13B20020   5.285   3.130   1.890  0.1491 -0.1150 -0.4576
  176SAPS   C1120021   5.150   3.077   2.131 -0.4752  0.3779  0.2443
  176SAPS  H11A20022   5.197   3.150   2.201  1.6463 -0.3230 -0.3762
  176SAPS  H11B20023   5.242   3.026   2.094 -0.5687  0.1716  0.2953
  176SAPS     P20024   4.985   3.012   2.321 -0.1539 -0.0973 -0.2112
  176SAPS   O1320025   4.896   3.123   2.277 -0.4428  0.6196 -0.0697
  176SAPS   O1420026   4.929   2.892   2.377 -0.2166 -0.5346 -0.0998
  176SAPS   O1220027   5.069   2.980   2.191 -0.0207  0.7088 -0.2870
  176SAPS   O1120028   5.107   3.072   2.411  0.3419 -0.3642 -0.0165
  176SAPS    C120029   5.216   2.998   2.472 -0.3033  0.2714  0.5236
  176SAPS    HA20030   5.183   2.905   2.521  0.3124  0.6237  1.6491
  176SAPS    HB20031   5.295   2.978   2.397 -0.2432 -0.2009  0.7094
  176SAPS    C220032   5.276   3.090   2.584 -0.4595  0.3660 -0.1701
  176SAPS    HS20033   5.193   3.112   2.655 -0.8840 -1.3895 -0.0859
  176SAPS   O2120034   5.307   3.220   2.526  0.0565 -0.1352 -0.4632
  176SAPS   C2120035   5.411   3.218   2.440 -0.6043 -0.3399 -0.0972
  176SAPS   O2220036   5.492   3.123   2.424  0.0982 -0.6300  0.0517
  176SAPS   C2220037   5.419   3.352   2.361 -0.2196  0.5658 -0.8116
  176SAPS   H2R20038   5.380   3.338   2.257  1.1054  0.2686 -1.2913
  176SAPS   H2S20039   5.349   3.418   2.416 -1.2364  0.8532 -2.3694
  176SAPS    C320040   5.383   3.030   2.675  0.4737  0.2853 -0.5595
  176SAPS    HX20041   5.474   3.001   2.619 -1.0728 -0.5073 -2.8369
  176SAPS    HY20042   5.334   2.935   2.705  0.7734  0.2514 -0.1782
  176SAPS   O3120043   5.401   3.114   2.790  0.6772  0.4882  0.5575
  176SAPS   C3120044   5.313   3.094   2.887  0.1993 -0.7817 -0.1255
  176SAPS   O3220045   5.224   3.008   2.890  0.0819 -0.1001 -0.3410
  176SAPS   C3220046   5.343   3.198   2.996  0.3951  0.7422 -0.1518
  176SAPS   H2X20047   5.283   3.177   3.087  2.4409  0.5067  1.2141
  176SAPS   H2Y20048   5.298   3.296   2.967  0.4505  1.3126  1.5649
  176SAPS   C2320049   5.562   3.418   2.351 -0.2645  0.8250  0.4002
  176SAPS   H3R20050   5.544   3.494   2.272 -0.5449  1.3115  0.9274
  176SAPS   H3S20051   5.639   3.350   2.310 -0.7135  0.4944  0.1006
  176SAPS   C2420052   5.609   3.510   2.466  0.0852  0.0889 -0.6664
  176SAPS   H4R20053   5.526   3.584   2.473  0.8016  0.8577 -0.1262
  176SAPS   H4S20054   5.708   3.553   2.441 -0.0452 -0.0239 -1.3976
  176SAPS   C2520055   5.626   3.432   2.593  0.0983  0.0689  0.1790
  176SAPS   H5R20056   5.683   3.339   2.583  2.5191  1.5389 -0.4132
  176SAPS   C2620057   5.568   3.462   2.711  0.0071 -0.1736  0.5710
  176SAPS   H6R20058   5.591   3.383   2.785  1.4830 -0.4251 -0.1204
  176SAPS   C2720059   5.484   3.581   2.751 -0.2948 -0.3355 -0.1727
  176SAPS   H7R20060   5.487   3.660   2.674  0.7173 -2.6070 -2.6309
  176SAPS   H7S20061   5.524   3.623   2.846  1.5282 -1.3664 -0.4306
  176SAPS   C2820062   5.342   3.529   2.773 -0.1544  0.3486 -0.0879
  176SAPS   H8R20063   5.303   3.461   2.697  2.1676 -0.1501 -0.8937
  176SAPS   C2920064   5.259   3.557   2.874 -0.2223  0.2569  0.0698
  176SAPS   H9R20065   5.154   3.525   2.875  0.0897 -0.7812  0.3015
  176SAPS  C21020066   5.295   3.622   3.009  0.5114 -0.5921  0.7987
  176SAPS  H10R20067   5.214   3.697   3.027 -0.9787 -2.2655  1.3929
  176SAPS  H10S20068   5.386   3.686   3.008  0.9638 -1.2247  1.1909
  176SAPS  C21120069   5.300   3.527   3.123  0.0951 -0.3906  0.0640
  176SAPS  H11R20070   5.389   3.461   3.130 -0.8886 -1.5937  2.2380
  176SAPS  C21220071   5.224   3.529   3.227  0.2760  0.0541  0.0301
  176SAPS  H12R20072   5.243   3.453   3.304  0.0528 -1.1066 -1.0291
  176SAPS  C21320073   5.110   3.614   3.259 -0.1112 -0.2477 -0.5452
  176SAPS  H13R20074   5.051   3.557   3.334 -1.1181 -0.6621 -1.6186
  176SAPS  H13S20075   5.046   3.619   3.168  0.1631  0.6638 -0.6988
  176SAPS  C21420076   5.133   3.752   3.308  0.4732  0.3391 -0.5735
  176SAPS  H14R20077   5.147   3.825   3.227  1.7487  0.0101 -0.6705
  176SAPS  C21520078   5.150   3.783   3.438  0.4163  0.0772 -0.2534
  176SAPS  H15R20079   5.157   3.890   3.464 -1.9791  0.5036 -1.1119
  176SAPS  C21620080   5.134   3.685   3.551 -0.2278 -0.1469 -0.0755
  176SAPS  H16R20081   5.220   3.695   3.620 -0.0135  2.6894 -0.5919
  176SAPS  H16S20082   5.136   3.581   3.512 -2.0273  0.1821 -1.1819
  176SAPS  C21720083   4.997   3.695   3.626 -1.1063  0.3303 -0.0800
  176SAPS  H17R20084   4.916   3.655   3.561 -3.7218  1.6648  2.1655
  176SAPS  H17S20085   4.974   3.800   3.654  1.1657  1.0821 -0.7283
  176SAPS  C21820086   4.980   3.622   3.753  0.1442 -0.0905 -0.5449
  176SAPS  H18R20087   5.022   3.520   3.747  3.1558  0.8328  1.9362
  176SAPS  H18S20088   4.870   3.625   3.765 -0.1345 -0.0533 -2.7589
  176SAPS  C21920089   5.057   3.703   3.863 -0.4159  0.2714 -0.4220
  176SAPS  H19R20090   5.064   3.811   3.838  1.8871  0.2977  0.1521
  176SAPS  H19S20091   5.160   3.663   3.860  0.2495  1.9670 -2.2806
  176SAPS  C22020092   4.986   3.686   3.998 -0.1661 -0.0225  0.0231
  176SAPS  H20R20093   4.881   3.721   3.984 -0.3676  0.2248  1.9141
  176SAPS  H20S20094   5.026   3.749   4.080 -2.1823  1.0947  0.2240
  176SAPS  H20T20095   4.976   3.579   4.025  0.1487  0.3285  1.6067
  176SAPS   C3320096   5.488   3.219   3.045 -0.2992 -0.3753  0.1898
  176SAPS   H3X20097   5.501   3.308   3.109  4.3671 -1.7680  1.5381
  176SAPS   H3Y20098   5.556   3.231   2.957 -0.3042  0.5705  0.3071
  176SAPS   C3420099   5.545   3.098   3.130  0.4751 -0.2990 -0.1329
  176SAPS   H4X20100   5.655   3.110   3.131  0.6059 -1.1280  2.2608
  176SAPS   H4Y20101   5.520   3.007   3.072  2.2508 -1.6358  1.0737
  176SAPS   C3520102   5.494   3.100   3.275 -0.3266 -0.3209 -0.4968
  176SAPS   H5X20103   5.383   3.112   3.277 -0.3208 -0.3266  0.2173
  176SAPS   H5Y20104   5.532   3.195   3.317  0.1348 -1.1616  1.0700
  176SAPS   C3620105   5.532   2.972   3.354 -0.3757 -0.3118  0.8096
  176SAPS   H6X20106   5.642   2.959   3.356 -0.4467 -1.9888 -1.4333
  176SAPS   H6Y20107   5.501   2.879   3.301  0.3895  0.3109 -0.8004
  176SAPS   C3720108   5.496   2.983   3.507  0.1278  0.1369  0.4524
  176SAPS   H7X20109   5.393   3.022   3.522 -0.5791 -2.4016  3.3403
  176SAPS   H7Y20110   5.569   3.048   3.560  0.3789  1.8024 -1.8285
  176SAPS   C3820111   5.492   2.842   3.578  0.1529 -0.4077 -0.6355
  176SAPS   H8X20112   5.595   2.803   3.578 -0.4443 -2.3173  2.4675
  176SAPS   H8Y20113   5.423   2.779   3.518 -0.4990 -0.9914  0.6651
  176SAPS   C3920114   5.438   2.843   3.723 -0.7871 -0.0107 -0.6910
  176SAPS   H9X20115   5.419   2.742   3.765 -0.8069 -0.3129 -1.4228
  176SAPS   H9Y20116   5.338   2.892   3.724 -0.8297 -0.1057 -0.2402
  176SAPS  C31020117   5.522   2.924   3.823  0.5511 -0.1450  0.8661
  176SAPS  H10X20118   5.547   3.015   3.765 -0.9724 -1.1306 -1.4729
  176SAPS  H10Y20119   5.611   2.860   3.846  0.9598 -0.2963 -1.0086
  176SAPS  C31120120   5.455   2.944   3.959 -0.1260 -0.5803 -0.4329
  176SAPS  H11X20121   5.451   2.847   4.014 -0.4479 -0.2906  0.0621
  176SAPS  H11Y20122   5.350   2.976   3.940  0.1915  1.0502  0.3809
  176SAPS  C31220123   5.534   3.037   4.048 -0.6802 -0.0004 -0.2376
  176SAPS  H12X20124   5.552   3.135   3.999 -0.4703 -0.8483 -1.9129
  176SAPS  H12Y20125   5.641   3.017   4.069 -0.9753  0.2802  1.7265
  176SAPS  C31320126   5.470   3.060   4.188  1.3281 -0.0734 -0.4998
  176SAPS  H13X20127   5.360   3.057   4.171  1.4202 -0.0442 -1.1446
  176SAPS  H13Y20128   5.498   3.161   4.224 -2.0730  1.4007 -1.5430
  176SAPS  C31420129   5.509   2.961   4.305  0.4782 -0.0061  0.4873
  176SAPS  H14X20130   5.596   2.986   4.370 -1.4556  1.0866  2.8056
  176SAPS  H14Y20131   5.528   2.864   4.253  0.5059  0.3203 -0.1248
  176SAPS  C31520132   5.388   2.954   4.397  0.3746  0.0708 -0.7125
  176SAPS  H15X20133   5.306   3.025   4.374 -1.5664 -1.7032  0.4856
  176SAPS  H15Y20134   5.422   2.974   4.501 -1.2097  0.2574 -0.2165
  176SAPS  C31620135   5.333   2.811   4.404 -0.2156 -0.4851 -0.2906
  176SAPS  H16X20136   5.292   2.795   4.505  1.4515  2.8322  1.0726
  176SAPS  H16Y20137   5.426   2.751   4.402  0.6479  0.7061 -3.7154
  176SAPS  C31720138   5.243   2.764   4.299  0.1576 -0.2314 -0.3150
  176SAPS  H17X20139   5.208   2.663   4.331 -0.5707  1.0498  3.4916
  176SAPS  H17Y20140   5.289   2.738   4.201 -2.4767 -2.4016 -1.1061
  176SAPS  C31820141   5.119   2.851   4.267  0.0476  0.2746 -0.2835
  176SAPS  H18X20142   5.056   2.811   4.185 -0.7985 -1.4041  1.1236
  176SAPS  H18Y20143   5.145   2.954   4.234 -0.2538  0.4989  0.1602
  176SAPS  H18Z20144   5.058   2.862   4.359 -0.7110  0.2829 -0.7771
  177SAPS     N20145   0.844   0.005   1.908  0.0006  0.1097  0.1707
  177SAPS   HN120146   0.792   0.053   1.832 -1.8335 -1.0667  0.6123
  177SAPS   HN220147   0.783  -0.060   1.961 -1.0968  1.4220  0.5841
  177SAPS   HN320148   0.868   0.077   1.980  1.7035  1.4541 -1.6335
  177SAPS   C1220149   0.960  -0.071   1.844  0.1816 -0.4702 -0.3633
  177SAPS  H12A20150   0.917  -0.166   1.814 -2.4846  0.4660  0.2413
  177SAPS   C1320151   1.012   0.004   1.717 -0.0413 -0.2884 -0.2135
  177SAPS  O13A20152   0.959   0.120   1.688 -0.6154  0.0605 -0.6512
  177SAPS  O13B20153   1.073  -0.065   1.632  0.4033 -0.2263 -0.3513
  177SAPS   C1120154   1.069  -0.096   1.948  0.4946 -0.6796  0.1793
  177SAPS  H11A20155   1.121  -0.001   1.972  0.3321 -0.3155 -0.8529
  177SAPS  H11B20156   1.149  -0.152   1.895 -0.8817 -0.1651 -2.6649
  177SAPS     P20157   1.013  -0.322   2.068  0.0473 -0.0053 -0.2250
  177SAPS   O1320158   0.868  -0.355   2.064 -0.4967 -0.5104  0.6310
  177SAPS   O1420159   1.093  -0.388   1.966 -0.1332 -0.2928 -0.6604
  177SAPS   O1220160   1.024  -0.166   2.070  0.3324  0.1409  0.2211
  177SAPS   O1120161   1.071  -0.371   2.200 -0.0289  0.0824 -0.6293
  177SAPS    C120162   1.182  -0.304   2.255 -0.3914 -0.0767 -0.1951
  177SAPS    HA20163   1.262  -0.295   2.179  0.1278 -3.3224 -0.1780
  177SAPS    HB20164   1.156  -0.202   2.290 -0.2509 -0.7317  1.9581
  177SAPS    C220165   1.252  -0.393   2.366 -0.2373 -0.4871  0.8447
  177SAPS    HS20166   1.282  -0.488   2.315 -0.8540 -1.3180  1.9817
  177SAPS   O2120167   1.157  -0.431   2.462 -0.1440  0.2048  0.7645
  177SAPS   C2120168   1.211  -0.507   2.547  0.8938  0.0839 -1.0040
  177SAPS   O2220169   1.301  -0.585   2.536 -0.4917  0.2164  0.4394
  177SAPS   C2220170   1.139  -0.479   2.681 -0.3960  0.3815 -0.4214
  177SAPS   H2R20171   1.190  -0.402   2.741  2.6359 -3.9477  3.2568
  177SAPS   H2S20172   1.035  -0.442   2.668 -0.7883 -0.6692 -0.4561
  177SAPS    C320173   1.371  -0.316   2.425  0.5162 -0.1940  0.0288
  177SAPS    HX20174   1.434  -0.268   2.347 -0.9429  0.9157 -0.5211
  177SAPS    HY20175   1.424  -0.387   2.492  0.3019  0.2304  0.6464
  177SAPS   O3120176   1.322  -0.205   2.507  0.4359 -0.4666  0.2943
  177SAPS   C3120177   1.397  -0.171   2.608  0.2331 -0.3946 -0.1257
  177SAPS   O3220178   1.511  -0.207   2.629  0.3269  0.5351  0.0630
  177SAPS   C3220179   1.309  -0.079   2.697 -0.0716 -0.4240  0.2659
  177SAPS   H2X20180   1.219  -0.138   2.725 -0.6081 -0.2463 -1.0277
  177SAPS   H2Y20181   1.273   0.005   2.635  2.7644  0.7203  0.0261
  177SAPS   C2320182   1.130  -0.607   2.765 -0.2337  0.5808  0.4490
  177SAPS   H3R20183   1.230  -0.651   2.785  0.7450  3.2849  2.0485
  177SAPS   H3S20184   1.066  -0.683   2.717 -0.4634  1.0351  0.0245
  177SAPS   C2420185   1.085  -0.567   2.912 -0.7982  0.1281  0.3151
  177SAPS   H4R20186   1.112  -0.461   2.932 -0.6397  0.5559 -1.8863
  177SAPS   H4S20187   1.143  -0.627   2.985 -0.4379  1.7527  1.4212
  177SAPS   C2520188   0.932  -0.570   2.923  0.4787 -0.2067  0.4352
  177SAPS   H5R20189   0.870  -0.574   2.833  3.1289  0.1411 -1.5265
  177SAPS   C2620190   0.868  -0.569   3.041 -0.9992 -0.1326  0.2197
  177SAPS   H6R20191   0.759  -0.581   3.034 -0.8214 -1.8267 -0.0916
  177SAPS   C2720192   0.935  -0.557   3.183 -0.6821  0.4023 -0.5942
  177SAPS   H7R20193   1.035  -0.513   3.163 -1.1841  0.9564 -2.0107
  177SAPS   H7S20194   0.948  -0.662   3.216 -1.2077  0.1431 -1.1724
  177SAPS   C2820195   0.860  -0.473   3.283  0.3164 -0.1995 -0.8918
  177SAPS   H8R20196   0.796  -0.393   3.244 -1.9113 -0.8867  1.0963
  177SAPS   C2920197   0.865  -0.473   3.418  0.3150  0.5320  0.1028
  177SAPS   H9R20198   0.802  -0.402   3.474  0.9607  1.3490 -0.1863
  177SAPS  C21020199   0.931  -0.586   3.500 -0.2080 -0.5696 -0.2973
  177SAPS  H10R20200   0.970  -0.669   3.437  0.1788  0.3509 -1.2830
  177SAPS  H10S20201   0.862  -0.631   3.576  0.1159  0.2347  0.4845
  177SAPS  C21120202   1.045  -0.539   3.582  0.4039  0.1291  0.5470
  177SAPS  H11R20203   1.143  -0.534   3.532  0.6724 -1.9884  0.7813
  177SAPS  C21220204   1.038  -0.489   3.709  0.5075  0.0198  0.0385
  177SAPS  H12R20205   1.129  -0.450   3.757 -0.0268 -0.2463  1.3055
  177SAPS  C21320206   0.910  -0.481   3.791 -0.6289  0.1687  0.2306
  177SAPS  H13R20207   0.824  -0.433   3.740  0.6804  0.8064 -1.4758
  177SAPS  H13S20208   0.926  -0.399   3.865  0.6103  1.1857 -1.1011
  177SAPS  C21420209   0.878  -0.611   3.864 -0.1551  0.6420  0.0188
  177SAPS  H14R20210   0.925  -0.699   3.818 -0.0397  0.5658  0.2820
  177SAPS  C21520211   0.794  -0.634   3.961  0.2484 -0.6752 -1.0692
  177SAPS  H15R20212   0.792  -0.734   4.008  0.5042  0.5416  1.6971
  177SAPS  C21620213   0.733  -0.524   4.049 -0.3435 -0.9776  0.0052
  177SAPS  H16R20214   0.631  -0.559   4.078 -0.3358 -0.4436  0.6829
  177SAPS  H16S20215   0.720  -0.434   3.986  2.2950 -1.0458 -0.7314
  177SAPS  C21720216   0.819  -0.494   4.175 -0.2553 -0.2171  0.7184
  177SAPS  H17R20217   0.772  -0.414   4.237  1.0468  0.7153  0.5567
  177SAPS  H17S20218   0.919  -0.454   4.149 -0.9277  1.3710  0.4559
  177SAPS  C21820219   0.836  -0.615   4.270  0.3229  0.5147  0.4088
  177SAPS  H18R20220   0.861  -0.708   4.214  0.2903 -0.2573  1.6440
  177SAPS  H18S20221   0.732  -0.630   4.305 -0.6273  1.3979 -1.8242
  177SAPS  C21920222   0.930  -0.606   4.393 -0.3294  1.2022  0.1348
  177SAPS  H19R20223   1.031  -0.573   4.359  0.0198  0.6444  0.5984
  177SAPS  H19S20224   0.944  -0.706   4.439 -0.2629  1.1088 -0.0895
  177SAPS  C22020225   0.887  -0.514   4.505  0.8301 -0.0117  0.2015
  177SAPS  H20R20226   0.979  -0.509   4.566  1.7280 -0.4631 -1.0604
  177SAPS  H20S20227   0.796  -0.553   4.555  1.4191 -0.0671  1.2540
  177SAPS  H20T20228   0.867  -0.413   4.464  0.7105  0.2852  0.9775
  177SAPS   C3320229   1.385  -0.010   2.807 -0.1431  0.0840 -0.0895
  177SAPS   H3X20230   1.461   0.054   2.758 -0.3044 -0.4103 -0.9993
  177SAPS   H3Y20231   1.444  -0.081   2.870  2.3151  3.8267  2.2196
  177SAPS   C3420232   1.290   0.074   2.890 -0.8280  0.0204 -0.3242
  177SAPS   H4X20233   1.185   0.038   2.895 -0.9721  0.5756  1.1385
  177SAPS   H4Y20234   1.283   0.175   2.846  0.1826  0.4225  0.3813
  177SAPS   C3520235   1.339   0.075   3.038  0.3551  0.2305 -0.8029
  177SAPS   H5X20236   1.444   0.103   3.057  1.1497 -2.8935  0.0109
  177SAPS   H5Y20237   1.334  -0.030   3.074 -1.5437  0.7348  0.5630
  177SAPS   C3620238   1.258   0.179   3.120 -0.0448  0.0361 -0.6841
  177SAPS   H6X20239   1.155   0.171   3.078 -0.4555  1.8491 -0.1150
  177SAPS   H6Y20240   1.297   0.281   3.099  2.3731 -0.5112  0.8143
  177SAPS   C3720241   1.256   0.135   3.267 -0.0884 -0.4795 -0.2152
  177SAPS   H7X20242   1.236   0.026   3.272 -1.1088 -0.2809  0.4275
  177SAPS   H7Y20243   1.174   0.191   3.317 -0.4305 -0.1930 -1.0875
  177SAPS   C3820244   1.388   0.167   3.341 -0.2551  0.2434 -0.0151
  177SAPS   H8X20245   1.426   0.267   3.310 -0.3554  0.3385  0.1671
  177SAPS   H8Y20246   1.461   0.095   3.299 -0.8413 -0.0935 -0.4563
  177SAPS   C3920247   1.384   0.149   3.492 -0.4394 -0.5190  0.3761
  177SAPS   H9X20248   1.471   0.087   3.523  0.5423  1.0680  0.9519
  177SAPS   H9Y20249   1.294   0.094   3.528 -0.4164 -0.8300 -0.0272
  177SAPS  C31020250   1.386   0.280   3.580  0.2419  0.0695  0.4022
  177SAPS  H10X20251   1.304   0.345   3.544  0.8514  0.9743  0.6175
  177SAPS  H10Y20252   1.475   0.340   3.553 -0.0846  0.3073 -0.1738
  177SAPS  C31120253   1.374   0.252   3.732 -0.5243 -0.0234 -0.3674
  177SAPS  H11X20254   1.416   0.339   3.786 -1.1625  1.1608 -1.7262
  177SAPS  H11Y20255   1.433   0.164   3.765 -1.5618 -0.8018 -0.5225
  177SAPS  C31220256   1.231   0.216   3.774  0.3328 -0.3660  0.0575
  177SAPS  H12X20257   1.229   0.155   3.867 -2.0507 -0.0485  0.2768
  177SAPS  H12Y20258   1.183   0.151   3.699 -1.2206 -2.1960  2.4772
  177SAPS  C31320259   1.144   0.344   3.793  0.4416 -0.3113 -0.2225
  177SAPS  H13X20260   1.035   0.327   3.795  0.2659  0.7961  0.1908
  177SAPS  H13Y20261   1.167   0.396   3.697  1.1018 -1.2404 -0.5871
  177SAPS  C31420262   1.179   0.431   3.918  0.8946 -0.7623 -0.7580
  177SAPS  H14X20263   1.170   0.538   3.891  3.5599  0.1454  1.4467
  177SAPS  H14Y20264   1.284   0.413   3.948  1.0004 -0.6113 -1.0320
  177SAPS  C31520265   1.099   0.395   4.045  0.4096  0.4798 -0.3892
  177SAPS  H15X20266   1.117   0.289   4.071 -0.7111  0.5736  0.8812
  177SAPS  H15Y20267   0.991   0.414   4.028  0.2314 -0.2176 -0.0671
  177SAPS  C31620268   1.139   0.481   4.167  0.1152 -0.7423 -0.3762
  177SAPS  H16X20269   1.250   0.473   4.166  0.2416  0.7272 -1.1810
  177SAPS  H16Y20270   1.085   0.449   4.259  1.0960 -0.3997  0.3317
  177SAPS  C31720271   1.113   0.637   4.153 -0.0483  0.7420 -0.0773
  177SAPS  H17X20272   1.048   0.646   4.064  0.3996 -2.7395 -0.8936
  177SAPS  H17Y20273   1.204   0.686   4.112 -0.0292  0.1071 -0.8273
  177SAPS  C31820274   1.066   0.710   4.277 -0.4613  0.4922 -0.4803
  177SAPS  H18X20275   0.957   0.726   4.283 -0.6043 -0.8189  1.4991
  177SAPS  H18Y20276   1.123   0.802   4.303 -0.4171  0.0351  1.2204
  177SAPS  H18Z20277   1.097   0.650   4.366 -1.4828 -0.5763 -0.8278
  178SAPS     N20278   0.197   1.266   2.177 -0.0514 -0.3626  0.1344
  178SAPS   HN120279   0.177   1.163   2.174 -0.2181 -0.3014 -1.4921
  178SAPS   HN220280   0.168   1.304   2.085 -0.7685  1.4525  1.0647
  178SAPS   HN320281   0.299   1.275   2.194 -0.2010 -1.6496  2.1923
  178SAPS   C1220282   0.123   1.339   2.281  0.3816  0.0446 -0.4036
  178SAPS  H12A20283   0.103   1.266   2.358 -0.4984 -0.1097 -0.7586
  178SAPS   C1320284   0.199   1.463   2.330 -0.2792 -0.7755 -0.1937
  178SAPS  O13A20285   0.296   1.509   2.260  0.0648  0.3414  0.0362
  178SAPS  O13B20286   0.144   1.534   2.421  1.1024  1.0775 -0.5557
  178SAPS   C1120287  -0.023   1.384   2.235 -0.8442  0.1555  0.2888
  178SAPS  H11A20288  -0.009   1.472   2.168 -0.2630  0.0972  0.3328
  178SAPS  H11B20289  -0.071   1.413   2.331  0.2176 -0.3984  1.0002
  178SAPS     P20290  -0.248   1.266   2.187 -0.1059  0.1731  0.2678
  178SAPS   O1320291  -0.308   1.397   2.156 -0.6320 -0.6917 -0.5809
  178SAPS   O1420292  -0.299   1.145   2.115 -0.0106  0.1521 -1.3699
  178SAPS   O1220293  -0.090   1.279   2.161 -0.2702  0.3002  0.0943
  178SAPS   O1120294  -0.255   1.239   2.341  0.0518 -0.8216  0.4759
  178SAPS    C120295  -0.213   1.105   2.384 -0.2942 -0.0508 -0.1414
  178SAPS    HA20296  -0.274   1.026   2.334 -0.1250  1.3661 -2.8024
  178SAPS    HB20297  -0.105   1.099   2.358  0.1393  0.1955  1.4896
  178SAPS    C220298  -0.225   1.090   2.540 -0.0619 -0.4001 -0.0119
  178SAPS    HS20299  -0.167   1.000   2.571  0.4888 -0.2180 -0.4832
  178SAPS   O2120300  -0.366   1.074   2.572  0.4864 -0.6469  0.9727
  178SAPS   C2120301  -0.394   1.005   2.686  0.1436  0.7538  0.4004
  178SAPS   O2220302  -0.319   0.927   2.737 -0.4099 -0.1745  0.1794
  178SAPS   C2220303  -0.542   1.029   2.727 -0.6115  0.2924  0.4845
  178SAPS   H2R20304  -0.595   1.078   2.642  0.8614 -0.3118 -0.8319
  178SAPS   H2S20305  -0.595   0.933   2.744 -0.9461  0.7065  1.8678
  178SAPS    C320306  -0.154   1.209   2.610 -0.0203 -0.8070  0.4281
  178SAPS    HX20307  -0.184   1.299   2.553 -1.8073 -1.0510  0.9230
  178SAPS    HY20308  -0.048   1.199   2.578 -0.0581 -0.1825  0.0915
  178SAPS   O3120309  -0.167   1.229   2.753  0.1259  0.4444 -0.0383
  178SAPS   C3120310  -0.068   1.199   2.829  0.2921  0.0380  0.1289
  178SAPS   O3220311   0.048   1.194   2.793  0.1183 -0.0771  0.1388
  178SAPS   C3220312  -0.117   1.157   2.974  0.0607 -0.1951 -0.5080
  178SAPS   H2X20313  -0.145   1.049   2.969 -1.0368  0.1061 -1.2048
  178SAPS   H2Y20314  -0.202   1.214   3.016  2.4569  1.1850  2.9253
  178SAPS   C2320315  -0.557   1.109   2.861  0.0801 -0.2846  0.4418
  178SAPS   H3R20316  -0.665   1.135   2.875 -0.1467 -0.8133 -0.2521
  178SAPS   H3S20317  -0.485   1.193   2.855  1.6989 -1.6353  0.3752
  178SAPS   C2420318  -0.506   1.029   2.982 -0.5653 -0.7392 -0.9121
  178SAPS   H4R20319  -0.398   1.008   2.969 -0.7721 -0.6804 -3.0924
  178SAPS   H4S20320  -0.551   0.928   2.995 -1.3900 -0.0595  3.1105
  178SAPS   C2520321  -0.553   1.110   3.109 -0.2627  0.4093  0.2076
  178SAPS   H5R20322  -0.566   1.218   3.094 -0.2920  0.6452  1.7994
  178SAPS   C2620323  -0.578   1.058   3.231 -0.4287 -0.3188  0.7434
  178SAPS   H6R20324  -0.609   1.131   3.307  0.4975 -0.0666  0.8874
  178SAPS   C2720325  -0.560   0.915   3.273  0.0174  0.1517 -0.0132
  178SAPS   H7R20326  -0.604   0.860   3.188  0.2573 -0.9575  0.5627
  178SAPS   H7S20327  -0.621   0.894   3.363  0.4359 -1.7578 -0.1388
  178SAPS   C2820328  -0.414   0.869   3.306  0.6884 -0.4482 -0.4713
  178SAPS   H8R20329  -0.363   0.806   3.232  0.8319  0.3539 -1.0757
  178SAPS   C2920330  -0.335   0.902   3.411  0.4152 -0.2448  0.8213
  178SAPS   H9R20331  -0.231   0.868   3.428  0.3259 -0.5187  0.8202
  178SAPS  C21020332  -0.372   0.983   3.528  0.6168  0.2511  0.7600
  178SAPS  H10R20333  -0.404   1.087   3.501  0.7144 -0.6537 -3.5423
  178SAPS  H10S20334  -0.275   1.005   3.577  0.8965  1.8301 -0.3940
  178SAPS  C21120335  -0.475   0.922   3.618  1.3265  0.3222 -0.1846
  178SAPS  H11R20336  -0.546   0.855   3.567  2.7141  0.1740 -2.0462
  178SAPS  C21220337  -0.489   0.939   3.749 -0.0083 -0.2354  0.3080
  178SAPS  H12R20338  -0.568   0.880   3.798  0.5036 -1.7692 -0.6662
  178SAPS  C21320339  -0.399   1.019   3.847 -0.5308 -0.2877  0.2197
  178SAPS  H13R20340  -0.318   1.077   3.797 -0.4517 -0.4513  0.1564
  178SAPS  H13S20341  -0.345   0.942   3.906  1.1002 -0.8159 -1.8619
  178SAPS  C21420342  -0.483   1.117   3.929 -0.2300  0.1235  0.2695
  178SAPS  H14R20343  -0.584   1.139   3.892 -0.2190 -2.4076 -1.4691
  178SAPS  C21520344  -0.429   1.177   4.036  0.2444 -0.5471  0.3180
  178SAPS  H15R20345  -0.484   1.250   4.097 -0.2929 -0.2175 -0.5471
  178SAPS  C21620346  -0.290   1.156   4.088  0.3405  0.1112 -0.4429
  178SAPS  H16R20347  -0.273   1.250   4.144  3.5366 -1.2515  1.1221
  178SAPS  H16S20348  -0.217   1.164   4.005  0.0035 -0.3214 -0.7903
  178SAPS  C21720349  -0.276   1.028   4.180 -0.0275 -0.3112  0.1247
  178SAPS  H17R20350  -0.172   0.990   4.183 -0.3882 -1.4846 -1.1157
  178SAPS  H17S20351  -0.351   0.956   4.140 -1.7172  1.2156  0.4380
  178SAPS  C21820352  -0.314   1.040   4.333  0.1776 -0.0897 -0.1253
  178SAPS  H18R20353  -0.415   1.086   4.342 -0.1521 -0.8077 -0.0989
  178SAPS  H18S20354  -0.238   1.103   4.384  0.5528 -0.9487  0.4024
  178SAPS  C21920355  -0.318   0.898   4.398 -0.8992  0.0166 -0.1018
  178SAPS  H19R20356  -0.211   0.871   4.411 -0.1652  2.3123 -0.7589
  178SAPS  H19S20357  -0.363   0.829   4.324 -1.0703 -0.7846  0.7348
  178SAPS  C22020358  -0.409   0.893   4.514  0.0666 -0.0455 -0.6264
  178SAPS  H20R20359  -0.371   0.942   4.607  2.3421 -1.6688 -0.6086
  178SAPS  H20S20360  -0.416   0.787   4.546 -1.0090  0.0925 -0.3834
  178SAPS  H20T20361  -0.500   0.945   4.479 -0.8731  0.8088  2.7208
  178SAPS   C3320362  -0.005   1.183   3.079  0.6105  0.7950 -0.1638
  178SAPS   H3X20363   0.002   1.294   3.078  0.0096  0.8641  0.7707
  178SAPS   H3Y20364   0.087   1.139   3.037  1.4674  0.1760  2.2024
  178SAPS   C3420365  -0.031   1.116   3.218 -0.7282 -0.1723 -0.0217
  178SAPS   H4X20366  -0.008   1.008   3.212  1.5155  0.3003 -0.8417
  178SAPS   H4Y20367  -0.137   1.122   3.252 -0.2763 -0.0323  1.4256
  178SAPS   C3520368   0.043   1.174   3.334  0.0275  0.1500  0.2577
  178SAPS   H5X20369   0.000   1.275   3.351 -2.0568 -0.7471  0.6267
  178SAPS   H5Y20370   0.153   1.171   3.318  0.4246 -2.9141  2.6360
  178SAPS   C3620371   0.022   1.096   3.472 -0.3617  0.3135  1.0111
  178SAPS   H6X20372   0.063   0.994   3.456 -0.5044  0.5827 -1.4457
  178SAPS   H6Y20373  -0.087   1.096   3.492 -0.6360  0.2687 -0.3811
  178SAPS   C3720374   0.088   1.176   3.587 -0.3866  0.0064  0.2990
  178SAPS   H7X20375   0.040   1.276   3.580 -0.7807 -0.2249 -0.3191
  178SAPS   H7Y20376   0.194   1.187   3.557  0.0760 -0.0722  1.8176
  178SAPS   C3820377   0.074   1.118   3.729  0.3711  0.1407  0.0290
  178SAPS   H8X20378   0.124   1.019   3.731 -1.2066 -0.6935  0.6844
  178SAPS   H8Y20379  -0.031   1.092   3.758  0.2277  0.2647 -0.3754
  178SAPS   C3920380   0.123   1.218   3.832  0.2227  0.0020 -0.2864
  178SAPS   H9X20381   0.068   1.313   3.816 -0.9744 -0.7617 -0.9355
  178SAPS   H9Y20382   0.231   1.233   3.812  0.0174  1.9813 -0.0951
  178SAPS  C31020383   0.117   1.169   3.979 -0.1371 -0.1352  0.2458
  178SAPS  H10X20384   0.182   1.079   3.991 -3.4251 -2.5603  1.1781
  178SAPS  H10Y20385   0.014   1.130   3.991  0.6975 -2.1759  1.3317
  178SAPS  C31120386   0.146   1.282   4.079 -0.5537 -0.3892  0.0090
  178SAPS  H11X20387   0.098   1.377   4.045  1.7535  1.1340  0.7647
  178SAPS  H11Y20388   0.253   1.309   4.087 -0.6226 -0.3627  0.9352
  178SAPS  C31220389   0.097   1.251   4.221  0.3360 -0.5662  0.1590
  178SAPS  H12X20390  -0.007   1.210   4.219 -0.1256  0.2125  3.3021
  178SAPS  H12Y20391   0.069   1.342   4.279 -0.1414 -0.8990  0.4593
  178SAPS  C31320392   0.188   1.158   4.304  0.5715  0.4566  0.0019
  178SAPS  H13X20393   0.293   1.193   4.289  0.7625 -0.0417  0.1710
  178SAPS  H13Y20394   0.181   1.050   4.281 -4.1109 -0.0784  2.7465
  178SAPS  C31420395   0.175   1.176   4.458 -0.0079 -0.0290  0.4105
  178SAPS  H14X20396   0.209   1.276   4.492  0.0310  0.8529 -2.0156
  178SAPS  H14Y20397   0.234   1.089   4.494 -1.4242 -1.5381 -0.7618
  178SAPS  C31520398   0.038   1.127   4.510  0.0986  0.5255  0.6210
  178SAPS  H15X20399  -0.028   1.101   4.424  3.9112  0.3356 -2.5383
  178SAPS  H15Y20400  -0.018   1.218   4.542 -0.6726  1.1026 -2.0967
  178SAPS  C31620401   0.048   1.014   4.613 -0.1897 -0.5072 -0.5131
  178SAPS  H16X20402  -0.044   1.020   4.676  1.0171  2.5222  1.1792
  178SAPS  H16Y20403   0.126   1.026   4.691 -0.7647 -1.4326  0.2232
  178SAPS  C31720404   0.069   0.878   4.562 -0.7746 -0.4903  0.0823
  178SAPS  H17X20405   0.178   0.857   4.564 -0.2848  1.8237  0.6702
  178SAPS  H17Y20406   0.048   0.868   4.454  4.1690  0.0393 -1.1888
  178SAPS  C31820407  -0.008   0.774   4.633 -0.0108 -0.5361 -0.1133
  178SAPS  H18X20408  -0.117   0.793   4.622  0.1856  1.4087  1.0258
  178SAPS  H18Y20409   0.013   0.766   4.741 -1.2683  0.0002  0.1894
  178SAPS  H18Z20410   0.019   0.677   4.585  0.2283  0.0123 -1.1085
  179SAPS     N20411   3.437   5.200   2.563 -0.3204 -0.4587 -0.3656
  179SAPS   HN120412   3.532   5.157   2.554  1.0571  1.4120  3.2341
  179SAPS   HN220413   3.404   5.220   2.466 -1.0685 -0.0335 -0.0309
  179SAPS   HN320414   3.443   5.298   2.599 -0.9077  0.0149 -1.5073
  179SAPS   C1220415   3.338   5.122   2.638 -0.1414 -0.6903 -0.3268
  179SAPS  H12A20416   3.329   5.169   2.735 -1.0508 -5.3982  2.1801
  179SAPS   C1320417   3.197   5.116   2.577 -0.1615 -0.1619  0.6114
  179SAPS  O13A20418   3.174   5.165   2.464  0.1086 -0.6026 -0.2202
  179SAPS  O13B20419   3.102   5.062   2.638  0.4466  0.3210 -0.5719
  179SAPS   C1120420   3.392   4.983   2.660  0.0602 -0.3983 -0.0680
  179SAPS  H11A20421   3.312   4.926   2.712 -0.6069  1.6077  1.2354
  179SAPS  H11B20422   3.482   4.986   2.724  1.4349 -4.2190 -1.5260
  179SAPS     P20423   3.450   4.759   2.546 -0.4757 -0.1722 -0.0248
  179SAPS   O1320424   3.315   4.699   2.554  0.8297  0.0510 -0.0379
  179SAPS   O1420425   3.540   4.716   2.438  0.1389 -0.3944  0.1782
  179SAPS   O1220426   3.438   4.916   2.539 -0.2993  0.3331  0.5222
  179SAPS   O1120427   3.524   4.745   2.681  0.0849  0.1510  1.3434
  179SAPS    C120428   3.570   4.618   2.724  0.6005  0.4216 -0.2442
  179SAPS    HA20429   3.575   4.534   2.652 -0.1764 -1.8850  2.2248
  179SAPS    HB20430   3.667   4.621   2.778 -0.7308 -0.3452  2.3311
  179SAPS    C220431   3.469   4.562   2.826 -0.2495  0.3750 -1.0649
  179SAPS    HS20432   3.374   4.540   2.773 -1.1621 -0.6366  0.8945
  179SAPS   O2120433   3.468   4.649   2.938 -0.2224 -0.3685 -0.6674
  179SAPS   C2120434   3.353   4.672   3.001 -0.6520  0.9889 -0.3454
  179SAPS   O2220435   3.247   4.639   2.962  0.1824 -0.1376 -0.5689
  179SAPS   C2220436   3.383   4.775   3.117 -0.1676 -0.4768 -0.5568
  179SAPS   H2R20437   3.385   4.877   3.075 -0.8343  0.0722  0.6988
  179SAPS   H2S20438   3.300   4.769   3.191 -0.7749  1.3645 -1.0329
  179SAPS    C320439   3.518   4.432   2.877 -0.2148  0.4115 -0.8410
  179SAPS    HX20440   3.615   4.442   2.930 -0.8493  1.6175  0.1470
  179SAPS    HY20441   3.542   4.370   2.788  0.4364  0.4981 -0.7285
  179SAPS   O3120442   3.440   4.372   2.983  0.3210 -0.4132 -0.1145
  179SAPS   C3120443   3.319   4.334   2.939  0.9521 -0.0354 -0.4520
  179SAPS   O3220444   3.269   4.353   2.835  0.6823 -0.2340 -0.5793
  179SAPS   C3220445   3.240   4.275   3.063  0.7514 -0.3720  0.1193
  179SAPS   H2X20446   3.257   4.340   3.151 -2.9647  1.5809 -0.4195
  179SAPS   H2Y20447   3.290   4.179   3.090 -0.2661 -0.9657 -0.0220
  179SAPS   C2320448   3.519   4.760   3.196  0.5720  0.0586  0.3764
  179SAPS   H3R20449   3.606   4.745   3.129  2.5417 -0.1645  2.8113
  179SAPS   H3S20450   3.508   4.661   3.246  0.8629  0.7780  1.9262
  179SAPS   C2420451   3.536   4.885   3.282 -0.0165  0.5302 -0.4321
  179SAPS   H4R20452   3.438   4.907   3.330 -0.5513 -0.5687 -0.9719
  179SAPS   H4S20453   3.560   4.968   3.212 -0.3448  1.8579  0.9922
  179SAPS   C2520454   3.649   4.865   3.381  0.6818 -0.6395  0.5964
  179SAPS   H5R20455   3.739   4.832   3.328 -0.1149  0.7268 -1.7590
  179SAPS   C2620456   3.645   4.859   3.517 -0.8017 -0.5994  0.3003
  179SAPS   H6R20457   3.740   4.854   3.572  0.3592 -2.3744 -1.7241
  179SAPS   C2720458   3.529   4.895   3.606  0.6037  0.4976 -0.6501
  179SAPS   H7R20459   3.482   4.797   3.631 -0.0186  1.3492  1.7993
  179SAPS   H7S20460   3.456   4.961   3.556  1.2307  3.0469  1.6001
  179SAPS   C2820461   3.578   4.974   3.732 -0.2805 -0.1958  0.6713
  179SAPS   H8R20462   3.636   5.062   3.703  0.5375 -0.7855  0.4894
  179SAPS   C2920463   3.553   4.942   3.863 -0.5454  0.3677 -0.5396
  179SAPS   H9R20464   3.606   5.009   3.933 -2.4572  1.1409  0.2544
  179SAPS  C21020465   3.468   4.836   3.920 -0.7456  0.6768 -0.0863
  179SAPS  H10R20466   3.462   4.744   3.858 -3.6092 -0.2308  1.3735
  179SAPS  H10S20467   3.362   4.869   3.915 -0.5330  1.4582  0.3995
  179SAPS  C21120468   3.507   4.808   4.061 -0.2708 -0.6826 -0.3708
  179SAPS  H11R20469   3.566   4.715   4.067 -0.7493 -1.1247 -2.0275
  179SAPS  C21220470   3.465   4.878   4.170 -0.5163 -0.0775  0.2049
  179SAPS  H12R20471   3.516   4.860   4.266 -0.8015  0.2467  0.4199
  179SAPS  C21320472   3.384   5.003   4.169  0.7224 -0.3787 -0.0679
  179SAPS  H13R20473   3.349   5.030   4.067 -1.6576 -0.2330  0.7200
  179SAPS  H13S20474   3.449   5.092   4.186 -0.0439 -0.1464  1.9371
  179SAPS  C21420475   3.271   4.998   4.267 -0.3593 -0.1367  1.0944
  179SAPS  H14R20476   3.179   4.980   4.210  0.9205  0.7970 -1.3912
  179SAPS  C21520477   3.278   5.037   4.395 -0.2462  0.0726  0.2976
  179SAPS  H15R20478   3.194   5.027   4.466  0.4574  1.3247  1.3455
  179SAPS  C21620479   3.409   5.081   4.463  0.6362 -0.0403  0.2032
  179SAPS  H16R20480   3.490   5.102   4.390  0.1782  0.2091 -0.2409
  179SAPS  H16S20481   3.455   5.013   4.538  2.5187  2.0287  1.0406
  179SAPS  C21720482   3.386   5.207   4.545  0.1745 -0.3760 -1.2499
  179SAPS  H17R20483   3.335   5.286   4.485 -0.7142  1.0791  1.2909
  179SAPS  H17S20484   3.482   5.250   4.583 -0.7254  0.1676  0.5052
  179SAPS  C21820485   3.306   5.186   4.675  0.7204  0.1025  0.4791
  179SAPS  H18R20486   3.203   5.158   4.646  1.2910  0.5327 -2.1867
  179SAPS  H18S20487   3.302   5.277   4.739 -0.3487  0.6591 -0.3566
  179SAPS  C21920488   3.360   5.074   4.770  0.2423 -0.7047 -1.0286
  179SAPS  H19R20489   3.359   4.982   4.708 -3.4480 -0.0920 -2.1577
  179SAPS  H19S20490   3.280   5.065   4.847 -0.7065  0.1255 -1.8793
  179SAPS  C22020491   3.497   5.099   4.831  1.1549 -0.5205 -0.1174
  179SAPS  H20R20492   3.492   5.197   4.883  0.9583 -0.8967  0.5902
  179SAPS  H20S20493   3.585   5.097   4.763  1.3699 -2.0055  0.1549
  179SAPS  H20T20494   3.519   5.020   4.906  0.5565 -2.3299 -1.7633
  179SAPS   C3320495   3.097   4.242   3.018  0.0391 -0.0929 -0.3862
  179SAPS   H3X20496   3.056   4.178   3.099  2.5369 -1.3064  0.0045
  179SAPS   H3Y20497   3.092   4.184   2.924 -1.0062  1.3138 -1.2482
  179SAPS   C3420498   2.998   4.359   3.007  0.3221 -0.0178  0.3965
  179SAPS   H4X20499   2.899   4.309   3.008  0.8855 -1.2047  2.3800
  179SAPS   H4Y20500   3.010   4.411   2.910  1.5002  1.4866  1.3005
  179SAPS   C3520501   3.007   4.468   3.124 -0.3410  0.3976 -0.5509
  179SAPS   H5X20502   2.929   4.543   3.097  1.3199  2.6980  0.6313
  179SAPS   H5Y20503   3.103   4.523   3.118  0.1484 -0.1592  1.4787
  179SAPS   C3620504   2.986   4.416   3.269 -0.5214  0.4816 -0.2516
  179SAPS   H6X20505   3.066   4.344   3.295  1.0547  2.4374  0.5527
  179SAPS   H6Y20506   2.887   4.365   3.274 -0.6274  0.6029 -1.0939
  179SAPS   C3720507   3.008   4.520   3.380 -0.1215 -0.3944  0.1031
  179SAPS   H7X20508   3.047   4.484   3.478 -0.4032 -1.5790 -0.2095
  179SAPS   H7Y20509   2.905   4.561   3.389  0.0593 -0.2069  1.5925
  179SAPS   C3820510   3.100   4.639   3.336  0.4048  0.3643  1.0199
  179SAPS   H8X20511   3.044   4.696   3.259  0.8338 -0.1664  0.2955
  179SAPS   H8Y20512   3.194   4.605   3.287  0.7989  1.5889  0.8967
  179SAPS   C3920513   3.126   4.743   3.447  0.1258  0.0807  0.1103
  179SAPS   H9X20514   3.143   4.847   3.411 -0.0996 -0.5800 -2.0231
  179SAPS   H9Y20515   3.220   4.718   3.500  0.7160  2.7489  0.4754
  179SAPS  C31020516   3.010   4.756   3.553 -0.5001 -0.0426 -0.3946
  179SAPS  H10X20517   2.992   4.662   3.610  0.7527 -1.7092 -2.5878
  179SAPS  H10Y20518   2.912   4.780   3.507 -1.5324 -0.0517  1.6656
  179SAPS  C31120519   3.033   4.881   3.649  0.2466  0.0571 -0.0115
  179SAPS  H11X20520   3.048   4.973   3.589  1.1802  0.5345  0.9196
  179SAPS  H11Y20521   3.132   4.860   3.693 -0.3962  2.1635  2.6941
  179SAPS  C31220522   2.932   4.889   3.765  0.2403 -0.4644  0.2320
  179SAPS  H12X20523   2.833   4.857   3.727  0.4426  1.5694 -2.2652
  179SAPS  H12Y20524   2.918   4.998   3.783  0.6384 -0.5904  1.3575
  179SAPS  C31320525   2.973   4.818   3.892  0.2034  0.6833 -0.6490
  179SAPS  H13X20526   3.070   4.858   3.926  0.3761 -0.7696  0.6667
  179SAPS  H13Y20527   2.994   4.711   3.873 -0.3009 -0.0119  2.2641
  179SAPS  C31420528   2.865   4.826   3.999  0.6144  0.1096 -0.6612
  179SAPS  H14X20529   2.774   4.771   3.966 -0.8416  0.8369  1.8774
  179SAPS  H14Y20530   2.834   4.931   4.016  0.3681 -0.3001  1.9153
  179SAPS  C31520531   2.924   4.766   4.137  0.3523 -0.4302 -0.4052
  179SAPS  H15X20532   3.014   4.823   4.168  1.3184 -2.8590  1.6019
  179SAPS  H15Y20533   2.945   4.657   4.126 -0.1227 -0.7621  1.5706
  179SAPS  C31620534   2.833   4.791   4.262 -0.8234 -0.2189  0.5438
  179SAPS  H16X20535   2.845   4.900   4.283  1.3001 -0.5407  1.2168
  179SAPS  H16Y20536   2.881   4.740   4.348  2.9595 -1.6975 -2.1639
  179SAPS  C31720537   2.691   4.744   4.236  0.1000 -0.2236 -0.5366
  179SAPS  H17X20538   2.687   4.649   4.178  1.2039 -0.6420  0.0423
  179SAPS  H17Y20539   2.647   4.808   4.156  0.1541 -1.8438 -1.9247
  179SAPS  C31820540   2.603   4.741   4.363  0.8020 -0.7309  0.1759
  179SAPS  H18X20541   2.568   4.843   4.392  1.7027  0.0564 -1.3931
  179SAPS  H18Y20542   2.677   4.709   4.440  2.7275 -0.6887 -1.5724
  179SAPS  H18Z20543   2.520   4.668   4.369  2.5929 -2.9833 -1.0214
  180SAPS     N20544   3.678   5.706   2.550  0.0889  0.4869  0.2469
  180SAPS   HN120545   3.605   5.711   2.624  0.3799 -1.1739  0.6699
  180SAPS   HN220546   3.707   5.607   2.539 -3.8557 -0.7093 -0.8691
  180SAPS   HN320547   3.755   5.773   2.572  1.3433 -1.4722  2.1742
  180SAPS   C1220548   3.610   5.740   2.418 -0.0348 -0.5931  0.1970
  180SAPS  H12A20549   3.582   5.844   2.408  0.9612 -0.3131  0.1061
  180SAPS   C1320550   3.703   5.700   2.291 -0.2353 -0.2153 -0.5050
  180SAPS  O13A20551   3.829   5.675   2.310  0.1966 -0.2781  0.4166
  180SAPS  O13B20552   3.644   5.707   2.179 -0.0017  0.1913 -0.0800
  180SAPS   C1120553   3.474   5.662   2.427  0.5964 -0.0571 -0.5044
  180SAPS  H11A20554   3.493   5.557   2.395  2.2017 -0.0974  0.4609
  180SAPS  H11B20555   3.410   5.707   2.348 -1.0503 -0.5601  0.4940
  180SAPS     P20556   3.286   5.556   2.571 -0.0362 -0.6552  0.3960
  180SAPS   O1320557   3.182   5.611   2.659  0.4669 -0.9208 -0.0175
  180SAPS   O1420558   3.239   5.508   2.442 -0.3847 -0.6600 -0.4947
  180SAPS   O1220559   3.403   5.673   2.553  0.4061 -0.0301  0.5189
  180SAPS   O1120560   3.364   5.449   2.644 -0.2503  0.9755 -0.4008
  180SAPS    C120561   3.445   5.485   2.763 -1.2684  0.0384 -0.3475
  180SAPS    HA20562   3.532   5.418   2.749 -1.6056 -0.5465  0.2773
  180SAPS    HB20563   3.482   5.590   2.762 -0.4459 -0.2474 -0.0983
  180SAPS    C220564   3.393   5.434   2.900  0.3985  0.4872  0.6124
  180SAPS    HS20565   3.364   5.328   2.883  0.0201  1.0195 -2.9396
  180SAPS   O2120566   3.283   5.517   2.936 -0.0928 -0.1227 -0.4542
  180SAPS   C2120567   3.175   5.455   2.935  0.4887  0.0110  0.3049
  180SAPS   O2220568   3.152   5.345   2.886 -0.5172  0.3804 -0.9267
  180SAPS   C2220569   3.072   5.530   3.004  0.1509 -0.2491  0.0793
  180SAPS   H2R20570   3.129   5.581   3.085  0.0518 -0.7040  0.4350
  180SAPS   H2S20571   3.032   5.596   2.924 -0.8942 -0.4506  0.4102
  180SAPS    C320572   3.497   5.441   3.007 -0.0326  0.5899  0.5435
  180SAPS    HX20573   3.544   5.541   2.994 -1.3067  1.2613  0.9044
  180SAPS    HY20574   3.578   5.366   2.996 -0.9595 -0.4853  0.8278
  180SAPS   O3120575   3.440   5.431   3.140 -0.2487 -0.6326 -0.2022
  180SAPS   C3120576   3.414   5.315   3.198  0.0465 -0.6213  0.2189
  180SAPS   O3220577   3.445   5.204   3.163 -0.4605  1.3901 -0.5987
  180SAPS   C3220578   3.340   5.334   3.331 -0.7940  0.6250  0.1333
  180SAPS   H2X20579   3.233   5.353   3.309 -0.9152  0.1869  0.3352
  180SAPS   H2Y20580   3.375   5.431   3.374 -2.7236  2.0162 -1.2696
  180SAPS   C2320581   2.957   5.443   3.054  0.4726  0.5658 -0.0992
  180SAPS   H3R20582   3.001   5.373   3.128  0.9158 -0.8415 -1.6348
  180SAPS   H3S20583   2.915   5.387   2.968  0.7447  0.0639  0.0948
  180SAPS   C2420584   2.856   5.523   3.133  0.0684  0.1466  0.2150
  180SAPS   H4R20585   2.910   5.575   3.215  1.1183 -0.9438  0.2515
  180SAPS   H4S20586   2.795   5.456   3.198  1.7861  0.6684  2.4878
  180SAPS   C2520587   2.773   5.622   3.054  0.2812  0.1975 -0.7889
  180SAPS   H5R20588   2.714   5.572   2.976 -1.3081 -1.3278  1.2627
  180SAPS   C2620589   2.761   5.760   3.070 -0.4984  0.2199  0.1875
  180SAPS   H6R20590   2.710   5.815   2.990  0.9026  0.8742 -0.2844
  180SAPS   C2720591   2.832   5.844   3.177  0.7610  0.5781  1.3525
  180SAPS   H7R20592   2.896   5.913   3.119  1.0740 -2.0033 -1.6214
  180SAPS   H7S20593   2.915   5.789   3.227  1.8149 -0.5419 -1.4134
  180SAPS   C2820594   2.732   5.910   3.271 -0.2429  0.4643 -0.4334
  180SAPS   H8R20595   2.625   5.912   3.248 -0.6096  1.6849  1.1652
  180SAPS   C2920596   2.768   5.973   3.381 -0.4453  0.2324  0.1163
  180SAPS   H9R20597   2.699   6.039   3.435 -0.6927  0.4243 -0.4352
  180SAPS  C21020598   2.913   5.983   3.428 -0.0587 -0.0590 -0.2207
  180SAPS  H10R20599   2.985   5.941   3.356  1.8336 -0.3239  1.7245
  180SAPS  H10S20600   2.932   5.905   3.505  1.6914 -1.2617 -1.8192
  180SAPS  C21120601   2.968   6.116   3.489 -0.0453  0.7709 -0.4469
  180SAPS  H11R20602   3.050   6.167   3.436 -0.0513  1.3601  0.0936
  180SAPS  C21220603   2.928   6.180   3.604 -0.0077 -0.2560  0.6207
  180SAPS  H12R20604   2.981   6.273   3.630 -0.2800  0.5727 -1.5394
  180SAPS  C21320605   2.823   6.149   3.705  0.4745 -0.0036  0.0729
  180SAPS  H13R20606   2.769   6.057   3.673  0.5568 -0.8384  2.1520
  180SAPS  H13S20607   2.748   6.230   3.702  1.5802  1.0425 -2.0920
  180SAPS  C21420608   2.885   6.126   3.842 -0.2841  0.3560 -0.1835
  180SAPS  H14R20609   2.946   6.035   3.849 -3.7522 -2.3057 -1.6103
  180SAPS  C21520610   2.887   6.212   3.945  0.3022 -0.0016 -0.1236
  180SAPS  H15R20611   2.935   6.182   4.040  0.3941  0.0304 -0.1595
  180SAPS  C21620612   2.812   6.342   3.943 -0.6478  0.2660  0.1757
  180SAPS  H16R20613   2.712   6.333   3.896 -0.6188  0.8322 -0.0033
  180SAPS  H16S20614   2.867   6.413   3.877  0.2544  0.0967  0.7309
  180SAPS  C21720615   2.775   6.388   4.085 -0.2204  0.8926  0.5098
  180SAPS  H17R20616   2.737   6.297   4.136  2.1125 -1.6621 -1.9605
  180SAPS  H17S20617   2.685   6.454   4.092 -2.3319 -1.7808  0.4986
  180SAPS  C21820618   2.884   6.468   4.159  0.2749 -0.3855  0.1369
  180SAPS  H18R20619   2.936   6.538   4.091 -0.8516 -0.5335 -0.9110
  180SAPS  H18S20620   2.969   6.405   4.193  2.3855  1.1187 -2.0184
  180SAPS  C21920621   2.829   6.549   4.279  0.1389  0.3812  0.3114
  180SAPS  H19R20622   2.789   6.483   4.359  0.3919  1.6898  1.5607
  180SAPS  H19S20623   2.733   6.601   4.257  0.8854  1.6230 -0.0650
  180SAPS  C22020624   2.937   6.637   4.331  0.0007 -0.2881 -0.5952
  180SAPS  H20R20625   2.914   6.674   4.433  0.6446  1.5146 -1.0556
  180SAPS  H20S20626   3.029   6.578   4.348 -0.3107 -0.4512  0.5869
  180SAPS  H20T20627   2.963   6.713   4.254  1.6328 -1.3285 -1.1305
  180SAPS   C3320628   3.350   5.207   3.425 -0.4896 -0.4073  0.7403
  180SAPS   H3X20629   3.449   5.156   3.423  0.4416  1.3196  0.8216
  180SAPS   H3Y20630   3.267   5.141   3.390 -1.0357  1.3627 -1.5710
  180SAPS   C3420631   3.304   5.236   3.569  0.0562  0.1352 -0.4048
  180SAPS   H4X20632   3.342   5.333   3.607 -1.7952  0.5632  0.4852
  180SAPS   H4Y20633   3.320   5.153   3.642 -0.6146  0.6396  0.3372
  180SAPS   C3520634   3.150   5.264   3.572 -0.1884 -0.2824 -0.1147
  180SAPS   H5X20635   3.104   5.179   3.517  1.9212 -0.6056 -1.4503
  180SAPS   H5Y20636   3.130   5.357   3.515 -0.7056  0.5642  1.3857
  180SAPS   C3620637   3.081   5.279   3.712 -1.1267 -0.3146  0.8326
  180SAPS   H6X20638   3.131   5.364   3.762  0.1552 -1.8729  2.3262
  180SAPS   H6Y20639   3.116   5.195   3.776 -0.2396  0.2097  1.0450
  180SAPS   C3720640   2.927   5.293   3.713 -0.2328 -0.2857 -0.1022
  180SAPS   H7X20641   2.883   5.196   3.680  0.9621 -1.1537  0.7760
  180SAPS   H7Y20642   2.890   5.367   3.639 -4.0855 -2.5642 -0.7508
  180SAPS   C3820643   2.870   5.331   3.849 -0.1542 -0.6414  0.0879
  180SAPS   H8X20644   2.767   5.371   3.839  0.9500  2.9464  1.5625
  180SAPS   H8Y20645   2.936   5.414   3.883 -2.7502  1.1151  1.1774
  180SAPS   C3920646   2.868   5.217   3.954 -0.2938 -0.5073  0.0814
  180SAPS   H9X20647   2.970   5.175   3.966 -0.3716 -0.2873  1.9165
  180SAPS   H9Y20648   2.797   5.142   3.913  0.1146 -1.2336  0.6794
  180SAPS  C31020649   2.830   5.275   4.086  0.6775 -0.1844 -0.3826
  180SAPS  H10X20650   2.723   5.306   4.076  0.2913 -1.3741 -0.0814
  180SAPS  H10Y20651   2.904   5.354   4.113  1.5157 -1.6303  1.8296
  180SAPS  C31120652   2.831   5.172   4.200  0.1334  0.6641  0.3691
  180SAPS  H11X20653   2.934   5.135   4.182 -1.0443 -1.5235 -2.8943
  180SAPS  H11Y20654   2.775   5.078   4.179  3.8313 -1.5132 -0.6125
  180SAPS  C31220655   2.807   5.227   4.345 -0.7789 -0.2326 -0.0286
  180SAPS  H12X20656   2.815   5.338   4.346  1.8046 -0.3575 -0.4887
  180SAPS  H12Y20657   2.888   5.194   4.412 -0.2994  2.2816  0.7041
  180SAPS  C31320658   2.670   5.191   4.402  0.1144 -0.3116 -0.4174
  180SAPS  H13X20659   2.665   5.083   4.425 -1.9950 -0.6349 -2.0555
  180SAPS  H13Y20660   2.589   5.215   4.329  0.0178 -1.4627 -0.7078
  180SAPS  C31420661   2.631   5.260   4.534 -0.4065  0.6813 -0.2919
  180SAPS  H14X20662   2.538   5.217   4.575 -1.2190  3.0055  0.4993
  180SAPS  H14Y20663   2.609   5.366   4.506 -0.0909  0.2092 -2.4569
  180SAPS  C31520664   2.739   5.249   4.650  0.2209  0.2581  0.0969
  180SAPS  H15X20665   2.843   5.262   4.611  0.0794  0.8850 -0.0839
  180SAPS  H15Y20666   2.734   5.147   4.692 -1.6933  0.3085  0.0709
  180SAPS  C31620667   2.717   5.347   4.761 -0.4490  0.7748  0.4526
  180SAPS  H16X20668   2.727   5.448   4.716  1.3187  0.5780  0.3217
  180SAPS  H16Y20669   2.788   5.351   4.847 -1.5403  1.0104  1.3627
  180SAPS  C31720670   2.578   5.340   4.815  1.2678 -0.1473 -0.6276
  180SAPS  H17X20671   2.544   5.238   4.842 -0.5606  0.7806  0.7826
  180SAPS  H17Y20672   2.510   5.384   4.739 -0.2473  2.4474  2.0255
  180SAPS  C31820673   2.551   5.429   4.939 -0.5459 -0.3316  0.0455
  180SAPS  H18X20674   2.574   5.535   4.913  0.0905 -0.6936 -0.9352
  180SAPS  H18Y20675   2.611   5.410   5.031 -0.5566  0.4741  0.2278
  180SAPS  H18Z20676   2.446   5.418   4.973 -0.2470 -2.9857  0.3136
  181POPC     N20677   2.314   0.714   6.400  0.4882 -0.0720 -0.2229
  181POPC   C1220678   2.280   0.631   6.277 -0.6979 -0.1386 -0.0570
  181POPC  H12A20679   2.181   0.590   6.292 -0.8295  0.8179  1.8828
  181POPC  H12B20680   2.348   0.547   6.271  1.0869  1.2814 -0.4691
  181POPC   C1320681   2.445   0.775   6.385  0.2415 -0.1402  0.6586
  181POPC  H13A20682   2.518   0.697   6.366  3.1554  2.7398 -1.0252
  181POPC  H13B20683   2.446   0.842   6.300 -1.4366  0.1883  0.8576
  181POPC  H13C20684   2.485   0.823   6.473  0.5779  0.3502  0.2440
  181POPC   C1420685   2.215   0.826   6.429  0.9183  0.7718  0.0113
  181POPC  H14A20686   2.238   0.885   6.516 -3.1947  2.1734  0.3486
  181POPC  H14B20687   2.212   0.880   6.335 -0.3700 -0.5697 -0.7633
  181POPC  H14C20688   2.116   0.788   6.449  0.4514  2.0346  0.2182
  181POPC   C1520689   2.309   0.625   6.516  0.3466  0.2802 -0.5063
  181POPC  H15A20690   2.369   0.535   6.515 -0.1306 -0.0391 -0.5938
  181POPC  H15B20691   2.204   0.601   6.520  0.1021  1.2157 -1.0696
  181POPC  H15C20692   2.347   0.675   6.604 -0.0317 -0.3515  0.0285
  181POPC   C1120693   2.271   0.693   6.135  0.2939 -0.6951  0.5609
  181POPC  H11A20694   2.249   0.614   6.060 -2.1590  1.7648 -1.5305
  181POPC  H11B20695   2.372   0.741   6.128  0.6578 -1.2391  1.8317
  181POPC     P20696   2.019   0.749   6.073 -0.0351 -0.3735 -0.3530
  181POPC   O1320697   1.923   0.823   6.153  0.6639  0.3126 -0.2564
  181POPC   O1420698   2.008   0.600   6.081 -0.5855 -0.7022  0.1594
  181POPC   O1220699   2.164   0.790   6.121 -0.2973 -0.2470  0.7117
  181POPC   O1120700   2.022   0.797   5.919  0.5570  0.0484  0.1660
  181POPC    C120701   2.069   0.923   5.874 -0.6001 -0.1100  1.0851
  181POPC    HA20702   2.092   0.912   5.766 -2.4437  0.4939  0.5908
  181POPC    HB20703   2.162   0.959   5.923  1.0456 -0.5237 -1.5169
  181POPC    C220704   1.953   1.027   5.890 -0.2801 -0.1788 -0.2823
  181POPC    HS20705   1.915   1.029   5.994 -0.1006  0.5235 -0.2237
  181POPC   O2120706   1.841   0.995   5.804 -0.1625 -0.3655 -0.0122
  181POPC   C2120707   1.729   1.061   5.823  0.3640 -0.5986 -0.5020
  181POPC   O2220708   1.707   1.149   5.904  0.3639 -0.2814 -0.3901
  181POPC   C2220709   1.643   1.020   5.708 -0.3927  0.2484  0.3204
  181POPC   H2R20710   1.666   0.913   5.690  1.1751  0.3657  1.4706
  181POPC   H2S20711   1.679   1.079   5.620 -1.1116  1.5015  0.8409
  181POPC    C320712   2.011   1.172   5.852  0.4061 -0.0185  0.6319
  181POPC    HX20713   2.063   1.228   5.933  0.0188 -1.6134  2.0405
  181POPC    HY20714   1.928   1.244   5.835 -0.0225 -0.6694 -0.0762
  181POPC   O3120715   2.096   1.157   5.736  0.2283 -0.6698 -0.4847
  181POPC   C3120716   2.027   1.156   5.618  0.1423  0.1911 -0.2508
  181POPC   O3220717   1.911   1.179   5.607  0.0419 -0.4238 -0.3896
  181POPC   C3220718   2.131   1.135   5.504 -0.0833 -0.3797  0.7648
  181POPC   H2X20719   2.217   1.081   5.550 -0.0819  1.1473  2.7234
  181POPC   H2Y20720   2.168   1.236   5.474 -0.0133 -1.0483 -1.6000
  181POPC   C2320721   1.493   1.047   5.715 -0.1021  0.0803  0.8210
  181POPC   H3R20722   1.474   1.156   5.726 -0.2172 -0.0533  2.0471
  181POPC   H3S20723   1.452   0.993   5.802 -0.6422 -1.2435 -0.2196
  181POPC   C2420724   1.413   0.992   5.590 -0.1002  0.6575 -0.0497
  181POPC   H4R20725   1.445   0.888   5.572 -4.9686 -1.0261 -0.5006
  181POPC   H4S20726   1.433   1.054   5.500 -4.1346  1.4509 -0.6060
  181POPC   C2520727   1.261   0.997   5.614 -0.0094  0.0715 -0.5136
  181POPC   H5R20728   1.241   1.105   5.631 -2.0248  0.0404 -2.2352
  181POPC   H5S20729   1.223   0.926   5.690 -0.7816  0.4938 -0.4919
  181POPC   C2620730   1.175   0.966   5.498 -0.5097 -0.0080  0.5907
  181POPC   H6R20731   1.069   0.970   5.533 -0.9904 -2.4517 -0.3965
  181POPC   H6S20732   1.177   0.862   5.460  1.1950  0.6034 -1.1210
  181POPC   C2720733   1.208   1.051   5.375  0.2996  0.2878  0.5723
  181POPC   H7R20734   1.304   1.022   5.326  0.0937 -1.1998  0.9932
  181POPC   H7S20735   1.212   1.156   5.410  1.6415  0.9681 -1.4433
  181POPC   C2820736   1.097   1.044   5.265 -0.2460 -0.4996  0.9899
  181POPC   H8R20737   1.122   1.129   5.198  0.5507 -0.1115  1.7481
  181POPC   H8S20738   1.009   1.087   5.317  0.6313  0.6169  1.6006
  181POPC   C2920739   1.095   0.917   5.196  0.6552 -0.0654  0.4151
  181POPC   H9120740   1.088   0.825   5.256 -0.5318 -0.6343 -0.5521
  181POPC  C21020741   1.106   0.892   5.060 -0.1670  0.5029  0.3667
  181POPC  H10120742   1.105   0.788   5.025  2.1341  0.4846  0.1954
  181POPC  C21120743   1.117   0.992   4.946  0.4511  0.0583  0.2414
  181POPC  H11R20744   1.222   1.003   4.910  0.6480 -0.2604  0.7120
  181POPC  H11S20745   1.093   1.092   4.987  3.3389  0.7904  0.3375
  181POPC  C21220746   1.024   0.967   4.817 -0.2485  0.1731 -0.7734
  181POPC  H12R20747   0.922   0.941   4.850 -0.5890 -0.9527 -2.6073
  181POPC  H12S20748   1.067   0.879   4.766  1.8217  0.6705 -0.0123
  181POPC  C21320749   1.015   1.084   4.716  0.0399 -0.8671 -0.0510
  181POPC  H13R20750   1.117   1.121   4.691 -0.2319 -0.7891 -1.0650
  181POPC  H13S20751   0.963   1.171   4.763  1.0500 -1.4478  2.3174
  181POPC  C21420752   0.952   1.040   4.585  0.5506 -0.3168 -0.2366
  181POPC  H14R20753   0.857   0.986   4.606 -0.1015  0.2765 -1.5320
  181POPC  H14S20754   1.010   0.960   4.534 -1.6258 -1.2217 -1.4323
  181POPC  C21520755   0.954   1.157   4.483  0.2842  0.2791  0.0863
  181POPC  H15R20756   0.890   1.125   4.398  1.4276 -1.8689 -0.0300
  181POPC  H15S20757   1.051   1.184   4.436 -0.4137  3.1808  0.1402
  181POPC  C21620758   0.885   1.281   4.537 -0.1481 -0.1925  0.0796
  181POPC  H16R20759   0.885   1.339   4.443 -0.5557 -1.5453 -0.7846
  181POPC  H16S20760   0.950   1.331   4.611  1.5161 -0.5880 -1.0515
  181POPC  C21720761   0.742   1.257   4.570 -0.0199  0.1311 -0.3062
  181POPC  H17R20762   0.736   1.177   4.647 -0.3590  0.5043  0.0660
  181POPC  H17S20763   0.691   1.215   4.481  1.9533 -1.1330 -0.9076
  181POPC  C21820764   0.670   1.377   4.606  0.2203  0.2443  0.5905
  181POPC  H18R20765   0.711   1.429   4.695  0.3127 -0.9021  1.2246
  181POPC  H18S20766   0.562   1.354   4.618  0.1143  0.6608  0.4489
  181POPC  H18T20767   0.678   1.457   4.529  1.5596 -1.3438 -1.0009
  181POPC   C3320768   2.089   1.065   5.372 -0.4210 -0.0636  1.0151
  181POPC   H3X20769   2.178   1.077   5.306  0.9008  0.7003  2.8519
  181POPC   H3Y20770   2.002   1.120   5.329 -1.0444 -0.6520  1.5031
  181POPC   C3420771   2.044   0.915   5.376 -0.1350  0.4300 -0.3566
  181POPC   H4X20772   1.945   0.899   5.424  0.3633  0.7805  0.8095
  181POPC   H4Y20773   2.125   0.854   5.422  1.0150  1.3691 -1.0832
  181POPC   C3520774   2.035   0.862   5.230  0.6784  0.4324 -0.1105
  181POPC   H5X20775   2.138   0.855   5.190 -0.2047  1.2952 -2.7657
  181POPC   H5Y20776   1.973   0.920   5.158 -0.2441 -2.1047 -1.5098
  181POPC   C3620777   1.964   0.722   5.222 -0.3983 -0.0445 -0.3566
  181POPC   H6X20778   1.859   0.732   5.258 -1.1378  0.7920 -2.5514
  181POPC   H6Y20779   2.021   0.654   5.288  1.0456 -1.1934 -2.6723
  181POPC   C3720780   1.952   0.671   5.076  0.7755  0.2583 -0.3774
  181POPC   H7X20781   2.051   0.626   5.052  2.2990  3.0253  0.2535
  181POPC   H7Y20782   1.921   0.754   5.009  0.3190  0.9960  0.7105
  181POPC   C3820783   1.853   0.552   5.075  1.0833  0.8299 -0.4003
  181POPC   H8X20784   1.757   0.576   5.125  0.7308  1.7348 -1.4636
  181POPC   H8Y20785   1.909   0.469   5.124  2.3417  0.6165 -2.1080
  181POPC   C3920786   1.823   0.508   4.936 -0.2258  0.4650 -0.4823
  181POPC   H9X20787   1.915   0.514   4.873  0.1648 -0.3555 -0.0034
  181POPC   H9Y20788   1.761   0.585   4.886  1.5792  1.0404 -1.9768
  181POPC  C31020789   1.761   0.369   4.924 -0.5799  0.6655 -0.1204
  181POPC  H10X20790   1.670   0.354   4.985 -0.9139 -0.1702 -0.8057
  181POPC  H10Y20791   1.839   0.296   4.953 -0.3758 -1.6278 -5.3512
  181POPC  C31120792   1.707   0.342   4.776 -0.3704 -0.1386  0.0341
  181POPC  H11X20793   1.665   0.437   4.736  1.2522  1.0594  1.0582
  181POPC  H11Y20794   1.628   0.264   4.780 -0.3018 -0.2824 -1.0679
  181POPC  C31220795   1.812   0.302   4.665 -0.0877  0.2355 -0.7914
  181POPC  H12X20796   1.859   0.213   4.714 -2.5563 -0.0031  1.3118
  181POPC  H12Y20797   1.890   0.381   4.659  2.0340 -1.6723 -0.1863
  181POPC  C31320798   1.748   0.269   4.530 -0.6091 -0.6521  0.3638
  181POPC  H13X20799   1.708   0.361   4.483 -1.2913 -1.2693 -0.2882
  181POPC  H13Y20800   1.663   0.204   4.559 -0.4413 -1.7915 -1.5273
  181POPC  C31420801   1.850   0.216   4.440  0.3242 -0.2742 -1.1108
  181POPC  H14X20802   1.808   0.203   4.338  0.3750  1.3418 -1.3703
  181POPC  H14Y20803   1.884   0.113   4.464 -1.0595 -0.6667 -0.7511
  181POPC  C31520804   1.975   0.309   4.414  0.1829 -0.5268 -0.4553
  181POPC  H15X20805   2.046   0.318   4.499  1.2071  0.1968 -1.3539
  181POPC  H15Y20806   1.932   0.409   4.391  0.2697 -0.5644 -0.7875
  181POPC  C31620807   2.042   0.246   4.299  0.8763  0.1245  0.0229
  181POPC  H16X20808   2.073   0.142   4.326 -3.0071 -1.5418 -1.1791
  181POPC  H16Y20809   2.137   0.295   4.266  1.5129 -2.6494 -2.7869
  181POPC  H16Z20810   1.977   0.237   4.210 -0.9322 -1.5752  1.4343
  182POPC     N20811   6.355   6.492   7.538 -0.6519 -0.2889 -0.1305
  182POPC   C1220812   6.228   6.428   7.479  0.4567  0.3770 -0.5824
  182POPC  H12A20813   6.147   6.427   7.550  0.8366 -3.6874  0.0234
  182POPC  H12B20814   6.239   6.322   7.463 -0.8686  0.4484 -2.3279
  182POPC   C1320815   6.320   6.629   7.584 -0.2980  0.2298 -0.1087
  182POPC  H13A20816   6.244   6.625   7.660  0.9000  1.2074  1.1836
  182POPC  H13B20817   6.405   6.683   7.624  0.4031 -0.8387 -0.0875
  182POPC  H13C20818   6.275   6.683   7.502 -1.2966 -2.7437 -1.7087
  182POPC   C1420819   6.403   6.414   7.661 -0.0904 -0.2811  0.0265
  182POPC  H14A20820   6.321   6.397   7.729  0.3770 -1.0978  0.4010
  182POPC  H14B20821   6.442   6.316   7.641  0.9536 -0.5947  3.0489
  182POPC  H14C20822   6.481   6.470   7.711 -1.2715  1.2004  0.3032
  182POPC   C1520823   6.461   6.495   7.431 -0.3196 -0.0071 -0.6490
  182POPC  H15A20824   6.494   6.396   7.403 -1.4603  0.2077 -2.9915
  182POPC  H15B20825   6.549   6.541   7.474  1.1961 -1.4225 -2.1248
  182POPC  H15C20826   6.432   6.529   7.333 -0.2617 -2.3716 -1.5497
  182POPC   C1120827   6.172   6.488   7.350  0.4270 -0.0886  0.6182
  182POPC  H11A20828   6.143   6.595   7.360 -1.4558 -0.5286  0.2210
  182POPC  H11B20829   6.077   6.436   7.326 -1.2333  2.5841  1.0086
  182POPC     P20830   6.299   6.351   7.164  0.0139 -0.1371 -0.1506
  182POPC   O1320831   6.330   6.243   7.260 -0.4980  0.3226 -0.1154
  182POPC   O1420832   6.399   6.377   7.061  0.1062 -0.2753  0.5490
  182POPC   O1220833   6.265   6.485   7.245 -0.8748 -0.1900 -0.5828
  182POPC   O1120834   6.168   6.324   7.087  0.2025  0.3479 -0.0882
  182POPC    C120835   6.075   6.426   7.042  0.3747  0.5391  0.5089
  182POPC    HA20836   6.123   6.523   7.020 -0.8513  0.6181 -2.2596
  182POPC    HB20837   5.984   6.424   7.106 -0.3696  0.8228 -0.5195
  182POPC    C220838   6.026   6.395   6.903  0.0841 -0.1608  0.8809
  182POPC    HS20839   5.948   6.469   6.875  2.1928  2.5480  1.6924
  182POPC   O2120840   5.975   6.259   6.893  0.1265  0.0566 -0.6273
  182POPC   C2120841   5.846   6.245   6.933  0.2981  0.4571  0.5581
  182POPC   O2220842   5.771   6.327   6.986 -0.0425 -0.2481  0.4938
  182POPC   C2220843   5.809   6.092   6.918  0.1337  0.1322  0.0251
  182POPC   H2R20844   5.703   6.073   6.948  0.1947  0.9869  0.8347
  182POPC   H2S20845   5.870   6.022   6.979 -0.3809  0.5967  1.1089
  182POPC    C320846   6.142   6.408   6.800 -1.3656 -0.0454  0.8583
  182POPC    HX20847   6.216   6.330   6.825 -0.2283  0.7824  0.1917
  182POPC    HY20848   6.188   6.509   6.804  1.1358 -0.8990 -2.3490
  182POPC   O3120849   6.090   6.401   6.667  0.6737 -0.4455 -0.5875
  182POPC   C3120850   6.104   6.287   6.598 -0.1282 -0.6544 -0.1319
  182POPC   O3220851   6.168   6.192   6.633  0.1353 -0.1018  0.3738
  182POPC   C3220852   6.053   6.302   6.459  0.1025 -0.0001  0.0198
  182POPC   H2X20853   6.119   6.367   6.398  0.0768 -0.6894 -0.7667
  182POPC   H2Y20854   5.958   6.356   6.480 -0.0582 -0.2511 -0.0496
  182POPC   C2320855   5.839   6.034   6.779 -0.1115  0.1425  0.5342
  182POPC   H3R20856   5.814   5.925   6.785 -1.0077  0.3641  1.0941
  182POPC   H3S20857   5.939   6.059   6.738  0.0568  1.1705  1.5211
  182POPC   C2420858   5.746   6.099   6.666  0.2841  0.5082 -0.0151
  182POPC   H4R20859   5.776   6.061   6.567 -0.0618  1.1736 -0.3838
  182POPC   H4S20860   5.769   6.208   6.667  0.0900  0.5476  0.3264
  182POPC   C2520861   5.604   6.044   6.683 -0.2697  0.9942  0.8013
  182POPC   H5R20862   5.562   6.086   6.777  1.5107  1.2934  1.5023
  182POPC   H5S20863   5.608   5.933   6.679  0.9910  1.0283  0.7072
  182POPC   C2620864   5.505   6.080   6.566  0.3648  0.1721  0.8110
  182POPC   H6R20865   5.408   6.029   6.588  0.2856  0.1047  0.3081
  182POPC   H6S20866   5.546   6.039   6.471 -0.8782  1.6151 -0.4055
  182POPC   C2720867   5.471   6.227   6.559  0.6127  0.6347  0.2732
  182POPC   H7R20868   5.563   6.289   6.568  2.3488 -1.6105 -0.9711
  182POPC   H7S20869   5.415   6.251   6.652  0.4041  0.3389  0.2263
  182POPC   C2820870   5.392   6.268   6.435  0.3930  0.0662 -1.0205
  182POPC   H8R20871   5.347   6.367   6.455 -1.1190 -1.2276  3.0888
  182POPC   H8S20872   5.307   6.198   6.418  1.2139 -0.7336 -1.9879
  182POPC   C2920873   5.481   6.272   6.314  0.0367  0.2575  0.3432
  182POPC   H9120874   5.580   6.226   6.326 -0.0743 -0.3426 -0.9197
  182POPC  C21020875   5.438   6.312   6.193  0.4619  0.3637  0.2913
  182POPC  H10120876   5.517   6.321   6.117 -0.5137  3.4796 -0.4980
  182POPC  C21120877   5.299   6.364   6.166  0.2697 -0.5389  0.5432
  182POPC  H11R20878   5.250   6.409   6.255 -1.1018  2.2653 -1.4380
  182POPC  H11S20879   5.232   6.282   6.133 -0.6007 -0.0963  1.1624
  182POPC  C21220880   5.281   6.471   6.055  0.6294  0.4494 -0.1974
  182POPC  H12R20881   5.332   6.565   6.085  1.9382  0.0876 -1.1729
  182POPC  H12S20882   5.172   6.486   6.044  0.7259  0.7220 -0.8385
  182POPC  C21320883   5.332   6.422   5.921 -0.2396  0.5866  0.6304
  182POPC  H13R20884   5.289   6.322   5.901 -0.3043  0.6090  0.6566
  182POPC  H13S20885   5.441   6.412   5.936 -0.6087 -0.6966  2.8096
  182POPC  C21420886   5.307   6.513   5.805  0.9892  0.0059  0.7942
  182POPC  H14R20887   5.331   6.611   5.851 -0.9435  0.6166  0.5836
  182POPC  H14S20888   5.197   6.516   5.791  0.5009  1.1572  3.9977
  182POPC  C21520889   5.370   6.475   5.670  0.1679  0.4701  0.4665
  182POPC  H15R20890   5.343   6.369   5.646 -1.0769  0.1521  2.9389
  182POPC  H15S20891   5.479   6.485   5.686 -0.3539  2.1060  3.9273
  182POPC  C21620892   5.315   6.551   5.544 -0.9032 -0.0395 -0.1046
  182POPC  H16R20893   5.386   6.536   5.460 -1.0594 -1.1696 -0.0493
  182POPC  H16S20894   5.299   6.659   5.566 -2.3312 -0.3465  0.5318
  182POPC  C21720895   5.182   6.494   5.495  0.7776  0.4876 -0.3112
  182POPC  H17R20896   5.111   6.518   5.577  1.8675  0.9353  0.5326
  182POPC  H17S20897   5.202   6.385   5.501 -0.2231  0.2173 -1.4753
  182POPC  C21820898   5.123   6.527   5.356 -0.5799  0.0962  0.0726
  182POPC  H18R20899   5.070   6.625   5.359  0.7635  0.8561 -0.2517
  182POPC  H18S20900   5.047   6.454   5.321 -1.5961  2.0015 -1.9717
  182POPC  H18T20901   5.204   6.525   5.280  0.2430  1.1115  0.8812
  182POPC   C3320902   6.021   6.173   6.383  0.1047  0.0765  0.1380
  182POPC   H3X20903   5.952   6.110   6.443  1.5915 -3.7529 -1.8366
  182POPC   H3Y20904   6.111   6.108   6.373  1.0131  0.9798  1.8846
  182POPC   C3420905   5.974   6.195   6.237  0.2989  0.0386 -0.5314
  182POPC   H4X20906   5.901   6.112   6.224  0.6834 -1.1609  3.6359
  182POPC   H4Y20907   6.049   6.200   6.155 -0.1231  1.2542 -0.8710
  182POPC   C3520908   5.893   6.328   6.229 -0.4319 -0.6561  0.7551
  182POPC   H5X20909   5.960   6.415   6.246  0.9822 -1.4894 -0.3030
  182POPC   H5Y20910   5.832   6.317   6.321  2.4914 -0.8522  2.8292
  182POPC   C3620911   5.814   6.338   6.096  0.4916 -0.2859  0.1047
  182POPC   H6X20912   5.751   6.429   6.088 -0.3505 -0.8439  0.2615
  182POPC   H6Y20913   5.737   6.259   6.091 -1.6815  1.6012  1.5516
  182POPC   C3720914   5.898   6.344   5.971  0.1114 -0.1194  0.1175
  182POPC   H7X20915   5.940   6.241   5.959  0.9725 -0.0916  2.4933
  182POPC   H7Y20916   5.980   6.418   5.979  0.3519 -0.1655 -1.5427
  182POPC   C3820917   5.811   6.367   5.848 -0.1463  0.3659 -0.3116
  182POPC   H8X20918   5.753   6.459   5.871  0.1137  0.5630 -0.4420
  182POPC   H8Y20919   5.740   6.282   5.832 -0.0462  0.0891  0.6407
  182POPC   C3920920   5.890   6.393   5.721  0.2704  0.1573  0.3782
  182POPC   H9X20921   5.955   6.308   5.692  1.2579  0.0790  2.5818
  182POPC   H9Y20922   5.952   6.486   5.728  1.6579 -0.2283 -3.8288
  182POPC  C31020923   5.806   6.429   5.592  0.4269 -0.2233 -0.4090
  182POPC  H10X20924   5.874   6.455   5.508  2.3293 -0.6499  0.9422
  182POPC  H10Y20925   5.746   6.517   5.622  1.3771 -0.1487  1.4119
  182POPC  C31120926   5.703   6.325   5.537  0.3850 -0.3407 -0.0491
  182POPC  H11X20927   5.627   6.305   5.616 -1.5713 -0.5065 -1.8907
  182POPC  H11Y20928   5.750   6.227   5.513  2.1534  0.6653 -0.8849
  182POPC  C31220929   5.647   6.378   5.404 -0.2322  0.2350  0.2753
  182POPC  H12X20930   5.727   6.367   5.328 -3.1846 -0.7082 -2.9588
  182POPC  H12Y20931   5.623   6.487   5.402  0.8680  0.4791 -0.5704
  182POPC  C31320932   5.524   6.296   5.352 -0.3612 -0.0532 -0.6508
  182POPC  H13X20933   5.436   6.349   5.392  1.1673  2.9826 -1.0379
  182POPC  H13Y20934   5.528   6.193   5.395 -0.6323  0.4762  0.6948
  182POPC  C31420935   5.521   6.293   5.199  0.9385  0.3055  0.1327
  182POPC  H14X20936   5.619   6.252   5.166  0.2135  0.6523 -2.7608
  182POPC  H14Y20937   5.508   6.393   5.152  0.0430  0.4014  0.5708
  182POPC  C31520938   5.407   6.210   5.150 -0.4935  0.0959 -0.2537
  182POPC  H15X20939   5.312   6.263   5.170  0.4090  2.0736 -0.8739
  182POPC  H15Y20940   5.408   6.115   5.208 -0.2605 -0.1095 -0.5895
  182POPC  C31620941   5.412   6.161   5.003 -0.7966 -0.0958 -0.5791
  182POPC  H16X20942   5.353   6.068   4.991 -1.5483 -0.0199  1.9708
  182POPC  H16Y20943   5.516   6.150   4.965 -1.7299 -1.5778 -2.9591
  182POPC  H16Z20944   5.359   6.232   4.935 -1.4191 -0.7732 -0.8139
  183POPC     N20945   6.657   4.023   6.484  0.2994  0.4754  0.3430
  183POPC   C1220946   6.624   4.172   6.499  0.0649 -0.6468  0.7056
  183POPC  H12A20947   6.528   4.176   6.547 -0.7133 -2.1202 -0.6205
  183POPC  H12B20948   6.621   4.217   6.400 -1.1286  1.3263  1.5791
  183POPC   C1320949   6.526   3.962   6.434  0.1528  0.4170  0.2443
  183POPC  H13A20950   6.443   3.994   6.495 -0.0594  1.0464 -0.3549
  183POPC  H13B20951   6.501   3.989   6.333  0.6908 -0.0161 -0.0073
  183POPC  H13C20952   6.544   3.856   6.432  0.7246  0.4875 -2.7232
  183POPC   C1420953   6.771   4.001   6.390  0.7419  0.3712 -0.1517
  183POPC  H14A20954   6.791   3.896   6.381 -1.4772 -0.1514  0.2687
  183POPC  H14B20955   6.744   4.045   6.295  1.5196 -1.3389 -1.2216
  183POPC  H14C20956   6.860   4.052   6.423 -1.4102  2.1421  3.6299
  183POPC   C1520957   6.680   3.960   6.618 -0.2934 -0.7430 -0.0530
  183POPC  H15A20958   6.706   3.855   6.617  0.8623 -0.4860 -1.3951
  183POPC  H15B20959   6.587   3.971   6.672 -1.6055 -1.5442 -2.0426
  183POPC  H15C20960   6.764   4.005   6.669 -1.0554 -2.1691  2.6426
  183POPC   C1120961   6.723   4.252   6.591 -0.2098 -0.9349  0.3272
  183POPC  H11A20962   6.692   4.235   6.696  2.1218  0.6599  1.3773
  183POPC  H11B20963   6.700   4.358   6.573 -0.3377 -0.8114  1.1507
  183POPC     P20964   6.967   4.248   6.656 -0.3051 -0.3200 -0.0367
  183POPC   O1320965   7.022   4.116   6.701 -0.3604 -0.4098  0.7966
  183POPC   O1420966   6.919   4.333   6.765 -0.3425 -0.0910  0.3213
  183POPC   O1220967   6.856   4.224   6.552  0.2655  0.2352 -0.0889
  183POPC   O1120968   7.089   4.319   6.580  0.0402  0.3715 -0.5989
  183POPC    C120969   7.043   4.429   6.495 -0.2717  0.0156  0.0732
  183POPC    HA20970   7.120   4.509   6.495 -1.1685  0.8965  0.2851
  183POPC    HB20971   6.950   4.476   6.532 -0.3508 -0.8588  1.0277
  183POPC    C220972   7.034   4.381   6.344  0.6405 -0.8823  0.1177
  183POPC    HS20973   6.950   4.309   6.333  1.5895 -2.1233  0.6262
  183POPC   O2120974   7.163   4.332   6.306  0.0403  0.3996 -0.0408
  183POPC   C2120975   7.147   4.227   6.227 -0.0524  0.9128  0.4640
  183POPC   O2220976   7.044   4.179   6.182  0.1661  0.0722  0.5937
  183POPC   C2220977   7.285   4.163   6.218 -0.1264  0.4590  0.1072
  183POPC   H2R20978   7.315   4.133   6.321  1.7092  0.3487 -0.4232
  183POPC   H2S20979   7.346   4.240   6.167  0.6024  0.0686  0.3743
  183POPC    C320980   6.996   4.501   6.248  0.5983  0.4057  0.2128
  183POPC    HX20981   7.077   4.576   6.264  1.0517  0.0295 -0.2483
  183POPC    HY20982   6.904   4.553   6.283 -0.0789  0.6576 -1.7947
  183POPC   O3120983   6.985   4.468   6.107 -0.0647 -0.5007 -0.1193
  183POPC   C3120984   6.871   4.405   6.066  0.4292  0.2956 -0.1965
  183POPC   O3220985   6.771   4.397   6.134 -0.0568 -0.0680  0.1233
  183POPC   C3220986   6.899   4.346   5.928 -0.0752  0.2729  0.2532
  183POPC   H2X20987   6.967   4.260   5.949 -0.7702 -0.5320 -0.6799
  183POPC   H2Y20988   6.955   4.419   5.865 -0.0303 -0.2924 -0.3741
  183POPC   C2320989   7.281   4.041   6.118  0.3845  0.3572 -0.3005
  183POPC   H3R20990   7.271   4.087   6.017 -0.2880 -3.2521 -2.0817
  183POPC   H3S20991   7.198   3.972   6.144  1.4189 -0.4317  1.0161
  183POPC   C2420992   7.403   3.953   6.120 -0.2777  0.0051 -0.2049
  183POPC   H4R20993   7.398   3.873   6.196  1.6652  0.6959  0.7153
  183POPC   H4S20994   7.493   4.018   6.129 -2.3052  2.7710  1.7053
  183POPC   C2520995   7.423   3.882   5.980 -0.4902 -0.4388 -0.2932
  183POPC   H5R20996   7.449   3.963   5.908  1.7926  0.9545  1.9322
  183POPC   H5S20997   7.323   3.838   5.958 -0.8091 -0.9626  1.9525
  183POPC   C2620998   7.541   3.783   5.977  0.0608  0.6972  0.0880
  183POPC   H6R20999   7.515   3.706   6.052 -0.3458 -0.2485 -0.9946
  183POPC   H6S21000   7.631   3.840   6.009 -0.0546  1.2266 -0.5007
  183POPC   C2721001   7.556   3.727   5.836 -0.7005  0.3291  0.1466
  183POPC   H7R21002   7.577   3.816   5.772 -0.5854  0.9211  0.9956
  183POPC   H7S21003   7.452   3.705   5.806 -1.0807  1.4832  0.5556
  183POPC   C2821004   7.652   3.601   5.824  0.2451 -0.3109  0.1161
  183POPC   H8R21005   7.758   3.620   5.854 -0.2743  0.8420  1.2805
  183POPC   H8S21006   7.684   3.581   5.719  3.4654  1.6341  0.5976
  183POPC   C2921007   7.596   3.477   5.886  0.2504  0.7983 -0.3273
  183POPC   H9121008   7.586   3.472   5.995 -0.3753 -0.0285 -0.4087
  183POPC  C21021009   7.560   3.365   5.812 -0.7842  0.3645  0.4717
  183POPC  H10121010   7.520   3.282   5.871  0.1297  0.9474  1.9829
  183POPC  C21121011   7.560   3.360   5.658  0.4862  0.0881 -0.2404
  183POPC  H11R21012   7.538   3.259   5.620 -0.7622  0.1239  0.3232
  183POPC  H11S21013   7.655   3.400   5.616  1.4897 -1.5744  0.3754
  183POPC  C21221014   7.461   3.465   5.606 -0.2130 -0.6998  0.0513
  183POPC  H12R21015   7.465   3.567   5.649  1.7170  0.1201 -1.8888
  183POPC  H12S21016   7.358   3.427   5.625 -0.5490 -2.0508 -3.5835
  183POPC  C21321017   7.469   3.483   5.452 -0.2780 -0.0085 -0.6838
  183POPC  H13R21018   7.564   3.531   5.419 -0.5535  0.5342 -0.6898
  183POPC  H13S21019   7.390   3.547   5.408 -0.7208  1.0415  1.5137
  183POPC  C21421020   7.467   3.349   5.365  0.1435  0.0197  0.0436
  183POPC  H14R21021   7.376   3.296   5.399  0.4116 -2.0681 -2.1821
  183POPC  H14S21022   7.558   3.290   5.391  0.0976  1.1571  3.2109
  183POPC  C21521023   7.466   3.378   5.218  0.1929  0.1887  0.6567
  183POPC  H15R21024   7.553   3.442   5.193 -0.4923  0.0624 -2.3976
  183POPC  H15S21025   7.370   3.432   5.199 -0.4123 -0.9063  0.5575
  183POPC  C21621026   7.465   3.249   5.140 -0.1306  0.5405  0.3663
  183POPC  H16R21027   7.395   3.173   5.181  0.5616 -0.2230  0.1731
  183POPC  H16S21028   7.569   3.211   5.130 -0.1936  0.6416 -0.9285
  183POPC  C21721029   7.403   3.272   4.999 -0.1487  0.3667  0.5133
  183POPC  H17R21030   7.329   3.354   5.009 -1.7362 -0.7835 -1.1200
  183POPC  H17S21031   7.344   3.183   4.968 -3.4339  2.8316 -0.9106
  183POPC  C21821032   7.506   3.312   4.894  0.1791 -0.6865 -0.0616
  183POPC  H18R21033   7.593   3.362   4.944 -0.3338 -0.8680  1.0536
  183POPC  H18S21034   7.458   3.384   4.826 -0.7343 -1.6181 -0.4279
  183POPC  H18T21035   7.545   3.225   4.837  1.1421  0.4077 -1.1071
  183POPC   C3321036   6.772   4.305   5.854  0.2276  0.5888  0.1384
  183POPC   H3X21037   6.697   4.385   5.868 -2.0604 -1.8822  4.0371
  183POPC   H3Y21038   6.727   4.216   5.903 -2.6096  1.6381 -0.4148
  183POPC   C3421039   6.802   4.272   5.710  0.4130  0.3454  0.2789
  183POPC   H4X21040   6.724   4.199   5.680  0.9812 -0.2935  0.3357
  183POPC   H4Y21041   6.897   4.215   5.708  0.7969  0.9897 -2.0688
  183POPC   C3521042   6.814   4.401   5.633 -0.0396 -0.7164  0.3068
  183POPC   H5X21043   6.894   4.458   5.685  2.7692 -2.0499 -2.2203
  183POPC   H5Y21044   6.721   4.461   5.635  0.8407  0.7490 -0.7861
  183POPC   C3621045   6.852   4.369   5.490 -0.1164  0.3495 -0.6037
  183POPC   H6X21046   6.929   4.290   5.493  0.0693  0.4644 -1.8812
  183POPC   H6Y21047   6.891   4.460   5.439  1.2408  0.5931  0.7908
  183POPC   C3721048   6.733   4.308   5.412 -0.3125  0.0374  0.0068
  183POPC   H7X21049   6.640   4.368   5.423 -1.9328 -1.9092 -1.9780
  183POPC   H7Y21050   6.711   4.207   5.452 -0.2345  0.7599  1.9622
  183POPC   C3821051   6.775   4.286   5.262 -0.3146  0.5252 -0.0832
  183POPC   H8X21052   6.842   4.368   5.228  1.2416 -0.2917  0.9213
  183POPC   H8Y21053   6.673   4.294   5.217 -0.1338  0.7716 -0.4493
  183POPC   C3921054   6.846   4.161   5.219  0.5059 -0.3857 -0.0410
  183POPC   H9X21055   6.773   4.079   5.233  0.0975  0.0659  0.5490
  183POPC   H9Y21056   6.931   4.153   5.290 -1.9654 -0.4744  3.1713
  183POPC  C31021057   6.903   4.160   5.079 -0.1308  0.0638 -1.4094
  183POPC  H10X21058   6.966   4.250   5.067 -1.1198  1.1010  0.7352
  183POPC  H10Y21059   6.826   4.163   4.999 -0.9500 -0.0257 -0.6354
  183POPC  C31121060   6.995   4.036   5.060 -0.2509  0.1827  0.3173
  183POPC  H11X21061   6.930   3.946   5.057 -1.7949  1.2521  0.4425
  183POPC  H11Y21062   7.075   4.027   5.137  1.0460 -0.0474 -1.0003
  183POPC  C31221063   7.074   4.054   4.930 -0.4761 -0.6343  0.1437
  183POPC  H12X21064   7.138   4.142   4.951 -0.2120 -0.3253 -1.7314
  183POPC  H12Y21065   7.008   4.068   4.842 -0.7429  1.4446  0.6295
  183POPC  C31321066   7.174   3.938   4.893 -0.3285 -0.2950  0.7046
  183POPC  H13X21067   7.244   3.948   4.979 -0.5125 -0.0560  0.8270
  183POPC  H13Y21068   7.234   3.965   4.804  1.0569 -0.2626  1.6250
  183POPC  C31421069   7.124   3.794   4.875  0.2251 -0.4291  0.4560
  183POPC  H14X21070   7.053   3.797   4.789  1.6092  0.0975 -0.7208
  183POPC  H14Y21071   7.066   3.780   4.968 -3.2132  0.9121 -1.2987
  183POPC  C31521072   7.229   3.689   4.848 -0.1836  0.0780 -0.3512
  183POPC  H15X21073   7.300   3.735   4.776  0.3935 -0.9695 -0.4648
  183POPC  H15Y21074   7.183   3.596   4.808  1.3023 -0.8848  0.0990
  183POPC  C31621075   7.293   3.649   4.982 -1.1546  0.6580  0.0191
  183POPC  H16X21076   7.224   3.635   5.068 -1.1968 -2.6481 -0.4269
  183POPC  H16Y21077   7.355   3.727   5.030 -0.5200 -1.0441  2.1121
  183POPC  H16Z21078   7.368   3.568   4.974 -1.1919  0.7692 -2.0985
  184POPC     N21079   1.715   5.697   6.728  0.3088 -0.3603  0.3217
  184POPC   C1221080   1.627   5.589   6.785 -0.4581 -0.3486  0.7309
  184POPC  H12A21081   1.643   5.508   6.715  1.0233  1.5341 -1.2621
  184POPC  H12B21082   1.523   5.617   6.776 -0.0655  0.9741  0.1093
  184POPC   C1321083   1.647   5.752   6.603  0.2027  0.0599 -0.3351
  184POPC  H13A21084   1.701   5.834   6.556  1.6162 -0.2470  0.6732
  184POPC  H13B21085   1.633   5.669   6.536 -1.7175 -0.2053  0.3469
  184POPC  H13C21086   1.557   5.808   6.624 -1.1058 -1.3154 -2.0193
  184POPC   C1421087   1.730   5.816   6.818  0.2639  0.6027 -0.3009
  184POPC  H14A21088   1.799   5.801   6.900  1.0573  0.8087 -0.9178
  184POPC  H14B21089   1.755   5.899   6.754 -0.4657  1.5629  0.6246
  184POPC  H14C21090   1.636   5.833   6.867 -0.6674  2.4145 -2.5379
  184POPC   C1521091   1.853   5.650   6.687 -1.1182 -0.3946  0.4442
  184POPC  H15A21092   1.918   5.729   6.653  0.3649 -0.6120  2.5779
  184POPC  H15B21093   1.848   5.583   6.602 -1.0433  0.0916  0.0525
  184POPC  H15C21094   1.908   5.602   6.767 -0.8198  0.3775  0.7030
  184POPC   C1121095   1.661   5.540   6.924 -0.0032 -0.6203  0.3592
  184POPC  H11A21096   1.579   5.476   6.964 -0.6077 -2.2504 -3.0610
  184POPC  H11B21097   1.657   5.628   6.992 -0.1324 -0.2294 -0.1392
  184POPC     P21098   1.803   5.322   6.870 -0.4325  0.0169  0.0480
  184POPC   O1321099   1.688   5.240   6.922  0.5052  0.5517  0.2925
  184POPC   O1421100   1.942   5.276   6.899 -0.1141  0.1267 -0.2518
  184POPC   O1221101   1.789   5.475   6.919  0.3043 -0.6810 -0.2335
  184POPC   O1121102   1.794   5.335   6.711  0.3010  0.6983  0.2316
  184POPC    C121103   1.685   5.283   6.630 -0.1289  0.3326 -1.0233
  184POPC    HA21104   1.688   5.352   6.543  1.2009  0.6953 -0.7127
  184POPC    HB21105   1.581   5.295   6.668  0.6511  3.2363  0.4918
  184POPC    C221106   1.703   5.140   6.578  0.2619  0.7217 -0.2986
  184POPC    HS21107   1.719   5.069   6.662 -3.2980 -1.1402 -0.9675
  184POPC   O2121108   1.818   5.151   6.495  0.1247  0.2932  0.1462
  184POPC   C2121109   1.879   5.040   6.463 -0.3095  1.2308 -1.0990
  184POPC   O2221110   1.844   4.926   6.491  0.0396  0.2625 -0.2048
  184POPC   C2221111   2.004   5.068   6.379 -0.4107 -0.7040 -0.3955
  184POPC   H2R21112   2.083   4.999   6.415  0.5312 -0.2365 -1.5097
  184POPC   H2S21113   2.028   5.174   6.403  2.3207 -0.9525 -1.6462
  184POPC    C321114   1.587   5.070   6.502 -0.4836 -0.0017  0.0834
  184POPC    HX21115   1.502   5.058   6.572  1.6729  0.1247  2.9340
  184POPC    HY21116   1.612   4.965   6.479  2.1142  0.3798  0.8258
  184POPC   O3121117   1.559   5.135   6.379 -0.0308  0.1418 -0.1191
  184POPC   C3121118   1.436   5.127   6.328  0.7593  0.3236 -0.3678
  184POPC   O3221119   1.341   5.069   6.383 -0.7793  0.6533 -0.1606
  184POPC   C3221120   1.445   5.177   6.186  0.3354  0.0647 -0.2811
  184POPC   H2X21121   1.499   5.094   6.135 -0.1050 -0.5417  0.2158
  184POPC   H2Y21122   1.510   5.267   6.187  0.4922 -0.0528  0.5064
  184POPC   C2321123   1.984   5.052   6.234 -0.4765 -0.5950  0.3426
  184POPC   H3R21124   1.951   4.953   6.198 -1.4111 -0.0762 -0.2993
  184POPC   H3S21125   2.080   5.072   6.182  1.1777 -2.4628  2.5120
  184POPC   C2421126   1.879   5.152   6.178 -0.6618 -0.0179  0.5817
  184POPC   H4R21127   1.920   5.255   6.186  0.6974 -0.5282  0.4032
  184POPC   H4S21128   1.782   5.145   6.231  0.2579 -2.6804  2.0857
  184POPC   C2521129   1.844   5.128   6.034 -0.5024  0.2207  0.8373
  184POPC   H5R21130   1.783   5.038   6.015 -0.9154  0.9239 -1.4896
  184POPC   H5S21131   1.938   5.101   5.982  0.2002  1.4881  1.3938
  184POPC   C2621132   1.783   5.256   5.971 -0.5845 -0.7022 -0.1133
  184POPC   H6R21133   1.840   5.345   5.935 -1.8218  0.6376  1.1210
  184POPC   H6S21134   1.738   5.308   6.058 -0.5806 -0.7142 -0.1038
  184POPC   C2721135   1.665   5.236   5.878 -0.8687 -0.2597 -0.7373
  184POPC   H7R21136   1.590   5.317   5.888 -0.0598  0.5086 -0.8646
  184POPC   H7S21137   1.621   5.146   5.927  0.9143 -0.1152  1.2739
  184POPC   C2821138   1.694   5.195   5.733  0.0030 -0.6552 -0.6327
  184POPC   H8R21139   1.754   5.101   5.733  0.1796 -0.5419  0.0439
  184POPC   H8S21140   1.756   5.277   5.691 -0.8150  0.3953  0.1568
  184POPC   C2921141   1.573   5.169   5.653 -0.3081 -0.9161 -0.4678
  184POPC   H9121142   1.472   5.171   5.696 -0.1721 -0.6082 -0.1610
  184POPC  C21021143   1.582   5.146   5.527 -0.5066 -0.0131 -0.0072
  184POPC  H10121144   1.493   5.102   5.478 -0.5560  0.2373 -0.1430
  184POPC  C21121145   1.710   5.135   5.453  1.0548 -0.2132  0.2991
  184POPC  H11R21146   1.734   5.032   5.418  2.0925  0.1767 -0.1773
  184POPC  H11S21147   1.792   5.182   5.511 -1.1223  0.4200  3.0801
  184POPC  C21221148   1.684   5.221   5.327 -0.0706  0.0660  1.0284
  184POPC  H12R21149   1.782   5.247   5.281 -0.1739  1.4513  1.5565
  184POPC  H12S21150   1.648   5.322   5.352  2.9418  0.8151  2.8775
  184POPC  C21321151   1.609   5.135   5.225  0.0940 -0.1147 -0.6799
  184POPC  H13R21152   1.503   5.112   5.250  0.7266 -1.1963  1.2203
  184POPC  H13S21153   1.661   5.041   5.196  0.3486 -0.2643  0.2353
  184POPC  C21421154   1.593   5.225   5.096  0.2712  0.7224  0.0288
  184POPC  H14R21155   1.695   5.252   5.062  1.3533 -1.1013  1.5567
  184POPC  H14S21156   1.535   5.315   5.127  1.6060  1.4380  0.5549
  184POPC  C21521157   1.516   5.168   4.976 -0.0132 -0.3481  0.4941
  184POPC  H15R21158   1.419   5.123   5.007  0.0032 -2.2819 -1.9899
  184POPC  H15S21159   1.571   5.077   4.944  0.8285  0.7211 -1.2310
  184POPC  C21621160   1.508   5.251   4.843 -0.1747 -0.0501  0.5524
  184POPC  H16R21161   1.608   5.283   4.808 -1.1227  1.1324 -1.2404
  184POPC  H16S21162   1.447   5.343   4.859  0.2826  0.1148  1.4149
  184POPC  C21721163   1.442   5.162   4.729 -0.2615  0.4335 -0.0160
  184POPC  H17R21164   1.502   5.070   4.709  0.0218  0.6419 -0.1325
  184POPC  H17S21165   1.423   5.219   4.636  1.2336  0.5813 -0.2537
  184POPC  C21821166   1.306   5.099   4.765 -0.3485 -0.2700 -0.5749
  184POPC  H18R21167   1.313   5.022   4.844 -2.3126  0.3961  0.3291
  184POPC  H18S21168   1.258   5.059   4.673  1.6982  1.2117 -2.3833
  184POPC  H18T21169   1.244   5.181   4.808  0.5037 -0.7489  1.7034
  184POPC   C3321170   1.307   5.194   6.116  0.4105  0.2072 -0.0058
  184POPC   H3X21171   1.260   5.282   6.164 -2.1251 -0.9913 -0.1692
  184POPC   H3Y21172   1.250   5.102   6.137  1.0704 -0.2513 -0.1883
  184POPC   C3421173   1.345   5.220   5.970 -0.4854 -0.1648 -0.5163
  184POPC   H4X21174   1.402   5.134   5.930 -1.0081 -0.8629  0.2067
  184POPC   H4Y21175   1.408   5.311   5.956  1.4374 -1.3291  0.2515
  184POPC   C3521176   1.215   5.259   5.893 -0.8143  0.6895  0.2721
  184POPC   H5X21177   1.202   5.362   5.932 -0.3787  0.3592  1.3429
  184POPC   H5Y21178   1.136   5.186   5.920 -0.3050  0.1329  0.2832
  184POPC   C3621179   1.229   5.255   5.736  0.6907 -1.0456  0.0387
  184POPC   H6X21180   1.231   5.149   5.703  0.3072 -1.0415  0.0032
  184POPC   H6Y21181   1.323   5.308   5.710 -0.3490 -0.5950 -3.1426
  184POPC   C3721182   1.104   5.313   5.665  0.9743 -1.0238  0.2862
  184POPC   H7X21183   1.103   5.424   5.665 -1.2966 -0.9817  1.4276
  184POPC   H7Y21184   1.011   5.283   5.718 -0.3865 -0.9861 -1.9282
  184POPC   C3821185   1.094   5.265   5.514  0.0456 -0.2704  0.3083
  184POPC   H8X21186   1.015   5.316   5.456 -1.8045 -1.5093  1.6265
  184POPC   H8Y21187   1.080   5.155   5.517 -2.4734 -0.0176  0.0135
  184POPC   C3921188   1.223   5.285   5.433  0.8538 -0.8479 -0.0411
  184POPC   H9X21189   1.297   5.217   5.478  0.7583  0.3363  2.0542
  184POPC   H9Y21190   1.257   5.391   5.441 -1.8080  0.1718 -0.8941
  184POPC  C31021191   1.215   5.250   5.281  0.0505 -0.5336  0.7858
  184POPC  H10X21192   1.192   5.142   5.269  1.7094 -0.9178  0.7784
  184POPC  H10Y21193   1.319   5.256   5.241  0.4247 -0.2817  1.7736
  184POPC  C31121194   1.113   5.324   5.196 -0.5451  0.3297  0.6841
  184POPC  H11X21195   1.108   5.430   5.229  0.4603  0.4063  0.6209
  184POPC  H11Y21196   1.011   5.287   5.217 -0.3834 -0.3812  0.2578
  184POPC  C31221197   1.134   5.321   5.045 -0.2434  0.6451 -0.4001
  184POPC  H12X21198   1.133   5.218   5.005  1.3299  0.4446  0.0204
  184POPC  H12Y21199   1.236   5.361   5.031  0.7246 -1.5267  0.1457
  184POPC  C31321200   1.017   5.395   4.974 -0.7033  0.4589  0.1500
  184POPC  H13X21201   0.994   5.488   5.030  1.5592  0.8409  0.5211
  184POPC  H13Y21202   0.935   5.320   4.970  0.7785 -1.2290  0.1819
  184POPC  C31421203   1.062   5.448   4.833  0.2235 -0.2225  0.8570
  184POPC  H14X21204   1.135   5.375   4.791 -0.4764 -1.4626  1.7240
  184POPC  H14Y21205   1.119   5.541   4.850  1.1655 -0.9178  1.5699
  184POPC  C31521206   0.942   5.473   4.735 -0.7895  0.3205  0.0482
  184POPC  H15X21207   0.993   5.510   4.644 -2.2016  0.0462 -0.8812
  184POPC  H15Y21208   0.870   5.545   4.781 -1.8970  0.8848 -2.4370
  184POPC  C31621209   0.883   5.340   4.691 -0.0497  0.7485  0.3621
  184POPC  H16X21210   0.970   5.271   4.676 -1.3233 -0.5481 -1.4274
  184POPC  H16Y21211   0.825   5.353   4.598 -0.3429 -0.7305  0.3125
  184POPC  H16Z21212   0.819   5.290   4.766  0.3242 -0.1745  0.0809
  185POPC     N21213   1.461   5.533   1.936 -0.3881  0.8422  0.0737
  185POPC   C1221214   1.592   5.543   2.012 -0.0793 -0.2420 -0.1200
  185POPC  H12A21215   1.660   5.557   1.930  0.2809  3.9308  0.7078
  185POPC  H12B21216   1.600   5.451   2.069 -0.7273  0.5734  1.3671
  185POPC   C1321217   1.466   5.407   1.860  0.2046  0.2718 -0.1645
  185POPC  H13A21218   1.375   5.372   1.814  1.0157 -2.2573 -0.0410
  185POPC  H13B21219   1.533   5.409   1.776 -1.4615 -3.4732 -1.8347
  185POPC  H13C21220   1.500   5.326   1.924  0.8768 -0.1733 -1.0672
  185POPC   C1421221   1.346   5.519   2.027  0.3079  0.1095 -0.3970
  185POPC  H14A21222   1.329   5.604   2.091 -0.4445 -0.0733 -0.3473
  185POPC  H14B21223   1.251   5.529   1.978 -0.7849 -1.8468  1.1394
  185POPC  H14C21224   1.347   5.423   2.078 -1.9932  0.1456 -0.1774
  185POPC   C1521225   1.441   5.649   1.843  0.8780 -1.1143 -0.1215
  185POPC  H15A21226   1.341   5.649   1.801  0.9540  0.6539 -0.3810
  185POPC  H15B21227   1.517   5.666   1.769  1.8916 -0.5176  1.0231
  185POPC  H15C21228   1.457   5.732   1.911  3.0834 -0.8169 -0.9349
  185POPC   C1121229   1.609   5.657   2.114 -0.7466 -0.3746 -0.7809
  185POPC  H11A21230   1.589   5.757   2.069  1.4548 -0.5545 -2.3066
  185POPC  H11B21231   1.716   5.664   2.144 -1.1387  0.4328  0.5395
  185POPC     P21232   1.577   5.516   2.337  0.0898  0.3941  0.3630
  185POPC   O1321233   1.669   5.414   2.274  0.7498 -0.3589 -0.0658
  185POPC   O1421234   1.453   5.467   2.405 -0.6333  0.1562 -0.8396
  185POPC   O1221235   1.530   5.625   2.226  0.6097  0.3122  0.5479
  185POPC   O1121236   1.665   5.601   2.434 -0.3473  0.3027  0.2007
  185POPC    C121237   1.607   5.705   2.509 -0.2601 -0.1726 -0.1970
  185POPC    HA21238   1.498   5.702   2.527 -0.6731  4.2248 -0.7717
  185POPC    HB21239   1.625   5.799   2.453 -1.1351 -0.0447 -0.2710
  185POPC    C221240   1.690   5.721   2.639  1.2406  0.3207 -0.2566
  185POPC    HS21241   1.791   5.710   2.594 -0.0487  0.3727 -3.4341
  185POPC   O2121242   1.655   5.614   2.729  0.0487 -0.3421  0.2392
  185POPC   C2121243   1.738   5.585   2.825 -0.5751  0.1045  0.9000
  185POPC   O2221244   1.855   5.621   2.827 -0.0899 -0.2944 -0.4479
  185POPC   C2221245   1.676   5.498   2.924  0.3788 -0.1575  1.0099
  185POPC   H2R21246   1.662   5.396   2.882  2.8006 -0.7784  1.5230
  185POPC   H2S21247   1.577   5.540   2.952  1.4218  3.2652  0.1468
  185POPC    C321248   1.686   5.864   2.703  0.3645 -0.0510 -0.1263
  185POPC    HX21249   1.727   5.931   2.624 -1.7429  0.0360 -1.2078
  185POPC    HY21250   1.778   5.865   2.766  0.4609  0.9893 -0.2723
  185POPC   O3121251   1.561   5.899   2.765  0.1682 -0.6257 -0.2656
  185POPC   C3121252   1.550   5.869   2.894 -0.5330  0.2432 -0.1013
  185POPC   O3221253   1.639   5.826   2.964 -0.0254 -0.3057 -0.1046
  185POPC   C3221254   1.409   5.892   2.947 -0.0700  0.8067  0.3032
  185POPC   H2X21255   1.365   5.790   2.953  2.0307 -0.1961 -0.3687
  185POPC   H2Y21256   1.356   5.954   2.872 -0.7088 -0.0137  0.0567
  185POPC   C2321257   1.759   5.467   3.052 -0.0728  0.3305 -0.2716
  185POPC   H3R21258   1.858   5.425   3.024  0.9726  2.8358 -0.5589
  185POPC   H3S21259   1.703   5.389   3.108 -2.1693  2.1801  0.3126
  185POPC   C2421260   1.781   5.587   3.153  0.0389 -0.0966  0.6410
  185POPC   H4R21261   1.682   5.630   3.177  1.1569  2.3908  1.0426
  185POPC   H4S21262   1.842   5.667   3.106 -2.2947  0.7676 -1.1240
  185POPC   C2521263   1.839   5.540   3.280  0.2669 -0.5142  0.3058
  185POPC   H5R21264   1.934   5.486   3.260  2.2363  1.8605  2.5934
  185POPC   H5S21265   1.776   5.467   3.336 -1.6694  0.0778 -0.9854
  185POPC   C2621266   1.858   5.651   3.379 -0.2120 -0.1405  0.3302
  185POPC   H6R21267   1.772   5.722   3.386 -0.0488  0.3346 -1.8411
  185POPC   H6S21268   1.945   5.714   3.350  0.3758 -1.6289 -1.2764
  185POPC   C2721269   1.890   5.609   3.525  0.4665  0.4546 -0.0001
  185POPC   H7R21270   1.960   5.526   3.505  0.5723 -0.0361  2.1232
  185POPC   H7S21271   1.804   5.558   3.575  2.3295 -0.0764  2.9588
  185POPC   C2821272   1.961   5.716   3.610 -0.2923  0.1336  0.0206
  185POPC   H8R21273   2.037   5.769   3.548  1.3643 -0.2814  1.6567
  185POPC   H8S21274   2.020   5.665   3.688  1.6993  2.1748 -0.0450
  185POPC   C2921275   1.853   5.808   3.657 -0.6507  0.1435  0.0236
  185POPC   H9121276   1.773   5.820   3.581  0.8995 -0.2786 -1.7624
  185POPC  C21021277   1.856   5.873   3.773  0.5933  0.0862  0.3287
  185POPC  H10121278   1.776   5.944   3.799  0.1193  0.5011 -2.0703
  185POPC  C21121279   1.961   5.857   3.877 -0.1860  0.7995  1.2314
  185POPC  H11R21280   1.998   5.959   3.901  0.1602  0.5570  1.7645
  185POPC  H11S21281   2.054   5.804   3.847 -0.8045  0.4370 -0.1183
  185POPC  C21221282   1.902   5.788   4.005 -0.5688 -0.3209 -0.0923
  185POPC  H12R21283   1.805   5.836   4.030  0.2082  1.9405 -1.1124
  185POPC  H12S21284   1.984   5.801   4.079  1.8220 -0.6454 -2.5060
  185POPC  C21321285   1.871   5.637   3.997 -0.6290  0.3968  0.4057
  185POPC  H13R21286   1.970   5.594   3.970 -0.7190  0.5500 -0.1737
  185POPC  H13S21287   1.814   5.622   3.903  0.4676 -0.7614 -0.1047
  185POPC  C21421288   1.802   5.576   4.123 -0.4357  0.1293 -0.0401
  185POPC  H14R21289   1.886   5.586   4.195  0.2276  1.8561 -0.9896
  185POPC  H14S21290   1.780   5.469   4.104  0.1513  0.0633 -0.3678
  185POPC  C21521291   1.665   5.635   4.150  0.2674 -0.0058  0.4408
  185POPC  H15R21292   1.613   5.651   4.053  0.5270 -1.7710 -0.0299
  185POPC  H15S21293   1.679   5.730   4.205  2.2049 -0.5179  0.8962
  185POPC  C21621294   1.567   5.554   4.230 -0.0179 -0.0320  1.3297
  185POPC  H16R21295   1.554   5.459   4.175  1.7374  0.4570  0.0098
  185POPC  H16S21296   1.463   5.594   4.232 -0.1051  0.3042 -2.7555
  185POPC  C21721297   1.598   5.533   4.380 -0.0939  0.2550 -0.0165
  185POPC  H17R21298   1.697   5.483   4.375  1.0766  2.4721 -0.0283
  185POPC  H17S21299   1.516   5.470   4.424 -0.1609  2.0056  2.5777
  185POPC  C21821300   1.603   5.668   4.453 -0.4770  0.4245  0.0198
  185POPC  H18R21301   1.512   5.730   4.441 -0.8864 -0.1598  0.0367
  185POPC  H18S21302   1.685   5.733   4.418 -1.3123  0.9146 -1.0690
  185POPC  H18T21303   1.625   5.650   4.561  0.1570 -2.2464 -0.4649
  185POPC   C3321304   1.408   5.953   3.083 -0.2930 -0.3999  0.4013
  185POPC   H3X21305   1.458   6.051   3.094 -1.7452  0.3292  0.6663
  185POPC   H3Y21306   1.480   5.895   3.146  0.4662  0.5346  0.4096
  185POPC   C3421307   1.278   5.960   3.156 -0.1074  0.0343  0.7017
  185POPC   H4X21308   1.252   5.855   3.181  2.0064 -0.5129  0.7560
  185POPC   H4Y21309   1.195   6.005   3.097 -2.1882 -2.1335  1.7685
  185POPC   C3521310   1.295   6.031   3.286  0.4285 -0.1676  0.1042
  185POPC   H5X21311   1.198   6.060   3.332 -0.1438 -1.8826  0.0601
  185POPC   H5Y21312   1.332   6.135   3.270  0.3612  0.1838  1.9791
  185POPC   C3621313   1.383   5.956   3.389 -0.3771 -0.0334 -0.1781
  185POPC   H6X21314   1.483   5.938   3.344 -1.4836  0.1319 -2.9027
  185POPC   H6Y21315   1.329   5.861   3.412 -0.9737  0.1157 -0.9291
  185POPC   C3721316   1.402   6.041   3.517 -0.3538 -0.5147 -0.8180
  185POPC   H7X21317   1.306   6.081   3.555  0.0213  0.7136 -1.1159
  185POPC   H7Y21318   1.468   6.129   3.496  0.2593 -1.0824 -1.3282
  185POPC   C3821319   1.473   5.964   3.626 -0.2063  0.0091  0.5886
  185POPC   H8X21320   1.563   5.918   3.580  0.2324 -0.8427  2.1913
  185POPC   H8Y21321   1.406   5.883   3.662 -0.1563  0.0570  0.7920
  185POPC   C3921322   1.497   6.045   3.752 -0.0104 -0.1732 -0.1525
  185POPC   H9X21323   1.559   6.132   3.722 -2.8020  2.1821  0.4971
  185POPC   H9Y21324   1.557   5.988   3.826  1.6546  1.8902  0.2068
  185POPC  C31021325   1.373   6.088   3.818  0.7541  1.0888  0.2556
  185POPC  H10X21326   1.321   6.004   3.869 -1.1281  1.8916 -0.2498
  185POPC  H10Y21327   1.300   6.136   3.749  0.3175  2.0786  1.3453
  185POPC  C31121328   1.399   6.197   3.920 -0.2844 -0.0357  0.2673
  185POPC  H11X21329   1.302   6.222   3.969  1.4605  2.6304  2.7385
  185POPC  H11Y21330   1.439   6.285   3.866 -0.6266 -0.4480 -0.6801
  185POPC  C31221331   1.499   6.157   4.032 -0.6159 -0.5135  0.5146
  185POPC  H12X21332   1.603   6.149   3.993 -0.1405  0.4859  1.5123
  185POPC  H12Y21333   1.465   6.059   4.072 -0.4030 -0.9563 -0.3544
  185POPC  C31321334   1.491   6.245   4.158 -0.0771  0.2753 -0.4763
  185POPC  H13X21335   1.384   6.275   4.169 -0.4315 -0.8832 -0.5920
  185POPC  H13Y21336   1.543   6.340   4.135 -2.0837  1.5666  0.0260
  185POPC  C31421337   1.565   6.186   4.281 -0.6709  0.4086 -0.8873
  185POPC  H14X21338   1.572   6.262   4.362 -2.3716  0.2110 -0.5228
  185POPC  H14Y21339   1.667   6.150   4.252 -0.0715  0.6022  0.8616
  185POPC  C31521340   1.470   6.080   4.345  0.1901  0.8138 -1.3158
  185POPC  H15X21341   1.445   5.994   4.279 -1.2081  0.0667  0.1249
  185POPC  H15Y21342   1.372   6.129   4.364 -0.4045 -1.4548  2.5216
  185POPC  C31621343   1.523   6.031   4.479 -0.0562 -0.1612  0.3910
  185POPC  H16X21344   1.453   5.952   4.515 -1.7827  0.4850 -1.4006
  185POPC  H16Y21345   1.530   6.105   4.561 -1.7063  0.2289  0.1962
  185POPC  H16Z21346   1.620   5.976   4.474  0.0410 -0.2456  2.2223
  186POPC     N21347   0.870   2.913   2.498 -0.3989  0.1171  0.1032
  186POPC   C1221348   0.949   2.847   2.612 -0.6286  0.2022 -0.2255
  186POPC  H12A21349   1.015   2.773   2.569  1.5956  2.1496 -0.3742
  186POPC  H12B21350   0.876   2.797   2.674  1.3444  0.3198  2.3806
  186POPC   C1321351   0.749   2.980   2.564 -0.3307  0.4922  0.4249
  186POPC  H13A21352   0.786   3.049   2.638  2.9165 -0.2162 -0.3757
  186POPC  H13B21353   0.687   3.038   2.497 -1.4298  0.1121  1.0796
  186POPC  H13C21354   0.680   2.911   2.611  0.9169 -2.5161 -1.8626
  186POPC   C1421355   0.959   3.011   2.430  1.2031  0.0438  0.3517
  186POPC  H14A21356   0.955   3.107   2.480 -1.3799 -0.9327  2.2059
  186POPC  H14B21357   1.063   2.983   2.440  1.1146 -0.0348  1.1565
  186POPC  H14C21358   0.939   3.026   2.325  0.9699 -0.2652  0.3522
  186POPC   C1521359   0.810   2.813   2.406  0.1164  0.5249 -0.0356
  186POPC  H15A21360   0.787   2.855   2.309 -0.5014 -2.6638 -1.4139
  186POPC  H15B21361   0.730   2.756   2.450  0.8908  0.9692  2.0788
  186POPC  H15C21362   0.875   2.734   2.368 -0.5742  1.0808 -2.5977
  186POPC   C1121363   1.031   2.948   2.706 -0.3423  0.3172 -0.1102
  186POPC  H11A21364   1.051   2.897   2.802 -0.0716  1.8231  0.6654
  186POPC  H11B21365   0.966   3.032   2.738 -1.5234 -0.6462  0.0916
  186POPC     P21366   1.278   2.912   2.624  0.0609 -0.1031 -0.6167
  186POPC   O1321367   1.388   2.986   2.555 -0.0327 -0.3260  0.5368
  186POPC   O1421368   1.243   2.778   2.565 -0.0800 -0.3102  0.0673
  186POPC   O1221369   1.147   3.005   2.640 -0.0277  0.0279 -0.1225
  186POPC   O1121370   1.330   2.887   2.772 -0.5353 -0.6737  0.5770
  186POPC    C121371   1.351   2.988   2.863 -1.0592 -0.3757 -0.5171
  186POPC    HA21372   1.272   3.066   2.850 -0.5441  0.1802 -0.3834
  186POPC    HB21373   1.447   3.038   2.839 -0.2596 -1.5007  0.2536
  186POPC    C221374   1.358   2.942   3.005  0.1501 -0.6699  0.0273
  186POPC    HS21375   1.254   2.910   3.028  0.6642 -2.6604 -0.2550
  186POPC   O2121376   1.399   3.051   3.090  0.3899 -0.7674  0.6217
  186POPC   C2121377   1.317   3.161   3.109  0.7659  0.2917  0.4413
  186POPC   O2221378   1.201   3.158   3.075  0.0210 -0.3171 -0.0782
  186POPC   C2221379   1.389   3.267   3.181 -0.0008 -0.6815 -0.3001
  186POPC   H2R21380   1.376   3.362   3.124 -0.7887 -0.5151  0.1426
  186POPC   H2S21381   1.497   3.241   3.189  0.3951  0.2568 -2.0631
  186POPC    C321382   1.459   2.825   3.020 -0.2930 -0.0018  0.5750
  186POPC    HX21383   1.561   2.869   3.017 -0.2042 -0.2889 -1.2826
  186POPC    HY21384   1.446   2.757   2.934 -0.6965  1.1696 -0.3119
  186POPC   O3121385   1.435   2.739   3.134  0.6246  0.2280 -0.1146
  186POPC   C3121386   1.536   2.704   3.212  1.0595  0.3378  0.4482
  186POPC   O3221387   1.654   2.711   3.177 -0.2924 -0.2066 -0.2382
  186POPC   C3221388   1.474   2.633   3.338 -0.5037 -0.5966  0.5164
  186POPC   H2X21389   1.407   2.556   3.295 -1.6960  0.8727 -0.3628
  186POPC   H2Y21390   1.417   2.710   3.394  1.8625  0.7905  1.1542
  186POPC   C2321391   1.326   3.279   3.323 -0.0578  0.1536  0.1838
  186POPC   H3R21392   1.333   3.186   3.383  1.3825  1.3379  1.9507
  186POPC   H3S21393   1.222   3.319   3.317  0.2780  1.2972  1.5327
  186POPC   C2421394   1.395   3.387   3.413 -0.1994 -0.7001  0.4643
  186POPC   H4R21395   1.421   3.482   3.361 -3.1833  1.9114  3.2172
  186POPC   H4S21396   1.483   3.341   3.463  0.8610  0.8535  0.1185
  186POPC   C2521397   1.309   3.425   3.536  0.0791  0.1737 -0.0244
  186POPC   H5R21398   1.313   3.336   3.603 -0.9633  1.1844  1.4245
  186POPC   H5S21399   1.205   3.446   3.505 -0.8127 -1.7238  1.4815
  186POPC   C2621400   1.367   3.540   3.615  0.2388  0.0616  0.5327
  186POPC   H6R21401   1.419   3.619   3.557  2.1717 -1.8740 -0.5383
  186POPC   H6S21402   1.449   3.489   3.671  1.2195 -0.0180 -0.9165
  186POPC   C2721403   1.275   3.591   3.727  0.3024 -0.0872 -0.9803
  186POPC   H7R21404   1.249   3.506   3.794  0.7722  0.4421 -0.1056
  186POPC   H7S21405   1.183   3.615   3.669  1.6299  0.7924 -2.8305
  186POPC   C2821406   1.329   3.714   3.808  0.0105  0.6760  0.3106
  186POPC   H8R21407   1.433   3.699   3.844  1.1981  0.6729 -2.8420
  186POPC   H8S21408   1.264   3.716   3.898 -2.0408 -0.3672 -1.0588
  186POPC   C2921409   1.309   3.848   3.735  0.3883 -0.6841 -0.2914
  186POPC   H9121410   1.361   3.858   3.639 -0.9537 -0.1139 -0.9808
  186POPC  C21021411   1.243   3.956   3.796  0.7452 -0.7409 -0.3159
  186POPC  H10121412   1.228   4.053   3.746  1.8557  0.3049  1.3039
  186POPC  C21121413   1.175   3.960   3.933 -1.0225 -0.2434  0.2122
  186POPC  H11R21414   1.195   4.053   3.989  0.9852  0.2180 -1.1690
  186POPC  H11S21415   1.235   3.897   4.002 -0.6395  2.8070  2.8901
  186POPC  C21221416   1.029   3.921   3.923  0.3147 -0.4880  0.1617
  186POPC  H12R21417   1.020   3.815   3.892  1.5454 -0.8845  1.0704
  186POPC  H12S21418   0.974   3.984   3.850  0.1586  0.1327  0.8000
  186POPC  C21321419   0.953   3.928   4.062  0.1531  0.1925 -0.1668
  186POPC  H13R21420   1.029   3.916   4.143 -1.3241  0.7294  1.3504
  186POPC  H13S21421   0.885   3.843   4.082  0.0770  0.1918 -0.4245
  186POPC  C21421422   0.880   4.065   4.087  0.0516  0.4347 -0.2471
  186POPC  H14R21423   0.816   4.097   4.002 -1.8689  0.8696  1.2967
  186POPC  H14S21424   0.963   4.139   4.087  0.8428 -0.4335  0.2117
  186POPC  C21521425   0.809   4.066   4.226 -0.0098  0.9043  0.6580
  186POPC  H15R21426   0.866   4.009   4.303 -1.2241 -1.8801 -0.3900
  186POPC  H15S21427   0.715   4.009   4.215  0.9854 -0.6138 -0.2246
  186POPC  C21621428   0.773   4.206   4.265  0.2592  0.3817 -0.1318
  186POPC  H16R21429   0.705   4.241   4.185  1.2310 -1.7203 -2.0023
  186POPC  H16S21430   0.864   4.269   4.272  0.0525  1.1476 -3.0533
  186POPC  C21721431   0.693   4.216   4.400  0.6780  0.1710  0.0755
  186POPC  H17R21432   0.588   4.217   4.365  0.8367  0.1486 -0.4201
  186POPC  H17S21433   0.711   4.309   4.457 -0.3428 -0.5674  1.6537
  186POPC  C21821434   0.719   4.111   4.506 -0.3396  0.5216  0.1218
  186POPC  H18R21435   0.685   4.012   4.469 -1.4191  0.7966  0.3690
  186POPC  H18S21436   0.826   4.091   4.531  0.0578  1.6191 -0.6186
  186POPC  H18T21437   0.672   4.139   4.602  1.5917  1.4452  0.8583
  186POPC   C3321438   1.576   2.565   3.430 -0.0920 -0.1667 -0.4836
  186POPC   H3X21439   1.654   2.635   3.466  0.2929  0.1275 -1.8117
  186POPC   H3Y21440   1.637   2.498   3.366 -1.7997 -0.5308 -1.8209
  186POPC   C3421441   1.504   2.483   3.544  0.0589  0.6043 -0.2089
  186POPC   H4X21442   1.577   2.410   3.587 -0.7057 -0.7965 -1.2026
  186POPC   H4Y21443   1.408   2.446   3.502 -0.3016  2.9549 -1.6253
  186POPC   C3521444   1.462   2.569   3.665 -0.3500 -0.6320 -0.2343
  186POPC   H5X21445   1.398   2.648   3.621  2.0126  0.1676 -2.4885
  186POPC   H5Y21446   1.545   2.629   3.708  0.6124 -2.1565  0.1342
  186POPC   C3621447   1.394   2.498   3.787  0.0778  0.4988 -0.0972
  186POPC   H6X21448   1.466   2.440   3.849 -2.0826 -1.0757  1.0824
  186POPC   H6Y21449   1.322   2.425   3.745  0.0576 -0.7180  1.8914
  186POPC   C3721450   1.331   2.604   3.877  0.0362 -0.0123 -0.4125
  186POPC   H7X21451   1.268   2.669   3.813 -0.2435  0.1519  0.0234
  186POPC   H7Y21452   1.413   2.672   3.909  0.9247 -0.8645 -0.8361
  186POPC   C3821453   1.253   2.550   4.001  0.3808 -0.7969  0.5124
  186POPC   H8X21454   1.318   2.478   4.055 -0.9653  0.0770  3.4882
  186POPC   H8Y21455   1.160   2.498   3.968 -0.1817  0.7622 -0.4842
  186POPC   C3921456   1.205   2.661   4.097  0.0125 -0.0581 -0.5891
  186POPC   H9X21457   1.169   2.609   4.188  3.2364 -1.2331  0.1453
  186POPC   H9Y21458   1.119   2.705   4.042 -1.7537 -2.7370 -0.1504
  186POPC  C31021459   1.302   2.768   4.139 -0.0956 -0.1619  0.4670
  186POPC  H10X21460   1.336   2.830   4.054 -0.8346  2.4867  1.9987
  186POPC  H10Y21461   1.395   2.715   4.170  0.5952  0.4932 -0.4271
  186POPC  C31121462   1.228   2.865   4.236  0.0882  0.2096  0.1045
  186POPC  H11X21463   1.149   2.809   4.289 -1.6022  1.7077 -0.7433
  186POPC  H11Y21464   1.167   2.940   4.182 -0.3531 -0.9217 -1.0268
  186POPC  C31221465   1.331   2.918   4.343 -0.5659  0.0820 -0.7198
  186POPC  H12X21466   1.421   2.947   4.285  0.6489 -0.9239  0.6131
  186POPC  H12Y21467   1.367   2.831   4.401 -2.4996 -0.7557 -0.6930
  186POPC  C31321468   1.286   3.035   4.424  0.0845 -0.7797  1.2098
  186POPC  H13X21469   1.220   2.983   4.497 -2.3832 -0.4382 -0.6549
  186POPC  H13Y21470   1.224   3.106   4.367  1.1436  0.2245  1.2640
  186POPC  C31421471   1.394   3.124   4.482 -0.2728  0.4982  1.3330
  186POPC  H14X21472   1.464   3.148   4.399 -3.3085  1.1283 -1.2194
  186POPC  H14Y21473   1.448   3.070   4.563  0.1125 -2.3374 -0.6904
  186POPC  C31521474   1.331   3.255   4.535 -0.3763  0.5390 -0.6000
  186POPC  H15X21475   1.266   3.222   4.620  0.2416  1.1914  0.1406
  186POPC  H15Y21476   1.281   3.299   4.447 -2.3423  1.8723  1.0874
  186POPC  C31621477   1.440   3.346   4.595  0.3606  0.4368 -0.4208
  186POPC  H16X21478   1.389   3.430   4.646 -1.6312  0.9297 -3.0378
  186POPC  H16Y21479   1.501   3.388   4.512 -0.1698 -0.3771 -1.2498
  186POPC  H16Z21480   1.503   3.292   4.669  1.0512 -1.1442 -2.0759
  187POPC     N21481   5.638   5.490   2.375  0.6293  0.0601  0.4392
  187POPC   C1221482   5.615   5.363   2.459  0.2916 -0.2442 -0.1058
  187POPC  H12A21483   5.547   5.299   2.404 -2.3789  0.8388  1.6776
  187POPC  H12B21484   5.559   5.393   2.547  1.1904  1.3463 -0.0351
  187POPC   C1321485   5.712   5.586   2.459 -0.3157  0.1297  0.1335
  187POPC  H13A21486   5.743   5.674   2.403 -3.5039  1.0817 -0.3363
  187POPC  H13B21487   5.657   5.634   2.539 -1.0657  1.6036 -1.1855
  187POPC  H13C21488   5.803   5.536   2.489  0.6916  1.5492 -0.4369
  187POPC   C1421489   5.703   5.465   2.241  0.1818  0.7266  0.5072
  187POPC  H14A21490   5.802   5.422   2.244  0.5349  1.5627  1.1024
  187POPC  H14B21491   5.651   5.406   2.167  1.1208  1.0030 -0.3932
  187POPC  H14C21492   5.729   5.558   2.194  1.0883 -0.9071 -2.4738
  187POPC   C1521493   5.501   5.549   2.351 -0.3589 -0.0622  1.0719
  187POPC  H15A21494   5.442   5.578   2.437 -1.2286  0.0610  0.4452
  187POPC  H15B21495   5.442   5.477   2.297 -0.3905  0.6814  0.1007
  187POPC  H15C21496   5.503   5.630   2.280  0.1181 -0.2337  0.8872
  187POPC   C1121497   5.746   5.298   2.511  0.3010 -0.5097 -0.2136
  187POPC  H11A21498   5.719   5.211   2.576 -2.7917 -0.0081 -0.6414
  187POPC  H11B21499   5.797   5.375   2.574 -2.9789  1.5970  0.1509
  187POPC     P21500   5.802   5.105   2.352 -0.3850  0.0353  0.1206
  187POPC   O1321501   5.901   5.084   2.240 -0.0843 -0.0628 -0.4588
  187POPC   O1421502   5.657   5.094   2.326  0.3279  0.3438  0.2168
  187POPC   O1221503   5.836   5.251   2.408  0.4743 -0.1321 -0.0863
  187POPC   O1121504   5.839   5.004   2.472 -0.1207  0.4156 -0.2355
  187POPC    C121505   5.967   5.024   2.530 -0.1579 -0.1835 -0.9703
  187POPC    HA21506   6.012   5.123   2.512  0.1988 -0.3571 -1.0297
  187POPC    HB21507   6.033   4.951   2.479 -3.1982 -2.1954 -2.3747
  187POPC    C221508   5.976   5.009   2.690 -0.0390  0.2645  0.0114
  187POPC    HS21509   5.949   4.902   2.704 -0.0978  0.0543 -1.5423
  187POPC   O2121510   5.895   5.105   2.764 -0.6671 -0.2202  0.1719
  187POPC   C2121511   5.776   5.059   2.801 -0.0474 -0.0154  0.0152
  187POPC   O2221512   5.729   4.954   2.764  0.3425 -0.1280  0.2304
  187POPC   C2221513   5.714   5.162   2.902 -0.0409  0.4988 -0.0142
  187POPC   H2R21514   5.665   5.243   2.843 -0.2757 -0.7150 -1.5532
  187POPC   H2S21515   5.797   5.209   2.958 -0.4127  0.7842  0.3058
  187POPC    C321516   6.125   5.031   2.734  0.0478  0.2469  0.0589
  187POPC    HX21517   6.154   5.137   2.721  0.9896 -0.0694 -0.5001
  187POPC    HY21518   6.172   4.973   2.652 -1.3062  0.3490 -0.8239
  187POPC   O3121519   6.146   4.987   2.872  0.7476  1.2757 -0.1814
  187POPC   C3121520   6.156   5.075   2.968  0.0621  0.7781  0.0997
  187POPC   O3221521   6.132   5.195   2.962 -0.0185 -0.3292 -0.1428
  187POPC   C3221522   6.211   5.008   3.096 -0.0108 -0.0607 -0.1757
  187POPC   H2X21523   6.317   5.041   3.105 -0.2283  0.8804 -0.9233
  187POPC   H2Y21524   6.208   4.898   3.083  0.9780 -0.2491  0.9854
  187POPC   C2321525   5.616   5.099   3.003 -0.3543 -0.4951  0.4724
  187POPC   H3R21526   5.652   4.999   3.033 -0.5118 -0.5272  0.5553
  187POPC   H3S21527   5.517   5.089   2.953  1.1635  1.5216 -3.4183
  187POPC   C2421528   5.609   5.178   3.140  0.1676  0.0572 -0.2087
  187POPC   H4R21529   5.541   5.264   3.124  0.8476  0.3982 -1.3881
  187POPC   H4S21530   5.708   5.222   3.164 -0.7330  1.9944  0.1078
  187POPC   C2521531   5.548   5.096   3.254 -0.0010  0.9732 -0.3540
  187POPC   H5R21532   5.623   5.021   3.288 -0.9025  0.1348 -0.1951
  187POPC   H5S21533   5.457   5.036   3.233 -0.0285  0.6866  0.5328
  187POPC   C2621534   5.518   5.171   3.383  0.9564 -0.3974 -0.2545
  187POPC   H6R21535   5.460   5.262   3.357  0.5831 -1.0419 -1.8192
  187POPC   H6S21536   5.604   5.203   3.446  0.5864 -0.2729  0.1922
  187POPC   C2721537   5.423   5.102   3.486 -0.5566  0.1081  0.3368
  187POPC   H7R21538   5.469   5.003   3.506  1.1007  0.5422 -1.0941
  187POPC   H7S21539   5.315   5.095   3.462 -0.8046  1.3671  1.0021
  187POPC   C2821540   5.438   5.186   3.619  0.4674 -0.0378  0.2037
  187POPC   H8R21541   5.407   5.291   3.599  1.0086  0.2209  0.6909
  187POPC   H8S21542   5.545   5.192   3.649  0.3572  0.6833  0.4922
  187POPC   C2921543   5.352   5.140   3.735 -0.6207  0.4448 -0.0860
  187POPC   H9121544   5.257   5.089   3.714 -0.1125  0.1761 -1.8607
  187POPC  C21021545   5.391   5.137   3.866  0.4145  0.6136  0.2206
  187POPC  H10121546   5.312   5.086   3.924  0.6975 -0.1660 -0.0605
  187POPC  C21121547   5.516   5.186   3.934  0.3535 -0.1063 -0.3272
  187POPC  H11R21548   5.483   5.285   3.972 -0.9138 -0.8182  0.4910
  187POPC  H11S21549   5.601   5.200   3.864  0.1247  0.2626 -0.5317
  187POPC  C21221550   5.548   5.107   4.062 -0.5583 -0.4322  0.4644
  187POPC  H12R21551   5.581   5.006   4.032  1.2957  0.2865 -0.1172
  187POPC  H12S21552   5.457   5.090   4.123 -0.5097 -2.1923  0.0970
  187POPC  C21321553   5.654   5.184   4.144 -0.5813 -0.4191 -0.7109
  187POPC  H13R21554   5.616   5.286   4.163 -1.6619 -1.1737  1.6690
  187POPC  H13S21555   5.746   5.195   4.084 -0.0098 -3.2676 -0.5287
  187POPC  C21421556   5.670   5.127   4.281 -0.3485 -0.4432 -0.1340
  187POPC  H14R21557   5.686   5.018   4.264 -1.5429 -0.7122  0.3880
  187POPC  H14S21558   5.574   5.141   4.335 -2.4907 -1.5915 -3.2926
  187POPC  C21521559   5.794   5.175   4.370  0.3731  0.0188  0.0984
  187POPC  H15R21560   5.790   5.284   4.391  0.3931 -0.5545  3.6308
  187POPC  H15S21561   5.887   5.159   4.311 -0.2139  0.7889 -1.0659
  187POPC  C21621562   5.805   5.105   4.506  0.0171 -0.0824  0.1103
  187POPC  H16R21563   5.847   5.005   4.480  0.2666  0.5709 -2.2403
  187POPC  H16S21564   5.711   5.089   4.562 -0.2073 -0.3172 -0.3346
  187POPC  C21721565   5.914   5.180   4.597  0.2356  0.0400 -0.4361
  187POPC  H17R21566   6.002   5.192   4.531 -1.5852  2.4638 -2.6420
  187POPC  H17S21567   5.945   5.123   4.687 -1.8203 -0.3671  0.0735
  187POPC  C21821568   5.881   5.318   4.644  0.1121 -0.5140  0.5173
  187POPC  H18R21569   5.857   5.383   4.557 -1.6823 -1.3649  0.3205
  187POPC  H18S21570   5.953   5.363   4.715 -0.2133  3.0043 -1.1690
  187POPC  H18T21571   5.792   5.311   4.711  1.1229  0.3822  2.0256
  187POPC   C3321572   6.129   5.051   3.219 -0.2171  0.2684 -0.1418
  187POPC   H3X21573   6.107   5.160   3.217 -1.8711 -0.0200  0.9605
  187POPC   H3Y21574   6.185   5.027   3.312 -1.4416  0.0333  0.5616
  187POPC   C3421575   5.992   4.984   3.233 -0.3274  0.8498  0.4797
  187POPC   H4X21576   5.986   4.885   3.183 -0.8351  0.3812  1.4256
  187POPC   H4Y21577   5.908   5.041   3.187 -2.2452 -2.5408 -0.5955
  187POPC   C3521578   5.955   4.951   3.383  0.1081  0.4402 -0.2348
  187POPC   H5X21579   6.032   4.886   3.429  0.6381  0.2671 -1.3234
  187POPC   H5Y21580   5.861   4.891   3.387  0.6928 -0.6247 -1.6163
  187POPC   C3621581   5.915   5.081   3.460 -0.1270  0.0400  0.3216
  187POPC   H6X21582   5.845   5.152   3.410 -0.5536  1.1386  2.3505
  187POPC   H6Y21583   6.005   5.142   3.483 -0.3794  1.3306 -1.8103
  187POPC   C3721584   5.842   5.049   3.594 -0.9390  0.4941 -0.3702
  187POPC   H7X21585   5.744   4.998   3.582  0.1253 -1.6671 -0.2151
  187POPC   H7Y21586   5.831   5.141   3.655 -0.0529  0.4735 -0.1650
  187POPC   C3821587   5.932   4.964   3.681  0.1308  0.7980  0.0014
  187POPC   H8X21588   6.037   4.991   3.656 -0.0897  2.5472  0.7975
  187POPC   H8Y21589   5.913   4.859   3.650  0.5781  1.1918 -1.6977
  187POPC   C3921590   5.902   4.997   3.829 -0.3076 -0.3271 -0.2537
  187POPC   H9X21591   5.793   5.016   3.833 -0.3669 -0.2995 -1.5094
  187POPC   H9Y21592   5.969   5.077   3.867 -2.4584  1.0322  0.8584
  187POPC  C31021593   5.935   4.877   3.918  0.0478  0.1938  0.1642
  187POPC  H10X21594   6.044   4.857   3.928  0.2133  1.1110  0.2688
  187POPC  H10Y21595   5.877   4.791   3.878  1.9839 -1.4499  0.7495
  187POPC  C31121596   5.879   4.905   4.058  0.2585 -0.2621  0.3942
  187POPC  H11X21597   5.769   4.920   4.048  0.3146  1.7583  2.0681
  187POPC  H11Y21598   5.907   5.008   4.088  0.2471 -0.4846  1.2060
  187POPC  C31221599   5.906   4.811   4.176 -0.3414 -0.3975  0.0103
  187POPC  H12X21600   5.903   4.703   4.149 -1.4420 -0.4137  0.1623
  187POPC  H12Y21601   5.837   4.820   4.263  1.4061  1.1001  1.3286
  187POPC  C31321602   6.048   4.842   4.238 -0.6556 -0.2692  0.1295
  187POPC  H13X21603   6.055   4.953   4.245  0.5275 -0.2633 -0.7660
  187POPC  H13Y21604   6.129   4.820   4.165  0.4725  2.1443  0.5582
  187POPC  C31421605   6.072   4.785   4.375  0.1632 -0.0850 -0.0561
  187POPC  H14X21606   6.071   4.674   4.370  1.1278 -0.1151  0.1686
  187POPC  H14Y21607   5.988   4.816   4.441  0.2670 -2.4791  1.3289
  187POPC  C31521608   6.195   4.842   4.447 -0.9773  1.1486 -0.3473
  187POPC  H15X21609   6.209   4.791   4.544  0.2240  1.1097 -0.5314
  187POPC  H15Y21610   6.170   4.948   4.467 -0.2407  1.0384  1.2711
  187POPC  C31621611   6.330   4.823   4.368  0.2822 -0.1764  0.2800
  187POPC  H16X21612   6.391   4.739   4.408 -2.2131 -1.5230  1.4694
  187POPC  H16Y21613   6.392   4.911   4.394 -0.4476  0.5755 -0.4736
  187POPC  H16Z21614   6.320   4.826   4.257  0.0559 -1.0322  0.2715
  188POPC     N21615   0.312   5.548   2.218 -0.0142  0.0478 -0.0467
  188POPC   C1221616   0.450   5.561   2.282  0.2335  0.0516  0.2904
  188POPC  H12A21617   0.524   5.566   2.204  0.7687 -0.4331  0.7559
  188POPC  H12B21618   0.483   5.465   2.319  1.1747 -0.4992 -1.8203
  188POPC   C1321619   0.320   5.445   2.106 -0.4610 -0.2144  0.7314
  188POPC  H13A21620   0.409   5.463   2.047  1.1970 -0.9385  2.8305
  188POPC  H13B21621   0.339   5.350   2.154  0.9136 -0.4969 -0.3055
  188POPC  H13C21622   0.238   5.429   2.039  0.0525 -3.8263  0.7409
  188POPC   C1421623   0.216   5.491   2.322 -0.4405 -1.0920  0.4504
  188POPC  H14A21624   0.251   5.399   2.364 -1.3235 -1.3474  0.6431
  188POPC  H14B21625   0.206   5.562   2.403  2.3443  2.1811 -1.7570
  188POPC  H14C21626   0.121   5.464   2.278 -0.6012 -1.7880  1.2039
  188POPC   C1521627   0.269   5.667   2.153  0.1289  0.0816  0.5104
  188POPC  H15A21628   0.162   5.683   2.148  0.0763 -0.4511 -0.0725
  188POPC  H15B21629   0.305   5.683   2.053 -0.4658 -1.4996  0.0128
  188POPC  H15C21630   0.304   5.754   2.207  1.7358 -0.7851  0.9241
  188POPC   C1121631   0.480   5.662   2.393 -0.2446 -0.8747  0.5057
  188POPC  H11A21632   0.556   5.629   2.467 -1.4420  1.5918  3.0332
  188POPC  H11B21633   0.382   5.666   2.446  0.8767 -1.4248  2.7621
  188POPC     P21634   0.625   5.828   2.250 -0.1093  0.4141 -0.0680
  188POPC   O1321635   0.575   5.902   2.135  0.2540 -0.4927 -0.6100
  188POPC   O1421636   0.697   5.703   2.220 -0.1350  0.0698 -0.3319
  188POPC   O1221637   0.501   5.793   2.348 -0.1288  0.3437  0.0950
  188POPC   O1121638   0.716   5.925   2.348 -0.5328  0.2080  0.7141
  188POPC    C121639   0.663   6.028   2.425  0.3157 -0.2794 -0.4000
  188POPC    HA21640   0.558   6.058   2.407 -0.6233 -2.9579  0.2000
  188POPC    HB21641   0.733   6.114   2.420 -0.9227  0.7638 -0.3762
  188POPC    C221642   0.659   5.982   2.575 -0.1116  0.3545 -1.0613
  188POPC    HS21643   0.569   5.919   2.589  1.3774 -1.8257 -0.7858
  188POPC   O2121644   0.640   6.100   2.654  0.5788  0.7266 -0.0033
  188POPC   C2121645   0.510   6.139   2.673 -1.0533 -0.6193  0.0069
  188POPC   O2221646   0.411   6.085   2.632 -0.4193 -0.4270 -0.0812
  188POPC   C2221647   0.517   6.262   2.762 -0.1813  0.0758 -0.1395
  188POPC   H2R21648   0.451   6.339   2.718  1.7206  1.2390 -1.1207
  188POPC   H2S21649   0.621   6.302   2.764 -0.0306 -0.3207  1.7436
  188POPC    C321650   0.785   5.906   2.627 -0.7004 -0.2415 -1.3988
  188POPC    HX21651   0.874   5.972   2.634  0.3502 -1.7973  1.2514
  188POPC    HY21652   0.809   5.830   2.549 -0.1615 -1.9417  0.3552
  188POPC   O3121653   0.755   5.849   2.757 -0.5870 -0.3468  0.2371
  188POPC   C3121654   0.857   5.794   2.815 -0.8122  0.4808  0.4156
  188POPC   O3221655   0.970   5.787   2.775  0.3785  0.7740  0.1652
  188POPC   C3221656   0.802   5.759   2.954 -0.6344  0.3381  0.6904
  188POPC   H2X21657   0.841   5.656   2.965  2.1767  1.1235 -0.8224
  188POPC   H2Y21658   0.691   5.764   2.959 -0.7134  0.8015 -0.9103
  188POPC   C2321659   0.479   6.220   2.903 -0.6991  0.0820 -0.4985
  188POPC   H3R21660   0.549   6.141   2.937 -1.4882  0.2395  1.6044
  188POPC   H3S21661   0.374   6.186   2.892 -0.1838 -1.6947 -0.1741
  188POPC   C2421662   0.486   6.330   3.007  0.1314 -0.0133 -1.1308
  188POPC   H4R21663   0.407   6.406   2.987  0.2212  0.0911 -1.0861
  188POPC   H4S21664   0.586   6.378   3.010  0.7398 -1.2072 -1.4757
  188POPC   C2521665   0.451   6.274   3.149  0.6406 -0.4293 -0.5549
  188POPC   H5R21666   0.526   6.197   3.179  0.0323 -1.5867 -1.8789
  188POPC   H5S21667   0.356   6.217   3.143  0.9278 -1.1914  1.2853
  188POPC   C2621668   0.451   6.386   3.250  0.0729 -0.0784  0.0573
  188POPC   H6R21669   0.353   6.439   3.252  0.3920  0.6010 -1.0288
  188POPC   H6S21670   0.539   6.451   3.227  1.7774 -2.7140 -1.3398
  188POPC   C2721671   0.484   6.337   3.390  0.3413  0.1498 -0.7005
  188POPC   H7R21672   0.584   6.289   3.393 -0.4033 -1.4183  0.8433
  188POPC   H7S21673   0.413   6.258   3.423  1.8025 -1.5256 -1.4013
  188POPC   C2821674   0.482   6.452   3.493 -0.2526 -0.4619 -0.9743
  188POPC   H8R21675   0.379   6.489   3.511  0.4165  0.6133  0.9221
  188POPC   H8S21676   0.551   6.528   3.451  1.1752 -2.7219 -2.9220
  188POPC   C2921677   0.534   6.404   3.627  0.1998  0.1350  1.1414
  188POPC   H9121678   0.641   6.378   3.624  0.3889  0.6489  2.4915
  188POPC  C21021679   0.467   6.393   3.739 -0.2551  0.4739 -1.0864
  188POPC  H10121680   0.518   6.356   3.829 -0.9903 -0.8894 -1.2072
  188POPC  C21121681   0.324   6.432   3.769 -0.3703  0.2360 -0.3897
  188POPC  H11R21682   0.280   6.355   3.835 -0.4784 -0.2059 -0.9716
  188POPC  H11S21683   0.265   6.449   3.677  0.1653  1.3999 -0.5390
  188POPC  C21221684   0.316   6.558   3.846  0.0600 -0.7519 -0.1065
  188POPC  H12R21685   0.211   6.592   3.863  0.8092  1.5422  0.2657
  188POPC  H12S21686   0.372   6.629   3.781 -1.3538  0.7545  0.2581
  188POPC  C21321687   0.376   6.546   3.983 -0.1745  0.5445 -0.4045
  188POPC  H13R21688   0.482   6.511   3.984 -0.8901 -1.9193 -1.6354
  188POPC  H13S21689   0.314   6.471   4.037  0.7212  0.0959  0.0224
  188POPC  C21421690   0.379   6.672   4.067  0.5424  0.2806 -0.2991
  188POPC  H14R21691   0.284   6.723   4.093 -0.1497 -1.1821  0.1231
  188POPC  H14S21692   0.450   6.739   4.014  1.3204 -0.6170 -0.4182
  188POPC  C21521693   0.435   6.638   4.210  0.2670  0.0724  0.7460
  188POPC  H15R21694   0.517   6.565   4.194  0.0004 -0.2247  0.7109
  188POPC  H15S21695   0.350   6.586   4.260 -0.2293  0.1511  0.0207
  188POPC  C21621696   0.468   6.763   4.282 -0.4471  0.3088  0.4392
  188POPC  H16R21697   0.390   6.838   4.256 -0.5164 -0.6303 -2.4750
  188POPC  H16S21698   0.562   6.799   4.236 -2.1691  0.2249 -3.6225
  188POPC  C21721699   0.478   6.738   4.431 -0.5766  0.0025  0.5574
  188POPC  H17R21700   0.563   6.675   4.464 -0.5135  0.6523  1.6687
  188POPC  H17S21701   0.393   6.670   4.456 -1.7423  1.1159 -0.2829
  188POPC  C21821702   0.487   6.859   4.523  0.6821 -0.8884 -0.4803
  188POPC  H18R21703   0.558   6.937   4.489  1.2575 -0.4002  1.6591
  188POPC  H18S21704   0.507   6.842   4.631  1.7557  0.6516 -0.4034
  188POPC  H18T21705   0.385   6.903   4.531  1.2186  0.3645 -0.3398
  188POPC   C3321706   0.876   5.847   3.061 -0.7813 -0.5517  0.2998
  188POPC   H3X21707   0.871   5.957   3.050  2.8745  0.0034  2.7167
  188POPC   H3Y21708   0.985   5.831   3.051 -1.1667 -3.0130 -0.6084
  188POPC   C3421709   0.833   5.794   3.202  0.5861 -0.0431 -0.3977
  188POPC   H4X21710   0.859   5.686   3.214 -0.7968 -0.6942 -2.6852
  188POPC   H4Y21711   0.724   5.812   3.204  0.6277  0.2346 -0.5331
  188POPC   C3521712   0.903   5.868   3.317 -0.3695  0.0574  0.0362
  188POPC   H5X21713   0.909   5.978   3.305  2.2449 -0.0592 -0.3563
  188POPC   H5Y21714   1.012   5.846   3.314 -0.3442  0.1450  0.2928
  188POPC   C3621715   0.857   5.823   3.453  0.5844  0.0511 -0.6091
  188POPC   H6X21716   0.834   5.714   3.454 -1.6771  0.4080  2.8489
  188POPC   H6Y21717   0.761   5.878   3.465  1.1647  1.0262 -0.3460
  188POPC   C3721718   0.960   5.849   3.564  0.5494  0.3815 -0.2909
  188POPC   H7X21719   0.968   5.960   3.572  0.3149  0.3690  0.1457
  188POPC   H7Y21720   1.057   5.799   3.545 -1.5487 -3.3847 -2.3389
  188POPC   C3821721   0.911   5.800   3.708  0.4297  0.1486 -0.1711
  188POPC   H8X21722   0.924   5.690   3.700 -0.0907  0.0707  0.0080
  188POPC   H8Y21723   0.804   5.821   3.730  0.3373 -1.1020  0.6790
  188POPC   C3921724   0.985   5.866   3.825  0.0472 -0.7182 -0.8533
  188POPC   H9X21725   0.946   5.970   3.829 -1.8950 -1.4363  0.1376
  188POPC   H9Y21726   1.091   5.861   3.795  0.3891 -1.9179  0.4465
  188POPC  C31021727   0.965   5.808   3.970 -0.0658 -0.0028  0.1537
  188POPC  H10X21728   0.978   5.698   3.969 -0.4500 -0.0476 -0.6498
  188POPC  H10Y21729   0.857   5.817   3.994 -0.4883  0.2574 -1.7086
  188POPC  C31121730   1.049   5.878   4.071 -0.1731  0.5366 -0.1898
  188POPC  H11X21731   1.030   5.988   4.067  3.1733  1.1886 -1.2735
  188POPC  H11Y21732   1.157   5.866   4.048 -0.3166 -1.2822 -0.0011
  188POPC  C31221733   1.014   5.830   4.215 -0.2796  0.5487  0.1310
  188POPC  H12X21734   0.904   5.816   4.227 -0.2732 -2.4608 -2.1318
  188POPC  H12Y21735   1.058   5.902   4.287 -0.4571  2.1715 -1.2955
  188POPC  C31321736   1.082   5.694   4.249 -0.2754 -0.2381  0.5087
  188POPC  H13X21737   1.189   5.707   4.222 -0.5006  0.1684 -0.2153
  188POPC  H13Y21738   1.045   5.614   4.182  2.2613 -1.0161 -0.0816
  188POPC  C31421739   1.075   5.658   4.392  0.3108 -0.9851  0.2176
  188POPC  H14X21740   0.993   5.585   4.411  0.3678 -1.9483 -2.7291
  188POPC  H14Y21741   1.057   5.750   4.452  1.7704  1.3268 -2.6531
  188POPC  C31521742   1.212   5.602   4.442 -0.2069 -0.4579  0.1434
  188POPC  H15X21743   1.224   5.624   4.551  0.4589 -0.2177  0.0300
  188POPC  H15Y21744   1.297   5.647   4.386  0.5958 -0.4280  1.3381
  188POPC  C31621745   1.214   5.447   4.428  0.3923 -0.1380 -0.2002
  188POPC  H16X21746   1.129   5.413   4.491 -0.8203 -1.4504 -2.3845
  188POPC  H16Y21747   1.309   5.404   4.465  1.1198 -0.8376 -2.6730
  188POPC  H16Z21748   1.196   5.402   4.328  1.9578  0.1787 -0.6436
  189SAPI   C1221749   0.118   0.092   7.355  0.6101 -0.4925  0.6936
  189SAPI    H221750   0.100  -0.016   7.339  1.3141 -0.5854  0.5095
  189SAPI    O221751  -0.009   0.157   7.331  0.5272 -0.4798 -0.6295
  189SAPI   HO221752  -0.078   0.098   7.363  0.4188  0.0290  0.1210
  189SAPI   C1321753   0.168   0.104   7.493  0.3600 -0.1305 -0.1047
  189SAPI    H321754   0.258   0.039   7.497 -0.4906 -1.6143 -2.9442
  189SAPI    O321755   0.068   0.033   7.579 -0.5724 -0.5458  0.0110
  189SAPI   HO321756   0.110   0.024   7.665  0.1924  0.8953 -0.1936
  189SAPI   C1421757   0.197   0.241   7.535  0.8743 -0.4606  0.3978
  189SAPI    H421758   0.094   0.281   7.547  0.5882 -1.0414 -0.0742
  189SAPI    O421759   0.251   0.245   7.668 -0.6610 -0.0639  0.2968
  189SAPI   HO421760   0.210   0.310   7.726  0.5448  0.2077  0.8793
  189SAPI   C1521761   0.251   0.342   7.429 -0.1267  0.5531 -0.2508
  189SAPI    H521762   0.361   0.338   7.447 -0.1703 -0.6285 -0.1086
  189SAPI    O521763   0.209   0.479   7.446  0.2259 -0.5641  0.6230
  189SAPI   HO521764   0.157   0.507   7.371  2.9363  1.4009 -0.7052
  189SAPI   C1621765   0.237   0.296   7.283  0.7147  1.0467 -1.0584
  189SAPI    H621766   0.140   0.333   7.243  0.6122 -0.1872 -2.0184
  189SAPI    O621767   0.349   0.341   7.205  0.2031 -0.7304  0.6750
  189SAPI   HO621768   0.318   0.423   7.167  2.3503  0.6856  1.7191
  189SAPI   C1121769   0.222   0.147   7.258  0.1083  0.2839 -0.0152
  189SAPI    H121770   0.316   0.090   7.277  0.9472  1.8262  0.6463
  189SAPI     P21771   0.200  -0.018   7.051  0.1246  0.5465  0.2938
  189SAPI   O1321772   0.084  -0.107   7.082 -0.2501 -0.2221 -0.4380
  189SAPI   O1421773   0.341  -0.058   7.089  0.1869 -0.2353  0.0991
  189SAPI   O1221774   0.176   0.129   7.123 -0.0846  0.1238  0.3038
  189SAPI   O1121775   0.198   0.020   6.901  0.0000 -0.3411 -0.1463
  189SAPI    C121776   0.109   0.120   6.856 -0.2648 -0.5302 -0.0065
  189SAPI    HA21777   0.004   0.091   6.874 -0.6236 -0.1778 -1.4492
  189SAPI    HB21778   0.137   0.222   6.893 -0.4956  0.1078 -1.5118
  189SAPI    C221779   0.126   0.158   6.708 -0.1265 -0.1999 -0.2603
  189SAPI    HS21780   0.077   0.071   6.659  0.9137 -0.9448  0.0016
  189SAPI   O2121781   0.257   0.178   6.654  1.0097  0.2145 -0.2770
  189SAPI   C2121782   0.312   0.064   6.619  0.5556 -1.2150 -0.1928
  189SAPI   O2221783   0.263  -0.046   6.619 -0.2418 -0.2087  0.2107
  189SAPI   C2221784   0.453   0.099   6.564  0.1230  0.0471 -0.3740
  189SAPI   H2R21785   0.439   0.189   6.500 -1.5579 -0.7634 -1.2208
  189SAPI   H2S21786   0.519   0.129   6.648  1.5966  0.1342 -1.5357
  189SAPI    C321787   0.039   0.283   6.674 -0.5166  0.2086 -0.2620
  189SAPI    HX21788   0.075   0.375   6.726  0.5921  0.4747 -1.4540
  189SAPI    HY21789  -0.057   0.247   6.716 -0.3417  1.6073  1.4685
  189SAPI   O3121790   0.024   0.319   6.535 -0.6131 -0.2823 -0.8309
  189SAPI   C3121791   0.116   0.400   6.485  0.1963  0.0369  0.2618
  189SAPI   O3221792   0.212   0.443   6.543 -0.2624 -0.7504 -0.0869
  189SAPI   C3221793   0.064   0.450   6.350  0.1072 -0.2474  0.0907
  189SAPI   H2X21794   0.055   0.561   6.357  2.1035  0.0185 -0.8804
  189SAPI   H2Y21795  -0.032   0.399   6.324  0.2331  0.7745 -2.7201
  189SAPI   C2321796   0.529  -0.015   6.491  0.4435  0.4325  0.3932
  189SAPI   H3R21797   0.547  -0.097   6.565  1.1883 -0.7670 -1.0595
  189SAPI   H3S21798   0.630   0.025   6.471  0.2287  0.4773 -0.6264
  189SAPI   C2421799   0.457  -0.074   6.361 -0.9076 -0.0554 -0.9748
  189SAPI   H4R21800   0.358  -0.083   6.411  0.8971 -0.2439  2.9921
  189SAPI   H4S21801   0.495  -0.177   6.339 -1.8143 -0.3807 -1.0650
  189SAPI   C2521802   0.462   0.029   6.250  0.3721  0.5176 -0.0408
  189SAPI   H5R21803   0.370   0.090   6.240  0.5255  0.8741  0.6417
  189SAPI   C2621804   0.555   0.050   6.154  0.6293  0.6518 -0.3601
  189SAPI   H6R21805   0.537   0.141   6.095 -0.4906  1.1008  0.6444
  189SAPI   C2721806   0.685  -0.023   6.140  0.1119  0.4550 -0.1810
  189SAPI   H7R21807   0.671  -0.122   6.090  1.2017  1.6296 -3.0775
  189SAPI   H7S21808   0.718  -0.041   6.244  2.5812  1.2906 -0.7434
  189SAPI   C2821809   0.781   0.064   6.064  0.1559  0.2095 -0.6775
  189SAPI   H8R21810   0.849   0.132   6.118  0.6428 -0.1089 -0.8785
  189SAPI   C2921811   0.820   0.040   5.940  0.6507  0.5464  0.2630
  189SAPI   H9R21812   0.895   0.102   5.887  1.2353 -1.3669 -1.2613
  189SAPI  C21021813   0.763  -0.057   5.841 -0.1454  0.4631  0.6439
  189SAPI  H10R21814   0.674  -0.110   5.881 -0.9394 -0.5358 -2.1509
  189SAPI  H10S21815   0.842  -0.127   5.808 -1.2035 -1.0775  1.2852
  189SAPI  C21121816   0.696   0.016   5.721  0.1659 -0.1479  0.1035
  189SAPI  H11R21817   0.640   0.106   5.748 -0.3079  0.3481 -2.3091
  189SAPI  C21221818   0.689  -0.021   5.587  0.1485 -0.0371 -0.5857
  189SAPI  H12R21819   0.628   0.040   5.519 -1.7409 -1.8145 -0.6136
  189SAPI  C21321820   0.750  -0.140   5.526 -0.7657  0.8173 -0.3859
  189SAPI  H13R21821   0.693  -0.165   5.434  1.6840  0.5170 -1.9239
  189SAPI  H13S21822   0.746  -0.230   5.591  1.6915  0.6191 -0.4040
  189SAPI  C21421823   0.899  -0.133   5.480 -0.5330  0.5441 -0.1303
  189SAPI  H14R21824   0.955  -0.199   5.547 -0.3307  1.2228  0.3782
  189SAPI  C21521825   0.950  -0.051   5.384  0.3865  1.0334 -0.2017
  189SAPI  H15R21826   1.057  -0.063   5.361  0.1564  1.3197 -1.4947
  189SAPI  C21621827   0.871   0.038   5.288 -0.0732  0.0552  0.1675
  189SAPI  H16R21828   0.933   0.128   5.267 -2.3390  1.7445  0.3554
  189SAPI  H16S21829   0.779   0.071   5.340  0.3198  1.8944 -0.2488
  189SAPI  C21721830   0.841  -0.029   5.157 -0.6944 -0.8104  0.5829
  189SAPI  H17R21831   0.793  -0.126   5.182 -0.8226 -0.3107  2.4197
  189SAPI  H17S21832   0.935  -0.045   5.101 -0.2439  3.7032 -0.2890
  189SAPI  C21821833   0.744   0.051   5.069  0.7940  0.0525  0.6190
  189SAPI  H18R21834   0.745   0.021   4.962 -2.6940 -0.6164  0.6518
  189SAPI  H18S21835   0.791   0.150   5.086  1.2683 -0.5413  3.2173
  189SAPI  C21921836   0.594   0.063   5.119 -0.1284 -0.8628  0.1480
  189SAPI  H19R21837   0.592   0.108   5.221 -1.6503  0.2048 -0.3115
  189SAPI  H19S21838   0.551  -0.039   5.122 -0.8319 -0.5827 -0.2405
  189SAPI  C22021839   0.513   0.156   5.031  0.3370  0.5396  0.7733
  189SAPI  H20R21840   0.515   0.121   4.925 -0.0097 -1.0226  1.2615
  189SAPI  H20S21841   0.565   0.254   5.039 -1.0610  1.3507  0.3488
  189SAPI  H20T21842   0.409   0.169   5.070 -0.0811 -4.0390  1.6990
  189SAPI   C3321843   0.161   0.421   6.234 -1.2346  0.3739  0.0050
  189SAPI   H3X21844   0.267   0.443   6.259 -0.4537 -0.0384 -2.6479
  189SAPI   H3Y21845   0.140   0.485   6.146  2.8030 -1.4558 -2.5861
  189SAPI   C3421846   0.132   0.280   6.179  0.2424 -0.1850 -0.0777
  189SAPI   H4X21847   0.027   0.245   6.182  0.4768 -0.9294 -0.3253
  189SAPI   H4Y21848   0.178   0.209   6.252  1.1758 -0.8441 -1.2581
  189SAPI   C3521849   0.179   0.247   6.036 -0.4497  0.4729  0.3913
  189SAPI   H5X21850   0.159   0.141   6.011 -0.2361  0.2094  1.3390
  189SAPI   H5Y21851   0.288   0.270   6.034 -0.0855 -0.8236  2.5379
  189SAPI   C3621852   0.114   0.343   5.936 -0.2592  0.1898 -0.7959
  189SAPI   H6X21853   0.132   0.453   5.937 -0.2882  0.3144  3.3285
  189SAPI   H6Y21854   0.004   0.334   5.947 -0.4271  0.2910 -2.2130
  189SAPI   C3721855   0.148   0.301   5.788  0.8976 -0.6915 -0.1954
  189SAPI   H7X21856   0.095   0.382   5.733  1.6657 -1.3980 -2.0492
  189SAPI   H7Y21857   0.107   0.201   5.765 -1.2698 -0.2163  1.2628
  189SAPI   C3821858   0.294   0.320   5.750  0.3975  0.2378  0.4304
  189SAPI   H8X21859   0.358   0.265   5.822 -0.6314 -1.9891 -0.2590
  189SAPI   H8Y21860   0.321   0.428   5.742  0.4747  0.5172  3.4762
  189SAPI   C3921861   0.317   0.255   5.608  0.2291  0.7480 -0.3656
  189SAPI   H9X21862   0.417   0.285   5.570  1.1789 -1.8970 -0.1445
  189SAPI   H9Y21863   0.233   0.297   5.549 -1.4124 -1.2685  0.4191
  189SAPI  C31021864   0.313   0.102   5.611  0.0352  0.0988  0.3161
  189SAPI  H10X21865   0.219   0.058   5.651 -0.0586 -0.7869 -0.8258
  189SAPI  H10Y21866   0.393   0.064   5.679  1.3886 -0.2323 -1.3987
  189SAPI  C31121867   0.333   0.048   5.471  0.5129 -0.8118  0.7609
  189SAPI  H11X21868   0.341  -0.063   5.477  0.7726 -0.9446 -1.1837
  189SAPI  H11Y21869   0.428   0.085   5.426 -0.3240  0.0373 -0.3762
  189SAPI  C31221870   0.218   0.087   5.380 -0.6087 -0.0170 -0.6424
  189SAPI  H12X21871   0.247   0.189   5.349  1.7964 -1.3486 -3.2310
  189SAPI  H12Y21872   0.121   0.088   5.435 -2.3119  2.0273 -3.4304
  189SAPI  C31321873   0.210  -0.003   5.253  0.2136  0.4474  0.2903
  189SAPI  H13X21874   0.171  -0.106   5.271  0.6366  0.0697 -0.8681
  189SAPI  H13Y21875   0.317  -0.017   5.226  0.0586  0.3274 -0.2690
  189SAPI  C31421876   0.151   0.079   5.138  0.2577 -0.4531  0.2664
  189SAPI  H14X21877   0.201   0.178   5.135  0.4160 -0.4732  1.6831
  189SAPI  H14Y21878   0.045   0.095   5.170  0.5386 -0.5837  1.3109
  189SAPI  C31521879   0.156  -0.004   5.006 -0.2852  0.1520 -0.5970
  189SAPI  H15X21880   0.123  -0.110   5.016  3.0610 -1.1122 -1.5288
  189SAPI  H15Y21881   0.266   0.002   4.994 -0.1851  2.7078  0.9278
  189SAPI  C31621882   0.078   0.067   4.894  0.0669  0.5828  0.4527
  189SAPI  H16X21883   0.098   0.012   4.800 -2.5923 -0.8560  0.6381
  189SAPI  H16Y21884   0.124   0.166   4.873 -0.8142  0.4769 -2.2876
  189SAPI  C31721885  -0.073   0.092   4.920 -0.4899  0.2566  0.0460
  189SAPI  H17X21886  -0.099   0.151   4.830  0.3023  0.1448 -0.2655
  189SAPI  H17Y21887  -0.083   0.152   5.013  1.7191  1.3163 -0.3224
  189SAPI  C31821888  -0.166  -0.030   4.938 -0.2294  0.2023 -0.5113
  189SAPI  H18X21889  -0.139  -0.094   4.852  1.0277  0.5594 -0.4027
  189SAPI  H18Y21890  -0.273  -0.005   4.924 -0.5487 -0.4191  0.6834
  189SAPI  H18Z21891  -0.150  -0.081   5.036 -3.2387 -0.9932 -0.5485
  190SAPI   C1221892   0.621   4.888   6.656  0.5761 -0.0687  0.0166
  190SAPI    H221893   0.712   4.870   6.594  1.1333  0.3244  0.7015
  190SAPI    O221894   0.575   5.026   6.639 -0.2074  0.0037 -0.2759
  190SAPI   HO221895   0.528   5.057   6.716  0.4141  0.9498 -0.2645
  190SAPI   C1321896   0.519   4.785   6.613  0.7924  0.6169  0.3895
  190SAPI    H321897   0.567   4.686   6.629 -0.6741 -0.8497 -3.1221
  190SAPI    O321898   0.494   4.778   6.473  0.0056  0.1651  0.3678
  190SAPI   HO321899   0.428   4.845   6.453 -1.1181 -0.6575  1.2162
  190SAPI   C1421900   0.393   4.799   6.694  0.5765  0.3783  0.2689
  190SAPI    H421901   0.351   4.901   6.685 -0.9466  0.0202  2.4026
  190SAPI    O421902   0.290   4.705   6.655  0.3079  0.4565  0.4638
  190SAPI   HO421903   0.201   4.740   6.646  0.3199  0.6281  1.0172
  190SAPI   C1521904   0.425   4.788   6.849 -0.8737 -0.1361  0.1582
  190SAPI    H521905   0.447   4.680   6.854  1.3386  0.1540 -1.6271
  190SAPI    O521906   0.306   4.816   6.923  0.0570  0.0824  0.1134
  190SAPI   HO521907   0.285   4.907   6.899  2.0507  0.2375 -1.2752
  190SAPI   C1621908   0.553   4.869   6.894  0.2446 -0.6971  0.0406
  190SAPI    H621909   0.524   4.977   6.892 -3.7280 -1.6328 -0.1174
  190SAPI    O621910   0.596   4.842   7.024  0.1742 -0.3987  0.0532
  190SAPI   HO621911   0.625   4.926   7.059  1.5170 -1.3628  1.4042
  190SAPI   C1121912   0.668   4.851   6.797 -0.1471 -0.5797  1.1458
  190SAPI    H121913   0.687   4.742   6.793 -1.9691 -0.8848 -0.6045
  190SAPI     P21914   0.931   4.862   6.847  0.1728 -0.4622 -0.2970
  190SAPI   O1321915   0.900   4.738   6.919  0.1979 -0.2112  0.0899
  190SAPI   O1421916   1.018   4.964   6.917  0.3642  0.1328  0.2914
  190SAPI   O1221917   0.784   4.935   6.827  0.2274 -0.1399 -0.6954
  190SAPI   O1121918   0.971   4.831   6.699  0.0121 -0.0446 -0.4450
  190SAPI    C121919   1.018   4.934   6.617 -0.0962 -0.0975 -0.2518
  190SAPI    HA21920   0.935   5.004   6.591 -1.0991 -0.1804  2.4428
  190SAPI    HB21921   1.093   5.003   6.662 -1.3693  1.1185  0.0900
  190SAPI    C221922   1.091   4.888   6.485  0.3604 -0.1145 -0.5133
  190SAPI    HS21923   1.135   4.978   6.438  1.2748 -1.1266 -1.6696
  190SAPI   O2121924   1.019   4.810   6.390 -0.2136  0.3027 -0.4219
  190SAPI   C2121925   0.908   4.867   6.350  0.1129  0.2827 -0.1650
  190SAPI   O2221926   0.882   4.985   6.356  0.0285  0.2071 -0.6322
  190SAPI   C2221927   0.818   4.774   6.264 -0.5631  0.0906 -0.2584
  190SAPI   H2R21928   0.876   4.680   6.249  1.4700  1.2929 -0.2150
  190SAPI   H2S21929   0.724   4.740   6.314  0.0636  0.0093  0.8764
  190SAPI    C321930   1.211   4.808   6.546 -0.4431  0.7214 -0.0203
  190SAPI    HX21931   1.178   4.738   6.625  3.8088 -0.8512  0.6466
  190SAPI    HY21932   1.264   4.894   6.591 -1.7547  1.6933 -0.2817
  190SAPI   O3121933   1.301   4.732   6.455  0.2261  0.7346  0.2125
  190SAPI   C3121934   1.412   4.709   6.505  0.0216  0.1414 -0.3155
  190SAPI   O3221935   1.458   4.755   6.611  0.3608 -0.2864  0.1601
  190SAPI   C3221936   1.494   4.618   6.411  0.2251  0.4396 -0.1870
  190SAPI   H2X21937   1.433   4.587   6.324  0.8832 -0.0614 -0.4705
  190SAPI   H2Y21938   1.525   4.532   6.474  0.0086 -0.4354 -1.2553
  190SAPI   C2321939   0.773   4.841   6.130  0.3206 -0.0658 -0.2037
  190SAPI   H3R21940   0.726   4.942   6.133  1.5282  0.4824  1.7731
  190SAPI   H3S21941   0.688   4.779   6.093 -0.6556  0.7724  0.5775
  190SAPI   C2421942   0.874   4.858   6.022  0.1833 -0.4538 -1.1375
  190SAPI   H4R21943   0.979   4.864   6.057 -0.5765 -2.4958  1.9761
  190SAPI   H4S21944   0.852   4.958   5.980  0.0577  0.1759  0.3675
  190SAPI   C2521945   0.865   4.753   5.919 -1.0886 -0.0407  0.3141
  190SAPI   H5R21946   0.917   4.660   5.946  0.9252  0.9751  0.0926
  190SAPI   C2621947   0.791   4.750   5.808  0.1956  1.1491  0.0491
  190SAPI   H6R21948   0.800   4.658   5.749  2.4175 -1.1456  3.5806
  190SAPI   C2721949   0.705   4.861   5.750 -0.0569  0.3333 -0.4802
  190SAPI   H7R21950   0.681   4.925   5.838  1.6202 -1.9111  1.7565
  190SAPI   H7S21951   0.607   4.824   5.715  1.1224 -4.2163  0.4103
  190SAPI   C2821952   0.795   4.948   5.663  0.0210  0.5840  0.0841
  190SAPI   H8R21953   0.894   4.963   5.707  0.9619 -0.8822 -1.4035
  190SAPI   C2921954   0.771   4.989   5.538  0.1157 -0.2819  0.1941
  190SAPI   H9R21955   0.850   5.050   5.491  0.0090  0.1775  0.5986
  190SAPI  C21021956   0.642   4.978   5.457 -0.2366  0.1743 -0.1958
  190SAPI  H10R21957   0.599   5.077   5.428  0.5680  1.4254  2.5693
  190SAPI  H10S21958   0.569   4.933   5.527  0.7835  1.0004  1.4603
  190SAPI  C21121959   0.656   4.878   5.344  0.1473  0.0091  0.1696
  190SAPI  H11R21960   0.691   4.778   5.374 -0.6895  0.4353  2.8349
  190SAPI  C21221961   0.648   4.908   5.213 -0.2333  0.5546 -0.1551
  190SAPI  H12R21962   0.683   4.827   5.147  0.7567  2.6432 -2.3361
  190SAPI  C21321963   0.622   5.041   5.147  0.5213  0.3334  0.1045
  190SAPI  H13R21964   0.633   5.125   5.219 -2.9223  0.0281  1.1699
  190SAPI  H13S21965   0.513   5.055   5.132 -0.0671 -2.2372  1.3332
  190SAPI  C21421966   0.698   5.071   5.018 -0.6212  0.3399  0.1977
  190SAPI  H14R21967   0.751   5.168   5.020 -1.2833  0.7038  0.6583
  190SAPI  C21521968   0.678   5.004   4.897 -0.5653  0.0596 -0.1193
  190SAPI  H15R21969   0.750   5.031   4.818 -0.1791  1.0244  0.5407
  190SAPI  C21621970   0.600   4.884   4.859  0.8181 -0.3793  0.2941
  190SAPI  H16R21971   0.545   4.852   4.950 -0.0244 -2.4320 -0.8854
  190SAPI  H16S21972   0.670   4.804   4.825  0.1501  0.1780 -2.6189
  190SAPI  C21721973   0.500   4.898   4.740 -0.3266 -0.3434 -0.1830
  190SAPI  H17R21974   0.403   4.936   4.779  0.4778  0.5873  0.9983
  190SAPI  H17S21975   0.476   4.794   4.711 -2.4199  0.2735 -0.8058
  190SAPI  C21821976   0.557   4.984   4.629  0.1199 -0.0393 -0.4186
  190SAPI  H18R21977   0.655   4.949   4.589 -0.5889 -1.7593 -0.7432
  190SAPI  H18S21978   0.565   5.088   4.664  0.3525  0.6467 -2.3744
  190SAPI  C21921979   0.461   4.977   4.505  0.3826 -0.7840  0.3070
  190SAPI  H19R21980   0.505   5.035   4.421  0.4382 -2.0109 -0.5429
  190SAPI  H19S21981   0.372   5.035   4.537  0.1271 -2.0779  2.1317
  190SAPI  C22021982   0.419   4.850   4.430  0.5121  0.0261 -0.2675
  190SAPI  H20R21983   0.345   4.876   4.351 -0.1432  1.2065  0.7123
  190SAPI  H20S21984   0.372   4.774   4.496  0.8247  0.3356  0.3145
  190SAPI  H20T21985   0.500   4.793   4.379 -1.1518 -3.1432  0.4075
  190SAPI   C3321986   1.627   4.684   6.357 -0.3718 -0.4235 -0.4074
  190SAPI   H3X21987   1.693   4.602   6.320  0.2656 -0.1013 -0.0169
  190SAPI   H3Y21988   1.675   4.729   6.447  0.0984 -0.3256 -0.7059
  190SAPI   C3421989   1.609   4.795   6.251  0.5447  0.7088  0.1134
  190SAPI   H4X21990   1.711   4.838   6.240  1.0509  0.6316  3.4348
  190SAPI   H4Y21991   1.543   4.881   6.277 -1.3576  0.4162 -3.1791
  190SAPI   C3521992   1.578   4.735   6.119 -0.2959  0.6753  0.2842
  190SAPI   H5X21993   1.503   4.654   6.124  1.1854 -0.9307 -1.6733
  190SAPI   H5Y21994   1.662   4.682   6.069 -1.4269 -2.1670  1.2399
  190SAPI   C3621995   1.517   4.835   6.024  0.1483 -0.7710  0.4702
  190SAPI   H6X21996   1.587   4.920   6.007 -0.1171 -0.2918  1.6955
  190SAPI   H6Y21997   1.427   4.885   6.064  1.4275  1.2675  0.9468
  190SAPI   C3721998   1.472   4.762   5.891 -0.3283  0.7223  0.2370
  190SAPI   H7X21999   1.409   4.675   5.918 -0.4707  1.5597  2.8818
  190SAPI   H7Y22000   1.556   4.722   5.831 -0.9472 -1.6705  0.8658
  190SAPI   C3822001   1.386   4.851   5.803  0.2124 -0.2228 -0.3241
  190SAPI   H8X22002   1.457   4.925   5.759  0.1098 -0.4123 -0.8233
  190SAPI   H8Y22003   1.305   4.900   5.860 -0.8563 -1.4507 -0.7225
  190SAPI   C3922004   1.319   4.775   5.683 -0.2086 -0.5523  0.2887
  190SAPI   H9X22005   1.274   4.678   5.714  0.3017 -1.1137 -0.6475
  190SAPI   H9Y22006   1.397   4.746   5.609 -0.5205  0.1063 -0.3004
  190SAPI  C31022007   1.223   4.857   5.596  0.0738  0.1671 -0.3005
  190SAPI  H10X22008   1.279   4.927   5.531 -0.1871  0.5037 -0.1646
  190SAPI  H10Y22009   1.142   4.914   5.647 -1.1271 -0.4179 -1.5064
  190SAPI  C31122010   1.154   4.762   5.501  0.2002 -0.5263 -0.5211
  190SAPI  H11X22011   1.104   4.678   5.553  0.5646 -0.1018  0.5343
  190SAPI  H11Y22012   1.236   4.725   5.435  0.0042 -0.4329 -0.8206
  190SAPI  C31222013   1.066   4.843   5.399  0.4749  0.6144 -0.2177
  190SAPI  H12X22014   1.124   4.936   5.379 -0.5995  0.9002 -2.2907
  190SAPI  H12Y22015   0.967   4.877   5.437 -0.1526  0.3601 -1.5822
  190SAPI  C31322016   1.061   4.772   5.263  0.3691 -0.2990  0.6794
  190SAPI  H13X22017   0.975   4.701   5.254  0.0089  0.2786 -0.7089
  190SAPI  H13Y22018   1.165   4.735   5.253  1.5067  2.8652 -0.1601
  190SAPI  C31422019   1.054   4.878   5.138  0.0625  0.2179 -0.7055
  190SAPI  H14X22020   1.125   4.958   5.167  0.2648 -0.7607  1.7071
  190SAPI  H14Y22021   0.952   4.922   5.132  0.2131  0.7138  0.2398
  190SAPI  C31522022   1.099   4.823   5.012 -0.1326  0.4396  1.2310
  190SAPI  H15X22023   1.203   4.787   5.029 -0.3204  1.4001  5.2426
  190SAPI  H15Y22024   1.095   4.896   4.928 -0.4118  2.2375  2.7422
  190SAPI  C31622025   1.014   4.697   4.981 -0.2623 -0.2818  0.3908
  190SAPI  H16X22026   0.913   4.744   4.980 -0.4386 -0.6176  1.3958
  190SAPI  H16Y22027   1.028   4.625   5.064 -0.8202 -0.1251  0.6302
  190SAPI  C31722028   1.043   4.630   4.847  0.1716  0.7444 -0.0775
  190SAPI  H17X22029   1.001   4.690   4.763 -0.5694 -0.6428 -0.7298
  190SAPI  H17Y22030   0.983   4.538   4.862  1.8655  0.0040  2.6527
  190SAPI  C31822031   1.193   4.606   4.821  0.1183  0.2364 -0.5100
  190SAPI  H18X22032   1.210   4.584   4.713  1.4420  0.1796 -0.3124
  190SAPI  H18Y22033   1.225   4.523   4.887 -0.0695 -1.9709 -3.0151
  190SAPI  H18Z22034   1.248   4.702   4.834 -0.8514  1.0539 -2.0897
  191SAPI   C1222035   2.828   2.871   2.112 -0.3121  0.4550 -0.0870
  191SAPI    H222036   2.827   2.770   2.160 -1.4932  0.2037 -0.6136
  191SAPI    O222037   2.906   2.966   2.188  0.1052 -0.1472  0.0291
  191SAPI   HO222038   2.880   2.962   2.281 -2.3831 -0.6612 -0.5946
  191SAPI   C1322039   2.888   2.842   1.977  0.5000 -0.2766 -0.3705
  191SAPI    H322040   2.832   2.760   1.928 -0.3320  0.8095 -1.2869
  191SAPI    O322041   3.015   2.783   1.993  0.0092 -0.4910 -0.3545
  191SAPI   HO322042   3.064   2.854   2.036 -0.3397 -2.8022  4.4950
  191SAPI   C1422043   2.889   2.958   1.886  0.6117  0.1167  0.2171
  191SAPI    H422044   2.971   3.028   1.914 -0.9319  2.5945 -1.1146
  191SAPI    O422045   2.917   2.907   1.754  0.1010  0.0603 -0.4292
  191SAPI   HO422046   2.865   2.827   1.743  0.7110 -0.2374 -1.3616
  191SAPI   C1522047   2.762   3.048   1.894  0.2656 -0.3275 -0.4141
  191SAPI    H522048   2.694   3.028   1.808  1.3835  0.5537 -1.5522
  191SAPI    O522049   2.797   3.188   1.868  0.1621 -0.5457  0.3848
  191SAPI   HO522050   2.752   3.221   1.790 -1.7490 -0.8143  1.3169
  191SAPI   C1622051   2.666   3.040   2.017  0.3300 -1.0392  0.4041
  191SAPI    H622052   2.697   3.117   2.091  0.9332 -0.0192 -0.8697
  191SAPI    O622053   2.532   3.068   1.980  0.0151 -0.0831 -0.1915
  191SAPI   HO622054   2.486   2.984   1.970  0.0817 -0.1544  0.0899
  191SAPI   C1122055   2.677   2.907   2.084  0.3845  0.1689 -0.0933
  191SAPI    H122056   2.636   2.824   2.023  0.4733  0.0051  0.0711
  191SAPI     P22057   2.560   2.767   2.285  0.2837 -0.2701  0.0747
  191SAPI   O1322058   2.480   2.706   2.180 -0.0580  0.3039  0.4790
  191SAPI   O1422059   2.489   2.802   2.407 -0.0155  0.0280  0.7885
  191SAPI   O1222060   2.618   2.907   2.215  0.1758  0.3462  0.6152
  191SAPI   O1122061   2.672   2.667   2.321 -0.6018 -0.4093  0.5208
  191SAPI    C122062   2.776   2.688   2.414 -0.1097  0.2755 -0.1214
  191SAPI    HA22063   2.869   2.670   2.356 -0.1838  2.9518 -1.2203
  191SAPI    HB22064   2.778   2.790   2.457  1.7611  0.0363  0.4400
  191SAPI    C222065   2.768   2.594   2.529 -0.0568 -0.2022 -0.6286
  191SAPI    HS22066   2.776   2.494   2.481  0.9845  0.1916 -1.3235
  191SAPI   O2122067   2.642   2.611   2.591 -0.2288  0.1913  0.0259
  191SAPI   C2122068   2.547   2.512   2.600 -0.4968  0.8545  0.1430
  191SAPI   O2222069   2.565   2.396   2.556 -0.2689  0.0226 -0.3091
  191SAPI   C2222070   2.420   2.562   2.668  0.5330  0.1774  0.1052
  191SAPI   H2R22071   2.422   2.547   2.778 -2.1883  0.0877  0.2077
  191SAPI   H2S22072   2.427   2.671   2.648 -0.6218 -0.0220 -1.5318
  191SAPI    C322073   2.878   2.613   2.631 -0.7590  0.0450 -0.3019
  191SAPI    HX22074   2.888   2.717   2.670  0.2294 -0.2701  0.3260
  191SAPI    HY22075   2.977   2.608   2.580 -0.6408  0.3376 -0.1101
  191SAPI   O3122076   2.867   2.502   2.731  0.0059 -0.2568  0.2410
  191SAPI   C3122077   2.810   2.533   2.845 -0.2116  0.0577  0.1118
  191SAPI   O3222078   2.764   2.643   2.871  0.1500 -0.0997  0.2987
  191SAPI   C3222079   2.806   2.415   2.935  0.5796  0.6411 -0.1185
  191SAPI   H2X22080   2.873   2.339   2.889  0.6790  0.1360  0.8230
  191SAPI   H2Y22081   2.706   2.366   2.937  1.1799 -0.6126  1.9876
  191SAPI   C2322082   2.288   2.506   2.610  0.0711 -0.1405 -0.7894
  191SAPI   H3R22083   2.302   2.397   2.592 -0.9925 -0.4632  0.1673
  191SAPI   H3S22084   2.277   2.543   2.506  0.0467  0.9579 -0.4094
  191SAPI   C2422085   2.169   2.540   2.707 -0.1664 -0.4569 -0.4734
  191SAPI   H4R22086   2.086   2.565   2.639 -0.6800 -2.3224 -0.5812
  191SAPI   H4S22087   2.209   2.629   2.761  0.6423 -1.3661  0.4769
  191SAPI   C2522088   2.129   2.426   2.793 -0.5222  0.2822 -0.1408
  191SAPI   H5R22089   2.114   2.324   2.756  2.4594 -0.0943 -0.5033
  191SAPI   C2622090   2.138   2.439   2.928 -0.7636 -0.1999 -0.4227
  191SAPI   H6R22091   2.115   2.350   2.987  0.0410  1.3241  2.3881
  191SAPI   C2722092   2.172   2.565   3.009 -0.4679 -0.4898 -0.5323
  191SAPI   H7R22093   2.219   2.647   2.951 -2.0553  0.0409 -1.1381
  191SAPI   H7S22094   2.251   2.543   3.083  2.1140  0.5374 -2.8226
  191SAPI   C2822095   2.037   2.602   3.075 -0.3905  0.2829  0.6977
  191SAPI   H8R22096   1.952   2.602   3.005  0.2109 -1.2860 -0.0856
  191SAPI   C2922097   2.020   2.638   3.201  0.0179 -0.3171 -0.0867
  191SAPI   H9R22098   1.922   2.666   3.243  1.0952  1.1367  1.6193
  191SAPI  C21022099   2.121   2.622   3.315 -0.1491  0.2401 -0.3023
  191SAPI  H10R22100   2.219   2.614   3.264 -1.0196  0.6512 -2.1001
  191SAPI  H10S22101   2.112   2.530   3.376  0.8673  1.0153  1.0753
  191SAPI  C21122102   2.099   2.735   3.414 -0.1739  0.2858  0.1066
  191SAPI  H11R22103   2.128   2.830   3.368  2.3944 -1.5481 -2.4254
  191SAPI  C21222104   2.054   2.720   3.545  0.0123 -0.3387 -0.1707
  191SAPI  H12R22105   2.058   2.811   3.605  2.1163 -0.8222  0.4788
  191SAPI  C21322106   2.011   2.598   3.615  0.0501 -0.5031  0.3485
  191SAPI  H13R22107   2.085   2.569   3.693 -0.4373 -2.6164  0.1084
  191SAPI  H13S22108   2.002   2.513   3.544 -3.5285  0.4314 -0.4865
  191SAPI  C21422109   1.880   2.598   3.683  0.5512 -0.4899 -0.7293
  191SAPI  H14R22110   1.793   2.594   3.615  0.6902 -1.9953 -0.8406
  191SAPI  C21522111   1.854   2.611   3.816 -0.1706  0.4847  0.0305
  191SAPI  H15R22112   1.751   2.625   3.852  0.3867  4.6019  0.5087
  191SAPI  C21622113   1.950   2.640   3.931  0.0494  0.3887  0.5770
  191SAPI  H16R22114   1.920   2.726   3.995  1.0434  0.0004  1.5974
  191SAPI  H16S22115   2.053   2.667   3.900 -0.6996  0.3957 -2.1557
  191SAPI  C21722116   1.966   2.517   4.019 -0.1099 -0.5303  0.7451
  191SAPI  H17R22117   2.031   2.557   4.099  1.9842 -1.9771 -0.1495
  191SAPI  H17S22118   2.024   2.438   3.968 -0.3558 -1.0855  1.2998
  191SAPI  C21822119   1.841   2.477   4.092  0.7504  0.1896  0.0491
  191SAPI  H18R22120   1.763   2.556   4.094 -0.7426 -1.2266  1.3102
  191SAPI  H18S22121   1.869   2.435   4.191 -0.3710 -1.8836 -0.4382
  191SAPI  C21922122   1.775   2.353   4.019 -0.4460  0.6610 -0.4637
  191SAPI  H19R22123   1.849   2.269   4.016  0.8053  1.6906  0.4240
  191SAPI  H19S22124   1.747   2.375   3.913  1.4673  0.7298 -1.0017
  191SAPI  C22022125   1.644   2.315   4.075  1.1411  0.0341 -0.6062
  191SAPI  H20R22126   1.649   2.290   4.183  1.7622  0.5623 -0.5069
  191SAPI  H20S22127   1.599   2.223   4.030 -1.7599  0.2735  1.5306
  191SAPI  H20T22128   1.573   2.399   4.059 -0.7854 -1.1148  1.3584
  191SAPI   C3322129   2.869   2.447   3.072  1.0798  0.1553 -0.0482
  191SAPI   H3X22130   2.808   2.531   3.112 -0.9050 -1.0938 -0.2854
  191SAPI   H3Y22131   2.967   2.494   3.051  0.2064  0.6491 -3.7985
  191SAPI   C3422132   2.865   2.336   3.176 -0.2060  0.1479 -0.4680
  191SAPI   H4X22133   2.953   2.269   3.170 -0.5495 -0.2606 -1.0692
  191SAPI   H4Y22134   2.776   2.270   3.162  0.6708 -1.5396  1.3354
  191SAPI   C3522135   2.853   2.399   3.319 -0.1341 -0.0158 -0.0084
  191SAPI   H5X22136   2.766   2.468   3.316  0.2200  0.4035 -0.9863
  191SAPI   H5Y22137   2.943   2.460   3.342  1.1056 -2.1480  1.0854
  191SAPI   C3622138   2.851   2.304   3.437 -0.0086  0.2697 -0.2730
  191SAPI   H6X22139   2.951   2.260   3.456 -0.5538 -0.5920  0.7329
  191SAPI   H6Y22140   2.770   2.229   3.422 -1.9655  2.5230 -1.6995
  191SAPI   C3722141   2.807   2.380   3.564 -0.5803  0.0275 -0.1629
  191SAPI   H7X22142   2.702   2.415   3.553 -0.6373 -0.6052 -2.0392
  191SAPI   H7Y22143   2.877   2.466   3.573  0.4202 -0.7750 -0.0437
  191SAPI   C3822144   2.835   2.294   3.688  0.0944 -0.0877 -0.5902
  191SAPI   H8X22145   2.946   2.290   3.701 -0.0408  2.2612  2.0086
  191SAPI   H8Y22146   2.795   2.190   3.678 -1.8639  0.7502 -2.0196
  191SAPI   C3922147   2.772   2.365   3.811 -0.1661  1.2131 -0.5414
  191SAPI   H9X22148   2.662   2.368   3.795 -0.0709  1.1430 -1.2422
  191SAPI   H9Y22149   2.795   2.473   3.824  1.1030  0.7195  2.2516
  191SAPI  C31022150   2.804   2.290   3.944 -0.9033 -0.0408 -0.0206
  191SAPI  H10X22151   2.912   2.281   3.969 -0.8614  1.7594  0.6321
  191SAPI  H10Y22152   2.764   2.187   3.943 -0.2228 -0.3217  0.8104
  191SAPI  C31122153   2.752   2.359   4.072  0.2077  0.0661  0.5588
  191SAPI  H11X22154   2.655   2.406   4.044 -0.1733 -2.3907 -2.7723
  191SAPI  H11Y22155   2.828   2.435   4.099 -0.3633  0.3240  1.5019
  191SAPI  C31222156   2.725   2.269   4.194  0.2200  0.4760  0.2510
  191SAPI  H12X22157   2.670   2.179   4.160 -0.1847 -0.2361  2.5868
  191SAPI  H12Y22158   2.664   2.324   4.269 -0.1675  1.2948 -0.6352
  191SAPI  C31322159   2.850   2.206   4.252 -0.3356 -0.6585 -0.2009
  191SAPI  H13X22160   2.924   2.278   4.293 -1.1668 -0.2515  0.6311
  191SAPI  H13Y22161   2.891   2.142   4.171 -0.8376 -0.7530 -0.3867
  191SAPI  C31422162   2.814   2.113   4.369  0.3496  0.3300  0.3121
  191SAPI  H14X22163   2.726   2.050   4.344  2.0877 -2.3423  0.4671
  191SAPI  H14Y22164   2.789   2.180   4.454  2.4655  0.8478  0.5843
  191SAPI  C31522165   2.923   2.014   4.412  0.2851  0.0720  0.7958
  191SAPI  H15X22166   3.017   2.073   4.403  1.0171 -0.9977  1.1452
  191SAPI  H15Y22167   2.938   1.941   4.329  0.7437  0.6868  0.3316
  191SAPI  C31622168   2.909   1.953   4.549  0.4845  0.0980 -0.2937
  191SAPI  H16X22169   2.945   1.848   4.544 -0.3486 -0.1587 -1.4912
  191SAPI  H16Y22170   2.800   1.959   4.572  0.6211  2.6377 -0.0447
  191SAPI  C31722171   2.975   2.019   4.670  0.1300 -0.4266 -0.5315
  191SAPI  H17X22172   2.900   2.098   4.695 -0.1334 -0.7364 -0.3432
  191SAPI  H17Y22173   3.068   2.065   4.632 -0.6555  1.6189 -0.1209
  191SAPI  C31822174   3.021   1.923   4.787  0.2490  0.4722  1.2803
  191SAPI  H18X22175   3.059   1.977   4.877  1.8422  0.6342  0.5336
  191SAPI  H18Y22176   3.086   1.839   4.757  1.6351  1.0065  2.5935
  191SAPI  H18Z22177   2.934   1.864   4.823 -0.5684 -0.5495 -2.0327
  192SAPI   C1222178   5.499   5.682   1.836 -0.4323 -0.4046 -0.0145
  192SAPI    H222179   5.610   5.682   1.826 -0.4966  0.6659 -0.9112
  192SAPI    O222180   5.443   5.776   1.749 -0.2948 -0.0623  0.1206
  192SAPI   HO222181   5.516   5.836   1.730  0.8324 -1.8047 -1.3575
  192SAPI   C1322182   5.444   5.548   1.804 -0.3818  0.1958 -0.3264
  192SAPI    H322183   5.484   5.475   1.877 -2.2591 -2.6335 -1.9147
  192SAPI    O322184   5.488   5.516   1.671  0.1553  0.1105  0.4280
  192SAPI   HO322185   5.439   5.574   1.613  0.5995 -1.1805 -1.3271
  192SAPI   C1422186   5.294   5.532   1.820  0.5143 -0.4774  0.5887
  192SAPI    H422187   5.253   5.599   1.741 -1.6180 -1.0232  1.1716
  192SAPI    O422188   5.247   5.397   1.790  0.0527  0.3308  0.2291
  192SAPI   HO422189   5.284   5.357   1.710  0.3008 -1.0912  1.0257
  192SAPI   C1522190   5.237   5.582   1.955 -0.3621  0.3195  0.7024
  192SAPI    H522191   5.247   5.499   2.028 -0.6767 -1.6611 -1.3753
  192SAPI    O522192   5.097   5.595   1.941  0.0215 -0.8018 -0.0140
  192SAPI   HO522193   5.056   5.549   2.014 -1.4861 -0.5894 -0.7046
  192SAPI   C1622194   5.314   5.696   2.022  0.4428  0.0154 -0.3770
  192SAPI    H622195   5.272   5.796   1.996  1.2975  0.2411 -0.9558
  192SAPI    O622196   5.305   5.683   2.161 -0.2991 -0.3066 -0.1578
  192SAPI   HO622197   5.309   5.770   2.202  1.0088 -0.7015  0.6005
  192SAPI   C1122198   5.467   5.705   1.983 -1.1451  0.2626  0.4017
  192SAPI    H122199   5.516   5.621   2.036 -0.4945 -2.0683 -3.4498
  192SAPI     P22200   5.678   5.850   2.077 -0.6478  0.1698 -0.2225
  192SAPI   O1322201   5.738   5.978   2.039 -0.0380  0.1440 -0.1674
  192SAPI   O1422202   5.754   5.723   2.040 -0.2112 -0.0912 -0.0883
  192SAPI   O1222203   5.525   5.831   2.022 -0.6266  0.3378  0.3748
  192SAPI   O1122204   5.663   5.848   2.237 -0.0698 -0.3160 -0.3202
  192SAPI    C122205   5.552   5.909   2.309 -0.0569  1.0164  0.3701
  192SAPI    HA22206   5.516   5.997   2.252 -0.6549  0.8799  0.5304
  192SAPI    HB22207   5.464   5.841   2.308  0.8837 -0.2787 -1.6942
  192SAPI    C222208   5.593   5.954   2.444 -1.1580  0.3237  0.5890
  192SAPI    HS22209   5.643   5.872   2.500 -2.9312 -2.0345 -1.0592
  192SAPI   O2122210   5.473   5.993   2.520 -0.5177 -0.2713  0.6623
  192SAPI   C2122211   5.415   5.912   2.598  0.0361 -0.1098  0.0509
  192SAPI   O2222212   5.436   5.793   2.611  0.3063  0.1820 -0.2220
  192SAPI   C2222213   5.317   6.006   2.669 -0.5993 -0.1090 -0.3083
  192SAPI   H2R22214   5.385   6.076   2.721  0.6556 -1.6004  0.1351
  192SAPI   H2S22215   5.249   6.059   2.599  0.2516 -1.0973 -1.9628
  192SAPI    C322216   5.685   6.082   2.417  0.0173 -1.0550  0.4472
  192SAPI    HX22217   5.624   6.169   2.383  1.9999  1.1744  2.1971
  192SAPI    HY22218   5.753   6.064   2.331  0.2108  1.7720 -0.0910
  192SAPI   O3122219   5.759   6.119   2.535 -0.0190  0.5616  0.5058
  192SAPI   C3122220   5.717   6.224   2.614  0.4947  0.6808  0.0754
  192SAPI   O3222221   5.624   6.296   2.582 -0.3664 -0.8126  0.1784
  192SAPI   C3222222   5.795   6.231   2.746  1.0089  0.4008 -0.0900
  192SAPI   H2X22223   5.903   6.234   2.720  1.0589 -1.7037 -0.2883
  192SAPI   H2Y22224   5.765   6.134   2.791  0.3914  0.8557  0.5052
  192SAPI   C2322225   5.229   5.933   2.780 -0.0970 -0.0672 -0.4643
  192SAPI   H3R22226   5.140   5.888   2.734 -2.0085  0.9779  1.9727
  192SAPI   H3S22227   5.185   6.007   2.851 -0.1072 -0.0763 -0.4610
  192SAPI   C2422228   5.293   5.827   2.873 -0.2466  1.3115 -0.4843
  192SAPI   H4R22229   5.391   5.875   2.893 -0.2459  1.2964 -0.4520
  192SAPI   H4S22230   5.301   5.742   2.801 -1.6779 -0.8689  1.7863
  192SAPI   C2522231   5.216   5.781   2.997  0.9214  0.0855 -0.4800
  192SAPI   H5R22232   5.113   5.744   2.987 -0.2771  2.5786  1.4308
  192SAPI   C2622233   5.262   5.794   3.128 -0.7994 -0.3947 -0.4352
  192SAPI   H6R22234   5.211   5.758   3.218  2.4567 -1.9690  0.9468
  192SAPI   C2722235   5.395   5.847   3.170 -0.8971  0.4720 -0.4512
  192SAPI   H7R22236   5.375   5.941   3.226 -0.2588 -1.2212  2.8650
  192SAPI   H7S22237   5.464   5.878   3.088 -1.1787  1.5111 -0.3094
  192SAPI   C2822238   5.467   5.741   3.260  0.3314 -0.5316  0.7858
  192SAPI   H8R22239   5.526   5.671   3.199 -0.8533 -0.7298 -0.1750
  192SAPI   C2922240   5.484   5.762   3.396 -0.0697  0.1985 -0.4882
  192SAPI   H9R22241   5.546   5.690   3.451 -0.2339  0.0650 -0.4743
  192SAPI  C21022242   5.425   5.866   3.486  0.6980  0.1458  0.0517
  192SAPI  H10R22243   5.365   5.939   3.428  1.1514 -0.7674 -1.6296
  192SAPI  H10S22244   5.510   5.916   3.537  0.3970  2.4054 -1.4952
  192SAPI  C21122245   5.335   5.795   3.587  0.5283 -0.5349  0.7167
  192SAPI  H11R22246   5.293   5.697   3.559 -0.0769  0.3250 -1.6560
  192SAPI  C21222247   5.295   5.840   3.707 -0.5908  0.0978  0.4510
  192SAPI  H12R22248   5.245   5.766   3.771 -0.2077 -1.1540 -0.6715
  192SAPI  C21322249   5.319   5.962   3.780 -0.5310 -0.6114 -0.9925
  192SAPI  H13R22250   5.347   6.051   3.719  1.3289 -0.1286  0.4618
  192SAPI  H13S22251   5.406   5.946   3.847 -0.7476 -1.0371 -0.8066
  192SAPI  C21422252   5.196   5.985   3.863 -0.3226 -0.6255 -0.1735
  192SAPI  H14R22253   5.113   6.040   3.816 -0.8597  0.3716  1.8223
  192SAPI  C21522254   5.177   5.962   3.997 -0.1960  0.4283  0.7067
  192SAPI  H15R22255   5.083   5.993   4.044 -0.5143  3.6940 -1.7416
  192SAPI  C21622256   5.263   5.885   4.095  0.6650 -0.3367  0.0707
  192SAPI  H16R22257   5.351   5.952   4.103  1.1777 -0.8478 -1.0589
  192SAPI  H16S22258   5.306   5.793   4.051  2.0566 -0.3846  1.4716
  192SAPI  C21722259   5.203   5.865   4.239 -0.0264 -0.7870  0.1569
  192SAPI  H17R22260   5.290   5.820   4.292  0.0840 -1.1114 -0.2923
  192SAPI  H17S22261   5.119   5.792   4.243 -0.1734 -0.6523 -0.4334
  192SAPI  C21822262   5.168   6.003   4.304  0.6285  0.0591  0.0667
  192SAPI  H18R22263   5.084   6.047   4.246  0.5837  1.0248  0.8442
  192SAPI  H18S22264   5.258   6.067   4.296  0.2440  0.6258  0.1881
  192SAPI  C21922265   5.115   6.008   4.450  0.3145  0.2783  0.0304
  192SAPI  H19R22266   5.177   5.934   4.504 -1.1726 -0.5792  0.6164
  192SAPI  H19S22267   5.011   5.969   4.444  0.5533 -0.2815 -0.6315
  192SAPI  C22022268   5.128   6.135   4.525 -0.2172  0.0553 -0.4684
  192SAPI  H20R22269   5.047   6.206   4.498 -0.7322 -0.5333 -0.4838
  192SAPI  H20S22270   5.233   6.170   4.514  0.4658 -1.6044  0.3572
  192SAPI  H20T22271   5.117   6.104   4.631  0.6551 -1.2816 -0.7486
  192SAPI   C3322272   5.765   6.356   2.829  0.6754  0.2757  0.2156
  192SAPI   H3X22273   5.656   6.364   2.852  0.3301  0.0302 -1.2043
  192SAPI   H3Y22274   5.796   6.445   2.771 -0.4038  0.1905 -0.5206
  192SAPI   C3422275   5.822   6.343   2.972  0.1922 -0.4896 -0.7451
  192SAPI   H4X22276   5.790   6.428   3.036  2.5498 -0.1393  0.0654
  192SAPI   H4Y22277   5.932   6.349   2.961  0.3785 -1.9731  0.0111
  192SAPI   C3522278   5.799   6.204   3.044  0.4324 -0.2055  0.6798
  192SAPI   H5X22279   5.851   6.121   2.992 -2.6738 -1.0710 -1.3410
  192SAPI   H5Y22280   5.692   6.181   3.026  0.2206  1.1906 -0.0089
  192SAPI   C3622281   5.845   6.199   3.195 -0.0536  0.8429  0.3496
  192SAPI   H6X22282   5.944   6.248   3.206 -0.3226  1.8817 -1.5614
  192SAPI   H6Y22283   5.862   6.092   3.217 -1.1173  0.4759 -0.5050
  192SAPI   C3722284   5.753   6.267   3.298 -0.3417 -0.5433  0.2490
  192SAPI   H7X22285   5.705   6.352   3.246  0.7142 -0.1554 -0.1204
  192SAPI   H7Y22286   5.811   6.308   3.384  1.5823 -1.9195 -0.3301
  192SAPI   C3822287   5.638   6.177   3.347  0.5484 -0.3444  0.0849
  192SAPI   H8X22288   5.667   6.074   3.376 -0.0822 -0.8280 -0.9670
  192SAPI   H8Y22289   5.569   6.168   3.261  0.6872  0.9268 -0.1821
  192SAPI   C3922290   5.579   6.236   3.478 -0.7595 -0.1547  0.4666
  192SAPI   H9X22291   5.475   6.200   3.491 -0.3469 -2.5454 -1.9509
  192SAPI   H9Y22292   5.570   6.344   3.453  0.8798 -0.4649 -1.8621
  192SAPI  C31022293   5.662   6.213   3.600  0.3193 -0.3494 -0.1736
  192SAPI  H10X22294   5.758   6.263   3.579 -0.3032  0.4419 -1.2201
  192SAPI  H10Y22295   5.673   6.104   3.620  2.2142 -0.1251  0.1240
  192SAPI  C31122296   5.609   6.276   3.740 -0.3677  0.2803  0.8762
  192SAPI  H11X22297   5.513   6.226   3.761  1.0609 -2.2300  1.8246
  192SAPI  H11Y22298   5.598   6.386   3.725 -0.8208 -0.0043 -1.1611
  192SAPI  C31222299   5.693   6.235   3.860  0.1308 -0.1948  0.0328
  192SAPI  H12X22300   5.793   6.282   3.866  0.6919 -1.3587  0.0159
  192SAPI  H12Y22301   5.716   6.127   3.854 -2.6917 -0.8916  0.1003
  192SAPI  C31322302   5.609   6.271   3.987 -0.4926 -0.1113  0.0675
  192SAPI  H13X22303   5.516   6.210   3.986 -0.7160  0.2212  0.3667
  192SAPI  H13Y22304   5.584   6.379   3.983 -0.8317 -0.0007  2.8009
  192SAPI  C31422305   5.675   6.240   4.115 -0.5215  0.5951 -0.1524
  192SAPI  H14X22306   5.779   6.280   4.122 -1.6004  3.2717  2.9580
  192SAPI  H14Y22307   5.680   6.129   4.125 -0.0294  0.5927 -0.3787
  192SAPI  C31522308   5.598   6.282   4.241  1.1319 -0.4862 -0.3780
  192SAPI  H15X22309   5.489   6.266   4.231  1.2872 -1.5867 -0.4257
  192SAPI  H15Y22310   5.600   6.393   4.244 -0.6180 -0.3461 -2.3846
  192SAPI  C31622311   5.652   6.217   4.368  0.0379 -0.5237 -0.1743
  192SAPI  H16X22312   5.762   6.220   4.381 -0.2148  1.9078  1.9242
  192SAPI  H16Y22313   5.638   6.109   4.343 -2.6168 -0.1818 -0.4540
  192SAPI  C31722314   5.576   6.243   4.501 -0.2836 -0.8561  0.6189
  192SAPI  H17X22315   5.466   6.241   4.485 -0.4814  0.8078  1.4663
  192SAPI  H17Y22316   5.598   6.350   4.526  0.1709 -1.2992  2.2650
  192SAPI  C31822317   5.623   6.157   4.616 -1.3402 -0.2275  0.0692
  192SAPI  H18X22318   5.625   6.051   4.584  2.3284  0.4362 -2.5199
  192SAPI  H18Y22319   5.548   6.166   4.698  0.0071  0.4121  1.2590
  192SAPI  H18Z22320   5.723   6.186   4.654 -0.2872 -2.4540 -0.8420
  193SOD    SOD22321   2.022   5.343   2.538  0.3504 -0.5814 -0.1148
  194SOD    SOD22322   4.168   1.945   0.601  0.3757  0.2594  0.0873
  195SOD    SOD22323   0.937   3.556   7.201 -0.3910  0.1673 -0.2888
  196SOD    SOD22324   3.854   0.387   0.933 -0.4596  0.0619  0.2841
  197SOD    SOD22325   5.447   3.783   7.665 -0.3097 -0.3547  0.0387
  198SOD    SOD22326   3.584   5.604   6.622  0.3474 -0.1741  0.4200
  199SOD    SOD22327   4.535   4.789   8.035 -0.5176 -0.3588  0.2216
  200SOD    SOD22328   2.156   5.680   0.649  0.6703 -0.1200 -0.1325
  201SOD    SOD22329   1.302   5.122   2.164 -0.5558  0.0972  0.3629
  202SOD    SOD22330   0.317   0.612   6.666  0.1667 -0.3588 -0.2663
  203SOD    SOD22331   5.730   6.786   6.931  0.0268 -0.1144 -0.0554
  204SOD    SOD22332   4.843   1.722   8.205  0.2045 -0.0094 -0.2632
  205SOD    SOD22333   1.533   5.233   0.776  0.2407 -0.0365  0.2115
  206SOD    SOD22334   4.074   5.753   1.905 -0.2933  0.5306 -0.1166
  207SOD    SOD22335   6.448   5.954   8.656 -0.0600 -0.2526 -0.1819
  208SOD    SOD22336   5.341   6.747   8.452  0.5182 -0.1473 -0.2294
  209SOD    SOD22337   0.271   4.288   7.268  0.4533 -0.0702 -0.4495
  210SOD    SOD22338   5.957   4.635   1.574  0.0862  0.4400  0.2729
  211SOD    SOD22339   1.158   2.184   1.317  0.5763  0.5697 -0.2100
  212SOD    SOD22340   3.875   5.547   7.510 -0.1801  0.0216 -0.9567
  213SOD    SOD22341   2.071   3.908   1.746 -0.0647 -0.7068  0.4288
  214SOD    SOD22342   5.935   1.213   2.285  0.2120  0.4243  0.0311
  215SOD    SOD22343   1.123   5.732   2.359  0.5866  0.2139  0.1295
  216SOD    SOD22344   1.915   1.216   1.209  0.0416  0.3609  0.1860
  217SOD    SOD22345   3.176   4.071   6.612  0.1320 -0.0022 -0.2015
  218SOD    SOD22346   5.588   4.961   1.918  0.2017  0.2332  0.2942
  219SOD    SOD22347   4.706   0.679   7.588 -0.0595 -0.0419  0.0863
  220SOD    SOD22348   2.930   4.974   6.863  0.3889  0.4973  0.0518
  221SOD    SOD22349   0.760   6.335   7.110 -0.0387 -0.1582  0.1700
  222SOD    SOD22350   0.987   0.853   1.569 -0.0380 -0.4436  0.0922
  223SOD    SOD22351   6.274   3.818   0.719 -0.1371 -0.3082 -0.0372
  224SOD    SOD22352   4.366   6.518   1.805  0.4152 -0.5974  0.4070
  225SOD    SOD22353   2.300   6.315   7.230  0.7884 -0.0688 -0.5621
  226SOD    SOD22354   3.073   1.927   7.084 -0.1466 -0.3934 -0.0452
  227SOD    SOD22355   5.023   2.302   2.702 -0.2566  0.4610 -0.1851
  228SOD    SOD22356   2.721   0.164   7.737  0.0009 -0.4353  0.1918
  229SOD    SOD22357   1.090   2.621   7.941  0.4320  0.0486 -0.2470
  230CLA    CLA22358   1.744   0.339   6.905 -0.0810  0.2740 -0.3984
  231CLA    CLA22359   4.983   6.593   0.969  0.4245  0.3191 -0.0826
  232CLA    CLA22360   3.195   0.374   7.738  0.3250  0.1697  0.5356
  233CLA    CLA22361   1.011   6.704   8.657 -0.0516  0.3774  0.5851
  234CLA    CLA22362   0.724   6.405   0.137  0.2428 -0.6813  0.3322
  235CLA    CLA22363   6.220   4.494   0.896 -0.2216  0.0490  0.3166
  236CLA    CLA22364   1.125   4.892   1.039  0.3198 -0.1235 -0.1887
  237CLA    CLA22365   4.626   2.911   0.026 -0.1723 -0.1055  0.2160
  238CLA    CLA22366   5.677   6.665   8.120 -0.3505 -0.3559 -0.1637
  239CLA    CLA22367   1.245   3.470   0.716  0.0073 -0.5650 -0.2655
  240CLA    CLA22368   4.747   4.320   0.734  0.1422 -0.0700  0.0281
  241CLA    CLA22369   4.931   1.253   7.257 -0.1425  0.4292 -0.1837
  242CLA    CLA22370   5.633   6.388   0.561 -0.0498 -0.3177 -0.1540
  243CLA    CLA22371   1.185   4.368   0.933 -0.1520 -0.3242  0.2687
  244CLA    CLA22372   3.470   6.195   0.279 -0.3630 -0.2984  0.1896
  245CLA    CLA22373   2.579   1.985   1.313  0.0025  0.0732 -0.0999
  246CLA    CLA22374   1.286   1.822   1.536  0.3407  0.2303  0.2035
  247TIP3   OH222375   0.529   3.533   7.884 -0.2651  0.0715  0.1286
  247TIP3    H122376   0.489   3.457   7.928  0.5735  0.1506  1.0680
  247TIP3    H222377   0.524   3.512   7.791  0.3884 -1.3642  0.3928
  248TIP3   OH222378   0.173   5.377   1.696  0.2701  1.0593  0.3146
  248TIP3    H122379   0.224   5.380   1.615 -0.7497  0.6787 -0.3585
  248TIP3    H222380   0.179   5.466   1.731 -0.0356  1.4924 -0.6757
  249TIP3   OH222381   4.442   1.754   0.409 -0.6967 -0.4793 -0.5540
  249TIP3    H122382   4.349   1.739   0.429 -0.4575  1.1508  2.3607
  249TIP3    H222383   4.483   1.668   0.419 -1.2772 -0.4795  2.7289
  250TIP3   OH222384   0.600   2.894   2.094 -0.1632 -0.1292  0.5955
  250TIP3    H122385   0.608   2.920   2.002  0.0065  0.1995  0.6988
  250TIP3    H222386   0.604   2.977   2.142  0.8376 -0.3806  0.9677
  251TIP3   OH222387   0.919   3.077   2.050  0.3097  0.2907 -0.3165
  251TIP3    H122388   0.912   3.084   1.955 -1.0061  0.2771 -0.2314
  251TIP3    H222389   0.942   2.985   2.065  0.2646  0.2299 -0.6114
  252TIP3   OH222390   2.524   3.688   0.988  0.1049  0.3058  0.1538
  252TIP3    H122391   2.441   3.736   0.995 -0.2589 -0.0200 -1.5095
  252TIP3    H222392   2.499   3.596   0.992  0.2896  0.1906 -0.9096
  253TIP3   OH222393   3.205   6.721   0.045  0.3644 -0.1954 -0.4076
  253TIP3    H122394   3.125   6.771   0.030  1.5010  1.3019 -1.7538
  253TIP3    H222395   3.258   6.777   0.102  0.5174 -1.1377  0.4031
  254TIP3   OH222396   0.781   4.295   8.222  0.2605 -0.0156 -0.3252
  254TIP3    H122397   0.820   4.340   8.297 -1.3541  0.0294  0.5174
  254TIP3    H222398   0.775   4.363   8.155 -2.1807  1.1429  0.9442
  255TIP3   OH222399   5.119   4.632   2.414  0.5068 -0.4195 -0.4012
  255TIP3    H122400   5.039   4.626   2.466 -0.0731 -0.7035 -1.2963
  255TIP3    H222401   5.184   4.667   2.474 -0.6914  1.3813 -0.0610
  256TIP3   OH222402   6.599   4.050   1.883 -0.2484  0.1253  0.0099
  256TIP3    H122403   6.606   4.145   1.871  0.4227 -0.1383 -2.0410
  256TIP3    H222404   6.663   4.013   1.822 -1.1433 -1.6683  0.0925
  257TIP3   OH222405   4.963   1.107   1.201 -0.1947  0.1349  0.0254
  257TIP3    H122406   4.962   1.050   1.124 -0.9315 -0.2359  0.2969
  257TIP3    H222407   5.001   1.189   1.170  1.3700 -0.6657 -0.2475
  258TIP3   OH222408   4.546   0.764   7.199 -0.3183  0.2357 -0.5675
  258TIP3    H122409   4.472   0.798   7.149  0.0681  0.8795 -0.7200
  258TIP3    H222410   4.623   0.788   7.147  0.0446  0.2747 -0.0246
  259TIP3   OH222411   3.564   6.819   0.960 -0.1512 -0.0211  0.3441
  259TIP3    H122412   3.582   6.745   1.019 -0.0395  0.0595  0.4117
  259TIP3    H222413   3.524   6.779   0.883  0.2424 -0.1967  0.2248
  260TIP3   OH222414   5.978   5.253   2.011  0.2263  0.0185 -0.6893
  260TIP3    H122415   5.957   5.284   2.099 -2.6344 -1.2695 -0.8056
  260TIP3    H222416   5.963   5.328   1.954 -0.6439  0.1132 -0.3463
  261TIP3   OH222417   2.270   2.279   2.207 -0.2578 -0.4733 -0.0813
  261TIP3    H122418   2.362   2.304   2.200 -0.4806  0.7617  0.9368
  261TIP3    H222419   2.222   2.361   2.195 -1.1891 -0.9710  0.1164
  262TIP3   OH222420   6.012   4.566   8.797  0.0983  0.0442 -0.2551
  262TIP3    H122421   5.943   4.573   8.732 -0.1193 -0.9949 -0.1484
  262TIP3    H222422   6.092   4.556   8.746 -0.1923 -1.8950 -0.3975
  263TIP3   OH222423   6.747   3.403   8.747  0.8953  0.1384 -0.1436
  263TIP3    H122424   6.788   3.471   8.694  0.8361  1.1203  1.0148
  263TIP3    H222425   6.772   3.321   8.705  1.9218  0.8257 -0.9196
  264TIP3   OH222426   3.703   6.196   0.924  0.1751  0.1672  0.2629
  264TIP3    H122427   3.744   6.262   0.867  0.5434  1.4153  1.8896
  264TIP3    H222428   3.773   6.168   0.983 -0.3297 -0.6592  0.4754
  265TIP3   OH222429   4.114   4.552   0.268 -0.0454  0.0086  0.2639
  265TIP3    H122430   4.092   4.638   0.234 -2.2919 -1.2694 -1.8566
  265TIP3    H222431   4.032   4.520   0.308  0.6786 -1.2099  0.8416
  266TIP3   OH222432   6.512   5.044   1.131  0.4993 -0.5928  0.5016
  266TIP3    H122433   6.575   5.032   1.203 -0.4729  0.4681  1.5852
  266TIP3    H222434   6.427   5.022   1.170 -0.2196  1.2814  0.1231
  267TIP3   OH222435   6.130   3.147   8.636  0.0147  0.4139 -0.2039
  267TIP3    H122436   6.145   3.099   8.718 -0.1447 -0.8424 -0.8918
  267TIP3    H222437   6.162   3.235   8.654  1.9989 -0.4044  0.5152
  268TIP3   OH222438   1.107   3.194   2.211 -0.4456  0.1868  0.2227
  268TIP3    H122439   1.049   3.239   2.273 -1.0565  0.1002 -0.2759
  268TIP3    H222440   1.047   3.149   2.151  0.1495 -0.7562  0.3212
  269TIP3   OH222441   2.244   2.447   0.849  0.2978  0.3267 -0.1355
  269TIP3    H122442   2.180   2.506   0.891 -0.5744 -0.9304  0.3793
  269TIP3    H222443   2.248   2.372   0.908  2.3530  0.4068 -0.1209
  270TIP3   OH222444   6.403   0.330   7.287 -0.3701  0.3131 -0.6537
  270TIP3    H122445   6.458   0.407   7.304 -0.5946  0.0734  1.4242
  270TIP3    H222446   6.462   0.268   7.244  0.5263  0.6908 -0.0011
  271TIP3   OH222447   1.236   2.562   1.001 -0.5986 -0.5818  0.0756
  271TIP3    H122448   1.275   2.476   0.982  0.4988  0.2643 -1.8377
  271TIP3    H222449   1.253   2.576   1.094  1.6270 -1.2930 -0.1673
  272TIP3   OH222450   5.357   3.975   8.799  0.3997 -0.0863  0.4795
  272TIP3    H122451   5.344   3.958   8.893  0.7287 -1.4627  0.3026
  272TIP3    H222452   5.340   3.890   8.757  0.2075  0.5242 -0.7152
  273TIP3   OH222453   0.717   1.161   0.850 -0.1674  0.2461 -0.5617
  273TIP3    H122454   0.740   1.176   0.758 -1.1606 -0.9925 -1.0411
  273TIP3    H222455   0.648   1.095   0.847  1.0730 -1.2121  1.1630
  274TIP3   OH222456   5.745   6.453   1.197  0.4900 -0.1985 -0.1852
  274TIP3    H122457   5.806   6.469   1.125 -0.1110 -0.2625 -0.7185
  274TIP3    H222458   5.678   6.520   1.186 -0.5716 -1.3130 -0.7882
  275TIP3   OH222459   5.901   4.359   0.502  0.4431 -0.4825 -0.2047
  275TIP3    H122460   5.996   4.369   0.514  0.2831  0.8496  0.1893
  275TIP3    H222461   5.871   4.448   0.480 -0.4099 -1.2874 -2.6351
  276TIP3   OH222462   5.326   4.512   8.479 -0.2353  0.3602 -0.0802
  276TIP3    H122463   5.260   4.493   8.545 -2.0828 -0.6526 -2.0719
  276TIP3    H222464   5.407   4.475   8.513 -1.2813 -0.7627  1.2965
  277TIP3   OH222465   4.087   2.071   8.770  0.1872 -0.6500 -0.4933
  277TIP3    H122466   4.087   2.097   8.678  0.4305 -0.2672 -0.3846
  277TIP3    H222467   4.027   2.132   8.813  1.0735 -0.0001 -0.1653
  278TIP3   OH222468   5.654   5.137   1.382  0.5879  0.7358 -0.0167
  278TIP3    H122469   5.580   5.153   1.323 -0.1263 -0.7989  0.3852
  278TIP3    H222470   5.613   5.112   1.465  1.3396 -3.9866 -0.7977
  279TIP3   OH222471   4.174   3.581   7.856 -0.3786 -0.0437 -0.1731
  279TIP3    H122472   4.120   3.577   7.935 -1.0966  0.3841 -0.6284
  279TIP3    H222473   4.111   3.589   7.785  0.2804  0.0464 -0.7511
  280TIP3   OH222474   3.003   6.708   0.664 -0.3338  0.0074 -0.1185
  280TIP3    H122475   3.071   6.646   0.693  0.4222  1.4799  1.4474
  280TIP3    H222476   3.007   6.779   0.728 -1.8061  1.2460 -1.3290
  281TIP3   OH222477   5.783   1.952   8.564  0.2622 -0.3146 -0.4589
  281TIP3    H122478   5.801   2.020   8.499 -1.0734  0.6957  0.1669
  281TIP3    H222479   5.688   1.957   8.578  0.1559 -2.1697 -0.2159
  282TIP3   OH222480   2.499   0.498   7.729 -0.0659 -0.7425 -0.5214
  282TIP3    H122481   2.424   0.491   7.670  0.1172 -1.0787 -0.7196
  282TIP3    H222482   2.503   0.412   7.772 -0.0786 -0.5669 -0.1671
  283TIP3   OH222483   5.631   0.517   1.989 -0.0309  0.1437 -0.0854
  283TIP3    H122484   5.606   0.428   2.016 -0.7458  0.4910  0.4422
  283TIP3    H222485   5.712   0.535   2.037 -1.1874  0.6871  1.7822
  284TIP3   OH222486   0.163   1.859   7.288  0.0779 -0.5987  0.2265
  284TIP3    H122487   0.201   1.818   7.210  1.7011 -1.2100  1.2906
  284TIP3    H222488   0.236   1.903   7.330 -1.4462  2.9775 -0.4818
  285TIP3   OH222489   0.721   3.408   8.333 -0.4708  0.2247  0.2629
  285TIP3    H122490   0.654   3.340   8.340  0.4516 -0.5153  2.9567
  285TIP3    H222491   0.694   3.476   8.394  0.3828  0.6835  0.1560
  286TIP3   OH222492   0.071   6.757   8.690 -0.3514  0.2680  0.1237
  286TIP3    H122493   0.076   6.820   8.619  0.4991 -0.5119 -0.5230
  286TIP3    H222494  -0.011   6.778   8.735 -0.4126  1.3887 -0.4799
  287TIP3   OH222495   0.014   6.076   1.063  0.0162 -0.2887 -0.3791
  287TIP3    H122496  -0.023   6.017   1.128 -1.5648  2.4293  1.3995
  287TIP3    H222497   0.108   6.061   1.067 -0.1661 -1.1294  1.6116
  288TIP3   OH222498   6.237   0.109   0.062 -0.3154 -0.7716  0.0593
  288TIP3    H122499   6.282   0.036   0.106  1.2158 -0.9011 -1.5619
  288TIP3    H222500   6.190   0.154   0.131  2.3894 -0.6229  1.9640
  289TIP3   OH222501   3.656   2.562   0.368 -0.2463 -0.4775  0.0422
  289TIP3    H122502   3.669   2.592   0.458  0.5484  0.6958 -0.4213
  289TIP3    H222503   3.686   2.636   0.315 -1.2478 -0.9245 -1.1868
  290TIP3   OH222504   2.320   1.975   5.781  0.6785 -0.3632 -0.5537
  290TIP3    H122505   2.342   1.890   5.818 -1.9927 -0.6818  0.5482
  290TIP3    H222506   2.227   1.968   5.757  1.1185  1.3085 -3.2438
  291TIP3   OH222507   3.829   4.209   8.326  0.4573  0.2126 -0.7045
  291TIP3    H122508   3.795   4.299   8.322 -1.2259 -0.4428 -2.7651
  291TIP3    H222509   3.799   4.176   8.411 -1.1428  0.7904 -1.0090
  292TIP3   OH222510   1.157   1.080   0.330  0.4144  0.1949  0.4712
  292TIP3    H122511   1.212   1.015   0.374  1.4421 -0.6897 -1.9355
  292TIP3    H222512   1.198   1.164   0.351  1.2422 -0.2499  0.7016
  293TIP3   OH222513   0.342   3.762   0.862  0.3788  0.0206 -0.0609
  293TIP3    H122514   0.331   3.857   0.862  0.2253  0.0674  2.4833
  293TIP3    H222515   0.432   3.748   0.890  0.4102 -0.5994 -0.4486
  294TIP3   OH222516   4.054   6.001   0.885 -0.5744 -0.7416 -0.0909
  294TIP3    H122517   4.012   6.011   0.800 -0.2608 -2.2190 -0.4549
  294TIP3    H222518   4.144   6.032   0.871 -0.3666 -1.4959 -0.4572
  295TIP3   OH222519   1.910   2.002   2.221  0.3784  0.0283  0.0449
  295TIP3    H122520   1.991   1.986   2.173 -0.9754 -1.4964 -1.9066
  295TIP3    H222521   1.866   1.917   2.222 -1.8951  1.1136 -0.3913
  296TIP3   OH222522   2.316   1.404   8.645 -0.1193 -0.1355  0.4137
  296TIP3    H122523   2.311   1.429   8.552  1.6735 -0.0063  0.3280
  296TIP3    H222524   2.268   1.473   8.691  1.2840  1.3007 -0.1941
  297TIP3   OH222525   2.934   0.499   0.552  0.1644 -0.3291 -0.0027
  297TIP3    H122526   2.925   0.577   0.607  0.7181 -0.7882  0.7619
  297TIP3    H222527   2.863   0.505   0.489 -0.9598 -0.1764  1.2455
  298TIP3   OH222528   2.367   2.033   2.343 -0.1588  0.7660  0.2195
  298TIP3    H122529   2.402   2.043   2.432 -0.9587 -0.1708  0.6565
  298TIP3    H222530   2.327   2.119   2.323  0.1118  1.0118  0.7238
  299TIP3   OH222531   2.841   0.893   0.607 -0.0887  0.2855  0.1490
  299TIP3    H122532   2.811   0.977   0.640  0.7100  0.7956 -0.3989
  299TIP3    H222533   2.816   0.892   0.515 -0.4763 -0.2610  0.2550
  300TIP3   OH222534   1.650   0.042   0.737  0.4878 -0.0384 -0.4762
  300TIP3    H122535   1.575   0.018   0.791 -0.2746 -0.3252 -1.6053
  300TIP3    H222536   1.614   0.105   0.674  1.7747  1.7559  0.5177
  301TIP3   OH222537   0.401   0.468   8.068 -0.2660  0.8583 -0.0705
  301TIP3    H122538   0.376   0.527   7.997 -0.1847 -0.7566 -1.4965
  301TIP3    H222539   0.489   0.496   8.091  0.3302  0.4568 -1.6988
  302TIP3   OH222540   0.040   3.124   2.687  0.4911  0.3712  0.6462
  302TIP3    H122541   0.123   3.107   2.643 -0.8487  0.1576 -1.9998
  302TIP3    H222542   0.051   3.211   2.725  2.0994  0.1100  0.8663
  303TIP3   OH222543   3.124   6.000   7.094  0.5349 -0.0549 -0.4403
  303TIP3    H122544   3.096   5.916   7.057  1.5397 -0.3967 -0.4604
  303TIP3    H222545   3.158   5.978   7.181 -0.6177  0.5634  0.1884
  304TIP3   OH222546   2.078   1.988   1.978  0.4566  0.2752  0.1328
  304TIP3    H122547   2.136   2.041   1.924  1.8890 -0.8058  0.5296
  304TIP3    H222548   1.992   2.027   1.967  1.0407  1.2203 -1.4310
  305TIP3   OH222549   2.898   5.198   1.825 -0.3064 -0.1515 -0.1745
  305TIP3    H122550   2.829   5.245   1.777 -0.2143  1.2235  0.9660
  305TIP3    H222551   2.954   5.268   1.860  0.6807 -1.1855  0.3742
  306TIP3   OH222552   5.139   2.388   7.470 -0.0041 -0.1483 -0.4912
  306TIP3    H122553   5.083   2.449   7.422  0.4260  1.6940  1.1780
  306TIP3    H222554   5.101   2.302   7.453 -2.1858  0.8307 -0.9620
  307TIP3   OH222555   1.241   1.099   7.780  0.4637  0.4245 -0.4112
  307TIP3    H122556   1.261   1.007   7.763 -1.9647 -0.2206 -0.1075
  307TIP3    H222557   1.296   1.122   7.855  1.5017 -0.5885 -0.8336
  308TIP3   OH222558   4.789   1.587   1.777 -0.2231  0.9014 -0.3965
  308TIP3    H122559   4.713   1.606   1.832 -0.9347 -1.0939 -0.6160
  308TIP3    H222560   4.846   1.534   1.832 -0.4787 -0.2728 -1.2281
  309TIP3   OH222561   5.496   4.784   8.545  0.8885  0.2092  0.0719
  309TIP3    H122562   5.441   4.732   8.486  0.3237  0.7401  0.1228
  309TIP3    H222563   5.539   4.719   8.601  0.1357 -0.2023  0.1798
  310TIP3   OH222564   0.352   5.249   8.049 -0.1479  0.2354  0.0223
  310TIP3    H122565   0.313   5.332   8.075  0.4339 -0.1060  2.2531
  310TIP3    H222566   0.435   5.246   8.097 -0.1250 -1.5936 -0.0477
  311TIP3   OH222567   6.199   0.532   2.232  0.6599  0.1488 -0.3105
  311TIP3    H122568   6.208   0.454   2.287  1.1661 -0.9368 -1.8640
  311TIP3    H222569   6.115   0.571   2.259  1.9456  1.0505  2.8539
  312TIP3   OH222570   4.783   6.184   1.598 -0.5180 -0.2847 -0.4854
  312TIP3    H122571   4.778   6.223   1.511  0.8238  0.7541 -0.1257
  312TIP3    H222572   4.802   6.257   1.657 -2.8846 -0.7036  0.9415
  313TIP3   OH222573   3.109   0.897   8.532  0.6211  0.1871 -0.5201
  313TIP3    H122574   3.051   0.822   8.521 -1.9613  1.8549  0.7744
  313TIP3    H222575   3.058   0.960   8.583  2.6863  2.7942 -1.4378
  314TIP3   OH222576   4.064   4.960   8.177 -0.0028  0.0024  0.1719
  314TIP3    H122577   4.066   5.007   8.261 -0.9244 -0.0467  0.2230
  314TIP3    H222578   3.972   4.954   8.154  0.0270 -2.1259  0.3597
  315TIP3   OH222579   1.957   5.673   7.287  0.0902  0.3560  0.3300
  315TIP3    H122580   1.868   5.644   7.305  0.8255 -0.7632  2.5018
  315TIP3    H222581   1.963   5.672   7.192 -1.7929 -0.9044  0.1601
  316TIP3   OH222582   1.206   1.543   7.769  0.1184 -0.2044 -0.1465
  316TIP3    H122583   1.232   1.551   7.861 -1.9593  1.8218  0.3523
  316TIP3    H222584   1.122   1.497   7.772  0.5415 -1.0854 -1.1562
  317TIP3   OH222585   0.715   4.185   7.145  0.4936 -0.0328  0.1718
  317TIP3    H122586   0.789   4.153   7.095  0.7242  0.0414  0.4563
  317TIP3    H222587   0.670   4.245   7.086  0.4217 -0.3984 -0.1428
  318TIP3   OH222588   2.660   2.763   1.774  0.0797 -0.2205 -0.2647
  318TIP3    H122589   2.592   2.701   1.802 -0.1416  0.3654  0.5546
  318TIP3    H222590   2.612   2.840   1.745  0.3520 -0.4361 -1.3233
  319TIP3   OH222591   4.006   1.171   7.272  0.2155 -0.0888 -0.8613
  319TIP3    H122592   4.017   1.155   7.178  2.6444 -0.8726 -0.5130
  319TIP3    H222593   4.009   1.085   7.312  1.5203  0.3656  0.0937
  320TIP3   OH222594   4.367   2.690   8.542 -0.3036 -0.6986  0.6466
  320TIP3    H122595   4.400   2.601   8.557 -0.3361 -0.6102  1.3062
  320TIP3    H222596   4.393   2.712   8.453 -0.3765 -1.4060  0.4494
  321TIP3   OH222597   2.089   1.017   1.228 -1.2103 -0.4339  0.4612
  321TIP3    H122598   2.063   0.939   1.178 -1.3008 -1.1164  1.5536
  321TIP3    H222599   2.102   0.985   1.317 -1.3747  0.8348  0.9533
  322TIP3   OH222600   1.226   3.660   8.442 -0.4850 -0.0611  0.4369
  322TIP3    H122601   1.130   3.656   8.449 -0.6847  1.5826 -0.5938
  322TIP3    H222602   1.249   3.745   8.481  0.4643 -0.1270  0.0344
  323TIP3   OH222603   2.776   0.606   1.369  0.8560 -0.1182 -0.1344
  323TIP3    H122604   2.784   0.678   1.432 -0.2560 -0.9099  0.9572
  323TIP3    H222605   2.682   0.602   1.349  1.1253 -0.1951 -1.5108
  324TIP3   OH222606   0.683   5.093   8.529  0.2220 -0.4377  0.1981
  324TIP3    H122607   0.714   5.081   8.439  0.4949 -0.1611  0.2501
  324TIP3    H222608   0.763   5.110   8.579  0.1085 -0.9235  0.5548
  325TIP3   OH222609   4.991   1.694   8.440 -0.1232  0.5234  0.2026
  325TIP3    H122610   5.016   1.609   8.476  0.4589  0.1570 -1.0087
  325TIP3    H222611   5.066   1.751   8.457  0.6574  0.0387 -1.3857
  326TIP3   OH222612   3.106   5.913   0.248  0.4446  0.5280  0.3626
  326TIP3    H122613   3.197   5.892   0.270 -0.4339 -0.8691  3.1980
  326TIP3    H222614   3.105   6.008   0.242  2.1679  0.5540 -0.2727
  327TIP3   OH222615   0.708   3.054   7.186 -0.2413  0.3139  0.1453
  327TIP3    H122616   0.755   3.062   7.103 -1.4772 -1.2945 -0.7551
  327TIP3    H222617   0.757   2.989   7.236  0.0251  0.6714  0.3611
  328TIP3   OH222618   5.359   2.633   1.318 -0.0192 -0.4332  0.0952
  328TIP3    H122619   5.348   2.570   1.247  1.1919 -2.3024  1.4622
  328TIP3    H222620   5.305   2.599   1.389 -0.7273  1.0628  0.3241
  329TIP3   OH222621   3.211   0.313   8.191 -0.1604  0.6330 -0.2779
  329TIP3    H122622   3.283   0.359   8.147 -0.2993 -0.5876 -1.8734
  329TIP3    H222623   3.235   0.221   8.186 -0.7067  0.3807  1.3290
  330TIP3   OH222624   2.944   0.364   8.201  0.4349 -0.0338 -0.3857
  330TIP3    H122625   2.912   0.323   8.281  1.4231 -0.7851 -0.3605
  330TIP3    H222626   3.039   0.353   8.204  0.7004  1.7946 -0.6466
  331TIP3   OH222627   1.342   5.114   2.601  0.2275 -0.3791  0.8404
  331TIP3    H122628   1.375   5.029   2.630  0.4131 -1.0610 -1.1977
  331TIP3    H222629   1.265   5.130   2.656 -0.3327 -2.3025  0.6827
  332TIP3   OH222630   5.072   1.042   8.617 -0.0178  0.3470 -0.3807
  332TIP3    H122631   5.147   1.075   8.666  0.5789 -1.9821  0.4015
  332TIP3    H222632   5.008   1.113   8.620  0.4029  0.7482  2.9126
  333TIP3   OH222633   3.800   4.440   7.115  0.5293  0.4311  0.5618
  333TIP3    H122634   3.878   4.386   7.127  1.6083  1.8421  0.1645
  333TIP3    H222635   3.736   4.382   7.073  1.6616 -0.5069  0.0912
  334TIP3   OH222636   5.518   1.557   1.142  0.4875  0.0773  0.1922
  334TIP3    H122637   5.463   1.531   1.068  1.6297 -0.7486 -0.3958
  334TIP3    H222638   5.520   1.652   1.137 -2.6196  0.3225  1.5313
  335TIP3   OH222639   5.712   0.811   8.370 -0.4119  0.5999 -0.3823
  335TIP3    H122640   5.632   0.768   8.342 -1.0122  1.5451 -0.1526
  335TIP3    H222641   5.780   0.744   8.360 -1.3383 -0.4355  0.1275
  336TIP3   OH222642   1.541   3.785   0.591  0.6776  0.1884 -0.1286
  336TIP3    H122643   1.487   3.857   0.623  0.4385  0.8403 -1.9100
  336TIP3    H222644   1.509   3.768   0.502  1.1814 -1.6649 -0.0063
  337TIP3   OH222645   0.504   1.829   8.224  0.0116 -0.4138 -0.4582
  337TIP3    H122646   0.432   1.766   8.221 -1.1004  0.6388  1.7143
  337TIP3    H222647   0.563   1.795   8.292 -0.1911  0.4109  0.1570
  338TIP3   OH222648   1.020   3.330   0.524 -0.3889  0.0857  0.0904
  338TIP3    H122649   1.087   3.385   0.565  0.6452 -0.4065 -0.8690
  338TIP3    H222650   1.013   3.364   0.434  1.0416 -1.9389 -0.8624
  339TIP3   OH222651   2.189   2.633   6.749  0.3108  0.3023  0.0269
  339TIP3    H122652   2.140   2.710   6.720 -0.3649 -0.4928 -1.0508
  339TIP3    H222653   2.148   2.560   6.702  0.8496 -0.7366  1.1129
  340TIP3   OH222654   5.807   3.285   8.540  0.4115  0.1185  0.2416
  340TIP3    H122655   5.831   3.194   8.557 -1.9587 -0.5465  0.3551
  340TIP3    H222656   5.748   3.281   8.464  0.2521  1.5549  0.2526
  341TIP3   OH222657   1.527   5.908   0.750 -0.6818 -0.2327  0.2793
  341TIP3    H122658   1.511   5.998   0.722  0.1088 -0.6552 -1.6684
  341TIP3    H222659   1.570   5.917   0.835 -0.1330  1.2605 -0.1259
  342TIP3   OH222660   5.262   3.375   8.123  0.3732 -0.1970  0.2163
  342TIP3    H122661   5.205   3.418   8.187  1.9876  0.7615  1.0999
  342TIP3    H222662   5.275   3.441   8.055  1.3019  0.0164  0.5891
  343TIP3   OH222663   4.381   0.088   0.458 -0.4301 -0.3183 -0.5138
  343TIP3    H122664   4.475   0.109   0.461 -0.1950 -1.3611 -0.1108
  343TIP3    H222665   4.339   0.160   0.505  0.3635 -0.8241  1.0463
  344TIP3   OH222666   0.429   6.008   1.693  0.5103 -0.0728  0.4828
  344TIP3    H122667   0.367   5.948   1.734 -0.8231  1.0565  0.2010
  344TIP3    H222668   0.495   6.024   1.761  1.2360 -2.2288  0.3775
  345TIP3   OH222669   1.111   1.360   2.204  0.0009 -0.0341  0.4105
  345TIP3    H122670   1.155   1.355   2.119 -3.1053  0.9673 -1.3921
  345TIP3    H222671   1.072   1.274   2.216  0.0709 -0.0374  0.6191
  346TIP3   OH222672   3.484   2.999   7.563 -0.1674  0.5097  0.1446
  346TIP3    H122673   3.499   2.989   7.469  2.1541  0.0312  0.5057
  346TIP3    H222674   3.571   3.014   7.600 -1.0588  1.0008  2.1988
  347TIP3   OH222675   4.756   3.956   2.069  0.7813  0.1844  0.3853
  347TIP3    H122676   4.660   3.961   2.071  0.7008 -0.5481 -0.7925
  347TIP3    H222677   4.775   3.870   2.034  1.8972  0.1753  0.9585
  348TIP3   OH222678   2.309   1.138   0.446  0.1993  0.0525  0.3337
  348TIP3    H122679   2.369   1.136   0.372 -1.2515 -0.0722 -0.8951
  348TIP3    H222680   2.343   1.208   0.503  1.5218 -0.0733 -0.2670
  349TIP3   OH222681   0.431   4.048   1.146 -0.1058 -0.4031  0.4907
  349TIP3    H122682   0.474   4.113   1.091 -0.4875 -0.8274 -0.3417
  349TIP3    H222683   0.382   3.994   1.084 -1.6336 -0.0816  1.3691
  350TIP3   OH222684   5.165   2.082   1.800  0.0527 -0.2132  0.0659
  350TIP3    H122685   5.141   2.055   1.889 -0.1544  1.2227  0.4683
  350TIP3    H222686   5.088   2.061   1.747 -0.1659 -0.2419  0.3915
  351TIP3   OH222687   4.701   1.326   8.152  0.2151  0.4106  0.1221
  351TIP3    H122688   4.760   1.274   8.205  0.3577  1.4269  0.9978
  351TIP3    H222689   4.651   1.262   8.101  1.1741 -0.5087  0.3063
  352TIP3   OH222690   6.660   4.548   1.658  0.2849  0.0966  0.3379
  352TIP3    H122691   6.754   4.552   1.643 -0.1339  2.5057 -2.7727
  352TIP3    H222692   6.639   4.629   1.703 -0.3767 -0.0713  0.3502
  353TIP3   OH222693   5.506   3.182   7.481 -0.5383 -0.1671 -0.4542
  353TIP3    H122694   5.482   3.270   7.453 -2.9746 -0.8698 -0.8448
  353TIP3    H222695   5.516   3.133   7.399 -0.2520 -0.5077 -0.2180
  354TIP3   OH222696   4.093   5.123   1.290  0.7658 -0.2804 -0.1463
  354TIP3    H122697   4.079   5.059   1.360  0.2541 -0.4965 -0.4388
  354TIP3    H222698   4.053   5.083   1.213  0.7743  0.2293 -0.4202
  355TIP3   OH222699   4.890   1.928   2.279  0.1341  0.3017  0.3228
  355TIP3    H122700   4.832   2.005   2.276  0.4194  0.5262 -2.6761
  355TIP3    H222701   4.833   1.856   2.306 -0.2938  1.3755  2.4984
  356TIP3   OH222702   5.934   3.263   0.938  0.0832  0.1770 -0.1326
  356TIP3    H122703   5.986   3.190   0.970  2.3834  0.6722 -2.4138
  356TIP3    H222704   5.918   3.317   1.015  1.7404 -0.7591  0.9138
  357TIP3   OH222705   4.979   5.510   1.318 -0.5112 -0.3299  0.1441
  357TIP3    H122706   4.936   5.575   1.374 -1.6812 -0.2757 -0.7779
  357TIP3    H222707   4.955   5.426   1.357  0.3289 -0.2412  0.8677
  358TIP3   OH222708   4.187   4.908   6.846 -0.2571  0.1715 -0.5207
  358TIP3    H122709   4.114   4.930   6.788 -1.2454 -0.9848  0.2348
  358TIP3    H222710   4.208   4.817   6.824  0.8410  0.4301 -0.5884
  359TIP3   OH222711   5.733   5.844   8.560  0.0721  0.1222  0.0101
  359TIP3    H122712   5.829   5.849   8.558 -0.0037  2.7008 -0.0790
  359TIP3    H222713   5.706   5.858   8.469 -0.4119 -1.7726 -0.1811
  360TIP3   OH222714   6.088   3.950   0.703  0.7185  0.5331 -0.3412
  360TIP3    H122715   6.056   4.022   0.757  1.0548 -0.8223  1.7740
  360TIP3    H222716   6.013   3.926   0.648 -1.2187 -0.8533  2.6368
  361TIP3   OH222717   5.995   0.630   8.789  0.0617 -0.0516  0.3333
  361TIP3    H122718   5.912   0.616   8.835  0.4814 -0.3495  1.0234
  361TIP3    H222719   5.971   0.679   8.711 -0.7474 -0.0105  0.5931
  362TIP3   OH222720   4.469   6.573   6.641  0.0018 -0.1165  0.1650
  362TIP3    H122721   4.558   6.566   6.673  0.0158  1.2109  0.4587
  362TIP3    H222722   4.428   6.640   6.696 -1.7796 -2.0575  1.3334
  363TIP3   OH222723   6.632   5.570   6.716 -1.5318 -0.2019 -0.0568
  363TIP3    H122724   6.671   5.634   6.657 -1.0685  0.3418  0.8082
  363TIP3    H222725   6.694   5.497   6.717  1.0218  1.7192  3.3265
  364TIP3   OH222726   6.367   3.781   0.959 -0.2469  0.1990 -0.6818
  364TIP3    H122727   6.442   3.802   1.014 -0.3761 -0.6981 -0.1256
  364TIP3    H222728   6.293   3.779   1.020 -0.6935  0.9373 -1.2010
  365TIP3   OH222729   4.702   4.437   6.892  0.2494  0.2936 -0.3718
  365TIP3    H122730   4.759   4.360   6.890  0.7672  0.6775 -1.0783
  365TIP3    H222731   4.711   4.472   6.980  0.8149  0.1250 -0.3589
  366TIP3   OH222732   2.615   6.433   0.539 -0.0286 -0.1671 -0.5759
  366TIP3    H122733   2.693   6.399   0.583 -0.0499 -0.3410 -0.6756
  366TIP3    H222734   2.561   6.356   0.523 -0.2764 -0.0324 -0.3975
  367TIP3   OH222735   0.901   2.546   2.232  0.2782  0.1280  0.8360
  367TIP3    H122736   0.834   2.479   2.250 -0.3381  1.0104  1.9741
  367TIP3    H222737   0.954   2.549   2.311  0.3074  0.9648  0.7944
  368TIP3   OH222738   3.569   1.107   0.370 -0.0897  0.1687  0.2867
  368TIP3    H122739   3.491   1.051   0.369  0.6830 -0.9431 -0.7726
  368TIP3    H222740   3.534   1.196   0.368 -1.3468 -0.2544  1.5162
  369TIP3   OH222741   0.622   3.110   8.336  0.2628 -0.1510 -0.2636
  369TIP3    H122742   0.716   3.094   8.335  0.4066  0.3858 -3.1978
  369TIP3    H222743   0.586   3.050   8.271 -1.0707  1.3698 -1.0009
  370TIP3   OH222744   5.829   2.009   1.557 -0.4318  0.2771 -0.2811
  370TIP3    H122745   5.846   2.101   1.577 -0.9124  0.3014  0.0482
  370TIP3    H222746   5.853   1.962   1.637 -0.1350  0.1081 -0.4677
  371TIP3   OH222747   3.237   1.320   1.149  0.5913  0.0607  0.3616
  371TIP3    H122748   3.274   1.242   1.107  0.8475  0.3711  0.0086
  371TIP3    H222749   3.307   1.352   1.206  0.8061  0.5445 -0.1691
  372TIP3   OH222750   0.367   0.055   7.882 -0.2950  0.2694  0.4134
  372TIP3    H122751   0.287   0.045   7.830  0.5803 -0.0659 -0.9361
  372TIP3    H222752   0.421  -0.020   7.856  1.0799  1.3309  0.1099
  373TIP3   OH222753   1.192   6.221   6.984 -0.5493  0.0719 -0.1431
  373TIP3    H122754   1.186   6.307   7.026  0.7785  1.2673 -2.2204
  373TIP3    H222755   1.285   6.198   6.990 -0.6815 -0.6446 -0.6674
  374TIP3   OH222756   3.266   0.065   6.668  0.2251 -0.1314  0.7262
  374TIP3    H122757   3.288   0.051   6.576  0.2275 -0.1725  0.7329
  374TIP3    H222758   3.315   0.143   6.693  0.0306  0.0261  0.6246
  375TIP3   OH222759   6.539   0.106   7.269  0.0476 -0.1054 -0.7284
  375TIP3    H122760   6.577   0.071   7.350 -0.3873  0.5363 -0.2373
  375TIP3    H222761   6.557   0.039   7.204  0.2799 -0.7043 -0.0652
  376TIP3   OH222762   4.444   4.741   7.366  0.0516  0.6789 -0.1082
  376TIP3    H122763   4.498   4.809   7.406 -0.6893  2.1753 -1.5463
  376TIP3    H222764   4.472   4.660   7.410  2.5434  1.5527  0.0918
  377TIP3   OH222765   2.401   1.764   8.285 -0.2750 -0.1506 -0.5938
  377TIP3    H122766   2.363   1.775   8.372 -0.3125 -2.2078 -0.2994
  377TIP3    H222767   2.491   1.796   8.293 -0.2144 -0.5201  0.2608
  378TIP3   OH222768   2.699   1.242   6.727  0.4546  0.0364 -0.0326
  378TIP3    H122769   2.714   1.283   6.812  0.3225  0.4444 -0.2015
  378TIP3    H222770   2.604   1.231   6.722  0.5741 -1.3993  0.5144
  379TIP3   OH222771   5.835   2.656   1.603  0.7181 -0.1285  0.2047
  379TIP3    H122772   5.835   2.687   1.693 -0.6388  0.1753  0.1264
  379TIP3    H222773   5.743   2.644   1.582  1.0105 -0.1445 -1.1599
  380TIP3   OH222774   4.150   0.173   8.581 -0.1535  0.1028 -0.2375
  380TIP3    H122775   4.138   0.190   8.675 -0.2776  3.7555 -0.7507
  380TIP3    H222776   4.194   0.089   8.578  1.4190  0.5969  3.2339
  381TIP3   OH222777   1.122   5.654   0.277 -0.1785  0.2102 -0.2371
  381TIP3    H122778   1.102   5.652   0.370 -0.4208 -0.1634 -0.2963
  381TIP3    H222779   1.114   5.563   0.248 -0.3005  0.3502 -0.6590
  382TIP3   OH222780   1.108   6.764   1.048  0.3194  0.1475 -0.0741
  382TIP3    H122781   1.116   6.802   0.960 -0.1669  1.3910  0.3977
  382TIP3    H222782   1.130   6.671   1.036  2.1844  0.6790 -1.1535
  383TIP3   OH222783   3.009   4.324   2.110  0.8788  0.8944  0.0731
  383TIP3    H122784   3.035   4.398   2.164 -1.2518  2.0371 -0.3474
  383TIP3    H222785   2.988   4.362   2.024  0.9766 -0.3836 -0.5471
  384TIP3   OH222786   6.584   1.253   1.400 -0.1968  0.1470  0.1101
  384TIP3    H122787   6.571   1.245   1.495  0.4995  0.4359  0.2414
  384TIP3    H222788   6.660   1.311   1.392 -0.0227 -0.1797 -0.6207
  385TIP3   OH222789   2.035   0.594   6.765  0.3611  0.6239 -0.3862
  385TIP3    H122790   2.116   0.636   6.792  0.4624  0.3033 -0.1863
  385TIP3    H222791   2.051   0.500   6.777  0.2348  0.5051 -1.0788
  386TIP3   OH222792   3.117   5.398   0.268 -0.1953 -0.1432  0.4110
  386TIP3    H122793   3.180   5.337   0.307  1.2545  0.2160 -1.2696
  386TIP3    H222794   3.057   5.343   0.218  0.2220 -0.3060  0.0890
  387TIP3   OH222795   6.668   2.456   0.761  0.6769 -0.4466  0.2596
  387TIP3    H122796   6.598   2.393   0.742  0.1554  0.4313 -0.8513
  387TIP3    H222797   6.649   2.530   0.704  0.7274  1.1388  2.2185
  388TIP3   OH222798   5.832   4.613   7.661 -0.3185  0.6245  0.7210
  388TIP3    H122799   5.926   4.615   7.642 -0.5516  3.2611 -0.6001
  388TIP3    H222800   5.807   4.521   7.650  2.0893 -0.1657  1.2112
  389TIP3   OH222801   2.187   0.571   8.699  0.3714  0.6299 -0.1098
  389TIP3    H122802   2.185   0.478   8.677  1.0166  0.8061 -0.9878
  389TIP3    H222803   2.212   0.614   8.617  1.2783  1.4701  0.5769
  390TIP3   OH222804   4.615   1.115   7.634 -0.2699  0.2135  0.1149
  390TIP3    H122805   4.598   1.092   7.543 -0.9764  1.4032 -0.0656
  390TIP3    H222806   4.615   1.031   7.680  1.2715 -0.5385 -1.1373
  391TIP3   OH222807   5.440   2.008   1.768  0.1647  0.1597  0.5441
  391TIP3    H122808   5.485   2.076   1.719  0.2056 -1.4003 -1.7323
  391TIP3    H222809   5.347   2.032   1.765  0.2354  0.3842  0.2279
  392TIP3   OH222810   0.397   0.219   8.371  0.6449 -0.3897 -0.7757
  392TIP3    H122811   0.380   0.149   8.309  0.8990 -3.0504  1.9301
  392TIP3    H222812   0.491   0.235   8.365  0.7779 -1.1092 -0.5994
  393TIP3   OH222813   5.569   2.638   1.701 -0.2035  0.0148 -0.1423
  393TIP3    H122814   5.514   2.608   1.773  1.2899  1.3387  1.6641
  393TIP3    H222815   5.515   2.702   1.654 -0.5772  0.5753  1.0037
  394TIP3   OH222816   5.249   0.916   7.877  0.6350 -0.0910 -0.2182
  394TIP3    H122817   5.231   0.824   7.897 -1.0906  0.1110 -0.6835
  394TIP3    H222818   5.302   0.947   7.951  1.0328 -1.3796  0.0631
  395TIP3   OH222819   5.114   2.719   8.193 -0.0130 -0.5131 -0.9296
  395TIP3    H122820   5.116   2.793   8.132  1.5053 -0.3974 -0.7758
  395TIP3    H222821   5.142   2.756   8.276  0.6320 -1.2247 -0.8171
  396TIP3   OH222822   5.258   6.139   0.037 -0.2469  0.3572 -0.6086
  396TIP3    H122823   5.286   6.184  -0.043 -0.0178 -1.0087 -1.3198
  396TIP3    H222824   5.339   6.123   0.085 -0.4339  1.6275  0.1598
  397TIP3   OH222825   0.496   2.771   1.386 -0.2161  0.5765  0.2212
  397TIP3    H122826   0.527   2.828   1.456  0.3621  0.6884 -0.1129
  397TIP3    H222827   0.405   2.796   1.373 -0.3297  0.5375  0.9425
  398TIP3   OH222828   6.588   3.782   0.336 -0.3235 -0.6544  0.2062
  398TIP3    H122829   6.649   3.845   0.375  0.2658  0.0199 -1.6968
  398TIP3    H222830   6.531   3.756   0.409 -0.6779  2.1845  1.0906
  399TIP3   OH222831   0.879   3.068   8.361  0.0570  0.4852 -0.1022
  399TIP3    H122832   0.922   3.153   8.364  0.0945  0.4543  0.4791
  399TIP3    H222833   0.942   3.008   8.401  0.0627  0.1698 -0.5829
  400TIP3   OH222834   1.874   2.847   1.688 -0.2229  0.4290 -0.3281
  400TIP3    H122835   1.924   2.833   1.608  1.0769 -0.3207  0.5754
  400TIP3    H222836   1.841   2.937   1.681 -2.1476 -0.3781 -2.7353
  401TIP3   OH222837   1.346   1.150   6.370  0.8229  0.4754 -0.0591
  401TIP3    H122838   1.385   1.072   6.331  1.8105 -0.2007  2.1171
  401TIP3    H222839   1.420   1.210   6.382  0.5494  0.6724  0.7182
  402TIP3   OH222840   1.968   6.755   8.756  0.1246  0.2573  0.5688
  402TIP3    H122841   1.954   6.823   8.690 -1.3279  1.2537  1.8272
  402TIP3    H222842   2.060   6.731   8.747  0.2082  1.0472 -1.1406
  403TIP3   OH222843   2.401   4.579   2.540  0.6392 -0.1661 -0.0928
  403TIP3    H122844   2.496   4.572   2.544  0.6629 -0.0631 -0.4408
  403TIP3    H222845   2.370   4.489   2.531  0.9391 -0.0397 -4.5879
  404TIP3   OH222846   5.600   6.066   8.763  0.2740  0.1303 -0.1627
  404TIP3    H122847   5.690   6.069   8.731  0.8851 -0.2589  1.4253
  404TIP3    H222848   5.584   5.974   8.781 -0.1806  0.2976  0.3045
  405TIP3   OH222849   3.550   0.670   1.941  0.5021  0.2727 -0.0992
  405TIP3    H122850   3.560   0.578   1.965 -0.4541  0.4304  0.9724
  405TIP3    H222851   3.458   0.690   1.960  0.8819  1.6478  0.4036
  406TIP3   OH222852   3.870   2.773   8.082  1.0081 -0.5890  0.4339
  406TIP3    H122853   3.841   2.834   8.014 -0.5894 -1.5414  0.2090
  406TIP3    H222854   3.849   2.816   8.164  1.3104 -0.1916  0.3059
  407TIP3   OH222855   3.683   1.529   8.696  0.0504 -0.3467  0.2981
  407TIP3    H122856   3.620   1.482   8.751  0.8622 -3.6781 -1.4071
  407TIP3    H222857   3.769   1.507   8.732  0.5206 -1.4812 -1.3844
  408TIP3   OH222858   5.434   1.339   1.752 -0.1236  0.1910  0.1160
  408TIP3    H122859   5.492   1.386   1.692  1.1564 -0.8813  0.4583
  408TIP3    H222860   5.416   1.257   1.707 -0.3945  0.0204  0.5389
  409TIP3   OH222861   6.741   3.024   2.480 -0.3438 -0.3128  0.0242
  409TIP3    H122862   6.751   3.035   2.575 -0.6587 -0.8543  0.1288
  409TIP3    H222863   6.829   3.005   2.448 -0.3182 -0.6583  0.2910
  410TIP3   OH222864   0.679   3.758   6.473  0.5443 -0.2760  0.2282
  410TIP3    H122865   0.687   3.667   6.442  0.9001 -0.2982  0.3831
  410TIP3    H222866   0.588   3.766   6.500  0.1477 -0.1843 -1.0691
  411TIP3   OH222867   2.537   6.705   0.531  0.5651 -0.4517 -0.2698
  411TIP3    H122868   2.613   6.761   0.544  1.0049 -1.0599 -0.2139
  411TIP3    H222869   2.568   6.617   0.549 -0.3224 -0.6393  0.4521
  412TIP3   OH222870   6.468   3.286   1.994 -0.0112  0.1844  0.2744
  412TIP3    H122871   6.405   3.254   1.930 -1.2732  1.2651  0.9359
  412TIP3    H222872   6.451   3.234   2.072  0.9990 -0.5942 -0.0036
  413TIP3   OH222873   2.336   5.508   0.304 -0.2447  0.2102  0.2802
  413TIP3    H122874   2.290   5.569   0.361  0.0439  0.7071 -0.0112
  413TIP3    H222875   2.267   5.466   0.252 -0.3193  1.7420 -0.9333
  414TIP3   OH222876   1.200   4.546   1.372  0.4583  0.1361  0.1775
  414TIP3    H122877   1.195   4.458   1.335  2.4531 -0.2051  0.6348
  414TIP3    H222878   1.161   4.602   1.305  0.0673 -0.9677 -0.5464
  415TIP3   OH222879   4.640   3.028   8.141  0.2105  0.2244 -0.0102
  415TIP3    H122880   4.545   3.030   8.148  0.3114 -0.6825  3.1717
  415TIP3    H222881   4.671   3.057   8.227  2.9125  2.4832 -1.5661
  416TIP3   OH222882   1.904   2.332   0.845 -0.0222  0.5518  0.2922
  416TIP3    H122883   1.847   2.321   0.769  0.6930  1.4873 -0.4059
  416TIP3    H222884   1.933   2.244   0.866  1.8537  0.4327 -2.2060
  417TIP3   OH222885   3.071   2.708   1.459 -0.5157  0.2108  0.5327
  417TIP3    H122886   2.978   2.718   1.480 -0.6636  1.1029 -0.4401
  417TIP3    H222887   3.101   2.798   1.441  0.1815 -0.2225 -0.5634
  418TIP3   OH222888   4.141   2.740   0.533 -0.3407  0.3128  0.2153
  418TIP3    H122889   4.210   2.795   0.495  0.6351 -0.4306  0.8613
  418TIP3    H222890   4.140   2.763   0.626  0.1340 -0.7958  0.5126
  419TIP3   OH222891   5.967   1.430   0.409  0.2320 -0.4177 -0.4044
  419TIP3    H122892   5.995   1.343   0.437  2.2816  0.1543 -0.5061
  419TIP3    H222893   6.026   1.453   0.338 -0.1727  1.1207 -0.2888
  420TIP3   OH222894   3.895   5.056   6.386  0.3559  0.3565  0.4915
  420TIP3    H122895   3.951   5.004   6.328  0.2164  0.1863  0.5092
  420TIP3    H222896   3.887   5.003   6.465 -1.2679 -0.4468 -0.1568
  421TIP3   OH222897   3.762   2.942   7.624  0.2116 -0.2302  0.2686
  421TIP3    H122898   3.796   2.923   7.536  0.8680 -0.5314  0.5739
  421TIP3    H222899   3.825   3.004   7.661 -0.8361  0.9973  0.0143
  422TIP3   OH222900   4.303   3.064   1.914 -0.0370  0.2436 -0.0517
  422TIP3    H122901   4.312   3.025   1.827 -1.7038  0.8038 -0.5098
  422TIP3    H222902   4.209   3.057   1.934 -0.3494  3.5026  0.0474
  423TIP3   OH222903   2.407   3.086   8.304 -0.2718  0.2210 -0.1009
  423TIP3    H122904   2.406   2.991   8.308 -0.5586  0.1874 -0.7917
  423TIP3    H222905   2.491   3.111   8.343 -0.3213 -0.2992  0.3337
  424TIP3   OH222906   3.105   0.586   8.428  0.0326 -0.1955  0.2654
  424TIP3    H122907   3.029   0.600   8.485  0.5183  0.3572  0.8020
  424TIP3    H222908   3.068   0.562   8.344 -0.7121 -0.9448  0.7914
  425TIP3   OH222909   1.028   5.595   8.085 -0.2524 -0.9710  0.2149
  425TIP3    H122910   0.970   5.653   8.036  0.6345 -0.6186 -0.4257
  425TIP3    H222911   1.032   5.634   8.173 -1.1387 -1.1178  0.3288
  426TIP3   OH222912   6.728   2.305   0.101 -0.0264 -0.2578 -0.3876
  426TIP3    H122913   6.758   2.219   0.131 -0.9648 -0.3111  0.4857
  426TIP3    H222914   6.704   2.351   0.182 -1.5876  0.0244 -0.9704
  427TIP3   OH222915   1.511   4.350   8.809  0.1191 -0.0067  0.1314
  427TIP3    H122916   1.423   4.333   8.842  0.1725 -1.6646 -0.4726
  427TIP3    H222917   1.557   4.267   8.820  1.1764  0.4217 -0.8600
  428TIP3   OH222918   2.639   0.565   8.131  0.0187 -0.2186 -0.2095
  428TIP3    H122919   2.716   0.607   8.169 -1.4679  0.8120  1.9075
  428TIP3    H222920   2.599   0.632   8.076 -0.9713  0.3559  1.1457
  429TIP3   OH222921   5.227   1.585   6.542  0.0275 -0.8518 -0.4468
  429TIP3    H122922   5.178   1.551   6.617 -0.0908  2.4711  1.1431
  429TIP3    H222923   5.161   1.627   6.487  0.5575 -0.1585 -0.5641
  430TIP3   OH222924   2.420   6.437   8.200  0.5631 -0.3360 -0.3663
  430TIP3    H122925   2.382   6.447   8.113  1.1286 -0.4783 -0.6307
  430TIP3    H222926   2.501   6.389   8.186 -0.0721 -1.6987  0.4033
  431TIP3   OH222927   4.392   0.898   1.356  0.2434 -0.0169  0.0118
  431TIP3    H122928   4.394   0.863   1.445  0.2839  0.1419  0.0734
  431TIP3    H222929   4.483   0.919   1.336  0.0525  1.3372  0.4859
  432TIP3   OH222930   4.618   5.741   0.573  0.2158  0.0300  0.0176
  432TIP3    H122931   4.700   5.706   0.539  0.3054  0.0524  0.2090
  432TIP3    H222932   4.639   5.771   0.662  0.6645  2.4566 -0.8278
  433TIP3   OH222933   4.171   2.870   8.465  0.1587  0.4351 -0.4896
  433TIP3    H122934   4.254   2.831   8.492 -1.0752 -1.8990  0.2128
  433TIP3    H222935   4.129   2.803   8.411 -1.4554  1.3803 -0.4844
  434TIP3   OH222936   2.829   5.359   6.541 -0.9454 -0.4977 -0.2481
  434TIP3    H122937   2.861   5.298   6.608  0.3571 -0.0940 -0.4633
  434TIP3    H222938   2.849   5.446   6.575 -2.3353 -0.1859 -0.1709
  435TIP3   OH222939   6.508   5.175   0.543  0.9522  0.3520  0.0842
  435TIP3    H122940   6.435   5.135   0.497 -0.6856  2.8663  0.3104
  435TIP3    H222941   6.505   5.138   0.631 -0.1093  0.4897  0.1086
  436TIP3   OH222942   2.531   2.032   6.413 -0.2248  0.3636  0.2967
  436TIP3    H122943   2.460   2.037   6.349 -0.8056  0.9481  0.9606
  436TIP3    H222944   2.561   1.942   6.409 -0.1929  0.4130 -0.8566
  437TIP3   OH222945   1.198   5.240   1.355 -0.1755 -0.0091  0.5567
  437TIP3    H122946   1.109   5.275   1.358 -0.9458 -1.9738  2.0079
  437TIP3    H222947   1.206   5.202   1.267  0.0683  2.0844 -0.3967
  438TIP3   OH222948   0.617   1.843   2.419  0.4279  0.0371 -0.4636
  438TIP3    H122949   0.704   1.810   2.395  0.8634  0.5187  0.4044
  438TIP3    H222950   0.635   1.925   2.466 -0.2465 -1.5766  2.8690
  439TIP3   OH222951   3.424   2.860   0.051 -0.7686 -0.2233  0.0639
  439TIP3    H122952   3.349   2.882  -0.004 -0.2391  0.6312 -0.3192
  439TIP3    H222953   3.457   2.778   0.014  0.3146  0.9474 -1.6844
  440TIP3   OH222954   4.852   5.613   2.160  0.1928  0.5260 -0.1094
  440TIP3    H122955   4.879   5.533   2.205 -2.4545  0.0169  0.7145
  440TIP3    H222956   4.868   5.683   2.223  2.6730  0.7660 -0.8922
  441TIP3   OH222957   2.071   0.454   7.364  0.7749 -0.0193 -0.3476
  441TIP3    H122958   1.996   0.448   7.422  0.3964  2.7703 -0.4220
  441TIP3    H222959   2.047   0.400   7.288  0.0761 -1.3829  0.7944
  442TIP3   OH222960   1.735   0.823   1.118 -0.1654  0.1518  0.1150
  442TIP3    H122961   1.672   0.844   1.049  0.3768 -1.9982 -1.1539
  442TIP3    H222962   1.818   0.859   1.087 -0.0966 -0.0582  0.0488
  443TIP3   OH222963   4.585   4.789   7.808 -0.2931  0.2742  0.0581
  443TIP3    H122964   4.609   4.875   7.773  0.4327  0.4070  0.8585
  443TIP3    H222965   4.647   4.729   7.767  0.1351  0.3394  0.6011
  444TIP3   OH222966   0.698   3.758   1.860  0.0144  0.4385 -0.1571
  444TIP3    H122967   0.722   3.668   1.840  1.1858  0.3004  1.6319
  444TIP3    H222968   0.743   3.810   1.793  1.0696 -0.1974  0.0296
  445TIP3   OH222969   2.888   1.040   7.188  0.0857  0.9441  0.0106
  445TIP3    H122970   2.886   0.948   7.215 -1.6860  0.6099 -1.1080
  445TIP3    H222971   2.912   1.088   7.268  1.0068 -0.4709  0.6124
  446TIP3   OH222972   0.604   5.499   7.614  0.2285 -0.2739 -0.0706
  446TIP3    H122973   0.588   5.555   7.690  0.3700  0.1697 -0.3631
  446TIP3    H222974   0.697   5.512   7.594  0.1931 -0.3982 -0.3172
  447TIP3   OH222975   4.703   5.661   1.842  0.4782  0.3162  0.6824
  447TIP3    H122976   4.693   5.755   1.858  0.3531  0.4629 -0.2017
  447TIP3    H222977   4.648   5.619   1.908 -2.0066  0.9618 -0.8596
  448TIP3   OH222978   2.092   6.025   2.105  0.0593 -0.5817 -0.0495
  448TIP3    H122979   2.049   5.956   2.055 -1.4834  0.6745 -0.5527
  448TIP3    H222980   2.147   6.070   2.042 -1.1594  0.4086 -0.4568
  449TIP3   OH222981   6.769   6.079   1.350 -0.5380  0.4998 -0.2837
  449TIP3    H122982   6.722   6.007   1.308 -0.8958  0.3037  0.4400
  449TIP3    H222983   6.735   6.158   1.308 -0.6574  0.2841 -0.5902
  450TIP3   OH222984   6.392   2.480   7.379 -0.7710  0.0289 -0.0541
  450TIP3    H122985   6.364   2.572   7.380  0.3584  0.4070 -0.8059
  450TIP3    H222986   6.314   2.431   7.404 -1.7214  1.1102 -0.7885
  451TIP3   OH222987   4.077   5.216   2.368  0.0607  0.5978  0.1775
  451TIP3    H122988   3.991   5.258   2.369 -0.4493 -0.4201  0.3145
  451TIP3    H222989   4.098   5.202   2.461 -0.1710 -0.2249  0.1119
  452TIP3   OH222990   3.607   4.192   7.438 -0.8753 -0.1728  0.3085
  452TIP3    H122991   3.586   4.141   7.360 -0.5519  2.5796 -1.7533
  452TIP3    H222992   3.540   4.168   7.502 -1.8822 -1.6670 -1.2325
  453TIP3   OH222993   4.379   3.634   1.199  0.3427  0.0493 -0.2878
  453TIP3    H122994   4.317   3.694   1.241 -1.2248  0.2090 -2.6508
  453TIP3    H222995   4.363   3.550   1.242 -1.8930 -0.0188 -1.1006
  454TIP3   OH222996   4.590   1.455   0.734  0.1018 -0.2911  0.6912
  454TIP3    H122997   4.587   1.504   0.652 -1.4327 -2.1583 -0.4641
  454TIP3    H222998   4.581   1.363   0.708  1.9832 -1.1759  2.8065
  455TIP3   OH222999   0.066   4.619   1.298 -0.6427  0.2249  0.6164
  455TIP3    H123000  -0.022   4.655   1.309 -0.1625  1.0375  1.9391
  455TIP3    H223001   0.122   4.674   1.353  0.0961 -2.6300  2.9662
  456TIP3   OH223002   3.086   6.629   7.212 -0.3144  0.1114  0.0822
  456TIP3    H123003   3.135   6.710   7.193 -0.4276  0.0864 -0.3263
  456TIP3    H223004   3.130   6.593   7.289 -0.2550  0.5574  0.2640
  457TIP3   OH223005   3.563   0.483   6.765 -0.0074  0.0751 -0.4965
  457TIP3    H123006   3.478   0.456   6.728 -1.2975  1.9878  0.8886
  457TIP3    H223007   3.564   0.445   6.853  1.6225 -1.7765 -1.2478
  458TIP3   OH223008   2.226   5.326   8.546 -0.2580  0.7428 -0.2972
  458TIP3    H123009   2.250   5.258   8.609 -1.1335  0.5355 -0.1632
  458TIP3    H223010   2.282   5.310   8.470  2.1810  2.1500  1.0892
  459TIP3   OH223011   4.725   0.784   0.727  0.4360  0.7841  0.7774
  459TIP3    H123012   4.637   0.819   0.708 -0.5010 -1.2458  1.0976
  459TIP3    H223013   4.757   0.839   0.798 -0.6123  1.5282  0.7082
  460TIP3   OH223014   4.922   1.596   7.187  0.0342 -0.3188  0.0219
  460TIP3    H123015   5.003   1.563   7.148  0.2676  0.7939 -0.4498
  460TIP3    H223016   4.852   1.560   7.133  0.3434  1.0186 -1.3148
  461TIP3   OH223017   4.344   2.223   0.971  1.0931 -0.4055 -0.2803
  461TIP3    H123018   4.372   2.296   0.916  0.5124  0.7471  0.8896
  461TIP3    H223019   4.422   2.168   0.980  1.7143  0.3839 -0.6951
  462TIP3   OH223020   3.543   1.335   0.970 -0.1060  0.1207 -0.3238
  462TIP3    H123021   3.508   1.324   0.882 -1.1355  3.9395 -0.5569
  462TIP3    H223022   3.490   1.277   1.024  0.5756 -2.3346 -2.1280
  463TIP3   OH223023   2.486   6.567   7.543  0.2745 -0.1124 -0.0679
  463TIP3    H123024   2.561   6.588   7.487 -0.0201  0.3267 -0.2924
  463TIP3    H223025   2.413   6.556   7.483 -0.5147  2.3465  0.3480
  464TIP3   OH223026   1.391   2.847   7.905 -0.0004  0.6213  0.2200
  464TIP3    H123027   1.307   2.868   7.865  0.3714  0.6698 -0.5613
  464TIP3    H223028   1.453   2.848   7.832  0.2388 -2.1587  0.2526
  465TIP3   OH223029   2.099   4.293   8.094  0.0232  0.1462 -0.4282
  465TIP3    H123030   2.056   4.224   8.144  0.0440  0.6617  0.3167
  465TIP3    H223031   2.121   4.359   8.159  1.5090  0.1130 -0.8594
  466TIP3   OH223032   6.467   1.245   0.629 -0.3395 -0.0388  0.3546
  466TIP3    H123033   6.418   1.267   0.709 -0.4477 -1.5994  0.7589
  466TIP3    H223034   6.549   1.295   0.636 -0.8684  0.7948  0.8169
  467TIP3   OH223035   4.098   4.657   8.178 -1.2022 -0.1130 -0.1577
  467TIP3    H123036   4.074   4.743   8.212  0.2090  0.4226 -0.4608
  467TIP3    H223037   4.131   4.673   8.090  2.5242 -0.3524  0.9896
  468TIP3   OH223038   3.144   6.841   7.582 -0.1162  0.2840 -0.1960
  468TIP3    H123039   3.226   6.838   7.531 -0.0658 -2.9580 -0.0803
  468TIP3    H223040   3.164   6.795   7.663 -2.2129 -1.1868 -0.4437
  469TIP3   OH223041   1.042   4.595   1.098 -0.1621  0.2677  0.4586
  469TIP3    H123042   1.104   4.532   1.063  1.2835  0.6913  2.0941
  469TIP3    H223043   1.067   4.679   1.060 -0.4550  0.2644  0.2541
  470TIP3   OH223044   0.426   0.680   7.561 -0.1157 -0.1414  0.1054
  470TIP3    H123045   0.334   0.688   7.589  0.0406 -2.4930  1.5560
  470TIP3    H223046   0.421   0.656   7.469 -1.1266 -2.7629  0.7605
  471TIP3   OH223047   3.865   1.133   7.950 -0.3571  0.3943  0.1799
  471TIP3    H123048   3.844   1.041   7.960  0.4606 -0.0204 -1.5789
  471TIP3    H223049   3.959   1.135   7.929 -0.5633  1.5366 -0.7769
  472TIP3   OH223050   4.892   5.684   0.584 -0.8580 -0.8942 -0.5995
  472TIP3    H123051   4.932   5.767   0.608  0.0145 -1.2076 -0.9208
  472TIP3    H223052   4.911   5.626   0.658  0.4207 -1.3997 -1.2804
  473TIP3   OH223053   2.263   2.056   6.331 -0.3626  0.0409  0.2997
  473TIP3    H123054   2.234   1.970   6.300 -0.5508  0.0839  0.3557
  473TIP3    H223055   2.205   2.076   6.404  0.7994 -0.5727  1.4253
  474TIP3   OH223056   0.515   5.164   8.796  0.0005  0.3011 -0.1953
  474TIP3    H123057   0.514   5.207   8.710  0.2146  0.3398 -0.1795
  474TIP3    H223058   0.578   5.093   8.786 -1.9821 -1.4676 -0.9021
  475TIP3   OH223059   6.521   4.091   8.709  0.6863  0.0750  0.8193
  475TIP3    H123060   6.529   4.099   8.804 -0.9283  2.4898  0.8535
  475TIP3    H223061   6.437   4.047   8.696  1.0858 -0.6041  0.4958
  476TIP3   OH223062   0.660   2.127   0.635  0.0534 -0.0691  0.5914
  476TIP3    H123063   0.573   2.117   0.597 -0.0175 -0.2668  0.8030
  476TIP3    H223064   0.701   2.041   0.623  0.8316  0.4903 -1.0135
  477TIP3   OH223065   2.042   0.048   0.514 -0.1395  0.1732  0.1914
  477TIP3    H123066   2.120  -0.002   0.491  0.4505  1.1275  0.0749
  477TIP3    H223067   1.989  -0.013   0.565  0.5551 -0.5747  0.0392
  478TIP3   OH223068   2.720   3.638   2.520 -0.6771  0.0731 -0.4790
  478TIP3    H123069   2.744   3.712   2.576 -0.5670 -0.1890 -0.1754
  478TIP3    H223070   2.803   3.605   2.485 -0.4440 -1.4227  1.3169
  479TIP3   OH223071   5.648   0.453   0.550 -0.2327 -0.2500 -0.8248
  479TIP3    H123072   5.721   0.479   0.494 -0.4451 -0.0452 -1.0080
  479TIP3    H223073   5.625   0.533   0.598  2.0741 -1.1079  2.0390
  480TIP3   OH223074   6.101   2.396   2.221 -0.3826 -0.0243  0.0995
  480TIP3    H123075   6.122   2.465   2.158 -0.8543  0.4871  0.4877
  480TIP3    H223076   6.186   2.368   2.254 -0.0987 -0.5817 -1.0410
  481TIP3   OH223077   3.683   0.686   7.557 -0.3484 -0.1667  0.6133
  481TIP3    H123078   3.649   0.681   7.647 -2.6967  2.6093  0.0255
  481TIP3    H223079   3.741   0.762   7.557 -1.1817  0.5142 -0.3657
  482TIP3   OH223080   6.480   2.909   2.354 -0.1634 -0.2122  0.1703
  482TIP3    H123081   6.557   2.915   2.297 -1.0555  0.6112 -0.9833
  482TIP3    H223082   6.492   2.980   2.417 -0.4380  0.5394 -0.6065
  483TIP3   OH223083   5.181   3.665   8.414  0.4698  0.5239  0.3991
  483TIP3    H123084   5.190   3.667   8.509 -0.0416  1.7969  0.4364
  483TIP3    H223085   5.140   3.581   8.396  1.2776 -0.0687  1.2268
  484TIP3   OH223086   4.392   4.249   0.430 -0.0106  0.1346 -0.2878
  484TIP3    H123087   4.446   4.170   0.434  0.4403  0.4070 -0.8773
  484TIP3    H223088   4.374   4.270   0.522 -0.2729 -0.7395 -0.1229
  485TIP3   OH223089   6.317   0.003   1.452 -0.5193 -0.3188  0.3357
  485TIP3    H123090   6.245   0.060   1.425 -0.6791 -1.2938 -1.5205
  485TIP3    H223091   6.383   0.015   1.383  0.7165 -0.1268  1.5245
  486TIP3   OH223092   4.489   4.745   8.254  0.0307 -0.1258  0.3462
  486TIP3    H123093   4.403   4.714   8.226 -0.3767  1.2967 -0.0484
  486TIP3    H223094   4.471   4.805   8.326  0.8026 -0.8294  1.1392
  487TIP3   OH223095   1.640   3.300   2.329  0.1145 -0.1539 -0.4161
  487TIP3    H123096   1.644   3.238   2.257 -0.1080 -0.0493 -0.5201
  487TIP3    H223097   1.719   3.284   2.379  0.4007 -0.0488 -0.8317
  488TIP3   OH223098   1.922   0.387   8.460  0.5595 -0.1259  0.3083
  488TIP3    H123099   1.915   0.482   8.450  0.3237 -0.1698  0.0369
  488TIP3    H223100   1.921   0.354   8.370  0.6513 -0.3854  0.4015
  489TIP3   OH223101   3.171   6.182   0.196 -0.0266  0.1515 -0.3982
  489TIP3    H123102   3.159   6.241   0.122  0.3351 -1.6963 -2.0408
  489TIP3    H223103   3.264   6.191   0.218 -0.5825  2.3072  1.3523
  490TIP3   OH223104   6.516   5.571   0.852  0.1359  0.1476  0.8261
  490TIP3    H123105   6.431   5.565   0.808 -0.9278  0.1372  2.7638
  490TIP3    H223106   6.531   5.482   0.886  1.7254 -0.2667 -0.8383
  491TIP3   OH223107   5.728   1.396   1.052 -0.4009 -0.0243 -0.3469
  491TIP3    H123108   5.657   1.443   1.097  0.0465 -1.5100  2.1527
  491TIP3    H223109   5.749   1.323   1.111  1.3013 -1.2952 -2.3600
  492TIP3   OH223110   4.209   5.760   2.313  0.1982 -0.4563 -0.3603
  492TIP3    H123111   4.149   5.687   2.327  0.0175 -0.1272  0.6255
  492TIP3    H223112   4.165   5.835   2.352  0.0229  0.3620 -2.0696
  493TIP3   OH223113   3.124   5.769   1.054  0.5378  0.2762 -0.2152
  493TIP3    H123114   3.153   5.678   1.052  2.1102  0.7285  0.4170
  493TIP3    H223115   3.117   5.791   1.147  2.1453  1.3330 -0.2813
  494TIP3   OH223116   5.605   3.862   7.155  0.0622  0.6793 -0.2890
  494TIP3    H123117   5.660   3.905   7.220  0.6290  0.0547 -0.3439
  494TIP3    H223118   5.570   3.933   7.102  0.8128  1.0877 -0.2476
  495TIP3   OH223119   3.739   5.228   1.950 -0.1928 -0.2314 -0.0679
  495TIP3    H123120   3.747   5.296   2.016 -2.8254  0.8140 -0.6851
  495TIP3    H223121   3.741   5.275   1.867 -1.6168 -0.9033 -0.5281
  496TIP3   OH223122   3.115   4.428   1.524 -0.0005  0.3226  0.1927
  496TIP3    H123123   3.144   4.476   1.602  1.2770  2.0887 -1.2598
  496TIP3    H223124   3.193   4.424   1.468 -1.2387  0.4955 -1.6433
  497TIP3   OH223125   1.765   6.470   1.306 -0.1155 -0.3460  0.1977
  497TIP3    H123126   1.791   6.467   1.398 -1.0255  0.0073  0.4824
  497TIP3    H223127   1.800   6.553   1.273 -1.8129  0.7122  0.8996
  498TIP3   OH223128   4.756   4.326   7.959 -0.1578  0.6010  0.4921
  498TIP3    H123129   4.837   4.331   8.009 -0.9904  0.6533  1.8780
  498TIP3    H223130   4.715   4.244   7.986 -0.0228 -0.0153 -1.0855
  499TIP3   OH223131   1.349   3.000   1.303 -0.3882  0.1149 -0.0137
  499TIP3    H123132   1.344   3.064   1.232  1.5387  1.2150  0.7579
  499TIP3    H223133   1.377   2.919   1.260 -1.9082  0.0227 -0.8676
  500TIP3   OH223134   0.864   1.419   2.015 -0.0862  0.7099 -0.0183
  500TIP3    H123135   0.772   1.409   1.989  0.1539  1.0727 -1.0822
  500TIP3    H223136   0.867   1.390   2.106 -1.2569  0.6992  0.0314
  501TIP3   OH223137   3.872   4.117   8.577 -0.3469  0.1386  0.0735
  501TIP3    H123138   3.951   4.113   8.523 -1.8958 -0.1519 -2.3064
  501TIP3    H223139   3.894   4.177   8.648  1.3033  1.8498 -1.7822
  502TIP3   OH223140   0.381   2.248   6.722 -0.5184 -0.2949 -0.0392
  502TIP3    H123141   0.324   2.317   6.754 -0.7943 -0.7839  0.5639
  502TIP3    H223142   0.460   2.256   6.775 -0.4013 -0.2117 -0.2247
  503TIP3   OH223143   0.124   2.662   8.773  0.1437 -0.0081  0.7331
  503TIP3    H123144   0.199   2.715   8.800  0.7434 -1.0755  1.2058
  503TIP3    H223145   0.123   2.669   8.677  2.4214 -2.0113  0.4749
  504TIP3   OH223146   2.531   4.821   0.666  0.4287  0.1988  0.1104
  504TIP3    H123147   2.610   4.781   0.630  1.2114  2.4590 -0.8399
  504TIP3    H223148   2.500   4.880   0.598 -0.5206  1.3929  1.4983
  505TIP3   OH223149   5.684   4.998   7.509 -0.2772  0.3619  0.9754
  505TIP3    H123150   5.733   4.954   7.578  0.6142 -1.6715 -0.8626
  505TIP3    H223151   5.593   4.992   7.537  0.2011  2.0942  3.2772
  506TIP3   OH223152   5.914   2.919   0.048  0.0770  0.0575  0.1026
  506TIP3    H123153   5.962   2.837   0.043  0.9031  0.3861  1.8507
  506TIP3    H223154   5.947   2.961   0.128 -1.4984  1.3350  0.1283
  507TIP3   OH223155   3.398   5.274   2.303 -0.0248 -0.0679  0.4325
  507TIP3    H123156   3.305   5.266   2.281 -0.0670 -1.0172  0.9048
  507TIP3    H223157   3.420   5.365   2.283 -1.3094  0.4492  1.2938
  508TIP3   OH223158   2.243   4.134   0.588 -0.1972  0.2612 -0.5903
  508TIP3    H123159   2.335   4.128   0.563 -0.1435 -0.1959 -0.2911
  508TIP3    H223160   2.216   4.043   0.605 -0.7283  0.3810 -0.7742
  509TIP3   OH223161   4.899   0.139   1.527 -0.0114  0.1158  0.4862
  509TIP3    H123162   4.990   0.123   1.552 -0.3904  0.1705  1.9867
  509TIP3    H223163   4.891   0.234   1.522  0.3497  0.0924 -1.0629
  510TIP3   OH223164   2.184   0.209   0.989  0.1870  0.0834 -0.2526
  510TIP3    H123165   2.238   0.250   1.057 -0.1147 -1.7029  1.1407
  510TIP3    H223166   2.155   0.127   1.028 -2.4482  0.3432 -1.4675
  511TIP3   OH223167   4.789   3.662   0.392  0.1018 -0.0862  0.1978
  511TIP3    H123168   4.751   3.690   0.475 -0.7370 -1.6178  0.3598
  511TIP3    H223169   4.789   3.567   0.396  1.0331 -0.1712 -1.1337
  512TIP3   OH223170   4.017   6.557   6.844  0.3778 -0.1661 -0.7504
  512TIP3    H123171   3.999   6.648   6.822 -1.5814 -0.8240 -2.2129
  512TIP3    H223172   3.997   6.550   6.937  1.6124  1.0957 -0.3617
  513TIP3   OH223173   4.245   0.885   2.263 -0.0976 -0.3572  0.2759
  513TIP3    H123174   4.310   0.892   2.333  0.7380 -0.2854 -0.4890
  513TIP3    H223175   4.212   0.974   2.253  2.4343  0.4550 -1.8583
  514TIP3   OH223176   1.926   4.441   7.686  0.4087 -0.4322 -0.1707
  514TIP3    H123177   1.854   4.484   7.731  0.7847 -1.0258  1.0396
  514TIP3    H223178   1.932   4.485   7.601 -0.1568  0.8658  0.4513
  515TIP3   OH223179   5.994   3.753   8.747 -0.4555 -0.4929 -0.1919
  515TIP3    H123180   5.954   3.808   8.679  1.9733  1.5852 -0.0898
  515TIP3    H223181   6.051   3.693   8.699 -1.0071 -1.0691 -0.1367
  516TIP3   OH223182   5.223   5.807   1.190 -0.3333  0.2741 -0.0499
  516TIP3    H123183   5.296   5.751   1.216  0.4944 -0.3395 -3.3190
  516TIP3    H223184   5.256   5.896   1.202  0.6629  0.0034 -0.6803
  517TIP3   OH223185   3.767   6.819   0.291 -0.7004  0.5407 -0.3551
  517TIP3    H123186   3.802   6.854   0.209 -0.7302  0.9670 -0.1875
  517TIP3    H223187   3.844   6.800   0.344 -0.6835  0.3429 -0.4523
  518TIP3   OH223188   4.721   5.289   1.070  0.0921 -0.0961  1.0716
  518TIP3    H123189   4.695   5.216   1.126  0.8253  0.1638  1.7755
  518TIP3    H223190   4.811   5.308   1.096 -0.2690  1.4185  1.3094
  519TIP3   OH223191   0.466   1.226   2.251 -0.5151 -0.4647  0.2708
  519TIP3    H123192   0.526   1.182   2.191  0.5217  0.8684  0.2717
  519TIP3    H223193   0.400   1.160   2.273 -0.2189 -1.3428 -1.3583
  520TIP3   OH223194   1.567   5.910   7.071 -0.3259  0.4208  0.6952
  520TIP3    H123195   1.514   5.843   7.028  1.6978 -0.8776  0.0952
  520TIP3    H223196   1.529   5.993   7.042  0.0698 -0.4062 -2.5635
  521TIP3   OH223197   4.463   4.538   8.541  0.1246  0.3408  0.5848
  521TIP3    H123198   4.515   4.595   8.484 -1.0762 -0.4119 -1.3527
  521TIP3    H223199   4.483   4.569   8.630  2.5548  1.1579 -0.1479
  522TIP3   OH223200   1.465   0.714   0.210 -0.1799 -0.1035 -0.2226
  522TIP3    H123201   1.397   0.660   0.250 -0.0318 -0.0631  0.0963
  522TIP3    H223202   1.435   0.731   0.121  0.0317 -1.1834 -0.5155
  523TIP3   OH223203   5.932   2.518   7.487  0.4781  0.0547  0.0845
  523TIP3    H123204   5.846   2.559   7.485  0.6158  0.3184 -1.1668
  523TIP3    H223205   5.990   2.578   7.440  1.3548 -0.1280  0.8793
  524TIP3   OH223206   2.306   6.401   6.434 -0.3082 -0.3457 -0.5810
  524TIP3    H123207   2.233   6.426   6.491  2.4868  1.3495  2.6293
  524TIP3    H223208   2.298   6.460   6.359 -0.4119  2.3658  1.3961
  525TIP3   OH223209   2.959   4.494   6.982 -0.8320  0.3770  0.3850
  525TIP3    H123210   3.036   4.511   6.927 -0.4462  1.5913  1.2607
  525TIP3    H223211   2.951   4.399   6.983  0.1563  0.2661 -0.3929
  526TIP3   OH223212   4.767   4.059   7.767  0.4492  0.0994  0.5725
  526TIP3    H123213   4.696   4.105   7.723  0.6184 -0.1167  0.0683
  526TIP3    H223214   4.829   4.037   7.697 -0.1179 -1.8352  0.6265
  527TIP3   OH223215   1.771   5.167   7.677 -0.4409 -0.2609  0.5282
  527TIP3    H123216   1.800   5.184   7.588  0.8441  0.2404  1.0120
  527TIP3    H223217   1.695   5.224   7.689  0.5138  1.1210  0.3445
  528TIP3   OH223218   0.835   3.478   7.912 -1.1339  0.0690  0.7361
  528TIP3    H123219   0.748   3.501   7.877  0.3193  2.7549 -1.5584
  528TIP3    H223220   0.874   3.424   7.844 -0.6164 -0.2817  1.3040
  529TIP3   OH223221   4.801   2.581   1.464 -0.1385 -0.4171 -0.4842
  529TIP3    H123222   4.771   2.613   1.379  0.2620  3.3700  0.6006
  529TIP3    H223223   4.867   2.516   1.444 -0.6622 -0.2558 -3.0545
  530TIP3   OH223224   5.592   6.816   7.459  0.1048 -0.1445  0.2185
  530TIP3    H123225   5.667   6.827   7.401  0.3434 -1.6841  0.1733
  530TIP3    H223226   5.565   6.905   7.482  1.6016  0.4441 -0.1967
  531TIP3   OH223227   0.099   1.291   1.902 -0.5146 -0.1535  0.0372
  531TIP3    H123228   0.099   1.218   1.839  0.0078  0.0759 -0.2373
  531TIP3    H223229   0.106   1.369   1.848 -0.8728  0.0903  0.3444
  532TIP3   OH223230   6.063   4.312   0.162  0.5292 -0.2722  0.1418
  532TIP3    H123231   6.052   4.218   0.177 -0.1220 -0.1508  0.4891
  532TIP3    H223232   6.095   4.319   0.072 -0.9220 -0.7481 -0.4351
  533TIP3   OH223233   3.665   5.450   1.376  0.8333 -0.1423  0.1843
  533TIP3    H123234   3.685   5.543   1.388  0.0740  0.0106  0.3731
  533TIP3    H223235   3.717   5.406   1.443  0.0745  0.3017  1.1120
  534TIP3   OH223236   4.781   3.740   0.674 -0.0268 -0.1840  0.1691
  534TIP3    H123237   4.724   3.701   0.739  0.7309 -1.7536 -0.0713
  534TIP3    H223238   4.773   3.835   0.688 -0.7683 -0.4606  1.7404
  535TIP3   OH223239   6.388   4.517   1.624  0.1612  0.0139 -0.1001
  535TIP3    H123240   6.482   4.521   1.643 -0.0801 -1.0841  1.4652
  535TIP3    H223241   6.384   4.514   1.528  1.6061  2.1277 -0.3047
  536TIP3   OH223242   5.911   6.512   0.952  0.3731  0.2471 -0.1280
  536TIP3    H123243   5.897   6.418   0.939  1.8425  0.0529 -0.4265
  536TIP3    H223244   6.005   6.521   0.965  0.2994  1.7268 -0.4532
  537TIP3   OH223245   1.414   3.647   0.359  0.2377  0.0317  0.0373
  537TIP3    H123246   1.427   3.566   0.408 -0.2582  0.2125  0.4659
  537TIP3    H223247   1.326   3.676   0.382 -0.2139 -0.1474 -1.3501
  538TIP3   OH223248   3.872   1.793   8.272  0.0241 -0.0117  0.5632
  538TIP3    H123249   3.783   1.774   8.240 -0.5363  2.2215  0.5966
  538TIP3    H223250   3.858   1.858   8.341  1.6663  0.1123  0.7995
  539TIP3   OH223251   4.382   1.310   0.389 -0.1953 -0.4109 -0.2734
  539TIP3    H123252   4.402   1.349   0.303 -1.3212  0.7169 -0.0516
  539TIP3    H223253   4.452   1.246   0.403  0.1343 -0.4645 -1.9347
  540TIP3   OH223254   0.278   5.423   1.441  0.0027  0.2775  0.0334
  540TIP3    H123255   0.195   5.456   1.407 -0.5411  0.8029  1.7569
  540TIP3    H223256   0.336   5.421   1.365 -1.5172  0.0836 -1.1665
  541TIP3   OH223257   5.117   5.057   1.376  0.6303  0.4541  0.0890
  541TIP3    H123258   5.077   5.043   1.290  0.1531  1.4295  0.1374
  541TIP3    H223259   5.089   4.981   1.427 -0.8241  0.8879 -0.0084
  542TIP3   OH223260   6.700   2.962   2.193  0.2894 -0.5762 -0.3476
  542TIP3    H123261   6.705   3.020   2.269  0.9320  1.0813 -1.5944
  542TIP3    H223262   6.781   2.912   2.197  0.2222 -0.6538  0.1711
  543TIP3   OH223263   4.617   0.619   8.524 -0.5350  0.4140 -0.0960
  543TIP3    H123264   4.551   0.663   8.578 -0.5974  1.1886 -0.7818
  543TIP3    H223265   4.620   0.670   8.444 -0.1950 -0.5201 -0.6965
  544TIP3   OH223266   4.127   5.442   1.559 -0.4607  0.2202 -0.5014
  544TIP3    H123267   4.119   5.380   1.632  2.0482  0.0612 -0.2773
  544TIP3    H223268   4.081   5.400   1.487 -2.6307  0.1883  0.8371
  545TIP3   OH223269   1.599   5.088   8.040 -0.5823 -0.7718 -0.3430
  545TIP3    H123270   1.657   5.126   8.107  1.0143 -2.2932 -0.8032
  545TIP3    H223271   1.534   5.156   8.025 -1.0167 -0.3364  2.7265
  546TIP3   OH223272   6.040   6.201   7.595 -0.5244 -0.1100 -0.5301
  546TIP3    H123273   5.961   6.184   7.543  0.5583 -1.7050 -1.7671
  546TIP3    H223274   6.093   6.122   7.583  0.8765  0.5564  0.9886
  547TIP3   OH223275   4.037   2.095   8.263  0.4534 -0.4499 -0.8369
  547TIP3    H123276   4.083   2.012   8.249 -2.6489 -2.6065  0.6835
  547TIP3    H223277   3.953   2.083   8.219 -0.5692  1.3595  0.5207
  548TIP3   OH223278   5.923   1.447   8.485 -0.8348  0.1292 -0.1266
  548TIP3    H123279   5.924   1.431   8.580 -0.1367 -3.3859 -0.5673
  548TIP3    H223280   5.934   1.541   8.476 -0.3157  0.5265  3.2845
  549TIP3   OH223281   6.006   6.710   8.175 -0.1460  0.3935  0.5164
  549TIP3    H123282   5.912   6.722   8.186 -0.3223  0.3277 -0.7320
  549TIP3    H223283   6.014   6.665   8.091  0.9392 -0.8362  1.2426
  550TIP3   OH223284   1.213   2.811   0.324  0.3741 -0.1843 -0.5916
  550TIP3    H123285   1.124   2.793   0.291 -0.0495 -0.9223  0.8875
  550TIP3    H223286   1.254   2.862   0.254 -1.3930  0.6290 -1.1028
  551TIP3   OH223287   2.561   1.419   0.084 -0.5196 -0.0413 -0.0648
  551TIP3    H123288   2.568   1.325   0.070  0.0537  0.0456 -0.3779
  551TIP3    H223289   2.607   1.458   0.010 -3.2533  0.5628 -1.5932
  552TIP3   OH223290   5.142   0.159   8.784 -0.1626 -0.2071 -0.4165
  552TIP3    H123291   5.049   0.138   8.779 -0.1784 -0.2252 -0.0591
  552TIP3    H223292   5.160   0.167   8.877 -0.0646  0.9578 -0.5196
  553TIP3   OH223293   4.556   1.087   7.150  0.1411  0.5395 -0.2545
  553TIP3    H123294   4.559   1.008   7.096  0.4474  1.0263 -0.9764
  553TIP3    H223295   4.583   1.059   7.237  0.4862 -0.1005 -0.5613
  554TIP3   OH223296   1.195   5.877   8.157  0.2301 -0.2563 -0.2759
  554TIP3    H123297   1.174   5.955   8.105  3.0862  0.8306  0.0284
  554TIP3    H223298   1.157   5.895   8.243 -2.0839 -0.8195 -1.0929
  555TIP3   OH223299   1.548   3.095   2.145 -0.7120 -0.0622  0.3477
  555TIP3    H123300   1.461   3.107   2.106 -0.5892 -0.4731 -0.0608
  555TIP3    H223301   1.599   3.053   2.076 -0.3751 -0.4314  0.8178
  556TIP3   OH223302   3.262   2.207   0.117 -0.4711  0.4950  0.2802
  556TIP3    H123303   3.343   2.256   0.098 -1.0152  1.0514 -0.6720
  556TIP3    H223304   3.192   2.268   0.096 -1.1656  0.2628  1.7614
  557TIP3   OH223305   2.729   3.568   7.909 -0.2963  0.0600 -0.5394
  557TIP3    H123306   2.648   3.618   7.914  0.1781  0.7652  1.1655
  557TIP3    H223307   2.797   3.635   7.898  0.4267  0.0114  2.6007
  558TIP3   OH223308   5.270   6.440   8.076  0.5253  0.3633 -0.8335
  558TIP3    H123309   5.292   6.350   8.102 -1.5660  0.1610  0.4323
  558TIP3    H223310   5.257   6.486   8.159  0.6410  1.5975 -1.4871
  559TIP3   OH223311   3.696   4.171   1.183 -0.2636  0.1273  0.2128
  559TIP3    H123312   3.606   4.202   1.192 -1.2763 -2.6972  0.9492
  559TIP3    H223313   3.694   4.081   1.217  2.6527 -0.3442 -0.5678
  560TIP3   OH223314   4.798   5.178   1.838  0.0987 -0.0773  0.4583
  560TIP3    H123315   4.798   5.234   1.916 -1.2992  0.0339  0.4101
  560TIP3    H223316   4.828   5.236   1.767  0.0692  0.1965  0.6679
  561TIP3   OH223317   3.968   6.177   1.656  0.4245 -0.2944 -0.0120
  561TIP3    H123318   3.943   6.269   1.651 -1.5720 -0.8578 -2.8570
  561TIP3    H223319   3.887   6.129   1.638  2.1620 -2.4818 -2.7526
  562TIP3   OH223320   2.041   5.445   2.751  0.0356 -0.1020  0.3793
  562TIP3    H123321   2.090   5.444   2.833 -0.3953 -0.9881  0.6366
  562TIP3    H223322   1.963   5.498   2.771  0.2516  0.2385  0.3390
  563TIP3   OH223323   5.242   5.180   0.282  0.0861  0.2931 -0.5144
  563TIP3    H123324   5.305   5.196   0.211  3.0636  0.3517  1.9112
  563TIP3    H223325   5.238   5.263   0.329 -0.3709 -0.2444  0.4261
  564TIP3   OH223326   5.820   1.874   0.563 -0.3562 -0.0455 -0.0752
  564TIP3    H123327   5.725   1.871   0.546 -0.2165 -1.1829 -0.7770
  564TIP3    H223328   5.857   1.811   0.501  0.8308  0.1245  0.4386
  565TIP3   OH223329   0.434   5.299   0.618  0.2715 -0.5029 -0.0420
  565TIP3    H123330   0.411   5.391   0.635 -0.8770 -0.5111 -1.4558
  565TIP3    H223331   0.526   5.303   0.589  0.2177  0.1995 -0.1333
  566TIP3   OH223332   0.721   2.326   1.271 -0.7944  0.4884 -0.1887
  566TIP3    H123333   0.735   2.349   1.179 -0.6387  0.3057 -0.2107
  566TIP3    H223334   0.803   2.284   1.298 -0.2538  1.8979  0.4601
  567TIP3   OH223335   1.297   3.797   7.329  0.5411  0.1941 -0.1600
  567TIP3    H123336   1.377   3.782   7.279  0.1530  0.4572 -0.8768
  567TIP3    H223337   1.327   3.828   7.414  1.2673 -2.0713  0.4675
  568TIP3   OH223338   0.830   4.339   7.335 -0.0629  0.0503  0.6342
  568TIP3    H123339   0.769   4.283   7.287  1.2096 -0.2329 -0.7736
  568TIP3    H223340   0.844   4.413   7.277  1.6029 -0.3479  0.4739
  569TIP3   OH223341   5.713   4.398   1.243  0.1985  0.1357  0.6097
  569TIP3    H123342   5.742   4.388   1.153 -0.1080 -1.0873  0.6352
  569TIP3    H223343   5.662   4.479   1.242  1.0132  0.6569 -0.0871
  570TIP3   OH223344   4.099   3.151   0.540 -0.2799  0.1477  0.0642
  570TIP3    H123345   4.025   3.095   0.518  0.1401 -0.5615  0.4182
  570TIP3    H223346   4.060   3.235   0.563 -1.0821 -0.6372  1.6917
  571TIP3   OH223347   0.138   1.094   1.717 -0.4346  0.1635 -0.0134
  571TIP3    H123348   0.183   1.136   1.644  1.1086 -1.4744 -0.0732
  571TIP3    H223349   0.167   1.003   1.714 -2.0923 -0.4521  1.3013
  572TIP3   OH223350   5.974   6.147   8.024 -0.7317  0.3915  0.2427
  572TIP3    H123351   5.934   6.193   8.098 -0.0434 -0.7717  1.3843
  572TIP3    H223352   5.908   6.152   7.954 -1.2332  1.8536  0.7832
  573TIP3   OH223353   2.909   3.122   6.568 -0.3056 -0.1085  0.3168
  573TIP3    H123354   2.899   3.030   6.544  0.0516 -0.1038  0.1376
  573TIP3    H223355   3.000   3.130   6.595  0.0653  0.4949 -1.0446
  574TIP3   OH223356   1.810   1.405   6.489  0.3444  0.1219  0.8770
  574TIP3    H123357   1.817   1.499   6.501  2.1146  0.2957 -1.0199
  574TIP3    H223358   1.900   1.376   6.473 -0.2428 -1.8075  0.8428
  575TIP3   OH223359   5.321   1.427   2.742 -0.1189  0.4577 -0.4043
  575TIP3    H123360   5.342   1.411   2.834 -0.0240  0.2247 -0.4669
  575TIP3    H223361   5.380   1.370   2.694 -1.1652 -0.5060 -0.5713
  576TIP3   OH223362   5.414   4.535   1.566  0.3358 -0.0606 -0.0334
  576TIP3    H123363   5.477   4.538   1.638  1.3763 -0.2858 -0.8963
  576TIP3    H223364   5.329   4.550   1.607  0.5795 -2.6474  1.5890
  577TIP3   OH223365   3.059   5.350   7.531  0.0120 -0.2879 -0.2293
  577TIP3    H123366   3.143   5.388   7.554 -0.7404  1.1385  0.3003
  577TIP3    H223367   3.017   5.330   7.614 -0.1682 -1.0441 -0.4886
  578TIP3   OH223368   5.787   3.143   7.900  0.1929 -0.5411  0.1285
  578TIP3    H123369   5.851   3.179   7.839 -0.0051 -0.8378 -0.2546
  578TIP3    H223370   5.799   3.048   7.895  0.6243 -0.5491  1.0390
  579TIP3   OH223371   4.237   4.180   1.288 -0.4646 -0.4995 -0.0900
  579TIP3    H123372   4.222   4.161   1.381 -0.2920  0.4536  0.1449
  579TIP3    H223373   4.291   4.108   1.257  0.0623 -0.4691  0.7281
  580TIP3   OH223374   5.764   0.733   1.322  0.2908 -0.4151  0.2962
  580TIP3    H123375   5.673   0.726   1.295  0.0918 -2.0998  1.2762
  580TIP3    H223376   5.790   0.644   1.343  2.0347  0.1023  0.4949
  581TIP3   OH223377   2.655   2.412   8.490  0.0925  0.4495 -0.4096
  581TIP3    H123378   2.607   2.394   8.571 -1.1137  1.4289 -0.8708
  581TIP3    H223379   2.631   2.502   8.467  0.9654  0.4353 -1.4868
  582TIP3   OH223380   3.719   4.569   1.421 -0.5743  0.0685 -0.1333
  582TIP3    H123381   3.657   4.630   1.381  0.9522  0.9617 -1.2121
  582TIP3    H223382   3.773   4.623   1.479 -1.0704 -0.7856  1.1874
  583TIP3   OH223383   5.209   2.220   0.922 -0.5498 -0.8431  0.5716
  583TIP3    H123384   5.218   2.314   0.904  1.2004 -1.2666 -1.0336
  583TIP3    H223385   5.183   2.217   1.014 -0.0210  1.1948  0.8526
  584TIP3   OH223386   5.774   3.786   1.621 -0.4959 -0.4533  0.2765
  584TIP3    H123387   5.708   3.792   1.690 -0.9347 -1.5161 -0.0231
  584TIP3    H223388   5.839   3.852   1.644  0.5254 -2.1894  2.9483
  585TIP3   OH223389   5.309   6.186   0.721 -0.3117  0.5306  0.5943
  585TIP3    H123390   5.403   6.168   0.715 -0.1171  1.3946  0.8086
  585TIP3    H223391   5.299   6.274   0.683 -1.2128 -0.0275 -0.5178
  586TIP3   OH223392   2.761   1.129   7.470  0.6230  0.5688 -0.7650
  586TIP3    H123393   2.833   1.153   7.529  0.0393 -1.8633  1.1180
  586TIP3    H223394   2.774   1.036   7.454 -3.5484 -0.8208  2.0833
  587TIP3   OH223395   4.056   2.608   8.295  0.5773  0.0553 -0.1835
  587TIP3    H123396   3.973   2.570   8.324  1.9546 -1.6558  1.8562
  587TIP3    H223397   4.031   2.693   8.257 -1.9427  0.5627  2.1903
  588TIP3   OH223398   6.501   1.511   8.280  0.0831  0.3887  0.1105
  588TIP3    H123399   6.425   1.569   8.291 -0.1888  0.0376  0.0707
  588TIP3    H223400   6.514   1.507   8.185  0.3342  0.6831  0.1299
  589TIP3   OH223401   2.495   6.255   1.213  0.2365 -0.4505 -0.7242
  589TIP3    H123402   2.448   6.335   1.235 -0.3476 -1.0581  0.3056
  589TIP3    H223403   2.435   6.184   1.237  1.2178 -1.2283 -0.4901
  590TIP3   OH223404   6.758   0.546   2.048 -0.2204  0.6260 -0.1295
  590TIP3    H123405   6.783   0.638   2.057 -2.7667  1.4393 -0.5907
  590TIP3    H223406   6.718   0.524   2.132  0.2880 -0.0416 -0.0584
  591TIP3   OH223407   4.564   2.609   8.074 -0.4520 -0.1738 -0.9396
  591TIP3    H123408   4.614   2.655   8.006 -0.1491 -0.6649 -1.0511
  591TIP3    H223409   4.541   2.525   8.035  0.9346 -1.0505  0.0487
  592TIP3   OH223410   1.423   5.053   0.424 -0.2691 -0.0371 -0.2479
  592TIP3    H123411   1.334   5.055   0.458 -0.3115  1.2935 -0.3735
  592TIP3    H223412   1.420   4.992   0.351 -1.1225  0.1525 -0.3788
  593TIP3   OH223413   4.871   0.910   1.718 -0.7057  0.6594  0.0056
  593TIP3    H123414   4.871   0.982   1.655 -1.9952  0.1680 -0.5806
  593TIP3    H223415   4.852   0.832   1.665 -0.8196  0.0989  0.8579
  594TIP3   OH223416   2.984   2.523   0.971  0.4425 -0.1755  0.1940
  594TIP3    H123417   2.907   2.470   0.953  1.0869 -1.3291  0.7402
  594TIP3    H223418   3.056   2.460   0.977  1.8332  1.0000 -2.2838
  595TIP3   OH223419   4.965   5.010   8.173  0.1557 -0.2440  0.2039
  595TIP3    H123420   4.998   5.085   8.123 -1.4912  2.0577  2.2848
  595TIP3    H223421   5.027   5.001   8.246 -1.3347  1.3298  1.7617
  596TIP3   OH223422   2.246   6.665   0.945 -0.0969  0.5944 -0.0561
  596TIP3    H123423   2.245   6.605   0.871  0.2775  0.4519  0.0520
  596TIP3    H223424   2.303   6.737   0.916 -0.6260  0.9605 -0.2272
  597TIP3   OH223425   4.175   2.495   7.359 -0.0989  0.1702 -0.1908
  597TIP3    H123426   4.116   2.522   7.429 -0.2212  0.8000 -0.5329
  597TIP3    H223427   4.125   2.510   7.279  0.8906  1.7249 -0.5634
  598TIP3   OH223428   6.022   1.923   6.719 -0.0513 -0.0646 -0.0492
  598TIP3    H123429   5.971   1.842   6.723 -0.8026  0.3625 -0.7175
  598TIP3    H223430   6.091   1.904   6.655  0.1942 -0.3988  0.3079
  599TIP3   OH223431   2.257   6.703   8.049  0.3526  0.7066 -0.4109
  599TIP3    H123432   2.268   6.674   8.140 -1.1490  0.4856 -0.2814
  599TIP3    H223433   2.288   6.631   7.996 -0.6003  0.0233 -0.0668
  600TIP3   OH223434   6.486   5.341   8.394 -0.0953  0.2923 -0.4055
  600TIP3    H123435   6.581   5.334   8.398 -0.1053 -0.3198 -1.0431
  600TIP3    H223436   6.459   5.350   8.485  0.5631  0.3852 -0.2111
  601TIP3   OH223437   0.132   5.996   1.994  0.4916  0.0135 -0.5711
  601TIP3    H123438   0.084   5.973   2.074  0.5523 -0.5905 -0.7047
  601TIP3    H223439   0.219   6.022   2.026  0.0460  1.2829 -0.3140
  602TIP3   OH223440   6.212   0.260   7.448  0.2068  0.4506 -0.2100
  602TIP3    H123441   6.284   0.275   7.386  1.3939 -1.5233  0.5991
  602TIP3    H223442   6.222   0.330   7.513 -0.3747  1.8725 -1.5725
  603TIP3   OH223443   3.636   2.534   7.647  0.2649  0.0696 -0.4832
  603TIP3    H123444   3.619   2.627   7.634 -1.2998  0.0008  0.6702
  603TIP3    H223445   3.587   2.491   7.576 -1.7909  0.0360  0.8556
  604TIP3   OH223446   5.222   6.465   7.612  0.3010 -0.4771  0.0599
  604TIP3    H123447   5.276   6.526   7.563  1.5547 -2.0152 -0.5540
  604TIP3    H223448   5.149   6.518   7.644  0.0297  0.8275 -2.4757
  605TIP3   OH223449   2.279   6.348   7.683 -0.3577 -0.7548  0.0365
  605TIP3    H123450   2.248   6.265   7.720  0.4512 -2.1208 -2.1091
  605TIP3    H223451   2.201   6.387   7.645 -0.6085 -0.9119  0.3804
  606TIP3   OH223452   6.309   2.507   0.147  0.7120  0.3618  0.3982
  606TIP3    H123453   6.374   2.481   0.211  0.7733 -2.5153 -0.6641
  606TIP3    H223454   6.351   2.493   0.062 -0.3267  1.2649 -0.3063
  607TIP3   OH223455   1.113   6.150   7.271 -0.2768  0.6843 -0.2683
  607TIP3    H123456   1.200   6.129   7.305 -0.7937  0.0051  0.7006
  607TIP3    H223457   1.128   6.215   7.203  1.1202 -0.5040 -1.1560
  608TIP3   OH223458   2.344   1.629   7.756  0.7157  0.0423 -0.1455
  608TIP3    H123459   2.370   1.712   7.715  1.5126  0.2153  0.6647
  608TIP3    H223460   2.379   1.635   7.845  0.9248 -1.2286 -0.1227
  609TIP3   OH223461   6.259   1.096   0.091 -0.3733  0.2879 -0.0900
  609TIP3    H123462   6.287   1.138   0.173 -1.3978 -0.1943  0.5394
  609TIP3    H223463   6.315   1.134   0.024 -0.9111  2.2812  0.5230
  610TIP3   OH223464   1.873   2.368   6.850 -0.0512  0.2935 -0.2812
  610TIP3    H123465   1.864   2.440   6.912 -0.3002 -0.0641  0.1076
  610TIP3    H223466   1.944   2.395   6.792  0.7122  0.3018  0.6253
  611TIP3   OH223467   1.316   0.294   1.415 -0.4003  0.5621  0.2086
  611TIP3    H123468   1.314   0.210   1.460 -1.2169  0.6444  0.3312
  611TIP3    H223469   1.273   0.278   1.331 -0.9612  0.9536  0.4127
  612TIP3   OH223470   4.140   1.354   6.345 -0.1686  0.0688  0.0972
  612TIP3    H123471   4.046   1.335   6.340  0.1461 -2.2112  1.6553
  612TIP3    H223472   4.144   1.448   6.363 -2.1360  0.1760  0.2207
  613TIP3   OH223473   4.103   4.390   1.490 -0.7026  0.5242 -0.4176
  613TIP3    H123474   4.031   4.351   1.441 -0.4448  0.8433 -1.0653
  613TIP3    H223475   4.115   4.333   1.566 -2.2287  0.9670  0.1927
  614TIP3   OH223476   0.635   2.073   1.652  0.1184 -0.4017 -0.2756
  614TIP3    H123477   0.613   2.083   1.559 -0.0853  0.7244 -0.1168
  614TIP3    H223478   0.728   2.052   1.652  0.7017  1.9448 -0.6614
  615TIP3   OH223479   1.406   3.839   7.011  0.0388 -0.5062  0.4778
  615TIP3    H123480   1.321   3.873   7.040  0.3393  0.0384  0.7303
  615TIP3    H223481   1.387   3.749   6.983 -0.6945 -0.2599  0.1604
  616TIP3   OH223482   6.649   3.692   7.737 -0.0457  0.3872 -0.8023
  616TIP3    H123483   6.683   3.715   7.651  1.1729  0.4602 -0.3312
  616TIP3    H223484   6.593   3.765   7.761  0.6104  0.9785 -1.0197
  617TIP3   OH223485   3.938   2.594   1.560 -0.2733  0.1866 -0.2550
  617TIP3    H123486   3.939   2.501   1.581  3.7253 -0.3147 -1.7176
  617TIP3    H223487   3.903   2.598   1.471 -1.6197  0.3055  0.2542
  618TIP3   OH223488   4.928   1.345   1.901  0.0963  0.5764  0.0541
  618TIP3    H123489   5.012   1.388   1.886  0.9261 -0.5503  1.2310
  618TIP3    H223490   4.903   1.310   1.815  1.6259 -0.4047 -0.0383
  619TIP3   OH223491   1.105   0.957   7.298 -0.0321 -0.5956 -0.4862
  619TIP3    H123492   1.191   0.916   7.297  0.1342 -0.2853  0.3102
  619TIP3    H223493   1.100   1.002   7.383 -0.5163  0.3595 -0.9966
  620TIP3   OH223494   0.730   0.943   0.177  0.8113  0.0707 -0.0440
  620TIP3    H123495   0.720   0.880   0.106  0.2836 -0.2282  0.2879
  620TIP3    H223496   0.678   0.908   0.249 -1.9358  2.2798 -0.7767
  621TIP3   OH223497   6.696   0.738   1.450  0.0511  0.4054  0.1910
  621TIP3    H123498   6.635   0.671   1.482 -0.4867 -0.0492 -1.6702
  621TIP3    H223499   6.752   0.692   1.389  0.4146  1.4240 -0.2646
  622TIP3   OH223500   3.719   6.122   6.973 -0.5210  0.6598  0.4328
  622TIP3    H123501   3.774   6.193   6.939  0.0421  0.8636  1.7114
  622TIP3    H223502   3.767   6.042   6.951 -0.6795  0.7214 -0.1574
  623TIP3   OH223503   3.456   4.991   0.091 -0.3150 -0.0651  0.1693
  623TIP3    H123504   3.398   5.009   0.017  0.6298  1.2017 -0.3109
  623TIP3    H223505   3.496   4.907   0.070 -2.3290 -1.2516  0.7839
  624TIP3   OH223506   3.732   0.301   0.066  0.6837  0.0056  0.4376
  624TIP3    H123507   3.687   0.326  -0.014 -1.2632 -0.5656  1.3041
  624TIP3    H223508   3.737   0.383   0.117  2.0120  0.3900 -0.2724
  625TIP3   OH223509   5.370   5.303   2.657 -0.1224 -0.4763  0.6635
  625TIP3    H123510   5.410   5.382   2.693  1.1375 -1.0082  0.5176
  625TIP3    H223511   5.307   5.275   2.723 -1.0340  0.9798  0.4323
  626TIP3   OH223512   0.648   0.292   7.392 -0.1767  0.0767  0.2487
  626TIP3    H123513   0.576   0.356   7.382 -0.0286  0.1597 -0.3288
  626TIP3    H223514   0.662   0.258   7.303 -0.4805 -1.0136  0.6018
  627TIP3   OH223515   0.246   4.489   6.877 -0.0776 -0.2325 -0.0634
  627TIP3    H123516   0.258   4.562   6.816 -1.0607  0.0509  0.0752
  627TIP3    H223517   0.191   4.427   6.829 -2.2837  0.7370  1.1039
  628TIP3   OH223518   6.484   2.079   8.595 -0.0276  0.3763 -0.5803
  628TIP3    H123519   6.411   2.017   8.606  0.7390 -0.7305 -1.5464
  628TIP3    H223520   6.474   2.140   8.669 -1.6124 -0.0545 -0.3862
  629TIP3   OH223521   1.179   2.391   7.840 -0.1012  0.0770  0.3802
  629TIP3    H123522   1.258   2.345   7.868 -0.8011 -0.9811  0.6764
  629TIP3    H223523   1.157   2.352   7.756  0.0854  0.8736 -0.0474
  630TIP3   OH223524   0.925   3.908   2.839  0.0661 -0.1316 -0.5176
  630TIP3    H123525   0.985   3.953   2.780  1.4961 -1.2315  0.0326
  630TIP3    H223526   0.951   3.816   2.833  1.1921 -0.1629  2.7610
  631TIP3   OH223527   1.249   2.834   2.158  0.2810 -0.3721 -0.2834
  631TIP3    H123528   1.316   2.843   2.226  1.4434  0.1806 -1.4523
  631TIP3    H223529   1.242   2.740   2.143  0.7216 -0.4449 -0.0572
  632TIP3   OH223530   4.558   4.454   1.665  0.0214 -0.1517 -0.0404
  632TIP3    H123531   4.558   4.424   1.756  1.1137  1.3467  0.4893
  632TIP3    H223532   4.499   4.529   1.664 -1.3552 -1.1953 -0.9786
  633TIP3   OH223533   3.577   4.998   1.588 -0.0011  0.1804  0.0807
  633TIP3    H123534   3.531   5.074   1.553 -0.9001 -0.8641 -1.1423
  633TIP3    H223535   3.566   4.931   1.520  1.4004 -0.8111  0.7879
  634TIP3   OH223536   5.169   5.834   7.015 -0.3209  0.3526 -0.1117
  634TIP3    H123537   5.119   5.910   7.047 -0.4704  0.7351 -1.1981
  634TIP3    H223538   5.259   5.865   7.014 -0.4532  0.7357 -1.1262
  635TIP3   OH223539   3.363   5.632   6.561  0.1338 -0.2120  0.5579
  635TIP3    H123540   3.307   5.555   6.565 -0.4515  0.2173  0.7144
  635TIP3    H223541   3.315   5.700   6.609  1.5889 -0.3381  2.2916
  636TIP3   OH223542   1.390   5.951   1.089  0.6948  0.3001 -0.2636
  636TIP3    H123543   1.462   5.983   1.144  1.3258 -1.1609 -0.2029
  636TIP3    H223544   1.414   5.861   1.067 -0.9521 -0.1147 -0.5246
  637TIP3   OH223545   1.792   4.715   0.653  0.5823  0.3258 -0.3913
  637TIP3    H123546   1.845   4.795   0.653 -0.6344  1.1609 -0.1277
  637TIP3    H223547   1.707   4.742   0.619 -1.3214  0.1948  3.6334
  638TIP3   OH223548   2.944   5.019   7.396 -0.1885  0.9438  0.4049
  638TIP3    H123549   2.959   4.941   7.343 -0.8696  0.8764  0.2998
  638TIP3    H223550   2.897   5.079   7.339  0.0289  1.3011  0.5926
  639TIP3   OH223551   1.160   3.436   8.645 -0.4866 -0.7569  0.1600
  639TIP3    H123552   1.227   3.372   8.622 -0.9818 -1.6537  1.1034
  639TIP3    H223553   1.206   3.520   8.644  0.2491 -1.1488 -0.8116
  640TIP3   OH223554   3.978   4.902   7.205 -0.2740  0.2646  0.2835
  640TIP3    H123555   4.017   4.815   7.208  0.3972  0.5244 -0.5255
  640TIP3    H223556   3.954   4.914   7.112 -0.7566  0.7735  0.4656
  641TIP3   OH223557   4.487   0.016   0.780 -0.3754  0.4692 -0.2907
  641TIP3    H123558   4.577  -0.010   0.800 -0.1855  1.9862  0.9751
  641TIP3    H223559   4.445  -0.065   0.749  1.3454 -0.3080 -0.7089
  642TIP3   OH223560   3.889   1.154   1.797 -0.0796 -0.2097  0.2575
  642TIP3    H123561   3.926   1.174   1.711 -0.2366  1.4656  0.5551
  642TIP3    H223562   3.816   1.095   1.778  0.3569 -0.4781 -0.6734
  643TIP3   OH223563   3.387   3.622   2.180 -0.5610  0.2146  0.2380
  643TIP3    H123564   3.397   3.705   2.133 -0.1639  0.6353  1.0312
  643TIP3    H223565   3.295   3.620   2.207 -0.8980 -0.2317 -0.9007
  644TIP3   OH223566   6.784   1.321   0.642 -0.0890 -0.8794  0.7415
  644TIP3    H123567   6.845   1.331   0.568  0.0094 -0.2321  0.8980
  644TIP3    H223568   6.802   1.234   0.677  1.3962 -0.3690  1.3422
  645TIP3   OH223569   2.418   3.591   0.248 -0.4234 -0.0451  0.5845
  645TIP3    H123570   2.378   3.542   0.321  0.2280 -1.0973  0.2643
  645TIP3    H223571   2.373   3.559   0.170 -0.0677 -0.0561  0.3807
  646TIP3   OH223572   2.135   4.123   7.412  0.4493 -0.5598  0.4244
  646TIP3    H123573   2.128   4.066   7.336 -0.6705 -0.5290  0.4878
  646TIP3    H223574   2.212   4.091   7.460 -1.7691 -4.0186  2.0361
  647TIP3   OH223575   3.263   0.665   7.844 -0.2688 -0.1074  0.2754
  647TIP3    H123576   3.185   0.644   7.895 -1.0211  0.8270 -0.4432
  647TIP3    H223577   3.272   0.592   7.783  1.2367 -1.7597  2.3348
  648TIP3   OH223578   2.249   3.000   0.138 -0.0732  0.2186  0.2514
  648TIP3    H123579   2.185   3.052   0.088  0.1739 -0.0030 -0.2967
  648TIP3    H223580   2.218   3.006   0.228 -1.1140 -0.2235 -0.0549
  649TIP3   OH223581   5.047   5.937   8.817  0.4667 -0.5096 -0.1405
  649TIP3    H123582   5.082   5.903   8.735  1.2616 -1.3406  0.5118
  649TIP3    H223583   5.114   5.997   8.849  0.4119 -0.6038  0.1598
  650TIP3   OH223584   2.832   5.890   0.314  0.0143 -0.1078 -0.5340
  650TIP3    H123585   2.839   5.985   0.326 -0.2722 -0.0712 -0.6550
  650TIP3    H223586   2.918   5.864   0.283 -0.1871  0.2494 -1.4158
  651TIP3   OH223587   2.134   3.112   7.078 -0.0772  0.5022  0.2874
  651TIP3    H123588   2.153   3.087   6.988  0.0474  2.0342 -0.1416
  651TIP3    H223589   2.174   3.042   7.131 -0.0395 -0.3494 -0.8234
  652TIP3   OH223590   0.652   6.149   8.371 -0.0457 -0.1948  0.0069
  652TIP3    H123591   0.711   6.145   8.296  2.2262  0.9899  1.6010
  652TIP3    H223592   0.652   6.241   8.396 -0.1310 -0.6714  1.8994
  653TIP3   OH223593   3.088   2.841   8.745  0.0535 -0.1695  0.0548
  653TIP3    H123594   3.125   2.838   8.657  2.3304 -0.2185  0.9479
  653TIP3    H223595   3.110   2.929   8.777  0.8578 -0.7674  1.2025
  654TIP3   OH223596   1.485   3.765   1.090  0.1988 -0.4231  0.2469
  654TIP3    H123597   1.454   3.854   1.073  2.6709  1.1353  2.9687
  654TIP3    H223598   1.508   3.730   1.004  1.3802  2.5244 -0.7449
  655TIP3   OH223599   6.203   5.612   7.297 -0.1650  0.3007 -0.6303
  655TIP3    H123600   6.202   5.525   7.336 -0.9598  0.7237  0.3270
  655TIP3    H223601   6.262   5.604   7.222  1.5245 -0.5031  0.7246
  656TIP3   OH223602   6.416   3.548   1.962 -0.3745 -0.3289 -0.5633
  656TIP3    H123603   6.443   3.458   1.976 -1.9301 -0.7620 -0.1466
  656TIP3    H223604   6.326   3.551   1.993 -1.1603  0.7954 -2.7669
  657TIP3   OH223605   3.899   2.895   0.044  0.1568  0.0647  0.6505
  657TIP3    H123606   3.819   2.945   0.027 -0.3677 -1.3529 -1.4181
  657TIP3    H223607   3.965   2.962   0.061 -0.5718  1.5005 -1.6765
  658TIP3   OH223608   3.473   2.272   7.535  0.3704 -0.5028 -0.7112
  658TIP3    H123609   3.454   2.349   7.482  1.2669  2.1727  2.4733
  658TIP3    H223610   3.550   2.234   7.494  0.9754  1.3683 -1.4548
  659TIP3   OH223611   0.622   1.057   8.443 -0.0112 -0.4871 -0.0367
  659TIP3    H123612   0.683   1.089   8.376 -0.3360  1.2660  0.4488
  659TIP3    H223613   0.668   1.071   8.526 -1.4172  1.9273  0.4299
  660TIP3   OH223614   3.259   6.180   7.875  0.2281 -0.6505 -0.7683
  660TIP3    H123615   3.232   6.168   7.966 -0.8717 -0.2823 -1.0309
  660TIP3    H223616   3.278   6.273   7.868  0.7270 -0.7504 -0.8232
  661TIP3   OH223617   1.001   6.156   8.517 -0.2222  0.2786 -0.2046
  661TIP3    H123618   0.923   6.129   8.565  0.0681 -0.1763  0.0233
  661TIP3    H223619   1.039   6.226   8.569 -0.2612  0.2250 -0.1046
  662TIP3   OH223620   4.504   3.744   0.527 -0.1298 -0.4112  0.8564
  662TIP3    H123621   4.413   3.764   0.508  0.5411  2.6706  0.4903
  662TIP3    H223622   4.502   3.702   0.613 -1.8134  0.5237  1.3110
  663TIP3   OH223623   2.487   2.884   6.130 -0.6037 -0.1118  0.3476
  663TIP3    H123624   2.462   2.852   6.217  0.6916  0.1615  0.8420
  663TIP3    H223625   2.493   2.805   6.076  0.3020 -0.4976  0.9730
  664TIP3   OH223626   3.534   4.003   6.470  0.4078 -0.7497  0.6232
  664TIP3    H123627   3.599   4.035   6.408 -0.4849  0.1663  0.1318
  664TIP3    H223628   3.464   3.967   6.415 -0.6733  0.6259  1.0655
  665TIP3   OH223629   6.477   5.043   8.670  0.4318 -0.0983  0.5308
  665TIP3    H123630   6.424   5.011   8.743  0.3740 -1.3820 -0.0582
  665TIP3    H223631   6.413   5.069   8.604  0.5086  0.2869  0.6017
  666TIP3   OH223632   5.846   1.674   8.770  0.0341  0.2655  0.3863
  666TIP3    H123633   5.922   1.710   8.814  0.3422 -0.9373  0.8570
  666TIP3    H223634   5.822   1.741   8.705  2.3245  0.0752 -0.7572
  667TIP3   OH223635   4.561   1.811   1.527  0.6224 -0.3394 -0.2388
  667TIP3    H123636   4.628   1.787   1.463  1.1674 -0.8287  0.4980
  667TIP3    H223637   4.524   1.727   1.556 -0.1682 -0.0855 -0.4824
  668TIP3   OH223638   1.888   3.673   0.010 -0.3158  0.1365  0.0401
  668TIP3    H123639   1.856   3.668   0.100 -0.7857 -0.4186 -0.1576
  668TIP3    H223640   1.828   3.619  -0.040  0.5935 -0.4672 -0.4281
  669TIP3   OH223641   5.385   5.210   8.049 -0.0422  0.0616  0.5223
  669TIP3    H123642   5.391   5.117   8.069 -1.0740 -0.0571  0.3460
  669TIP3    H223643   5.423   5.254   8.125  0.5788 -0.4981  0.5452
  670TIP3   OH223644   1.571   6.384   8.705  0.2790  0.4721  0.2326
  670TIP3    H123645   1.560   6.414   8.795 -1.7801  0.8505 -0.0808
  670TIP3    H223646   1.628   6.308   8.711  0.4808  0.7210  1.8053
  671TIP3   OH223647   4.798   4.900   1.203  0.0911 -0.7393 -0.5754
  671TIP3    H123648   4.745   4.824   1.228 -1.0523 -0.5342 -2.2848
  671TIP3    H223649   4.747   4.976   1.230  0.8752 -0.5302  0.4071
  672TIP3   OH223650   0.903   2.050   8.400 -0.3203 -0.3090  0.1938
  672TIP3    H123651   0.930   2.103   8.476 -0.2063  0.3556 -0.2989
  672TIP3    H223652   0.808   2.051   8.403 -0.3341 -1.5089  1.1516
  673TIP3   OH223653   5.588   1.485   7.133  0.2030 -0.5623 -0.2433
  673TIP3    H123654   5.588   1.420   7.063 -0.1072  0.3539 -1.1272
  673TIP3    H223655   5.681   1.499   7.152  0.3340 -0.2173 -1.0732
  674TIP3   OH223656   6.415   3.438   2.327 -0.0172 -0.5345 -0.1105
  674TIP3    H123657   6.349   3.457   2.261 -0.1025 -0.4260  0.0060
  674TIP3    H223658   6.452   3.524   2.349 -0.4082 -0.4987  0.4210
  675TIP3   OH223659   3.771   4.509   8.421 -0.1868 -0.0999 -0.0239
  675TIP3    H123660   3.853   4.518   8.470 -1.5470  2.7982  1.9608
  675TIP3    H223661   3.789   4.549   8.337  0.5911  0.0022  0.1784
  676TIP3   OH223662   3.853   1.889   7.788 -0.0051 -0.2732 -0.3520
  676TIP3    H123663   3.814   1.810   7.750 -1.7191  0.7359 -0.7581
  676TIP3    H223664   3.796   1.960   7.759  1.2643  1.0712  0.3732
  677TIP3   OH223665   3.289   0.310   6.798 -0.2687 -0.0223 -0.1991
  677TIP3    H123666   3.235   0.379   6.836 -0.7487 -0.7270  0.4345
  677TIP3    H223667   3.288   0.240   6.864 -0.5892 -1.0171 -1.2437
  678TIP3   OH223668   2.751   5.142   7.258 -0.0899 -0.4934 -0.4551
  678TIP3    H123669   2.657   5.133   7.271 -0.2959  0.9226 -0.7301
  678TIP3    H223670   2.762   5.142   7.163 -0.2707  2.5922 -0.5912
  679TIP3   OH223671   4.391   3.359   1.682  0.2353  0.0645  0.2536
  679TIP3    H123672   4.345   3.337   1.763 -0.8315 -0.0060 -0.3462
  679TIP3    H223673   4.387   3.279   1.630 -1.8125  0.9631 -1.0874
  680TIP3   OH223674   1.475   2.871   2.288 -0.8242 -0.0879  0.1472
  680TIP3    H123675   1.510   2.944   2.238  0.5345 -0.2640  0.7955
  680TIP3    H223676   1.459   2.907   2.376 -1.6680 -0.1846  0.0486
  681TIP3   OH223677   4.416   0.212   7.732 -0.6712  0.3360 -0.3961
  681TIP3    H123678   4.429   0.130   7.684 -0.3046  0.6840 -0.9076
  681TIP3    H223679   4.355   0.189   7.802 -1.6889 -0.0498 -1.3824
  682TIP3   OH223680   5.033   2.551   1.238 -0.0893  0.6584  0.3811
  682TIP3    H123681   5.052   2.574   1.329 -0.9261  1.8168  0.2967
  682TIP3    H223682   5.027   2.636   1.193 -2.6604  0.2866 -0.1155
  683TIP3   OH223683   3.030   0.081   2.313  0.0690 -0.1750 -0.3220
  683TIP3    H123684   3.111   0.031   2.305 -0.2919 -0.7438 -0.4952
  683TIP3    H223685   3.026   0.106   2.405  0.4633 -0.1034 -0.3231
  684TIP3   OH223686   1.114   2.612   0.022 -0.0357  0.0527 -0.1084
  684TIP3    H123687   1.100   2.541  -0.041 -0.1648  0.9043 -1.0464
  684TIP3    H223688   1.171   2.573   0.089 -1.2567 -1.3728  0.1568
  685TIP3   OH223689   0.486   1.403   0.926 -0.0336 -0.6160  0.3782
  685TIP3    H123690   0.458   1.464   0.994  0.7529 -1.4719  1.5030
  685TIP3    H223691   0.566   1.441   0.891 -1.0554  0.4220 -0.9193
  686TIP3   OH223692   5.011   4.066   7.282 -0.4809  0.0008 -0.0829
  686TIP3    H123693   4.974   4.114   7.356  0.0182  2.3156 -1.2183
  686TIP3    H223694   4.934   4.033   7.234 -0.8317 -0.6620  0.9228
  687TIP3   OH223695   4.146   6.351   1.006  0.0539  0.1379 -0.3271
  687TIP3    H123696   4.211   6.367   1.075 -0.1065 -1.3378  0.1888
  687TIP3    H223697   4.145   6.433   0.955  1.9046  0.3912 -0.0215
  688TIP3   OH223698   3.493   4.786   1.031  0.2963 -0.2296  0.3880
  688TIP3    H123699   3.526   4.786   0.941 -0.4219  0.9188  0.1086
  688TIP3    H223700   3.529   4.706   1.070  2.5668  0.4594 -0.1864
  689TIP3   OH223701   0.285   1.460   1.266 -0.3022  0.0345 -0.4511
  689TIP3    H123702   0.287   1.366   1.246 -2.0259 -0.1456  0.1146
  689TIP3    H223703   0.288   1.464   1.362 -2.0815  0.4475 -0.3841
  690TIP3   OH223704   4.657   0.631   6.809 -1.0801  0.0857  0.2995
  690TIP3    H123705   4.600   0.579   6.752 -2.7009 -1.1307  2.8440
  690TIP3    H223706   4.611   0.715   6.819 -0.2755  0.7083 -0.9025
  691TIP3   OH223707   4.389   5.506   6.724 -0.0173 -0.2018 -0.4968
  691TIP3    H123708   4.317   5.511   6.661  1.0123 -1.4457 -1.8303
  691TIP3    H223709   4.453   5.447   6.684  1.5995  0.5610  0.8024
  692TIP3   OH223710   6.693   4.740   0.327 -0.2350  0.2897  0.0040
  692TIP3    H123711   6.776   4.749   0.374  0.0695  0.0350 -0.4736
  692TIP3    H223712   6.710   4.779   0.241 -0.6068  0.2283 -0.0983
  693TIP3   OH223713   1.414   6.757   1.796 -0.2432 -0.0836  0.0503
  693TIP3    H123714   1.377   6.752   1.884  0.8016 -0.4883  0.4855
  693TIP3    H223715   1.461   6.674   1.785  1.5723  0.9001  0.0329
  694TIP3   OH223716   3.953   3.839   0.576 -0.1315  0.1431  0.2681
  694TIP3    H123717   4.043   3.869   0.588 -0.2510 -0.2028  2.4908
  694TIP3    H223718   3.961   3.748   0.547  0.2387  0.2685 -0.0220
  695TIP3   OH223719   2.167   5.734   0.882 -0.0107 -0.4964  0.1348
  695TIP3    H123720   2.239   5.796   0.874  1.1959 -2.0371 -1.7735
  695TIP3    H223721   2.144   5.736   0.975  1.2987  1.3249  0.4716
  696TIP3   OH223722   5.275   4.656   8.007 -0.0732  0.2650  0.0299
  696TIP3    H123723   5.271   4.734   7.951 -0.4688 -0.0306 -0.3737
  696TIP3    H223724   5.360   4.617   7.988 -0.5178 -0.2664 -0.9962
  697TIP3   OH223725   4.716   6.841   1.352  0.1017  0.2848 -0.5200
  697TIP3    H123726   4.769   6.892   1.413 -1.0761  1.1307 -0.1638
  697TIP3    H223727   4.739   6.875   1.266  0.2105  0.5786 -0.3777
  698TIP3   OH223728   0.271   4.756   7.948  0.3462  0.2220 -0.3115
  698TIP3    H123729   0.286   4.845   7.982 -1.2563  1.1236 -1.8057
  698TIP3    H223730   0.200   4.766   7.885  0.2264 -2.1287 -0.6371
  699TIP3   OH223731   6.362   0.867   7.104 -0.3391  0.2920  0.0913
  699TIP3    H123732   6.308   0.875   7.025 -0.8147  1.0786  0.4896
  699TIP3    H223733   6.377   0.773   7.112  0.8714  0.2807 -1.6947
  700TIP3   OH223734   5.356   2.911   1.298  0.2736 -0.5278 -0.7268
  700TIP3    H123735   5.328   2.820   1.306 -0.4880 -0.3717 -1.4011
  700TIP3    H223736   5.373   2.923   1.204 -0.5130  0.2531 -0.7833
  701TIP3   OH223737   4.002   4.481   8.612  0.4360 -0.2576 -0.0910
  701TIP3    H123738   3.960   4.408   8.658 -1.5485  0.2091 -1.0528
  701TIP3    H223739   4.059   4.521   8.677  0.6298 -1.8981  0.8170
  702TIP3   OH223740   4.826   2.765   7.492  0.0804  0.1700  0.5979
  702TIP3    H123741   4.744   2.719   7.513 -0.4329  1.0177  0.4883
  702TIP3    H223742   4.892   2.723   7.548  0.0778 -2.1143 -0.9603
  703TIP3   OH223743   2.995   1.728   8.827  0.5076  0.6233 -0.0054
  703TIP3    H123744   2.997   1.730   8.732  1.2803  0.2506 -0.0047
  703TIP3    H223745   3.041   1.808   8.854  1.0207  0.3183  0.0445
  704TIP3   OH223746   3.974   3.755   2.417  0.4791 -0.0375 -0.1768
  704TIP3    H123747   4.051   3.799   2.382  0.2762  0.0364 -0.5430
  704TIP3    H223748   3.933   3.820   2.474  0.8991 -0.2133  0.3294
  705TIP3   OH223749   0.290   1.042   2.361 -0.5576  0.1931 -0.1484
  705TIP3    H123750   0.265   1.040   2.454 -1.0640  1.8627 -0.2292
  705TIP3    H223751   0.250   0.963   2.324 -0.3974 -0.4633  1.0255
  706TIP3   OH223752   0.259   0.424   0.546  0.4001 -0.1381 -0.2105
  706TIP3    H123753   0.306   0.472   0.478  1.4610 -2.8917 -1.5238
  706TIP3    H223754   0.327   0.376   0.593 -0.6115 -0.3159  1.1288
  707TIP3   OH223755   5.898   2.427   2.417 -0.3267  0.8518  0.0389
  707TIP3    H123756   5.957   2.418   2.342  0.3667 -2.1561  0.8444
  707TIP3    H223757   5.940   2.493   2.472  0.2407  1.5631 -1.2038
  708TIP3   OH223758   0.890   4.288   0.970  0.1434  0.1558 -0.1327
  708TIP3    H123759   0.980   4.320   0.966 -0.0691  0.6957 -0.9524
  708TIP3    H223760   0.880   4.236   0.890 -0.1003 -0.3997  0.2491
  709TIP3   OH223761   0.505   5.588   1.879 -0.6275 -0.2884 -0.4460
  709TIP3    H123762   0.516   5.557   1.789 -0.2885 -2.1379  0.1948
  709TIP3    H223763   0.425   5.640   1.878 -0.6560 -0.3405 -1.7990
  710TIP3   OH223764   2.877   6.791   6.988 -0.6303 -0.4962 -0.3190
  710TIP3    H123765   2.868   6.807   7.082  0.7285 -1.7119  0.0605
  710TIP3    H223766   2.817   6.718   6.970 -0.6521 -0.4788 -0.3162
  711TIP3   OH223767   0.837   4.201   6.844  0.7202  0.2490 -0.3255
  711TIP3    H123768   0.889   4.176   6.921  0.6471  0.7079 -0.1272
  711TIP3    H223769   0.863   4.291   6.826  0.1745  0.3931 -0.3839
  712TIP3   OH223770   6.100   0.215   0.260  0.3239  0.4881 -0.6782
  712TIP3    H123771   6.116   0.252   0.347  1.0041  0.1100 -0.6318
  712TIP3    H223772   6.024   0.158   0.272 -0.2594  1.2705 -0.5843
  713TIP3   OH223773   0.414   5.700   8.031 -0.1266 -0.3418 -0.2943
  713TIP3    H123774   0.341   5.747   7.990 -1.3059 -1.5674  0.3189
  713TIP3    H223775   0.438   5.753   8.107 -0.9317 -0.3249 -0.0460
  714TIP3   OH223776   1.774   6.543   0.337 -0.6035  0.2060 -1.1073
  714TIP3    H123777   1.748   6.634   0.353  0.3445  0.0859  1.4128
  714TIP3    H223778   1.749   6.528   0.245 -1.3623  2.7804 -1.4154
  715TIP3   OH223779   6.754   2.489   1.255  0.4302 -0.0306  0.2290
  715TIP3    H123780   6.719   2.435   1.184 -1.3975  0.7953  0.4541
  715TIP3    H223781   6.688   2.483   1.324  0.2074  2.4012  0.2975
  716TIP3   OH223782   4.815   5.318   8.776 -0.1151  0.2729 -0.1898
  716TIP3    H123783   4.814   5.322   8.680  0.5723 -1.5772 -0.3094
  716TIP3    H223784   4.902   5.349   8.800 -0.4630  1.2326 -0.0980
  717TIP3   OH223785   3.963   6.311   1.894  0.2100  0.4578  0.2516
  717TIP3    H123786   3.981   6.218   1.883 -0.4982  0.4032 -0.5666
  717TIP3    H223787   3.937   6.320   1.986 -1.8256 -0.5410 -0.1566
  718TIP3   OH223788   4.138   3.075   6.773  0.5258 -0.5581 -0.0611
  718TIP3    H123789   4.148   2.994   6.822  2.4170  0.1702  0.8619
  718TIP3    H223790   4.191   3.062   6.694  2.1492  0.3031  0.8413
  719TIP3   OH223791   0.229   1.867   1.501 -0.5606  0.2574 -0.1415
  719TIP3    H123792   0.308   1.820   1.476 -1.2910 -1.7010  0.9907
  719TIP3    H223793   0.255   1.920   1.576  0.5808  2.8404 -2.1771
  720TIP3   OH223794   0.722   0.994   7.612  0.5762 -0.1340  0.1514
  720TIP3    H123795   0.660   0.935   7.655  0.9427 -0.4203  0.2979
  720TIP3    H223796   0.670   1.041   7.548  0.5893 -1.8896 -1.2226
  721TIP3   OH223797   0.992   2.628   8.482 -0.1125  0.1541  1.4088
  721TIP3    H123798   0.905   2.660   8.460  0.6229  0.3117 -1.7545
  721TIP3    H223799   0.993   2.538   8.450  1.4937  0.8416 -0.7064
  722TIP3   OH223800   4.382   3.127   0.028  0.2402  0.1888  0.3460
  722TIP3    H123801   4.446   3.092   0.090 -0.6257  1.6924  2.2174
  722TIP3    H223802   4.418   3.212   0.003 -0.1599  0.2598  0.0090
  723TIP3   OH223803   4.708   6.001   8.386 -0.4637  0.4862  0.1672
  723TIP3    H123804   4.674   6.083   8.350 -0.1693  0.6169  0.1846
  723TIP3    H223805   4.758   5.962   8.314 -3.6649 -1.5634 -1.1758
  724TIP3   OH223806   5.656   2.030   2.504  0.5640 -0.3955 -0.7128
  724TIP3    H123807   5.649   1.946   2.458  2.7514 -0.1514 -1.6062
  724TIP3    H223808   5.735   2.021   2.558 -0.7924  0.0783  1.4909
  725TIP3   OH223809   2.745   3.198   0.241  0.1798 -0.7366 -0.4138
  725TIP3    H123810   2.657   3.226   0.216  0.4368  1.6968  1.0871
  725TIP3    H223811   2.734   3.157   0.327  0.5062 -0.4744 -0.2459
  726TIP3   OH223812   1.756   4.793   8.237  0.0149 -0.7560 -0.2739
  726TIP3    H123813   1.665   4.819   8.244 -0.3368 -0.8703 -3.0190
  726TIP3    H223814   1.797   4.823   8.318 -1.6986  2.4607 -0.4414
  727TIP3   OH223815   2.266   3.739   7.450 -0.5045  0.3596  0.2246
  727TIP3    H123816   2.200   3.725   7.519  0.0595  1.6946  1.0681
  727TIP3    H223817   2.237   3.817   7.404 -0.9148 -0.5620 -1.1581
  728TIP3   OH223818   4.802   0.690   8.008  0.1306  0.2796 -0.1281
  728TIP3    H123819   4.848   0.772   8.026  1.1519  0.1221 -1.7841
  728TIP3    H223820   4.803   0.643   8.091  1.8952  0.8206  0.1956
  729TIP3   OH223821   1.403   1.401   0.589 -0.1260  0.1442 -0.4305
  729TIP3    H123822   1.411   1.336   0.658 -1.3016 -0.5194 -0.8901
  729TIP3    H223823   1.397   1.485   0.635 -0.2701 -0.2253  0.2353
  730TIP3   OH223824   4.670   0.599   6.505 -0.5829  0.5447 -0.0193
  730TIP3    H123825   4.707   0.652   6.576  0.0706 -0.2419  0.2424
  730TIP3    H223826   4.643   0.518   6.548 -1.6104  0.6642 -0.4079
  731TIP3   OH223827   2.452   0.516   8.476  0.0323 -0.3086 -0.3119
  731TIP3    H123828   2.489   0.532   8.563 -1.3937  0.4056  0.1941
  731TIP3    H223829   2.474   0.424   8.458  1.3716 -0.1196  0.2716
  732TIP3   OH223830   2.492   3.895   7.680 -0.4354  0.4848  0.1212
  732TIP3    H123831   2.440   3.972   7.703  0.0949  0.4023  1.7657
  732TIP3    H223832   2.441   3.850   7.613 -0.7322  2.2748 -0.8933
  733TIP3   OH223833   3.890   4.097   2.172  0.0092 -0.1497  0.0605
  733TIP3    H123834   3.955   4.040   2.130  1.0821  1.1923 -0.1556
  733TIP3    H223835   3.806   4.063   2.142  0.6576 -1.0406 -0.8093
  734TIP3   OH223836   0.614   3.275   0.631  0.3145  0.2677 -0.2640
  734TIP3    H123837   0.520   3.289   0.628  0.5895  2.6881  0.2401
  734TIP3    H223838   0.624   3.180   0.630 -2.2114 -0.1229  1.5253
  735TIP3   OH223839   6.721   4.317   0.935  0.3969 -0.0223  0.5957
  735TIP3    H123840   6.744   4.291   0.845 -0.2442 -0.5056  0.5661
  735TIP3    H223841   6.660   4.390   0.924  0.2839 -0.1111  0.6443
  736TIP3   OH223842   1.482   5.867   8.195  0.4340 -0.3441  0.2499
  736TIP3    H123843   1.513   5.776   8.198 -1.2645 -0.9963 -0.7725
  736TIP3    H223844   1.387   5.861   8.198  0.2966  1.5269  1.7996
  737TIP3   OH223845   3.212   6.577   1.671 -0.1949  0.0653 -0.0199
  737TIP3    H123846   3.244   6.508   1.612 -0.2713  0.0121  0.0002
  737TIP3    H223847   3.176   6.529   1.746 -0.0823  0.1335  0.0785
  738TIP3   OH223848   6.126   2.203   8.689  0.1003  0.0043  0.0781
  738TIP3    H123849   6.111   2.189   8.595 -1.7604  1.2148  0.1309
  738TIP3    H223850   6.090   2.290   8.705  0.7133 -0.0503  1.8631
  739TIP3   OH223851   6.457   4.814   1.427 -0.0868 -0.2063  0.1631
  739TIP3    H123852   6.528   4.878   1.433 -0.4462  0.4686 -1.9424
  739TIP3    H223853   6.498   4.734   1.395  0.2207 -0.8659  2.0393
  740TIP3   OH223854   0.926   2.093   1.997 -0.5195 -0.4041  0.3279
  740TIP3    H123855   1.004   2.109   2.050 -0.3379 -1.4616  0.4050
  740TIP3    H223856   0.854   2.096   2.060 -0.4772 -0.0203  0.3586
  741TIP3   OH223857   5.531   6.156   7.843  0.6606 -0.0671  0.0025
  741TIP3    H123858   5.508   6.109   7.763  3.3545  0.9144 -1.4953
  741TIP3    H223859   5.476   6.234   7.842  1.2261  0.3476 -1.3895
  742TIP3   OH223860   6.781   0.193   1.263 -0.0902  0.0371  0.0260
  742TIP3    H123861   6.776   0.134   1.188 -0.1209  1.0570 -0.7962
  742TIP3    H223862   6.844   0.260   1.236 -0.7019  0.8584  0.5973
  743TIP3   OH223863   3.298   3.791   6.971 -0.3360  0.4051 -0.2290
  743TIP3    H123864   3.264   3.848   7.040 -1.8413  0.7860 -1.2194
  743TIP3    H223865   3.272   3.702   6.998  0.7568  0.3229  0.6088
  744TIP3   OH223866   1.651   1.676   0.291  0.1816  0.3411 -0.2772
  744TIP3    H123867   1.557   1.694   0.300  0.1528  0.2998 -0.4875
  744TIP3    H223868   1.685   1.748   0.239  0.1297 -0.0229 -0.8247
  745TIP3   OH223869   6.504   3.274   8.546 -0.6468 -0.0571 -0.1339
  745TIP3    H123870   6.574   3.232   8.596 -0.1752  0.7115 -0.1399
  745TIP3    H223871   6.428   3.270   8.604 -0.1250  0.7573  0.6425
  746TIP3   OH223872   3.437   2.687   0.726 -0.2125 -0.5002  0.0585
  746TIP3    H123873   3.518   2.737   0.734  0.2345 -0.7585 -2.2150
  746TIP3    H223874   3.371   2.751   0.700 -0.1391 -0.7266 -0.6897
  747TIP3   OH223875   3.359   3.612   7.467  0.4767  0.0653  0.3670
  747TIP3    H123876   3.280   3.607   7.521 -0.3127 -0.8765 -0.8392
  747TIP3    H223877   3.350   3.541   7.404  1.9003  0.4653 -0.3273
  748TIP3   OH223878   6.323   5.906   6.468  0.1141 -0.2520  0.4591
  748TIP3    H123879   6.354   5.956   6.544  0.8521  0.2109 -0.1302
  748TIP3    H223880   6.303   5.973   6.403 -2.5566 -0.4977  0.9175
  749TIP3   OH223881   2.656   1.617   8.720  0.1513 -0.0487 -0.1166
  749TIP3    H123882   2.734   1.640   8.668  0.7594 -1.4480  0.1271
  749TIP3    H223883   2.614   1.701   8.739  0.6180  0.6025 -1.7716
  750TIP3   OH223884   6.162   3.875   1.432  0.2392 -0.0884  0.0733
  750TIP3    H123885   6.101   3.894   1.504  0.0197 -1.3380  0.2496
  750TIP3    H223886   6.239   3.927   1.452  0.0007 -0.0581  0.9711
  751TIP3   OH223887   3.016   2.137   0.757 -0.1234  0.5084 -0.3051
  751TIP3    H123888   3.041   2.199   0.825  2.5006 -1.1221  0.3739
  751TIP3    H223889   3.030   2.184   0.675 -1.1207  1.7562  0.2048
  752TIP3   OH223890   2.035   6.139   0.398 -0.1378 -0.2094  0.0049
  752TIP3    H123891   2.115   6.087   0.412  0.2131  0.2900 -0.1174
  752TIP3    H223892   2.059   6.227   0.426 -0.5937 -0.0169 -0.2048
  753TIP3   OH223893   2.660   4.530   7.570 -0.3367  0.0894  0.3727
  753TIP3    H123894   2.609   4.608   7.592  0.5925  0.6161  0.7490
  753TIP3    H223895   2.726   4.562   7.508 -1.1538 -0.8036 -1.0024
  754TIP3   OH223896   4.112   0.356   1.675 -0.0313 -0.5450  0.1173
  754TIP3    H123897   4.141   0.265   1.665  3.1910  0.3545  0.0945
  754TIP3    H223898   4.143   0.382   1.762  0.0525  0.8311 -0.2970
  755TIP3   OH223899   2.002   3.775   7.024 -0.5414 -0.9066  0.0694
  755TIP3    H123900   1.944   3.817   6.961 -1.3324 -2.3049 -0.1647
  755TIP3    H223901   2.090   3.799   6.994 -0.9050 -1.3416 -1.4324
  756TIP3   OH223902   6.099   0.015   8.686  0.5666  0.2994 -0.1505
  756TIP3    H123903   6.147   0.061   8.754 -0.4317 -0.4942  1.1505
  756TIP3    H223904   6.122   0.060   8.605  2.5284  0.6839  0.5623
  757TIP3   OH223905   0.488   3.525   0.177 -0.1774  0.1055  0.8293
  757TIP3    H123906   0.517   3.604   0.221 -0.1359  1.0010 -0.7331
  757TIP3    H223907   0.410   3.497   0.226 -4.0992  4.6309 -1.9703
  758TIP3   OH223908   0.939   2.496   8.097  0.0011 -0.0397 -0.7985
  758TIP3    H123909   0.990   2.462   8.170  0.0266 -0.6353 -1.0898
  758TIP3    H223910   0.848   2.492   8.128  0.0900  0.6177 -0.4426
  759TIP3   OH223911   2.590   0.386   1.041 -0.0606 -1.0618 -0.1553
  759TIP3    H123912   2.561   0.458   0.985  0.0393 -0.0873  0.9898
  759TIP3    H223913   2.511   0.360   1.088  0.4062  0.1410  1.3859
  760TIP3   OH223914   5.734   4.404   8.104  0.2792  0.2839 -0.2206
  760TIP3    H123915   5.717   4.393   8.198 -1.8349  1.5454 -0.3987
  760TIP3    H223916   5.683   4.335   8.062  0.2861  0.4430 -0.4912
  761TIP3   OH223917   3.044   3.937   6.250 -0.3073  0.3615  0.3236
  761TIP3    H123918   3.045   3.927   6.155  1.2145  1.4311  0.1880
  761TIP3    H223919   3.026   3.849   6.284  0.3959 -0.2865 -0.9363
  762TIP3   OH223920   2.411   0.843   0.802 -0.1627  0.5144 -0.1879
  762TIP3    H123921   2.412   0.909   0.731 -0.2754  0.3795 -0.3162
  762TIP3    H223922   2.503   0.833   0.826 -0.2107  1.3040  0.3787
  763TIP3   OH223923   0.988   2.533   1.970  0.0330  0.2794  0.4563
  763TIP3    H123924   0.963   2.441   1.962 -3.6814  1.1386  0.3784
  763TIP3    H223925   0.997   2.548   2.064  1.8055 -0.3542  0.4217
  764TIP3   OH223926   6.295   2.532   8.680 -0.5823 -0.1717 -0.1408
  764TIP3    H123927   6.305   2.447   8.638 -0.1870 -0.3372  0.2838
  764TIP3    H223928   6.201   2.538   8.700 -0.9224  0.2379 -1.7241
  765TIP3   OH223929   3.248   5.502   7.749 -0.2099 -0.1283  0.0738
  765TIP3    H123930   3.165   5.544   7.774 -0.9450 -2.2314  1.5089
  765TIP3    H223931   3.275   5.455   7.828  3.3701  1.9230  0.2366
  766TIP3   OH223932   0.296   2.342   0.765  0.4471  0.4421 -0.5943
  766TIP3    H123933   0.285   2.426   0.809 -0.7551  0.9912 -1.8468
  766TIP3    H223934   0.366   2.357   0.702  2.0099 -0.2777  0.8852
  767TIP3   OH223935   6.208   5.717   7.625 -0.0882 -0.0037 -0.1430
  767TIP3    H123936   6.243   5.752   7.543  1.2398 -0.0879  0.3609
  767TIP3    H223937   6.272   5.651   7.652 -0.5020  0.0320  0.9740
  768TIP3   OH223938   3.370   0.025   7.408 -0.3848 -0.4325  0.0274
  768TIP3    H123939   3.289   0.042   7.361 -0.8142  0.7913  1.1572
  768TIP3    H223940   3.426   0.101   7.388  0.2504 -0.9553 -0.2282
  769TIP3   OH223941   2.488   2.850   0.194 -0.0643 -0.0328  0.4807
  769TIP3    H123942   2.448   2.771   0.230 -0.0361 -0.8136 -1.1226
  769TIP3    H223943   2.417   2.915   0.195 -0.0071  0.0326  2.0639
  770TIP3   OH223944   1.271   5.145   0.154 -0.1663  0.0544  0.3788
  770TIP3    H123945   1.276   5.050   0.169  0.0447 -0.0434 -0.2819
  770TIP3    H223946   1.336   5.161   0.085 -0.8881  0.5332 -0.1984
  771TIP3   OH223947   3.163   2.296   0.902 -0.0607  0.0983  1.0365
  771TIP3    H123948   3.171   2.261   0.990  1.5751 -1.4660  0.3184
  771TIP3    H223949   3.238   2.356   0.893  0.0407 -0.0880  0.5820
  772TIP3   OH223950   5.311   3.810   0.448  0.6585  0.4930  0.1571
  772TIP3    H123951   5.385   3.784   0.503  0.9125 -1.1119 -0.9007
  772TIP3    H223952   5.233   3.781   0.496  0.9133 -1.8936 -0.7476
  773TIP3   OH223953   6.350   4.200   0.344  0.1382 -0.5913 -0.7041
  773TIP3    H123954   6.273   4.246   0.310  0.3026  2.5747  2.5065
  773TIP3    H223955   6.316   4.150   0.419  1.0068  0.1565  0.2149
  774TIP3   OH223956   6.361   4.321   7.314 -0.6595  0.0617  0.0793
  774TIP3    H123957   6.366   4.227   7.332 -0.5284  0.1909  0.7589
  774TIP3    H223958   6.317   4.327   7.229  0.5050 -0.6686 -0.6039
  775TIP3   OH223959   0.066   2.197   7.595  0.0552 -0.3054  0.4047
  775TIP3    H123960  -0.005   2.259   7.614  0.5070 -0.2625  2.1751
  775TIP3    H223961   0.022   2.123   7.554 -0.8362  0.2398  0.3346
  776TIP3   OH223962   0.219   1.755   2.548 -0.3915 -0.0600  0.3366
  776TIP3    H123963   0.217   1.684   2.484 -0.4507 -2.1940  2.5474
  776TIP3    H223964   0.130   1.789   2.550 -0.3080  0.2860 -0.9026
  777TIP3   OH223965   1.071   2.314   0.880 -0.0485  0.0830 -0.5198
  777TIP3    H123966   1.063   2.407   0.862 -0.7614  0.5237  1.7190
  777TIP3    H223967   1.034   2.271   0.802 -2.3483  1.7539 -0.4657
  778TIP3   OH223968   0.294   3.425   8.160  0.4337  0.0290 -0.1923
  778TIP3    H123969   0.345   3.347   8.137 -0.9799 -0.9720 -0.0514
  778TIP3    H223970   0.354   3.476   8.215  1.4145 -0.9204 -0.3218
  779TIP3   OH223971   6.041   5.578   0.634 -0.5927  0.0661 -0.5946
  779TIP3    H123972   6.097   5.605   0.706 -2.1005 -0.1773  0.7120
  779TIP3    H223973   5.964   5.636   0.640 -0.4659  0.5135 -2.4395
  780TIP3   OH223974   4.186   5.946   1.853 -0.3987  0.3940 -0.5328
  780TIP3    H123975   4.175   5.951   1.758 -0.4874  0.8783 -0.5007
  780TIP3    H223976   4.254   6.011   1.872 -1.9204  1.9192 -0.0155
  781TIP3   OH223977   1.676   4.524   8.101 -0.2575  0.2604 -0.6236
  781TIP3    H123978   1.717   4.605   8.132 -0.8876  0.9919 -1.6350
  781TIP3    H223979   1.643   4.481   8.180 -1.3046  1.7650 -0.2023
  782TIP3   OH223980   0.068   3.944   6.092 -0.1450  0.0952 -0.2774
  782TIP3    H123981   0.100   3.862   6.129 -0.5944 -0.1211 -0.3659
  782TIP3    H223982   0.116   4.012   6.140 -1.2561 -0.1509  1.2623
  783TIP3   OH223983   6.673   0.474   2.301  0.3204  0.1957  0.3382
  783TIP3    H123984   6.746   0.470   2.363  1.2510  1.0318 -0.6663
  783TIP3    H223985   6.617   0.543   2.336  1.2132  1.1759 -0.1166
  784TIP3   OH223986   2.666   5.348   7.854  0.1161  0.1623 -0.0316
  784TIP3    H123987   2.574   5.332   7.831  0.0722  0.2139  0.1073
  784TIP3    H223988   2.669   5.441   7.876  0.1788  0.1353  0.0744
  785TIP3   OH223989   0.214   4.346   0.054 -0.0530  0.3315 -0.2959
  785TIP3    H123990   0.121   4.342   0.035 -0.3098  2.8685  0.0629
  785TIP3    H223991   0.225   4.289   0.131 -0.9585 -1.2370 -1.2627
  786TIP3   OH223992   1.801   0.738   1.651 -0.0859  0.3385 -0.4537
  786TIP3    H123993   1.849   0.675   1.705  1.4180  0.3643 -1.6777
  786TIP3    H223994   1.759   0.684   1.584 -1.9157  0.3088  0.6427
  787TIP3   OH223995   1.395   0.992   6.909  0.6755  0.5203 -0.7281
  787TIP3    H123996   1.381   0.943   6.828 -0.4167  0.1273 -0.3243
  787TIP3    H223997   1.356   1.078   6.892  1.7041  0.9367 -1.0885
  788TIP3   OH223998   3.196   1.014   8.015  0.2399 -0.3461 -0.6039
  788TIP3    H123999   3.265   1.055   7.964  0.4669  0.4386  0.3098
  788TIP3    H224000   3.122   1.074   8.009  0.2714 -0.2392 -0.0147
  789TIP3   OH224001   0.759   6.082   1.694 -0.6378 -0.1499 -0.4741
  789TIP3    H124002   0.674   6.122   1.674 -1.3876 -1.4946 -0.1256
  789TIP3    H224003   0.750   6.050   1.784 -0.7219 -2.5959 -1.2889
  790TIP3   OH224004   6.434   3.584   7.457 -0.4492  0.2142 -0.4602
  790TIP3    H124005   6.525   3.593   7.430 -0.7657  1.2374 -1.2498
  790TIP3    H224006   6.388   3.555   7.379 -0.6050 -1.7593  0.2941
  791TIP3   OH224007   3.972   6.184   6.644  0.0905  0.2115 -0.3453
  791TIP3    H124008   4.055   6.139   6.657 -0.2830 -0.9349 -1.6400
  791TIP3    H224009   3.996   6.271   6.613  0.8168 -0.0503 -0.5317
  792TIP3   OH224010   2.372   1.353   7.066  0.1460  0.6677 -0.0869
  792TIP3    H124011   2.401   1.382   7.152 -1.0192 -0.5259  0.7398
  792TIP3    H224012   2.280   1.377   7.061 -0.2130 -0.6823 -0.3462
  793TIP3   OH224013   3.650   2.266   7.206  0.0968  0.3796  0.5761
  793TIP3    H124014   3.703   2.335   7.246  1.0305 -0.5692  1.0106
  793TIP3    H224015   3.700   2.237   7.130 -1.1882  1.4548 -0.7403
  794TIP3   OH224016   4.097   1.205   8.456  0.2305  0.6191 -0.0426
  794TIP3    H124017   4.150   1.276   8.418  0.2195  0.1125 -1.0503
  794TIP3    H224018   4.007   1.238   8.454  0.2906  0.7856 -0.0083
  795TIP3   OH224019   3.586   5.830   6.600 -0.6199  0.0533  0.0570
  795TIP3    H124020   3.637   5.909   6.620 -0.7674 -0.1375  1.2175
  795TIP3    H224021   3.560   5.842   6.508  0.9686  0.4450 -0.3756
  796TIP3   OH224022   3.594   3.999   2.319 -0.0184  0.1381  0.2692
  796TIP3    H124023   3.611   3.905   2.311  0.3107  0.3260 -2.8459
  796TIP3    H224024   3.674   4.034   2.358  1.1905 -0.5932 -1.4099
  797TIP3   OH224025   1.939   6.301   0.083  0.5567 -0.9989  0.2380
  797TIP3    H124026   1.844   6.297   0.093  0.6160  0.2573  1.5508
  797TIP3    H224027   1.967   6.370   0.142  2.1730 -0.4293 -1.0984
  798TIP3   OH224028   4.956   0.196   7.597  0.4375  0.2074 -0.2396
  798TIP3    H124029   5.008   0.127   7.556 -1.1958 -1.4068  0.2964
  798TIP3    H224030   4.960   0.178   7.691  0.3559  1.1243 -0.0437
  799TIP3   OH224031   5.775   1.026   8.611  0.2284  0.5184  0.1233
  799TIP3    H124032   5.783   1.003   8.703  0.1248  2.7538  0.7470
  799TIP3    H224033   5.700   1.084   8.607 -1.1068 -1.2119 -1.7684
  800TIP3   OH224034   3.649   0.538   1.273 -0.4058  0.9482 -0.0944
  800TIP3    H124035   3.610   0.451   1.264  1.4616  0.2080 -1.7078
  800TIP3    H224036   3.574   0.596   1.290 -1.5546 -1.1117  2.6362
  801TIP3   OH224037   3.699   2.451   1.868 -0.4340 -0.3566  0.1074
  801TIP3    H124038   3.675   2.497   1.949 -1.6987 -0.1734 -0.3650
  801TIP3    H224039   3.791   2.427   1.882  0.3164  2.3016  0.3711
  802TIP3   OH224040   0.622   1.858   1.163  0.2620 -0.3295 -0.2971
  802TIP3    H124041   0.600   1.944   1.127 -1.6437 -1.2493 -1.4967
  802TIP3    H224042   0.710   1.841   1.131 -0.0220  0.4337 -1.5724
  803TIP3   OH224043   3.223   6.613   0.927 -0.1477  0.0861  0.0037
  803TIP3    H124044   3.138   6.631   0.968 -0.0656  2.1323 -0.5973
  803TIP3    H224045   3.201   6.566   0.846 -0.6063 -0.4317  0.4224
  804TIP3   OH224046   6.775   2.495   2.503 -0.0151 -0.7647 -0.2083
  804TIP3    H124047   6.765   2.414   2.554  0.6434  0.0784  1.3493
  804TIP3    H224048   6.866   2.520   2.517 -0.0571 -0.0631 -1.1435
  805TIP3   OH224049   6.628   1.567   0.744  0.1473  0.1345  0.3276
  805TIP3    H124050   6.551   1.542   0.795 -1.2030 -0.8276 -2.0590
  805TIP3    H224051   6.672   1.484   0.725  0.8146  0.5108  0.2080
  806TIP3   OH224052   5.494   6.416   1.100  0.3430  0.1424 -0.4114
  806TIP3    H124053   5.431   6.485   1.080  0.4376  0.1127 -0.8174
  806TIP3    H224054   5.439   6.338   1.113  0.2260  0.3196  0.1815
  807TIP3   OH224055   3.850   1.374   6.314 -0.6996 -0.0925 -0.0815
  807TIP3    H124056   3.764   1.401   6.347 -0.6882  1.2471 -1.0834
  807TIP3    H224057   3.839   1.282   6.291 -1.8927  0.0841 -0.2808
  808TIP3   OH224058   3.489   2.355   1.217  0.1901 -0.1253  0.8600
  808TIP3    H124059   3.453   2.272   1.187 -0.8983  0.6162  0.0357
  808TIP3    H224060   3.419   2.395   1.268  0.9951 -0.0627  1.9607
  809TIP3   OH224061   5.425   4.599   6.900 -0.1761 -0.4677  0.0875
  809TIP3    H124062   5.390   4.518   6.863 -1.5677  0.7196 -1.3411
  809TIP3    H224063   5.513   4.577   6.930 -0.2262 -2.2918 -1.0114
  810TIP3   OH224064   3.506   3.581   7.826 -0.4746 -0.0488 -0.2762
  810TIP3    H124065   3.529   3.525   7.900 -0.8616 -1.5737 -1.2731
  810TIP3    H224066   3.465   3.658   7.866 -0.9307 -0.9639  1.0685
  811TIP3   OH224067   3.180   5.252   1.423 -0.2326 -0.2092 -0.3304
  811TIP3    H124068   3.133   5.258   1.506 -1.5363  1.1858 -1.1283
  811TIP3    H224069   3.112   5.259   1.356  0.8482 -0.7880 -1.5371
  812TIP3   OH224070   1.471   2.834   7.019 -0.6150  0.0303  0.6058
  812TIP3    H124071   1.464   2.907   7.081 -0.5176  0.4321  0.1584
  812TIP3    H224072   1.495   2.876   6.936 -2.2091 -0.3290 -0.0786
  813TIP3   OH224073   3.683   1.099   6.450 -0.4339  0.3037 -0.7666
  813TIP3    H124074   3.696   1.044   6.372 -0.1635  0.3969 -0.7893
  813TIP3    H224075   3.674   1.037   6.522 -1.8828  0.1751 -1.0342
  814TIP3   OH224076   3.625   2.274   8.444 -0.2291 -0.6613 -0.3733
  814TIP3    H124077   3.555   2.255   8.382 -0.0082 -2.0952 -0.2373
  814TIP3    H224078   3.695   2.212   8.421  0.1336 -0.7372  0.8505
  815TIP3   OH224079   1.309   2.114   1.493 -0.0497  0.0256  0.0737
  815TIP3    H124080   1.289   2.025   1.520  2.3617 -0.3347  0.9279
  815TIP3    H224081   1.351   2.154   1.569 -0.8597  1.8316 -0.3668
  816TIP3   OH224082   0.953   4.566   2.396  0.1672  0.8609 -0.2773
  816TIP3    H124083   1.047   4.549   2.400 -0.1001 -0.8458 -0.4991
  816TIP3    H224084   0.930   4.551   2.304 -0.7238 -1.3539  0.2474
  817TIP3   OH224085   1.586   6.074   8.358 -0.2252 -0.7536  0.1187
  817TIP3    H124086   1.671   6.042   8.331  1.3717  2.4204  0.8878
  817TIP3    H224087   1.524   6.028   8.303  2.1059 -1.9898 -1.6165
  818TIP3   OH224088   6.368   1.726   1.966  0.0384  0.6502 -0.0609
  818TIP3    H124089   6.296   1.699   2.022 -0.8158  0.6914 -1.1101
  818TIP3    H224090   6.426   1.776   2.024  1.3260 -2.6538  1.7814
  819TIP3   OH224091   2.566   5.523   8.445 -0.3557  0.0716  0.5475
  819TIP3    H124092   2.575   5.618   8.440  0.3580 -0.0600 -1.8586
  819TIP3    H224093   2.653   5.489   8.423 -0.8794 -1.1166  0.2127
  820TIP3   OH224094   1.986   1.339   6.900 -0.1773 -0.0571  0.0104
  820TIP3    H124095   2.021   1.417   6.944 -1.3801  0.4192  0.1410
  820TIP3    H224096   2.027   1.341   6.813  0.9596 -0.1155  0.5284
  821TIP3   OH224097   4.273   0.473   1.189 -0.4110  0.4021 -0.2672
  821TIP3    H124098   4.224   0.394   1.215 -0.7199  0.6292 -0.1560
  821TIP3    H224099   4.360   0.440   1.168 -0.4796  0.0535 -0.0316
  822TIP3   OH224100   3.182   6.768   6.910  0.5901  0.2458  0.0082
  822TIP3    H124101   3.208   6.813   6.829 -0.3055 -1.9878 -1.6201
  822TIP3    H224102   3.086   6.764   6.905  0.2645  2.2234  2.4858
  823TIP3   OH224103   3.871   6.298   2.508  0.2797 -0.6544 -0.4213
  823TIP3    H124104   3.906   6.274   2.594  1.6838 -2.5525 -1.4435
  823TIP3    H224105   3.802   6.234   2.492 -1.5694  1.0919  0.1984
  824TIP3   OH224106   1.096   4.936   8.780 -0.0081 -0.0473  0.3067
  824TIP3    H124107   1.090   4.897   8.867 -1.2530  1.6056  1.0147
  824TIP3    H224108   1.174   4.991   8.784  0.5422 -0.8015  0.0138
  825TIP3   OH224109   4.222   1.489   6.978  0.2360  0.7030 -0.8220
  825TIP3    H124110   4.294   1.426   6.973  0.8185  1.2763  0.0692
  825TIP3    H224111   4.179   1.470   7.062  0.4972  1.5760 -0.4861
  826TIP3   OH224112   4.439   6.277   8.798  0.5056  0.7088 -0.0154
  826TIP3    H124113   4.510   6.214   8.793  1.0063  1.3019 -0.5897
  826TIP3    H224114   4.414   6.278   8.890  0.4605 -0.3396 -0.0041
  827TIP3   OH224115   4.263   3.289   8.220  0.3504 -0.1857  0.0458
  827TIP3    H124116   4.346   3.336   8.222  0.4063 -0.2985  0.4014
  827TIP3    H224117   4.241   3.283   8.127  1.6493 -1.7415 -0.2112
  828TIP3   OH224118   6.664   1.693   7.119  0.2134 -0.0974  0.2210
  828TIP3    H124119   6.660   1.775   7.169  0.8045 -0.1812  0.4091
  828TIP3    H224120   6.609   1.632   7.169  3.6747 -1.3252  2.9642
  829TIP3   OH224121   4.868   4.442   1.785 -0.3542 -0.1354 -0.2258
  829TIP3    H124122   4.842   4.531   1.764  0.4369  0.2595  0.4133
  829TIP3    H224123   4.901   4.447   1.875  0.5179 -0.8884 -0.4907
  830TIP3   OH224124   3.971   4.871   0.762 -0.1877 -0.2455  0.4062
  830TIP3    H124125   4.054   4.863   0.809  0.6425 -1.2279 -1.1470
  830TIP3    H224126   3.991   4.927   0.687 -1.2993  0.6799  0.7637
  831TIP3   OH224127   2.031   2.578   0.956  0.1965 -0.3909  0.4079
  831TIP3    H124128   2.036   2.579   1.051 -0.1404 -1.1135  0.4370
  831TIP3    H224129   1.967   2.510   0.936 -1.3389  1.1400 -0.2572
  832TIP3   OH224130   4.109   5.331   2.122 -0.5584  0.4383  0.2286
  832TIP3    H124131   4.088   5.321   2.215  1.9655 -1.5533  0.7108
  832TIP3    H224132   4.073   5.253   2.080  2.5487 -1.3756  0.5531
  833TIP3   OH224133   2.046   1.795   8.037  0.6053 -0.0038  0.0995
  833TIP3    H124134   1.966   1.842   8.061  0.8334 -0.5218  2.0158
  833TIP3    H224135   2.091   1.854   7.976  0.6356  2.1072  2.0097
  834TIP3   OH224136   1.576   1.612   7.542 -0.7505 -0.2382 -0.6499
  834TIP3    H124137   1.594   1.549   7.612  1.4270 -0.2844 -1.1627
  834TIP3    H224138   1.619   1.693   7.571 -2.9064  0.8670 -0.3316
  835TIP3   OH224139   0.589   5.861   7.358  0.7155 -0.3705  0.7114
  835TIP3    H124140   0.577   5.797   7.288 -1.9321  0.5949  0.1756
  835TIP3    H224141   0.647   5.818   7.421 -1.2468 -3.4959  0.5709
  836TIP3   OH224142   5.414   2.407   8.318 -0.0449 -0.1373  0.4967
  836TIP3    H124143   5.347   2.405   8.386  0.4352  0.4721  0.9964
  836TIP3    H224144   5.494   2.379   8.362  0.9965  3.2956  1.0511
  837TIP3   OH224145   4.888   6.359   1.831 -0.6635 -0.2307  0.4530
  837TIP3    H124146   4.972   6.359   1.877 -0.7913  0.7583  0.6938
  837TIP3    H224147   4.832   6.415   1.884 -1.5818 -1.1176  0.4633
  838TIP3   OH224148   2.368   1.849   7.597 -0.0592  0.2010  0.1895
  838TIP3    H124149   2.415   1.807   7.525 -1.3172 -0.0771 -0.4839
  838TIP3    H224150   2.323   1.923   7.556 -1.6375 -0.5777  0.4812
  839TIP3   OH224151   0.462   6.525   1.923 -0.3095  0.1251  0.1366
  839TIP3    H124152   0.452   6.543   2.017 -1.4075 -0.3380  0.1210
  839TIP3    H224153   0.415   6.442   1.909 -0.9284  0.6394 -0.9778
  840TIP3   OH224154   2.243   6.369   8.422  0.3198 -0.0152  0.2296
  840TIP3    H124155   2.305   6.419   8.370  0.7484  0.4656  1.1763
  840TIP3    H224156   2.266   6.389   8.513  0.1062 -1.4520  0.6326
  841TIP3   OH224157   4.948   4.188   2.093 -0.1863  0.1577  0.1375
  841TIP3    H124158   4.862   4.147   2.088  0.2600 -0.9451  1.0455
  841TIP3    H224159   4.931   4.275   2.130 -1.0026  0.3644 -0.6706
  842TIP3   OH224160   2.031   5.039   2.013  0.1128  0.3568  0.1278
  842TIP3    H124161   1.988   5.063   1.930  1.6764  0.7304 -0.6127
  842TIP3    H224162   1.975   4.971   2.050 -0.4500 -0.0720 -1.4089
  843TIP3   OH224163   4.412   4.939   8.438 -0.2221 -0.1580  0.4952
  843TIP3    H124164   4.329   4.893   8.452 -1.6265  1.9311 -0.4844
  843TIP3    H224165   4.393   5.031   8.456  1.5002  0.5927 -1.1183
  844TIP3   OH224166   4.073   1.368   2.361  0.0176  0.7155  0.1616
  844TIP3    H124167   4.130   1.299   2.396  0.7909  1.1506 -0.1976
  844TIP3    H224168   4.043   1.416   2.438  2.3067  2.1345  0.2736
  845TIP3   OH224169   1.625   5.328   0.125 -0.3181 -0.9310  0.1136
  845TIP3    H124170   1.674   5.312   0.044  0.1499 -1.9853  0.5887
  845TIP3    H224171   1.616   5.424   0.129 -1.7228 -0.9112 -1.9666
  846TIP3   OH224172   0.813   5.616   1.543 -0.1612 -0.2200  0.5307
  846TIP3    H124173   0.821   5.674   1.467  1.3174 -1.7829 -0.5716
  846TIP3    H224174   0.838   5.671   1.617  0.9322  0.6290 -0.4273
  847TIP3   OH224175   5.194   3.944   1.807  0.1332 -0.0356 -0.0061
  847TIP3    H124176   5.106   3.909   1.824  0.7737 -0.9370  1.7350
  847TIP3    H224177   5.188   4.036   1.834 -0.3586  0.0013 -0.2225
  848TIP3   OH224178   2.898   1.661   8.533 -0.4175 -0.3797  0.4110
  848TIP3    H124179   2.962   1.600   8.569 -1.5105 -1.8013  0.0550
  848TIP3    H224180   2.936   1.748   8.547  0.4942 -1.0368  2.3350
  849TIP3   OH224181   2.616   3.559   0.751 -0.5366  0.3484  0.2056
  849TIP3    H124182   2.657   3.584   0.834  0.3952 -0.0123 -0.1293
  849TIP3    H224183   2.539   3.507   0.776  0.4584 -0.8667  0.8443
  850TIP3   OH224184   3.031   6.062   1.341 -0.9634 -0.3757 -0.9942
  850TIP3    H124185   2.990   6.148   1.339 -0.3153 -0.0418 -0.1945
  850TIP3    H224186   3.071   6.052   1.255  1.4052  1.3478 -0.1859
  851TIP3   OH224187   5.545   0.819   7.424 -0.0556 -0.0984 -0.2596
  851TIP3    H124188   5.635   0.805   7.453 -0.3151  0.3130  0.7878
  851TIP3    H224189   5.540   0.776   7.339  1.0307 -0.4312 -0.1658
  852TIP3   OH224190   1.092   4.875   7.597  0.6267  0.3068  0.6282
  852TIP3    H124191   1.004   4.839   7.587  1.0371 -1.0072  1.4924
  852TIP3    H224192   1.144   4.803   7.632  1.9035  1.2448  0.7497
  853TIP3   OH224193   4.851   2.361   0.065  0.4765 -0.3670 -0.2478
  853TIP3    H124194   4.882   2.326   0.149 -2.0168 -0.3126  0.7547
  853TIP3    H224195   4.761   2.330   0.057 -0.9358  3.3398 -0.7242
  854TIP3   OH224196   0.447   3.841   8.200  0.1853 -0.2898  0.4409
  854TIP3    H124197   0.372   3.896   8.222 -1.5405 -1.8337 -1.2360
  854TIP3    H224198   0.516   3.903   8.177 -1.0935  1.1842  0.3891
  855TIP3   OH224199   3.589   0.212   0.691 -0.0762 -0.2981  0.5948
  855TIP3    H124200   3.678   0.236   0.720 -1.1810  0.2130  4.0251
  855TIP3    H224201   3.552   0.294   0.659 -0.7371  0.6820  3.5458
  856TIP3   OH224202   5.901   0.718   7.832 -0.0899  0.2855  0.0817
  856TIP3    H124203   5.868   0.628   7.833  2.9100 -0.9682  1.9505
  856TIP3    H224204   5.852   0.762   7.902 -0.1651 -0.5363  0.5644
  857TIP3   OH224205   4.186   1.536   7.921  0.2109 -0.3357 -0.1243
  857TIP3    H124206   4.150   1.613   7.878 -2.2795 -0.3713  1.7098
  857TIP3    H224207   4.136   1.527   8.001  1.3956 -3.0695  0.4376
  858TIP3   OH224208   4.859   1.237   8.555  0.5019 -0.0201  0.4548
  858TIP3    H124209   4.893   1.320   8.520  0.3623 -0.0602  0.2182
  858TIP3    H224210   4.858   1.250   8.650 -1.9015  1.2307  0.3461
  859TIP3   OH224211   2.561   1.093   1.337  0.1728 -0.0980 -0.4514
  859TIP3    H124212   2.561   1.187   1.357  0.3059 -0.3643  0.8518
  859TIP3    H224213   2.476   1.078   1.294 -0.8128  0.2576  1.2560
  860TIP3   OH224214   4.741   6.274   1.298  0.5980  0.2319 -0.7848
  860TIP3    H124215   4.757   6.364   1.268 -1.0432  0.6897 -0.4077
  860TIP3    H224216   4.815   6.224   1.263  2.1416  1.9011 -0.0902
  861TIP3   OH224217   3.472   6.146   1.864  0.4341 -1.1090 -0.0046
  861TIP3    H124218   3.515   6.064   1.839  0.1127 -1.9675  2.1081
  861TIP3    H224219   3.400   6.119   1.920  1.0808  0.6704  1.7788
  862TIP3   OH224220   1.080   1.456   1.312  0.6450  0.3425  0.6480
  862TIP3    H124221   1.048   1.439   1.223  0.4143 -1.3003  1.0087
  862TIP3    H224222   1.023   1.525   1.346  0.5234  0.7431 -0.3484
  863TIP3   OH224223   1.617   5.090   7.452 -0.1648 -0.5660 -0.2525
  863TIP3    H124224   1.633   5.125   7.364 -0.5538  0.4322  0.0527
  863TIP3    H224225   1.651   5.001   7.449  1.8450  0.1438 -0.7837
  864TIP3   OH224226   5.512   1.452   2.228  0.3147 -0.1160  0.2396
  864TIP3    H124227   5.524   1.385   2.161  0.6678  0.5915 -0.4208
  864TIP3    H224228   5.559   1.418   2.305  0.9208 -0.3921 -0.2466
  865TIP3   OH224229   6.754   5.900   7.135  0.8265 -0.5222 -0.2563
  865TIP3    H124230   6.704   5.974   7.169  1.8336  0.5111 -0.9468
  865TIP3    H224231   6.738   5.830   7.197 -1.1388 -0.1188 -0.2316
  866TIP3   OH224232   3.769   3.809   1.504 -0.3926  0.1987 -0.0464
  866TIP3    H124233   3.736   3.776   1.587 -2.9227 -0.7150 -1.3280
  866TIP3    H224234   3.833   3.743   1.476 -1.4932 -0.9104 -0.0447
  867TIP3   OH224235   5.801   4.343   7.640 -0.3056 -0.2084  0.4326
  867TIP3    H124236   5.871   4.286   7.609 -0.7597  0.9798 -3.2488
  867TIP3    H224237   5.721   4.303   7.607 -0.7448  1.7638 -1.0625
  868TIP3   OH224238   1.806   6.470   0.848 -0.0099 -0.1438  0.0361
  868TIP3    H124239   1.865   6.418   0.903 -2.3218 -1.3106  1.5436
  868TIP3    H224240   1.720   6.461   0.889 -1.1613  2.0502 -1.6789
  869TIP3   OH224241   6.641   2.138   7.831  0.4932 -0.2890  0.1491
  869TIP3    H124242   6.702   2.082   7.878 -0.4142 -0.5945  1.0056
  869TIP3    H224243   6.692   2.216   7.808  0.7779  0.2543  2.4141
  870TIP3   OH224244   4.722   2.698   8.409 -0.4911  0.4500  0.0132
  870TIP3    H124245   4.750   2.776   8.458 -1.1386  0.4132  0.4724
  870TIP3    H224246   4.653   2.731   8.351  1.0445  0.7082 -1.7343
  871TIP3   OH224247   2.737   5.935   0.697  0.1034 -0.6558  0.4470
  871TIP3    H124248   2.711   5.872   0.630  1.9021 -0.0803 -0.8640
  871TIP3    H224249   2.810   5.894   0.742  2.7716  1.2040 -1.8560
  872TIP3   OH224250   5.852   5.738   0.730  0.2478 -0.7595  0.3419
  872TIP3    H124251   5.827   5.772   0.815  0.5627  0.3210  0.0185
  872TIP3    H224252   5.769   5.726   0.684  0.1420 -0.0830  0.3436
  873TIP3   OH224253   6.528   0.690   8.536 -0.0233 -0.5495 -0.3800
  873TIP3    H124254   6.434   0.700   8.520  0.1416  0.5996 -0.6463
  873TIP3    H224255   6.566   0.679   8.449  0.3222  1.1034 -0.4656
  874TIP3   OH224256   2.518   3.738   0.571  0.1203 -0.7792  0.1770
  874TIP3    H124257   2.573   3.660   0.583  1.6456  0.4502  1.6826
  874TIP3    H224258   2.512   3.776   0.658 -1.2646  0.3740 -0.3915
  875TIP3   OH224259   3.695   0.560   0.875 -0.2826  0.2270 -0.0531
  875TIP3    H124260   3.609   0.520   0.864  0.1103 -0.7570  0.4201
  875TIP3    H224261   3.678   0.654   0.869 -1.3978  0.0476  0.0971
  876TIP3   OH224262   2.029   5.084   2.515 -0.0706 -0.2353  0.1632
  876TIP3    H124263   2.070   4.997   2.518  1.5156  0.4999  0.8578
  876TIP3    H224264   1.942   5.070   2.551  0.0825 -1.5814  0.0636
  877TIP3   OH224265   6.427   3.093   7.177  0.1055 -0.5159 -0.0797
  877TIP3    H124266   6.511   3.136   7.190 -0.8923  1.2970  0.7094
  877TIP3    H224267   6.369   3.134   7.241 -1.8374 -0.4115 -1.7921
  878TIP3   OH224268   6.603   0.502   1.082  0.1290 -0.1147  0.2018
  878TIP3    H124269   6.691   0.497   1.119 -0.1837 -2.8390  0.7874
  878TIP3    H224270   6.610   0.458   0.998 -0.3642  1.0551 -0.4642
  879TIP3   OH224271   3.651   1.719   1.692  0.6702  0.0403 -0.1893
  879TIP3    H124272   3.577   1.700   1.634  0.7031 -1.4635  0.2106
  879TIP3    H224273   3.616   1.704   1.780  1.1848  0.3008  0.0602
  880TIP3   OH224274   2.121   2.314   1.711 -0.4992  0.5334  0.1981
  880TIP3    H124275   2.176   2.260   1.769 -0.1418  0.8890  0.1912
  880TIP3    H224276   2.098   2.390   1.764  0.2387  1.1055 -0.2747
  881TIP3   OH224277   0.253   3.859   7.873  0.1112 -0.3896  1.0362
  881TIP3    H124278   0.169   3.875   7.916  0.0430  0.5301  0.5991
  881TIP3    H224279   0.314   3.917   7.919  0.0460  0.5845 -0.0353
  882TIP3   OH224280   3.088   2.286   8.489  0.1171  0.2123 -0.2119
  882TIP3    H124281   3.023   2.273   8.558  0.0371  3.1084  0.3748
  882TIP3    H224282   3.036   2.297   8.409  0.0958 -0.6273 -0.3292
  883TIP3   OH224283   6.505   2.704   7.663 -0.2254 -0.2229  0.5511
  883TIP3    H124284   6.570   2.717   7.593  0.2167 -0.6904  0.8723
  883TIP3    H224285   6.459   2.788   7.668 -0.3509 -0.2210 -0.3846
  884TIP3   OH224286   2.584   4.256   7.962  0.0552 -0.1087  0.8324
  884TIP3    H124287   2.558   4.282   8.051 -0.2634 -1.5541  1.1928
  884TIP3    H224288   2.509   4.279   7.908  1.0368  2.7349  0.4988
  885TIP3   OH224289   2.361   1.747   0.542 -0.1985 -0.2461  0.0605
  885TIP3    H124290   2.386   1.746   0.450  1.5579 -1.4168  0.4994
  885TIP3    H224291   2.314   1.664   0.554 -3.3348  1.3193 -0.4389
  886TIP3   OH224292   2.332   1.170   1.625 -0.2862 -0.0518 -0.2270
  886TIP3    H124293   2.282   1.233   1.574 -0.9423  1.3471  2.0190
  886TIP3    H224294   2.353   1.100   1.562 -2.2236  0.8660 -2.0347
  887TIP3   OH224295   5.012   6.356   1.175  0.7091 -0.5540 -0.3968
  887TIP3    H124296   5.104   6.331   1.169  0.8566 -0.0283 -0.3793
  887TIP3    H224297   5.000   6.420   1.105  0.5583 -0.0238  0.1060
  888TIP3   OH224298   0.851   3.916   8.485  0.1568  0.4792  0.3655
  888TIP3    H124299   0.762   3.905   8.453  0.2930  1.2280 -0.3274
  888TIP3    H224300   0.845   3.987   8.548  0.1496  0.0488  0.8536
  889TIP3   OH224301   1.538   4.329   1.656 -0.1533 -0.5733  0.3216
  889TIP3    H124302   1.631   4.326   1.677 -0.5408  0.1048  2.4446
  889TIP3    H224303   1.529   4.400   1.594  0.7340 -0.5624  0.2023
  890TIP3   OH224304   1.819   4.202   1.218 -0.3436 -0.3599 -0.3239
  890TIP3    H124305   1.840   4.138   1.287  0.1253  1.9591  1.8146
  890TIP3    H224306   1.834   4.287   1.259 -0.6307  1.1652 -3.1532
  891TIP3   OH224307   6.426   5.817   7.458 -0.9361 -1.2780 -0.0502
  891TIP3    H124308   6.406   5.779   7.372 -1.4464 -0.2407 -0.4136
  891TIP3    H224309   6.498   5.764   7.492  0.3723 -0.7274 -1.8275
  892TIP3   OH224310   0.789   1.437   6.622 -0.1059 -0.1656  0.3517
  892TIP3    H124311   0.768   1.397   6.537  1.1484  1.1070 -0.6225
  892TIP3    H224312   0.728   1.396   6.684 -2.9127  0.7356 -1.5944
  893TIP3   OH224313   3.020   4.080   7.668 -0.2635 -0.3308 -0.7896
  893TIP3    H124314   3.027   4.002   7.613  2.0656 -1.0496  0.3773
  893TIP3    H224315   2.962   4.053   7.740 -3.5952  0.7190 -2.8737
  894TIP3   OH224316   3.500   1.159   7.403 -0.5149 -0.0091  0.0212
  894TIP3    H124317   3.541   1.085   7.358 -1.6157 -0.9178  0.4522
  894TIP3    H224318   3.512   1.139   7.496 -1.3999  0.0018  0.1446
  895TIP3   OH224319   4.130   4.414   8.388 -0.4064 -0.7316 -0.9764
  895TIP3    H124320   4.078   4.466   8.450  1.2724 -0.4505  0.2732
  895TIP3    H224321   4.118   4.459   8.304  0.0662  1.0334 -0.1515
  896TIP3   OH224322   3.463   3.770   7.269  0.3504 -0.8046  0.0906
  896TIP3    H124323   3.411   3.742   7.344 -0.1121  1.1080  0.5451
  896TIP3    H224324   3.405   3.757   7.193 -0.6442  0.7451  0.5258
  897TIP3   OH224325   3.197   1.175   7.647  0.3605 -0.1704 -0.6632
  897TIP3    H124326   3.234   1.100   7.693 -0.3759 -0.6056 -0.7714
  897TIP3    H224327   3.261   1.245   7.661  0.4734 -0.4775  0.4578
  898TIP3   OH224328   1.575   0.168   7.451 -0.2795  0.6251  0.2445
  898TIP3    H124329   1.610   0.217   7.377 -0.9811 -0.4013 -0.8215
  898TIP3    H224330   1.639   0.099   7.466 -0.3448  0.5776  0.3033
  899TIP3   OH224331   3.058   4.508   1.183 -0.1977 -0.4204 -0.9454
  899TIP3    H124332   2.990   4.474   1.241 -0.1446 -1.0796 -1.2652
  899TIP3    H224333   3.025   4.594   1.155 -1.0839 -0.9056 -1.4084
  900TIP3   OH224334   4.004   6.589   2.136 -0.1546 -0.0293 -0.0505
  900TIP3    H124335   3.946   6.617   2.066 -0.0040  1.3977  0.3703
  900TIP3    H224336   4.040   6.670   2.172  0.9815 -0.8079  0.6464
  901TIP3   OH224337   3.408   1.570   0.170 -0.2383 -0.0106 -0.6638
  901TIP3    H124338   3.463   1.492   0.157  1.0168  0.9404 -1.2849
  901TIP3    H224339   3.430   1.599   0.258 -1.9405 -1.2542  0.2278
  902TIP3   OH224340   2.279   5.930   7.776  0.1081 -0.5143  0.2239
  902TIP3    H124341   2.209   5.982   7.736  0.5051  0.1056  0.3083
  902TIP3    H224342   2.238   5.847   7.799 -0.0035 -1.1114 -1.9682
  903TIP3   OH224343   5.519   6.747   1.339 -0.1967 -0.2820 -0.2517
  903TIP3    H124344   5.508   6.760   1.245  2.3472 -2.2062 -0.9236
  903TIP3    H224345   5.614   6.740   1.352 -0.5229 -1.2243  2.2892
  904TIP3   OH224346   2.077   5.376   2.260  0.4473 -0.1399  0.6182
  904TIP3    H124347   2.131   5.343   2.188 -1.1525 -1.6188  0.0100
  904TIP3    H224348   2.042   5.459   2.227  0.8622 -0.1073  0.2539
  905TIP3   OH224349   4.851   1.583   1.249  0.1732 -0.2803 -0.0336
  905TIP3    H124350   4.780   1.520   1.236  0.8503 -1.0971  0.1316
  905TIP3    H224351   4.808   1.669   1.245 -1.0701 -0.7770  1.4972
  906TIP3   OH224352   5.350   3.348   7.110  0.0093  0.6039 -0.3310
  906TIP3    H124353   5.313   3.437   7.117 -0.5704  0.3644 -0.3150
  906TIP3    H224354   5.294   3.295   7.167  0.4647  0.2593 -0.2058
  907TIP3   OH224355   2.762   3.517   6.872  0.2354 -0.1843  0.3692
  907TIP3    H124356   2.677   3.539   6.833 -0.8780  0.3355  2.8641
  907TIP3    H224357   2.815   3.486   6.799 -0.7979  3.0992 -2.0435
  908TIP3   OH224358   3.211   0.817   1.767  0.5332 -0.1977 -0.2726
  908TIP3    H124359   3.126   0.775   1.780 -1.0168  2.5460 -0.8777
  908TIP3    H224360   3.262   0.790   1.843 -0.7710 -2.0382  0.0315
  909TIP3   OH224361   2.845   1.578   1.079 -0.9981 -1.0019 -0.0744
  909TIP3    H124362   2.875   1.528   1.154 -2.1114 -0.5330  0.7148
  909TIP3    H224363   2.917   1.572   1.016 -0.0367 -1.3933  1.0174
  910TIP3   OH224364   6.433   6.527   6.823 -0.0464  0.8107  0.4440
  910TIP3    H124365   6.526   6.530   6.800 -0.6510 -0.3777 -2.5872
  910TIP3    H224366   6.430   6.471   6.901  1.6512 -0.7627 -0.5331
  911TIP3   OH224367   4.107   4.110   0.432  0.3919  0.0996 -0.0063
  911TIP3    H124368   4.184   4.158   0.464  0.7831 -0.5090 -0.0052
  911TIP3    H224369   4.038   4.130   0.495  0.6560  0.3513  0.2058
  912TIP3   OH224370   0.744   1.870   0.571 -0.5621 -0.2598  0.5497
  912TIP3    H124371   0.724   1.822   0.651 -1.6908 -0.8565 -0.0663
  912TIP3    H224372   0.665   1.862   0.517  0.7259 -1.2547 -1.3063
  913TIP3   OH224373   2.718   3.017   8.692  0.1013 -0.1031  0.4383
  913TIP3    H124374   2.735   2.979   8.606  0.5768 -1.2074  0.9875
  913TIP3    H224375   2.660   3.091   8.675 -0.0714 -0.4931 -0.7958
  914TIP3   OH224376   0.133   5.386   0.382  0.1052 -0.0676 -0.1047
  914TIP3    H124377   0.197   5.324   0.347  0.0425 -0.7087  0.8850
  914TIP3    H224378   0.050   5.360   0.341  0.4144  0.6118 -1.1990
  915TIP3   OH224379   3.926   6.179   1.058  0.3765  0.0989 -0.7016
  915TIP3    H124380   3.982   6.256   1.049  0.2998  0.5346  1.7122
  915TIP3    H224381   3.970   6.111   1.008  1.9260  0.9918 -0.6297
  916TIP3   OH224382   4.039   4.898   8.504  0.0916 -0.5308  0.0637
  916TIP3    H124383   4.099   4.824   8.513 -0.1247 -0.9339 -1.5272
  916TIP3    H224384   4.090   4.973   8.535  0.7202 -1.1444  0.5863
  917TIP3   OH224385   3.237   1.700   8.684  0.0272  0.1383  0.0601
  917TIP3    H124386   3.267   1.673   8.771  1.3742 -1.1453 -0.7723
  917TIP3    H224387   3.260   1.793   8.679 -0.8329  0.4528  1.3625
  918TIP3   OH224388   5.067   0.606   7.360 -0.1990  0.0542 -0.1519
  918TIP3    H124389   5.108   0.601   7.273  0.1728  1.8654 -0.1255
  918TIP3    H224390   5.005   0.533   7.361  1.0419 -1.0821 -1.2523
  919TIP3   OH224391   1.307   3.207   7.220  0.1289  0.4717 -0.0906
  919TIP3    H124392   1.384   3.244   7.177  1.9084 -1.7611  1.0123
  919TIP3    H224393   1.338   3.176   7.304 -1.8118 -1.1810  0.1048
  920TIP3   OH224394   1.194   5.731   0.907 -0.2880 -0.0597  0.1297
  920TIP3    H124395   1.257   5.727   0.979 -0.2454  1.1451  0.1769
  920TIP3    H224396   1.154   5.818   0.915 -1.2578 -0.4380 -0.4876
  921TIP3   OH224397   1.704   4.222   8.086 -0.4025  0.2139 -0.0067
  921TIP3    H124398   1.724   4.314   8.071  2.1803 -0.2995 -0.2025
  921TIP3    H224399   1.653   4.221   8.167 -0.9736  1.8293 -0.3115
  922TIP3   OH224400   6.292   5.246   1.698 -0.3578 -0.0170 -0.5170
  922TIP3    H124401   6.363   5.193   1.662  1.1040  1.9966 -0.8145
  922TIP3    H224402   6.228   5.251   1.627 -0.0228 -0.5170 -0.8615
  923TIP3   OH224403   2.949   4.793   1.181  0.4451 -0.3498  0.2651
  923TIP3    H124404   2.925   4.883   1.159 -2.9873 -1.0964  0.3292
  923TIP3    H224405   2.967   4.796   1.275 -0.0619  0.1880  0.3528
  924TIP3   OH224406   6.618   2.620   8.735  0.0431 -0.2086 -0.4689
  924TIP3    H124407   6.587   2.546   8.683 -1.4119 -0.6195  0.9291
  924TIP3    H224408   6.564   2.694   8.706  0.4815 -0.0226 -0.8191
  925TIP3   OH224409   2.391   2.905   0.741  0.3454  0.4858 -0.1244
  925TIP3    H124410   2.433   2.831   0.699  0.9042 -0.5050  2.0531
  925TIP3    H224411   2.454   2.934   0.807 -1.5739  0.1716  1.9304
  926TIP3   OH224412   6.195   6.199   8.370  0.1372  0.8907 -0.0519
  926TIP3    H124413   6.168   6.272   8.427 -0.4346  1.6894 -1.3067
  926TIP3    H224414   6.117   6.144   8.364  1.4514 -1.8062  3.6266
  927TIP3   OH224415   5.126   0.606   8.220  0.4186  0.0524  0.2792
  927TIP3    H124416   5.057   0.593   8.155  0.8250  0.1627 -0.1816
  927TIP3    H224417   5.097   0.555   8.296  0.3800 -0.8363 -0.3111
  928TIP3   OH224418   0.209   2.642   0.564 -0.5465  0.0965 -0.0431
  928TIP3    H124419   0.134   2.690   0.531 -1.2743  0.1096  1.5373
  928TIP3    H224420   0.179   2.605   0.647  1.0232 -0.3603  0.3513
  929TIP3   OH224421   3.122   3.220   1.805  0.3817  0.6106  0.4388
  929TIP3    H124422   3.137   3.280   1.732  0.6375  1.5032  1.2023
  929TIP3    H224423   3.062   3.154   1.770  0.2690  1.1849 -0.4823
  930TIP3   OH224424   3.133   2.386   1.835  0.3008  0.3257  0.5118
  930TIP3    H124425   3.089   2.415   1.755  0.7573 -2.1811 -0.7573
  930TIP3    H224426   3.195   2.319   1.805  1.4502  0.2466  2.8343
  931TIP3   OH224427   3.997   4.643   1.499  0.0537 -0.0373  0.0319
  931TIP3    H124428   4.027   4.665   1.588 -1.0076 -0.7123  0.5766
  931TIP3    H224429   4.034   4.556   1.483  0.1248  0.0229 -0.1307
  932TIP3   OH224430   1.213   2.259   8.086  0.4320 -0.1864 -0.2960
  932TIP3    H124431   1.205   2.283   8.179 -0.7597 -1.1659 -0.1107
  932TIP3    H224432   1.307   2.258   8.069  0.7242 -1.0554  1.2116
  933TIP3   OH224433   3.107   3.046   7.606 -0.1827 -0.7149 -0.4904
  933TIP3    H124434   3.138   3.086   7.687 -0.1940 -0.5366 -0.5735
  933TIP3    H224435   3.043   2.980   7.634 -1.3652  0.4246 -0.4317
  934TIP3   OH224436   4.050   3.414   7.328 -0.7449  0.0483 -0.4331
  934TIP3    H124437   3.959   3.413   7.359  0.0823 -0.9639  2.1918
  934TIP3    H224438   4.094   3.475   7.387  0.6372 -0.7755 -0.5934
  935TIP3   OH224439   4.488   5.960   1.248 -0.0030 -0.3398  0.1458
  935TIP3    H124440   4.570   5.911   1.242 -0.2074 -1.2659  3.1638
  935TIP3    H224441   4.511   6.048   1.219  2.4169 -0.2733  1.8930
  936TIP3   OH224442   1.448   3.218   8.603 -0.0496  0.5738 -0.6342
  936TIP3    H124443   1.516   3.267   8.556  0.6215  0.7889  0.5213
  936TIP3    H224444   1.462   3.240   8.695 -0.2292 -1.1823 -0.1595
  937TIP3   OH224445   3.970   1.065   0.415  0.1361 -0.0858 -0.5201
  937TIP3    H124446   4.024   1.079   0.337  2.2126  0.8281  0.9938
  937TIP3    H224447   3.970   0.970   0.426 -0.0117 -0.2149 -1.4721
  938TIP3   OH224448   4.912   5.560   1.069  0.2402 -0.3680 -0.0664
  938TIP3    H124449   4.965   5.635   1.043  1.9436 -1.8525 -1.0972
  938TIP3    H224450   4.930   5.548   1.162  0.1743  0.2965  0.0409
  939TIP3   OH224451   3.929   2.854   1.292  0.4054 -0.0027  0.8364
  939TIP3    H124452   3.902   2.763   1.307  1.3436 -0.1066  2.0530
  939TIP3    H224453   3.993   2.871   1.361  2.0445  0.8109 -0.8151
  940TIP3   OH224454   6.830   0.766   7.935 -0.3317  0.3191  0.4167
  940TIP3    H124455   6.816   0.677   7.965  4.3169 -0.4779  0.9752
  940TIP3    H224456   6.793   0.821   8.004 -1.3496 -1.2217  1.1377
  941TIP3   OH224457   5.187   4.737   8.734  0.3048 -0.3933 -0.5718
  941TIP3    H124458   5.250   4.752   8.805  1.3505  2.0516 -1.8599
  941TIP3    H224459   5.109   4.702   8.777  0.9432  0.8465  1.7697
  942TIP3   OH224460   0.152   1.049   6.789  0.4809 -0.8426  0.3151
  942TIP3    H124461   0.080   1.090   6.838  1.0787  0.3750  0.2171
  942TIP3    H224462   0.229   1.102   6.810  0.8965 -0.6952 -1.3863
  943TIP3   OH224463   6.483   5.803   8.119 -0.4986  0.7201  0.5436
  943TIP3    H124464   6.557   5.814   8.059 -0.0222  1.8150  1.3147
  943TIP3    H224465   6.488   5.711   8.145  0.6250  0.7876  0.6207
  944TIP3   OH224466   0.882   1.771   7.610 -0.7932 -0.1148 -0.3266
  944TIP3    H124467   0.974   1.780   7.634 -0.5741 -1.6867 -0.4831
  944TIP3    H224468   0.844   1.857   7.628  0.5856  0.4055  0.2229
  945TIP3   OH224469   5.353   0.734   8.156  0.1058  0.2546  0.6864
  945TIP3    H124470   5.265   0.724   8.194  0.7525  0.9098  2.4361
  945TIP3    H224471   5.361   0.660   8.096 -1.1632 -0.5519  1.4540
  946TIP3   OH224472   0.421   4.974   7.432  0.4371 -0.4859 -0.3844
  946TIP3    H124473   0.361   4.988   7.359 -1.5134 -0.8084  1.0901
  946TIP3    H224474   0.378   5.014   7.507  1.4672 -1.8175  0.9868
  947TIP3   OH224475   5.883   3.397   8.131  0.3442  0.2144  0.3714
  947TIP3    H124476   5.813   3.351   8.084 -0.2434 -0.0618  1.4993
  947TIP3    H224477   5.958   3.337   8.127 -0.3517 -0.7942  1.6492
  948TIP3   OH224478   0.872   3.859   1.639  0.2652 -0.3914 -0.3586
  948TIP3    H124479   0.848   3.796   1.571  1.4394  0.3078 -1.4716
  948TIP3    H224480   0.911   3.932   1.592  0.5669  0.3916  1.0316
  949TIP3   OH224481   0.233   3.384   0.268  0.2418  0.1217 -0.0088
  949TIP3    H124482   0.272   3.343   0.191  0.6199 -0.3451  0.4234
  949TIP3    H224483   0.139   3.385   0.250  0.2447 -0.7376 -0.1235
  950TIP3   OH224484   4.381   4.475   7.148 -0.5698 -0.3946  0.1654
  950TIP3    H124485   4.336   4.452   7.230 -2.2191  0.2251 -0.5219
  950TIP3    H224486   4.312   4.479   7.083  0.4627  0.8122 -0.9184
  951TIP3   OH224487   3.192   6.228   7.465 -0.3637  0.2866 -0.2026
  951TIP3    H124488   3.143   6.206   7.386  0.3442 -0.3968 -0.4594
  951TIP3    H224489   3.150   6.177   7.534  1.2354 -1.9987 -0.7815
  952TIP3   OH224490   3.910   0.723   1.690  0.0235  0.1125 -0.2147
  952TIP3    H124491   3.826   0.679   1.676 -0.6754  0.6431  2.0492
  952TIP3    H224492   3.890   0.816   1.684  0.9954  0.2629 -2.2132
  953TIP3   OH224493   3.001   1.550   6.777 -0.4697 -0.0089 -0.2049
  953TIP3    H124494   2.986   1.508   6.862 -1.2777  0.0647 -0.3067
  953TIP3    H224495   3.056   1.487   6.730  0.1200  0.0204  0.4211
  954TIP3   OH224496   3.432   3.907   1.165 -0.0865  0.4029 -0.0857
  954TIP3    H124497   3.516   3.918   1.211  1.2293  0.5703 -2.3947
  954TIP3    H224498   3.420   3.988   1.117 -1.3820  0.2021 -0.1387
  955TIP3   OH224499   2.030   2.234   1.156  0.4399  0.2356  0.3293
  955TIP3    H124500   1.974   2.189   1.220 -0.0531  1.0156  0.4709
  955TIP3    H224501   1.999   2.204   1.071  1.5639 -1.3570  0.4320
  956TIP3   OH224502   2.004   1.852   6.845 -0.8566 -0.1295 -0.4310
  956TIP3    H124503   1.921   1.868   6.799 -0.2115  1.5710 -1.0841
  956TIP3    H224504   2.047   1.937   6.848  0.4175 -0.7676  0.8384
  957TIP3   OH224505   1.067   4.772   0.188  0.1991  0.4207  0.0282
  957TIP3    H124506   1.022   4.741   0.267 -0.7312  1.9807  0.1449
  957TIP3    H224507   1.039   4.711   0.120  1.2589 -1.1382  0.9276
  958TIP3   OH224508   0.891   2.479   1.591  0.7000 -0.4621  0.1276
  958TIP3    H124509   0.856   2.447   1.674 -0.5610 -1.0543 -0.5878
  958TIP3    H224510   0.813   2.502   1.540  1.4729  0.6106 -0.6134
  959TIP3   OH224511   0.844   4.543   7.144 -0.5037  0.0058  0.0151
  959TIP3    H124512   0.855   4.613   7.080  0.0658  0.9863  1.1547
  959TIP3    H224513   0.760   4.502   7.121 -0.4458  0.5149 -1.1605
  960TIP3   OH224514   5.537   2.798   1.481 -0.0392 -0.4406 -0.1379
  960TIP3    H124515   5.563   2.707   1.464 -0.0188 -0.5509  0.4651
  960TIP3    H224516   5.481   2.821   1.407 -0.0879 -0.9610 -0.2667
  961TIP3   OH224517   0.479   1.740   1.428 -0.6609  0.6405  0.1313
  961TIP3    H124518   0.555   1.761   1.482  1.0910 -0.4972 -1.7448
  961TIP3    H224519   0.503   1.770   1.340 -0.5888 -3.2687 -1.3749
  962TIP3   OH224520   3.379   0.641   8.466  0.1312 -0.0343  0.1674
  962TIP3    H124521   3.376   0.716   8.407 -1.3943  0.1791  0.4660
  962TIP3    H224522   3.293   0.599   8.455  1.1373 -2.0360 -0.3765
  963TIP3   OH224523   6.781   6.331   0.393  0.4483 -0.1293 -0.2638
  963TIP3    H124524   6.765   6.309   0.301 -0.2402  0.3879 -0.2722
  963TIP3    H224525   6.868   6.372   0.393  1.9771 -3.0505 -0.2080
  964TIP3   OH224526   2.412   5.790   1.277  0.4613 -0.1503  0.2089
  964TIP3    H124527   2.350   5.858   1.251  0.4286 -0.2401  0.0507
  964TIP3    H224528   2.390   5.771   1.368 -0.1580 -0.6227 -0.0291
  965TIP3   OH224529   4.738   2.149   0.843  0.1280  0.1964  0.3464
  965TIP3    H124530   4.790   2.163   0.764 -0.0085  0.7338  0.3494
  965TIP3    H224531   4.779   2.204   0.910 -0.2657  0.3976  0.4262
  966TIP3   OH224532   0.154   6.387   0.042  0.1223 -0.4301 -0.4365
  966TIP3    H124533   0.120   6.325   0.106  0.5859  1.5214  1.8298
  966TIP3    H224534   0.237   6.349   0.013 -1.0983 -2.3718 -1.5853
  967TIP3   OH224535   1.943   0.032   6.430  0.0266 -0.1556 -0.1010
  967TIP3    H124536   1.973   0.115   6.391  2.5880 -0.6728  0.5814
  967TIP3    H224537   1.923  -0.023   6.354  2.5779 -0.3316 -0.7419
  968TIP3   OH224538   5.533   5.376   8.719  0.0710  0.1175 -0.4113
  968TIP3    H124539   5.594   5.443   8.752 -1.7445  1.4747  0.3655
  968TIP3    H224540   5.527   5.394   8.625 -0.5652  1.2376 -0.1785
  969TIP3   OH224541   4.864   4.445   2.198  0.2388 -0.2277  0.1983
  969TIP3    H124542   4.821   4.430   2.282 -0.7263 -1.1182 -0.4219
  969TIP3    H224543   4.837   4.534   2.173 -0.8500 -0.5727  0.0753
  970TIP3   OH224544   2.884   6.460   7.460  0.8467  0.2874 -0.2460
  970TIP3    H124545   2.975   6.486   7.453  0.5329  1.1927 -1.2855
  970TIP3    H224546   2.878   6.379   7.408  0.3196  2.3267 -3.6437
  971TIP3   OH224547   6.406   3.946   6.771 -0.0101 -0.0475 -0.0632
  971TIP3    H124548   6.324   3.925   6.816  0.0350 -1.5095 -0.5867
  971TIP3    H224549   6.383   4.013   6.707 -0.7654 -0.3183 -0.0780
  972TIP3   OH224550   5.399   3.865   1.966 -0.1111  0.1582  0.4289
  972TIP3    H124551   5.378   3.778   1.999 -0.0843  0.0584  0.1897
  972TIP3    H224552   5.322   3.891   1.915 -0.5536  0.7206  1.3665
  973TIP3   OH224553   6.411   6.122   1.048 -0.3148  0.0513  0.3312
  973TIP3    H124554   6.385   6.199   1.098 -0.6351 -0.2349  0.6108
  973TIP3    H224555   6.500   6.142   1.018  0.1231 -0.0116  1.5219
  974TIP3   OH224556   5.920   3.524   0.778  0.1026 -0.3019  0.5209
  974TIP3    H124557   5.919   3.434   0.812 -1.1122 -0.1582  0.8978
  974TIP3    H224558   5.850   3.569   0.826 -0.4667  0.3835 -0.8901
  975TIP3   OH224559   6.327   4.006   7.104  0.5379  0.0194 -0.3709
  975TIP3    H124560   6.293   3.954   7.032  1.4204 -0.8861 -0.1632
  975TIP3    H224561   6.359   3.941   7.167  0.4078  0.8000  0.5234
  976TIP3   OH224562   5.131   1.352   8.007 -0.3606 -0.0614 -0.1126
  976TIP3    H124563   5.058   1.304   7.968 -0.7980 -0.0141  0.6344
  976TIP3    H224564   5.185   1.378   7.932 -1.6175  0.7493 -0.7756
  977TIP3   OH224565   2.423   2.097   8.769 -0.4008  0.3498  0.0575
  977TIP3    H124566   2.349   2.092   8.708 -0.4203  0.5581  0.0642
  977TIP3    H224567   2.384   2.087   8.855 -0.6489  2.0965  0.1966
  978TIP3   OH224568   0.774   2.780   8.435 -0.5876 -0.0678 -0.8096
  978TIP3    H124569   0.705   2.805   8.497 -0.2791  0.2095 -0.5675
  978TIP3    H224570   0.815   2.863   8.411 -1.2675 -0.0811 -2.0746
  979TIP3   OH224571   2.498   0.673   0.420  0.0809 -0.8944  0.0040
  979TIP3    H124572   2.477   0.763   0.445 -0.8153 -0.4999 -1.9555
  979TIP3    H224573   2.465   0.620   0.493 -1.9122  0.2020 -0.0336
  980TIP3   OH224574   6.370   0.696   2.046  0.1966 -0.2764  0.1410
  980TIP3    H124575   6.332   0.641   2.115 -1.1248 -0.0715 -0.3996
  980TIP3    H224576   6.374   0.783   2.085  1.0736 -0.4781  0.5400
  981TIP3   OH224577   2.028   1.527   8.073  0.0560 -0.2967  0.3123
  981TIP3    H124578   1.936   1.535   8.096 -0.0225  0.1675 -0.1235
  981TIP3    H224579   2.049   1.610   8.029  1.1340  0.3348  1.9186
  982TIP3   OH224580   1.421   6.262   7.581  0.0201  0.3688 -0.1083
  982TIP3    H124581   1.485   6.320   7.622  0.9123 -1.1533  0.7540
  982TIP3    H224582   1.449   6.257   7.490 -1.1328  2.6497 -0.6677
  983TIP3   OH224583   6.466   3.747   8.787  0.2081 -0.3184 -0.5804
  983TIP3    H124584   6.534   3.793   8.836 -0.7626  1.2635 -0.6386
  983TIP3    H224585   6.433   3.681   8.848  0.3568  0.3263  0.2241
  984TIP3   OH224586   3.289   6.113   0.664 -0.1125  0.6099  0.5548
  984TIP3    H124587   3.263   6.091   0.754  1.1240 -2.1711  0.3366
  984TIP3    H224588   3.211   6.095   0.611 -0.8399  2.2407  0.9861
  985TIP3   OH224589   0.167   1.397   6.589 -0.0228 -0.3341 -0.1632
  985TIP3    H124590   0.080   1.438   6.591  0.3545  0.4775  0.0826
  985TIP3    H224591   0.152   1.307   6.615 -0.5660  0.2277  1.5634
  986TIP3   OH224592   3.240   1.448   0.790 -0.3480 -0.1318  0.1731
  986TIP3    H124593   3.329   1.419   0.772 -1.0007 -0.9410 -2.0370
  986TIP3    H224594   3.196   1.370   0.824 -0.2315  0.2938  1.3642
  987TIP3   OH224595   6.053   1.571   1.805  0.3469  0.4463  0.3370
  987TIP3    H124596   6.103   1.603   1.880 -1.0598 -0.3214  1.6971
  987TIP3    H224597   6.106   1.501   1.768  1.2233  1.0696  0.4095
  988TIP3   OH224598   5.527   2.601   8.150 -0.7607 -0.2820  0.0148
  988TIP3    H124599   5.490   2.525   8.195 -1.6648  1.0767  1.6743
  988TIP3    H224600   5.574   2.649   8.218  0.1871  0.4403 -1.0996
  989TIP3   OH224601   0.367   2.508   1.627 -0.1595  0.1444  0.0672
  989TIP3    H124602   0.434   2.492   1.560 -0.1670 -1.8279  0.4713
  989TIP3    H224603   0.415   2.548   1.700  0.1530  0.7932 -0.4913
  990TIP3   OH224604   2.722   1.863   7.009  0.1449 -0.1825  0.1515
  990TIP3    H124605   2.782   1.838   7.079  0.8748 -1.8907 -1.0232
  990TIP3    H224606   2.766   1.934   6.964  0.1921  0.1486  0.7086
  991TIP3   OH224607   6.656   3.210   7.129  0.0114 -0.9408  0.4671
  991TIP3    H124608   6.626   3.276   7.066 -1.0320 -1.2251  0.6390
  991TIP3    H224609   6.750   3.224   7.135 -0.3577  1.6134  1.6867
  992TIP3   OH224610   2.211   5.319   2.033  0.3380  0.8706 -0.1163
  992TIP3    H124611   2.239   5.396   1.983  0.8428  0.3153 -0.6922
  992TIP3    H224612   2.212   5.247   1.970  0.4940  0.2615  0.5742
  993TIP3   OH224613   2.513   5.400   7.532  0.2891 -0.6994 -0.6815
  993TIP3    H124614   2.443   5.463   7.516  0.9742 -0.0059 -1.0416
  993TIP3    H224615   2.539   5.415   7.622  1.0727  0.1857 -1.0460
  994TIP3   OH224616   6.039   0.703   7.161  0.8686  0.0623  0.1865
  994TIP3    H124617   5.982   0.713   7.085 -0.7774  1.0184  1.4960
  994TIP3    H224618   6.072   0.791   7.178  0.7942 -0.0381  0.8909
  995TIP3   OH224619   1.248   4.514   0.219 -0.6034  0.0032 -0.2877
  995TIP3    H124620   1.272   4.587   0.162  1.7627 -0.9738 -0.6237
  995TIP3    H224621   1.314   4.514   0.288 -0.8340 -1.5432 -0.0285
  996TIP3   OH224622   2.222   4.855   2.177  0.3180  0.3464 -0.1506
  996TIP3    H124623   2.301   4.816   2.213 -0.0006  0.4279  0.6467
  996TIP3    H224624   2.205   4.931   2.232  0.1957  0.8596 -0.8819
  997TIP3   OH224625   0.639   3.570   8.576 -0.2875 -0.1227 -0.3089
  997TIP3    H124626   0.629   3.518   8.655  3.5146  1.4969  1.4793
  997TIP3    H224627   0.641   3.661   8.607 -1.0944  0.7866 -2.6318
  998TIP3   OH224628   0.199   1.837   0.783 -0.1195 -0.3541 -0.2171
  998TIP3    H124629   0.256   1.908   0.810  0.7996 -1.4346  0.7895
  998TIP3    H224630   0.191   1.781   0.861 -1.5560 -0.8770 -0.6998
  999TIP3   OH224631   1.796   6.021   6.606 -1.0053  0.5095  0.2335
  999TIP3    H124632   1.770   6.109   6.582  1.2182  0.3804 -3.1956
  999TIP3    H224633   1.883   6.031   6.645 -0.1301 -0.1978 -1.4421
 1000TIP3   OH224634   4.826   3.675   8.715 -0.4661 -0.4389 -0.3833
 1000TIP3    H124635   4.899   3.644   8.767 -1.1961 -0.9731  0.3449
 1000TIP3    H224636   4.806   3.762   8.749 -0.6047 -0.5740 -0.1176
 1001TIP3   OH224637   1.012   1.460   6.358  0.0416  0.6281  0.2199
 1001TIP3    H124638   1.082   1.446   6.423  0.1628 -0.5080 -0.1325
 1001TIP3    H224639   1.027   1.549   6.325  0.6378  0.8127  0.9573
 1002TIP3   OH224640   3.510   5.516   7.377  0.4383  0.1304 -0.4865
 1002TIP3    H124641   3.522   5.600   7.420 -0.7065  0.2541 -0.3736
 1002TIP3    H224642   3.428   5.525   7.330  0.3586 -0.8859 -0.5646
 1003TIP3   OH224643   2.823   6.336   7.138 -0.1828 -0.7410 -0.0951
 1003TIP3    H124644   2.735   6.363   7.162  0.6742  1.6871  0.5831
 1003TIP3    H224645   2.860   6.412   7.093  2.0693 -1.0835  1.0350
 1004TIP3   OH224646   1.125   0.268   2.317  0.0887 -0.6128  0.1136
 1004TIP3    H124647   1.177   0.191   2.298 -0.1591 -0.7237 -0.1221
 1004TIP3    H224648   1.099   0.302   2.232 -1.7789 -1.6364  0.2175
 1005TIP3   OH224649   4.777   2.364   0.624 -0.2223  0.3347  0.4970
 1005TIP3    H124650   4.871   2.371   0.640 -0.1384  2.4967 -0.6104
 1005TIP3    H224651   4.737   2.431   0.679 -1.2600 -1.1281  1.6270
 1006TIP3   OH224652   3.080   2.023   7.317 -0.0130  0.0431 -0.2852
 1006TIP3    H124653   3.003   2.039   7.372  0.5238  0.6299  0.3069
 1006TIP3    H224654   3.153   2.022   7.378  0.2650 -2.4957 -0.5557
 1007TIP3   OH224655   3.745   4.880   7.430  0.2762  0.1543 -0.1567
 1007TIP3    H124656   3.774   4.804   7.480  2.7247  0.5548 -0.8494
 1007TIP3    H224657   3.791   4.873   7.346 -0.0049  2.0168 -0.5131
 1008TIP3   OH224658   0.107   4.127   7.358 -0.0306 -0.1245  0.5070
 1008TIP3    H124659   0.128   4.041   7.395  0.8326  0.3094  1.0633
 1008TIP3    H224660   0.014   4.138   7.374  0.1215 -0.3825  1.6879
 1009TIP3   OH224661   1.155   3.799   0.621 -0.1163  0.5533  0.4856
 1009TIP3    H124662   1.201   3.725   0.662 -0.4814  0.3510  0.5346
 1009TIP3    H224663   1.115   3.762   0.542 -1.3217  0.3997  1.1421
 1010TIP3   OH224664   3.341   1.827   1.859 -0.0634  0.3672 -0.1769
 1010TIP3    H124665   3.364   1.900   1.917  0.7103  0.9600 -1.1792
 1010TIP3    H224666   3.372   1.749   1.905 -1.6480  0.5590  1.2907
 1011TIP3   OH224667   1.942   6.080   8.009  0.1843  0.0548  0.5234
 1011TIP3    H124668   1.893   6.160   7.989  0.0358  0.0406  0.8276
 1011TIP3    H224669   2.016   6.110   8.061  2.9076  0.6848 -3.3004
 1012TIP3   OH224670   4.031   5.573   1.133  1.2696 -0.4758  0.8668
 1012TIP3    H124671   4.081   5.526   1.067 -1.1168 -0.5025 -1.0841
 1012TIP3    H224672   4.051   5.666   1.118  0.3551 -0.4494 -0.2793
 1013TIP3   OH224673   2.637   3.434   8.136  0.3906  0.8416 -0.3517
 1013TIP3    H124674   2.688   3.435   8.218  1.5463  0.3689 -1.0402
 1013TIP3    H224675   2.694   3.475   8.072  0.5472 -1.0645 -1.4933
 1014TIP3   OH224676   5.502   5.975   1.332 -0.0938 -0.0535 -0.1746
 1014TIP3    H124677   5.586   5.999   1.370  0.8204 -1.1100 -1.4475
 1014TIP3    H224678   5.453   6.058   1.327  0.5612  0.4519  1.2553
 1015TIP3   OH224679   1.269   2.571   2.195  0.4048  0.2680  0.5207
 1015TIP3    H124680   1.300   2.482   2.210  1.1636  0.2771 -0.8337
 1015TIP3    H224681   1.204   2.586   2.264 -0.7037 -1.8027  0.0086
 1016TIP3   OH224682   6.136   5.865   1.325 -0.0076 -0.1501 -0.1427
 1016TIP3    H124683   6.128   5.882   1.419  0.9684  0.1089 -0.0968
 1016TIP3    H224684   6.082   5.787   1.311 -0.6116  0.1303  0.5255
 1017TIP3   OH224685   3.236   4.214   6.422  0.1882 -0.3839 -0.3359
 1017TIP3    H124686   3.171   4.204   6.353 -1.0163 -1.2853  0.8679
 1017TIP3    H224687   3.320   4.221   6.377 -0.8760  4.0445 -2.2001
 1018TIP3   OH224688   3.725   1.848   7.208 -0.1687 -0.2709 -0.4637
 1018TIP3    H124689   3.742   1.937   7.176  1.5157  0.1609  1.3839
 1018TIP3    H224690   3.810   1.805   7.206 -0.9357 -1.8154 -1.1662
 1019TIP3   OH224691   6.129   2.144   1.684 -0.0021 -0.3383  0.3649
 1019TIP3    H124692   6.035   2.160   1.680  0.0302 -0.2503 -0.0931
 1019TIP3    H224693   6.148   2.092   1.606  0.6613  1.4258 -0.7289
 1020TIP3   OH224694   5.067   3.576   1.767  0.2006  0.5562 -0.0951
 1020TIP3    H124695   5.110   3.524   1.836  0.3295 -0.0935 -0.6522
 1020TIP3    H224696   5.111   3.550   1.687  1.8534  3.2545 -0.1580
 1021TIP3   OH224697   6.714   4.665   6.479  0.4690  0.6669  0.2012
 1021TIP3    H124698   6.679   4.598   6.420  1.5252  2.6130 -2.8520
 1021TIP3    H224699   6.745   4.615   6.555 -2.2656 -1.8219 -0.1210
 1022TIP3   OH224700   4.391   4.118   8.212  0.5624  0.1456 -0.0554
 1022TIP3    H124701   4.480   4.135   8.183  0.5193  0.2742 -0.1145
 1022TIP3    H224702   4.370   4.192   8.270 -0.6007  1.8175 -2.4465
 1023TIP3   OH224703   4.120   4.971   1.748 -0.1334 -0.5675  0.0108
 1023TIP3    H124704   4.121   4.906   1.819 -2.3740  0.2388  0.8904
 1023TIP3    H224705   4.030   4.967   1.714  0.9139 -1.0401 -2.9632
 1024TIP3   OH224706   4.872   0.123   8.775  0.0488  0.3046  0.2620
 1024TIP3    H124707   4.872   0.135   8.680  1.4580  1.1985  0.3474
 1024TIP3    H224708   4.827   0.200   8.809 -1.8119 -0.7303  0.2970
 1025TIP3   OH224709   3.952   1.103   0.916  0.2195  0.3878 -0.6120
 1025TIP3    H124710   4.039   1.097   0.957  0.0707  0.2536 -0.3083
 1025TIP3    H224711   3.965   1.069   0.828  0.2723 -0.5762 -0.2457
 1026TIP3   OH224712   3.262   3.495   0.789 -0.4277  0.3199  0.2736
 1026TIP3    H124713   3.221   3.413   0.763 -0.5438  0.1797  0.8836
 1026TIP3    H224714   3.200   3.563   0.763  1.0817  0.5334 -3.3123
 1027TIP3   OH224715   3.819   5.311   0.845  0.0024  0.2546  0.3367
 1027TIP3    H124716   3.776   5.333   0.928  0.0235 -2.3963  1.1243
 1027TIP3    H224717   3.794   5.220   0.828  1.8538  0.0012 -1.4150
 1028TIP3   OH224718   6.559   4.214   7.952  0.2065  0.0472 -0.4339
 1028TIP3    H124719   6.584   4.287   8.009  0.8945 -0.0555 -0.5913
 1028TIP3    H224720   6.589   4.136   7.999 -2.9274 -0.4180  1.0668
 1029TIP3   OH224721   3.836   4.069   1.581 -0.4210  0.3277 -0.3319
 1029TIP3    H124722   3.891   4.016   1.639 -0.3998  1.5371  0.8076
 1029TIP3    H224723   3.781   4.006   1.535  1.1708 -0.8411 -0.7254
 1030TIP3   OH224724   6.762   2.041   0.119 -0.1752  0.1322  0.0891
 1030TIP3    H124725   6.765   2.029   0.214  1.3218  0.4485  0.0977
 1030TIP3    H224726   6.852   2.029   0.090 -0.5341  0.5044 -1.2411
 1031TIP3   OH224727   0.923   3.625   8.820  0.8299 -0.3231 -0.2669
 1031TIP3    H124728   0.909   3.533   8.842 -0.5990 -0.1579 -0.4111
 1031TIP3    H224729   0.835   3.660   8.806  1.3869  0.9471 -0.7044
 1032TIP3   OH224730   3.055   0.065   8.525 -0.7080 -0.1025 -0.7413
 1032TIP3    H124731   3.124   0.131   8.529 -0.8777  0.2952 -2.8909
 1032TIP3    H224732   3.099  -0.016   8.503 -0.7694 -0.1726 -0.6096
 1033TIP3   OH224733   4.012   5.526   1.974 -0.0516  0.5335 -0.6949
 1033TIP3    H124734   3.922   5.509   2.000  0.7392 -0.3888  1.6886
 1033TIP3    H224735   4.065   5.483   2.041  2.1875  0.3581 -2.4607
 1034TIP3   OH224736   3.408   0.357   7.979 -0.1196 -0.1224 -0.2521
 1034TIP3    H124737   3.334   0.352   7.918 -0.2242  0.3328 -0.1698
 1034TIP3    H224738   3.440   0.267   7.986 -1.6929 -0.6212  0.9869
 1035TIP3   OH224739   4.797   2.313   2.611 -0.3979  0.3852  0.2707
 1035TIP3    H124740   4.749   2.342   2.534 -0.4417 -0.3216  0.0302
 1035TIP3    H224741   4.745   2.240   2.646  0.6010 -0.5511 -0.1350
 1036TIP3   OH224742   6.614   4.145   8.314  0.2580  0.3621  0.1779
 1036TIP3    H124743   6.561   4.142   8.394  1.7935  0.1004  1.2219
 1036TIP3    H224744   6.639   4.237   8.306  0.3154  0.3422  0.1302
 1037TIP3   OH224745   5.137   5.061   8.453  0.3703 -1.1261 -0.0465
 1037TIP3    H124746   5.231   5.073   8.444  0.1813  3.5167  1.3996
 1037TIP3    H224747   5.127   4.987   8.513  2.8961 -2.9253 -1.6626
 1038TIP3   OH224748   4.281   5.014   7.676  0.1998  0.0243 -0.4659
 1038TIP3    H124749   4.227   4.935   7.671  0.7483 -0.4040  0.0646
 1038TIP3    H224750   4.334   5.011   7.596  1.9781 -1.5074  0.6843
 1039TIP3   OH224751   6.799   1.483   1.291  0.1354 -0.5021  0.1605
 1039TIP3    H124752   6.839   1.551   1.345  1.1979  0.6405 -1.9549
 1039TIP3    H224753   6.733   1.529   1.240 -2.3500 -1.9436  1.8524
 1040TIP3   OH224754   6.679   6.214   0.067  0.6101  0.2225  0.1308
 1040TIP3    H124755   6.683   6.241  -0.024 -2.4910  1.0274  0.1364
 1040TIP3    H224756   6.771   6.203   0.093  1.6012  0.8240 -2.7862
 1041TIP3   OH224757   3.328   6.778   8.538 -0.0257  0.1474 -0.5478
 1041TIP3    H124758   3.344   6.768   8.632 -2.0169  0.5107 -0.1251
 1041TIP3    H224759   3.365   6.864   8.516  0.7715 -0.0977 -0.1860
 1042TIP3   OH224760   4.871   1.924   0.209 -0.2093 -0.3222  0.0893
 1042TIP3    H124761   4.824   1.849   0.172 -2.2465  0.8604  0.0810
 1042TIP3    H224762   4.897   1.976   0.132 -0.1845 -0.2542  0.1430
 1043TIP3   OH224763   0.314   6.660   0.694  0.0186  0.3688  0.3998
 1043TIP3    H124764   0.381   6.608   0.738 -1.2748 -0.9953  0.8183
 1043TIP3    H224765   0.233   6.612   0.708 -0.8622  1.2999 -1.1973
 1044TIP3   OH224766   3.814   6.302   6.437 -0.7816  0.1633 -0.5911
 1044TIP3    H124767   3.857   6.252   6.506  1.2157  2.6986  0.1672
 1044TIP3    H224768   3.782   6.381   6.481 -0.2790  1.4248 -2.3626
 1045TIP3   OH224769   5.040   6.451   0.464  0.0923 -0.2626 -0.4347
 1045TIP3    H124770   5.070   6.476   0.377 -0.2969  1.3776 -0.1265
 1045TIP3    H224771   5.121   6.440   0.515  0.3258 -1.3796 -1.0183
 1046TIP3   OH224772   3.218   5.971   8.458 -0.0764  0.1215 -0.0126
 1046TIP3    H124773   3.209   5.960   8.553  1.7384 -0.3859  0.1365
 1046TIP3    H224774   3.134   6.008   8.431 -1.3240 -1.3910  1.5136
 1047TIP3   OH224775   6.834   0.742   0.971  0.2731  0.2101 -0.1715
 1047TIP3    H124776   6.873   0.654   0.976 -0.3524 -0.1647 -1.3993
 1047TIP3    H224777   6.792   0.744   0.885  0.3802  1.7668 -0.2120
 1048TIP3   OH224778   1.165   0.711   1.550  0.3361  0.6559 -0.4023
 1048TIP3    H124779   1.142   0.619   1.534 -1.9001  1.0929 -0.0287
 1048TIP3    H224780   1.258   0.709   1.572 -0.2504 -1.9625  2.6280
 1049TIP3   OH224781   1.382   0.869   7.405  0.0920 -0.4431  0.3595
 1049TIP3    H124782   1.392   0.960   7.433 -1.9194 -0.1044  0.1139
 1049TIP3    H224783   1.340   0.825   7.479  1.9357 -1.4631  0.8721
 1050TIP3   OH224784   2.891   5.950   0.991 -0.1082 -0.6609 -0.1998
 1050TIP3    H124785   2.970   5.915   1.033  1.1715  0.0661 -1.8536
 1050TIP3    H224786   2.849   6.004   1.058  1.0815 -0.6533  0.5698
 1051TIP3   OH224787   6.728   4.948   0.725 -0.4206  0.4467 -0.4353
 1051TIP3    H124788   6.668   5.013   0.762  0.4809  0.8144  0.4140
 1051TIP3    H224789   6.675   4.868   0.720 -0.6951  0.4742  1.3607
 1052TIP3   OH224790   5.346   2.301   8.047  0.5913 -0.3630  0.3531
 1052TIP3    H124791   5.283   2.373   8.045  1.0808  0.0748 -1.9519
 1052TIP3    H224792   5.400   2.319   8.124  0.1308  1.2237  0.3429
 1053TIP3   OH224793   0.090   0.250   2.460 -0.4783  0.3940 -0.5527
 1053TIP3    H124794   0.012   0.268   2.513 -1.0394 -0.0733 -1.2035
 1053TIP3    H224795   0.057   0.239   2.371  0.4735  1.4070 -1.0652
 1054TIP3   OH224796   3.656   6.552   0.548  0.2183 -0.7031 -0.1746
 1054TIP3    H124797   3.569   6.519   0.568  0.3200  0.1052  1.8130
 1054TIP3    H224798   3.654   6.643   0.576  1.8018 -0.7634  0.2205
 1055TIP3   OH224799   6.120   1.902   7.672 -0.1907 -0.5051 -0.1161
 1055TIP3    H124800   6.211   1.917   7.696 -0.1253 -0.6726 -0.2585
 1055TIP3    H224801   6.084   1.850   7.744 -0.7097  1.2004  0.9281
 1056TIP3   OH224802   6.118   6.346   1.157 -0.6319 -0.3994 -0.0116
 1056TIP3    H124803   6.048   6.346   1.222  2.2230  0.9130  3.3575
 1056TIP3    H224804   6.133   6.438   1.138  0.3032 -0.6560 -0.5784
 1057TIP3   OH224805   2.667   6.114   2.665 -0.3169  0.4043  0.1417
 1057TIP3    H124806   2.754   6.134   2.699  0.1323  1.7105 -1.6123
 1057TIP3    H224807   2.668   6.019   2.653 -0.2885 -0.0323  2.9934
 1058TIP3   OH224808   1.161   5.258   2.028  0.6005 -0.3379  0.3414
 1058TIP3    H124809   1.120   5.344   2.039  1.5290  0.0189  1.1064
 1058TIP3    H224810   1.166   5.246   1.933 -0.1802  0.1339  0.2334
 1059TIP3   OH224811   0.088   4.867   7.805  0.1157  0.3282 -0.0377
 1059TIP3    H124812   0.037   4.885   7.726  0.4477 -1.7928 -0.8222
 1059TIP3    H224813   0.029   4.813   7.858  0.6786 -0.1180  0.1374
 1060TIP3   OH224814   3.515   6.359   0.011 -0.3117 -0.3254  0.2523
 1060TIP3    H124815   3.544   6.325   0.096  0.9613 -0.7321 -0.3379
 1060TIP3    H224816   3.422   6.380   0.025 -0.3466 -1.2046  1.4904
 1061TIP3   OH224817   1.369   2.185   0.551  0.2906  0.2402 -0.0267
 1061TIP3    H124818   1.417   2.147   0.625 -0.0542 -1.5991 -0.7084
 1061TIP3    H224819   1.434   2.238   0.505  0.1727  2.6714  2.3720
 1062TIP3   OH224820   1.597   4.430   8.353  0.2189 -0.3413  0.0127
 1062TIP3    H124821   1.669   4.384   8.395  0.8146 -1.2000 -1.8555
 1062TIP3    H224822   1.524   4.368   8.355  0.2273 -0.3567 -0.1616
 1063TIP3   OH224823   4.969   5.630   7.557 -0.0050 -0.2341 -0.2330
 1063TIP3    H124824   4.952   5.573   7.631  0.0209  0.1422  0.0663
 1063TIP3    H224825   4.942   5.579   7.480 -0.7882 -0.3157  0.0936
 1064TIP3   OH224826   6.330   6.514   1.397  0.5232 -0.8361 -0.3660
 1064TIP3    H124827   6.344   6.592   1.450 -0.1016 -0.5875 -0.5617
 1064TIP3    H224828   6.330   6.442   1.461 -1.1648 -0.4485  0.1044
 1065TIP3   OH224829   5.895   0.052   0.318  0.2033 -0.8452 -0.0325
 1065TIP3    H124830   5.931  -0.037   0.319  1.8434 -0.2154 -0.1390
 1065TIP3    H224831   5.819   0.047   0.377  2.0527 -1.6409  2.5058
 1066TIP3   OH224832   2.705   2.479   7.480 -0.0606  0.1975 -0.4040
 1066TIP3    H124833   2.742   2.508   7.396  0.5799  2.4711  0.5935
 1066TIP3    H224834   2.711   2.556   7.537 -1.2382 -1.0405  1.4989
 1067TIP3   OH224835   1.602   2.305   7.177  0.7755  0.2508  0.9377
 1067TIP3    H124836   1.549   2.357   7.117 -0.1191 -2.3272 -0.6881
 1067TIP3    H224837   1.692   2.319   7.147  0.5247  0.5843  0.3106
 1068TIP3   OH224838   3.183   1.653   6.498  0.4541 -0.4536 -0.6512
 1068TIP3    H124839   3.257   1.605   6.461 -0.0343 -0.8992 -1.0640
 1068TIP3    H224840   3.168   1.612   6.583  0.3317 -0.7283 -0.8046
 1069TIP3   OH224841   6.013   0.488   0.678  0.1973 -0.1491  0.1694
 1069TIP3    H124842   5.964   0.409   0.656 -2.0612  1.1360  0.2315
 1069TIP3    H224843   5.999   0.547   0.604  2.0821  0.1296 -0.0130
 1070TIP3   OH224844   4.682   5.450   8.366  0.5987  0.1727 -0.3188
 1070TIP3    H124845   4.735   5.440   8.445 -0.8080 -0.1518  0.6129
 1070TIP3    H224846   4.610   5.387   8.377 -0.0215  0.6468 -1.5045
 1071TIP3   OH224847   1.704   6.039   2.386 -0.3371 -0.6201  0.0703
 1071TIP3    H124848   1.608   6.034   2.381 -0.5023  0.1339  1.9846
 1071TIP3    H224849   1.725   6.127   2.355 -0.1901 -0.9334 -0.7708
 1072TIP3   OH224850   5.299   5.665   1.494 -0.1202  0.8702 -0.3635
 1072TIP3    H124851   5.277   5.573   1.484 -1.3389  1.0540  0.4873
 1072TIP3    H224852   5.387   5.672   1.458  0.0164 -0.6299 -0.3876
 1073TIP3   OH224853   4.775   2.489   8.252 -0.5564 -0.3078  0.9575
 1073TIP3    H124854   4.710   2.500   8.182 -1.2117 -1.2905  1.3878
 1073TIP3    H224855   4.762   2.565   8.309  0.6925  1.0746 -0.4942
 1074TIP3   OH224856   2.759   2.201   1.515 -0.5921 -0.3316 -0.1519
 1074TIP3    H124857   2.731   2.117   1.478 -0.3850 -0.5201  0.1204
 1074TIP3    H224858   2.748   2.264   1.443 -1.4563 -0.4480 -0.1339
 1075TIP3   OH224859   1.779   1.078   1.338  0.6053  0.5531 -0.2034
 1075TIP3    H124860   1.756   1.078   1.431 -0.5684  0.4644 -0.4727
 1075TIP3    H224861   1.721   1.012   1.300  2.6276 -1.0682 -0.6571
 1076TIP3   OH224862   6.230   5.954   7.762 -0.6198  0.1245 -0.6889
 1076TIP3    H124863   6.240   5.859   7.751 -0.3722 -0.2783  2.3688
 1076TIP3    H224864   6.302   5.991   7.712  1.2022 -1.5012  0.5774
 1077TIP3   OH224865   3.225   5.541   1.878 -0.1823 -0.4217 -0.0986
 1077TIP3    H124866   3.271   5.623   1.859  1.1203 -1.4216 -1.5273
 1077TIP3    H224867   3.286   5.473   1.851 -2.2947 -1.8440 -1.5920
 1078TIP3   OH224868   5.895   4.170   2.186  0.5412  0.1305 -0.3985
 1078TIP3    H124869   5.928   4.082   2.167  1.0142  0.4010 -0.8555
 1078TIP3    H224870   5.894   4.175   2.281  0.4533 -0.3899 -0.3662
 1079TIP3   OH224871   5.011   4.387   7.711  0.6955  0.0587 -0.4669
 1079TIP3    H124872   5.003   4.421   7.800 -0.4144 -1.7391  0.1843
 1079TIP3    H224873   5.046   4.459   7.660  0.6292  1.3760  1.2834
 1080TIP3   OH224874   6.704   5.577   1.663 -0.8720 -0.2054  0.1802
 1080TIP3    H124875   6.703   5.580   1.567 -0.4018 -0.2995  0.1707
 1080TIP3    H224876   6.694   5.668   1.690 -0.5151 -0.1211  0.0342
 1081TIP3   OH224877   0.568   6.634   7.859  0.4059  0.4061  0.2502
 1081TIP3    H124878   0.616   6.552   7.848 -1.3030 -0.3093 -3.2558
 1081TIP3    H224879   0.621   6.700   7.813 -0.3645  0.2602 -0.8905
 1082TIP3   OH224880   1.467   6.315   8.454  0.7026  0.1874  0.0236
 1082TIP3    H124881   1.476   6.222   8.436 -0.7736 -0.3846  1.9462
 1082TIP3    H224882   1.498   6.326   8.544  0.6604  1.5206 -0.0986
 1083TIP3   OH224883   3.803   3.007   6.402  0.1940  0.3022  0.3809
 1083TIP3    H124884   3.744   3.068   6.358  1.6438  0.8755 -0.8333
 1083TIP3    H224885   3.806   3.039   6.493 -1.9903 -0.2735  0.7250
 1084TIP3   OH224886   1.950   5.457   1.930  0.0706 -0.7361  0.1541
 1084TIP3    H124887   2.043   5.478   1.920  0.6534 -2.5551  1.2893
 1084TIP3    H224888   1.928   5.486   2.019 -0.8493  0.9041 -0.5576
 1085TIP3   OH224889   0.443   6.359   0.886  0.2352 -0.1232  0.5370
 1085TIP3    H124890   0.532   6.331   0.864 -0.3682  0.4192 -3.1948
 1085TIP3    H224891   0.454   6.449   0.919  0.9911  0.7248 -1.8545
 1086TIP3   OH224892   4.839   6.414   8.149  0.1466  0.2372  0.0589
 1086TIP3    H124893   4.801   6.365   8.221 -0.8478 -1.3154 -1.4391
 1086TIP3    H224894   4.898   6.352   8.106  0.0271  0.8247 -0.9908
 1087TIP3   OH224895   6.712   1.044   1.182  0.2493 -0.4154 -0.0090
 1087TIP3    H124896   6.622   1.039   1.215  0.5259  2.2213  1.3710
 1087TIP3    H224897   6.711   1.117   1.121  1.2032 -1.1984 -0.9939
 1088TIP3   OH224898   6.708   3.027   1.821  0.3925 -0.1890  0.0383
 1088TIP3    H124899   6.693   2.932   1.827  1.0173 -0.2810  0.2039
 1088TIP3    H224900   6.625   3.066   1.849  0.2708 -0.6833  0.3815
 1089TIP3   OH224901   6.620   0.196   0.538 -0.5712  0.2532  0.1344
 1089TIP3    H124902   6.638   0.244   0.457 -0.1305 -0.0167  0.0690
 1089TIP3    H224903   6.574   0.117   0.509  1.8212 -1.1292 -0.1509
 1090TIP3   OH224904   3.073   4.422   8.247 -0.1668  0.4478 -0.0286
 1090TIP3    H124905   3.097   4.474   8.324 -1.5271  1.5229 -0.3000
 1090TIP3    H224906   3.018   4.351   8.282 -0.6220  0.8220  0.0249
 1091TIP3   OH224907   5.001   0.444   1.433 -0.2182 -0.1251  0.0725
 1091TIP3    H124908   5.031   0.499   1.505 -1.2878 -0.2877  0.6635
 1091TIP3    H224909   5.081   0.422   1.385  1.1382 -2.8752  3.1400
 1092TIP3   OH224910   5.038   2.366   0.664  0.3004 -0.0627 -0.2593
 1092TIP3    H124911   5.025   2.272   0.669 -0.9715  0.1513  1.0180
 1092TIP3    H224912   5.131   2.379   0.684  0.1815 -0.9503  0.9388
 1093TIP3   OH224913   5.556   2.193   7.060  0.0538  0.0565  0.7168
 1093TIP3    H124914   5.466   2.165   7.076  0.6435 -2.6360 -0.1507
 1093TIP3    H224915   5.568   2.182   6.966  1.0805  1.1275  0.7011
 1094TIP3   OH224916   0.379   5.102   8.435  0.2580  0.2974 -0.0295
 1094TIP3    H124917   0.372   5.008   8.422 -0.7352  0.3526  0.0787
 1094TIP3    H224918   0.456   5.128   8.383  0.0038 -0.4317 -0.7801
 1095TIP3   OH224919   5.308   2.877   7.288  0.5011  0.2940 -0.0417
 1095TIP3    H124920   5.327   2.783   7.298 -1.2580 -0.4648 -2.7939
 1095TIP3    H224921   5.213   2.882   7.291  0.5074  1.7603 -1.3742
 1096TIP3   OH224922   3.346   4.456   8.762 -0.5974 -0.0067 -0.0119
 1096TIP3    H124923   3.395   4.406   8.697  1.4315 -0.0931  1.4715
 1096TIP3    H224924   3.256   4.424   8.755 -0.0687 -1.2961 -1.4988
 1097TIP3   OH224925   5.925   0.413   1.937  0.4781  0.2003  0.7193
 1097TIP3    H124926   5.903   0.472   2.008  0.6092  0.6207  0.4192
 1097TIP3    H224927   5.925   0.326   1.976 -0.5623  0.3052  0.9746
 1098TIP3   OH224928   4.733   0.274   7.466 -0.2721  0.3912 -0.3594
 1098TIP3    H124929   4.717   0.240   7.378  0.4460  0.0999 -0.3862
 1098TIP3    H224930   4.797   0.213   7.504  0.4731  1.2771 -0.1442
 1099TIP3   OH224931   4.295   5.877   7.114 -0.0284  0.3413  0.4541
 1099TIP3    H124932   4.286   5.842   7.025 -0.6475  0.9575  0.2724
 1099TIP3    H224933   4.365   5.941   7.108  0.1244  0.1771  0.4754
 1100TIP3   OH224934   5.648   1.350   0.404  0.6481 -0.0015  0.3267
 1100TIP3    H124935   5.711   1.306   0.461  0.7940  0.3839  0.4605
 1100TIP3    H224936   5.684   1.438   0.391 -0.4521  0.6283  1.3694
 1101TIP3   OH224937   2.498   1.502   0.801 -0.4623 -0.4667  0.1335
 1101TIP3    H124938   2.552   1.543   0.869 -0.2264  2.8447 -1.8496
 1101TIP3    H224939   2.408   1.518   0.828 -0.5626 -3.3131  1.8918
 1102TIP3   OH224940   1.711   2.614   8.176 -0.3377 -0.0176  0.3524
 1102TIP3    H124941   1.751   2.677   8.116 -2.0898  0.9882  0.1689
 1102TIP3    H224942   1.657   2.668   8.234 -0.0541 -1.1439  1.7107
 1103TIP3   OH224943   2.577   6.658   2.343 -0.1370 -0.1697 -0.5528
 1103TIP3    H124944   2.541   6.734   2.297 -0.6593  0.1819  0.4111
 1103TIP3    H224945   2.508   6.633   2.406  0.8296 -0.1901  0.5331
 1104TIP3   OH224946   3.467   0.812   7.437 -0.1741  0.0193 -0.5722
 1104TIP3    H124947   3.404   0.846   7.502 -0.4347 -1.1426 -0.1963
 1104TIP3    H224948   3.515   0.744   7.484 -0.0124 -0.4848 -1.4611
 1105TIP3   OH224949   0.528   5.110   7.165 -0.1618  0.4276  0.4658
 1105TIP3    H124950   0.528   5.175   7.235 -2.7517  0.3113  0.6659
 1105TIP3    H224951   0.439   5.075   7.164  0.0097 -0.1726 -2.3605
 1106TIP3   OH224952   0.462   5.725   1.383 -0.3585  0.0005  0.8249
 1106TIP3    H124953   0.505   5.672   1.317 -0.2907 -0.6241  1.3622
 1106TIP3    H224954   0.396   5.775   1.335  0.0813 -0.0010  0.2012
 1107TIP3   OH224955   4.232   0.377   0.561  0.3167 -0.0725  0.1563
 1107TIP3    H124956   4.262   0.377   0.470 -0.7176 -0.9463 -0.2198
 1107TIP3    H224957   4.169   0.305   0.564 -0.7725  0.8860  1.1872
 1108TIP3   OH224958   4.322   6.766   8.666  0.4373 -0.3564 -0.0188
 1108TIP3    H124959   4.297   6.675   8.655  0.7513 -0.5215  0.5992
 1108TIP3    H224960   4.285   6.791   8.751 -0.5121  0.3885 -0.6304
 1109TIP3   OH224961   2.677   4.419   7.209  0.3792 -0.0311  0.6136
 1109TIP3    H124962   2.595   4.405   7.257  0.7559 -1.1670  0.9589
 1109TIP3    H224963   2.650   4.430   7.118 -0.2541  0.9866  0.9078
 1110TIP3   OH224964   1.381   0.628   2.303  0.0530 -0.0256 -0.3221
 1110TIP3    H124965   1.389   0.723   2.294 -0.6983 -0.0408 -1.4047
 1110TIP3    H224966   1.294   0.615   2.342 -1.1730 -0.3179 -2.9097
 1111TIP3   OH224967   3.211   0.760   8.167 -0.3613  0.5786  0.7813
 1111TIP3    H124968   3.158   0.706   8.108  1.8975 -0.1286 -0.7212
 1111TIP3    H224969   3.198   0.849   8.136  0.1362  0.2990 -0.2783
 1112TIP3   OH224970   3.861   1.126   1.339 -0.4448  0.0696 -0.3929
 1112TIP3    H124971   3.838   1.033   1.332 -1.8127  0.3532  0.0168
 1112TIP3    H224972   3.865   1.157   1.249 -0.4648 -0.2731 -0.5115
 1113TIP3   OH224973   3.206   4.768   8.056 -0.3974  0.0224 -0.0238
 1113TIP3    H124974   3.117   4.801   8.067 -1.2959 -2.3046  0.4195
 1113TIP3    H224975   3.262   4.845   8.067 -2.2472  1.2252  1.8045
 1114TIP3   OH224976   2.932   1.382   0.842  0.2023 -0.3886  0.3106
 1114TIP3    H124977   2.883   1.429   0.775 -2.1108  0.6248  2.5395
 1114TIP3    H224978   2.969   1.306   0.797 -1.1728  0.2763 -2.0857
 1115TIP3   OH224979   0.569   4.152   1.772  0.4526 -0.3059 -0.3332
 1115TIP3    H124980   0.625   4.156   1.849 -1.1294 -0.2114  0.8713
 1115TIP3    H224981   0.630   4.147   1.698  2.0476  0.6837  0.8318
 1116TIP3   OH224982   2.085   6.303   2.584  0.1520 -0.0783  0.3452
 1116TIP3    H124983   2.060   6.302   2.492  0.2284  1.1852  0.3000
 1116TIP3    H224984   2.032   6.233   2.624  0.3188 -0.8103 -0.6939
 1117TIP3   OH224985   1.270   0.187   0.432 -0.0648 -0.3800  0.0692
 1117TIP3    H124986   1.287   0.201   0.339  0.7832  0.9635  0.4035
 1117TIP3    H224987   1.179   0.215   0.443  0.4544  1.4810 -0.0003
 1118TIP3   OH224988   4.059   3.622   0.403  0.4358  0.2775 -0.4074
 1118TIP3    H124989   3.965   3.620   0.386 -0.2816  0.0006  2.9423
 1118TIP3    H224990   4.097   3.656   0.322 -2.3637 -0.9031 -2.3903
 1119TIP3   OH224991   2.253   0.596   0.628 -0.0685  0.0630  0.2132
 1119TIP3    H124992   2.266   0.649   0.706 -0.4953 -1.3665  1.2947
 1119TIP3    H224993   2.198   0.650   0.571  0.6723  1.3279  0.6571
 1120TIP3   OH224994   4.600   3.215   1.174  0.2362  0.7313  0.1225
 1120TIP3    H124995   4.686   3.254   1.164  1.0753 -0.9241  0.5272
 1120TIP3    H224996   4.604   3.134   1.124 -0.3181 -0.4727  1.9251
 1121TIP3   OH224997   3.139   5.339   2.290 -0.2027  0.5366 -0.0578
 1121TIP3    H124998   3.194   5.407   2.328  1.5509 -0.7156 -0.2212
 1121TIP3    H224999   3.133   5.272   2.359 -0.7032  0.2133 -0.4063
 1122TIP3   OH225000   0.182   4.491   7.899 -0.3317 -0.0939  0.0293
 1122TIP3    H125001   0.204   4.573   7.942  0.5001 -0.0175 -0.5440
 1122TIP3    H225002   0.190   4.508   7.806  3.4738 -1.7456 -0.1199
 1123TIP3   OH225003   5.887   1.303   6.960  0.9563 -0.0279 -0.4119
 1123TIP3    H125004   5.881   1.272   7.051 -2.3846  0.0709 -0.4763
 1123TIP3    H225005   5.860   1.395   6.964  1.1553  0.0855 -1.4350
 1124TIP3   OH225006   3.808   1.404   7.947  0.4590  0.8714  0.2658
 1124TIP3    H125007   3.823   1.310   7.950  0.7685  0.7052 -2.8083
 1124TIP3    H225008   3.892   1.442   7.975  1.2261  0.1562 -0.9662
 1125TIP3   OH225009   0.951   5.184   0.191 -0.1348 -0.6204 -0.1773
 1125TIP3    H125010   0.980   5.192   0.100 -2.3075  0.6122 -0.8471
 1125TIP3    H225011   1.017   5.233   0.241  0.3749 -0.1476 -1.2692
 1126TIP3   OH225012   0.600   3.918   7.111 -0.5018 -0.0610  0.0003
 1126TIP3    H125013   0.556   3.958   7.036 -0.8863 -2.1167 -0.9322
 1126TIP3    H225014   0.660   3.985   7.142  0.2787  0.5798 -2.6484
 1127TIP3   OH225015   0.482   4.290   6.539  0.2091  0.4576  0.3337
 1127TIP3    H125016   0.498   4.344   6.461  0.2016 -2.2274 -1.7114
 1127TIP3    H225017   0.387   4.283   6.545  0.2221 -0.6009 -0.4284
 1128TIP3   OH225018   6.085   0.371   8.748  0.8950 -0.6958 -0.3541
 1128TIP3    H125019   6.015   0.344   8.807  2.2007  1.0399  2.1765
 1128TIP3    H225020   6.087   0.466   8.756  4.5958 -0.7388  1.1086
 1129TIP3   OH225021   6.415   4.700   0.744  0.0864  0.5307 -0.0824
 1129TIP3    H125022   6.331   4.688   0.788 -0.7056 -0.4632 -1.7773
 1129TIP3    H225023   6.478   4.709   0.815 -1.4198  1.1164  1.2299
 1130TIP3   OH225024   6.542   3.424   2.696 -0.0731 -0.4110  0.2878
 1130TIP3    H125025   6.540   3.515   2.726 -1.2139 -0.2363 -0.2573
 1130TIP3    H225026   6.452   3.393   2.708 -0.5500 -0.4120 -2.6061
 1131TIP3   OH225027   3.005   5.598   0.449  0.1177  0.2773 -0.0255
 1131TIP3    H125028   3.031   5.572   0.537 -2.0326  0.0357  0.5970
 1131TIP3    H225029   3.032   5.524   0.394 -1.3028 -1.0312  0.9408
 1132TIP3   OH225030   4.971   1.394   7.722 -0.1070 -0.4813 -0.1846
 1132TIP3    H125031   4.998   1.415   7.632 -0.4667  0.2283 -0.1351
 1132TIP3    H225032   5.027   1.321   7.747  1.5243  0.7031 -0.2123
 1133TIP3   OH225033   3.596   4.434   2.409 -0.1433  0.3635 -0.4705
 1133TIP3    H125034   3.658   4.410   2.478  0.8062 -1.0551 -1.7480
 1133TIP3    H225035   3.580   4.527   2.422  0.8959  0.3691  0.9648
 1134TIP3   OH225036   2.826   3.128   7.929 -0.2785  0.1123 -0.3212
 1134TIP3    H125037   2.786   3.189   7.868 -0.8993  0.2621  0.2344
 1134TIP3    H225038   2.864   3.183   7.997  0.3812 -0.0570 -0.5443
 1135TIP3   OH225039   3.438   3.936   0.593 -0.0888  0.4543 -0.4251
 1135TIP3    H125040   3.531   3.918   0.584  0.0523  1.7641 -2.0887
 1135TIP3    H225041   3.395   3.854   0.568  0.5963  0.1654 -0.6818
 1136TIP3   OH225042   5.400   1.651   0.678 -0.6326 -0.8746 -0.0248
 1136TIP3    H125043   5.321   1.677   0.724  0.8979  0.9726  1.7573
 1136TIP3    H225044   5.471   1.669   0.740  1.3990  0.0511 -2.4352
 1137TIP3   OH225045   6.325   3.155   6.784  0.3265  0.1496  0.6748
 1137TIP3    H125046   6.382   3.191   6.716 -0.9936 -1.5246 -1.4420
 1137TIP3    H225047   6.278   3.084   6.741 -1.5434 -0.1656  3.0194
 1138TIP3   OH225048   0.480   4.456   7.341  0.1788  0.0907  0.3573
 1138TIP3    H125049   0.512   4.517   7.274  0.1882  0.4258  0.6680
 1138TIP3    H225050   0.552   4.449   7.404  0.2533 -0.3899  0.2287
 1139TIP3   OH225051   3.903   3.620   1.823  0.5364  0.9654  0.0985
 1139TIP3    H125052   3.821   3.595   1.780 -0.6723  0.3111  2.6157
 1139TIP3    H225053   3.915   3.712   1.800 -2.2680  1.7966  1.5997
 1140TIP3   OH225054   1.092   1.781   0.231 -0.6506 -0.3140  0.4270
 1140TIP3    H125055   1.082   1.771   0.136 -1.2155 -0.5920  0.5136
 1140TIP3    H225056   1.007   1.816   0.260  0.0978  1.4975  0.5927
 1141TIP3   OH225057   4.996   2.841   1.265 -0.4952 -0.1877 -0.3215
 1141TIP3    H125058   4.921   2.864   1.320 -1.0168  1.7089 -1.7127
 1141TIP3    H225059   4.957   2.810   1.183  0.2413 -0.3372 -0.6217
 1142TIP3   OH225060   5.218   5.914   7.558  0.1865  0.0087 -0.2774
 1142TIP3    H125061   5.172   5.876   7.633 -0.4534  0.2620 -0.5323
 1142TIP3    H225062   5.153   5.969   7.516 -0.2639 -2.0216 -2.4655
 1143TIP3   OH225063   4.144   1.129   7.846 -0.3463 -0.6699 -0.0320
 1143TIP3    H125064   4.216   1.192   7.845 -1.5353  0.8001  0.9348
 1143TIP3    H225065   4.106   1.134   7.759 -1.0021  0.7105  0.3019
 1144TIP3   OH225066   2.022   3.909   1.058  0.3332 -0.2488 -0.2058
 1144TIP3    H125067   2.031   3.903   1.153  1.8442 -1.0919 -0.3777
 1144TIP3    H225068   1.933   3.943   1.045 -0.7307 -2.1502  1.4400
 1145TIP3   OH225069   5.768   3.623   8.268  0.2108 -0.2637 -0.0662
 1145TIP3    H125070   5.742   3.618   8.360 -0.4480 -0.1366 -0.2437
 1145TIP3    H225071   5.835   3.555   8.258 -1.4018 -1.9492 -0.0455
 1146TIP3   OH225072   5.412   5.103   8.467  0.1363 -0.3739 -0.3426
 1146TIP3    H125073   5.435   5.085   8.558 -1.1130 -0.3331 -0.0027
 1146TIP3    H225074   5.471   5.174   8.441 -0.1218  0.2555  0.7363
 1147TIP3   OH225075   6.377   5.722   0.441  0.6508  0.1072  0.1865
 1147TIP3    H125076   6.344   5.658   0.378  0.7529 -0.1984  0.4410
 1147TIP3    H225077   6.375   5.805   0.394  1.2619 -0.2023 -0.4081
 1148TIP3   OH225078   0.520   1.646   2.198  0.0537  0.0345 -0.3048
 1148TIP3    H125079   0.441   1.598   2.223  1.0175 -1.1491  0.6080
 1148TIP3    H225080   0.540   1.699   2.275  0.8494 -0.6330 -0.0471
 1149TIP3   OH225081   0.661   3.114   1.904 -0.9939  0.0185 -0.1518
 1149TIP3    H125082   0.663   3.175   1.978 -2.3720  3.1352 -2.4528
 1149TIP3    H225083   0.749   3.119   1.867 -0.8663 -0.0497  0.1361
 1150TIP3   OH225084   3.957   6.585   7.642  0.1846 -0.1542 -0.0377
 1150TIP3    H125085   3.984   6.566   7.732  0.7618  0.1535 -0.1465
 1150TIP3    H225086   3.971   6.503   7.595  0.9999  0.0171 -0.1081
 1151TIP3   OH225087   4.769   6.032   0.612 -0.0596  0.1201  0.0117
 1151TIP3    H125088   4.692   6.087   0.597 -0.3206 -0.2704 -0.0856
 1151TIP3    H225089   4.744   5.973   0.683 -0.2036 -0.6704 -0.6797
 1152TIP3   OH225090   5.896   2.600   8.023 -0.0568 -0.3143 -0.6462
 1152TIP3    H125091   5.920   2.693   8.023 -1.6373  0.1253 -0.0564
 1152TIP3    H225092   5.818   2.596   7.969 -0.2651 -1.2321 -0.2850
 1153TIP3   OH225093   4.334   3.648   2.005 -0.1064 -0.3107 -0.6138
 1153TIP3    H125094   4.361   3.732   2.043 -1.0171 -0.6210  0.7784
 1153TIP3    H225095   4.239   3.645   2.020 -0.2238 -1.1740 -1.4953
 1154TIP3   OH225096   6.204   1.852   1.731  0.4083  0.3430  0.5230
 1154TIP3    H125097   6.248   1.829   1.649 -0.8406 -1.7889  0.3760
 1154TIP3    H225098   6.250   1.801   1.798 -0.1712  0.1068  0.7491
 1155TIP3   OH225099   0.214   0.240   1.925  0.2113 -0.1259 -0.4563
 1155TIP3    H125100   0.138   0.188   1.900  0.4002 -0.2597 -0.7689
 1155TIP3    H225101   0.186   0.331   1.913  0.5913 -0.1926 -2.1116
 1156TIP3   OH225102   5.655   3.185   6.467  0.3775 -0.2342  0.0315
 1156TIP3    H125103   5.563   3.161   6.461  0.7927 -1.8938 -0.1859
 1156TIP3    H225104   5.667   3.214   6.557 -0.2478 -0.4711  0.1945
 1157TIP3   OH225105   1.354   6.201   1.279 -0.2432  0.4801 -0.2714
 1157TIP3    H125106   1.381   6.188   1.370 -0.6876  0.0650 -0.1973
 1157TIP3    H225107   1.291   6.131   1.262  1.5419 -0.8983 -1.6035
 1158TIP3   OH225108   1.330   5.297   8.330 -0.2276 -0.5770 -0.4314
 1158TIP3    H125109   1.298   5.261   8.247 -0.5915 -0.5891 -0.2896
 1158TIP3    H225110   1.425   5.295   8.322 -0.2513 -1.0929 -0.6313
 1159TIP3   OH225111   0.051   3.596   2.434  0.0487  0.0917  0.5311
 1159TIP3    H125112   0.018   3.516   2.475  0.4226 -0.0437  0.5775
 1159TIP3    H225113  -0.002   3.606   2.355  0.0541 -0.2527  0.4800
 1160TIP3   OH225114   0.948   4.619   1.962  0.8223  0.0192  0.2162
 1160TIP3    H125115   0.892   4.570   1.902  0.2413 -0.2205  0.9377
 1160TIP3    H225116   0.909   4.605   2.048  1.3254  0.7987  0.5859
 1161TIP3   OH225117   5.732   0.036   8.348  0.0416 -0.7837 -0.2969
 1161TIP3    H125118   5.731  -0.018   8.427  2.2671  0.6506  0.7966
 1161TIP3    H225119   5.730  -0.028   8.276  0.1854 -2.2242  0.9258
 1162TIP3   OH225120   0.321   3.671   2.568  0.0907  0.3024 -0.2290
 1162TIP3    H125121   0.311   3.605   2.637  0.6235  0.5524  0.0958
 1162TIP3    H225122   0.258   3.646   2.501  0.9144 -1.0701 -0.5313
 1163TIP3   OH225123   1.776   6.828   7.503  0.0685  0.5293  0.7954
 1163TIP3    H125124   1.830   6.753   7.528  0.8027  1.4593  2.1350
 1163TIP3    H225125   1.837   6.902   7.502 -0.6970  1.1735 -0.2007
 1164TIP3   OH225126   2.684   0.241   7.052 -0.2380 -0.0169 -0.2262
 1164TIP3    H125127   2.621   0.213   6.985 -2.6622  2.7763  0.6398
 1164TIP3    H225128   2.634   0.238   7.134  1.3106  0.7092  0.7848
 1165TIP3   OH225129   2.051   6.828   1.056 -0.3588 -0.5636 -0.3762
 1165TIP3    H125130   1.973   6.829   1.000 -1.3641 -0.4352  0.9631
 1165TIP3    H225131   2.101   6.752   1.026 -0.3101  0.1378 -2.1424
 1166TIP3   OH225132   6.352   3.726   7.691  0.0482 -0.1850 -0.4004
 1166TIP3    H125133   6.405   3.804   7.674 -2.0592  1.1901 -1.0890
 1166TIP3    H225134   6.378   3.664   7.622  0.4515  0.5964 -0.9677
 1167TIP3   OH225135   5.108   5.438   8.570  0.0496 -0.2049 -0.2222
 1167TIP3    H125136   5.113   5.450   8.665 -1.1698  1.3756 -0.3126
 1167TIP3    H225137   5.145   5.518   8.534 -0.2844 -0.4161 -1.0649
 1168TIP3   OH225138   3.769   3.923   6.625  0.4916 -0.1605 -0.5535
 1168TIP3    H125139   3.780   3.831   6.603  0.1015 -0.5476  0.8022
 1168TIP3    H225140   3.684   3.947   6.588  1.8998  0.5644 -3.6655
 1169TIP3   OH225141   2.394   3.455   0.896 -0.2305 -0.3069 -0.4590
 1169TIP3    H125142   2.425   3.366   0.879  0.0900 -0.0956 -1.0113
 1169TIP3    H225143   2.300   3.446   0.907 -0.2076 -0.7102 -0.5649
 1170TIP3   OH225144   0.756   4.400   1.673 -0.0337 -0.1918 -0.0291
 1170TIP3    H125145   0.689   4.461   1.642  0.2765 -0.1522 -0.6203
 1170TIP3    H225146   0.748   4.324   1.614  1.1393  0.2393 -0.7671
 1171TIP3   OH225147   4.566   0.568   0.891  0.2952 -0.2834  0.2458
 1171TIP3    H125148   4.613   0.636   0.842  0.4635 -0.1998  0.5224
 1171TIP3    H225149   4.527   0.512   0.823  1.8533 -1.0983 -0.0287
 1172TIP3   OH225150   4.663   4.004   0.714 -0.3438 -0.3445  0.1851
 1172TIP3    H125151   4.689   4.095   0.722 -0.6567 -0.3217  1.0297
 1172TIP3    H225152   4.586   3.995   0.770 -1.8634 -0.5484 -1.8390
 1173TIP3   OH225153   1.018   4.634   8.135 -0.0043 -0.1133 -0.5265
 1173TIP3    H125154   1.046   4.544   8.123 -0.1201 -0.2241  0.0013
 1173TIP3    H225155   1.024   4.649   8.229  0.0165  0.4310 -0.6091
 1174TIP3   OH225156   3.913   1.026   8.232 -0.4232  0.4210  0.5804
 1174TIP3    H125157   3.867   1.102   8.269  0.2711  0.1491  2.0457
 1174TIP3    H225158   3.857   0.952   8.252 -0.9301  0.4717 -0.5504
 1175TIP3   OH225159   4.695   5.886   0.059 -0.4155 -0.2177  0.3619
 1175TIP3    H125160   4.771   5.837   0.028 -0.9513  1.0716 -3.5959
 1175TIP3    H225161   4.715   5.907   0.150  3.5781 -0.6532 -0.2335
 1176TIP3   OH225162   1.553   4.623   6.841 -0.8114 -0.1234  0.1950
 1176TIP3    H125163   1.481   4.634   6.903  0.2721  1.3162  1.2971
 1176TIP3    H225164   1.529   4.677   6.766 -0.7437  0.6284  0.7046
 1177TIP3   OH225165   1.763   3.123   0.369  0.4303  0.2964  0.3767
 1177TIP3    H125166   1.817   3.192   0.408  1.1938 -1.4067  2.5189
 1177TIP3    H225167   1.675   3.140   0.401  0.5797  0.3761  0.7412
 1178TIP3   OH225168   2.841   6.598   6.772 -0.1536  0.1039  0.0803
 1178TIP3    H125169   2.903   6.624   6.705  0.1731  1.2304  0.7904
 1178TIP3    H225170   2.894   6.556   6.840 -0.4849 -1.0630 -0.3469
 1179TIP3   OH225171   0.709   5.303   1.464  0.0761 -0.2631  0.3421
 1179TIP3    H125172   0.650   5.293   1.538 -1.1796  0.6602 -0.5081
 1179TIP3    H225173   0.667   5.256   1.392  0.2153  0.6456 -0.3506
 1180TIP3   OH225174   6.377   1.246   0.350  0.7057 -0.1218  0.0924
 1180TIP3    H125175   6.386   1.337   0.322 -1.4016  0.3455  0.7154
 1180TIP3    H225176   6.389   1.248   0.444  2.2293 -0.7844 -0.0574
 1181TIP3   OH225177   2.873   5.008   2.056 -0.5754  0.1076 -0.3469
 1181TIP3    H125178   2.902   5.073   1.991  0.1623  1.0501  0.8767
 1181TIP3    H225179   2.931   5.022   2.131 -1.8364 -0.4832  0.7809
 1182TIP3   OH225180   5.331   1.204   1.086  0.2572  0.1112  0.6284
 1182TIP3    H125181   5.270   1.217   1.158 -2.1323  2.2248 -1.5658
 1182TIP3    H225182   5.346   1.292   1.051  1.3188 -0.8141 -1.4140
 1183TIP3   OH225183   4.502   3.310   0.512  0.0030  0.1490  0.0697
 1183TIP3    H125184   4.444   3.380   0.483 -2.9117 -1.2194  2.0434
 1183TIP3    H225185   4.444   3.234   0.521  1.9002 -1.1352  2.9078
 1184TIP3   OH225186   0.305   6.654   1.666 -0.2710 -0.2576 -0.7364
 1184TIP3    H125187   0.237   6.606   1.713 -1.2638  2.1377  0.4893
 1184TIP3    H225188   0.378   6.659   1.729 -0.6946  0.9165 -0.3043
 1185TIP3   OH225189   5.169   6.725   1.697  0.3153  0.2625  0.9145
 1185TIP3    H125190   5.219   6.754   1.620 -0.3683 -1.5070 -0.2813
 1185TIP3    H225191   5.234   6.683   1.753  0.6848  0.8456  0.9331
 1186TIP3   OH225192   0.638   0.012   2.521  0.2330  0.6926  0.1792
 1186TIP3    H125193   0.678   0.097   2.537 -1.3991  1.8090 -1.2198
 1186TIP3    H225194   0.687  -0.026   2.449 -1.0308  1.9886 -1.4333
 1187TIP3   OH225195   6.454   0.904   1.552 -0.5027 -0.2821  0.2975
 1187TIP3    H125196   6.418   0.934   1.469 -2.8491 -0.3378  1.2271
 1187TIP3    H225197   6.536   0.861   1.529 -0.4080  0.9248 -1.8068
 1188TIP3   OH225198   3.415   5.784   7.426  0.1102  0.3837 -0.0065
 1188TIP3    H125199   3.338   5.840   7.417  0.3193  1.1096  2.1127
 1188TIP3    H225200   3.425   5.772   7.520  1.9692 -0.5922 -0.2753
 1189TIP3   OH225201   5.353   3.608   0.927  0.2479  0.0338  0.9810
 1189TIP3    H125202   5.284   3.671   0.948  0.8634  0.7926  0.7704
 1189TIP3    H225203   5.432   3.644   0.967  1.1334  0.7008 -1.1710
 1190TIP3   OH225204   5.614   1.470   2.501 -0.1799 -0.1665  0.0395
 1190TIP3    H125205   5.558   1.396   2.525  0.2386 -0.3953  0.3136
 1190TIP3    H225206   5.596   1.537   2.568 -1.9493  0.7201 -1.2369
 1191TIP3   OH225207   1.132   4.625   7.130  0.1699  0.0348  0.4225
 1191TIP3    H125208   1.049   4.579   7.117  0.0181  0.0643  1.2652
 1191TIP3    H225209   1.111   4.693   7.194  1.1288 -0.7249  1.5698
 1192TIP3   OH225210   0.654   0.528   7.711  0.4573 -0.2987 -0.0066
 1192TIP3    H125211   0.638   0.436   7.694  0.2374 -0.1847 -0.4109
 1192TIP3    H225212   0.574   0.573   7.684  0.4291 -0.0227  0.5058
 1193TIP3   OH225213   6.462   6.493   8.088  0.1097 -0.2778  0.1710
 1193TIP3    H125214   6.411   6.412   8.095 -0.7800  0.3726  2.0638
 1193TIP3    H225215   6.548   6.470   8.123  0.5409 -0.9012 -1.2483
 1194TIP3   OH225216   2.523   2.274   6.073 -1.0158 -0.1689  0.1890
 1194TIP3    H125217   2.488   2.239   5.991 -2.8943 -0.3625  1.0213
 1194TIP3    H225218   2.612   2.240   6.078 -1.2979 -1.1755 -1.1624
 1195TIP3   OH225219   3.001   1.914   8.592 -0.1625 -0.0247  0.3877
 1195TIP3    H125220   2.935   1.974   8.628 -1.6823 -1.5121  0.2178
 1195TIP3    H225221   3.036   1.959   8.516  0.8162  1.8311  1.8517
 1196TIP3   OH225222   2.731   4.224   7.610  0.3632  0.2148 -0.9557
 1196TIP3    H125223   2.641   4.250   7.626 -0.3449 -1.5916 -1.7640
 1196TIP3    H225224   2.783   4.291   7.654 -1.3474  1.3885 -0.6143
 1197TIP3   OH225225   5.377   2.289   7.351  0.3224  0.0859 -0.8032
 1197TIP3    H125226   5.344   2.219   7.295  0.0744 -2.1376  1.8679
 1197TIP3    H225227   5.300   2.323   7.395  0.6448  0.9222 -0.8614
 1198TIP3   OH225228   0.484   2.918   1.113  0.0951 -0.0331  0.3261
 1198TIP3    H125229   0.522   2.911   1.026 -0.0245  0.1862  0.2559
 1198TIP3    H225230   0.515   2.840   1.160 -1.6110 -1.3526 -0.6082
 1199TIP3   OH225231   1.069   5.313   8.017 -0.2149 -0.7446  0.2809
 1199TIP3    H125232   0.984   5.306   7.972 -0.2749  0.4259  0.1850
 1199TIP3    H225233   1.066   5.398   8.061  1.0844 -0.4993 -0.0688
 1200TIP3   OH225234   1.361   0.371   7.353  0.1218  0.0585 -0.0586
 1200TIP3    H125235   1.436   0.317   7.331  1.0426  0.9680  0.7766
 1200TIP3    H225236   1.386   0.459   7.325 -0.3551  0.4931  0.8439
 1201TIP3   OH225237   3.180   1.737   7.159 -0.4880  0.5115  0.6926
 1201TIP3    H125238   3.195   1.688   7.240 -1.2084 -2.0870 -0.6405
 1201TIP3    H225239   3.250   1.708   7.100 -2.6297 -1.3805 -1.1186
 1202TIP3   OH225240   0.854   5.925   0.685 -0.7484  0.4835  0.0851
 1202TIP3    H125241   0.911   5.974   0.744  2.4728  1.0922 -3.1512
 1202TIP3    H225242   0.818   5.992   0.626  0.3186 -0.4980 -1.7750
 1203TIP3   OH225243   3.142   0.533   1.962  0.0259 -0.3722  0.2156
 1203TIP3    H125244   3.205   0.605   1.964 -1.0013  0.5713 -0.4398
 1203TIP3    H225245   3.188   0.461   2.004  2.7599 -0.7164 -2.8867
 1204TIP3   OH225246   5.495   4.797   0.802  0.3765 -0.5339 -0.3102
 1204TIP3    H125247   5.543   4.879   0.792 -0.0060  0.4544  3.8987
 1204TIP3    H225248   5.437   4.794   0.726  2.5081  1.4696 -2.1945
 1205TIP3   OH225249   6.848   5.687   0.009  0.0689  0.4029  0.1743
 1205TIP3    H125250   6.906   5.627   0.055  1.4853  0.8536 -0.9724
 1205TIP3    H225251   6.854   5.661  -0.083 -2.9887 -0.7290  0.1587
 1206TIP3   OH225252   0.385   4.028   0.869 -1.0553 -0.1595  0.4406
 1206TIP3    H125253   0.412   4.118   0.886 -1.6865 -0.1238  1.3245
 1206TIP3    H225254   0.456   3.991   0.817  0.0212  0.3407  1.4994
 1207TIP3   OH225255   6.767   3.966   0.390  0.1908  0.0332  0.1889
 1207TIP3    H125256   6.840   3.952   0.330  0.0227  0.6252 -0.1613
 1207TIP3    H225257   6.808   3.999   0.471  0.2066  2.0144 -0.5644
 1208TIP3   OH225258   1.545   3.863   1.522 -0.5527 -0.8760  0.3111
 1208TIP3    H125259   1.512   3.932   1.580  1.2017  0.0318  0.2817
 1208TIP3    H225260   1.486   3.789   1.537 -1.2064 -0.0701  1.9146
 1209TIP3   OH225261   2.911   0.700   8.596 -0.0383  1.0485  0.4112
 1209TIP3    H125262   2.962   0.705   8.676 -0.0282  1.8867  0.3578
 1209TIP3    H225263   2.823   0.673   8.625  0.2063  0.4262  0.5910
 1210TIP3   OH225264   0.062   4.861   0.147 -0.4923 -0.2869 -0.1799
 1210TIP3    H125265   0.109   4.779   0.131 -0.1746 -0.0376 -0.5223
 1210TIP3    H225266  -0.013   4.858   0.088  0.0913  0.1408 -0.9592
 1211TIP3   OH225267   2.084   0.793   1.456  0.1217 -0.0411 -0.1468
 1211TIP3    H125268   1.997   0.761   1.435 -0.6566  1.8673 -0.0316
 1211TIP3    H225269   2.077   0.827   1.545  0.7114  0.9917 -0.4730
 1212TIP3   OH225270   4.280   0.772   7.039  0.2173  0.0045  0.2837
 1212TIP3    H125271   4.244   0.768   6.950  0.6247  0.1043  0.1095
 1212TIP3    H225272   4.270   0.863   7.065  0.1207 -0.0193  0.3284
 1213TIP3   OH225273   3.314   3.313   2.280  0.3350 -0.6762 -0.4194
 1213TIP3    H125274   3.257   3.248   2.237  0.4160 -1.5985  0.8239
 1213TIP3    H225275   3.255   3.361   2.338  0.6905 -1.1680  0.3549
 1214TIP3   OH225276   5.055   1.422   1.466  0.2410 -0.2505  0.3374
 1214TIP3    H125277   5.126   1.396   1.408 -0.2194  0.9823 -0.8461
 1214TIP3    H225278   5.089   1.499   1.511  0.4504 -0.9737  1.4360
 1215TIP3   OH225279   6.762   1.463   6.598  0.6494 -0.2419 -0.1606
 1215TIP3    H125280   6.717   1.533   6.552 -0.8215 -0.4228  0.9101
 1215TIP3    H225281   6.732   1.471   6.689  0.9252 -1.8610  0.1099
 1216TIP3   OH225282   5.620   6.667   0.686  0.5431 -0.1575  0.3986
 1216TIP3    H125283   5.624   6.580   0.647 -0.9050 -0.2027  0.3002
 1216TIP3    H225284   5.551   6.660   0.753  2.0016  0.2933  2.0278
 1217TIP3   OH225285   0.985   4.066   1.510 -0.0473  0.3330  0.2189
 1217TIP3    H125286   1.077   4.054   1.531  0.0631 -0.7327 -0.7129
 1217TIP3    H225287   0.985   4.108   1.424 -0.3483 -1.8197 -0.9134
 1218TIP3   OH225288   6.840   0.844   8.379 -0.6476  0.1822  0.4216
 1218TIP3    H125289   6.857   0.754   8.406 -0.5832  0.0934  0.0948
 1218TIP3    H225290   6.909   0.896   8.422  1.6691 -0.3900 -2.2780
 1219TIP3   OH225291   3.596   0.316   7.619  0.2673  0.0561 -0.0993
 1219TIP3    H125292   3.531   0.246   7.621  0.3651 -0.0545 -0.7494
 1219TIP3    H225293   3.548   0.394   7.593  0.2173  0.1720  0.3309
 1220TIP3   OH225294   5.077   5.215   7.987  0.5335 -0.0017  0.2604
 1220TIP3    H125295   5.145   5.154   7.958  0.3014  0.1177 -0.5606
 1220TIP3    H225296   5.115   5.302   7.972 -0.1044  0.0793 -1.0038
 1221TIP3   OH225297   3.096   3.517   8.583  0.2764 -0.7316 -0.0718
 1221TIP3    H125298   3.098   3.607   8.614  0.4783  0.0561 -2.1690
 1221TIP3    H225299   3.025   3.476   8.632 -0.2420  0.7473  0.4771
 1222TIP3   OH225300   6.429   0.470   0.613 -0.4301 -0.2034  0.4594
 1222TIP3    H125301   6.510   0.509   0.581 -0.2803  1.3694  2.5232
 1222TIP3    H225302   6.366   0.543   0.615 -0.8177 -0.5310  2.2410
 1223TIP3   OH225303   0.731   2.087   0.211  0.5053  0.2169  0.0934
 1223TIP3    H125304   0.684   2.093   0.128 -0.5710  0.0703  0.6762
 1223TIP3    H225305   0.758   2.177   0.230  0.4566  0.3029 -0.2470
 1224TIP3   OH225306   2.298   6.794   0.440 -0.1653 -0.1062  0.2642
 1224TIP3    H125307   2.324   6.880   0.407  1.2926 -0.1797  1.1239
 1224TIP3    H225308   2.379   6.756   0.474 -0.5029 -2.3814 -1.2798
 1225TIP3   OH225309   3.560   0.938   0.116 -0.2573 -0.4502  0.2225
 1225TIP3    H125310   3.598   0.941   0.028  0.3776  2.2684  0.4776
 1225TIP3    H225311   3.549   0.845   0.135  2.1975 -1.2351 -1.6244
 1226TIP3   OH225312   4.861   2.878   1.840  0.6503  0.6086 -0.1317
 1226TIP3    H125313   4.920   2.874   1.765  1.3238  0.7896  0.3828
 1226TIP3    H225314   4.796   2.944   1.817 -0.0722 -0.4459 -1.2129
 1227TIP3   OH225315   4.424   1.392   1.415  0.4296 -0.1278  0.4039
 1227TIP3    H125316   4.354   1.432   1.363 -0.2722 -0.3993  1.1215
 1227TIP3    H225317   4.462   1.464   1.465  0.2551 -0.0875  0.4772
 1228TIP3   OH225318   5.049   6.527   8.722 -0.5776 -0.1325 -0.4429
 1228TIP3    H125319   5.068   6.456   8.660  2.7235  1.8858 -2.0301
 1228TIP3    H225320   5.086   6.498   8.805 -0.1896 -0.7185 -0.8112
 1229TIP3   OH225321   2.254   4.638   7.463 -0.6290 -0.3368 -0.4293
 1229TIP3    H125322   2.160   4.655   7.459 -0.5758  0.4606  1.0004
 1229TIP3    H225323   2.271   4.617   7.555  0.4162 -1.6945 -0.8856
 1230TIP3   OH225324   5.512   6.831   7.879 -0.1373  0.5704 -0.0520
 1230TIP3    H125325   5.540   6.777   7.953 -0.4385  0.0741 -0.2966
 1230TIP3    H225326   5.545   6.786   7.801 -1.3022  0.1486 -0.3225
 1231TIP3   OH225327   2.841   0.330   2.078 -0.1693  0.5303  0.2989
 1231TIP3    H125328   2.785   0.254   2.095  0.4470  0.0342  0.1850
 1231TIP3    H225329   2.883   0.348   2.162  0.2686  0.2446  0.1516
 1232TIP3   OH225330   0.917   4.761   2.604  0.1660  0.5069 -0.0257
 1232TIP3    H125331   0.834   4.752   2.651 -1.4983  1.7256 -2.5333
 1232TIP3    H225332   0.944   4.670   2.587 -0.4703  0.0877  1.0749
 1233TIP3   OH225333   3.877   4.999   6.648 -0.0526  0.3346  0.1787
 1233TIP3    H125334   3.895   4.965   6.735 -0.1976  0.2763  0.1865
 1233TIP3    H225335   3.784   4.978   6.633 -0.0880  0.5473  0.1033
 1234TIP3   OH225336   5.057   2.099   2.536  0.3894 -0.0105 -0.0082
 1234TIP3    H125337   5.012   2.089   2.453 -0.1408  0.3842  0.2207
 1234TIP3    H225338   5.125   2.032   2.536  0.9784  0.5701 -1.1370
 1235TIP3   OH225339   3.393   0.682   0.874  0.1098  0.0499 -0.2104
 1235TIP3    H125340   3.383   0.723   0.960 -0.5387  0.2105 -0.3646
 1235TIP3    H225341   3.422   0.593   0.894  1.4169  0.5194  0.1290
 1236TIP3   OH225342   5.248   2.653   0.340  0.5660 -0.3378  0.4418
 1236TIP3    H125343   5.303   2.661   0.418  0.3613 -2.7525  0.9035
 1236TIP3    H225344   5.310   2.632   0.270  0.5284 -0.1065  0.3369
 1237TIP3   OH225345   0.654   6.406   8.404  0.2725 -0.2130 -0.1574
 1237TIP3    H125346   0.625   6.483   8.355  0.7169 -0.4800 -0.8641
 1237TIP3    H225347   0.693   6.441   8.484 -0.2955  0.2449 -0.0838
 1238TIP3   OH225348   5.039   1.338   1.078 -0.2902 -0.1148  0.4941
 1238TIP3    H125349   4.967   1.338   1.016  0.5356  2.6129 -0.6088
 1238TIP3    H225350   5.043   1.428   1.110  2.0960 -0.3727  1.1354
 1239TIP3   OH225351   1.658   2.893   1.999 -0.1141  0.2872  0.0114
 1239TIP3    H125352   1.688   2.802   1.995 -0.2413  0.1786  1.1986
 1239TIP3    H225353   1.721   2.941   1.945 -0.2466 -0.5507 -0.9141
 1240TIP3   OH225354   4.340   6.151   8.511 -0.0219  0.4112  0.9332
 1240TIP3    H125355   4.352   6.181   8.601  1.3927 -0.9798  1.2503
 1240TIP3    H225356   4.322   6.057   8.519 -3.0080  0.7648 -0.1033
 1241TIP3   OH225357   0.447   3.769   1.998  0.3838 -0.2377 -0.5422
 1241TIP3    H125358   0.404   3.694   1.956  0.9288  0.0347 -1.6237
 1241TIP3    H225359   0.533   3.773   1.957 -0.1739  1.9021 -1.6236
 1242TIP3   OH225360   0.278   4.379   1.242  0.5051  0.4585  0.0169
 1242TIP3    H125361   0.273   4.332   1.325 -0.6853 -0.3481 -0.4906
 1242TIP3    H225362   0.222   4.455   1.254 -0.1497  0.0207 -0.2448
 1243TIP3   OH225363   4.815   3.362   2.304 -0.0060  0.0291  0.8468
 1243TIP3    H125364   4.742   3.377   2.364 -0.6263  0.0316  0.1101
 1243TIP3    H225365   4.836   3.270   2.314 -0.3365 -0.0510  0.8238
 1244TIP3   OH225366   4.594   0.076   1.651 -0.6237 -0.1145  0.0539
 1244TIP3    H125367   4.684   0.079   1.617 -1.3292 -0.0679 -1.9204
 1244TIP3    H225368   4.594   0.141   1.722  0.5218  1.0062 -0.9160
 1245TIP3   OH225369   2.051   3.812   1.316 -0.1992  0.0581  0.1577
 1245TIP3    H125370   2.046   3.851   1.404 -2.0517 -1.8754  1.0180
 1245TIP3    H225371   2.071   3.720   1.332  0.9727 -0.0369 -1.5883
 1246TIP3   OH225372   5.337   2.470   7.103  0.3907 -0.0262 -0.7626
 1246TIP3    H125373   5.383   2.426   7.176  0.1260  0.1434 -0.4914
 1246TIP3    H225374   5.246   2.471   7.131  0.5546  1.8313 -0.1811
 1247TIP3   OH225375   1.171   1.158   1.243  0.4220  0.0735 -0.1295
 1247TIP3    H125376   1.089   1.208   1.248  0.4566  0.2384 -1.1351
 1247TIP3    H225377   1.233   1.209   1.296 -0.3964 -0.6446  1.6004
 1248TIP3   OH225378   5.386   4.493   7.276  0.5084  0.2179  0.1513
 1248TIP3    H125379   5.406   4.585   7.290 -1.6121  0.4909  1.9628
 1248TIP3    H225380   5.399   4.452   7.362 -0.2762 -0.8049 -0.1966
 1249TIP3   OH225381   6.144   4.307   8.742  0.5907  0.0565 -0.3376
 1249TIP3    H125382   6.171   4.393   8.709 -1.2700  1.0813  0.6025
 1249TIP3    H225383   6.080   4.277   8.677  0.5855 -0.2105 -0.2069
 1250TIP3   OH225384   4.952   4.937   7.494 -0.5073 -0.4744  0.3064
 1250TIP3    H125385   4.944   4.842   7.499  3.4192 -1.0479 -0.9200
 1250TIP3    H225386   4.951   4.956   7.401  1.5107  0.2312  0.3726
 1251TIP3   OH225387   2.096   1.164   7.596 -0.5341 -0.5613  0.0259
 1251TIP3    H125388   2.045   1.126   7.525 -0.5930  0.0302 -0.2509
 1251TIP3    H225389   2.039   1.157   7.673 -0.9482 -0.1036 -0.2361
 1252TIP3   OH225390   2.202   3.409   6.462  0.4646  0.5629 -0.2147
 1252TIP3    H125391   2.223   3.462   6.539  2.1950  1.9878 -1.5916
 1252TIP3    H225392   2.275   3.423   6.402 -0.7303 -0.6356 -2.0683
 1253TIP3   OH225393   5.135   6.809   8.362 -0.7180  0.0255 -0.5521
 1253TIP3    H125394   5.087   6.772   8.288  1.1539  1.2597 -2.5581
 1253TIP3    H225395   5.118   6.903   8.357  1.1796  0.4083 -0.8761
 1254TIP3   OH225396   5.050   2.549   1.871  0.3319 -0.2390  0.3017
 1254TIP3    H125397   5.067   2.588   1.957 -0.6162  0.9979 -0.0347
 1254TIP3    H225398   4.974   2.597   1.838  0.3175 -1.0964 -0.9852
 1255TIP3   OH225399   2.074   5.825   0.189 -0.5934 -0.2499 -0.0526
 1255TIP3    H125400   2.072   5.760   0.119 -0.7313  0.6803 -0.9382
 1255TIP3    H225401   2.009   5.891   0.163  0.6952  1.0884 -0.0227
 1256TIP3   OH225402   4.654   6.605   7.520 -0.7273  0.0773 -0.6510
 1256TIP3    H125403   4.703   6.677   7.561 -2.6112  1.3644 -0.5099
 1256TIP3    H225404   4.688   6.601   7.431 -1.2140  1.8246 -0.9611
 1257TIP3   OH225405   6.352   0.373   0.269  0.1106 -0.4188  0.5646
 1257TIP3    H125406   6.273   0.411   0.231 -0.6072  0.1396  2.4994
 1257TIP3    H225407   6.323   0.337   0.353  2.2047  1.3579  2.1591
 1258TIP3   OH225408   3.014   0.857   7.737 -0.4284 -0.6064 -0.0116
 1258TIP3    H125409   2.999   0.798   7.811  1.1892 -1.1741 -0.0960
 1258TIP3    H225410   2.928   0.893   7.718 -0.7802  0.2678  2.7385
 1259TIP3   OH225411   4.354   3.076   0.601 -0.2808  0.9345 -0.4613
 1259TIP3    H125412   4.378   3.013   0.534 -0.6925  1.1972 -0.8578
 1259TIP3    H225413   4.259   3.083   0.595 -0.4431  0.1950  0.8318
 1260TIP3   OH225414   2.242   6.030   8.369 -0.0668  0.1051  0.0443
 1260TIP3    H125415   2.226   5.938   8.390 -0.6161  0.7749  2.8911
 1260TIP3    H225416   2.310   6.057   8.431  0.3737  1.5495 -1.0122
 1261TIP3   OH225417   2.189   0.017   0.171 -0.2307 -0.3020 -0.4422
 1261TIP3    H125418   2.094   0.010   0.174 -0.2214 -0.7802 -1.0531
 1261TIP3    H225419   2.218  -0.009   0.259 -0.7293  1.3168  0.2446
 1262TIP3   OH225420   6.417   6.273   1.471  0.0607 -0.0282  0.0708
 1262TIP3    H125421   6.504   6.268   1.431  0.9416 -1.8625  2.0195
 1262TIP3    H225422   6.366   6.207   1.425  0.3944 -0.5490  0.4406
 1263TIP3   OH225423   3.770   3.410   7.398  0.5494 -0.0213 -0.4977
 1263TIP3    H125424   3.724   3.451   7.471  0.9253 -0.3403 -0.0765
 1263TIP3    H225425   3.754   3.468   7.324 -2.0920 -1.0535 -0.8395
 1264TIP3   OH225426   0.754   2.444   1.026 -0.3610 -0.3685 -0.0916
 1264TIP3    H125427   0.766   2.539   1.028  0.8968 -0.4947 -0.7404
 1264TIP3    H225428   0.788   2.417   0.941  0.8483 -1.5909  0.7353
 1265TIP3   OH225429   5.641   4.613   8.688 -0.1169  0.0978 -0.1218
 1265TIP3    H125430   5.640   4.592   8.782 -1.8055 -3.3055 -0.7440
 1265TIP3    H225431   5.733   4.605   8.663  0.0367 -1.5635  0.8140
 1266TIP3   OH225432   3.120   3.068   8.080 -0.1992 -0.1791 -0.2736
 1266TIP3    H125433   3.088   3.159   8.081 -0.5531 -0.2920 -0.7956
 1266TIP3    H225434   3.119   3.044   7.987  2.0337  0.0240 -0.4069
 1267TIP3   OH225435   1.571   0.286   1.371 -0.0338  0.2100  0.7183
 1267TIP3    H125436   1.598   0.250   1.455  0.9401 -0.6096  0.0805
 1267TIP3    H225437   1.475   0.288   1.375 -0.0367 -0.7086  1.4831
 1268TIP3   OH225438   2.038   0.660   7.078 -0.6120 -0.2422  0.5825
 1268TIP3    H125439   1.962   0.690   7.128 -2.3424 -1.7103 -0.9903
 1268TIP3    H225440   2.024   0.566   7.067 -0.3520 -0.0357 -2.5159
 1269TIP3   OH225441   6.503   1.499   6.371  0.5796 -0.5192  0.6407
 1269TIP3    H125442   6.463   1.587   6.372 -0.1035 -0.7942 -0.3440
 1269TIP3    H225443   6.449   1.448   6.431 -0.5503 -0.8657 -0.6176
 1270TIP3   OH225444   5.713   4.118   7.110  0.7236 -0.2765  0.1115
 1270TIP3    H125445   5.743   4.110   7.019  3.7811  1.1402  0.8884
 1270TIP3    H225446   5.661   4.199   7.110  3.0221  1.3010  0.0600
 1271TIP3   OH225447   5.547   1.965   0.478 -0.4493 -0.6046  0.4222
 1271TIP3    H125448   5.478   1.991   0.539 -0.2139 -1.7650  1.2241
 1271TIP3    H225449   5.515   1.883   0.439  0.3508 -1.0330  0.6287
 1272TIP3   OH225450   3.530   5.665   8.276  0.6386  0.1416 -0.3725
 1272TIP3    H125451   3.516   5.673   8.182 -1.1206  0.9091 -0.0844
 1272TIP3    H225452   3.470   5.596   8.304  0.8700  0.1837  0.2463
 1273TIP3   OH225453   2.723   2.026   0.336  0.6165 -0.0691 -0.6927
 1273TIP3    H125454   2.806   1.982   0.351  1.5169  1.2994 -1.4419
 1273TIP3    H225455   2.712   2.084   0.412 -0.0185 -0.7528 -0.2493
 1274TIP3   OH225456   3.676   6.265   1.589 -0.1210 -0.7034 -0.1629
 1274TIP3    H125457   3.741   6.319   1.544  0.4787 -1.3058 -0.0304
 1274TIP3    H225458   3.612   6.328   1.624 -0.1195 -0.1687 -1.0843
 1275TIP3   OH225459   2.749   0.680   0.333  0.0040 -0.0861 -0.2321
 1275TIP3    H125460   2.665   0.673   0.378 -0.0852  0.9642 -0.2051
 1275TIP3    H225461   2.767   0.774   0.330  1.1106 -0.2841 -0.3655
 1276TIP3   OH225462   1.500   1.941   7.758  0.5339  0.0831 -0.2989
 1276TIP3    H125463   1.486   1.912   7.668  0.5086 -0.3013 -0.1752
 1276TIP3    H225464   1.497   1.860   7.809 -1.9349  0.5270  0.3718
 1277TIP3   OH225465   2.939   0.160   7.681  0.0784  0.4554 -0.1267
 1277TIP3    H125466   3.008   0.094   7.672  0.4513  0.6883  0.8956
 1277TIP3    H225467   2.957   0.224   7.612  0.9743  0.5904  0.2234
 1278TIP3   OH225468   0.905   1.517   1.546 -0.1454  0.3021 -0.0105
 1278TIP3    H125469   0.947   1.435   1.519 -1.2723 -0.6932  1.1602
 1278TIP3    H225470   0.812   1.503   1.526 -0.2833  1.4823 -0.2227
 1279TIP3   OH225471   3.741   4.572   2.184  0.2356 -0.4151 -0.5083
 1279TIP3    H125472   3.789   4.491   2.168 -2.3559 -1.8965 -1.2695
 1279TIP3    H225473   3.652   4.544   2.207 -0.1064  2.1374  1.9051
 1280TIP3   OH225474   0.670   0.218   7.126  0.3406 -0.6828 -0.4334
 1280TIP3    H125475   0.658   0.124   7.115 -0.7214 -0.6140 -0.0421
 1280TIP3    H225476   0.647   0.255   7.041 -2.0088 -0.5967  0.1618
 1281TIP3   OH225477   2.731   3.265   0.729  0.4942 -0.2094  0.0864
 1281TIP3    H125478   2.678   3.323   0.675  0.8174  1.5097  1.5162
 1281TIP3    H225479   2.821   3.295   0.715  0.6311 -0.0906  1.1055
 1282TIP3   OH225480   2.389   5.190   0.282  0.3497 -0.2259 -0.0513
 1282TIP3    H125481   2.314   5.218   0.230 -0.4108  0.4828  1.3641
 1282TIP3    H225482   2.461   5.247   0.253  0.1010 -0.2628 -0.7528
 1283TIP3   OH225483   4.691   4.622   8.421 -0.2510 -0.1506  0.2765
 1283TIP3    H125484   4.780   4.595   8.398  0.4771  2.3202 -0.2040
 1283TIP3    H225485   4.661   4.670   8.343 -1.3353  0.5003  1.0758
 1284TIP3   OH225486   1.514   6.776   0.946  0.2274 -0.3776  0.2200
 1284TIP3    H125487   1.498   6.683   0.931  0.1618 -0.2253 -0.7452
 1284TIP3    H225488   1.530   6.783   1.040  0.4723 -1.3976  0.2670
 1285TIP3   OH225489   1.658   5.880   8.645  0.1544 -0.1269  0.1160
 1285TIP3    H125490   1.722   5.863   8.576 -0.5384  2.6389 -1.3499
 1285TIP3    H225491   1.573   5.865   8.603 -0.2840  1.7411  0.2372
 1286TIP3   OH225492   2.956   3.132   6.896 -0.6287  0.2227 -0.5231
 1286TIP3    H125493   2.980   3.207   6.842  0.6139  1.5122  1.6743
 1286TIP3    H225494   2.891   3.167   6.957 -1.2459 -0.9241 -0.5059
 1287TIP3   OH225495   1.457   1.400   1.308  0.0706  0.2526 -0.2479
 1287TIP3    H125496   1.499   1.321   1.343  1.7443  1.1658 -0.0978
 1287TIP3    H225497   1.403   1.433   1.380 -1.0829 -1.0262 -0.4927
 1288TIP3   OH225498   4.439   0.513   7.291  0.3624 -0.3501  0.0259
 1288TIP3    H125499   4.469   0.603   7.281 -0.0943 -0.1883  0.0979
 1288TIP3    H225500   4.457   0.492   7.383 -0.2426 -0.0639  0.2169
 1289TIP3   OH225501   6.710   3.600   7.356 -0.6679  0.2344  0.2288
 1289TIP3    H125502   6.777   3.569   7.416 -0.1202  0.5827 -0.1956
 1289TIP3    H225503   6.746   3.583   7.269 -1.0186  0.6609 -0.0046
 1290TIP3   OH225504   3.882   4.485   3.051 -0.5221 -0.3154 -0.7883
 1290TIP3    H125505   3.952   4.426   3.079 -0.1730 -0.1306 -1.2612
 1290TIP3    H225506   3.844   4.442   2.975  0.7189  0.7483 -2.0852
 1291TIP3   OH225507   3.967   3.783   8.215  0.3014  0.6700  0.0893
 1291TIP3    H125508   3.950   3.750   8.304  2.4726  0.4569  0.4944
 1291TIP3    H225509   4.037   3.847   8.227  0.5869  0.6797 -1.4827
 1292TIP3   OH225510   5.501   0.783   1.581 -0.2349 -0.2962  0.2476
 1292TIP3    H125511   5.406   0.774   1.577 -0.1135 -2.2892  0.8178
 1292TIP3    H225512   5.518   0.873   1.553 -2.3238  0.3392  0.8743
 1293TIP3   OH225513   2.763   3.506   8.374 -0.3797  0.4576 -0.2117
 1293TIP3    H125514   2.718   3.466   8.449  1.1520  0.6344  0.8521
 1293TIP3    H225515   2.841   3.452   8.361 -1.0950 -0.1615 -2.3528
 1294TIP3   OH225516   4.918   2.389   0.373 -0.0456 -0.1602  0.2119
 1294TIP3    H125517   4.941   2.404   0.465 -0.8112 -0.6740  0.4953
 1294TIP3    H225518   4.850   2.322   0.376 -0.8603  0.5961 -0.6571
 1295TIP3   OH225519   0.448   3.571   1.428 -0.0225 -0.0127 -0.2018
 1295TIP3    H125520   0.430   3.499   1.367  0.5431 -0.9966  0.7603
 1295TIP3    H225521   0.502   3.632   1.378  0.3037 -0.7342 -0.7418
 1296TIP3   OH225522   4.957   4.292   2.509  0.0941 -0.0936  0.3309
 1296TIP3    H125523   4.946   4.207   2.467  0.6193  1.2171 -2.7515
 1296TIP3    H225524   4.872   4.335   2.497 -0.0103  0.0316  1.4266
 1297TIP3   OH225525   0.094   6.711   0.967  0.0753 -0.8064  0.4259
 1297TIP3    H125526   0.031   6.776   0.998  0.3758  0.6238 -1.7581
 1297TIP3    H225527   0.044   6.630   0.959 -1.1902  0.0109 -0.1005
 1298TIP3   OH225528   2.208   0.785   8.251 -0.3487  0.3908  0.2132
 1298TIP3    H125529   2.302   0.801   8.260 -0.3664  0.0713  1.1404
 1298TIP3    H225530   2.173   0.865   8.213  0.2780  0.5757  0.0186
 1299TIP3   OH225531   0.018   4.801   7.247 -0.1569 -0.1307  0.4648
 1299TIP3    H125532   0.028   4.727   7.187 -0.5694  1.8316 -2.1772
 1299TIP3    H225533   0.101   4.804   7.295 -0.2404 -2.4331  0.8603
 1300TIP3   OH225534   0.263   5.602   1.109  0.0862 -0.0142 -0.4706
 1300TIP3    H125535   0.257   5.697   1.119 -2.0369  0.0206 -1.4850
 1300TIP3    H225536   0.334   5.589   1.046  0.0440  0.9394 -0.7328
 1301TIP3   OH225537   4.488   3.402   0.001  0.5267 -0.6076  0.4616
 1301TIP3    H125538   4.536   3.472  -0.043  0.0327 -1.5233 -1.6163
 1301TIP3    H225539   4.462   3.440   0.085 -1.4113  2.4403 -1.3219
 1302TIP3   OH225540   2.492   6.254   7.334  0.1540  0.1714  0.1867
 1302TIP3    H125541   2.521   6.255   7.425 -2.2255 -2.3542  1.1104
 1302TIP3    H225542   2.542   6.184   7.292  0.4130  0.5513 -0.1497
 1303TIP3   OH225543   1.933   4.922   0.765  0.0210  0.3351  0.2140
 1303TIP3    H125544   1.923   4.949   0.856  0.4919 -0.5522  0.5451
 1303TIP3    H225545   2.015   4.872   0.764 -0.6889 -0.8692 -0.3966
 1304TIP3   OH225546   2.375   6.458   7.917  0.1281 -0.3359  0.3314
 1304TIP3    H125547   2.461   6.469   7.876 -0.7982  2.8940 -1.0270
 1304TIP3    H225548   2.327   6.402   7.855  0.3549  0.2620 -0.3991
 1305TIP3   OH225549   0.847   0.733   7.711  0.0944 -0.5756  0.5663
 1305TIP3    H125550   0.825   0.806   7.769 -0.7042 -0.4897  0.1629
 1305TIP3    H225551   0.765   0.685   7.700 -0.5767  1.0394 -2.8254
 1306TIP3   OH225552   3.638   0.950   8.449 -0.1153 -0.6575  0.3906
 1306TIP3    H125553   3.680   1.029   8.416  0.7981 -0.4617  1.9235
 1306TIP3    H225554   3.568   0.932   8.386 -0.7637  1.7365  0.3157
 1307TIP3   OH225555   5.867   1.616   6.772  0.3747  0.0329 -0.5347
 1307TIP3    H125556   5.786   1.650   6.809  1.3555 -0.3165  2.0937
 1307TIP3    H225557   5.839   1.573   6.691 -2.0105  0.1672  0.1339
 1308TIP3   OH225558   2.765   3.196   7.113 -0.0927  0.2265  0.3446
 1308TIP3    H125559   2.760   3.137   7.188 -1.8627  0.3018  0.3240
 1308TIP3    H225560   2.708   3.156   7.047  0.4530  0.8104 -0.5039
 1309TIP3   OH225561   5.540   0.003   7.058  0.0259  0.1764  1.0181
 1309TIP3    H125562   5.445  -0.005   7.060 -0.2485  1.3776 -1.7868
 1309TIP3    H225563   5.558   0.088   7.097 -0.3372  0.9931 -0.5014
 1310TIP3   OH225564   3.885   4.191   0.960 -0.3759  0.0395  0.3470
 1310TIP3    H125565   3.834   4.184   1.041 -0.0892  1.5344  0.6826
 1310TIP3    H225566   3.972   4.159   0.983 -0.1190  1.0457  0.8180
 1311TIP3   OH225567   2.296   1.486   0.208 -0.7447  0.2191 -0.9429
 1311TIP3    H125568   2.388   1.470   0.186 -0.7804  1.6452 -2.3253
 1311TIP3    H225569   2.300   1.547   0.282 -0.5310  1.2398 -1.7651
 1312TIP3   OH225570   6.720   5.848   1.184  0.0375  0.1239 -0.3118
 1312TIP3    H125571   6.672   5.843   1.101 -2.7884 -0.2370  1.2053
 1312TIP3    H225572   6.713   5.760   1.221 -0.0343  0.6327  0.9371
 1313TIP3   OH225573   0.443   5.976   8.459  1.0369  0.2868 -0.2186
 1313TIP3    H125574   0.517   6.034   8.440  1.6626  0.2851  1.9789
 1313TIP3    H225575   0.402   6.014   8.537  0.6937 -1.5161  0.5214
 1314TIP3   OH225576   4.021   1.231   1.536 -0.2510  0.4438 -0.4940
 1314TIP3    H125577   3.970   1.176   1.477  0.5852 -2.7493  1.4893
 1314TIP3    H225578   4.112   1.208   1.518  0.0492 -0.1153  1.4247
 1315TIP3   OH225579   5.504   1.232   8.757 -0.7776 -0.0542 -0.1715
 1315TIP3    H125580   5.521   1.304   8.818  0.9934  0.5575 -1.3133
 1315TIP3    H225581   5.561   1.250   8.682 -2.3801 -1.1508 -1.7354
 1316TIP3   OH225582   1.483   2.823   0.561 -0.8687  0.1564  0.1888
 1316TIP3    H125583   1.406   2.816   0.505  0.4975  0.8526 -1.9235
 1316TIP3    H225584   1.539   2.750   0.533 -1.0879 -0.9384  2.3705
 1317TIP3   OH225585   2.514   4.431   0.252  0.3823 -0.3267  0.7356
 1317TIP3    H125586   2.587   4.394   0.303  0.1230  0.7042  1.9065
 1317TIP3    H225587   2.457   4.470   0.318  0.1015  1.1748 -0.3556
 1318TIP3   OH225588   6.561   3.794   1.472 -0.3664 -0.2918  0.3954
 1318TIP3    H125589   6.541   3.887   1.460  1.2773  0.5593  3.2100
 1318TIP3    H225590   6.641   3.781   1.422  2.0360  1.1673  3.4926
 1319TIP3   OH225591   6.102   4.709   1.081  0.2100 -0.4274 -0.2998
 1319TIP3    H125592   6.128   4.636   1.024 -0.3771  0.9588 -2.4628
 1319TIP3    H225593   6.011   4.726   1.058 -0.3118 -0.2877  1.6758
 1320TIP3   OH225594   2.528   1.098   0.936  0.6472  0.0163  0.3144
 1320TIP3    H125595   2.572   1.055   1.009 -0.1714 -3.3122 -0.9269
 1320TIP3    H225596   2.437   1.106   0.964  0.7739  0.8632  0.4915
 1321TIP3   OH225597   4.040   0.626   1.426  0.0592  0.2293 -0.1004
 1321TIP3    H125598   4.015   0.672   1.506 -2.4154 -0.0355 -0.6170
 1321TIP3    H225599   3.998   0.540   1.433  1.8468 -0.7458 -0.6229
 1322TIP3   OH225600   3.873   6.308   0.583 -0.4553 -0.5853 -0.1877
 1322TIP3    H125601   3.882   6.349   0.669 -2.1220 -2.2931  0.8810
 1322TIP3    H225602   3.846   6.379   0.525  3.4286  1.2323 -0.0687
 1323TIP3   OH225603   4.057   2.857   1.553  0.1185 -0.6304  0.3285
 1323TIP3    H125604   4.001   2.911   1.609  2.4202  1.4895  0.7338
 1323TIP3    H225605   4.031   2.767   1.573 -2.1797  0.1938  1.4507
 1324TIP3   OH225606   5.775   1.247   1.737  0.0543 -0.6016  0.3980
 1324TIP3    H125607   5.757   1.212   1.824  0.3439  0.9512  1.1265
 1324TIP3    H225608   5.754   1.340   1.744  2.5762  0.0950 -0.4238
 1325TIP3   OH225609   4.726   1.358   0.155  0.1711  0.4333  0.3844
 1325TIP3    H125610   4.805   1.411   0.143  0.0255  0.2606 -1.6770
 1325TIP3    H225611   4.753   1.269   0.131 -0.8078  0.5176 -1.1557
 1326TIP3   OH225612   0.433   6.384   8.814 -0.9831  0.2621 -0.0159
 1326TIP3    H125613   0.438   6.301   8.768 -1.0754  1.2246 -1.8606
 1326TIP3    H225614   0.522   6.400   8.844 -0.9609 -0.4740  0.3279
 1327TIP3   OH225615   1.186   5.905   0.180  0.3089 -0.3934  0.9818
 1327TIP3    H125616   1.183   5.814   0.208  2.4838 -0.9979 -0.4916
 1327TIP3    H225617   1.269   5.938   0.214 -0.0083  0.7584  0.6842
 1328TIP3   OH225618   2.719   0.632   6.601 -0.3084 -0.3022  0.3538
 1328TIP3    H125619   2.671   0.557   6.566 -1.1170 -0.3391  1.4867
 1328TIP3    H225620   2.772   0.663   6.528 -2.3990  0.0312 -1.1060
 1329TIP3   OH225621   2.985   6.624   1.040 -0.1790  0.2380 -0.3173
 1329TIP3    H125622   2.901   6.581   1.057 -0.1504  0.1534 -0.3906
 1329TIP3    H225623   2.961   6.709   1.004 -0.2308 -0.1163 -1.1444
 1330TIP3   OH225624   2.387   2.204   6.885  0.1946  0.0528 -0.1942
 1330TIP3    H125625   2.404   2.298   6.896 -0.9547  0.6438 -2.7967
 1330TIP3    H225626   2.461   2.161   6.930  1.6988  2.2229 -0.4428
 1331TIP3   OH225627   0.353   2.160   1.356  0.3714  0.5061 -0.2968
 1331TIP3    H125628   0.294   2.094   1.320  1.0149 -0.3603  0.1953
 1331TIP3    H225629   0.338   2.157   1.450  1.6442 -0.2010 -0.0884
 1332TIP3   OH225630   1.192   0.065   0.827  0.6108  0.4520  0.3284
 1332TIP3    H125631   1.276   0.107   0.846  0.5940  0.1771  1.0722
 1332TIP3    H225632   1.212  -0.001   0.762  0.9564  0.4524  0.4321
 1333TIP3   OH225633   5.495   4.328   1.416 -0.6737  0.4142  0.0416
 1333TIP3    H125634   5.567   4.356   1.358 -2.0336 -0.9668 -2.4915
 1333TIP3    H225635   5.475   4.405   1.468  0.8167  1.6819 -1.1562
 1334TIP3   OH225636   5.387   3.587   2.043  0.4262  0.3971  0.4380
 1334TIP3    H125637   5.337   3.510   2.015 -1.9355  2.0162 -0.0682
 1334TIP3    H225638   5.478   3.564   2.024 -0.2758 -1.9031 -0.5374
 1335TIP3   OH225639   4.473   0.298   0.776 -0.0352 -0.1599  0.0819
 1335TIP3    H125640   4.471   0.203   0.782  0.3697 -0.2237 -0.7532
 1335TIP3    H225641   4.521   0.317   0.696 -2.9101  0.6866 -1.5780
 1336TIP3   OH225642   1.362   0.684   8.576  0.1287  0.3276  0.1459
 1336TIP3    H125643   1.362   0.714   8.667 -1.9780 -2.3844  1.1560
 1336TIP3    H225644   1.276   0.711   8.542  0.1986 -0.2066 -0.4729
 1337TIP3   OH225645   5.099   0.445   0.355 -0.7444 -0.3063 -0.1550
 1337TIP3    H125646   5.135   0.372   0.406  0.0745  0.1415 -0.0764
 1337TIP3    H225647   5.032   0.405   0.299  1.3216 -1.5757 -1.8739
 1338TIP3   OH225648   2.893   6.340   6.383 -0.0307 -0.3594 -0.4297
 1338TIP3    H125649   2.815   6.327   6.437 -0.4149  1.8587 -0.3437
 1338TIP3    H225650   2.884   6.276   6.312 -0.6462 -1.7973  0.8861
 1339TIP3   OH225651   2.468   1.207   1.843 -0.1234 -0.0715  0.0635
 1339TIP3    H125652   2.561   1.228   1.839  0.5206 -2.3927  0.9683
 1339TIP3    H225653   2.439   1.208   1.752  1.0070 -0.2011 -0.3148
 1340TIP3   OH225654   6.172   0.201   2.074 -0.5076  0.3840 -0.0821
 1340TIP3    H125655   6.201   0.249   2.152 -2.0277  1.7103 -0.2614
 1340TIP3    H225656   6.078   0.217   2.070 -0.9427 -1.9851 -0.6609
 1341TIP3   OH225657   1.825   0.109   0.964  0.6628 -0.0195 -0.1887
 1341TIP3    H125658   1.760   0.150   1.021  2.0329  0.4955  1.0875
 1341TIP3    H225659   1.780   0.096   0.881  0.1217  4.2148 -0.7666
 1342TIP3   OH225660   6.847   3.727   8.203 -0.3611  0.5250  0.4217
 1342TIP3    H125661   6.877   3.638   8.224  0.1651  0.2597 -1.3279
 1342TIP3    H225662   6.753   3.717   8.186 -0.3905  0.3915  0.6499
 1343TIP3   OH225663   1.256   1.588   8.058  0.5557 -0.5562 -0.4420
 1343TIP3    H125664   1.164   1.598   8.084  0.5827 -0.7037 -0.2869
 1343TIP3    H225665   1.302   1.653   8.111  0.2759  1.0733 -2.1000
 1344TIP3   OH225666   2.712   5.016   1.644 -0.0924 -0.0681 -0.0626
 1344TIP3    H125667   2.802   5.012   1.676  0.0259  1.6680 -0.0939
 1344TIP3    H225668   2.658   4.993   1.720  0.3443 -0.0721  0.2460
 1345TIP3   OH225669   5.352   5.385   1.450  0.4099  0.0212 -0.2318
 1345TIP3    H125670   5.405   5.363   1.527  0.0428  0.2467  0.0913
 1345TIP3    H225671   5.266   5.348   1.469 -0.1476  1.4649  0.2061
 1346TIP3   OH225672   5.304   0.366   8.668  0.1247 -0.3207  0.3193
 1346TIP3    H125673   5.241   0.298   8.691  1.8525 -1.5564  1.7016
 1346TIP3    H225674   5.303   0.426   8.742  0.9921 -0.7153  0.6713
 1347TIP3   OH225675   4.479   2.022   1.919 -0.2434 -0.6655 -0.1151
 1347TIP3    H125676   4.422   2.098   1.908 -1.8960 -1.6551  1.2429
 1347TIP3    H225677   4.420   1.949   1.935  1.3702 -1.4259  3.3853
 1348TIP3   OH225678   4.613   2.650   0.880  0.8811 -0.9562 -0.2702
 1348TIP3    H125679   4.578   2.591   0.947  1.8203 -1.2499 -0.0265
 1348TIP3    H225680   4.562   2.629   0.801  1.5202 -2.4668 -0.3268
 1349TIP3   OH225681   4.140   1.105   0.183 -0.0520 -0.3527 -0.3709
 1349TIP3    H125682   4.193   1.184   0.193  0.1580 -0.4527 -0.6880
 1349TIP3    H225683   4.098   1.115   0.098 -1.7616  0.4529  0.5261
 1350TIP3   OH225684   5.072   3.427   8.345 -0.2272 -0.1055  0.6639
 1350TIP3    H125685   4.989   3.418   8.297 -0.7284 -0.0353  1.5101
 1350TIP3    H225686   5.066   3.364   8.416  0.3023  0.1572  0.9458
 1351TIP3   OH225687   2.489   3.214   0.178  0.1091  0.1913 -0.3223
 1351TIP3    H125688   2.464   3.122   0.169 -2.4169  0.4425  2.5450
 1351TIP3    H225689   2.431   3.261   0.118  0.7133  0.0010 -1.0604
 1352TIP3   OH225690   3.212   2.929   1.494  0.2077 -0.1703  0.5322
 1352TIP3    H125691   3.288   2.877   1.469  0.7625  1.0696 -0.5049
 1352TIP3    H225692   3.241   3.020   1.483 -1.9858  0.3584 -1.7786
 1353TIP3   OH225693   1.893   3.097   1.224 -0.4667 -0.2945  0.8825
 1353TIP3    H125694   1.951   3.022   1.211 -1.2241 -0.8885  0.8673
 1353TIP3    H225695   1.859   3.085   1.313 -1.4666 -0.5957  0.4689
 1354TIP3   OH225696   4.731   3.995   2.615  0.5861 -0.2806 -0.2131
 1354TIP3    H125697   4.764   3.905   2.624  0.4466 -0.1911  1.4950
 1354TIP3    H225698   4.806   4.044   2.581  0.3886 -1.1802 -2.1069
 1355TIP3   OH225699   0.262   4.653   0.995  0.2880  0.0909 -0.7965
 1355TIP3    H125700   0.277   4.564   0.963 -0.3142 -0.0469 -0.6961
 1355TIP3    H225701   0.332   4.666   1.060 -0.3363 -0.7607  0.0785
 1356TIP3   OH225702   4.780   3.696   8.101  0.8013  0.3014  0.5642
 1356TIP3    H125703   4.701   3.741   8.072 -0.0783 -0.9942  0.9097
 1356TIP3    H225704   4.852   3.751   8.069 -0.2142  1.1760 -0.2669
 1357TIP3   OH225705   5.601   5.663   0.624  0.1115  0.3409 -0.1578
 1357TIP3    H125706   5.555   5.652   0.707 -1.7543  2.1084 -0.8704
 1357TIP3    H225707   5.615   5.574   0.591  0.8613 -0.3941  1.9861
 1358TIP3   OH225708   5.638   2.535   8.718 -0.7593 -0.6205  0.2425
 1358TIP3    H125709   5.614   2.521   8.627  0.4589 -1.5108  0.0282
 1358TIP3    H225710   5.595   2.464   8.766  1.0069 -1.9762 -0.0869
 1359TIP3   OH225711   0.917   3.408   1.252  0.3388  0.6068  0.4457
 1359TIP3    H125712   1.009   3.423   1.232  0.5525 -0.3379  0.6664
 1359TIP3    H225713   0.913   3.316   1.279 -0.5716  0.7928  0.9865
 1360TIP3   OH225714   2.607   3.352   2.012 -0.5869  0.3797 -0.1533
 1360TIP3    H125715   2.558   3.328   1.934 -0.6048  0.9041 -0.3060
 1360TIP3    H225716   2.663   3.276   2.030 -1.8133 -0.4343  0.3203
 1361TIP3   OH225717   2.052   5.762   1.546 -0.0645  0.5004  0.0643
 1361TIP3    H125718   2.037   5.678   1.504  0.3921  0.2636  0.3615
 1361TIP3    H225719   2.142   5.784   1.523 -0.2331  0.9850 -0.1427
 1362TIP3   OH225720   4.623   2.611   7.580  0.4666  0.0794 -0.1250
 1362TIP3    H125721   4.678   2.572   7.648 -0.7653  1.1808  1.5766
 1362TIP3    H225722   4.551   2.549   7.568  0.6224 -0.0583 -0.3714
 1363TIP3   OH225723   2.467   5.169   1.476  0.0909 -0.0595 -0.0206
 1363TIP3    H125724   2.431   5.081   1.485  1.3963 -0.5647  0.5421
 1363TIP3    H225725   2.562   5.155   1.467  0.1284  1.1567 -2.2198
 1364TIP3   OH225726   1.225   3.922   1.743  0.0407 -0.2947 -0.0318
 1364TIP3    H125727   1.192   3.961   1.824 -1.3733 -0.5908 -0.4309
 1364TIP3    H225728   1.313   3.959   1.732 -0.6914  1.6704  0.3511
 1365TIP3   OH225729   4.285   4.358   7.611 -0.9577  0.4053  0.3023
 1365TIP3    H125730   4.263   4.278   7.563  1.3392 -0.6128  0.8446
 1365TIP3    H225731   4.229   4.357   7.688 -1.8222 -0.0044 -0.3123
 1366TIP3   OH225732   5.543   4.327   0.095  0.2591  0.0307 -0.1283
 1366TIP3    H125733   5.613   4.269   0.063  0.2874 -0.2293  0.4013
 1366TIP3    H225734   5.502   4.278   0.167  0.7158  0.9481  0.7695
 1367TIP3   OH225735   2.861   3.321   1.511  0.3719  0.1355  0.3339
 1367TIP3    H125736   2.947   3.333   1.472  1.3140 -1.5241  1.7633
 1367TIP3    H225737   2.861   3.231   1.544 -1.5692  0.3778  1.1934
 1368TIP3   OH225738   1.305   4.464   7.870  0.4726 -0.1635  0.3313
 1368TIP3    H125739   1.292   4.533   7.935  0.8894  0.9698 -0.7363
 1368TIP3    H225740   1.373   4.409   7.907  0.8916  0.6161  0.7587
 1369TIP3   OH225741   3.013   4.139   1.739  0.5808 -0.1108 -0.5911
 1369TIP3    H125742   3.027   4.223   1.783  2.6679 -0.9411  0.5046
 1369TIP3    H225743   2.987   4.163   1.650 -0.0817  1.6711  0.0393
 1370TIP3   OH225744   5.338   0.509   0.076  0.5897  0.1899 -0.3636
 1370TIP3    H125745   5.361   0.560   0.154 -0.4052 -0.8932  0.6939
 1370TIP3    H225746   5.340   0.572   0.004  1.5577  1.2213  0.5247
 1371TIP3   OH225747   1.533   1.455   7.332 -0.6951 -0.5015 -0.8372
 1371TIP3    H125748   1.618   1.410   7.338 -0.1618  0.2937 -2.1129
 1371TIP3    H225749   1.532   1.515   7.406 -0.3262 -0.8166 -0.5744
 1372TIP3   OH225750   1.707   2.491   1.344  0.0897 -0.7642 -0.3623
 1372TIP3    H125751   1.671   2.516   1.259 -2.3031  1.6369  1.1788
 1372TIP3    H225752   1.666   2.553   1.406  1.9630 -2.1784  2.4893
 1373TIP3   OH225753   6.829   2.001   0.370  0.2145 -0.1691  0.1131
 1373TIP3    H125754   6.756   1.967   0.422  1.8262 -1.0228  2.0019
 1373TIP3    H225755   6.893   2.030   0.436  1.5209  0.6758 -1.4560
 1374TIP3   OH225756   0.267   4.182   0.294  0.3094  0.2824  0.1559
 1374TIP3    H125757   0.232   4.101   0.331 -0.4877  0.7214  0.3786
 1374TIP3    H225758   0.248   4.249   0.360  0.7996  0.6906 -0.1078
 1375TIP3   OH225759   2.914   1.861   0.651  0.0678  0.5811  0.4703
 1375TIP3    H125760   2.925   1.942   0.701 -1.7366  0.5470  0.9895
 1375TIP3    H225761   2.927   1.886   0.560 -0.2474  1.4123  0.6521
 1376TIP3   OH225762   3.515   1.268   2.588 -0.3304  0.1387 -0.8986
 1376TIP3    H125763   3.473   1.341   2.633  0.2183  1.1535 -2.0034
 1376TIP3    H225764   3.582   1.308   2.533  1.8789 -1.4085  0.5096
 1377TIP3   OH225765   5.260   4.570   0.570  0.6821  0.1562  0.1202
 1377TIP3    H125766   5.175   4.572   0.527  0.6996  1.8651  0.1011
 1377TIP3    H225767   5.249   4.509   0.644 -0.8533  1.1122  0.7197
 1378TIP3   OH225768   1.397   0.496   8.783 -0.3653 -0.5034  0.0178
 1378TIP3    H125769   1.333   0.430   8.758 -1.4448  0.0272  1.2601
 1378TIP3    H225770   1.416   0.543   8.702 -0.4392 -1.5917 -0.6425
 1379TIP3   OH225771   2.048   5.346   6.625 -0.8018 -0.0554 -0.5734
 1379TIP3    H125772   2.086   5.271   6.671 -0.6492  1.3771  1.8024
 1379TIP3    H225773   1.954   5.329   6.625 -0.6571 -0.9297 -1.4054
 1380TIP3   OH225774   6.218   4.075   7.401 -0.0398 -0.0667  0.0685
 1380TIP3    H125775   6.221   4.058   7.495 -0.5180  1.7718  0.4664
 1380TIP3    H225776   6.264   4.001   7.362  0.7835 -0.5307  1.7980
 1381TIP3   OH225777   0.383   4.340   7.063  0.4066 -0.2058 -0.1297
 1381TIP3    H125778   0.323   4.376   6.998 -1.7479  1.7754  2.7097
 1381TIP3    H225779   0.437   4.414   7.089  0.6648 -0.7484  0.9165
 1382TIP3   OH225780   2.982   5.459   8.033  0.3002 -0.4201 -0.5787
 1382TIP3    H125781   2.894   5.428   8.012  0.6087 -0.4116 -1.9338
 1382TIP3    H225782   3.018   5.490   7.950  1.5815 -0.3945 -0.0429
 1383TIP3   OH225783   6.420   2.254   1.433  0.7091 -0.4299  0.2698
 1383TIP3    H125784   6.478   2.328   1.449  1.1727 -0.7075 -0.1061
 1383TIP3    H225785   6.478   2.177   1.437  0.7671 -0.5739 -2.1097
 1384TIP3   OH225786   1.459   4.066   1.729  0.7509  0.7704 -0.7102
 1384TIP3    H125787   1.510   4.055   1.809  2.0744  2.3895 -1.2814
 1384TIP3    H225788   1.479   4.155   1.699 -1.1304  0.8748 -1.8677
 1385TIP3   OH225789   4.921   3.652   1.160  0.0891 -0.1528 -0.7212
 1385TIP3    H125790   4.835   3.672   1.198  0.4768  0.4336 -0.1405
 1385TIP3    H225791   4.919   3.557   1.148 -0.5354 -0.1865 -0.4388
 1386TIP3   OH225792   4.496   1.730   0.865  0.6656  0.0840  0.3462
 1386TIP3    H125793   4.419   1.725   0.922  0.0514 -0.5840 -0.5122
 1386TIP3    H225794   4.557   1.667   0.902  1.0002  0.9423  1.2963
 1387TIP3   OH225795   0.353   2.059   0.810 -0.2032  0.2849  0.2368
 1387TIP3    H125796   0.350   2.155   0.814 -1.0454  0.2996 -0.4597
 1387TIP3    H225797   0.400   2.033   0.889  1.3442  1.3280 -0.3087
 1388TIP3   OH225798   5.256   0.378   2.050 -0.1361  0.3951  0.5468
 1388TIP3    H125799   5.174   0.421   2.024  0.6952  0.6963 -1.8481
 1388TIP3    H225800   5.296   0.352   1.967 -0.2324 -4.5004  1.7538
 1389TIP3   OH225801   6.746   1.207   0.959  0.6016  0.1275  0.0063
 1389TIP3    H125802   6.708   1.131   0.914 -0.2510  2.4593 -3.6199
 1389TIP3    H225803   6.676   1.273   0.958  1.3853  1.1340  2.8010
 1390TIP3   OH225804   2.415   0.082   0.021 -0.4649 -0.3758 -0.1540
 1390TIP3    H125805   2.330   0.104  -0.018 -0.5591 -0.0403  0.2328
 1390TIP3    H225806   2.393   0.048   0.108 -0.4048 -2.9236 -1.0381
 1391TIP3   OH225807   6.330   6.024   0.378 -0.1200 -0.0321  0.2883
 1391TIP3    H125808   6.346   6.073   0.458  0.6449  0.8918 -0.3978
 1391TIP3    H225809   6.406   6.044   0.322  0.8715 -2.9305  0.4016
 1392TIP3   OH225810   0.297   1.656   0.564  0.5534 -0.0171 -0.6016
 1392TIP3    H125811   0.248   1.726   0.607  1.2208  0.0358  0.0923
 1392TIP3    H225812   0.288   1.674   0.470 -1.9836 -0.8505 -0.5757
 1393TIP3   OH225813   1.403   5.458   0.832 -0.2631 -0.4139 -0.2397
 1393TIP3    H125814   1.404   5.524   0.763 -1.1497 -1.7745 -1.6260
 1393TIP3    H225815   1.359   5.501   0.906  0.6351  1.0454 -0.5146
 1394TIP3   OH225816   4.475   2.429   8.557  0.1524 -0.3498  0.0316
 1394TIP3    H125817   4.498   2.354   8.502  0.0503 -0.8863  0.6951
 1394TIP3    H225818   4.557   2.454   8.600  0.1303 -0.2644  0.0251
 1395TIP3   OH225819   0.002   2.608   8.233 -0.2360  0.2723 -0.7589
 1395TIP3    H125820  -0.091   2.601   8.256 -0.8315  1.8321 -2.4768
 1395TIP3    H225821   0.048   2.591   8.315 -2.0266 -0.4686  0.1480
 1396TIP3   OH225822   3.480   6.431   8.052  0.4534  0.6956 -0.5598
 1396TIP3    H125823   3.489   6.376   7.974 -0.8231  0.3841 -0.5140
 1396TIP3    H225824   3.524   6.382   8.121  1.8285  1.0992 -1.1170
 1397TIP3   OH225825   4.080   1.815   6.955 -0.2563  0.0693  0.3764
 1397TIP3    H125826   4.117   1.877   6.891 -1.2119  0.9512  0.6502
 1397TIP3    H225827   4.130   1.735   6.942 -0.0957  0.3790 -1.1454
 1398TIP3   OH225828   4.849   4.018   6.706 -0.8234 -0.3498  0.0317
 1398TIP3    H125829   4.930   3.969   6.721 -0.0666  0.7805 -0.2483
 1398TIP3    H225830   4.781   3.965   6.747 -0.0283 -1.6042 -0.2253
 1399TIP3   OH225831   5.481   0.570   7.911  0.4349  0.5855  0.6627
 1399TIP3    H125832   5.493   0.620   7.830 -0.3006  0.8232  0.6863
 1399TIP3    H225833   5.388   0.547   7.911  0.2371  1.3053  1.8442
 1400TIP3   OH225834   0.257   1.229   0.328  0.1893 -0.3422  0.5011
 1400TIP3    H125835   0.217   1.287   0.393 -0.5746 -0.0490 -0.2157
 1400TIP3    H225836   0.184   1.175   0.297  0.3911  0.0581 -0.6840
 1401TIP3   OH225837   4.544   5.874   8.546 -0.2242 -0.0643  0.4037
 1401TIP3    H125838   4.588   5.789   8.557 -1.1561 -0.7289 -0.7402
 1401TIP3    H225839   4.603   5.924   8.490 -1.0516 -1.1161 -1.5061
 1402TIP3   OH225840   0.114   6.489   8.597  0.1388 -0.1783  0.4616
 1402TIP3    H125841   0.161   6.448   8.670  0.1973 -0.2479  0.3857
 1402TIP3    H225842   0.110   6.582   8.620 -1.5227 -0.4611  1.4743
 1403TIP3   OH225843   5.782   6.773   1.391  0.1010 -0.1442  0.3071
 1403TIP3    H125844   5.850   6.706   1.385  0.3395 -0.1380  2.2492
 1403TIP3    H225845   5.830   6.855   1.404 -0.2363  0.2449 -0.7365
 1404TIP3   OH225846   6.500   6.398   0.197  0.1918  0.1024  0.1236
 1404TIP3    H125847   6.554   6.324   0.169 -1.6689 -0.9269 -0.9552
 1404TIP3    H225848   6.535   6.472   0.147 -1.3069 -1.1748 -3.1734
 1405TIP3   OH225849   0.368   0.269   6.926  0.1096  0.1708 -0.4186
 1405TIP3    H125850   0.368   0.253   7.020 -1.5103  1.4174 -0.1477
 1405TIP3    H225851   0.345   0.185   6.887  1.7146 -0.5984  0.2035
 1406TIP3   OH225852   2.529   3.825   1.766 -0.2004  0.1552 -0.3885
 1406TIP3    H125853   2.583   3.807   1.843 -1.0128 -0.7050  0.0115
 1406TIP3    H225854   2.439   3.808   1.796 -0.6294  0.8843 -1.2212
 1407TIP3   OH225855   0.701   6.457   1.316 -0.2590  0.8891  0.3367
 1407TIP3    H125856   0.618   6.458   1.365 -0.4697 -1.4404  0.1436
 1407TIP3    H225857   0.760   6.405   1.370  0.2231  0.2265 -0.7946
 1408TIP3   OH225858   2.354   1.182   7.645 -0.0172 -0.0173  0.4109
 1408TIP3    H125859   2.412   1.207   7.572 -0.2556 -2.2652 -0.6248
 1408TIP3    H225860   2.267   1.176   7.606 -0.8146  2.0445  1.6803
 1409TIP3   OH225861   1.177   5.514   2.355  0.7921 -0.3490 -0.3347
 1409TIP3    H125862   1.115   5.441   2.346 -0.1735  0.3086  0.7431
 1409TIP3    H225863   1.260   5.472   2.380  0.3369 -1.1116 -0.0683
 1410TIP3   OH225864   4.707   2.137   2.287 -0.5040 -0.2299  0.0653
 1410TIP3    H125865   4.728   2.190   2.210  0.0671 -1.2871 -0.5281
 1410TIP3    H225866   4.667   2.199   2.348 -0.5911  0.7141 -0.9141
 1411TIP3   OH225867   0.918   1.819   7.191  0.0573 -0.4238  0.2742
 1411TIP3    H125868   0.897   1.883   7.122  4.0674  3.1618  1.8759
 1411TIP3    H225869   0.968   1.751   7.146  2.3394  1.6956 -0.6650
 1412TIP3   OH225870   1.469   2.049   7.190 -0.3773  0.4011  0.2460
 1412TIP3    H125871   1.426   2.134   7.195  1.8332  1.6850 -0.8686
 1412TIP3    H225872   1.427   1.996   7.258 -3.0945  1.7274 -0.2417
 1413TIP3   OH225873   1.787   6.137   1.669 -0.0739  0.3158 -0.3417
 1413TIP3    H125874   1.733   6.061   1.689  0.6046 -0.3993 -1.1472
 1413TIP3    H225875   1.868   6.121   1.718 -0.3346  1.0719  0.3578
 1414TIP3   OH225876   0.821   4.566   1.282  0.2262 -0.3209  0.3127
 1414TIP3    H125877   0.864   4.587   1.199  1.0920 -0.3289  0.7485
 1414TIP3    H225878   0.780   4.648   1.309  0.6090 -0.1096  0.2615
 1415TIP3   OH225879   2.483   0.926   0.535 -0.8597  0.1302  0.1964
 1415TIP3    H125880   2.555   0.977   0.572 -1.8518 -0.0703  2.5511
 1415TIP3    H225881   2.418   0.992   0.509  0.3626  0.3670 -2.6392
 1416TIP3   OH225882   5.695   1.883   6.616  0.3572 -0.0099 -0.4212
 1416TIP3    H125883   5.617   1.828   6.608  0.1102  0.2611  0.0174
 1416TIP3    H225884   5.666   1.970   6.588 -0.3583  0.8086  2.4754
 1417TIP3   OH225885   6.056   1.735   0.099  0.5170 -0.0994 -0.0969
 1417TIP3    H125886   6.070   1.828   0.081  1.7975 -0.5888 -1.8230
 1417TIP3    H225887   6.143   1.697   0.103 -0.0052 -1.3563 -0.1064
 1418TIP3   OH225888   6.012   4.956   1.215 -0.0710 -0.1883 -0.9359
 1418TIP3    H125889   6.042   4.973   1.305 -0.2473  1.6663 -1.1830
 1418TIP3    H225890   6.092   4.945   1.165  0.0222 -1.7095 -0.4924
 1419TIP3   OH225891   5.239   6.163   0.445 -0.4171  0.2726  0.7960
 1419TIP3    H125892   5.266   6.143   0.535 -1.1854 -1.1429  0.7520
 1419TIP3    H225893   5.273   6.250   0.428  2.5964 -0.6955  1.3066
 1420TIP3   OH225894   0.701   2.913   7.503 -0.1528 -0.1782 -0.1096
 1420TIP3    H125895   0.666   2.824   7.498  0.4808 -0.4870  0.6590
 1420TIP3    H225896   0.796   2.902   7.497  0.0624  0.2485  1.9648
 1421TIP3   OH225897   0.778   1.327   6.377 -0.4533 -0.1777 -0.4187
 1421TIP3    H125898   0.871   1.350   6.370 -0.6378  0.7302 -0.0310
 1421TIP3    H225899   0.732   1.395   6.328 -0.8788 -1.0176 -1.2066
 1422TIP3   OH225900   4.145   0.963   8.073 -0.2159  0.4732 -0.1407
 1422TIP3    H125901   4.063   0.983   8.118 -1.3362 -2.2513 -0.7835
 1422TIP3    H225902   4.137   1.006   7.988 -1.5757 -0.7701 -0.6807
 1423TIP3   OH225903   2.898   2.506   0.618  0.0136 -0.0971 -0.2400
 1423TIP3    H125904   2.973   2.455   0.587 -1.2624 -1.8284 -0.5804
 1423TIP3    H225905   2.871   2.463   0.699 -0.9039  0.2010 -0.3734
 1424TIP3   OH225906   6.251   2.404   1.596  0.0278  0.5896 -0.1317
 1424TIP3    H125907   6.294   2.375   1.516 -2.3928 -1.0560 -0.9318
 1424TIP3    H225908   6.188   2.334   1.616 -0.7778  1.8716  2.1303
 1425TIP3   OH225909   0.506   1.520   8.075 -0.1496  0.1379 -0.3998
 1425TIP3    H125910   0.578   1.466   8.107 -0.8647 -0.1140  0.8248
 1425TIP3    H225911   0.549   1.596   8.036  0.7670  0.3394  0.9455
 1426TIP3   OH225912   3.115   6.383   1.858  0.0557  0.3812 -0.1172
 1426TIP3    H125913   3.063   6.423   1.928  0.0751  0.3064 -0.0609
 1426TIP3    H225914   3.188   6.341   1.903  0.2767  0.6564 -0.2092
 1427TIP3   OH225915   2.591   5.282   0.047  0.7129 -0.0732  0.0720
 1427TIP3    H125916   2.599   5.286  -0.049 -0.4529  0.4342 -0.0223
 1427TIP3    H225917   2.669   5.235   0.075  1.6105  0.7004 -1.0377
 1428TIP3   OH225918   2.694   6.099   7.170 -0.9252  0.2428 -0.2809
 1428TIP3    H125919   2.756   6.171   7.176  0.2569 -0.7894  0.2930
 1428TIP3    H225920   2.707   6.063   7.082  1.5111 -1.8341  0.8092
 1429TIP3   OH225921   1.623   1.779   0.969  0.0251  0.0015  0.1189
 1429TIP3    H125922   1.547   1.794   1.025  1.0734  0.2306  1.5444
 1429TIP3    H225923   1.647   1.688   0.985 -0.6618 -0.4638 -1.2928
 1430TIP3   OH225924   0.975   5.953   0.360  0.1249 -0.1075  0.6556
 1430TIP3    H125925   0.913   6.017   0.325  2.3920  2.1324  0.3972
 1430TIP3    H225926   1.028   5.928   0.284  1.8153  0.8729  1.4522
 1431TIP3   OH225927   2.811   2.287   7.653 -0.2242 -0.5445 -0.3186
 1431TIP3    H125928   2.728   2.280   7.701  0.1009  2.7212  0.9905
 1431TIP3    H225929   2.792   2.349   7.582  0.5442 -1.6180 -1.5105
 1432TIP3   OH225930   3.212   0.966   6.852 -0.2611 -0.3444  0.0182
 1432TIP3    H125931   3.123   0.987   6.883  0.2307 -0.8483  1.9231
 1432TIP3    H225932   3.230   1.032   6.785 -1.7359  0.3229  0.2235
 1433TIP3   OH225933   0.356   5.119   7.635 -0.1124  0.2879 -0.1996
 1433TIP3    H125934   0.262   5.113   7.654  0.1331 -0.8572  0.7804
 1433TIP3    H225935   0.384   5.198   7.681 -0.0872 -0.9148  1.9861
 1434TIP3   OH225936   0.584   3.895   8.517  0.7492  0.4703  0.1393
 1434TIP3    H125937   0.562   3.968   8.459  2.4598 -1.2666 -2.9522
 1434TIP3    H225938   0.503   3.845   8.525  0.0733  1.5961  0.7130
 1435TIP3   OH225939   5.661   6.547   7.025  0.3299 -0.2743  0.2256
 1435TIP3    H125940   5.678   6.461   6.989  1.4424 -0.1593  0.4593
 1435TIP3    H225941   5.715   6.552   7.104 -0.4479  0.2743  0.7476
 1436TIP3   OH225942   2.294   1.394   1.961  0.0813 -0.1620 -0.1596
 1436TIP3    H125943   2.359   1.463   1.945  0.6796 -0.5659  0.4839
 1436TIP3    H225944   2.342   1.313   1.946 -0.0839 -0.4823  0.9828
 1437TIP3   OH225945   2.314   1.956   8.104  0.6362 -0.0273  0.1539
 1437TIP3    H125946   2.329   1.868   8.140  0.2023 -0.5444 -0.8646
 1437TIP3    H225947   2.365   1.957   8.023  0.1263  0.4210 -0.1694
 1438TIP3   OH225948   3.059   2.205   1.361 -0.2751  0.2627 -0.1495
 1438TIP3    H125949   3.012   2.150   1.423  1.5049 -1.2363 -0.0187
 1438TIP3    H225950   3.152   2.189   1.380  0.3121  1.0124 -2.1010
 1439TIP3   OH225951   6.796   5.198   0.514 -0.2468  0.0124 -0.4153
 1439TIP3    H125952   6.845   5.162   0.439  1.0078  0.1675  0.2978
 1439TIP3    H225953   6.738   5.128   0.541  0.4719 -0.6412 -0.5235
 1440TIP3   OH225954   1.867   1.098   8.345 -0.4164  0.3029  0.2309
 1440TIP3    H125955   1.826   1.139   8.269 -0.0752 -1.4257 -0.9573
 1440TIP3    H225956   1.947   1.148   8.360 -0.4801  0.6542 -0.5705
 1441TIP3   OH225957   3.630   3.901   8.019 -0.1281  0.2761  0.5275
 1441TIP3    H125958   3.649   3.995   8.010  2.3603 -0.2480 -0.6595
 1441TIP3    H225959   3.587   3.894   8.104  1.7790  2.2751  1.7931
 1442TIP3   OH225960   6.140   2.647   6.808 -0.1278  0.1583 -0.0607
 1442TIP3    H125961   6.204   2.628   6.739  0.7510 -0.4311  0.8876
 1442TIP3    H225962   6.156   2.739   6.831  1.2077 -0.2930  0.9596
 1443TIP3   OH225963   1.085   4.385   8.095  0.0801 -0.2568  0.1393
 1443TIP3    H125964   1.027   4.309   8.097  0.5543 -0.6119  1.4526
 1443TIP3    H225965   1.148   4.366   8.025  1.2899 -1.9331  1.5980
 1444TIP3   OH225966   3.137   6.026   0.879 -0.3546  0.3283 -0.0114
 1444TIP3    H125967   3.048   6.040   0.912 -0.3222  1.4239 -0.3715
 1444TIP3    H225968   3.191   6.020   0.959 -0.5209  1.2794  0.1770
 1445TIP3   OH225969   5.659   3.895   0.749 -0.4858  0.2226 -0.2764
 1445TIP3    H125970   5.729   3.935   0.801  0.0191 -1.5981  0.5156
 1445TIP3    H225971   5.608   3.970   0.717 -0.2905  1.4867  2.1028
 1446TIP3   OH225972   0.215   3.308   7.695  0.0243  0.7854 -0.0217
 1446TIP3    H125973   0.297   3.290   7.651  0.8158  0.9639  1.3197
 1446TIP3    H225974   0.214   3.403   7.708 -0.0400  0.7084  0.6003
 1447TIP3   OH225975   1.410   6.514   0.762  0.4483 -0.0233 -0.0015
 1447TIP3    H125976   1.459   6.567   0.699  0.6062 -0.1770 -0.0077
 1447TIP3    H225977   1.352   6.461   0.708 -0.0551  0.4868  0.0282
 1448TIP3   OH225978   3.283   5.990   7.644 -0.3321 -0.0044 -0.4013
 1448TIP3    H125979   3.306   5.913   7.695  1.4352  1.1794  0.7098
 1448TIP3    H225980   3.272   6.060   7.709 -0.5618  0.9784 -1.4562
 1449TIP3   OH225981   6.504   3.595   7.051 -0.2592  0.5380  0.2495
 1449TIP3    H125982   6.534   3.507   7.027 -1.8645 -0.0538  0.2810
 1449TIP3    H225983   6.418   3.604   7.008 -1.7953  0.6630  3.1079
 1450TIP3   OH225984   1.916   5.256   0.226  0.3078 -0.7119 -0.0932
 1450TIP3    H125985   1.873   5.342   0.227  0.7974 -0.3987 -1.9528
 1450TIP3    H225986   1.863   5.202   0.285 -1.3009  0.2786 -0.5562
 1451TIP3   OH225987   3.991   4.883   1.359 -0.1390  0.5817  0.6237
 1451TIP3    H125988   4.004   4.806   1.415 -1.0365  0.6808  0.9764
 1451TIP3    H225989   4.034   4.860   1.277 -0.9184 -0.5536  0.5089
 1452TIP3   OH225990   0.284   0.468   1.273 -0.5025  0.0324  0.1085
 1452TIP3    H125991   0.303   0.382   1.237  0.8824  0.8759 -1.3533
 1452TIP3    H225992   0.322   0.467   1.361  0.0247 -0.6701 -0.1176
 1453TIP3   OH225993   2.118   2.668   7.025  0.0015  0.2527  0.5785
 1453TIP3    H125994   2.160   2.733   7.082  0.2282  0.1575  0.5224
 1453TIP3    H225995   2.183   2.652   6.957  0.4440 -0.9224  1.2476
 1454TIP3   OH225996   2.701   6.556   1.995 -0.3521 -0.1568  0.1164
 1454TIP3    H125997   2.788   6.589   2.018 -0.6541  0.1368  0.8842
 1454TIP3    H225998   2.692   6.475   2.047 -0.5434 -0.1760  0.0554
 1455TIP3   OH225999   4.988   4.192   7.539 -0.4492 -0.5633  0.8278
 1455TIP3    H126000   4.999   4.114   7.594  1.7828 -0.8504  0.0506
 1455TIP3    H226001   5.007   4.265   7.598  3.2533 -0.9196  0.3023
 1456TIP3   OH226002   4.204   5.562   0.591 -0.0632 -0.1674  0.3351
 1456TIP3    H126003   4.299   5.553   0.594 -0.0802 -0.3206  0.4624
 1456TIP3    H226004   4.183   5.625   0.660  0.0967  1.2458 -0.8478
 1457TIP3   OH226005   6.804   4.439   7.676 -0.2796 -0.1465  0.2919
 1457TIP3    H126006   6.798   4.524   7.720 -0.1783  0.6069 -1.1121
 1457TIP3    H226007   6.898   4.421   7.672 -0.2745 -0.0859  0.1423
 1458TIP3   OH226008   0.079   3.528   7.502 -0.0960  0.1430  0.1742
 1458TIP3    H126009   0.128   3.554   7.424 -0.9692  1.1090 -0.0870
 1458TIP3    H226010   0.110   3.588   7.570 -0.1317  0.0444  0.2763
 1459TIP3   OH226011   1.715   1.530   0.888 -0.3233  0.1920  0.3742
 1459TIP3    H126012   1.688   1.534   0.796  0.6748  0.5673  0.0846
 1459TIP3    H226013   1.634   1.519   0.937 -1.1985  2.8819 -0.3389
 1460TIP3   OH226014   1.811   3.653   1.454  0.3075  0.0774  0.3296
 1460TIP3    H126015   1.722   3.624   1.474 -0.5237  2.7142  1.0054
 1460TIP3    H226016   1.819   3.644   1.360 -0.1172 -1.5741  0.4292
 1461TIP3   OH226017   4.435   5.031   1.045 -0.2017 -0.0923 -0.3497
 1461TIP3    H126018   4.503   5.026   0.979  0.8360  0.4411  0.6433
 1461TIP3    H226019   4.364   5.080   1.004 -0.5335 -1.7085 -1.8188
 1462TIP3   OH226020   1.858   0.923   0.088  0.0814 -0.6006  0.6009
 1462TIP3    H126021   1.841   0.873   0.167 -0.6156  0.1152  0.9232
 1462TIP3    H226022   1.949   0.953   0.097 -0.0671 -0.3292  1.2468
 1463TIP3   OH226023   2.391   4.971   6.932 -0.1677  0.1176 -0.1555
 1463TIP3    H126024   2.353   4.952   7.018 -2.8118  0.7654 -1.0613
 1463TIP3    H226025   2.408   4.885   6.893 -1.5621 -0.2653  0.0082
 1464TIP3   OH226026   6.247   3.230   0.991  0.0341  0.1952  0.3577
 1464TIP3    H126027   6.252   3.325   1.002 -0.9704  0.3491 -0.4112
 1464TIP3    H226028   6.331   3.198   1.025  1.0841  1.4988 -0.8551
 1465TIP3   OH226029   1.888   2.672   2.044  0.3912  0.6874  0.0470
 1465TIP3    H126030   1.969   2.721   2.030  1.3510  0.2971  3.4319
 1465TIP3    H226031   1.878   2.668   2.139 -0.0103 -4.9736  0.1141
 1466TIP3   OH226032   6.232   0.988   7.485  0.5192 -0.4932  0.2641
 1466TIP3    H126033   6.227   0.906   7.436  3.1532 -1.3865  1.3356
 1466TIP3    H226034   6.171   0.976   7.558 -0.3606 -0.7862 -0.4959
 1467TIP3   OH226035   1.432   2.982   0.882 -0.0063 -0.1473 -0.0815
 1467TIP3    H126036   1.397   2.893   0.879  1.9678 -0.9797  0.4060
 1467TIP3    H226037   1.390   3.026   0.808  0.1252 -1.9160 -1.2659
 1468TIP3   OH226038   6.732   0.031   1.041  0.4646  0.0136 -0.0179
 1468TIP3    H126039   6.734   0.084   0.961  1.8654  0.1339  0.0707
 1468TIP3    H226040   6.650  -0.018   1.035  1.6618 -1.8620 -2.7604
 1469TIP3   OH226041   5.837   2.180   7.374 -0.2561 -0.0104 -0.2038
 1469TIP3    H126042   5.780   2.254   7.395 -1.2445 -1.4301  2.6842
 1469TIP3    H226043   5.819   2.160   7.283 -1.6050  1.8926 -0.4060
 1470TIP3   OH226044   3.506   2.167   7.822 -0.2333 -0.3999 -0.1233
 1470TIP3    H126045   3.592   2.155   7.781 -0.4814 -0.0223 -0.7802
 1470TIP3    H226046   3.460   2.228   7.763 -0.8346 -0.3508  0.3862
 1471TIP3   OH226047   4.967   4.390   7.194 -0.9020  0.0350  0.5423
 1471TIP3    H126048   4.975   4.320   7.129  0.0205  1.3909 -0.8533
 1471TIP3    H226049   4.902   4.357   7.256 -2.3296 -1.0416 -1.4159
 1472TIP3   OH226050   1.785   5.709   1.547 -0.0841  0.6566  0.2842
 1472TIP3    H126051   1.774   5.642   1.615  0.8644 -0.8462 -0.9524
 1472TIP3    H226052   1.875   5.740   1.558 -0.1538  0.9065  0.1598
 1473TIP3   OH226053   3.033   1.033   7.454  0.3832  0.1594 -0.4197
 1473TIP3    H126054   3.074   1.056   7.538 -0.9749  1.3678 -0.0316
 1473TIP3    H226055   2.985   0.952   7.472 -1.5758  1.4472  0.6383
 1474TIP3   OH226056   3.105   5.934   8.705 -0.9469  0.7033  0.2727
 1474TIP3    H126057   3.098   5.850   8.751  0.6279 -0.4760 -1.4736
 1474TIP3    H226058   3.180   5.978   8.745 -0.0849  0.0389 -0.5673
 1475TIP3   OH226059   0.180   2.528   1.228 -0.1041  0.3769 -0.5887
 1475TIP3    H126060   0.086   2.515   1.234 -0.3575  2.2902  0.3627
 1475TIP3    H226061   0.218   2.462   1.287 -1.0671  1.4969  1.3820
 1476TIP3   OH226062   0.124   4.777   0.472 -0.3200  0.7811  0.0032
 1476TIP3    H126063   0.198   4.760   0.414 -0.3009  0.2663  0.1728
 1476TIP3    H226064   0.163   4.791   0.558 -0.4039  0.6602  0.0627
 1477TIP3   OH226065   5.741   0.125   7.325  0.2559  0.2269  1.1058
 1477TIP3    H126066   5.794   0.192   7.369 -0.3439  0.3498  1.6474
 1477TIP3    H226067   5.674   0.174   7.279  0.4177  0.0510  0.6822
 1478TIP3   OH226068   0.906   5.891   1.962  0.1889 -0.0124 -0.1130
 1478TIP3    H126069   0.928   5.981   1.986  0.2073  0.0080 -0.2081
 1478TIP3    H226070   0.813   5.883   1.984  0.2881 -0.1014  0.2942
 1479TIP3   OH226071   2.166   3.893   7.260 -0.1566 -0.1916  0.2094
 1479TIP3    H126072   2.105   3.819   7.258 -1.5639  0.8989 -1.7436
 1479TIP3    H226073   2.212   3.888   7.176  1.3401 -0.0917  0.9968
 1480TIP3   OH226074   1.852   3.363   0.829  0.3926  0.1999  0.5943
 1480TIP3    H126075   1.830   3.451   0.859 -2.7853  0.0327 -0.8028
 1480TIP3    H226076   1.772   3.312   0.843  1.6502 -2.0901 -0.0137
 1481TIP3   OH226077   0.130   3.319   8.486  0.5046 -0.0585  0.1498
 1481TIP3    H126078   0.197   3.263   8.448  1.5764 -0.0654  1.9704
 1481TIP3    H226079   0.173   3.403   8.501 -0.1473  0.2288  0.4756
 1482TIP3   OH226080   1.214   4.689   0.569 -0.6421  0.2303 -0.1264
 1482TIP3    H126081   1.229   4.596   0.554  0.5235  0.1472  1.3109
 1482TIP3    H226082   1.253   4.706   0.655  0.3530  2.3079 -0.9148
 1483TIP3   OH226083   0.588   0.123   7.592  0.6220  0.0054  0.1549
 1483TIP3    H126084   0.628   0.169   7.519 -1.5116 -0.3820 -1.3375
 1483TIP3    H226085   0.528   0.060   7.552 -1.9647  0.9750  2.1898
 1484TIP3   OH226086   1.984   6.167   2.319  0.3410  0.6179 -0.1020
 1484TIP3    H126087   1.900   6.136   2.354  1.5283  0.0151  2.4494
 1484TIP3    H226088   2.001   6.111   2.243  0.4303 -2.2750  1.9086
 1485TIP3   OH226089   4.024   0.102   8.200  0.0038  0.1266  0.5673
 1485TIP3    H126090   4.065   0.188   8.206  0.6976 -0.1896  0.5064
 1485TIP3    H226091   4.076   0.047   8.260  0.1518 -0.4594 -0.0892
 1486TIP3   OH226092   2.423   2.778   6.398  0.0320  0.1252  0.4829
 1486TIP3    H126093   2.429   2.703   6.457  0.2298  0.7712  1.3063
 1486TIP3    H226094   2.374   2.843   6.447 -0.6639  0.3355 -0.4526
 1487TIP3   OH226095   4.908   5.586   8.182  0.2000  0.1552 -0.0197
 1487TIP3    H126096   4.918   5.494   8.155  1.8744  0.3394 -0.1660
 1487TIP3    H226097   4.820   5.591   8.218 -0.6438 -1.0722 -1.7508
 1488TIP3   OH226098   5.213   1.755   7.532 -0.2892  0.2552  0.0704
 1488TIP3    H126099   5.119   1.748   7.513 -0.3941  2.3142 -0.3423
 1488TIP3    H226100   5.252   1.682   7.483 -1.6098 -0.3260 -0.1612
 1489TIP3   OH226101   2.928   2.558   8.457 -0.1885 -0.5495 -0.6287
 1489TIP3    H126102   2.842   2.516   8.447 -1.8053  2.6392 -1.5676
 1489TIP3    H226103   2.938   2.572   8.551 -0.6683 -0.9845 -0.5100
 1490TIP3   OH226104   3.731   5.036   0.825 -0.6313  0.0797  0.3765
 1490TIP3    H126105   3.777   4.969   0.776 -0.4044  0.2874  0.2997
 1490TIP3    H226106   3.638   5.016   0.813 -0.5899  0.3124 -0.4062
 1491TIP3   OH226107   1.208   2.685   6.588 -0.7928  0.2486 -0.3475
 1491TIP3    H126108   1.113   2.678   6.598 -0.7335  0.5196  0.5497
 1491TIP3    H226109   1.236   2.599   6.559 -1.2970  0.1154 -0.4478
 1492TIP3   OH226110   0.564   5.515   7.910 -0.2458  0.1392 -0.2521
 1492TIP3    H126111   0.630   5.507   7.979  1.0454  0.9817 -1.3128
 1492TIP3    H226112   0.505   5.584   7.941 -0.4360 -0.3776  0.5580
 1493TIP3   OH226113   3.047   2.215   7.763 -0.4767 -0.0570 -0.1404
 1493TIP3    H126114   3.026   2.138   7.816 -0.1380  0.1673  0.3333
 1493TIP3    H226115   2.963   2.245   7.729 -0.6163 -0.5987 -0.2756
 1494TIP3   OH226116   1.253   4.415   0.619  0.8831 -0.1747  0.3294
 1494TIP3    H126117   1.238   4.390   0.710  1.3068 -3.2266 -0.3383
 1494TIP3    H226118   1.348   4.411   0.609  0.7668 -1.1610 -0.5454
 1495TIP3   OH226119   0.104   1.624   0.959 -0.5770  0.3169 -0.3716
 1495TIP3    H126120   0.134   1.551   0.904 -0.4488  1.0949 -1.3763
 1495TIP3    H226121   0.021   1.651   0.920 -1.4401 -0.3150  0.9815
 1496TIP3   OH226122   6.142   0.885   0.649 -0.6029 -0.0812 -0.9358
 1496TIP3    H126123   6.069   0.891   0.711  0.6587  0.5196  0.5467
 1496TIP3    H226124   6.124   0.954   0.585 -1.6027 -0.2799 -0.8841
 1497TIP3   OH226125   5.456   2.114   7.878  0.0892  0.3774 -0.1047
 1497TIP3    H126126   5.426   2.174   7.947  0.0484  0.0984  0.1228
 1497TIP3    H226127   5.377   2.065   7.854  0.3256 -0.2726  0.4075
 1498TIP3   OH226128   5.240   3.913   8.279  0.6472  0.1143 -0.3550
 1498TIP3    H126129   5.232   3.824   8.315 -0.3699  0.3601  0.0654
 1498TIP3    H226130   5.215   3.970   8.352  2.3522  0.8138 -0.2733
 1499TIP3   OH226131   1.468   4.937   1.491  0.4462 -0.4432 -0.4623
 1499TIP3    H126132   1.427   4.871   1.548  2.0313 -0.7065  0.4334
 1499TIP3    H226133   1.562   4.926   1.505  0.7984  1.1109 -1.3426
 1500TIP3   OH226134   1.067   3.584   2.310 -0.1016 -0.1985  0.4402
 1500TIP3    H126135   1.122   3.639   2.366 -0.3018  1.0230 -0.5224
 1500TIP3    H226136   0.984   3.578   2.357 -0.2951  0.8818  0.2558
 1501TIP3   OH226137   3.070   1.468   8.625  0.2817 -0.0512  0.4101
 1501TIP3    H126138   3.083   1.441   8.534 -0.8189 -0.3865  0.3322
 1501TIP3    H226139   3.136   1.536   8.640 -1.4838  2.3239 -1.6300
 1502TIP3   OH226140   4.115   0.884   1.293  0.4648  0.1507  0.6117
 1502TIP3    H126141   4.210   0.881   1.311  0.4470 -1.8991  0.6985
 1502TIP3    H226142   4.084   0.797   1.319 -0.9082 -0.3438 -2.3056
 1503TIP3   OH226143   2.447   1.309   7.876  0.4706 -0.0271 -0.3181
 1503TIP3    H126144   2.380   1.303   7.944  1.5777 -0.4864  0.7594
 1503TIP3    H226145   2.407   1.265   7.800 -0.3810 -0.4592  0.3569
 1504TIP3   OH226146   2.682   4.285   6.924 -0.2899  0.0820  0.5800
 1504TIP3    H126147   2.651   4.376   6.920  1.1243  0.5459 -0.4281
 1504TIP3    H226148   2.701   4.262   6.833 -0.9498 -1.3526  0.7840
 1505TIP3   OH226149   4.274   1.976   1.388  0.4473 -0.0400  0.9258
 1505TIP3    H126150   4.341   1.948   1.326  0.4354  2.4503 -0.3604
 1505TIP3    H226151   4.230   1.896   1.415  2.7605 -1.5522  0.4202
 1506TIP3   OH226152   1.213   2.415   0.222  0.1781 -0.2616 -0.4008
 1506TIP3    H126153   1.185   2.408   0.313  1.6276 -0.5611  0.0364
 1506TIP3    H226154   1.225   2.325   0.194 -0.7947 -0.1977 -1.0838
 1507TIP3   OH226155   4.533   4.076   7.343  0.1352  0.8344  0.2051
 1507TIP3    H126156   4.477   4.010   7.383  1.2247 -0.2277  0.0531
 1507TIP3    H226157   4.474   4.127   7.287 -0.5364 -0.8197 -0.6559
 1508TIP3   OH226158   5.198   2.041   7.518  0.5517  0.2994 -0.0138
 1508TIP3    H126159   5.178   1.948   7.517  0.8537  0.1842 -2.3367
 1508TIP3    H226160   5.271   2.051   7.457 -0.1739  2.1714 -0.6811
 1509TIP3   OH226161   0.563   0.285   7.836  0.0630  0.3761 -0.2909
 1509TIP3    H126162   0.470   0.282   7.811 -0.1613 -1.9829  0.6015
 1509TIP3    H226163   0.605   0.219   7.781  0.9658  0.5127  0.2246
 1510TIP3   OH226164   5.907   0.966   0.455  0.5605 -0.3968  0.4663
 1510TIP3    H126165   5.959   1.046   0.444  0.6911 -0.5491 -0.0851
 1510TIP3    H226166   5.820   0.998   0.480  0.3890 -0.0246 -0.5492
 1511TIP3   OH226167   1.813   6.417   7.346 -0.5392  0.0684 -0.3100
 1511TIP3    H126168   1.853   6.357   7.283 -0.2792 -0.2269  0.1346
 1511TIP3    H226169   1.720   6.393   7.345 -0.4346 -0.3506 -0.1259
 1512TIP3   OH226170   1.833   1.773   1.249  0.1264 -0.0976  1.0974
 1512TIP3    H126171   1.738   1.774   1.232  0.2960 -0.4189  0.0849
 1512TIP3    H226172   1.839   1.761   1.344 -0.8490  0.7607  1.2921
 1513TIP3   OH226173   0.994   0.203   0.126 -0.1150  0.8558 -0.1667
 1513TIP3    H126174   0.973   0.247   0.043  0.9169 -0.3388 -1.1014
 1513TIP3    H226175   1.079   0.161   0.110 -0.6121 -0.6704  0.9939
 1514TIP3   OH226176   5.428   0.595   0.830  0.5454  0.4431 -0.0185
 1514TIP3    H126177   5.366   0.563   0.765  2.0535 -1.4292 -0.6211
 1514TIP3    H226178   5.480   0.660   0.783  2.0752 -1.3840 -0.9885
 1515TIP3   OH226179   5.151   6.817   1.116 -0.2274  0.1493  0.0941
 1515TIP3    H126180   5.120   6.736   1.076 -0.6484  0.0722  0.5557
 1515TIP3    H226181   5.236   6.794   1.154 -0.7437 -0.3362  1.0063
 1516TIP3   OH226182   4.212   6.848   6.600 -0.0499  0.2132  0.3937
 1516TIP3    H126183   4.259   6.931   6.598  0.7695 -0.2145  0.9720
 1516TIP3    H226184   4.136   6.865   6.655 -1.7392  1.4622 -2.1494
 1517TIP3   OH226185   6.123   0.884   8.013 -0.4459 -0.4033 -0.0302
 1517TIP3    H126186   6.030   0.905   8.025 -0.1428  1.6511 -0.8339
 1517TIP3    H226187   6.127   0.788   8.021 -2.4166 -0.4394  1.2715
 1518TIP3   OH226188   0.710   3.245   1.145  0.1638 -0.3943 -0.1612
 1518TIP3    H126189   0.630   3.297   1.141  0.8480  0.6865 -0.2516
 1518TIP3    H226190   0.781   3.310   1.143  1.0519 -1.0626  3.3819
 1519TIP3   OH226191   3.459   4.276   8.576  0.3984  0.0357  0.1051
 1519TIP3    H126192   3.491   4.297   8.488  0.6991  0.8230  0.3947
 1519TIP3    H226193   3.525   4.312   8.635 -0.3226  0.4573  0.6821
 1520TIP3   OH226194   0.575   0.845   0.408 -0.1346 -0.4899  0.3281
 1520TIP3    H126195   0.523   0.923   0.425 -1.6772 -1.1146 -1.2408
 1520TIP3    H226196   0.553   0.786   0.481 -1.0944 -0.4807  0.0534
 1521TIP3   OH226197   6.112   1.853   8.137 -0.5478  0.3865  0.7862
 1521TIP3    H126198   6.175   1.782   8.151  0.2200  0.9664  0.3243
 1521TIP3    H226199   6.158   1.915   8.081 -2.4556 -0.4161 -1.8250
 1522TIP3   OH226200   2.213   0.248   7.814  0.1681 -0.1988  0.7125
 1522TIP3    H126201   2.253   0.310   7.875 -2.7660  3.1087 -0.4278
 1522TIP3    H226202   2.253   0.269   7.729  1.9289 -2.6407  0.8294
 1523TIP3   OH226203   5.175   5.020   0.013  0.0330  0.5266  0.0817
 1523TIP3    H126204   5.238   5.093   0.021  2.1803 -1.2881  0.6893
 1523TIP3    H226205   5.218   4.957  -0.045 -2.2246  0.1133 -1.2576
 1524TIP3   OH226206   0.564   5.267   7.423 -0.4121  0.3354 -0.1525
 1524TIP3    H126207   0.554   5.199   7.489  0.9111 -0.4067 -0.6776
 1524TIP3    H226208   0.626   5.329   7.462  0.7051 -0.3241 -0.8264
 1525TIP3   OH226209   3.842   1.904   1.568  0.6492  0.8615 -0.1677
 1525TIP3    H126210   3.771   1.847   1.597  2.3501 -1.8960 -1.0617
 1525TIP3    H226211   3.879   1.940   1.648  0.7890 -0.9422  0.6083
 1526TIP3   OH226212   0.899   3.103   8.702  0.6750 -0.2931  0.5014
 1526TIP3    H126213   0.924   3.046   8.629  0.4082 -0.3214  0.4305
 1526TIP3    H226214   0.808   3.124   8.685  0.1178 -1.6029  1.6573
 1527TIP3   OH226215   5.860   3.903   0.537 -0.2110 -0.3141 -0.5114
 1527TIP3    H126216   5.911   3.854   0.474  1.9878  0.0982  0.8283
 1527TIP3    H226217   5.804   3.838   0.580  0.4122 -1.0963 -0.8773
 1528TIP3   OH226218   3.748   3.647   6.406 -0.0632  0.1780  0.3756
 1528TIP3    H126219   3.801   3.673   6.331 -0.7702 -2.3030 -1.1248
 1528TIP3    H226220   3.811   3.635   6.477  1.2495 -1.2066 -0.9446
 1529TIP3   OH226221   3.618   6.836   1.577  0.2934 -0.3488  0.1881
 1529TIP3    H126222   3.562   6.803   1.506  2.0310  0.8674 -1.8639
 1529TIP3    H226223   3.650   6.758   1.621 -1.3239 -1.1166  0.0790
 1530TIP3   OH226224   3.134   1.649   0.645  0.5643  0.7467 -0.8201
 1530TIP3    H126225   3.103   1.717   0.705  2.1797  0.0384  0.9106
 1530TIP3    H226226   3.176   1.584   0.701 -2.2442 -2.5904 -2.1504
 1531TIP3   OH226227   1.364   6.653   1.132 -0.1773  0.3841 -0.1881
 1531TIP3    H126228   1.381   6.680   1.222 -3.3043  0.1895  0.5592
 1531TIP3    H226229   1.293   6.711   1.103 -1.5677 -1.7700 -1.3002
 1532TIP3   OH226230   5.452   4.191   0.324  0.1080 -0.3984  0.5172
 1532TIP3    H126231   5.529   4.148   0.361  1.2770  2.2629  1.4243
 1532TIP3    H226232   5.400   4.218   0.401 -0.8028 -0.5570 -0.0263
 1533TIP3   OH226233   3.757   3.881   8.489  0.1402 -0.8659  0.4264
 1533TIP3    H126234   3.836   3.829   8.475  1.5610  1.3208 -0.1831
 1533TIP3    H226235   3.789   3.970   8.505 -2.1965  0.6638 -2.3380
 1534TIP3   OH226236   0.743   1.661   8.638  0.2082  0.4560  0.0426
 1534TIP3    H126237   0.759   1.645   8.545 -1.2788 -2.5163  0.1548
 1534TIP3    H226238   0.727   1.573   8.674  1.5268  1.4224  3.2835
 1535TIP3   OH226239   5.041   3.992   7.697  0.3800 -0.3365 -0.3455
 1535TIP3    H126240   5.085   3.961   7.618 -0.3663 -0.0947 -0.8683
 1535TIP3    H226241   5.049   3.920   7.760  1.6561 -0.2331 -0.3685
 1536TIP3   OH226242   5.963   3.964   1.245  0.1391  0.0408 -0.8624
 1536TIP3    H126243   5.887   3.992   1.296  0.6028 -0.1150 -0.0582
 1536TIP3    H226244   6.012   3.907   1.305  1.6612  1.3150 -0.7994
 1537TIP3   OH226245   0.018   6.067   6.972 -0.0834 -0.0202  0.3078
 1537TIP3    H126246  -0.032   6.009   7.029  0.3529 -0.6788  0.0378
 1537TIP3    H226247  -0.047   6.099   6.909 -0.4241  0.1621  0.7436
 1538TIP3   OH226248   3.067   0.177   7.949  0.5487  0.1946  0.0372
 1538TIP3    H126249   3.084   0.240   8.019  2.4695  0.0551 -0.2280
 1538TIP3    H226250   3.103   0.218   7.871 -1.0972  0.1244 -0.7956
 1539TIP3   OH226251   6.800   4.898   8.138  0.8110 -0.2955  0.1303
 1539TIP3    H126252   6.820   4.881   8.230  1.0885 -0.3212  0.0643
 1539TIP3    H226253   6.864   4.964   8.111  0.3550  0.1525  0.1190
 1540TIP3   OH226254   2.481   1.181   7.381 -0.0954 -0.2717  0.5467
 1540TIP3    H126255   2.447   1.095   7.403  0.6908 -0.4039  1.3245
 1540TIP3    H226256   2.576   1.173   7.395  0.3802 -0.0939 -2.0598
 1541TIP3   OH226257   6.289   0.931   6.852 -0.5071 -0.1225 -0.2065
 1541TIP3    H126258   6.369   0.982   6.865  1.4376 -3.1025  0.5830
 1541TIP3    H226259   6.304   0.883   6.771 -0.7940 -1.8586  0.7296
 1542TIP3   OH226260   0.435   3.590   8.310 -0.0440  0.2360  0.0018
 1542TIP3    H126261   0.478   3.616   8.391  2.3718 -0.1238 -1.0825
 1542TIP3    H226262   0.428   3.672   8.260 -0.0877  0.1964 -0.0559
 1543TIP3   OH226263   6.088   4.802   0.388  0.4263 -0.2081  0.0339
 1543TIP3    H126264   6.166   4.804   0.443  0.2532  1.0501  0.2622
 1543TIP3    H226265   6.120   4.779   0.301  1.1425  0.8324  0.0102
 1544TIP3   OH226266   5.866   5.818   0.114 -0.2187 -1.1449  0.1625
 1544TIP3    H126267   5.910   5.744   0.157 -1.7428 -2.0083  0.3084
 1544TIP3    H226268   5.916   5.894   0.142 -1.5744 -1.5157  4.3034
 1545TIP3   OH226269   6.293   1.844   8.643  0.0568  0.0656  0.8990
 1545TIP3    H126270   6.198   1.855   8.649  0.0577  0.8477 -0.2634
 1545TIP3    H226271   6.313   1.773   8.705 -1.2568 -0.0223  1.2498
 1546TIP3   OH226272   0.606   6.124   7.451  0.0337 -0.0449 -0.3200
 1546TIP3    H126273   0.569   6.045   7.411 -0.2728  0.4989 -1.1464
 1546TIP3    H226274   0.649   6.169   7.378 -1.5986  1.5951 -0.3361
 1547TIP3   OH226275   1.927   0.304   6.653 -0.4718 -0.4488 -0.2500
 1547TIP3    H126276   2.011   0.328   6.691 -1.4861  1.8625  0.7358
 1547TIP3    H226277   1.863   0.326   6.721 -2.0495  0.1300 -1.8511
 1548TIP3   OH226278   0.862   6.724   7.731 -0.4111 -0.3518 -0.1065
 1548TIP3    H126279   0.924   6.744   7.661 -1.6761 -0.2107 -1.2308
 1548TIP3    H226280   0.914   6.676   7.796  1.1331  0.7991 -0.4396
 1549TIP3   OH226281   4.847   2.711   8.766  0.5075  0.1380  0.2044
 1549TIP3    H126282   4.912   2.779   8.783 -0.4375  1.3866 -0.9866
 1549TIP3    H226283   4.763   2.754   8.780 -0.2093  0.0551 -3.0957
 1550TIP3   OH226284   0.033   3.460   8.252  0.5171  0.1502 -0.2220
 1550TIP3    H126285   0.117   3.453   8.208  0.6245  1.1017 -0.1787
 1550TIP3    H226286   0.038   3.396   8.324  0.9457 -0.2525 -0.6059
 1551TIP3   OH226287   1.586   6.560   1.827 -0.0813 -0.2149 -0.2053
 1551TIP3    H126288   1.643   6.618   1.879 -0.9110  1.3739 -1.0133
 1551TIP3    H226289   1.610   6.472   1.857  2.4003  0.3996 -0.1089
 1552TIP3   OH226290   1.506   3.898   8.304 -0.1702  0.4516  0.3144
 1552TIP3    H126291   1.562   3.967   8.338  0.7449 -0.3290  0.4601
 1552TIP3    H226292   1.435   3.891   8.367 -0.3605  1.3553  0.2120
 1553TIP3   OH226293   6.072   5.584   1.260  0.5869 -0.7019  0.5620
 1553TIP3    H126294   5.988   5.549   1.231 -0.7339  2.4562  0.1793
 1553TIP3    H226295   6.134   5.560   1.191 -0.7964 -0.0884 -0.9334
 1554TIP3   OH226296   3.456   6.641   0.796  0.0420 -0.1139 -0.3470
 1554TIP3    H126297   3.369   6.648   0.834 -0.0559 -1.2343 -0.3254
 1554TIP3    H226298   3.483   6.551   0.815  0.3369 -0.4540 -2.1811
 1555TIP3   OH226299   4.821   5.562   7.053 -0.1617 -0.0134  0.5654
 1555TIP3    H126300   4.746   5.605   7.013  1.0736  2.0179  0.3126
 1555TIP3    H226301   4.810   5.470   7.031 -2.2663  0.3023  0.0704
 1556TIP3   OH226302   6.755   3.461   0.788  0.2128  0.3299 -0.7595
 1556TIP3    H126303   6.718   3.519   0.855 -2.6746 -0.4896 -1.4918
 1556TIP3    H226304   6.826   3.415   0.832 -0.8265  0.6800  1.3937
 1557TIP3   OH226305   0.917   6.320   8.291 -0.0185  0.2658  0.8793
 1557TIP3    H126306   0.863   6.333   8.369  0.3145  0.6030  1.0574
 1557TIP3    H226307   0.973   6.398   8.288 -0.2653  0.4195  0.1161
 1558TIP3   OH226308   1.283   5.784   7.919 -0.1554  0.0496  0.6599
 1558TIP3    H126309   1.370   5.824   7.919 -0.0506 -0.1583 -0.2944
 1558TIP3    H226310   1.243   5.815   8.001  0.1486  1.6100  0.2617
 1559TIP3   OH226311   6.466   2.199   0.922 -0.7437 -0.4817  0.8357
 1559TIP3    H126312   6.435   2.248   0.846 -0.4890 -1.9756 -0.2952
 1559TIP3    H226313   6.393   2.140   0.943 -1.5499  1.1849  2.9720
 1560TIP3   OH226314   5.211   4.410   0.198 -0.6602 -0.3865 -0.1879
 1560TIP3    H126315   5.286   4.371   0.242 -1.3325 -0.0984  1.2521
 1560TIP3    H226316   5.163   4.335   0.162  0.1765 -0.5853 -0.9379
 1561TIP3   OH226317   3.196   4.984   1.357  0.0995  0.3639  0.4098
 1561TIP3    H126318   3.197   5.078   1.374 -1.4886  0.2820  1.1562
 1561TIP3    H226319   3.244   4.974   1.275  0.0105  1.8649  0.1451
 1562TIP3   OH226320   3.719   6.067   6.617 -0.0599 -1.0166 -0.7771
 1562TIP3    H126321   3.680   6.124   6.551 -0.0679 -0.2257 -0.1187
 1562TIP3    H226322   3.811   6.094   6.620  0.0948 -1.5309 -0.9665
 1563TIP3   OH226323   4.108   5.433   0.357  0.6726 -0.2640 -0.0584
 1563TIP3    H126324   4.131   5.472   0.442  2.6895 -1.5352  0.0365
 1563TIP3    H226325   4.151   5.348   0.358 -2.0779 -1.7691 -1.0044
 1564TIP3   OH226326   0.418   1.136   7.625  0.1803  0.6300  0.1631
 1564TIP3    H126327   0.484   1.142   7.556 -1.6713 -0.7061 -1.8641
 1564TIP3    H226328   0.360   1.210   7.610 -0.9292 -0.3520 -0.5624
 1565TIP3   OH226329   5.058   4.498   7.966  0.3159  0.6614 -0.0748
 1565TIP3    H126330   5.116   4.574   7.974 -1.3568  2.1493 -1.2286
 1565TIP3    H226331   5.055   4.461   8.054  1.5997  1.6015  0.4013
 1566TIP3   OH226332   3.082   4.812   6.815 -0.1105 -0.1060  0.4837
 1566TIP3    H126333   3.043   4.752   6.751  0.3449  0.2221 -0.1127
 1566TIP3    H226334   3.136   4.756   6.871 -1.7489 -0.6338  1.5999
 1567TIP3   OH226335   5.204   1.121   1.353 -0.2963  0.5204  0.9126
 1567TIP3    H126336   5.230   1.212   1.360 -1.9512  0.9240  3.1843
 1567TIP3    H226337   5.239   1.080   1.432  2.6475 -1.5366 -1.2660
 1568TIP3   OH226338   0.070   4.538   1.621 -0.4750  0.0249  0.2146
 1568TIP3    H126339   0.129   4.599   1.576  0.1827  0.0670  1.1162
 1568TIP3    H226340   0.065   4.462   1.563  0.6297 -0.0620  0.2150
 1569TIP3   OH226341   4.274   1.932   8.443 -0.0774  0.4121  0.6665
 1569TIP3    H126342   4.237   1.896   8.524  0.9107 -1.8743  0.1720
 1569TIP3    H226343   4.358   1.887   8.432 -0.3414  0.3812 -1.8253
 1570TIP3   OH226344   5.669   5.600   7.741 -0.9540 -0.0559  0.2759
 1570TIP3    H126345   5.666   5.529   7.678 -0.3645  1.0142 -1.0286
 1570TIP3    H226346   5.762   5.609   7.763 -0.2892  2.9406 -2.8605
 1571TIP3   OH226347   4.243   5.511   8.441 -0.1032 -0.2015  0.1080
 1571TIP3    H126348   4.155   5.550   8.445  0.0669  0.1542  0.4226
 1571TIP3    H226349   4.229   5.419   8.464 -0.4946 -0.3177 -0.5592
 1572TIP3   OH226350   6.157   0.958   8.408  0.7338  0.7476 -0.0813
 1572TIP3    H126351   6.195   1.046   8.417  0.8397  0.8238 -1.1522
 1572TIP3    H226352   6.206   0.918   8.337 -0.6193  0.5334 -0.9224
 1573TIP3   OH226353   6.154   4.389   1.199  0.1010  0.4997  0.1805
 1573TIP3    H126354   6.154   4.440   1.118  0.6931 -0.6378 -0.5589
 1573TIP3    H226355   6.140   4.299   1.171 -0.9539  0.2276  1.4639
 1574TIP3   OH226356   5.500   2.486   0.407  0.2741 -0.6067 -0.3744
 1574TIP3    H126357   5.434   2.419   0.423 -0.3713 -0.2338 -1.4037
 1574TIP3    H226358   5.567   2.442   0.356 -0.2315 -0.4414 -1.1974
 1575TIP3   OH226359   5.475   4.834   7.876  0.1736  0.1292 -0.0145
 1575TIP3    H126360   5.423   4.911   7.853  0.5587  0.4741  0.2412
 1575TIP3    H226361   5.515   4.806   7.794  0.9762  0.9223  0.0920
 1576TIP3   OH226362   3.996   2.962   1.977  0.2435  0.3173 -0.1942
 1576TIP3    H126363   3.962   2.873   1.980 -0.0445  0.3928 -0.9170
 1576TIP3    H226364   4.060   2.966   2.048  1.1191 -0.8256 -0.8924
 1577TIP3   OH226365   5.448   4.989   8.718 -0.1069  0.0212  0.4960
 1577TIP3    H126366   5.452   4.918   8.653  1.7053 -0.5318  1.1490
 1577TIP3    H226367   5.430   4.944   8.801 -1.0283  0.5848  0.6236
 1578TIP3   OH226368   5.467   1.586   2.002 -0.2982 -0.0031 -0.1517
 1578TIP3    H126369   5.510   1.562   2.084 -0.6222  0.0280  0.0313
 1578TIP3    H226370   5.399   1.519   1.991 -1.4309  0.9730  0.5328
 1579TIP3   OH226371   1.832   1.413   7.535 -0.0031 -0.4854 -0.3872
 1579TIP3    H126372   1.900   1.404   7.468  0.4831 -1.0277  0.1690
 1579TIP3    H226373   1.848   1.499   7.574 -0.3633 -0.1177 -1.0433
 1580TIP3   OH226374   4.498   3.131   1.432  0.4233  0.6053 -0.1814
 1580TIP3    H126375   4.532   3.132   1.343  0.0803 -0.9535 -0.3700
 1580TIP3    H226376   4.437   3.056   1.434 -0.7273  1.5086  0.9484
 1581TIP3   OH226377   2.654   1.095   6.382 -0.4800  0.2695  0.4302
 1581TIP3    H126378   2.693   1.135   6.460  0.4140 -2.5091  1.5154
 1581TIP3    H226379   2.696   1.010   6.375 -1.3049  0.0017 -2.5397
 1582TIP3   OH226380   3.335   4.463   7.617 -0.0428 -0.3173 -0.8084
 1582TIP3    H126381   3.378   4.544   7.646  1.0505 -0.2465 -2.4748
 1582TIP3    H226382   3.326   4.411   7.697  2.6152 -0.0587 -0.2387
 1583TIP3   OH226383   2.564   1.869   0.685  0.2492 -0.0517 -0.6951
 1583TIP3    H126384   2.520   1.823   0.613 -0.8910  0.4662 -0.3397
 1583TIP3    H226385   2.657   1.846   0.674 -0.2849 -2.8310 -0.2737
 1584TIP3   OH226386   4.226   6.014   1.262  0.5164 -0.2522 -0.2098
 1584TIP3    H126387   4.309   5.984   1.299 -0.6610 -1.8487  1.2416
 1584TIP3    H226388   4.208   6.097   1.306  0.9171 -0.3227  0.0846
 1585TIP3   OH226389   4.005   2.608   2.689  0.3632 -0.2987  0.4448
 1585TIP3    H126390   4.062   2.604   2.612 -1.5440  3.3930 -1.4571
 1585TIP3    H226391   3.985   2.517   2.710  1.3951 -1.5138 -3.1611
 1586TIP3   OH226392   6.782   6.347   2.142  0.1056  0.2636  1.0814
 1586TIP3    H126393   6.766   6.343   2.237 -2.0282 -0.1642  0.7415
 1586TIP3    H226394   6.730   6.276   2.106 -0.1578  1.2455 -0.5565
 1587TIP3   OH226395   5.770   3.172   0.391 -1.0056  0.6709  0.2199
 1587TIP3    H126396   5.768   3.184   0.296 -1.5685 -2.0069 -0.1998
 1587TIP3    H226397   5.863   3.182   0.414 -0.7472  0.6195 -0.7504
 1588TIP3   OH226398   4.552   5.424   0.039  0.4678 -0.0473 -0.0104
 1588TIP3    H126399   4.598   5.408   0.121  1.8893  0.3276 -0.6901
 1588TIP3    H226400   4.617   5.403  -0.029 -0.5808 -0.1034 -1.0277
 1589TIP3   OH226401   6.581   6.518   0.453  0.1152  0.6130  0.6390
 1589TIP3    H126402   6.644   6.457   0.492  0.2967  1.7842  2.2655
 1589TIP3    H226403   6.580   6.494   0.360  0.3345 -1.7068  1.1551
 1590TIP3   OH226404   2.370   0.945   7.965 -0.1997 -0.1645 -0.4548
 1590TIP3    H126405   2.281   0.954   7.999 -0.3000  0.2700 -0.8270
 1590TIP3    H226406   2.400   0.860   7.999 -0.6792 -0.2202 -0.1627
 1591TIP3   OH226407   0.954   5.056   1.243 -0.2011  0.0206 -0.2161
 1591TIP3    H126408   0.982   5.001   1.170 -2.0202  0.1747 -1.0838
 1591TIP3    H226409   0.897   5.122   1.204  1.0839  1.9274  0.9573
 1592TIP3   OH226410   1.308   1.090   8.077 -0.1786 -1.0420  0.2095
 1592TIP3    H126411   1.388   1.116   8.031  1.6302 -1.7170  2.7461
 1592TIP3    H226412   1.258   1.172   8.087  0.2746 -0.5646 -1.1963
 1593TIP3   OH226413   4.347   4.398   0.197 -0.0568  0.3906 -0.5259
 1593TIP3    H126414   4.384   4.347   0.269  3.1033  0.5150 -1.8908
 1593TIP3    H226415   4.284   4.457   0.238 -0.0938 -1.1227  1.7590
 1594TIP3   OH226416   3.004   1.449   1.283  0.4553  0.0781  0.2803
 1594TIP3    H126417   3.081   1.419   1.235  0.3550 -0.5269  0.4913
 1594TIP3    H226418   2.985   1.378   1.344  1.0106  1.1291  1.7363
 1595TIP3   OH226419   2.978   0.772   1.136 -0.4476  0.3263 -0.3235
 1595TIP3    H126420   2.970   0.836   1.207  0.8231 -0.5270  0.6303
 1595TIP3    H226421   3.006   0.824   1.060  0.1384  0.9745  0.3258
 1596TIP3   OH226422   6.773   5.335   0.876  0.0794 -0.2463  0.3390
 1596TIP3    H126423   6.825   5.369   0.803  0.3376 -0.3341  0.4814
 1596TIP3    H226424   6.837   5.296   0.935 -0.2742 -1.7393 -0.2283
 1597TIP3   OH226425   2.903   4.218   6.228 -0.3514 -0.2382 -0.4607
 1597TIP3    H126426   2.828   4.230   6.287  0.6871 -0.0364  0.8837
 1597TIP3    H226427   2.916   4.123   6.226  0.0334 -0.2019  0.1985
 1598TIP3   OH226428   3.000   6.609   8.559 -0.3109 -0.2397 -0.3382
 1598TIP3    H126429   3.003   6.643   8.648  0.0110  1.2146 -0.8757
 1598TIP3    H226430   2.948   6.529   8.565 -3.0145  1.4634  0.6735
 1599TIP3   OH226431   0.966   5.930   1.025 -0.1952  0.0591  0.0238
 1599TIP3    H126432   0.872   5.915   1.024 -0.4945  1.6219  0.8934
 1599TIP3    H226433   0.975   6.025   1.016  1.3997 -0.2067 -2.1590
 1600TIP3   OH226434   6.774   5.382   0.183  0.4534  0.5776  0.4984
 1600TIP3    H126435   6.706   5.316   0.191  0.3349  0.6002 -0.2746
 1600TIP3    H226436   6.732   5.464   0.209  0.5640  0.3908  1.3232
 1601TIP3   OH226437   6.511   2.484   1.726  0.3147  0.2610 -0.0993
 1601TIP3    H126438   6.531   2.430   1.803 -0.0477 -0.2817 -0.3825
 1601TIP3    H226439   6.432   2.445   1.690 -0.1609  1.2076 -0.1037
 1602TIP3   OH226440   1.770   6.743   1.931  0.1776  0.3094  0.0855
 1602TIP3    H126441   1.723   6.826   1.942  1.6062  1.1524  0.0916
 1602TIP3    H226442   1.815   6.730   2.014 -0.6644 -0.9168  0.3775
 1603TIP3   OH226443   5.231   1.211   8.744  0.1340  0.0533  0.5417
 1603TIP3    H126444   5.200   1.295   8.713  0.3080  0.7537  2.1612
 1603TIP3    H226445   5.325   1.224   8.760  0.2902 -0.6266  0.2244
 1604TIP3   OH226446   3.810   2.228   6.532  0.0370 -0.5179 -0.0268
 1604TIP3    H126447   3.874   2.287   6.492 -1.0807 -0.0438 -1.1759
 1604TIP3    H226448   3.773   2.278   6.605  2.8859 -1.7782  2.5394
 1605TIP3   OH226449   1.349   5.811   1.428  0.2591 -0.7184 -0.0993
 1605TIP3    H126450   1.434   5.855   1.428  0.2226 -0.6399 -0.4837
 1605TIP3    H226451   1.371   5.718   1.438  0.3594 -0.6539  0.2919
 1606TIP3   OH226452   6.003   5.801   1.933 -0.4044  0.2753  0.0224
 1606TIP3    H126453   5.938   5.733   1.952  0.1375 -0.6141 -1.1663
 1606TIP3    H226454   6.010   5.801   1.838  1.3770  0.3068  0.1306
 1607TIP3   OH226455   2.646   5.607   7.918  0.6407 -1.2708 -0.1183
 1607TIP3    H126456   2.678   5.625   8.006  0.7895 -1.6898 -0.0866
 1607TIP3    H226457   2.613   5.691   7.887  0.5167 -1.1359  0.3661
 1608TIP3   OH226458   5.528   6.217   2.141  0.2183 -0.3170 -0.5805
 1608TIP3    H126459   5.467   6.166   2.088  1.6907  0.8598 -3.6595
 1608TIP3    H226460   5.474   6.288   2.177 -0.7250 -0.8129 -0.9612
 1609TIP3   OH226461   1.417   2.594   0.113  0.1292 -0.1156  0.1191
 1609TIP3    H126462   1.486   2.541   0.153 -0.1512 -0.2356  0.4465
 1609TIP3    H226463   1.339   2.575   0.165 -0.6771 -1.6358 -1.5786
 1610TIP3   OH226464   0.744   1.984   7.654  0.5428  1.2650  0.0704
 1610TIP3    H126465   0.729   2.075   7.680 -0.9107  1.2259 -0.5852
 1610TIP3    H226466   0.661   1.939   7.671  1.5520 -0.2188  1.4263
 1611TIP3   OH226467   6.546   2.468   8.486  0.1134  0.4110 -0.6310
 1611TIP3    H126468   6.568   2.379   8.458 -1.9097 -0.7895  1.3035
 1611TIP3    H226469   6.495   2.504   8.414 -0.5762 -0.6778 -0.7002
 1612TIP3   OH226470   3.406   4.614   2.243  0.6815 -0.1602  0.3283
 1612TIP3    H126471   3.335   4.581   2.299 -0.5940  0.5990 -0.7777
 1612TIP3    H226472   3.468   4.654   2.304  0.8596 -2.0246  1.4504
 1613TIP3   OH226473   5.364   1.853   0.894 -0.1881  0.5256 -0.1988
 1613TIP3    H126474   5.405   1.821   0.974 -2.3147 -1.1205  0.3180
 1613TIP3    H226475   5.433   1.901   0.849  1.3175  0.7432  2.1812
 1614TIP3   OH226476   5.023   3.627   0.056 -0.5928 -0.6341  0.1717
 1614TIP3    H126477   5.072   3.554   0.094 -0.5115 -0.5614  0.2075
 1614TIP3    H226478   5.023   3.693   0.125 -0.8621 -0.6880  0.2241
 1615TIP3   OH226479   6.046   2.703   0.861  0.1302  0.1655 -0.6535
 1615TIP3    H126480   6.036   2.702   0.766 -1.9859 -0.3126 -0.4867
 1615TIP3    H226481   6.009   2.788   0.888  2.4935  1.1729 -0.3511
 1616TIP3   OH226482   3.112   6.527   7.773  0.5910 -0.7059 -0.1968
 1616TIP3    H126483   3.134   6.581   7.849 -0.9886 -1.0543  0.5408
 1616TIP3    H226484   3.195   6.484   7.749  1.5365  0.8719  0.1117
 1617TIP3   OH226485   0.399   1.419   6.735  0.2208  0.4876  0.1655
 1617TIP3    H126486   0.320   1.413   6.681  0.3397  0.8758 -0.0626
 1617TIP3    H226487   0.408   1.513   6.753 -1.5484  0.1314  3.4950
 1618TIP3   OH226488   2.802   0.655   7.248  0.1677 -0.2696  0.1988
 1618TIP3    H126489   2.736   0.651   7.179  1.1397 -1.5265 -0.6908
 1618TIP3    H226490   2.818   0.563   7.271  0.8958  0.0707  1.1051
 1619TIP3   OH226491   4.593   6.559   1.841 -0.7843  0.0048 -0.1319
 1619TIP3    H126492   4.650   6.569   1.765  0.3536 -1.7509  0.4240
 1619TIP3    H226493   4.652   6.539   1.914 -1.8000  2.0489  1.3509
 1620TIP3   OH226494   5.464   3.719   0.658  0.0015  0.5980 -0.0097
 1620TIP3    H126495   5.417   3.690   0.736 -0.7117 -1.5884 -1.1887
 1620TIP3    H226496   5.542   3.763   0.693 -1.5312  1.9361  1.9365
 1621TIP3   OH226497   5.548   3.226   1.897 -0.6598 -0.1708 -0.0860
 1621TIP3    H126498   5.463   3.187   1.919 -1.5331  1.3918 -0.5242
 1621TIP3    H226499   5.536   3.261   1.809  0.0696  1.0587  0.2771
 1622TIP3   OH226500   6.593   3.353   0.603  0.2115  0.3641  0.2247
 1622TIP3    H126501   6.513   3.351   0.656  0.2539 -0.7509  0.2774
 1622TIP3    H226502   6.662   3.379   0.664 -0.1514  1.6683  0.1014
 1623TIP3   OH226503   2.600   5.765   6.958  0.1115 -0.4215  0.2637
 1623TIP3    H126504   2.610   5.779   6.864  0.3256 -2.9867 -0.1803
 1623TIP3    H226505   2.672   5.813   6.997 -1.3393  2.6978 -0.5886
 1624TIP3   OH226506   0.081   2.334   0.563 -0.3607 -0.0415 -0.4770
 1624TIP3    H126507   0.158   2.317   0.618 -1.9032  1.5116  2.3982
 1624TIP3    H226508   0.022   2.261   0.581 -0.8769  0.4797  0.0188
 1625TIP3   OH226509   3.630   0.052   1.953  0.7605 -0.0951  0.3079
 1625TIP3    H126510   3.581   0.126   1.990  0.4053  0.2402 -0.8056
 1625TIP3    H226511   3.719   0.086   1.943  1.1204 -0.5172  1.7765
 1626TIP3   OH226512   4.778   4.470   0.191  0.6243  0.0241  0.5719
 1626TIP3    H126513   4.829   4.522   0.254  2.4572 -1.0830  0.0743
 1626TIP3    H226514   4.708   4.431   0.244  0.5674  1.1772  1.3916
 1627TIP3   OH226515   4.055   4.502   0.677  0.4162  0.2857 -0.4052
 1627TIP3    H126516   4.104   4.559   0.618  0.4774  0.1918 -0.4453
 1627TIP3    H226517   4.106   4.502   0.758 -1.5078  3.3585  0.9817
 1628TIP3   OH226518   4.492   6.795   6.817 -0.3359  0.4844 -0.2278
 1628TIP3    H126519   4.579   6.788   6.855 -0.5129  1.7028  0.4545
 1628TIP3    H226520   4.483   6.887   6.792 -1.3595  0.3475 -0.4439
 1629TIP3   OH226521   6.781   1.678   2.442 -0.0753 -0.0438  0.1179
 1629TIP3    H126522   6.773   1.721   2.357  2.3078  0.3572  0.0215
 1629TIP3    H226523   6.850   1.614   2.430 -1.3301 -1.6789  1.1685
 1630TIP3   OH226524   5.641   4.057   0.459 -0.0611 -0.5516  0.4549
 1630TIP3    H126525   5.724   4.010   0.467  1.0943  1.4639  1.0787
 1630TIP3    H226526   5.621   4.085   0.549 -1.2466 -0.7289  0.2562
 1631TIP3   OH226527   2.933   2.621   7.902 -0.1942  0.5720  0.7405
 1631TIP3    H126528   2.984   2.701   7.907  0.7390 -0.0104  0.7661
 1631TIP3    H226529   2.922   2.593   7.993  0.2237  0.2111  0.6792
 1632TIP3   OH226530   5.947   3.077   0.750 -0.4898  0.1089 -0.1061
 1632TIP3    H126531   6.017   3.085   0.686  1.8181 -0.1553  2.2388
 1632TIP3    H226532   5.949   3.160   0.798 -1.0552 -0.3277  0.6977
 1633TIP3   OH226533   2.085   5.041   8.486  0.2712  0.2505 -0.0341
 1633TIP3    H126534   2.123   4.971   8.434 -0.2395  0.7708 -1.1381
 1633TIP3    H226535   2.073   5.002   8.573 -1.4766 -1.5780 -1.0013
 1634TIP3   OH226536   0.059   3.238   7.489 -0.4267  0.0231  0.3791
 1634TIP3    H126537   0.127   3.227   7.556  1.4685 -0.2031 -1.4475
 1634TIP3    H226538   0.032   3.330   7.497 -0.3456 -0.0413  1.5351
 1635TIP3   OH226539   6.677   2.299   0.403 -0.6687  0.0084 -0.2456
 1635TIP3    H126540   6.640   2.213   0.423  1.4747 -1.4888 -2.2288
 1635TIP3    H226541   6.767   2.295   0.436  0.8720 -0.2330 -3.9677
 1636TIP3   OH226542   6.124   1.610   1.240 -0.0244 -0.9592  0.0878
 1636TIP3    H126543   6.105   1.565   1.158 -0.1243  2.2104 -1.7823
 1636TIP3    H226544   6.190   1.675   1.217 -0.4582  0.4039  2.3911
 1637TIP3   OH226545   0.245   0.179   8.591 -0.0997 -0.0945  0.6237
 1637TIP3    H126546   0.302   0.225   8.652 -1.9676  2.9634  0.2539
 1637TIP3    H226547   0.295   0.175   8.510  0.7360 -0.2546  1.1353
 1638TIP3   OH226548   6.770   6.135   8.449  0.5021  0.3427 -0.2926
 1638TIP3    H126549   6.726   6.092   8.375  0.6369 -0.8519  0.3022
 1638TIP3    H226550   6.848   6.175   8.411  0.2339  0.2870 -0.9111
 1639TIP3   OH226551   5.665   1.653   2.742 -0.0952 -0.4501  0.1754
 1639TIP3    H126552   5.588   1.698   2.777 -0.1646 -0.8230  0.5234
 1639TIP3    H226553   5.714   1.626   2.820 -0.2069 -1.2272 -0.0148
 1640TIP3   OH226554   0.349   6.281   1.917 -0.4604  0.1896 -0.0711
 1640TIP3    H126555   0.376   6.193   1.945 -0.0723 -1.2297 -4.1197
 1640TIP3    H226556   0.254   6.274   1.905 -0.6304  0.7760  0.8810
 1641TIP3   OH226557   2.685   1.351   0.598  0.1647 -0.1371  0.3009
 1641TIP3    H126558   2.591   1.337   0.606 -0.1762  1.9451  0.4019
 1641TIP3    H226559   2.699   1.442   0.623  2.1548 -0.2448 -0.1797
 1642TIP3   OH226560   4.563   4.118   6.910 -0.8165 -0.5250 -0.1689
 1642TIP3    H126561   4.584   4.033   6.873  0.9367  0.0938 -0.7138
 1642TIP3    H226562   4.643   4.169   6.899 -1.7637  1.1421  0.3072
 1643TIP3   OH226563   4.153   6.127   6.972 -0.2292  0.6505  0.0368
 1643TIP3    H126564   4.165   6.087   6.886  0.6549  0.1738  0.3704
 1643TIP3    H226565   4.236   6.170   6.991  0.9860 -2.2185  2.1452
 1644TIP3   OH226566   5.925   0.308   7.438 -0.3660 -0.2463  0.4112
 1644TIP3    H126567   5.919   0.404   7.434  0.5582 -0.2005 -2.0950
 1644TIP3    H226568   6.014   0.291   7.469 -0.4014 -0.2816  0.4923
 1645TIP3   OH226569   1.554   6.463   0.983  0.1557 -0.2534  0.3272
 1645TIP3    H126570   1.493   6.471   0.910 -0.1636  1.0565  0.7108
 1645TIP3    H226571   1.501   6.481   1.061  0.9495  0.5815  0.6919
 1646TIP3   OH226572   6.284   3.366   6.968 -0.2923 -0.8150 -0.0185
 1646TIP3    H126573   6.290   3.451   6.924 -0.0672 -0.4440  0.7084
 1646TIP3    H226574   6.304   3.302   6.900  2.4277 -0.1568  0.0272
 1647TIP3   OH226575   6.211   5.011   1.045  0.3105  0.1729  0.1637
 1647TIP3    H126576   6.234   5.104   1.043 -0.4483  0.3693  0.0199
 1647TIP3    H226577   6.219   4.983   0.954  3.1641 -0.6076  0.5635
 1648TIP3   OH226578   1.782   5.628   7.960 -0.1419  0.6452  0.5031
 1648TIP3    H126579   1.842   5.658   8.028 -0.0064  0.0750  0.6323
 1648TIP3    H226580   1.775   5.703   7.900  0.2977  0.8914  0.7547
 1649TIP3   OH226581   1.081   5.732   2.111  0.0492  0.3773  0.0109
 1649TIP3    H126582   1.030   5.654   2.088 -0.2441  0.1323  1.3769
 1649TIP3    H226583   1.057   5.797   2.046  1.4855 -1.1020 -2.1524
 1650TIP3   OH226584   2.564   2.205   2.042  0.0029  0.1164  0.0538
 1650TIP3    H126585   2.599   2.148   1.973 -0.5376 -0.3206  0.1329
 1650TIP3    H226586   2.635   2.209   2.107  0.7334  0.9810 -0.7627
 1651TIP3   OH226587   5.186   2.154   0.024  0.1345 -0.4543 -0.0058
 1651TIP3    H126588   5.198   2.225   0.087 -0.1864 -1.4883  1.2732
 1651TIP3    H226589   5.240   2.179  -0.051  1.5177  0.2498  1.1640
 1652TIP3   OH226590   5.874   3.829   8.465  0.4736  0.0236 -0.9809
 1652TIP3    H126591   5.802   3.875   8.508  1.4921  2.0163 -1.3071
 1652TIP3    H226592   5.856   3.737   8.482 -1.5294  0.5119 -0.0867
 1653TIP3   OH226593   1.415   5.277   7.114  0.6062  0.1586 -0.1214
 1653TIP3    H126594   1.428   5.274   7.019  2.2815  1.3806  0.0337
 1653TIP3    H226595   1.371   5.361   7.129 -0.8355 -0.6032  0.0981
 1654TIP3   OH226596   0.048   5.735   8.273 -0.1811  0.0268 -0.1145
 1654TIP3    H126597   0.115   5.767   8.334 -0.0978  0.3280 -0.3584
 1654TIP3    H226598  -0.024   5.708   8.328  0.1747 -0.3765  0.1589
 1655TIP3   OH226599   3.515   5.832   0.030 -0.8256 -0.5006 -0.1611
 1655TIP3    H126600   3.520   5.795  -0.059 -0.8744 -1.8810  0.3892
 1655TIP3    H226601   3.600   5.811   0.069 -2.0092 -3.0591  1.2685
 1656TIP3   OH226602   1.409   1.608   0.811 -0.0638  0.0705  0.2766
 1656TIP3    H126603   1.397   1.575   0.900  1.7132  1.0713  0.9387
 1656TIP3    H226604   1.363   1.691   0.810  1.7215  1.1264  1.0067
 1657TIP3   OH226605   6.847   5.619   0.978 -0.2557  0.1694 -0.2234
 1657TIP3    H126606   6.939   5.601   0.997 -0.2918 -0.1377 -0.3290
 1657TIP3    H226607   6.827   5.562   0.903 -0.8776 -0.7349  0.6042
 1658TIP3   OH226608   2.435   5.176   7.362 -0.3224  0.0550 -0.1523
 1658TIP3    H126609   2.385   5.122   7.423  1.2428 -0.7195  0.5138
 1658TIP3    H226610   2.454   5.256   7.410 -1.5742  0.7054 -0.6972
 1659TIP3   OH226611   1.231   3.648   1.134  0.1826 -0.1346 -0.0265
 1659TIP3    H126612   1.180   3.649   1.053  1.3417  1.3683 -0.7996
 1659TIP3    H226613   1.313   3.692   1.111  0.3605  0.7581  2.0826
 1660TIP3   OH226614   0.687   6.709   2.092  0.1245  0.0168 -0.4841
 1660TIP3    H126615   0.722   6.622   2.109 -0.5102 -0.1821 -0.1742
 1660TIP3    H226616   0.622   6.724   2.161  0.5779  0.9372 -0.2412
 1661TIP3   OH226617   4.268   1.547   0.539  0.4325  0.1497  0.5885
 1661TIP3    H126618   4.324   1.496   0.481  2.5277  0.2876  2.3472
 1661TIP3    H226619   4.226   1.482   0.595 -0.9488  0.0702 -0.5062
 1662TIP3   OH226620   3.686   3.892   1.253  0.3308  0.0474  0.5926
 1662TIP3    H126621   3.721   3.848   1.176 -1.4159  0.7380 -0.6457
 1662TIP3    H226622   3.734   3.853   1.326  1.5320 -1.1313 -0.7559
 1663TIP3   OH226623   2.429   4.100   7.404 -0.0904 -0.1615 -0.3569
 1663TIP3    H126624   2.451   4.134   7.490 -1.0409 -0.6536  0.1049
 1663TIP3    H226625   2.437   4.175   7.345 -1.5399  0.7405  0.5286
 1664TIP3   OH226626   4.843   3.430   1.679 -0.0514  0.2549  0.3166
 1664TIP3    H126627   4.908   3.493   1.648 -0.3386  0.8277  0.8542
 1664TIP3    H226628   4.786   3.481   1.737 -1.2197 -0.1419 -0.4571
 1665TIP3   OH226629   1.496   3.826   1.968  0.0189 -0.1416 -0.3132
 1665TIP3    H126630   1.484   3.921   1.971  1.4935  0.1296 -1.7947
 1665TIP3    H226631   1.445   3.793   2.043 -2.2457  1.5943 -0.9769
 1666TIP3   OH226632   0.223   2.831   1.368  0.1130  0.5797  0.2767
 1666TIP3    H126633   0.202   2.741   1.393 -0.4040  0.4022 -0.7523
 1666TIP3    H226634   0.190   2.884   1.441 -2.3398  0.1554 -0.4242
 1667TIP3   OH226635   6.393   6.095   7.486  0.3944 -0.3561 -0.0445
 1667TIP3    H126636   6.422   6.006   7.464  1.4336 -0.2256  0.7025
 1667TIP3    H226637   6.349   6.126   7.407  0.1128 -1.4917 -0.3579
 1668TIP3   OH226638   5.813   1.404   2.266 -0.3344  0.7306  0.2178
 1668TIP3    H126639   5.786   1.459   2.339  0.4853  1.9861 -0.3767
 1668TIP3    H226640   5.833   1.466   2.196  0.7646 -0.3157 -0.4346
 1669TIP3   OH226641   5.086   3.907   6.868  0.1426 -0.1371  0.0176
 1669TIP3    H126642   5.070   3.880   6.958  0.9781 -1.1692 -0.1279
 1669TIP3    H226643   5.123   3.995   6.875  0.1934 -0.2074  0.6739
 1670TIP3   OH226644   1.736   1.769   7.912  0.6870 -0.1485 -0.0215
 1670TIP3    H126645   1.642   1.754   7.909  0.3495  1.6562  0.3084
 1670TIP3    H226646   1.770   1.727   7.833 -0.5709  0.3267 -0.8313
 1671TIP3   OH226647   2.890   3.736   7.026 -0.3390 -0.2166  0.0459
 1671TIP3    H126648   2.972   3.714   7.070 -1.1399 -1.2754  1.0677
 1671TIP3    H226649   2.863   3.655   6.984 -0.6494  0.2422 -0.6591
 1672TIP3   OH226650   4.202   0.154   1.254  0.0381 -0.0239  0.2107
 1672TIP3    H126651   4.287   0.171   1.296 -0.4053  1.7183  0.4549
 1672TIP3    H226652   4.225   0.127   1.165  0.8913 -1.3532  0.7818
 1673TIP3   OH226653   2.585   4.396   8.439 -0.2454 -0.8568 -0.4555
 1673TIP3    H126654   2.666   4.443   8.418 -0.3534 -1.0656 -1.3431
 1673TIP3    H226655   2.534   4.397   8.358 -1.5696  0.1137  0.3426
 1674TIP3   OH226656   3.936   2.007   0.643  0.3374  0.1044  0.5569
 1674TIP3    H126657   3.903   1.932   0.693 -0.3009 -0.1402 -0.2165
 1674TIP3    H226658   3.858   2.052   0.612  0.7211  0.4001 -0.0020
 1675TIP3   OH226659   1.314   4.126   8.785  0.5087  0.6892 -0.0657
 1675TIP3    H126660   1.347   4.071   8.714  1.3831  1.4245 -0.2326
 1675TIP3    H226661   1.292   4.064   8.855 -0.6853 -0.0716 -1.0788
 1676TIP3   OH226662   1.112   3.673   0.366  0.0990 -0.6838  1.0600
 1676TIP3    H126663   1.042   3.610   0.379 -0.3687 -0.6211 -0.8293
 1676TIP3    H226664   1.077   3.736   0.303  1.6956 -0.4181  0.3751
 1677TIP3   OH226665   5.170   4.772   1.470  0.3472 -0.0563  0.2745
 1677TIP3    H126666   5.199   4.695   1.420  1.1694 -0.2594  1.0441
 1677TIP3    H226667   5.125   4.736   1.546 -0.3761  0.2499  0.0021
 1678TIP3   OH226668   4.160   1.507   8.372 -0.2483  0.5074 -0.2555
 1678TIP3    H126669   4.248   1.542   8.385 -0.1726  0.7771 -1.3887
 1678TIP3    H226670   4.103   1.568   8.418  0.2435 -0.4103  1.6483
 1679TIP3   OH226671   4.826   0.859   7.539 -0.1119  0.6971 -0.6439
 1679TIP3    H126672   4.876   0.905   7.605  0.0816 -0.3702 -0.0229
 1679TIP3    H226673   4.806   0.925   7.473  1.7278  1.2431 -0.6953
 1680TIP3   OH226674   0.249   1.094   2.650  0.0483  0.6044 -0.2306
 1680TIP3    H126675   0.303   1.051   2.717  0.6969 -0.6093 -1.4866
 1680TIP3    H226676   0.181   1.140   2.700  0.3887 -0.4277  1.2453
 1681TIP3   OH226677   2.249   3.552   1.838  0.6481 -0.0241  0.4607
 1681TIP3    H126678   2.239   3.519   1.748  0.5483 -1.2765  0.9034
 1681TIP3    H226679   2.298   3.483   1.883  0.6639  0.5706  1.3736
 1682TIP3   OH226680   4.718   1.721   0.016 -0.2116 -0.3197 -0.1300
 1682TIP3    H126681   4.787   1.665   0.049  0.5134 -0.7427 -2.2335
 1682TIP3    H226682   4.754   1.759  -0.064 -1.9754  0.4006 -0.6278
 1683TIP3   OH226683   1.556   2.813   8.281  0.1252  0.1107  0.0249
 1683TIP3    H126684   1.588   2.857   8.360  0.1939 -0.0631  0.0942
 1683TIP3    H226685   1.542   2.883   8.218  1.7188  0.1009 -0.3900
 1684TIP3   OH226686   1.600   5.258   8.254 -0.1900 -0.1092 -0.0546
 1684TIP3    H126687   1.611   5.353   8.248  1.1921 -0.2014  0.6056
 1684TIP3    H226688   1.689   5.223   8.244 -0.1797 -1.1529  2.7477
 1685TIP3   OH226689   2.422   1.510   1.177  0.1082  0.3197 -0.0622
 1685TIP3    H126690   2.365   1.555   1.114 -0.7623 -2.2295 -1.2376
 1685TIP3    H226691   2.496   1.479   1.124  0.8408  0.5867  0.7810
 1686TIP3   OH226692   4.436   1.975   8.130 -0.1893 -0.4915  0.0252
 1686TIP3    H126693   4.378   2.051   8.139  1.3579  1.0417 -1.9272
 1686TIP3    H226694   4.401   1.927   8.055 -0.0456 -0.6279  0.0439
 1687TIP3   OH226695   1.166   5.274   7.417  0.1971 -0.5785  0.2713
 1687TIP3    H126696   1.079   5.303   7.390  0.1229 -1.2267 -0.2079
 1687TIP3    H226697   1.223   5.298   7.343  0.8822  1.9400  1.4959
 1688TIP3   OH226698   5.431   4.324   0.914  0.2384 -0.3869  0.5505
 1688TIP3    H126699   5.406   4.413   0.938 -1.0027 -0.6854  0.4439
 1688TIP3    H226700   5.438   4.277   0.997  1.1679 -0.1357  0.6248
 1689TIP3   OH226701   4.033   3.641   2.069  0.3070  0.2786 -0.4543
 1689TIP3    H126702   3.959   3.668   2.124  0.9320 -0.1050  0.6033
 1689TIP3    H226703   3.992   3.616   1.985 -0.9434 -1.2311  0.5442
 1690TIP3   OH226704   2.787   5.149   1.421  0.0852 -0.6421  0.8511
 1690TIP3    H126705   2.745   5.125   1.503 -0.8350 -1.5828  0.1473
 1690TIP3    H226706   2.781   5.244   1.417 -1.9147 -0.7204  0.8554
 1691TIP3   OH226707   5.025   6.326   7.942 -0.3592 -0.5216 -0.3841
 1691TIP3    H126708   5.108   6.329   7.990 -0.3643  0.9153 -0.4406
 1691TIP3    H226709   5.030   6.244   7.892 -0.4841 -2.2302  2.2220
 1692TIP3   OH226710   2.634   6.424   8.556  0.2544  0.4064  1.0609
 1692TIP3    H126711   2.632   6.482   8.480  1.2241 -0.6111  0.2203
 1692TIP3    H226712   2.650   6.482   8.630 -0.2272  1.3622  0.4352
 1693TIP3   OH226713   4.370   2.047   0.523  0.2360  0.4646 -0.2308
 1693TIP3    H126714   4.455   2.090   0.528  0.7706 -0.4235 -1.2270
 1693TIP3    H226715   4.306   2.118   0.532  0.9062  0.8074  4.5510
 1694TIP3   OH226716   5.303   3.893   2.623 -0.1891  0.1416 -0.3920
 1694TIP3    H126717   5.227   3.902   2.565 -0.7948 -0.3827  0.3036
 1694TIP3    H226718   5.295   3.805   2.659  0.6554  0.1503 -0.1750
 1695TIP3   OH226719   5.620   5.378   0.757  0.3247 -0.1270 -0.4659
 1695TIP3    H126720   5.646   5.286   0.767 -2.3772 -0.9959 -0.5047
 1695TIP3    H226721   5.586   5.403   0.843  0.7744  0.7653 -0.5367
 1696TIP3   OH226722   3.211   6.107   1.882 -0.9519 -0.2961 -0.5092
 1696TIP3    H126723   3.199   6.014   1.864 -2.2625 -0.0380 -1.0955
 1696TIP3    H226724   3.163   6.123   1.963 -1.2805 -0.0052 -0.7589
 1697TIP3   OH226725   0.172   5.131   1.815 -0.1019 -0.2847  0.3659
 1697TIP3    H126726   0.185   5.220   1.783  0.8424 -0.0925  1.2041
 1697TIP3    H226727   0.129   5.143   1.900 -0.3129 -0.6437  0.3087
 1698TIP3   OH226728   5.783   1.035   2.341 -0.1108  0.1658 -0.6426
 1698TIP3    H126729   5.692   1.060   2.358 -0.3357 -2.0445  2.1464
 1698TIP3    H226730   5.777   0.953   2.292  0.3269 -0.5332  0.4462
 1699TIP3   OH226731   3.868   0.396   7.464 -0.1959 -0.4107  0.1028
 1699TIP3    H126732   3.862   0.446   7.545  0.4230  1.1493 -0.7833
 1699TIP3    H226733   3.784   0.409   7.421 -0.0934 -0.2801 -0.0560
 1700TIP3   OH226734   3.847   5.606   1.579 -0.4511 -0.0048  0.4624
 1700TIP3    H126735   3.905   5.567   1.514 -1.8330  1.0911 -1.5324
 1700TIP3    H226736   3.897   5.679   1.616 -0.2849  0.5603 -0.8143
 1701TIP3   OH226737   1.345   3.265   8.028  0.3443 -0.5495 -0.5315
 1701TIP3    H126738   1.315   3.206   8.097  2.3091 -1.1081 -0.0788
 1701TIP3    H226739   1.270   3.322   8.011 -0.9564 -1.8927  0.4196
 1702TIP3   OH226740   5.080   3.700   1.410  0.0530  0.2664 -0.2899
 1702TIP3    H126741   5.063   3.686   1.317  1.0852  1.4777 -0.6893
 1702TIP3    H226742   5.125   3.620   1.438  2.6044  1.0976 -1.6351
 1703TIP3   OH226743   2.930   0.691   1.709  0.4906 -0.5679  0.6828
 1703TIP3    H126744   2.989   0.649   1.647 -1.7401 -2.2655 -0.4571
 1703TIP3    H226745   2.888   0.619   1.756  0.0186  0.5936  2.1538
 1704TIP3   OH226746   3.845   3.172   7.262  0.1482 -0.1436 -0.0413
 1704TIP3    H126747   3.812   3.251   7.305 -1.0467 -1.3514  1.3588
 1704TIP3    H226748   3.784   3.158   7.189 -0.9415 -0.8733  0.9528
 1705TIP3   OH226749   1.506   4.539   1.468 -0.0107 -0.0992  0.0242
 1705TIP3    H126750   1.430   4.556   1.412  0.6394 -0.0648 -0.8767
 1705TIP3    H226751   1.516   4.619   1.519 -1.2452 -0.5201  0.9911
 1706TIP3   OH226752   0.415   1.779   0.986  0.2533  0.7798 -0.0466
 1706TIP3    H126753   0.355   1.740   1.050  2.1548 -0.7401  0.9123
 1706TIP3    H226754   0.434   1.866   1.021  0.2137  0.4797  0.7490
 1707TIP3   OH226755   3.588   3.415   2.260  0.9452  0.3144 -0.2908
 1707TIP3    H126756   3.520   3.348   2.270  2.5906 -1.1575  2.1282
 1707TIP3    H226757   3.543   3.498   2.274 -0.5268 -0.5428  0.2583
 1708TIP3   OH226758   3.986   5.580   8.461  0.1465 -0.3090 -0.4523
 1708TIP3    H126759   3.904   5.550   8.422  0.1448  0.2809 -0.9190
 1708TIP3    H226760   3.960   5.646   8.525  0.2524 -0.1973 -0.5242
 1709TIP3   OH226761   3.911   6.421   1.538  0.0974  0.3500  0.6700
 1709TIP3    H126762   3.980   6.414   1.472  0.3892  0.3955  0.9711
 1709TIP3    H226763   3.860   6.497   1.510 -1.2561 -1.0428 -0.8883
 1710TIP3   OH226764   4.343   1.852   7.915  0.4795  0.0917  0.2825
 1710TIP3    H126765   4.248   1.842   7.906  0.3574 -0.8328  2.2446
 1710TIP3    H226766   4.379   1.802   7.841 -0.5521 -0.0742 -0.1233
 1711TIP3   OH226767   2.946   4.232   6.984  0.0116 -0.1781  0.2325
 1711TIP3    H126768   2.851   4.238   6.980  0.1389  1.7459 -1.4075
 1711TIP3    H226769   2.964   4.138   6.988 -1.9133 -0.6281 -0.6265
 1712TIP3   OH226770   4.790   0.720   1.541  0.3227  0.3915 -0.4245
 1712TIP3    H126771   4.827   0.722   1.452  0.4006 -0.9092 -0.4404
 1712TIP3    H226772   4.699   0.694   1.528 -0.4310  2.7605 -0.3110
 1713TIP3   OH226773   1.985   5.585   7.661  0.2628 -0.3320  0.1790
 1713TIP3    H126774   1.928   5.514   7.690 -0.7261  0.8756  1.2926
 1713TIP3    H226775   1.925   5.655   7.635  1.2151  0.8332  1.0248
 1714TIP3   OH226776   0.614   1.252   6.717 -0.6043  0.2287  0.0450
 1714TIP3    H126777   0.571   1.167   6.711 -0.6716  0.3605 -3.0656
 1714TIP3    H226778   0.547   1.314   6.690 -0.0898  1.1201  0.7618
 1715TIP3   OH226779   4.076   0.473   8.797  0.0247  0.0959 -0.1006
 1715TIP3    H126780   4.033   0.550   8.835  1.7105  1.3438 -0.6444
 1715TIP3    H226781   4.024   0.453   8.719 -0.6153  0.4789  0.2187
 1716TIP3   OH226782   4.447   4.398   0.707 -0.8562  0.1838 -0.5611
 1716TIP3    H126783   4.402   4.334   0.762  0.1272 -0.9452 -1.0530
 1716TIP3    H226784   4.540   4.377   0.715 -0.3396  2.4482  0.4013
 1717TIP3   OH226785   6.726   3.249   6.676 -0.6457 -0.3819 -0.8321
 1717TIP3    H126786   6.769   3.169   6.706  0.3167  0.9531  1.6380
 1717TIP3    H226787   6.785   3.319   6.703 -2.3454  1.2661 -1.2221
 1718TIP3   OH226788   6.684   2.240   1.974 -0.4121 -0.2742 -0.4319
 1718TIP3    H126789   6.594   2.258   2.003 -0.3784 -0.4260 -0.2270
 1718TIP3    H226790   6.728   2.207   2.053 -0.0876  0.1068 -0.4509
 1719TIP3   OH226791   2.425   1.618   2.183  0.7874  0.2427  0.4462
 1719TIP3    H126792   2.401   1.607   2.091  0.2204 -0.4980  0.6699
 1719TIP3    H226793   2.462   1.706   2.188  2.1341 -0.2154 -0.7595
 1720TIP3   OH226794   0.815   0.821   1.193 -0.1484  0.3613  0.8293
 1720TIP3    H126795   0.864   0.866   1.261  0.5790 -0.8607  1.1387
 1720TIP3    H226796   0.724   0.825   1.222  0.0582  0.5483  1.4601
 1721TIP3   OH226797   4.974   4.620   0.016 -0.0764  0.2740  0.1662
 1721TIP3    H126798   4.886   4.613  -0.021  0.1813 -1.5572 -0.2120
 1721TIP3    H226799   4.960   4.637   0.109 -0.8140  0.4407  0.0315
 1722TIP3   OH226800   1.399   5.593   0.197 -0.0911  0.4821  0.1848
 1722TIP3    H126801   1.323   5.541   0.223  1.0504 -2.0228 -1.1419
 1722TIP3    H226802   1.465   5.571   0.263 -0.0904  1.6443  0.5931
 1723TIP3   OH226803   2.428   0.065   8.033  0.0998 -0.3527 -0.0653
 1723TIP3    H126804   2.453   0.066   8.125 -0.1300 -0.3795 -0.0001
 1723TIP3    H226805   2.362  -0.004   8.027  0.5451 -0.7589 -0.3691
 1724TIP3   OH226806   2.385   3.287   7.099  0.0210  0.2090 -0.2547
 1724TIP3    H126807   2.423   3.298   7.187  2.1978 -0.5803 -1.0343
 1724TIP3    H226808   2.313   3.226   7.112 -0.9815  1.6111  1.2601
 1725TIP3   OH226809   3.526   0.283   1.282  0.1425  0.6904 -0.3460
 1725TIP3    H126810   3.517   0.300   1.375 -1.6753  1.0091 -0.5580
 1725TIP3    H226811   3.448   0.233   1.258  0.2872  1.1040 -1.8172
 1726TIP3   OH226812   1.672   2.054   7.012  0.5071  0.4025 -0.2642
 1726TIP3    H126813   1.596   2.038   7.069  1.6253 -4.0831  0.3603
 1726TIP3    H226814   1.748   2.045   7.069  1.5834  0.9838 -1.5541
 1727TIP3   OH226815   0.753   4.323   7.614 -0.1004 -0.1274  0.1344
 1727TIP3    H126816   0.765   4.318   7.520  0.2503 -0.1940  0.1825
 1727TIP3    H226817   0.840   4.306   7.651  0.7163  3.8006  0.3875
 1728TIP3   OH226818   0.372   3.013   7.508 -0.0642 -0.2953 -0.5340
 1728TIP3    H126819   0.385   3.010   7.413 -0.1092  3.2985 -0.7880
 1728TIP3    H226820   0.295   2.959   7.523  0.7438 -2.0705 -2.2978
 1729TIP3   OH226821   3.304   0.536   8.718 -0.1437 -0.1069 -0.3758
 1729TIP3    H126822   3.351   0.573   8.642 -0.9840  1.2013 -0.2968
 1729TIP3    H226823   3.333   0.590   8.792 -0.2828 -0.5719  0.0225
 1730TIP3   OH226824   4.905   5.450   1.744 -0.8406  0.0841 -0.5098
 1730TIP3    H126825   4.857   5.519   1.789  0.2153  0.0518  0.7377
 1730TIP3    H226826   4.990   5.446   1.790 -0.1520 -0.7260 -1.8002
 1731TIP3   OH226827   2.011   2.799   0.740  0.1872 -0.0740 -0.4826
 1731TIP3    H126828   2.033   2.713   0.777  0.0665  1.1390  2.7192
 1731TIP3    H226829   1.915   2.797   0.731  0.1035 -0.0257  0.3328
 1732TIP3   OH226830   0.513   3.692   6.863 -0.0519  0.2211  0.4917
 1732TIP3    H126831   0.466   3.678   6.945  1.2699  1.8863  1.6046
 1732TIP3    H226832   0.572   3.617   6.855  0.4810  0.5089  1.5725
 1733TIP3   OH226833   0.758   0.325   1.435  0.5130 -0.5102  0.1064
 1733TIP3    H126834   0.849   0.295   1.428  1.3254  1.9722 -1.1972
 1733TIP3    H226835   0.758   0.383   1.511 -0.1832 -1.0503  0.5311
 1734TIP3   OH226836   1.764   6.234   7.643  1.0216  0.2018  0.1630
 1734TIP3    H126837   1.762   6.151   7.594  0.5491 -1.0484  2.1680
 1734TIP3    H226838   1.732   6.299   7.580 -0.4927 -1.4665 -0.9286
 1735TIP3   OH226839   6.413   1.222   7.705 -0.0221 -0.0221 -0.1434
 1735TIP3    H126840   6.463   1.302   7.690 -0.3772  0.0179 -1.1881
 1735TIP3    H226841   6.459   1.178   7.777  1.7684 -0.1935 -1.3375
 1736TIP3   OH226842   4.804   3.147   7.686 -0.0402  0.7108 -0.4243
 1736TIP3    H126843   4.809   3.112   7.597  0.2340  1.1250 -0.5760
 1736TIP3    H226844   4.730   3.102   7.726  0.9722 -0.8658 -0.2466
 1737TIP3   OH226845   2.238   6.128   1.920  0.3636 -0.3266  0.4491
 1737TIP3    H126846   2.204   6.211   1.888  0.7454 -0.2137  0.3237
 1737TIP3    H226847   2.292   6.095   1.848 -1.9935 -2.0660 -0.6430
 1738TIP3   OH226848   6.345   2.321   2.316  0.6567 -0.4322 -0.6172
 1738TIP3    H126849   6.344   2.226   2.314 -1.3113 -0.5251  1.3663
 1738TIP3    H226850   6.381   2.344   2.401 -3.2028  0.3676  0.9940
 1739TIP3   OH226851   5.575   5.732   1.453 -0.0448 -0.5866 -0.1160
 1739TIP3    H126852   5.616   5.688   1.379 -0.0601 -1.9741  0.6727
 1739TIP3    H226853   5.544   5.815   1.417  2.1414 -0.1232 -1.0682
 1740TIP3   OH226854   6.137   1.233   0.702 -0.1356 -0.0010 -0.5708
 1740TIP3    H126855   6.169   1.321   0.721  2.1042 -0.8545 -0.0420
 1740TIP3    H226856   6.051   1.229   0.743 -1.0496  2.4561 -2.0724
 1741TIP3   OH226857   2.121   6.690   1.508  0.4183  0.3469  0.2348
 1741TIP3    H126858   2.058   6.703   1.578 -0.3010  0.0576 -0.3437
 1741TIP3    H226859   2.178   6.767   1.512 -1.5384  1.9411 -0.8475
 1742TIP3   OH226860   4.958   6.098   8.504  0.0886 -0.0616 -0.4256
 1742TIP3    H126861   5.008   6.017   8.514  2.0538  1.0802 -0.4616
 1742TIP3    H226862   4.885   6.075   8.448  0.0759 -2.0179  0.3381
 1743TIP3   OH226863   1.719   5.874   7.833 -0.4442 -0.0807 -0.1512
 1743TIP3    H126864   1.638   5.870   7.884 -0.9895  1.5307 -0.8400
 1743TIP3    H226865   1.772   5.940   7.878 -0.6593  0.8709 -1.2457
 1744TIP3   OH226866   2.308   6.629   1.202 -0.0936 -0.3707  0.1902
 1744TIP3    H126867   2.277   6.637   1.112 -0.6824  2.8617  0.5484
 1744TIP3    H226868   2.232   6.603   1.252 -0.6903  1.1636  0.1514
 1745TIP3   OH226869   1.150   4.729   8.594  0.4971 -0.1601 -0.6764
 1745TIP3    H126870   1.085   4.671   8.555  0.0774  0.0320 -0.2699
 1745TIP3    H226871   1.101   4.808   8.618  1.0548  0.3839 -1.2407
 1746TIP3   OH226872   0.171   6.371   1.083 -0.1454  0.2066 -0.0583
 1746TIP3    H126873   0.104   6.385   1.150  1.0788 -0.7187  1.4296
 1746TIP3    H226874   0.243   6.429   1.109  0.1472  0.2319 -0.8954
 1747TIP3   OH226875   0.331   3.130   8.422 -0.5158  0.7068  0.0289
 1747TIP3    H126876   0.418   3.109   8.388  0.4841  0.5199  2.4807
 1747TIP3    H226877   0.271   3.107   8.351  1.3767  0.3213 -1.5296
 1748TIP3   OH226878   1.529   3.018   8.088 -0.4922  0.4218  0.1578
 1748TIP3    H126879   1.496   2.943   8.039  1.8973 -0.6042 -0.0290
 1748TIP3    H226880   1.584   3.065   8.025  0.3164  0.7105  1.0618
 1749TIP3   OH226881   0.510   6.124   0.695  0.4047 -0.1966 -0.0186
 1749TIP3    H126882   0.560   6.148   0.618  1.0064 -1.0218  0.1116
 1749TIP3    H226883   0.556   6.167   0.768 -2.4372  4.1701 -0.3910
 1750TIP3   OH226884   1.013   2.039   1.457 -0.5185 -0.6374  0.4961
 1750TIP3    H126885   1.024   1.946   1.438 -1.5308 -0.6988  0.1082
 1750TIP3    H226886   0.962   2.042   1.538 -3.1796 -0.5237 -1.0483
 1751TIP3   OH226887   2.583   6.513   6.641 -0.1217  0.0817 -0.4235
 1751TIP3    H126888   2.582   6.604   6.611 -0.6282  0.4974  0.8107
 1751TIP3    H226889   2.661   6.506   6.695 -0.4277 -0.0317  0.0105
 1752TIP3   OH226890   4.577   6.016   7.816  0.1030  0.0154  0.5494
 1752TIP3    H126891   4.627   6.046   7.739 -1.3081 -0.7984 -0.7446
 1752TIP3    H226892   4.494   6.062   7.810 -2.1855 -3.8499 -1.5355
 1753TIP3   OH226893   1.624   5.828   7.338  0.0703  0.1337 -0.4550
 1753TIP3    H126894   1.576   5.869   7.266 -0.4710  1.4579  0.5999
 1753TIP3    H226895   1.716   5.844   7.318 -0.0736  0.5068 -0.8379
 1754TIP3   OH226896   4.801   3.031   7.406 -0.6778 -0.1711  0.2723
 1754TIP3    H126897   4.803   2.948   7.453  0.3739  0.1191  0.7811
 1754TIP3    H226898   4.817   3.008   7.314 -0.6446 -0.5591  0.3757
 1755TIP3   OH226899   5.702   2.308   1.276  0.3031 -0.5005  0.1570
 1755TIP3    H126900   5.772   2.344   1.330  1.6219 -1.6438 -0.7244
 1755TIP3    H226901   5.745   2.282   1.194 -1.7358  1.8481 -1.8272
 1756TIP3   OH226902   0.052   6.166   0.192 -0.2213  0.2887 -0.0702
 1756TIP3    H126903   0.034   6.074   0.175 -0.3275 -0.0864  1.9506
 1756TIP3    H226904   0.137   6.167   0.236 -0.6493  1.0552  0.7857
 1757TIP3   OH226905   2.648   1.892   8.294  0.0778 -0.0919 -0.3647
 1757TIP3    H126906   2.599   1.973   8.280  0.1221  0.7537  3.2862
 1757TIP3    H226907   2.739   1.921   8.307  0.3594 -0.8973 -0.5049
 1758TIP3   OH226908   0.684   6.493   1.039 -0.3053  0.1997 -0.3316
 1758TIP3    H126909   0.676   6.482   1.134 -0.3491  0.2576 -0.3288
 1758TIP3    H226910   0.769   6.455   1.018  0.5362  1.8077 -0.0064
 1759TIP3   OH226911   0.961   1.438   7.427  0.1337  0.1822 -0.1507
 1759TIP3    H126912   0.956   1.354   7.474 -2.8032  0.0306 -0.5494
 1759TIP3    H226913   0.948   1.504   7.495  0.6387  0.2467 -0.1086
 1760TIP3   OH226914   1.174   4.823   2.417 -1.0038 -0.0751 -0.1650
 1760TIP3    H126915   1.207   4.846   2.504  2.5843 -1.1690 -1.0688
 1760TIP3    H226916   1.153   4.730   2.423  0.2979 -0.4203 -0.6971
 1761TIP3   OH226917   1.831   1.138   1.637 -0.2806  0.1297 -1.1737
 1761TIP3    H126918   1.827   1.233   1.628  2.1516  0.2825 -1.2769
 1761TIP3    H226919   1.924   1.119   1.647 -0.9052 -1.9860  2.0941
 1762TIP3   OH226920   0.876   4.300   1.262  0.6089 -0.2525 -0.2234
 1762TIP3    H126921   0.848   4.294   1.171  0.4752 -1.4936 -0.1275
 1762TIP3    H226922   0.860   4.390   1.288 -0.3613 -0.1676 -1.1076
 1763TIP3   OH226923   4.014   1.228   7.622 -0.5450  0.5052 -0.2166
 1763TIP3    H126924   4.085   1.259   7.564 -0.5974  2.0783  0.5025
 1763TIP3    H226925   3.934   1.254   7.577 -0.6005  1.1124  0.2294
 1764TIP3   OH226926   4.778   6.287   8.623  0.5153  0.0002 -0.5624
 1764TIP3    H126927   4.856   6.245   8.586  1.3626  1.2311 -0.2530
 1764TIP3    H226928   4.735   6.218   8.672 -0.6780 -1.7458 -3.7613
 1765TIP3   OH226929   5.062   5.302   7.314 -0.5741 -0.0356 -0.0866
 1765TIP3    H126930   5.052   5.353   7.234 -1.4126 -0.9824 -0.6095
 1765TIP3    H226931   5.134   5.242   7.296 -0.9968 -0.4936 -0.2748
 1766TIP3   OH226932   2.420   4.416   7.308  0.2013 -1.4278  0.0784
 1766TIP3    H126933   2.375   4.477   7.366 -0.3790 -1.9243  0.1585
 1766TIP3    H226934   2.353   4.387   7.246  0.7936 -0.9799 -0.7921
 1767TIP3   OH226935   2.452   5.180   1.957  0.0808 -0.2941 -0.1022
 1767TIP3    H126936   2.527   5.130   1.924  0.4395  0.4615 -0.4615
 1767TIP3    H226937   2.441   5.251   1.894 -1.3049 -0.7163 -0.3593
 1768TIP3   OH226938   3.178   5.902   1.525 -0.0743  0.1729 -0.0759
 1768TIP3    H126939   3.265   5.943   1.522 -0.3157  0.9522  1.8029
 1768TIP3    H226940   3.123   5.960   1.473  0.2019  0.6404  0.1406
 1769TIP3   OH226941   6.513   2.388   7.950 -0.5238  0.1305 -0.2033
 1769TIP3    H126942   6.530   2.341   7.868 -0.3831 -0.9769  0.4250
 1769TIP3    H226943   6.534   2.479   7.931 -1.5510  0.0819 -1.7043
 1770TIP3   OH226944   1.341   2.305   0.958 -0.3995 -0.0719 -0.3340
 1770TIP3    H126945   1.269   2.266   0.909  0.5926 -2.8430  0.2076
 1770TIP3    H226946   1.405   2.330   0.892 -1.1485  0.9005 -0.7117
 1771TIP3   OH226947   1.118   2.759   1.245  0.0097 -0.9556 -0.4486
 1771TIP3    H126948   1.191   2.698   1.260  0.5992 -0.1801 -0.0893
 1771TIP3    H226949   1.076   2.768   1.330  1.0498  0.5374 -0.0604
 1772TIP3   OH226950   0.543   5.555   1.594 -0.3217  0.1036  0.3624
 1772TIP3    H126951   0.500   5.610   1.529 -0.1212 -2.2059 -1.8571
 1772TIP3    H226952   0.636   5.559   1.572 -0.3033 -1.0978  0.1158
 1773TIP3   OH226953   6.324   6.610   1.653  0.1798 -0.1716  0.3803
 1773TIP3    H126954   6.360   6.699   1.652 -0.9779  0.3817  2.2622
 1773TIP3    H226955   6.401   6.554   1.667  0.7361  0.6933  0.8994
 1774TIP3   OH226956   5.404   2.670   0.819 -0.4427  0.0397 -0.0614
 1774TIP3    H126957   5.381   2.763   0.811 -0.5333 -0.0786 -1.4321
 1774TIP3    H226958   5.496   2.666   0.793 -0.3988 -0.2426  0.1339
 1775TIP3   OH226959   1.409   5.643   7.426 -0.3631  0.4009  0.3125
 1775TIP3    H126960   1.464   5.565   7.431 -2.0724 -0.9099 -0.6007
 1775TIP3    H226961   1.472   5.715   7.422  1.3258 -1.0517 -1.0932
 1776TIP3   OH226962   1.254   6.106   1.828  0.2412 -0.4887 -0.2342
 1776TIP3    H126963   1.181   6.081   1.771  2.6039 -0.5958 -3.5121
 1776TIP3    H226964   1.246   6.201   1.837 -1.3528 -0.7045  1.1770
 1777TIP3   OH226965   6.521   3.552   1.603  0.0170 -0.8889 -0.3075
 1777TIP3    H126966   6.543   3.620   1.539  1.2767  0.0101  1.0322
 1777TIP3    H226967   6.428   3.562   1.619 -0.2701 -0.9765 -1.8054
 1778TIP3   OH226968   0.640   5.091   6.343 -0.1351  0.4338 -0.3296
 1778TIP3    H126969   0.723   5.047   6.321 -0.4400 -0.7650  0.8047
 1778TIP3    H226970   0.627   5.072   6.435 -2.4908 -0.7670 -0.8443
 1779TIP3   OH226971   6.819   1.805   1.732 -0.5881  0.4224  0.0452
 1779TIP3    H126972   6.732   1.814   1.694 -0.8510 -0.2140  0.4887
 1779TIP3    H226973   6.863   1.740   1.677 -0.1674  1.1900 -0.5543
 1780TIP3   OH226974   3.234   0.696   7.224 -0.0222 -0.5201 -0.1541
 1780TIP3    H126975   3.203   0.721   7.311 -1.6158 -3.9113  0.4021
 1780TIP3    H226976   3.172   0.737   7.164 -1.0018 -0.9447  0.5410
 1781TIP3   OH226977   2.972   4.090   8.052  0.2725  0.8874  0.0324
 1781TIP3    H126978   2.997   4.096   8.143 -0.5550  2.5786  0.1895
 1781TIP3    H226979   2.903   4.023   8.050  1.9886 -0.9760  0.1886
 1782TIP3   OH226980   4.647   1.023   1.332 -0.3351  0.1219  0.2009
 1782TIP3    H126981   4.643   1.060   1.421  0.6158  3.2348 -0.9104
 1782TIP3    H226982   4.740   1.002   1.320 -0.4963 -0.4785  0.0032
 1783TIP3   OH226983   1.238   3.424   1.302  0.1105  0.6520 -0.0595
 1783TIP3    H126984   1.209   3.452   1.389 -1.0721  1.3589 -0.6712
 1783TIP3    H226985   1.241   3.504   1.250 -0.6408  0.0365 -1.0772
 1784TIP3   OH226986   4.097   3.186   1.666 -0.0471  0.0830 -0.6153
 1784TIP3    H126987   4.114   3.234   1.747 -0.5354  0.7913 -0.9229
 1784TIP3    H226988   4.004   3.166   1.669 -0.7163  2.5068 -2.2259
 1785TIP3   OH226989   4.473   5.775   1.001 -0.1407  0.1354  0.6866
 1785TIP3    H126990   4.463   5.809   1.090 -0.4247 -0.0149  0.7114
 1785TIP3    H226991   4.512   5.688   1.013  0.9949  0.6116  0.6035
 1786TIP3   OH226992   4.926   0.754   2.291  0.4979 -0.5616  0.3222
 1786TIP3    H126993   4.981   0.707   2.355 -0.2450 -0.5067  1.0148
 1786TIP3    H226994   4.881   0.685   2.243  0.7720 -0.5928  0.1045
 1787TIP3   OH226995   3.793   2.383   6.921 -0.0998 -0.7791  0.0922
 1787TIP3    H126996   3.840   2.300   6.932  0.0840 -0.6807  0.0408
 1787TIP3    H226997   3.748   2.374   6.837 -2.3430 -1.9512  1.3021
 1788TIP3   OH226998   3.753   3.163   0.698  0.3438 -0.2302 -0.4410
 1788TIP3    H126999   3.812   3.095   0.664  1.7808 -0.3550  2.0197
 1788TIP3    H227000   3.781   3.175   0.788 -0.8769  2.5799 -0.3366
 1789TIP3   OH227001   3.014   5.806   2.655 -0.0368  0.1003  0.3021
 1789TIP3    H127002   3.061   5.857   2.722 -0.5392  1.1798 -0.1497
 1789TIP3    H227003   3.071   5.731   2.639  0.4624  0.2218  1.3849
 1790TIP3   OH227004   0.300   6.850   8.229 -0.1056 -0.1200 -0.2100
 1790TIP3    H127005   0.225   6.840   8.287  0.9732 -1.4738  1.0265
 1790TIP3    H227006   0.266   6.898   8.154 -2.4691 -1.6188 -0.2040
 1791TIP3   OH227007   0.195   1.525   1.832  0.4870 -0.1730 -0.3164
 1791TIP3    H127008   0.275   1.574   1.816 -1.4470  3.0784 -1.0255
 1791TIP3    H227009   0.164   1.500   1.745 -1.1448  2.0393 -0.4451
 1792TIP3   OH227010   5.359   6.701   2.122 -0.1049  0.4771 -0.0588
 1792TIP3    H127011   5.265   6.711   2.113 -0.3855  0.3328  2.1440
 1792TIP3    H227012   5.386   6.777   2.174  1.4324  1.8671 -2.6883
 1793TIP3   OH227013   5.385   3.326   0.893 -0.2408 -0.2250 -0.4922
 1793TIP3    H127014   5.375   3.421   0.884  0.7908 -0.0010  0.4888
 1793TIP3    H227015   5.479   3.313   0.903 -0.5240 -1.1505  1.3495
 1794TIP3   OH227016   6.355   5.894   0.669 -0.5531 -0.1052  0.1234
 1794TIP3    H127017   6.354   5.842   0.589  1.8125 -0.5210  0.2889
 1794TIP3    H227018   6.311   5.976   0.645 -1.7163 -1.0253 -0.9743
 1795TIP3   OH227019   4.476   5.547   7.128 -0.2415 -0.2172 -0.0613
 1795TIP3    H127020   4.482   5.520   7.037 -1.5570  1.4969 -0.7072
 1795TIP3    H227021   4.534   5.487   7.175  0.6636 -0.9632 -2.0444
 1796TIP3   OH227022   3.485   3.098   2.445  0.4617  0.2014 -0.2515
 1796TIP3    H127023   3.484   3.190   2.418  1.9744 -0.4856 -3.0033
 1796TIP3    H227024   3.395   3.068   2.427 -0.3389  1.3092  1.6159
 1797TIP3   OH227025   2.933   0.484   0.204  0.8132  0.0307 -0.4582
 1797TIP3    H127026   2.887   0.401   0.213  0.2743  0.2703 -0.9727
 1797TIP3    H227027   2.885   0.545   0.259 -0.6406  0.7380 -2.4065
 1798TIP3   OH227028   3.439   4.264   1.211 -0.4795  0.4425  0.0200
 1798TIP3    H127029   3.415   4.347   1.251 -1.5240  0.3195 -0.3167
 1798TIP3    H227030   3.356   4.226   1.183  0.2102  0.9450 -3.1336
 1799TIP3   OH227031   3.439   6.722   1.327  0.4509 -0.6360 -0.0095
 1799TIP3    H127032   3.498   6.736   1.253 -1.2738 -1.7692 -1.6979
 1799TIP3    H227033   3.370   6.667   1.291 -1.0185 -0.3148  2.1959
 1800TIP3   OH227034   3.135   0.508   6.914  0.0792  1.0542 -0.5367
 1800TIP3    H127035   3.080   0.571   6.961 -1.5431 -1.1979  0.7771
 1800TIP3    H227036   3.084   0.485   6.836 -0.0957  0.2192 -0.1891
 1801TIP3   OH227037   2.771   3.648   7.315 -0.4361  0.2014  0.0377
 1801TIP3    H127038   2.758   3.592   7.238 -0.6354  0.1536  0.1040
 1801TIP3    H227039   2.682   3.668   7.344 -0.3860  1.1706 -0.4359
 1802TIP3   OH227040   3.705   0.073   8.469 -1.2998  0.2883  0.0377
 1802TIP3    H127041   3.715   0.022   8.549 -2.2808 -0.5998 -0.3735
 1802TIP3    H227042   3.614   0.104   8.471 -1.0961  0.9331 -0.3434
 1803TIP3   OH227043   5.601   2.722   8.438 -0.0340  0.2774 -0.0690
 1803TIP3    H127044   5.578   2.798   8.384  1.5137  0.4052 -0.5857
 1803TIP3    H227045   5.516   2.687   8.467 -0.8140  1.4564 -0.8439
 1804TIP3   OH227046   5.460   3.830   2.377  0.1069  0.3701 -0.1898
 1804TIP3    H127047   5.551   3.800   2.371 -0.2482 -0.5407 -1.1781
 1804TIP3    H227048   5.441   3.830   2.471  0.9143 -0.0614 -0.0193
 1805TIP3   OH227049   2.671   1.089   0.706  0.3740  0.8876 -0.3492
 1805TIP3    H127050   2.643   1.084   0.798 -2.6664 -0.8794 -1.2212
 1805TIP3    H227051   2.691   1.181   0.692 -0.0042  1.3693  1.8442
 1806TIP3   OH227052   2.958   0.392   2.318 -0.3296  0.0303  0.3055
 1806TIP3    H127053   2.935   0.446   2.394  0.8224 -0.1327  0.7818
 1806TIP3    H227054   3.011   0.321   2.353  0.7545  0.2977 -0.7329
 1807TIP3   OH227055   1.366   5.051   7.222 -0.0053 -0.1481  0.1182
 1807TIP3    H127056   1.359   5.144   7.201  0.6670 -0.3623 -1.1936
 1807TIP3    H227057   1.276   5.024   7.241 -0.1648  0.8167  0.7757
 1808TIP3   OH227058   0.995   4.844   0.519  0.0015  0.3713  0.4995
 1808TIP3    H127059   0.974   4.838   0.612  1.0396  1.0029  0.7927
 1808TIP3    H227060   1.054   4.770   0.503 -0.9082 -0.2929  0.1104
 1809TIP3   OH227061   2.141   0.838   0.834  1.0191 -0.1013 -0.2510
 1809TIP3    H127062   2.117   0.872   0.748  1.4140  1.4425  0.2122
 1809TIP3    H227063   2.237   0.835   0.833  1.0394  0.2585  0.2396
 1810TIP3   OH227064   0.978   1.229   1.519 -0.2320  0.0996 -0.1865
 1810TIP3    H127065   1.045   1.164   1.539  0.1811  0.4449 -0.4224
 1810TIP3    H227066   0.923   1.234   1.598  1.3868  1.4841  0.9296
 1811TIP3   OH227067   5.028   5.661   6.876  0.2943 -0.3827  0.2483
 1811TIP3    H127068   5.084   5.722   6.923  2.2201 -2.4905  0.8300
 1811TIP3    H227069   4.988   5.607   6.944  1.6402 -2.2328 -0.3433
 1812TIP3   OH227070   5.406   1.450   6.736  0.4520 -0.2358  0.7382
 1812TIP3    H127071   5.370   1.495   6.812  0.1674 -0.7995  0.9410
 1812TIP3    H227072   5.378   1.503   6.661  1.3903  0.7556  1.0622
 1813TIP3   OH227073   3.241   4.467   6.560 -0.1624 -0.4799  0.0341
 1813TIP3    H127074   3.234   4.399   6.493  1.0231  0.0386 -0.6335
 1813TIP3    H227075   3.236   4.420   6.643 -0.8274 -1.2115 -0.4062
 1814TIP3   OH227076   4.529   2.258   1.560  0.3755 -0.1522  0.3158
 1814TIP3    H127077   4.482   2.178   1.583  3.2439 -2.1277 -0.0803
 1814TIP3    H227078   4.539   2.305   1.642 -0.9830 -0.3847  0.6371
 1815TIP3   OH227079   6.086   3.449   7.624 -0.1707 -0.4132 -0.5133
 1815TIP3    H127080   6.027   3.374   7.616 -2.0161  0.8581  0.3511
 1815TIP3    H227081   6.073   3.479   7.714  0.2219  1.1601 -0.9594
 1816TIP3   OH227082   0.384   6.542   7.063  0.0888  0.1269 -0.2348
 1816TIP3    H127083   0.397   6.631   7.095 -0.4779  0.3220 -0.5413
 1816TIP3    H227084   0.338   6.552   6.980 -3.2117 -0.5526  1.3579
 1817TIP3   OH227085   3.603   0.812   8.660 -0.0897  0.7281 -0.2882
 1817TIP3    H127086   3.510   0.835   8.658 -0.1992  0.2567 -0.7469
 1817TIP3    H227087   3.638   0.847   8.578 -0.3326 -1.0114 -1.1714
 1818TIP3   OH227088   3.785   6.382   8.148  0.8722  0.1668  0.5408
 1818TIP3    H127089   3.850   6.328   8.192  0.9670  0.3643  0.6457
 1818TIP3    H227090   3.713   6.389   8.211  0.3843 -0.7504  0.0964
 1819TIP3   OH227091   2.895   5.565   8.372 -0.1987 -0.1391 -0.5887
 1819TIP3    H127092   2.917   5.478   8.408 -2.5950 -0.1602  1.0915
 1819TIP3    H227093   2.900   5.623   8.448 -0.8919  0.7281 -1.1929
 1820TIP3   OH227094   1.019   4.320   7.775  0.0457 -0.6012  0.1638
 1820TIP3    H127095   1.007   4.256   7.844 -0.7721 -2.3798 -1.5356
 1820TIP3    H227096   1.113   4.337   7.773 -0.1060  1.0515  2.9747
 1821TIP3   OH227097   1.491   3.653   0.820  0.3732 -0.6140 -0.1656
 1821TIP3    H127098   1.421   3.592   0.799 -1.6313  1.5032 -0.0473
 1821TIP3    H227099   1.512   3.696   0.737  0.2526  0.0159  0.1215
 1822TIP3   OH227100   3.345   0.898   8.682 -0.0261 -0.5843 -0.0468
 1822TIP3    H127101   3.262   0.888   8.634 -0.4777  1.0177  0.3249
 1822TIP3    H227102   3.319   0.915   8.772  0.4723  2.7916 -0.3749
 1823TIP3   OH227103   0.117   2.578   7.954 -0.0078  0.1042  0.6106
 1823TIP3    H127104   0.084   2.568   8.044  0.6425  1.7040  1.0728
 1823TIP3    H227105   0.179   2.506   7.943  0.0365 -0.0181  1.5244
 1824TIP3   OH227106   0.731   3.389   1.559 -0.5350 -0.0163 -0.7830
 1824TIP3    H127107   0.754   3.468   1.510  0.1527  0.8980  0.9457
 1824TIP3    H227108   0.649   3.411   1.602  0.5594  0.4909  1.1614
 1825TIP3   OH227109   0.073   5.138   7.675 -0.2185 -0.5779 -0.1916
 1825TIP3    H127110   0.055   5.232   7.677  0.1158 -0.4981 -0.7504
 1825TIP3    H227111  -0.013   5.098   7.665 -0.2862 -0.2972 -0.7403
 1826TIP3   OH227112   0.173   6.448   2.099 -0.1739 -0.4208  0.1034
 1826TIP3    H127113   0.172   6.534   2.142  1.1934 -1.0816  1.5616
 1826TIP3    H227114   0.089   6.408   2.122 -1.6453  1.1334 -2.0777
 1827TIP3   OH227115   3.628   1.547   0.696 -0.2756  0.1181  0.5586
 1827TIP3    H127116   3.588   1.480   0.751  0.5258  0.0691  1.1068
 1827TIP3    H227117   3.575   1.626   0.711 -1.0929 -0.3283  0.0705
 1828TIP3   OH227118   0.132   1.995   8.809 -0.7424  0.3034 -0.1392
 1828TIP3    H127119   0.194   1.957   8.746  0.1565 -0.3309  1.0814
 1828TIP3    H227120   0.178   2.071   8.845 -0.2790 -0.6545  1.3881
 1829TIP3   OH227121   0.427   3.375   1.212  0.5938 -0.4389 -0.4415
 1829TIP3    H127122   0.376   3.294   1.201  0.1023  0.0696 -2.2800
 1829TIP3    H227123   0.415   3.422   1.129  0.9753  1.4722  0.5353
 1830TIP3   OH227124   0.624   4.771   1.340 -0.5154  0.6694 -0.3215
 1830TIP3    H127125   0.652   4.786   1.250  1.0516  1.8584  0.3167
 1830TIP3    H227126   0.528   4.766   1.335 -0.4160 -0.4348 -2.1733
 1831TIP3   OH227127   3.775   3.345   1.813  0.0793 -0.0012  0.7280
 1831TIP3    H127128   3.726   3.271   1.847  1.4079 -1.4559 -0.3888
 1831TIP3    H227129   3.860   3.339   1.856  0.7850 -0.1791 -0.6360
 1832TIP3   OH227130   0.262   1.372   0.553  0.2607 -0.6197 -1.2967
 1832TIP3    H127131   0.259   1.366   0.649 -0.5327 -1.1673 -1.3461
 1832TIP3    H227132   0.252   1.466   0.535  2.0090 -0.3013 -0.8198
 1833TIP3   OH227133   6.413   3.145   0.445  0.1165 -0.0035 -0.6766
 1833TIP3    H127134   6.358   3.174   0.372  1.2218 -2.1304 -2.4295
 1833TIP3    H227135   6.498   3.185   0.429 -0.0984  1.0465  0.5519
 1834TIP3   OH227136   0.622   3.380   8.820  0.4822 -0.0372 -0.5391
 1834TIP3    H127137   0.570   3.445   8.866 -3.1436 -0.9290 -2.9121
 1834TIP3    H227138   0.610   3.299   8.869  1.0955  0.1036 -0.1497
 1835TIP3   OH227139   0.254   2.922   0.805 -0.0376 -0.3115 -0.8386
 1835TIP3    H127140   0.222   2.897   0.892 -0.7920 -2.0556 -1.5759
 1835TIP3    H227141   0.329   2.865   0.790 -1.9124 -2.4941 -2.6403
 1836TIP3   OH227142   6.091   2.687   0.084 -0.5474 -0.3178 -0.3034
 1836TIP3    H127143   6.013   2.632   0.084 -1.3901  0.8468  0.5480
 1836TIP3    H227144   6.164   2.625   0.081 -1.4270 -1.5554  1.7764
 1837TIP3   OH227145   1.072   0.399   0.425  0.5823  0.1035  0.9908
 1837TIP3    H127146   0.992   0.350   0.406 -0.2905  1.1881  1.7450
 1837TIP3    H227147   1.069   0.416   0.519  1.5966  0.3437  0.9969
 1838TIP3   OH227148   1.974   3.357   7.720 -0.5795 -0.0877 -0.2544
 1838TIP3    H127149   1.989   3.364   7.814  0.5089 -1.8948 -0.2467
 1838TIP3    H227150   2.061   3.363   7.681 -0.6255 -2.4743 -0.8762
 1839TIP3   OH227151   6.661   0.434   8.277  0.2366  0.1366  0.0785
 1839TIP3    H127152   6.716   0.378   8.222  0.3858  0.3889 -0.0313
 1839TIP3    H227153   6.696   0.424   8.365 -1.0168 -1.5602  0.4494
 1840TIP3   OH227154   0.280   2.946   1.718  0.1540  0.6064  0.2194
 1840TIP3    H127155   0.223   2.887   1.767  0.7806  0.5739  0.9329
 1840TIP3    H227156   0.367   2.906   1.725  0.2633  0.6024 -0.9288
 1841TIP3   OH227157   5.838   3.963   0.975  0.0775  0.4896 -0.0582
 1841TIP3    H127158   5.892   4.020   1.029  0.0261 -0.8160  1.4218
 1841TIP3    H227159   5.781   3.917   1.036 -1.1889  0.1952 -1.3815
 1842TIP3   OH227160   2.579   2.313   8.742 -0.3912  0.5687  0.2942
 1842TIP3    H127161   2.517   2.241   8.752 -1.5129  1.4294 -0.2186
 1842TIP3    H227162   2.641   2.302   8.814 -0.9700 -0.4888  0.6449
 1843TIP3   OH227163   5.365   1.009   7.421  0.1071  0.5696  0.1919
 1843TIP3    H127164   5.292   0.950   7.403  0.6136 -0.1362  0.3984
 1843TIP3    H227165   5.443   0.952   7.419  0.5516  1.1263  0.9222
 1844TIP3   OH227166   0.051   1.615   7.023 -0.4943  0.3436  0.0848
 1844TIP3    H127167  -0.030   1.650   7.061 -0.2432 -0.4772  1.4449
 1844TIP3    H227168   0.108   1.691   7.013 -0.7453  0.6562  0.9550
 1845TIP3   OH227169   5.810   5.678   1.634  0.3860  0.9250  0.0109
 1845TIP3    H127170   5.726   5.712   1.603  0.7212 -0.3312 -2.5491
 1845TIP3    H227171   5.865   5.756   1.643 -0.7205  1.6611  0.6996
 1846TIP3   OH227172   2.148   0.973   0.228 -0.1030 -0.4327 -0.2983
 1846TIP3    H127173   2.103   1.055   0.246 -0.1646 -0.3923 -0.6283
 1846TIP3    H227174   2.208   0.993   0.156  0.7847 -0.3720  0.4368
 1847TIP3   OH227175   6.596   4.611   2.574  0.0763  0.0492  0.0251
 1847TIP3    H127176   6.632   4.627   2.487 -0.0829 -0.7745 -0.2046
 1847TIP3    H227177   6.501   4.614   2.562  0.0545  0.3998  0.2687
 1848TIP3   OH227178   1.654   0.330   8.130 -0.1306 -0.4110  1.1426
 1848TIP3    H127179   1.629   0.255   8.185 -0.3265 -1.3246 -0.1553
 1848TIP3    H227180   1.604   0.319   8.049  0.1941  0.8780  0.7319
 1849TIP3   OH227181   6.488   3.281   0.025 -0.0497  0.4940  0.4422
 1849TIP3    H127182   6.578   3.294   0.054 -0.1785  1.4236  0.4576
 1849TIP3    H227183   6.492   3.202  -0.029  1.1250  1.4275 -0.9483
 1850TIP3   OH227184   5.449   4.040   2.165  0.4103 -0.0051  0.2183
 1850TIP3    H127185   5.474   3.997   2.247 -0.3363  0.2323  0.5804
 1850TIP3    H227186   5.427   3.968   2.106  0.8464 -0.1744  0.2597
 1851TIP3   OH227187   0.552   2.983   7.730 -0.0503 -0.2133  0.1586
 1851TIP3    H127188   0.644   2.991   7.754 -0.3336  2.2104  0.7072
 1851TIP3    H227189   0.552   2.986   7.635  0.4960 -1.4960  0.0981
 1852TIP3   OH227190   0.328   2.583   0.276  0.0289  0.5466  0.0366
 1852TIP3    H127191   0.240   2.547   0.269  0.5596 -0.8259  0.0526
 1852TIP3    H227192   0.333   2.618   0.365  0.1015 -1.1282  0.7281
 1853TIP3   OH227193   5.556   3.923   1.448 -0.2258 -0.0323  0.1976
 1853TIP3    H127194   5.519   3.878   1.524 -0.2729 -2.6453 -1.2843
 1853TIP3    H227195   5.651   3.922   1.463 -0.2464 -0.3797  0.3020
 1854TIP3   OH227196   0.533   0.033   8.806 -0.0298 -0.1119  0.0600
 1854TIP3    H127197   0.458  -0.027   8.810  0.1873 -0.5360 -1.5836
 1854TIP3    H227198   0.609  -0.024   8.796  0.4079  0.3652  0.6090
 1855TIP3   OH227199   0.820   3.974   0.936 -0.0359 -0.4421  0.4787
 1855TIP3    H127200   0.835   4.037   1.007  0.6047 -1.3502  1.1699
 1855TIP3    H227201   0.908   3.952   0.905 -0.1745 -1.9493  1.1009
 1856TIP3   OH227202   3.331   4.053   8.489  0.0059  0.3058 -0.0629
 1856TIP3    H127203   3.319   4.000   8.568 -1.2419  0.3222 -0.2232
 1856TIP3    H227204   3.388   4.125   8.517 -0.4606  0.3397  0.8392
 1857TIP3   OH227205   1.077   3.157   1.317 -0.7811 -0.4686  0.0735
 1857TIP3    H127206   1.144   3.224   1.332  0.0106 -1.1539 -0.3570
 1857TIP3    H227207   1.100   3.117   1.234 -0.8858 -1.6968  0.6100
 1858TIP3   OH227208   2.864   4.782   1.917 -0.0289  0.1554  0.2816
 1858TIP3    H127209   2.883   4.871   1.945  0.1621 -0.0038  0.6689
 1858TIP3    H227210   2.857   4.732   1.999  1.9819 -0.6214  0.0331
 1859TIP3   OH227211   6.703   3.328   7.750  0.1005 -0.2724 -0.5257
 1859TIP3    H127212   6.755   3.404   7.725 -0.3936  0.2687  0.0430
 1859TIP3    H227213   6.749   3.290   7.825 -1.1140  1.1642  1.0482
 1860TIP3   OH227214   2.564   2.813   8.770  0.6915  0.0337 -0.3112
 1860TIP3    H127215   2.525   2.844   8.851  2.0136 -0.9296  0.7304
 1860TIP3    H227216   2.633   2.875   8.750 -0.3672  0.9275 -1.3776
 1861TIP3   OH227217   4.641   4.876   8.554 -0.2779 -0.3154  0.1268
 1861TIP3    H127218   4.566   4.895   8.497 -0.3686  0.6497  0.5445
 1861TIP3    H227219   4.628   4.933   8.630  0.4130 -0.7947  0.6140
 1862TIP3   OH227220   2.661   1.000   7.011  0.0862 -0.1148  0.2049
 1862TIP3    H127221   2.736   1.031   7.061  1.0577  0.1861 -1.3789
 1862TIP3    H227222   2.625   1.079   6.971 -0.8958 -0.3026  0.6708
 1863TIP3   OH227223   0.478   2.297   1.157  0.3015  0.6454 -0.1023
 1863TIP3    H127224   0.560   2.306   1.205 -0.8565  2.5743  1.6838
 1863TIP3    H227225   0.420   2.251   1.218 -0.2875  0.3118 -0.8991
 1864TIP3   OH227226   4.006   1.622   1.061  0.4269 -0.4914  0.4510
 1864TIP3    H127227   3.923   1.625   1.013  0.3305 -1.1020  0.5754
 1864TIP3    H227228   3.989   1.667   1.143  0.5489  0.4263 -0.0124
 1865TIP3   OH227229   3.297   5.351   8.061 -0.3650  0.5131 -0.4317
 1865TIP3    H127230   3.215   5.305   8.081  0.6387 -0.6809  1.1988
 1865TIP3    H227231   3.278   5.443   8.083 -0.4333 -0.1805  3.1132
 1866TIP3   OH227232   6.576   4.291   7.682 -0.1276 -0.2719  0.1581
 1866TIP3    H127233   6.661   4.334   7.676 -0.8203  1.5348  2.0513
 1866TIP3    H227234   6.566   4.271   7.775 -1.6719 -0.6343 -0.0525
 1867TIP3   OH227235   0.915   1.091   8.243 -0.2201 -0.2381 -0.1400
 1867TIP3    H127236   0.888   1.130   8.159 -0.4320 -1.4503 -0.6524
 1867TIP3    H227237   0.964   1.013   8.219  2.1928  0.8713  0.8194
 1868TIP3   OH227238   4.992   3.124   1.214  0.0706 -0.7208  0.3978
 1868TIP3    H127239   4.977   3.031   1.228  0.3131 -0.6164  1.4310
 1868TIP3    H227240   5.075   3.128   1.166  0.0203 -1.0346  0.2829
 1869TIP3   OH227241   5.274   1.704   7.810 -0.1253  0.4347  0.0973
 1869TIP3    H127242   5.214   1.719   7.737 -0.7594 -2.3522 -0.0673
 1869TIP3    H227243   5.352   1.754   7.788 -0.2642 -0.4155 -2.5737
 1870TIP3   OH227244   2.501   6.115   6.811  0.2650  0.0997 -0.6296
 1870TIP3    H127245   2.572   6.082   6.755 -0.9030 -1.6248 -1.1754
 1870TIP3    H227246   2.451   6.172   6.753  1.1332  1.2871 -0.2554
 1871TIP3   OH227247   6.027   2.515   0.601  0.4691  0.3416  0.2707
 1871TIP3    H127248   5.933   2.497   0.595  0.3527  0.4695  1.3855
 1871TIP3    H227249   6.038   2.600   0.559  0.3748 -0.4210 -1.3888
 1872TIP3   OH227250   1.604   5.644   1.333 -0.2319  0.1945  0.2879
 1872TIP3    H127251   1.571   5.733   1.316  2.5606  1.0634 -1.2676
 1872TIP3    H227252   1.667   5.655   1.404 -0.7068 -0.7602  0.8616
 1873TIP3   OH227253   1.276   6.081   8.316  0.4541  0.2085  0.3829
 1873TIP3    H127254   1.251   6.152   8.374 -1.8487  0.2620 -0.5449
 1873TIP3    H227255   1.302   6.124   8.234  0.1328  0.0316  0.1843
 1874TIP3   OH227256   1.249   4.003   8.500 -0.6133 -0.0322 -0.1145
 1874TIP3    H127257   1.214   4.072   8.444  0.2614  0.5857  0.0868
 1874TIP3    H227258   1.179   3.986   8.564 -1.6454 -0.7942 -1.3905
 1875TIP3   OH227259   6.113   6.271   2.543  0.3597 -0.4080 -0.5298
 1875TIP3    H127260   6.092   6.185   2.579  0.9038 -1.1105 -1.8218
 1875TIP3    H227261   6.187   6.302   2.596 -0.0100 -0.5963  0.1126
 1876TIP3   OH227262   1.588   1.417   1.988  0.1556  0.1419 -0.4328
 1876TIP3    H127263   1.666   1.361   1.982  0.2256  0.0303  1.2402
 1876TIP3    H227264   1.516   1.360   1.962  0.1839 -0.8985  1.5708
 1877TIP3   OH227265   2.037   1.695   1.468 -0.1410  0.0155 -0.5083
 1877TIP3    H127266   1.973   1.705   1.538  0.8072 -0.0077  0.3825
 1877TIP3    H227267   2.094   1.771   1.476 -0.0142  0.0013 -1.2486
 1878TIP3   OH227268   2.022   5.599   8.298 -0.2385 -0.2155  0.1943
 1878TIP3    H127269   2.087   5.669   8.303  0.7249 -1.0083 -0.6334
 1878TIP3    H227270   1.940   5.643   8.278  0.1967  0.7337  0.4329
 1879TIP3   OH227271   3.157   5.663   8.693 -0.5841 -0.1558 -0.1899
 1879TIP3    H127272   3.246   5.627   8.695  0.5030  2.3103  1.8549
 1879TIP3    H227273   3.114   5.624   8.769 -1.1006 -0.8604 -0.8211
 1880TIP3   OH227274   2.176   2.285   0.550  0.1842 -0.4679 -0.1176
 1880TIP3    H127275   2.249   2.320   0.601 -0.2034 -1.8272  1.4439
 1880TIP3    H227276   2.183   2.190   0.558 -1.9686 -0.6448  0.4453
 1881TIP3   OH227277   5.032   4.986   1.098 -0.2362 -0.2625 -0.0026
 1881TIP3    H127278   5.000   5.018   1.014  1.6552 -0.2842 -0.7624
 1881TIP3    H227279   4.957   4.940   1.136 -2.0526  2.2148 -0.3089
 1882TIP3   OH227280   0.701   2.839   8.055  0.5679 -0.0677 -0.0023
 1882TIP3    H127281   0.743   2.830   8.141  1.2475 -1.1124 -0.4225
 1882TIP3    H227282   0.768   2.811   7.993  0.1593  0.8818 -0.9031
 1883TIP3   OH227283   5.004   5.165   6.561 -0.1922 -0.2611 -0.6880
 1883TIP3    H127284   5.098   5.151   6.547 -0.2671 -0.3788 -1.0954
 1883TIP3    H227285   4.993   5.260   6.558  0.4562  0.0556  2.9754
 1884TIP3   OH227286   0.790   1.230   1.694 -0.3416 -0.2508 -0.4600
 1884TIP3    H127287   0.761   1.209   1.783 -1.8237 -1.1802 -1.1167
 1884TIP3    H227288   0.716   1.277   1.656 -0.6882 -1.8722 -1.9138
 1885TIP3   OH227289   1.773   0.560   7.758 -0.4386  0.3000 -0.3018
 1885TIP3    H127290   1.746   0.471   7.782  0.0973  0.3106  0.3766
 1885TIP3    H227291   1.866   0.563   7.777 -0.2050  0.6538 -1.4390
 1886TIP3   OH227292   4.492   3.182   7.543  0.1340 -0.0202 -0.0667
 1886TIP3    H127293   4.474   3.264   7.589 -1.0350 -0.7590  0.8546
 1886TIP3    H227294   4.585   3.188   7.519  0.2815  1.2216  0.6985
 1887TIP3   OH227295   1.499   5.524   8.591 -0.4207  0.5013 -0.7845
 1887TIP3    H127296   1.465   5.585   8.656  0.0142 -0.2559  0.1929
 1887TIP3    H227297   1.458   5.440   8.613 -0.6325  0.3299 -1.7897
 1888TIP3   OH227298   1.445   4.940   2.266  0.2467 -0.3349  0.3968
 1888TIP3    H127299   1.441   4.848   2.242  0.1935 -0.5063  1.0489
 1888TIP3    H227300   1.516   4.945   2.330 -1.0034 -0.2704  1.8261
 1889TIP3   OH227301   1.290   5.844   7.232 -0.4919 -0.5244  0.2068
 1889TIP3    H127302   1.302   5.772   7.293  0.5425 -0.4433  0.1132
 1889TIP3    H227303   1.291   5.804   7.145 -1.6573 -0.6005  0.2065
 1890TIP3   OH227304   0.789   3.226   8.115 -0.4952  0.1905  0.5143
 1890TIP3    H127305   0.765   3.314   8.142 -0.3479  0.2700  0.3937
 1890TIP3    H227306   0.802   3.177   8.196 -2.4963 -0.2720  0.6115
 1891TIP3   OH227307   0.859   2.321   0.285  0.4584 -0.3854  0.1073
 1891TIP3    H127308   0.918   2.246   0.277  0.2829 -0.4319 -0.9112
 1891TIP3    H227309   0.858   2.341   0.378  2.0773 -0.3813  0.1448
 1892TIP3   OH227310   1.001   5.071   1.552  0.4583  0.1837 -0.0766
 1892TIP3    H127311   0.962   5.072   1.465 -1.4226  1.0153  0.7107
 1892TIP3    H227312   1.055   5.150   1.555  0.8394 -0.0566 -0.6156
 1893TIP3   OH227313   2.474   4.680   7.865 -0.2150 -0.2135 -0.2319
 1893TIP3    H127314   2.545   4.676   7.928 -0.8406 -2.9832  0.4170
 1893TIP3    H227315   2.500   4.748   7.803  2.4767 -0.4473  0.5538
 1894TIP3   OH227316   4.739   2.169   0.224 -0.0235  1.0935  0.6127
 1894TIP3    H127317   4.771   2.095   0.276 -0.6199  1.2717  1.2423
 1894TIP3    H227318   4.644   2.157   0.220 -0.0088  1.1744 -0.3105
 1895TIP3   OH227319   2.952   2.611   8.717  0.0893 -0.2417 -0.0241
 1895TIP3    H127320   2.877   2.609   8.777  0.7776 -1.3504  0.8319
 1895TIP3    H227321   3.002   2.688   8.744  0.6552 -1.0119  1.1721
 1896TIP3   OH227322   0.015   4.902   1.261 -0.4853 -0.9088 -0.1168
 1896TIP3    H127323   0.065   4.875   1.185  0.6793 -0.4393  0.4556
 1896TIP3    H227324   0.077   4.897   1.334 -0.6504  1.6209  0.2941
 1897TIP3   OH227325   5.966   2.887   7.601 -0.1721  0.0093 -0.2031
 1897TIP3    H127326   5.940   2.926   7.518  1.0287  0.6896 -0.2853
 1897TIP3    H227327   5.884   2.869   7.647 -0.7843  2.6611 -0.1507
 1898TIP3   OH227328   3.646   2.101   0.090 -0.5356  0.3646 -0.4451
 1898TIP3    H127329   3.595   2.152   0.153 -1.1550 -0.0394 -0.6082
 1898TIP3    H227330   3.589   2.027   0.068 -0.3562  0.5265 -1.5126
 1899TIP3   OH227331   5.625   5.740   0.971  0.3372  1.3386  0.2491
 1899TIP3    H127332   5.669   5.821   0.946  3.1121  0.3299  1.4517
 1899TIP3    H227333   5.668   5.714   1.053  0.9897 -2.3266 -1.0783
 1900TIP3   OH227334   4.123   0.493   7.392 -0.1179 -0.0630  0.0984
 1900TIP3    H127335   4.173   0.447   7.459 -0.4985  0.4670  0.7733
 1900TIP3    H227336   4.035   0.457   7.398  0.0531 -0.6315 -0.7291
 1901TIP3   OH227337   6.606   5.449   2.627 -0.1420 -0.1280  0.5047
 1901TIP3    H127338   6.626   5.524   2.683 -0.0231 -0.1388  0.4776
 1901TIP3    H227339   6.654   5.466   2.547 -1.3319  0.5201 -0.0920
 1902TIP3   OH227340   6.726   0.361   7.677 -0.2226 -0.2380 -0.0409
 1902TIP3    H127341   6.735   0.368   7.582 -0.0786 -1.3799 -0.1313
 1902TIP3    H227342   6.634   0.338   7.691  0.0366 -1.3563 -0.0186
 1903TIP3   OH227343   3.330   1.252   1.720  0.1942 -0.1142 -0.1455
 1903TIP3    H127344   3.420   1.228   1.742  0.4741  0.1665 -0.9518
 1903TIP3    H227345   3.284   1.250   1.804  0.8598 -0.6334  0.2215
 1904TIP3   OH227346   4.007   2.193   2.252  0.3338 -0.0518  0.2716
 1904TIP3    H127347   3.966   2.110   2.276  1.6340 -0.4699  1.1565
 1904TIP3    H227348   3.960   2.258   2.304 -1.2411 -0.0775 -1.0281
 1905TIP3   OH227349   4.733   2.786   6.890  0.0555 -0.7966 -0.6015
 1905TIP3    H127350   4.770   2.830   6.813 -0.0505 -1.1102 -0.8348
 1905TIP3    H227351   4.773   2.699   6.889  1.8332 -0.0650  0.9964
 1906TIP3   OH227352   4.826   0.149   7.256  0.1384 -0.0358  0.4022
 1906TIP3    H127353   4.813   0.057   7.280 -0.9063 -0.5339 -1.8299
 1906TIP3    H227354   4.907   0.149   7.206  0.6075  0.4433  1.1386
 1907TIP3   OH227355   3.328   1.035   0.692  0.0885 -0.1419  0.4142
 1907TIP3    H127356   3.344   1.065   0.603 -0.3755  0.6551  0.5945
 1907TIP3    H227357   3.322   0.940   0.685 -0.1745 -0.0653 -0.4341
 1908TIP3   OH227358   0.836   5.464   1.101 -0.1572 -0.2093  0.2483
 1908TIP3    H127359   0.888   5.502   1.172 -0.0412 -0.9474  0.5660
 1908TIP3    H227360   0.871   5.505   1.021 -0.2695  0.6008  0.6043
 1909TIP3   OH227361   6.771   3.169   8.615 -0.1464  0.0197 -0.8693
 1909TIP3    H127362   6.847   3.200   8.566 -0.0492 -0.1145 -0.8038
 1909TIP3    H227363   6.789   3.076   8.632  0.1995  0.2578  0.1194
 1910TIP3   OH227364   6.388   2.329   0.692  0.5435 -0.2326  0.1160
 1910TIP3    H127365   6.376   2.422   0.712  0.4745 -0.5356  1.5948
 1910TIP3    H227366   6.323   2.310   0.624 -1.4530  0.1466  1.8275
 1911TIP3   OH227367   4.111   0.352   8.160 -0.4084  0.7734  0.4896
 1911TIP3    H127368   4.058   0.429   8.139  0.8593  1.7543  0.7853
 1911TIP3    H227369   4.194   0.387   8.191  0.8832 -0.7246 -1.1073
 1912TIP3   OH227370   5.795   3.442   6.961 -0.0361 -0.2256  0.2852
 1912TIP3    H127371   5.739   3.514   6.933  0.8208 -0.1846 -1.4712
 1912TIP3    H227372   5.735   3.368   6.973 -0.4206 -0.4770 -2.5916
 1913TIP3   OH227373   3.283   2.586   7.553 -0.2072  0.2157  0.0748
 1913TIP3    H127374   3.362   2.640   7.558  0.6532 -0.8502 -1.4456
 1913TIP3    H227375   3.251   2.583   7.644  1.1289  1.1792  0.6129
 1914TIP3   OH227376   4.115   4.162   7.515 -0.1550 -0.5210  0.6359
 1914TIP3    H127377   4.058   4.158   7.438  0.5295 -3.2479  0.1539
 1914TIP3    H227378   4.057   4.142   7.589 -0.5367  0.6519  0.6667
 1915TIP3   OH227379   2.056   4.919   1.249  0.7802 -0.0894  0.7893
 1915TIP3    H127380   2.124   4.950   1.190  1.0406 -2.1494 -0.0788
 1915TIP3    H227381   2.102   4.867   1.314  0.1670 -0.3873  0.9963
 1916TIP3   OH227382   4.802   1.814   8.588  0.2397 -0.2841  0.0011
 1916TIP3    H127383   4.844   1.893   8.553  0.1847 -0.8119 -1.3365
 1916TIP3    H227384   4.824   1.745   8.525 -0.2391 -1.2003  0.8038
 1917TIP3   OH227385   5.798   5.478   1.239 -0.2998 -0.7340 -0.7336
 1917TIP3    H127386   5.807   5.490   1.145 -1.3474 -0.0034 -0.7664
 1917TIP3    H227387   5.788   5.567   1.274  1.6130 -0.8585  0.2756
 1918TIP3   OH227388   1.846   4.916   7.729 -0.5875  0.0033 -0.0958
 1918TIP3    H127389   1.828   4.899   7.821 -1.2573  0.4659 -0.1342
 1918TIP3    H227390   1.807   5.002   7.712 -2.6159 -1.0618 -1.3718
 1919TIP3   OH227391   4.978   2.030   8.421 -0.5652  0.0772  0.1595
 1919TIP3    H127392   4.988   2.124   8.430  0.6397  0.1338 -1.3033
 1919TIP3    H227393   5.064   1.999   8.392 -1.2399 -1.3043 -0.4857
 1920TIP3   OH227394   2.064   3.268   2.805 -0.2750  0.5415  0.4757
 1920TIP3    H127395   2.069   3.274   2.710  1.0838 -1.5319  0.3526
 1920TIP3    H227396   1.974   3.239   2.822 -0.3732  0.4126 -0.2246
 1921TIP3   OH227397   1.407   3.690   8.677 -0.7853 -0.0574 -0.3912
 1921TIP3    H127398   1.447   3.649   8.753 -0.8709  0.4337 -0.0765
 1921TIP3    H227399   1.318   3.711   8.705 -0.6080  0.7414 -0.3883
 1922TIP3   OH227400   0.148   2.118   2.328  0.6015 -0.3420 -0.2956
 1922TIP3    H127401   0.187   2.181   2.388  1.9964 -0.8811 -0.5841
 1922TIP3    H227402   0.217   2.054   2.313 -0.6781 -1.8005 -0.2295
 1923TIP3   OH227403   1.972   0.959   7.840 -0.6302  0.2673 -0.4211
 1923TIP3    H127404   2.039   0.920   7.785  0.9482 -0.9392  2.1878
 1923TIP3    H227405   1.896   0.902   7.829 -0.6448  0.5478 -1.9566
 1924TIP3   OH227406   3.496   5.880   1.506  0.1482 -0.1021 -0.1244
 1924TIP3    H127407   3.461   5.941   1.441  1.0357  1.6724  0.9833
 1924TIP3    H227408   3.561   5.829   1.458 -1.8176 -1.4835 -1.4959
 1925TIP3   OH227409   0.551   2.077   8.599  0.7936 -0.5266  0.4352
 1925TIP3    H127410   0.534   2.079   8.505  0.8739  0.7103  0.4377
 1925TIP3    H227411   0.544   2.168   8.627  0.9464 -0.8574  1.6000
 1926TIP3   OH227412   1.761   4.476   6.736 -0.4020 -0.1812  0.3306
 1926TIP3    H127413   1.783   4.536   6.664 -2.2199  0.1021 -0.0656
 1926TIP3    H227414   1.703   4.528   6.792 -1.5742 -1.3715  0.2744
 1927TIP3   OH227415   6.314   1.193   8.312 -0.1993  0.0692  0.0087
 1927TIP3    H127416   6.326   1.166   8.221  0.3147  0.4550 -0.0405
 1927TIP3    H227417   6.236   1.249   8.311  0.6685  1.3076 -0.4612
 1928TIP3   OH227418   3.167   2.814   8.472 -0.4453 -0.6153  0.1697
 1928TIP3    H127419   3.195   2.807   8.381  0.5907  1.3173  0.2894
 1928TIP3    H227420   3.240   2.780   8.523 -0.1434  0.2304  0.3233
 1929TIP3   OH227421   5.001   2.499   2.838  0.2870  0.3034  0.0144
 1929TIP3    H127422   5.016   2.574   2.780  1.4657 -0.5790 -0.8769
 1929TIP3    H227423   4.910   2.507   2.865 -0.3237  0.7451 -1.9979
 1930TIP3   OH227424   0.253   6.047   0.549 -0.0278 -0.2822  0.1010
 1930TIP3    H127425   0.290   6.071   0.634  2.5030 -0.3381 -0.9070
 1930TIP3    H227426   0.260   6.127   0.496 -0.5811 -0.5487 -0.3895
 1931TIP3   OH227427   2.091   1.508   7.368 -0.1008 -0.0458  1.0260
 1931TIP3    H127428   2.171   1.470   7.333  0.7118  1.4381  1.1743
 1931TIP3    H227429   2.107   1.515   7.462  0.5288  2.1940  0.8254
 1932TIP3   OH227430   3.877   0.504   8.548 -0.4711  0.1345  0.3644
 1932TIP3    H127431   3.893   0.416   8.515 -3.2373 -0.3720  0.1715
 1932TIP3    H227432   3.874   0.559   8.470 -2.4170 -0.2895  0.0833
 1933TIP3   OH227433   2.400   3.293   1.803 -0.5838  0.1304  0.2025
 1933TIP3    H127434   2.473   3.239   1.774 -0.7222 -0.0278  0.1537
 1933TIP3    H227435   2.357   3.322   1.723  0.0617  1.1080  0.1835
 1934TIP3   OH227436   3.840   2.977   1.715 -0.5659 -0.7633 -0.1817
 1934TIP3    H127437   3.841   3.001   1.808 -1.3462  0.7082 -0.5297
 1934TIP3    H227438   3.807   2.887   1.714  0.9824 -1.4103  1.0531
 1935TIP3   OH227439   4.302   2.497   1.447  0.2707 -0.4282  0.1224
 1935TIP3    H127440   4.316   2.529   1.358  0.3117 -0.5103  0.0995
 1935TIP3    H227441   4.234   2.430   1.437 -1.9186  1.5934  0.5335
 1936TIP3   OH227442   0.666   3.758   8.817  0.5905 -0.9779  0.0580
 1936TIP3    H127443   0.628   3.768   8.905  0.1496  1.4383 -0.3366
 1936TIP3    H227444   0.644   3.840   8.772  2.7913 -1.1927 -1.5638
 1937TIP3   OH227445   5.126   5.709   0.940  0.1394 -0.3949  0.4681
 1937TIP3    H127446   5.166   5.764   1.007 -0.0668  0.9236 -0.4299
 1937TIP3    H227447   5.065   5.768   0.895  0.5529 -1.1206 -1.1061
 1938TIP3   OH227448   5.472   1.862   7.682  0.1637 -0.0784 -0.3253
 1938TIP3    H127449   5.488   1.828   7.594 -2.0581 -1.2365 -0.3590
 1938TIP3    H227450   5.484   1.957   7.674  3.3236 -0.4205 -1.0116
 1939TIP3   OH227451   0.079   4.117   8.148 -0.2396  0.1939 -0.2132
 1939TIP3    H127452  -0.010   4.084   8.163 -0.4622  1.0827  0.5080
 1939TIP3    H227453   0.135   4.054   8.193 -0.5306 -0.1578 -0.3334
 1940TIP3   OH227454   5.679   4.559   7.377  0.7194 -0.1985  0.0681
 1940TIP3    H127455   5.773   4.572   7.373  0.8381 -0.7586  0.7381
 1940TIP3    H227456   5.667   4.466   7.355  0.5512 -0.7251  2.1563
 1941TIP3   OH227457   2.183   1.495   2.204  0.4053  0.2698 -0.1390
 1941TIP3    H127458   2.155   1.475   2.114  0.6236 -0.3856 -0.0684
 1941TIP3    H227459   2.270   1.533   2.194  0.7986 -0.6204 -0.1516
 1942TIP3   OH227460   2.338   4.822   2.638 -0.1201 -0.0288  0.2729
 1942TIP3    H127461   2.364   4.740   2.596  1.0609  0.1811  0.5738
 1942TIP3    H227462   2.254   4.844   2.598 -0.8962 -1.8438  0.8103
 1943TIP3   OH227463   0.523   1.721   0.707  0.1135 -0.7354  0.1745
 1943TIP3    H127464   0.463   1.725   0.781  0.9993 -3.2009  1.1228
 1943TIP3    H227465   0.474   1.675   0.638 -0.2064  0.2649 -0.2865
 1944TIP3   OH227466   5.651   0.464   7.658  0.3063 -0.1955  0.3212
 1944TIP3    H127467   5.618   0.553   7.649  1.0392 -0.0528 -1.1974
 1944TIP3    H227468   5.729   0.472   7.713 -0.5035 -0.1416  1.5010
 1945TIP3   OH227469   1.724   2.113   7.912  0.1995 -0.2072  0.2508
 1945TIP3    H127470   1.814   2.138   7.888 -0.5857  1.1312 -1.5540
 1945TIP3    H227471   1.690   2.070   7.833 -0.7822 -0.5760  0.8689
 1946TIP3   OH227472   5.429   1.164   0.343  0.5449 -0.1636  0.3333
 1946TIP3    H127473   5.501   1.223   0.366  2.1796 -0.9266 -2.3416
 1946TIP3    H227474   5.364   1.220   0.300  0.5657  0.1706  0.7273
 1947TIP3   OH227475   0.498   3.240   8.045 -0.6478  0.0560 -0.1678
 1947TIP3    H127476   0.459   3.210   7.963  0.5385 -0.3553 -0.6005
 1947TIP3    H227477   0.585   3.200   8.046 -0.6197  0.1041  1.2676
 1948TIP3   OH227478   0.868   6.845   2.367  0.1522  0.3049 -0.2515
 1948TIP3    H127479   0.856   6.862   2.273  1.5232 -0.5312 -0.6145
 1948TIP3    H227480   0.896   6.754   2.371  0.3009  0.3887  0.9620
 1949TIP3   OH227481   1.974   3.297   8.626  1.1917  0.0117 -0.0339
 1949TIP3    H127482   1.999   3.223   8.682  2.4919 -1.4968 -2.4208
 1949TIP3    H227483   2.028   3.370   8.658  0.4278 -0.1998  1.9059
 1950TIP3   OH227484   0.679   1.705   7.960  0.4804  0.2886  0.2722
 1950TIP3    H127485   0.736   1.778   7.984  0.6406  0.4298 -0.5167
 1950TIP3    H227486   0.639   1.731   7.878 -1.7117  0.7151  1.4121
 1951TIP3   OH227487   1.065   1.965   7.740  0.4972  0.4301 -0.0561
 1951TIP3    H127488   1.033   2.032   7.679 -0.4451  1.0607  1.0868
 1951TIP3    H227489   1.020   1.984   7.822  1.4272 -0.6487  0.7370
 1952TIP3   OH227490   2.442   0.846   1.221 -0.0220  0.0811  0.2594
 1952TIP3    H127491   2.357   0.803   1.220  0.2206 -0.4133 -0.5463
 1952TIP3    H227492   2.484   0.819   1.139  0.4691  1.2055  0.1078
 1953TIP3   OH227493   0.951   2.791   0.232 -0.3314 -0.4631 -0.1055
 1953TIP3    H127494   0.928   2.700   0.209 -3.1746  0.0976  0.1812
 1953TIP3    H227495   0.920   2.802   0.322 -0.0879  0.8190 -0.1616
 1954TIP3   OH227496   0.279   0.790   0.825 -0.2318 -0.1583 -0.3157
 1954TIP3    H127497   0.265   0.766   0.917  0.7596 -1.3239 -0.4362
 1954TIP3    H227498   0.202   0.755   0.780  0.1258 -1.1710 -0.1626
 1955TIP3   OH227499   0.801   2.810   0.479  0.2298  0.0646  0.1260
 1955TIP3    H127500   0.836   2.810   0.568 -2.1213 -0.1794  1.1198
 1955TIP3    H227501   0.730   2.745   0.481 -2.2995  2.5822 -0.8599
 1956TIP3   OH227502   1.098   3.143   6.440 -0.0946  0.0629 -0.2729
 1956TIP3    H127503   1.003   3.149   6.444 -0.1962 -1.8529  1.5840
 1956TIP3    H227504   1.129   3.217   6.492 -0.6032 -0.0598  0.2145
 1957TIP3   OH227505   0.874   3.539   7.540 -0.1655 -0.4045 -0.1298
 1957TIP3    H127506   0.788   3.555   7.579  0.8814  0.0522  2.1262
 1957TIP3    H227507   0.908   3.626   7.521 -0.1962 -0.5902 -1.1342
 1958TIP3   OH227508   4.305   3.107   7.711 -0.0944  0.5780 -0.2199
 1958TIP3    H127509   4.306   3.177   7.777  0.4182 -0.6142  1.0756
 1958TIP3    H227510   4.389   3.117   7.666 -0.3955  1.3225 -0.6426
 1959TIP3   OH227511   0.043   5.428   7.455  0.4271  0.1111 -0.6235
 1959TIP3    H127512   0.116   5.477   7.494  1.0519 -1.2023 -0.0903
 1959TIP3    H227513   0.061   5.430   7.361  1.1989 -0.2294 -0.4988
 1960TIP3   OH227514   1.361   3.173   1.087 -0.0738  0.5504  0.1328
 1960TIP3    H127515   1.270   3.186   1.060  0.1924  2.0330 -0.1276
 1960TIP3    H227516   1.400   3.121   1.016 -0.9228 -0.9372  0.7042
 1961TIP3   OH227517   3.550   1.081   1.199  0.4093  0.0665 -0.7946
 1961TIP3    H127518   3.539   1.070   1.293  1.3457 -0.5962 -0.7419
 1961TIP3    H227519   3.642   1.103   1.188  0.3057  0.1512 -1.5509
 1962TIP3   OH227520   1.443   1.139   7.407  0.4990 -0.2093  0.7308
 1962TIP3    H127521   1.510   1.174   7.349 -0.5922  0.0050 -0.4580
 1962TIP3    H227522   1.417   1.213   7.462 -1.4836  0.8396 -1.4717
 1963TIP3   OH227523   5.467   0.093   0.336  0.2924  0.0005  0.3013
 1963TIP3    H127524   5.476   0.061   0.246  0.1827 -0.1386  0.3387
 1963TIP3    H227525   5.390   0.047   0.370  0.3531  0.0289  0.4780
 1964TIP3   OH227526   6.459   1.014   1.281 -0.1208  0.0101  0.2648
 1964TIP3    H127527   6.389   1.019   1.216 -1.2281  1.3127  1.4875
 1964TIP3    H227528   6.482   1.106   1.299  1.4565 -0.3774  0.3702
 1965TIP3   OH227529   2.684   6.609   8.758  0.2149 -1.1062  0.0748
 1965TIP3    H127530   2.719   6.599   8.847 -0.7647 -0.2278  0.5935
 1965TIP3    H227531   2.693   6.703   8.740 -0.7405 -1.0637 -0.2440
 1966TIP3   OH227532   6.159   6.280   7.833  0.1767 -0.2558 -0.1957
 1966TIP3    H127533   6.127   6.276   7.743 -1.8131  1.0274  0.3964
 1966TIP3    H227534   6.093   6.234   7.885  0.4184  0.4963  0.8091
 1967TIP3   OH227535   3.859   1.128   6.716 -0.6020  0.2506 -0.1911
 1967TIP3    H127536   3.907   1.088   6.788 -1.3828  0.9726  0.7449
 1967TIP3    H227537   3.815   1.055   6.673 -0.0804 -0.1893  0.0093
 1968TIP3   OH227538   6.572   1.380   7.455  0.3573  0.6023 -0.0565
 1968TIP3    H127539   6.601   1.381   7.547 -0.1336  0.6189  0.1002
 1968TIP3    H227540   6.498   1.321   7.454 -0.6729  1.8494 -0.1243
 1969TIP3   OH227541   2.217   2.542   1.351  0.4086  0.1808 -0.4569
 1969TIP3    H127542   2.221   2.447   1.337  2.2080  0.3948 -1.9356
 1969TIP3    H227543   2.137   2.570   1.307 -0.4273 -0.6936  0.4640
 1970TIP3   OH227544   2.529   1.597   7.457  0.0452 -0.5751 -0.0839
 1970TIP3    H127545   2.615   1.556   7.470 -0.5439 -1.2348  2.1193
 1970TIP3    H227546   2.495   1.609   7.545 -1.5085  1.0765 -0.8631
 1971TIP3   OH227547   5.041   0.333   7.345  0.0312  0.5274 -0.2989
 1971TIP3    H127548   4.983   0.332   7.269 -0.4990  0.1768  0.0977
 1971TIP3    H227549   4.994   0.282   7.411  0.4119  0.9545  0.3146
 1972TIP3   OH227550   1.805   2.396   7.819 -0.4675  0.6119 -0.0540
 1972TIP3    H127551   1.884   2.373   7.868 -0.1589  0.0335 -0.8014
 1972TIP3    H227552   1.734   2.352   7.866 -0.3542  1.1799  0.6539
 1973TIP3   OH227553   2.990   4.871   1.713  0.0636 -0.8790  0.3222
 1973TIP3    H127554   3.063   4.877   1.775  0.6680 -0.1078 -0.4404
 1973TIP3    H227555   2.923   4.821   1.760  1.5244 -2.6901  0.5855
 1974TIP3   OH227556   5.402   5.640   0.846  0.2123  0.1060  0.4354
 1974TIP3    H127557   5.479   5.677   0.891  0.4664  1.6485 -1.1798
 1974TIP3    H227558   5.336   5.709   0.851 -1.7198 -1.7187  3.0948
 1975TIP3   OH227559   6.832   3.201   8.012  0.7368 -0.4410  0.1012
 1975TIP3    H127560   6.916   3.176   8.051  1.3636  0.5947 -0.5318
 1975TIP3    H227561   6.816   3.135   7.945  1.2984 -0.3595 -0.1142
 1976TIP3   OH227562   1.391   1.968   0.994  0.0677 -0.3575  0.1022
 1976TIP3    H127563   1.467   1.950   0.939 -0.7269  0.6808 -1.4096
 1976TIP3    H227564   1.412   2.048   1.041  0.2879 -0.6193  0.4581
 1977TIP3   OH227565   4.331   1.060   0.523  0.2542  0.0944 -0.6354
 1977TIP3    H127566   4.241   1.064   0.491 -0.1112  1.7015  0.5027
 1977TIP3    H227567   4.385   1.073   0.445 -0.3769 -2.6302 -1.6442
 1978TIP3   OH227568   6.323   3.657   1.267  0.1319  0.8539 -0.8063
 1978TIP3    H127569   6.357   3.707   1.341 -0.1041 -0.3263  0.1198
 1978TIP3    H227570   6.228   3.663   1.276  0.0860 -0.4742 -0.1610
 1979TIP3   OH227571   1.747   2.215   0.277  0.0387  0.9576  0.1574
 1979TIP3    H127572   1.840   2.238   0.286 -0.0759  0.8835  2.0449
 1979TIP3    H227573   1.739   2.130   0.319 -0.8669  0.9209 -0.0714
 1980TIP3   OH227574   0.676   0.197   8.370  0.1544  0.3070  0.1766
 1980TIP3    H127575   0.729   0.122   8.399  1.6571  1.2517 -0.0051
 1980TIP3    H227576   0.674   0.188   8.275 -1.2473 -0.4942  0.2547
 1981TIP3   OH227577   6.497   0.659   7.509 -0.2792  0.9234  0.1796
 1981TIP3    H127578   6.587   0.679   7.537  0.0893  2.0321 -1.6108
 1981TIP3    H227579   6.442   0.694   7.580  0.6544  2.0966  0.3708
 1982TIP3   OH227580   4.257   0.155   7.994  0.5050  0.1884 -0.0186
 1982TIP3    H127581   4.290   0.068   8.017 -0.4658  0.2504  1.8018
 1982TIP3    H227582   4.217   0.188   8.074 -1.1593  1.3989 -1.2661
 1983TIP3   OH227583   4.125   1.576   6.716 -0.6907 -0.5450  0.1808
 1983TIP3    H127584   4.049   1.519   6.727 -1.2662  0.2130  0.2045
 1983TIP3    H227585   4.170   1.572   6.801 -0.3924 -1.4240 -0.0117
 1984TIP3   OH227586   5.511   2.013   8.609  0.8353  0.5611  0.1365
 1984TIP3    H127587   5.509   1.956   8.533  0.3901  0.4961  0.1906
 1984TIP3    H227588   5.449   2.083   8.588 -0.0171  0.0391  0.8123
 1985TIP3   OH227589   5.121   1.382   0.524 -0.3298  0.3586 -0.0879
 1985TIP3    H127590   5.110   1.370   0.618  0.5393 -0.0789 -0.0319
 1985TIP3    H227591   5.216   1.386   0.511 -0.3842 -0.9815 -1.0937
 1986TIP3   OH227592   5.090   2.405   1.531 -0.2765 -0.5387  0.0188
 1986TIP3    H127593   5.003   2.384   1.566 -0.6359 -0.3727 -0.7563
 1986TIP3    H227594   5.086   2.499   1.513 -0.5174 -0.8172 -1.5633
 1987TIP3   OH227595   4.294   0.300   0.022  0.1195  0.6428 -0.3273
 1987TIP3    H127596   4.354   0.286  -0.051  1.2006  1.6823  0.3364
 1987TIP3    H227597   4.244   0.378  -0.003  1.6242  2.0030  0.7072
 1988TIP3   OH227598   5.949   4.256   1.792  0.1485  0.2442 -0.2643
 1988TIP3    H127599   6.033   4.288   1.760  0.5046 -1.5413 -1.2736
 1988TIP3    H227600   5.901   4.231   1.713 -1.2849  1.0914  0.3119
 1989TIP3   OH227601   4.524   4.541   8.813  0.1629  0.1937 -0.4038
 1989TIP3    H127602   4.613   4.553   8.846  0.6231 -0.4057 -1.3758
 1989TIP3    H227603   4.479   4.492   8.882  0.1505  1.7504  0.7283
 1990TIP3   OH227604   5.165   6.298   8.577 -0.4718  0.2272 -0.2575
 1990TIP3    H127605   5.240   6.246   8.607 -0.3020  0.1269 -0.8319
 1990TIP3    H227606   5.106   6.234   8.536  0.8217  0.7091 -3.1439
 1991TIP3   OH227607   1.745   5.344   8.704 -0.0085  0.3613 -0.4818
 1991TIP3    H127608   1.755   5.289   8.625  0.5041 -0.0802 -0.1172
 1991TIP3    H227609   1.705   5.425   8.672 -0.4682 -0.0934 -1.0857
 1992TIP3   OH227610   1.244   1.325   0.352  0.0655  0.1613  0.0817
 1992TIP3    H127611   1.277   1.366   0.272 -1.3178  0.2298 -0.4832
 1992TIP3    H227612   1.312   1.342   0.418  1.4523 -0.3232 -1.1878
 1993TIP3   OH227613   0.034   6.509   6.931 -0.2192  0.1820 -0.8215
 1993TIP3    H127614  -0.033   6.525   6.864 -2.6149 -0.7701  1.1702
 1993TIP3    H227615   0.061   6.596   6.960 -1.0213  0.5885 -1.2710
 1994TIP3   OH227616   3.082   3.304   1.375 -0.5886 -0.4815 -0.0795
 1994TIP3    H127617   3.165   3.353   1.370 -0.9976  0.0985 -1.9124
 1994TIP3    H227618   3.099   3.237   1.441  0.9660  0.3194  0.4091
 1995TIP3   OH227619   1.218   1.687   8.493 -0.3520 -0.4270 -0.4093
 1995TIP3    H127620   1.263   1.708   8.412 -0.1923  2.6221  0.3383
 1995TIP3    H227621   1.278   1.629   8.540  1.6069  1.3054 -0.6340
 1996TIP3   OH227622   0.714   5.471   7.206  0.3581 -0.8357  0.0973
 1996TIP3    H127623   0.622   5.495   7.206  0.0413 -1.9889  0.5493
 1996TIP3    H227624   0.750   5.514   7.129 -0.8999 -1.6072 -0.9549
 1997TIP3   OH227625   4.166   2.244   7.068 -0.0481  0.2035 -0.2798
 1997TIP3    H127626   4.186   2.327   7.112  3.2331  0.1242 -1.3426
 1997TIP3    H227627   4.136   2.269   6.981  1.5542  0.3290 -0.8231
 1998TIP3   OH227628   0.127   6.026   1.529 -0.1372  0.2722 -0.2079
 1998TIP3    H127629   0.205   6.060   1.486  0.1913 -0.4633 -0.2162
 1998TIP3    H227630   0.056   6.046   1.468  0.3342 -0.8546 -1.1900
 1999TIP3   OH227631   4.646   6.238   8.253 -0.4501 -0.3141 -0.3801
 1999TIP3    H127632   4.579   6.204   8.193 -0.9553 -1.9710  1.0530
 1999TIP3    H227633   4.601   6.307   8.302  0.1201  1.4506 -2.1750
 2000TIP3   OH227634   6.318   3.533   7.229 -0.3645 -0.0016 -0.2650
 2000TIP3    H127635   6.387   3.576   7.178  0.5448 -0.3762  0.6327
 2000TIP3    H227636   6.244   3.527   7.168 -0.4848  2.6376 -0.5094
 2001TIP3   OH227637   0.304   1.644   8.250 -0.0559 -0.3270  0.1222
 2001TIP3    H127638   0.302   1.584   8.324  1.4429 -1.8298 -0.9892
 2001TIP3    H227639   0.340   1.593   8.177 -2.4028  0.7745 -1.9729
 2002TIP3   OH227640   6.058   0.237   7.849  0.0271  0.3657 -0.2517
 2002TIP3    H127641   5.990   0.220   7.914 -1.0992  0.1820 -1.4207
 2002TIP3    H227642   6.088   0.151   7.821  0.7345  0.4460  0.2355
 2003TIP3   OH227643   4.144   2.220   1.360 -0.3488  0.8723  0.3386
 2003TIP3    H127644   4.065   2.210   1.414 -1.0586  3.4859 -0.0825
 2003TIP3    H227645   4.185   2.133   1.362 -2.4112 -0.1695  1.8210
 2004TIP3   OH227646   1.840   4.720   0.039 -0.1217  0.1374  0.2990
 2004TIP3    H127647   1.824   4.633   0.000 -1.8395  0.5743 -0.0749
 2004TIP3    H227648   1.821   4.708   0.132  0.0650  0.0234  0.3235
 2005TIP3   OH227649   3.316   2.093   1.418  0.5223 -0.7016  0.3346
 2005TIP3    H127650   3.401   2.052   1.400  0.2437 -1.9369  1.5930
 2005TIP3    H227651   3.296   2.067   1.508 -1.4556 -0.9333 -0.1122
 2006TIP3   OH227652   5.452   1.736   6.602 -0.2716 -0.2794 -0.6565
 2006TIP3    H127653   5.370   1.703   6.566 -0.2126 -1.4627  0.2351
 2006TIP3    H227654   5.425   1.805   6.664 -0.5531 -0.3229 -0.7298
 2007TIP3   OH227655   0.124   5.645   1.736  0.6738  0.2496 -0.1463
 2007TIP3    H127656   0.159   5.667   1.650 -0.0602  1.1212 -0.2312
 2007TIP3    H227657   0.029   5.651   1.725  0.5289 -0.6428  0.4653
 2008TIP3   OH227658   1.131   1.153   8.679 -0.5382 -0.7924  0.2588
 2008TIP3    H127659   1.187   1.176   8.754  1.4668 -1.8528 -0.8449
 2008TIP3    H227660   1.072   1.228   8.671 -0.1566 -0.1892  2.2636
 2009TIP3   OH227661   3.821   2.583   1.310 -0.5205 -0.2797 -0.3946
 2009TIP3    H127662   3.742   2.593   1.257 -1.3084 -0.5295  0.6910
 2009TIP3    H227663   3.844   2.490   1.301 -1.5929 -0.7094  0.9320
 2010TIP3   OH227664   3.625   1.501   6.747  0.0366 -0.0415  0.4433
 2010TIP3    H127665   3.533   1.487   6.721 -0.3528  1.8607  0.6281
 2010TIP3    H227666   3.663   1.547   6.673  0.8789 -0.8377  0.3655
 2011TIP3   OH227667   5.386   2.642   7.405 -0.1712  0.8437  0.0041
 2011TIP3    H127668   5.373   2.631   7.499  0.2069  1.9600  0.2005
 2011TIP3    H227669   5.473   2.682   7.398 -0.3628  1.1270 -0.7942
 2012TIP3   OH227670   5.105   0.770   0.254  0.2426  0.2232 -0.1243
 2012TIP3    H127671   5.141   0.845   0.207 -0.9869  1.1615  0.3741
 2012TIP3    H227672   5.054   0.723   0.188 -1.1282  1.3038  0.1101
 2013TIP3   OH227673   4.585   1.340   1.001  0.3576  0.0886  0.2544
 2013TIP3    H127674   4.574   1.370   0.910  2.0884 -0.4442 -0.1731
 2013TIP3    H227675   4.581   1.421   1.053  2.6021  0.8888 -0.6611
 2014TIP3   OH227676   2.278   0.582   1.608 -0.0326 -0.4760 -0.4334
 2014TIP3    H127677   2.360   0.624   1.637 -2.6431  3.4019  2.3126
 2014TIP3    H227678   2.246   0.639   1.538 -0.9907 -1.2863 -0.6744
 2015TIP3   OH227679   4.552   0.183   8.072  0.1939  0.2370 -0.0993
 2015TIP3    H127680   4.491   0.112   8.053  1.1228 -0.5231 -0.3488
 2015TIP3    H227681   4.638   0.146   8.051  0.8443  0.9184  1.2407
 2016TIP3   OH227682   6.272   5.095   8.274  0.1307 -0.1831  0.2684
 2016TIP3    H127683   6.353   5.144   8.290 -1.5789  2.1348  2.6099
 2016TIP3    H227684   6.220   5.154   8.219  0.2355 -2.0072 -1.9499
 2017TIP3   OH227685   4.947   0.293   1.050 -0.2625  0.2890 -0.7349
 2017TIP3    H127686   5.021   0.353   1.046  0.4276 -0.4211  0.4711
 2017TIP3    H227687   4.951   0.244   0.968  1.3750 -0.5749 -0.1899
 2018TIP3   OH227688   6.103   2.366   0.839  0.0643 -0.2450 -0.0594
 2018TIP3    H127689   6.057   2.410   0.767 -2.3253 -0.3697  1.2967
 2018TIP3    H227690   6.123   2.435   0.902  0.2891 -0.4544  0.1043
 2019TIP3   OH227691   2.427   2.707   7.357  0.4756 -0.4170  0.1580
 2019TIP3    H127692   2.407   2.616   7.334  1.5944 -0.5311 -0.4601
 2019TIP3    H227693   2.435   2.707   7.452  1.2985 -1.1663  0.1031
 2020TIP3   OH227694   1.433   1.129   1.421 -0.4251  0.8123 -0.0617
 2020TIP3    H127695   1.493   1.065   1.382  0.1800  1.3234  0.0105
 2020TIP3    H227696   1.446   1.118   1.515 -0.2812  1.0773 -0.0511
 2021TIP3   OH227697   0.073   6.530   1.816 -0.4205 -0.5602  0.3745
 2021TIP3    H127698   0.028   6.605   1.854 -0.6667 -0.9881  0.9519
 2021TIP3    H227699   0.107   6.482   1.892  1.7282  0.1842 -0.0660
 2022TIP3   OH227700   3.200   2.439   8.172 -0.1156  0.4232  0.6059
 2022TIP3    H127701   3.148   2.392   8.106  0.8002 -3.7912  2.5411
 2022TIP3    H227702   3.149   2.430   8.253  0.8319  1.5465  1.3548
 2023TIP3   OH227703   4.930   6.355   7.491 -0.0086  0.8806  0.3919
 2023TIP3    H127704   4.890   6.372   7.406  0.4004  0.8951  0.2021
 2023TIP3    H227705   5.001   6.418   7.498  2.5634 -1.6090 -1.0155
 2024TIP3   OH227706   2.922   3.773   7.822 -0.5640 -0.3382 -0.9562
 2024TIP3    H127707   2.984   3.754   7.752  0.1271  2.3470 -1.1956
 2024TIP3    H227708   2.868   3.844   7.787 -0.6800  0.5609  0.9233
 2025TIP3   OH227709   2.626   4.541   6.940  0.2686  0.1029  1.4555
 2025TIP3    H127710   2.571   4.603   6.892  0.8896 -1.3571 -1.3513
 2025TIP3    H227711   2.707   4.589   6.958  1.0773 -0.0119 -1.4399
 2026TIP3   OH227712   0.708   1.394   7.291  0.1747 -0.0328 -0.0281
 2026TIP3    H127713   0.792   1.369   7.329 -0.9605 -2.7776  0.9475
 2026TIP3    H227714   0.724   1.397   7.197  1.4400 -0.2605  0.1604
 2027TIP3   OH227715   2.536   5.736   1.775  0.5045 -0.1882  0.3360
 2027TIP3    H127716   2.553   5.813   1.829  0.7176 -0.1200  0.1724
 2027TIP3    H227717   2.560   5.662   1.830  1.1065 -0.1043  0.1937
 2028TIP3   OH227718   3.968   4.732   0.087 -0.3109 -0.2329  0.3736
 2028TIP3    H127719   3.909   4.713   0.160 -0.6923  0.1290  0.1586
 2028TIP3    H227720   3.931   4.810   0.045 -0.0890 -0.4368 -0.2064
 2029TIP3   OH227721   0.577   5.192   8.192 -0.0737  0.5981  0.7921
 2029TIP3    H127722   0.635   5.261   8.225  0.0461  1.0091 -0.2256
 2029TIP3    H227723   0.628   5.112   8.201  0.3000  0.8300  0.7664
 2030TIP3   OH227724   0.958   3.544   6.968 -0.1581  0.1876  0.6164
 2030TIP3    H127725   0.875   3.556   6.922  0.5805 -1.6385 -1.3791
 2030TIP3    H227726   1.023   3.541   6.898  1.2905 -0.7766  1.9469
 2031TIP3   OH227727   4.142   4.261   7.913 -0.1081 -0.1036  0.5039
 2031TIP3    H127728   4.106   4.242   8.000 -1.3950 -0.6016 -0.1130
 2031TIP3    H227729   4.070   4.301   7.865  0.3665 -0.4855 -0.5575
 2032TIP3   OH227730   0.832   5.314   7.796  0.7956 -0.4668 -0.3641
 2032TIP3    H127731   0.744   5.335   7.765 -0.9159 -1.8723  3.0475
 2032TIP3    H227732   0.849   5.225   7.763  1.7308  0.3858 -2.3596
 2033TIP3   OH227733   1.445   5.685   1.036  0.1385 -0.3710  0.4600
 2033TIP3    H127734   1.478   5.642   1.115  0.6344 -0.9894 -0.0727
 2033TIP3    H227735   1.506   5.659   0.967  0.7938  1.6783  0.2253
 2034TIP3   OH227736   4.763   5.815   7.821  0.3350 -0.2580 -0.3400
 2034TIP3    H127737   4.714   5.743   7.781 -0.4509 -1.0667  1.9526
 2034TIP3    H227738   4.698   5.885   7.831  0.5840  0.0229 -0.6373
 2035TIP3   OH227739   4.646   1.507   0.439  0.5090 -0.3342 -0.6026
 2035TIP3    H127740   4.741   1.495   0.448  0.2291 -1.7607  0.9715
 2035TIP3    H227741   4.612   1.418   0.431 -0.9854 -0.1145  2.3302
 2036TIP3   OH227742   0.561   4.550   7.073  0.2573 -0.4715 -0.3552
 2036TIP3    H127743   0.558   4.523   6.981  2.2273 -0.0689 -0.5795
 2036TIP3    H227744   0.534   4.642   7.072 -3.0023 -1.2935 -0.0331
 2037TIP3   OH227745   6.499   6.422   2.020 -0.8040  0.3163 -0.5178
 2037TIP3    H127746   6.568   6.416   2.086 -2.1016 -0.1402  0.8316
 2037TIP3    H227747   6.492   6.334   1.984 -1.9786 -0.1497  0.7488
 2038TIP3   OH227748   5.078   3.031   7.498  0.3153  0.0203 -0.0378
 2038TIP3    H127749   5.041   2.976   7.429 -2.0311  1.3389  0.0469
 2038TIP3    H227750   5.118   2.969   7.559  0.4491 -1.3312 -1.4265
 2039TIP3   OH227751   0.749   4.993   8.243  0.2301 -0.1407  0.1531
 2039TIP3    H127752   0.746   4.904   8.280 -0.8659  0.3710  1.3819
 2039TIP3    H227753   0.806   4.985   8.166  3.6117 -1.0458  2.5295
 2040TIP3   OH227754   6.060   1.171   8.656  0.1314  0.2252  0.6723
 2040TIP3    H127755   6.010   1.118   8.594  0.3222  0.7975  0.0146
 2040TIP3    H227756   5.999   1.239   8.683  1.0096  1.9714 -1.4600
 2041TIP3   OH227757   5.920   1.937   7.897 -0.3154 -0.3173  0.3824
 2041TIP3    H127758   5.888   2.017   7.857 -2.4718 -0.7439  1.1196
 2041TIP3    H227759   6.002   1.963   7.941 -1.5599  1.7852  1.6219
 2042TIP3   OH227760   3.142   4.758   8.717 -0.6942 -0.8153  0.4271
 2042TIP3    H127761   3.061   4.709   8.730 -0.8279 -0.9924 -0.9128
 2042TIP3    H227762   3.161   4.748   8.624  0.0622  0.4774  0.4209
 2043TIP3   OH227763   1.581   6.751   2.336  0.6956 -0.5871  0.0354
 2043TIP3    H127764   1.640   6.827   2.343 -0.5327  0.4787 -0.6044
 2043TIP3    H227765   1.615   6.701   2.262  0.9057 -0.0684 -0.2261
 2044TIP3   OH227766   1.964   2.506   1.221  0.1792  0.0911  0.5267
 2044TIP3    H127767   1.984   2.414   1.204  0.8835 -0.0754  2.0405
 2044TIP3    H227768   1.887   2.503   1.278  0.5556  0.4026  1.0557
 2045TIP3   OH227769   3.912   6.622   8.150 -0.1029  0.5441 -0.0533
 2045TIP3    H127770   3.873   6.542   8.115  0.8300  0.5642 -1.2209
 2045TIP3    H227771   3.865   6.638   8.231 -0.1522 -1.3315  0.3434
 2046TIP3   OH227772   5.537   1.158   8.035 -0.2688 -0.1864  0.7518
 2046TIP3    H127773   5.449   1.123   8.024 -0.0955 -0.2230 -0.6974
 2046TIP3    H227774   5.595   1.084   8.017  0.0811  0.5023 -1.2546
 2047TIP3   OH227775   6.531   0.721   2.393 -0.0918 -0.4274 -0.0833
 2047TIP3    H127776   6.456   0.757   2.441  0.3932  1.0429 -0.3653
 2047TIP3    H227777   6.539   0.778   2.316  2.0143  0.1949  0.5308
 2048TIP3   OH227778   4.894   5.905   0.973 -0.7234 -0.0103 -0.0711
 2048TIP3    H127779   4.871   5.877   1.062 -1.2482  2.2452  0.5611
 2048TIP3    H227780   4.879   6.000   0.973  0.4247  0.2262 -2.2251
 2049TIP3   OH227781   3.634   5.295   8.700  0.1842  0.5239  0.3939
 2049TIP3    H127782   3.600   5.206   8.714  2.1991 -0.6220 -1.3564
 2049TIP3    H227783   3.628   5.336   8.787 -0.7741 -1.3174  1.2674
 2050TIP3   OH227784   0.973   3.361   0.026 -0.6116 -0.4665 -0.4713
 2050TIP3    H127785   1.036   3.377  -0.045  1.0118 -0.6041  0.8873
 2050TIP3    H227786   0.929   3.279   0.001 -0.6605 -0.0844 -1.7067
 2051TIP3   OH227787   0.117   0.553   1.603 -0.2309  0.1335 -0.0236
 2051TIP3    H127788   0.074   0.503   1.673 -1.9266 -1.2901 -1.9765
 2051TIP3    H227789   0.189   0.498   1.574 -0.7838 -0.2230 -0.7409
 2052TIP3   OH227790   3.844   5.182   8.212  0.0084  0.2020  0.3423
 2052TIP3    H127791   3.789   5.136   8.148  1.3556 -1.6224  0.3997
 2052TIP3    H227792   3.787   5.196   8.287 -0.8202 -0.1668 -0.1965
 2053TIP3   OH227793   0.545   0.834   7.754 -0.0317  0.3958 -0.1041
 2053TIP3    H127794   0.498   0.786   7.822 -1.2557 -0.2098 -1.3179
 2053TIP3    H227795   0.520   0.790   7.673  1.2469  1.2046 -0.9693
 2054TIP3   OH227796   1.977   3.910   7.976 -0.8362 -0.3857  0.3617
 2054TIP3    H127797   1.912   3.958   7.925  0.9591  0.9027 -0.8314
 2054TIP3    H227798   1.997   3.967   8.051 -0.7784 -0.5841  0.5006
 2055TIP3   OH227799   0.714   0.235   8.639 -0.6383 -0.0497 -0.4104
 2055TIP3    H127800   0.704   0.234   8.544 -0.5717  2.5781 -0.5247
 2055TIP3    H227801   0.650   0.172   8.671  0.7225 -2.5158 -2.2292
 2056TIP3   OH227802   4.346   6.455   6.192 -0.6633 -0.7933 -0.0117
 2056TIP3    H127803   4.438   6.466   6.214 -0.1690  0.4741 -2.3485
 2056TIP3    H227804   4.299   6.506   6.258  0.6277  1.9182 -1.0441
 2057TIP3   OH227805   4.319   5.417   1.927  0.1828 -0.0522  0.3143
 2057TIP3    H127806   4.274   5.370   1.997  0.0026  0.6597  0.6855
 2057TIP3    H227807   4.276   5.502   1.924  0.1965 -0.0669 -0.6550
 2058TIP3   OH227808   4.446   6.347   1.661  0.2418 -0.2957  0.4739
 2058TIP3    H127809   4.527   6.398   1.657  0.5933 -0.8160  0.7774
 2058TIP3    H227810   4.475   6.256   1.663 -0.3377 -0.4792  0.9353
 2059TIP3   OH227811   5.560   6.366   8.212 -0.1266 -0.4706  0.2846
 2059TIP3    H127812   5.576   6.460   8.215 -0.3073 -0.3629 -1.1723
 2059TIP3    H227813   5.581   6.341   8.122 -0.3614 -1.7699  0.5678
 2060TIP3   OH227814   4.689   4.459   1.009 -0.4336  0.0948 -0.3380
 2060TIP3    H127815   4.723   4.418   0.930  1.3419 -1.7954  1.3053
 2060TIP3    H227816   4.692   4.391   1.075  1.2476  2.4371  2.1995
 2061TIP3   OH227817   0.161   1.156   1.461  0.4128 -0.0875  0.0802
 2061TIP3    H127818   0.084   1.103   1.442  1.2817 -1.3831  0.0054
 2061TIP3    H227819   0.233   1.109   1.420  0.9618  2.3415 -1.9957
 2062TIP3   OH227820   0.468   0.336   0.253 -0.3219 -0.6205 -0.1955
 2062TIP3    H127821   0.477   0.369   0.342  0.4742  0.3267 -0.6042
 2062TIP3    H227822   0.545   0.281   0.240  0.5611  0.7116 -0.8819
 2063TIP3   OH227823   3.027   3.682   8.074 -0.2012  0.0113  0.1368
 2063TIP3    H127824   3.007   3.710   7.985 -0.3466 -0.0466  0.1515
 2063TIP3    H227825   2.946   3.698   8.123 -0.4719 -0.9705  0.0244
 2064TIP3   OH227826   2.720   4.388   2.188  0.1953  0.5302 -0.3620
 2064TIP3    H127827   2.656   4.318   2.206  1.3498 -0.7945 -1.2332
 2064TIP3    H227828   2.739   4.425   2.274 -2.5613  1.7445 -0.1745
 2065TIP3   OH227829   1.563   3.584   1.327  0.2067 -0.4495  0.4426
 2065TIP3    H127830   1.564   3.657   1.265 -0.4408  0.3965  1.3760
 2065TIP3    H227831   1.568   3.505   1.273  0.8982  0.2798 -0.5965
 2066TIP3   OH227832   1.849   2.522   0.372  0.0638  0.2285 -0.0596
 2066TIP3    H127833   1.916   2.560   0.316 -0.8195  1.1390 -0.5238
 2066TIP3    H227834   1.873   2.429   0.378 -0.0001  0.0029 -2.2684
 2067TIP3   OH227835   6.183   6.533   0.667  0.2929  0.2541  0.0693
 2067TIP3    H127836   6.093   6.508   0.645 -0.5521  2.1024  1.2087
 2067TIP3    H227837   6.238   6.478   0.610 -1.5308 -1.0053 -0.5622
 2068TIP3   OH227838   1.270   2.754   1.694 -0.5980 -0.2932  0.4705
 2068TIP3    H127839   1.225   2.835   1.719  0.6258  0.0414  1.7096
 2068TIP3    H227840   1.321   2.730   1.771  0.9296 -0.9396 -0.6845
 2069TIP3   OH227841   5.632   1.967   7.197 -0.3814 -0.4102  0.3148
 2069TIP3    H127842   5.557   1.946   7.142 -2.5215  1.0252  2.4805
 2069TIP3    H227843   5.676   2.038   7.152 -1.6338  0.2258  0.0555
 2070TIP3   OH227844   0.220   6.676   2.288  0.0257  0.1096  0.7438
 2070TIP3    H127845   0.129   6.706   2.292  0.3274  1.5514 -1.4918
 2070TIP3    H227846   0.261   6.733   2.222  1.8964 -2.1775 -0.1924
 2071TIP3   OH227847   6.166   4.420   0.601  0.8895 -0.2737  0.0456
 2071TIP3    H127848   6.176   4.462   0.686 -0.5384 -0.7109  0.4614
 2071TIP3    H227849   6.194   4.330   0.616  0.4293 -0.4085  0.1302
 2072TIP3   OH227850   0.877   0.747   0.476  0.2542 -0.6594 -0.3433
 2072TIP3    H127851   0.822   0.699   0.415 -2.5504  1.2895  0.4211
 2072TIP3    H227852   0.858   0.708   0.561  0.3439 -0.2332 -0.1230
 2073TIP3   OH227853   5.846   5.339   7.677 -0.4676 -0.4740  0.2670
 2073TIP3    H127854   5.909   5.313   7.610 -0.6112 -0.9136  0.2950
 2073TIP3    H227855   5.863   5.279   7.750  0.7265  0.9928  1.2404
 2074TIP3   OH227856   5.957   3.280   0.028 -0.1174  0.2997 -0.1391
 2074TIP3    H127857   6.028   3.317  -0.025  0.3147 -0.3153  0.0083
 2074TIP3    H227858   5.985   3.295   0.118  1.8506 -3.5015  0.0812
 2075TIP3   OH227859   3.959   3.771   6.231  0.2637  0.1778  0.1648
 2075TIP3    H127860   3.995   3.696   6.185  1.7912  0.9616  0.0041
 2075TIP3    H227861   4.034   3.809   6.277 -0.8953  0.3363  2.0524
 2076TIP3   OH227862   3.179   4.689   2.091  0.2206  0.5310 -0.1498
 2076TIP3    H127863   3.142   4.667   2.176  0.3619  1.9877  0.3232
 2076TIP3    H227864   3.273   4.696   2.106  0.3702 -0.2482 -0.6761
 2077TIP3   OH227865   1.928   1.322   0.510  0.0363  0.4432 -0.0816
 2077TIP3    H127866   2.005   1.286   0.468 -0.0052  0.2383  0.0144
 2077TIP3    H227867   1.856   1.266   0.480  0.0971 -0.1217  0.7658
 2078TIP3   OH227868   6.512   4.008   7.542  0.2607  0.0451 -0.4473
 2078TIP3    H127869   6.601   3.977   7.557  0.1290  0.2513  0.8714
 2078TIP3    H227870   6.518   4.103   7.549 -0.0844  0.0521 -0.2252
 2079TIP3   OH227871   5.201   0.844   1.271 -0.2857 -0.6053  0.3411
 2079TIP3    H127872   5.290   0.852   1.235 -0.6746 -0.4781 -0.6361
 2079TIP3    H227873   5.182   0.930   1.308 -0.6497 -0.0606 -1.0427
 2080TIP3   OH227874   2.427   6.766   7.704  0.2950  0.1884  0.3284
 2080TIP3    H127875   2.436   6.681   7.660  1.6672  0.0176  0.8926
 2080TIP3    H227876   2.332   6.780   7.709  0.0315 -1.3767  0.3566
 2081TIP3   OH227877   2.480   1.912   7.128 -0.0623 -0.3216 -0.1584
 2081TIP3    H127878   2.566   1.880   7.103  1.0216  1.5249  1.0036
 2081TIP3    H227879   2.424   1.894   7.052  0.8586 -3.0844 -0.3145
 2082TIP3   OH227880   5.442   0.733   8.436 -0.7849 -0.2301 -0.3949
 2082TIP3    H127881   5.492   0.656   8.461 -1.5069 -0.8192 -0.7130
 2082TIP3    H227882   5.414   0.716   8.346 -1.0232  0.3671 -0.4423
 2083TIP3   OH227883   1.243   1.486   6.915 -0.2347 -0.8875  0.2453
 2083TIP3    H127884   1.282   1.453   6.996 -0.9631 -1.6901  0.2864
 2083TIP3    H227885   1.190   1.561   6.943 -0.0739 -0.8426  0.4336
 2084TIP3   OH227886   0.994   4.532   0.371  0.3889  0.2727  0.4245
 2084TIP3    H127887   0.936   4.479   0.316 -1.8518 -0.3142  3.1547
 2084TIP3    H227888   1.081   4.515   0.335 -0.5310 -2.9026 -0.7298
 2085TIP3   OH227889   3.592   2.697   6.975  1.0088 -0.0912  0.0939
 2085TIP3    H127890   3.555   2.617   6.938 -1.1794  1.1103 -0.4888
 2085TIP3    H227891   3.668   2.716   6.919  0.4799 -0.7930 -0.9003
 2086TIP3   OH227892   3.852   3.644   6.648 -0.3396 -0.3673 -0.2171
 2086TIP3    H127893   3.800   3.564   6.650  0.1909 -0.7423  2.2083
 2086TIP3    H227894   3.925   3.627   6.708  1.1639  1.0605 -1.5482
 2087TIP3   OH227895   0.164   2.966   0.560 -0.7362 -0.3217 -0.1645
 2087TIP3    H127896   0.217   2.930   0.631 -0.6718 -2.1320 -1.0671
 2087TIP3    H227897   0.118   2.890   0.524 -0.5102  0.4659 -2.2668
 2088TIP3   OH227898   3.972   5.925   8.078  0.1286 -0.3625  0.3184
 2088TIP3    H127899   4.022   5.900   8.000  3.1310  4.1767  0.4151
 2088TIP3    H227900   4.005   5.867   8.147 -1.3200 -3.2674 -1.2467
 2089TIP3   OH227901   6.609   2.222   8.405  0.4349 -0.2683  0.2767
 2089TIP3    H127902   6.614   2.145   8.461 -1.7826 -0.2958  0.5108
 2089TIP3    H227903   6.623   2.189   8.316  1.3824 -0.6122  0.5384
 2090TIP3   OH227904   2.103   4.527   0.230  0.1561 -0.1964  0.2036
 2090TIP3    H127905   2.023   4.532   0.282  1.4567 -2.3253  2.6361
 2090TIP3    H227906   2.073   4.519   0.140 -2.3578 -0.6798  1.0059
 2091TIP3   OH227907   5.530   3.476   0.511 -0.0980  0.2041 -0.0120
 2091TIP3    H127908   5.488   3.410   0.456 -0.3254 -0.2449  0.6883
 2091TIP3    H227909   5.458   3.521   0.555  0.1207 -0.5706  1.1946
 2092TIP3   OH227910   6.124   0.934   7.743 -0.0434 -0.1317 -0.1139
 2092TIP3    H127911   6.037   0.973   7.731 -0.1979 -0.6607 -0.7471
 2092TIP3    H227912   6.132   0.924   7.838 -0.0526  1.2948  0.0720
 2093TIP3   OH227913   1.622   6.456   8.028 -0.5323  0.1832 -0.4667
 2093TIP3    H127914   1.580   6.537   8.057  1.2781  0.6869  0.9341
 2093TIP3    H227915   1.677   6.429   8.102 -1.7525 -2.8643 -0.5378
 2094TIP3   OH227916   2.197   4.150   7.115 -0.4622  0.6670  0.2506
 2094TIP3    H127917   2.284   4.118   7.093 -0.1955  1.3019  0.3580
 2094TIP3    H227918   2.209   4.244   7.131 -1.6741  1.4441 -2.7579
 2095TIP3   OH227919   5.827   3.608   1.025 -0.1873 -0.2049  0.4293
 2095TIP3    H127920   5.739   3.636   1.049 -0.1600  0.0106  0.2783
 2095TIP3    H227921   5.849   3.541   1.089 -0.0707  0.4433  1.0806
 2096TIP3   OH227922   0.917   3.490   0.320 -0.5849 -0.0021  0.1753
 2096TIP3    H127923   0.920   3.477   0.225  2.0964  0.9387  0.0429
 2096TIP3    H227924   0.839   3.442   0.348 -1.8964  0.2858 -2.5658
 2097TIP3   OH227925   2.129   5.673   0.409  0.5889 -0.9306  0.0075
 2097TIP3    H127926   2.126   5.757   0.363  0.1121 -0.2792  1.1812
 2097TIP3    H227927   2.069   5.617   0.359  0.2254 -0.3061 -0.2722
 2098TIP3   OH227928   6.598   5.859   0.830  0.0868 -0.0393 -0.2345
 2098TIP3    H127929   6.547   5.891   0.755  1.8618 -0.3669 -1.6705
 2098TIP3    H227930   6.594   5.764   0.823 -0.5584 -0.0964  0.7155
 2099TIP3   OH227931   0.218   3.570   8.535 -0.3752  0.1338 -0.1020
 2099TIP3    H127932   0.190   3.661   8.526  2.3139  0.8919 -1.6305
 2099TIP3    H227933   0.308   3.575   8.567 -0.4975 -2.0527  0.7573
 2100TIP3   OH227934   4.525   3.567   1.814  0.1482 -0.1794  0.2599
 2100TIP3    H127935   4.481   3.497   1.766  0.4918 -0.5466  0.4815
 2100TIP3    H227936   4.466   3.587   1.886  0.9352 -1.5735  1.3185
 2101TIP3   OH227937   5.867   2.082   7.088  0.7235  0.0904 -0.0532
 2101TIP3    H127938   5.831   2.070   7.000  0.4169 -0.9962  0.2002
 2101TIP3    H227939   5.942   2.024   7.092 -1.0042 -2.2524  1.3373
 2102TIP3   OH227940   4.084   5.097   2.014  0.6070 -0.2330  0.3495
 2102TIP3    H127941   4.121   5.009   2.029 -1.5448 -1.3320 -0.3631
 2102TIP3    H227942   4.053   5.094   1.924  1.5035  1.7080 -0.0630
 2103TIP3   OH227943   2.383   0.330   6.911  0.2324 -0.2245 -0.6261
 2103TIP3    H127944   2.431   0.254   6.878  0.7691  0.6422 -1.9351
 2103TIP3    H227945   2.444   0.403   6.901 -0.7044  0.5940 -0.5636
 2104TIP3   OH227946   4.322   6.272   0.227  0.7673 -0.5203 -0.1641
 2104TIP3    H127947   4.411   6.259   0.261  0.4311  0.1675  1.0383
 2104TIP3    H227948   4.275   6.194   0.255  1.4109 -1.8401 -2.4694
 2105TIP3   OH227949   1.722   1.786   7.295 -0.6632  0.1330 -0.2128
 2105TIP3    H127950   1.793   1.848   7.281 -1.7168  1.2573 -0.7030
 2105TIP3    H227951   1.759   1.702   7.267  1.3429  0.1622  2.0189
 2106TIP3   OH227952   2.844   6.215   0.833  0.3620  0.0564 -0.0854
 2106TIP3    H127953   2.793   6.232   0.913  0.6561  0.3256  0.0450
 2106TIP3    H227954   2.850   6.120   0.829 -0.3988  0.0079 -0.2552
 2107TIP3   OH227955   2.797   2.669   1.534  0.2462 -0.3561  0.0955
 2107TIP3    H127956   2.737   2.668   1.608  0.2565  2.4301  0.2377
 2107TIP3    H227957   2.740   2.665   1.457  0.1876 -2.1522  0.1750
 2108TIP3   OH227958   1.668   4.763   0.958  0.2899 -0.4917 -0.4783
 2108TIP3    H127959   1.686   4.695   0.893 -0.4218  1.9240 -3.4218
 2108TIP3    H227960   1.602   4.819   0.917  0.6256  1.8222  1.8765
 2109TIP3   OH227961   5.969   6.648   0.293  0.6277 -0.1107 -0.1555
 2109TIP3    H127962   5.888   6.599   0.302 -0.5339  1.7469 -0.0410
 2109TIP3    H227963   6.038   6.581   0.290 -0.9031 -1.7220 -0.4475
 2110TIP3   OH227964   2.528   2.765   8.070 -0.2462 -0.1466 -0.0799
 2110TIP3    H127965   2.487   2.837   8.022  0.4521  1.6520  1.8550
 2110TIP3    H227966   2.465   2.693   8.063 -1.5591  1.0383 -1.0337
 2111TIP3   OH227967   0.055   5.712   7.595  0.1145  0.3325 -0.3418
 2111TIP3    H127968   0.132   5.658   7.580  0.0170 -1.1322  3.4062
 2111TIP3    H227969   0.086   5.782   7.653 -1.4380 -0.9859  2.2731
 2112TIP3   OH227970   6.412   3.023   7.454  0.8188  0.1896 -0.0329
 2112TIP3    H127971   6.343   3.086   7.433 -0.9948 -1.3068  1.1992
 2112TIP3    H227972   6.482   3.077   7.491  0.7241  1.8470 -2.0824
 2113TIP3   OH227973   5.017   3.326   0.700  0.2246  0.0703 -0.1940
 2113TIP3    H127974   4.971   3.381   0.764 -0.1302  2.2621 -2.1866
 2113TIP3    H227975   5.090   3.380   0.671  1.0543 -1.3349 -0.7919
 2114TIP3   OH227976   4.000   4.172   8.134 -0.0333  0.0630  0.1745
 2114TIP3    H127977   4.056   4.126   8.196 -0.9560  0.2860  1.2181
 2114TIP3    H227978   3.918   4.185   8.182 -0.7808  0.2350 -1.1097
 2115TIP3   OH227979   6.136   6.623   8.408  0.0343 -0.0948 -0.2332
 2115TIP3    H127980   6.111   6.533   8.428  1.6876 -0.7809 -1.0699
 2115TIP3    H227981   6.105   6.637   8.318 -0.3458  0.2328 -0.0552
 2116TIP3   OH227982   5.934   4.564   8.199  0.0310 -0.0247 -0.5011
 2116TIP3    H127983   5.912   4.656   8.214  0.8598  0.0998  0.0089
 2116TIP3    H227984   5.861   4.530   8.148 -0.8343  0.6264  0.2675
 2117TIP3   OH227985   6.601   6.182   1.832 -0.1303  0.2855 -0.2394
 2117TIP3    H127986   6.694   6.158   1.826  0.2258  1.4835  0.1498
 2117TIP3    H227987   6.582   6.175   1.926 -1.1155 -2.2571 -0.5482
 2118TIP3   OH227988   6.037   0.894   0.919  0.6048 -0.0214 -0.2169
 2118TIP3    H127989   6.112   0.888   0.978 -0.3120  0.3382  1.0225
 2118TIP3    H227990   5.992   0.810   0.930  0.0960  0.2866  0.0678
 2119TIP3   OH227991   5.069   4.087   1.564  0.1587 -0.4853 -0.1395
 2119TIP3    H127992   5.144   4.029   1.579 -0.1838 -0.8824  0.0370
 2119TIP3    H227993   5.047   4.121   1.651  0.1135 -0.3910 -0.1874
 2120TIP3   OH227994   1.423   2.006   0.074 -0.8313 -0.1847 -0.2249
 2120TIP3    H127995   1.375   2.016   0.156  0.5732 -0.2988  0.6440
 2120TIP3    H227996   1.412   1.914   0.051 -0.2683 -0.4282  0.4615
 2121TIP3   OH227997   5.871   1.971   0.968 -0.1970  0.3389 -0.2894
 2121TIP3    H127998   5.918   1.959   0.885 -2.4476  0.5149 -1.7001
 2121TIP3    H227999   5.853   1.883   0.999  1.2221  0.2718  0.3932
 2122TIP3   OH228000   2.344   6.200   8.744 -0.1919 -0.9114  0.5035
 2122TIP3    H128001   2.282   6.181   8.814 -2.6126 -0.3515 -1.3548
 2122TIP3    H228002   2.329   6.293   8.723  2.1659 -0.4024  0.7430
 2123TIP3   OH228003   6.383   5.087   7.906  0.4296 -0.2055 -0.2352
 2123TIP3    H128004   6.310   5.112   7.963  0.2470 -0.4946 -0.3371
 2123TIP3    H228005   6.341   5.047   7.830  0.7191 -1.7308  0.3560
 2124TIP3   OH228006   1.590   2.638   0.346 -0.7685 -0.7764  0.2179
 2124TIP3    H128007   1.675   2.595   0.335 -0.1931  0.3449  0.1536
 2124TIP3    H228008   1.607   2.730   0.326 -2.1201 -0.6182 -0.3322
 2125TIP3   OH228009   1.201   6.769   7.104  0.4327  0.4938 -0.0768
 2125TIP3    H128010   1.122   6.815   7.076  0.6736  1.0925  0.2166
 2125TIP3    H228011   1.246   6.831   7.160  1.9345  0.7829 -1.5253
 2126TIP3   OH228012   0.637   6.796   0.268 -0.0441 -0.3826  0.4393
 2126TIP3    H128013   0.715   6.743   0.285 -1.0251 -1.5620  1.4149
 2126TIP3    H228014   0.626   6.792   0.173  1.1156 -0.1398  0.2820
 2127TIP3   OH228015   0.066   3.952   6.862  0.0581  0.2321  0.3304
 2127TIP3    H128016   0.095   4.026   6.809 -2.3157  0.3412 -0.9718
 2127TIP3    H228017  -0.010   3.985   6.911  2.1844  0.1729  4.0574
 2128TIP3   OH228018   5.043   6.153   7.647 -0.1043 -0.5843 -0.2823
 2128TIP3    H128019   5.123   6.170   7.597  0.1331 -1.0714 -0.0780
 2128TIP3    H228020   4.981   6.219   7.617 -0.3084 -1.5212 -1.9969
 2129TIP3   OH228021   2.210   2.812   0.947  0.2274  0.6774 -0.0495
 2129TIP3    H128022   2.273   2.849   0.886  0.6159  0.7038  0.3681
 2129TIP3    H228023   2.132   2.796   0.894  0.2205  1.6328 -0.3346
 2130TIP3   OH228024   5.958   6.438   8.748 -0.0478  0.2553 -0.0851
 2130TIP3    H128025   6.029   6.483   8.793  0.7873 -1.0914 -0.0234
 2130TIP3    H228026   5.890   6.427   8.815  0.4777 -0.1722  0.3841
 2131TIP3   OH228027   6.660   4.876   7.079  0.6061  0.0328 -0.4442
 2131TIP3    H128028   6.716   4.865   7.156  0.0099 -0.9004 -0.1319
 2131TIP3    H228029   6.712   4.844   7.006 -0.2992 -3.0301  0.1466
 2132TIP3   OH228030   3.885   4.127   0.180 -0.4703 -0.1836  0.2815
 2132TIP3    H128031   3.943   4.077   0.238 -0.5377 -0.0302  0.4812
 2132TIP3    H228032   3.819   4.063   0.152 -1.8364  0.2751  2.2405
 2133TIP3   OH228033   6.723   1.639   7.524 -0.1778  0.8940  0.3387
 2133TIP3    H128034   6.768   1.559   7.496 -0.5449  0.7875  0.0450
 2133TIP3    H228035   6.793   1.696   7.555  0.1043  0.5167  0.4095
 2134TIP3   OH228036   1.179   1.972   8.364 -0.1234  0.2609 -0.4729
 2134TIP3    H128037   1.191   1.909   8.294  0.6863  0.4635 -0.5234
 2134TIP3    H228038   1.090   2.006   8.351 -1.3721 -2.3224  0.7675
 2135TIP3   OH228039   4.764   6.051   7.634 -0.2790  0.1134  0.1894
 2135TIP3    H128040   4.726   5.966   7.610 -0.1652  0.1678 -0.1847
 2135TIP3    H228041   4.856   6.032   7.653 -0.2144  0.1780 -0.0518
 2136TIP3   OH228042   0.215   6.289   0.791  0.2697 -0.5484  0.3893
 2136TIP3    H128043   0.310   6.293   0.801  0.4654  0.3450 -1.4580
 2136TIP3    H228044   0.181   6.314   0.877  1.6749 -1.7454  1.3342
 2137TIP3   OH228045   4.957   3.527   7.476 -0.7857 -0.2698  0.0651
 2137TIP3    H128046   5.016   3.454   7.493 -0.7022 -0.5695 -1.4188
 2137TIP3    H228047   4.890   3.519   7.544  0.5065 -0.2890  1.3838
 2138TIP3   OH228048   0.771   1.118   1.931 -1.1099  0.0281 -0.0734
 2138TIP3    H128049   0.862   1.091   1.946 -1.1582 -0.4718 -0.6139
 2138TIP3    H228050   0.733   1.124   2.018 -0.5533  0.2549  0.1593
 2139TIP3   OH228051   5.684   6.140   0.394  0.1489 -0.0282  0.3382
 2139TIP3    H128052   5.629   6.083   0.449 -0.7150  0.4758  0.0169
 2139TIP3    H228053   5.716   6.207   0.454  0.3505 -0.2773  0.5113
 2140TIP3   OH228054   6.816   5.401   2.468 -0.2378  0.3186  0.1077
 2140TIP3    H128055   6.846   5.314   2.495  2.2246  0.1461 -2.6920
 2140TIP3    H228056   6.877   5.461   2.510  0.5546  0.3731 -1.0834
 2141TIP3   OH228057   5.046   1.766   6.463 -0.5885 -0.0960  0.1982
 2141TIP3    H128058   5.065   1.854   6.495 -0.1050 -0.1799  0.1517
 2141TIP3    H228059   4.956   1.749   6.490 -1.6454  1.4302 -2.0749
 2142TIP3   OH228060   0.792   3.703   7.120 -0.0524  0.0082 -0.6611
 2142TIP3    H128061   0.771   3.696   7.027 -0.5217  0.3947 -0.5877
 2142TIP3    H228062   0.716   3.746   7.159  0.8035  1.3441 -0.3743
 2143TIP3   OH228063   5.018   1.496   7.431 -0.0618 -0.1247  0.8830
 2143TIP3    H128064   4.975   1.558   7.372 -2.3139  0.1434  2.6599
 2143TIP3    H228065   4.986   1.410   7.403 -0.6133 -0.0498  1.2498
 2144TIP3   OH228066   6.205   0.236   8.534 -0.3045  0.2878  0.0505
 2144TIP3    H128067   6.143   0.295   8.575 -1.0395 -0.8380  0.5880
 2144TIP3    H228068   6.169   0.221   8.446 -2.2088 -2.3274  1.1811
 2145TIP3   OH228069   4.287   2.878   1.706  0.0051 -0.3599 -0.2089
 2145TIP3    H128070   4.350   2.806   1.698  0.6155 -0.0030  1.0610
 2145TIP3    H228071   4.218   2.857   1.644  0.0275 -2.2176  0.3304
 2146TIP3   OH228072   3.039   0.306   6.682 -0.3700 -0.2495  0.1895
 2146TIP3    H128073   2.972   0.259   6.732  0.6994 -1.8599  0.1724
 2146TIP3    H228074   3.122   0.275   6.718  0.3866  1.2871 -0.1737
 2147TIP3   OH228075   2.000   3.126   7.318 -0.4402  0.0330  0.2372
 2147TIP3    H128076   2.052   3.154   7.243 -0.4836  1.0132  0.5557
 2147TIP3    H228077   1.972   3.207   7.359 -1.4060 -0.4926  0.6431
 2148TIP3   OH228078   2.740   2.719   0.238  0.0386 -0.0442  0.2782
 2148TIP3    H128079   2.727   2.639   0.187 -1.6209 -0.0205  0.6146
 2148TIP3    H228080   2.656   2.763   0.235  1.2437  2.3891 -0.9875
 2149TIP3   OH228081   5.476   2.752   7.891  0.0610 -0.2251 -0.4139
 2149TIP3    H128082   5.473   2.847   7.904 -0.5373 -0.1783 -0.8200
 2149TIP3    H228083   5.480   2.715   7.979 -1.5642  0.1361 -0.1468
 2150TIP3   OH228084   6.246   1.849   1.113  0.1457  0.2793  0.1302
 2150TIP3    H128085   6.313   1.917   1.112 -0.1074  0.5288 -0.0599
 2150TIP3    H228086   6.165   1.895   1.135  0.0584 -0.0435  0.5069
 2151TIP3   OH228087   4.970   2.913   2.810  0.3022  0.6107  0.0790
 2151TIP3    H128088   4.988   2.833   2.761  0.0814 -0.4286  1.6448
 2151TIP3    H228089   5.045   2.923   2.868 -0.0634  1.0718  0.4795
 2152TIP3   OH228090   3.350   4.252   8.221  0.2603  0.2597 -0.0012
 2152TIP3    H128091   3.356   4.312   8.147 -0.1606  0.7818  0.3884
 2152TIP3    H228092   3.396   4.297   8.292  1.1615 -0.4822 -0.0890
 2153TIP3   OH228093   0.296   3.141   1.144  0.5660  0.2103  0.6236
 2153TIP3    H128094   0.208   3.104   1.157  0.1801  0.5547 -0.8196
 2153TIP3    H228095   0.353   3.065   1.134 -0.1538 -0.1061 -1.8890
 2154TIP3   OH228096   5.555   1.038   1.487 -0.1748 -0.1675  0.1263
 2154TIP3    H128097   5.565   1.055   1.393 -1.8257  1.0179  0.1279
 2154TIP3    H228098   5.559   1.125   1.527 -2.2169 -0.3566  0.8451
 2155TIP3   OH228099   6.122   4.549   1.722  0.9202  0.4420  0.0240
 2155TIP3    H128100   6.155   4.492   1.792 -0.4835 -2.4356 -1.4755
 2155TIP3    H228101   6.198   4.562   1.665  1.1939 -0.2451  0.2172
 2156TIP3   OH228102   3.890   2.124   1.412  0.0915  0.2160  0.3082
 2156TIP3    H128103   3.829   2.153   1.344  0.2712  1.4209  0.6365
 2156TIP3    H228104   3.846   2.050   1.454 -1.2060  1.1078  0.5862
 2157TIP3   OH228105   3.312   6.815   1.530  0.3888  0.3856  0.4199
 2157TIP3    H128106   3.361   6.763   1.467  0.3010 -0.1211  0.7595
 2157TIP3    H228107   3.275   6.750   1.590  1.9706  0.9280  2.0835
 2158TIP3   OH228108   4.314   0.477   1.470 -0.9132 -0.0280 -0.4662
 2158TIP3    H128109   4.321   0.490   1.375 -0.2016 -0.8636 -0.5409
 2158TIP3    H228110   4.221   0.492   1.489 -0.7764  1.7591 -1.0267
 2159TIP3   OH228111   5.006   2.773   0.269  0.2726  0.8221 -0.1419
 2159TIP3    H128112   5.086   2.720   0.273 -0.1602  0.1469  4.0083
 2159TIP3    H228113   5.037   2.863   0.268  1.0578  0.5552 -0.6090
 2160TIP3   OH228114   5.898   0.169   1.152  0.2232  0.8751 -0.0926
 2160TIP3    H128115   5.971   0.216   1.193  1.2063  0.2094 -1.0117
 2160TIP3    H228116   5.834   0.237   1.133  0.4214  1.4214  1.0864
 2161TIP3   OH228117   1.274   1.858   0.770 -0.3682 -0.1066  0.2535
 2161TIP3    H128118   1.185   1.855   0.733 -0.5293  0.9293  0.5244
 2161TIP3    H228119   1.268   1.921   0.842  0.6421  0.1459  0.1317
 2162TIP3   OH228120   0.379   6.059   2.094  0.2565  0.8882 -0.1643
 2162TIP3    H128121   0.352   6.103   2.175  0.6677 -1.2627  1.2317
 2162TIP3    H228122   0.457   6.009   2.118  0.8298  0.7566 -2.1055
 2163TIP3   OH228123   1.493   1.879   7.466  0.2228 -0.1948  0.3530
 2163TIP3    H128124   1.414   1.831   7.443  0.5937 -1.7434  2.0623
 2163TIP3    H228125   1.558   1.851   7.401 -0.7083  1.5733 -1.4583
 2164TIP3   OH228126   4.293   3.496   0.692  0.2056  0.1018 -0.1592
 2164TIP3    H128127   4.329   3.419   0.736 -2.5308  0.1317  2.4876
 2164TIP3    H228128   4.259   3.550   0.763 -3.5515  0.7387 -2.1524
 2165TIP3   OH228129   4.828   1.596   2.109  0.1161  0.3913 -0.3452
 2165TIP3    H128130   4.807   1.576   2.201  0.6973  0.8132 -0.1165
 2165TIP3    H228131   4.746   1.580   2.062  0.0229 -0.6050  0.1273
 2166TIP3   OH228132   1.816   5.228   1.123 -0.2803 -0.1607 -0.2846
 2166TIP3    H128133   1.795   5.198   1.211  0.7823 -1.8708 -0.5519
 2166TIP3    H228134   1.892   5.175   1.098  0.5380  1.5293 -1.5654
 2167TIP3   OH228135   2.303   5.923   2.572 -0.4164  0.1680 -0.0116
 2167TIP3    H128136   2.330   5.869   2.646  0.8129 -0.0351 -0.5819
 2167TIP3    H228137   2.287   6.009   2.610 -0.1408 -0.0227  0.5496
 2168TIP3   OH228138   2.798   5.869   1.423  0.3360  0.1758 -0.4848
 2168TIP3    H128139   2.880   5.917   1.428  0.5913  0.0326 -2.4314
 2168TIP3    H228140   2.818   5.782   1.455  0.4561  0.6698  0.8262
 2169TIP3   OH228141   6.705   4.310   1.798 -0.1587 -0.4020  0.6361
 2169TIP3    H128142   6.783   4.335   1.847  0.7910  0.1268 -1.0446
 2169TIP3    H228143   6.667   4.394   1.770 -0.6079 -0.6858  0.3942
 2170TIP3   OH228144   6.048   6.089   1.510 -0.0783 -0.2617  0.0755
 2170TIP3    H128145   6.108   6.098   1.436 -0.2265 -1.0045 -0.1384
 2170TIP3    H228146   6.016   6.178   1.525  0.8540  0.1035  0.0089
 2171TIP3   OH228147   1.314   4.883   0.233 -0.1812  0.4474  0.3943
 2171TIP3    H128148   1.362   4.839   0.164 -0.3206  2.4092 -1.0185
 2171TIP3    H228149   1.226   4.846   0.228 -0.3545  0.9882 -0.8993
 2172TIP3   OH228150   2.300   3.844   0.263  0.1029 -0.8245 -0.5889
 2172TIP3    H128151   2.286   3.834   0.169  1.1177 -2.2560 -0.6123
 2172TIP3    H228152   2.311   3.755   0.295  0.6102 -0.2989  0.7517
 2173TIP3   OH228153   1.565   1.348   6.356 -0.3049 -0.0603  0.2144
 2173TIP3    H128154   1.653   1.365   6.392  0.2490 -1.4199 -0.4137
 2173TIP3    H228155   1.581   1.325   6.265 -1.1050 -2.0268  0.5230
 2174TIP3   OH228156   1.464   4.717   2.002 -0.5024  0.5886 -0.8819
 2174TIP3    H128157   1.458   4.689   2.094 -0.9586 -0.7769 -1.3104
 2174TIP3    H228158   1.377   4.749   1.981 -1.1505 -1.4391 -1.5327
 2175TIP3   OH228159   6.843   5.383   1.995 -0.4887 -0.0882 -0.0972
 2175TIP3    H128160   6.782   5.380   2.068  1.8577  1.0793  2.1010
 2175TIP3    H228161   6.841   5.473   1.965 -0.3643 -0.2049 -0.4653
 2176TIP3   OH228162   4.717   1.096   2.116  0.3523  0.2251 -0.4246
 2176TIP3    H128163   4.653   1.160   2.147 -0.1273  0.1215 -1.1676
 2176TIP3    H228164   4.689   1.076   2.026  0.2756 -1.2996 -0.0855
 2177TIP3   OH228165   2.416   1.222   6.826 -0.4366 -0.5297 -0.3551
 2177TIP3    H128166   2.356   1.153   6.854  1.4861 -1.2338  2.4530
 2177TIP3    H228167   2.423   1.281   6.901  1.3122  0.2781 -1.0793
 2178TIP3   OH228168   2.632   1.684   1.635  0.2798 -0.5792 -0.7469
 2178TIP3    H128169   2.630   1.658   1.543  0.2140 -1.2358 -0.5695
 2178TIP3    H228170   2.557   1.742   1.646  1.5517  1.3002 -1.6057
 2179TIP3   OH228171   0.342   3.935   2.594  0.1373 -0.4701 -0.6196
 2179TIP3    H128172   0.373   3.956   2.506  2.0261  0.8378  0.2699
 2179TIP3    H228173   0.351   3.840   2.601 -0.0454 -0.5923 -1.8163
 2180TIP3   OH228174   6.657   5.315   1.822  0.0881  0.4283 -0.1422
 2180TIP3    H128175   6.642   5.384   1.758  0.4697 -1.5941 -2.5911
 2180TIP3    H228176   6.736   5.342   1.869 -2.4550  3.9944  2.6081
 2181TIP3   OH228177   4.140   4.920   0.974  0.0662  0.8145  0.0631
 2181TIP3    H128178   4.077   4.981   1.012  0.1025  1.2990 -0.6199
 2181TIP3    H228179   4.141   4.846   1.034 -1.5524  0.5548 -0.1647
 2182TIP3   OH228180   0.008   3.502   7.110 -0.4633 -0.1947  0.0927
 2182TIP3    H128181  -0.025   3.482   7.023  0.4259  1.8320 -0.7813
 2182TIP3    H228182   0.034   3.418   7.146 -0.8495 -1.0814 -1.6138
 2183TIP3   OH228183   5.186   4.198   8.748  0.1084  0.0513 -0.4880
 2183TIP3    H128184   5.259   4.141   8.770  1.8654  2.1928 -0.3986
 2183TIP3    H228185   5.119   4.179   8.814  1.9099  0.3230  1.5266
 2184TIP3   OH228186   0.605   4.559   0.026  0.3515  0.5959  0.3265
 2184TIP3    H128187   0.588   4.627   0.092  0.6920  0.3332  0.6876
 2184TIP3    H228188   0.522   4.549  -0.019  0.1819  0.9578  0.5499
 2185TIP3   OH228189   4.675   1.843   1.253 -1.4487  0.1623  0.2000
 2185TIP3    H128190   4.614   1.916   1.242 -1.6416  0.3561  2.2866
 2185TIP3    H228191   4.762   1.884   1.256 -1.3601  0.0744 -0.6812
 2186TIP3   OH228192   4.053   4.901   2.823 -0.3103 -0.0517 -0.1067
 2186TIP3    H128193   4.014   4.988   2.812  0.9480  0.5655  0.1020
 2186TIP3    H228194   3.982   4.847   2.857 -0.5281  1.4776  2.0536
 2187TIP3   OH228195   6.616   4.792   1.772 -0.1111  0.3682 -0.6164
 2187TIP3    H128196   6.650   4.817   1.858 -0.2735  1.9332 -0.9768
 2187TIP3    H228197   6.624   4.872   1.719  2.2763 -1.1749 -2.8046
 2188TIP3   OH228198   5.756   5.982   0.906  0.1047 -0.0034 -0.0989
 2188TIP3    H128199   5.726   6.043   0.974 -0.8628 -1.0918  0.4774
 2188TIP3    H228200   5.837   6.022   0.873  0.2038  0.9240  1.1765
 2189TIP3   OH228201   1.697   4.591   7.529  0.3420  0.4831 -0.1351
 2189TIP3    H128202   1.675   4.567   7.619  0.4641  2.2471  0.3969
 2189TIP3    H228203   1.680   4.511   7.478 -2.1166  0.1442  1.0514
 2190TIP3   OH228204   0.933   0.592   8.494 -0.0444 -0.0187 -0.1776
 2190TIP3    H128205   0.961   0.550   8.413  2.9788  2.9787 -0.9177
 2190TIP3    H228206   1.008   0.584   8.553  0.1946  2.9485  0.0863
 2191TIP3   OH228207   5.016   3.914   2.169  0.2037  1.2695 -0.2145
 2191TIP3    H128208   4.949   3.927   2.101 -0.1954 -0.8314 -0.2637
 2191TIP3    H228209   5.089   3.875   2.122 -0.4231 -1.0966  0.6740
 2192TIP3   OH228210   4.360   2.505   0.561 -0.1525  0.1367 -0.1672
 2192TIP3    H128211   4.281   2.536   0.606 -0.0990  0.0388 -0.0021
 2192TIP3    H228212   4.336   2.504   0.469 -0.3635  0.0567 -0.1139
 2193TIP3   OH228213   6.766   5.636   7.280  0.3693 -0.0977  0.4123
 2193TIP3    H128214   6.812   5.624   7.364  0.4736  0.4426  0.4351
 2193TIP3    H228215   6.773   5.551   7.237  1.1738 -0.1012  0.5307
 2194TIP3   OH228216   6.176   5.819   8.201  0.1495  0.6933  0.5037
 2194TIP3    H128217   6.235   5.872   8.147 -1.6207  0.4263 -1.8954
 2194TIP3    H228218   6.110   5.881   8.231  0.1974  0.5219  0.9708
 2195TIP3   OH228219   2.192   5.085   2.282 -0.0818 -0.0546  0.3162
 2195TIP3    H128220   2.147   5.108   2.363 -0.4656  2.8052 -0.5721
 2195TIP3    H228221   2.122   5.076   2.217  0.3015 -0.8985  0.0094
 2196TIP3   OH228222   1.923   0.043   8.504  0.3145  0.2219  0.1615
 2196TIP3    H128223   2.012   0.045   8.470 -0.0580  1.2115 -0.7987
 2196TIP3    H228224   1.897   0.135   8.509 -1.1028 -0.0979 -0.7864
 2197TIP3   OH228225   3.594   2.327   8.065 -0.4077 -0.5191  0.7944
 2197TIP3    H128226   3.582   2.287   7.979 -0.8849  0.0071  0.6083
 2197TIP3    H228227   3.653   2.401   8.049  0.4873 -1.1319  1.1400
 2198TIP3   OH228228   2.784   3.520   0.975 -0.1262  0.5289 -0.4894
 2198TIP3    H128229   2.855   3.522   1.039  0.5316  1.6075 -1.2163
 2198TIP3    H228230   2.772   3.427   0.956 -0.5092  0.1730  1.3471
 2199TIP3   OH228231   2.212   5.028   7.151 -0.4895 -0.3266 -0.3034
 2199TIP3    H128232   2.220   5.123   7.152  3.0392 -0.5096  1.2327
 2199TIP3    H228233   2.185   5.005   7.240  2.6212 -0.8399  0.6253
 2200TIP3   OH228234   0.574   4.986   7.930  0.7574 -0.3147  0.3760
 2200TIP3    H128235   0.612   5.069   7.959  0.0529 -0.0779  0.6304
 2200TIP3    H228236   0.569   4.994   7.834 -1.9554  1.1374  0.5378
 2201TIP3   OH228237   5.874   6.829   7.131 -0.0829  0.2702 -0.7768
 2201TIP3    H128238   5.959   6.797   7.161 -0.9047 -0.1177  1.3161
 2201TIP3    H228239   5.857   6.907   7.185 -1.8298 -0.7031  0.1542
 2202TIP3   OH228240   3.038   4.342   0.345  0.6067  0.2791 -0.0849
 2202TIP3    H128241   3.102   4.369   0.411 -0.0571  1.2453  0.1839
 2202TIP3    H228242   3.026   4.248   0.361  1.1814  0.2993  0.5268
 2203TIP3   OH228243   4.608   2.590   0.054  0.0911 -0.0103  0.5741
 2203TIP3    H128244   4.600   2.684   0.065 -1.3213  0.2006 -1.6276
 2203TIP3    H228245   4.702   2.575   0.042  0.2265  1.2654 -0.1103
 2204TIP3   OH228246   4.680   6.415   7.288  0.3127 -0.0848  0.4602
 2204TIP3    H128247   4.649   6.355   7.356  0.0669  0.1194  0.5285
 2204TIP3    H228248   4.664   6.369   7.206  0.1154 -0.1078  0.5121
 2205TIP3   OH228249   3.885   5.429   8.041  0.3243  1.0771 -0.0565
 2205TIP3    H128250   3.812   5.476   8.001  0.7915  1.8780  0.0178
 2205TIP3    H228251   3.873   5.441   8.135 -1.0232 -1.1714  0.1489
 2206TIP3   OH228252   2.533   5.092   8.442  0.5787  0.2124 -0.0343
 2206TIP3    H128253   2.509   5.046   8.523 -0.7050 -0.1368 -0.6024
 2206TIP3    H228254   2.542   5.023   8.377  1.9032  0.4643 -0.1490
 2207TIP3   OH228255   1.306   3.676   2.114 -0.3884 -0.1767  0.2818
 2207TIP3    H128256   1.294   3.689   2.208  0.1372  0.0133  0.3300
 2207TIP3    H228257   1.218   3.681   2.077 -0.4285  1.6641  0.5290
 2208TIP3   OH228258   5.352   5.146   0.522 -0.3164  0.3242  0.2346
 2208TIP3    H128259   5.306   5.126   0.441 -0.8613  0.9691  0.3787
 2208TIP3    H228260   5.445   5.136   0.499 -0.4993 -0.8224 -0.0937
 2209TIP3   OH228261   4.448   0.903   8.226 -0.5360 -0.3498 -0.1637
 2209TIP3    H128262   4.533   0.860   8.241 -0.5241 -0.3658 -0.2829
 2209TIP3    H228263   4.385   0.831   8.229 -0.3578 -0.6292 -2.0321
 2210TIP3   OH228264   2.709   3.876   2.003  0.4107  0.3741 -0.0313
 2210TIP3    H128265   2.727   3.961   2.044  1.2503  0.6437 -0.9230
 2210TIP3    H228266   2.624   3.850   2.040  1.4417  0.2289  2.4391
 2211TIP3   OH228267   6.364   4.670   1.139  0.4188  0.3799 -0.7277
 2211TIP3    H128268   6.309   4.612   1.087 -0.4851 -0.3798  1.0084
 2211TIP3    H228269   6.326   4.757   1.126 -1.2327 -0.1222  0.4106
 2212TIP3   OH228270   3.181   4.178   2.599 -0.1074 -0.2105 -0.7553
 2212TIP3    H128271   3.172   4.248   2.663 -1.3311  1.8005 -2.9730
 2212TIP3    H228272   3.275   4.160   2.597 -0.0379 -0.4442  1.6053
 2213TIP3   OH228273   4.738   4.375   8.577 -0.1710 -0.3291 -0.0923
 2213TIP3    H128274   4.660   4.427   8.557 -0.1746 -0.3191 -0.0507
 2213TIP3    H228275   4.745   4.377   8.672  0.2501  0.2155 -0.1297
 2214TIP3   OH228276   4.740   2.538   1.863 -0.2739  0.0662 -0.2348
 2214TIP3    H128277   4.675   2.469   1.849 -1.4772  0.8545  1.2485
 2214TIP3    H228278   4.691   2.619   1.851  0.6600  0.6756  0.0267
 2215TIP3   OH228279   4.052   2.115   7.257 -0.1406  0.0607  0.2347
 2215TIP3    H128280   4.095   2.165   7.188  2.3517 -0.5303  1.2378
 2215TIP3    H228281   4.018   2.181   7.317  4.2478  0.8906  2.2503
 2216TIP3   OH228282   6.198   3.450   2.143 -0.5799 -0.8719  0.0936
 2216TIP3    H128283   6.141   3.522   2.117 -1.4327 -1.8051 -0.6886
 2216TIP3    H228284   6.139   3.384   2.178  0.0540 -1.7033 -0.3617
 2217TIP3   OH228285   6.701   6.240   0.907 -0.2740  0.7929  0.4801
 2217TIP3    H128286   6.728   6.225   0.816 -0.7741  1.9521  0.1145
 2217TIP3    H228287   6.771   6.204   0.960  0.0432  0.1319 -0.3740
 2218TIP3   OH228288   6.139   1.661   6.841 -0.3936 -0.0913 -0.2223
 2218TIP3    H128289   6.050   1.626   6.843 -0.9656  1.3354  1.2012
 2218TIP3    H228290   6.159   1.669   6.748 -2.4985  1.2698 -0.6362
 2219TIP3   OH228291   3.627   2.085   1.734 -0.3690  0.0073  0.3630
 2219TIP3    H128292   3.564   2.093   1.805  0.1631  1.3564  0.6986
 2219TIP3    H228293   3.710   2.062   1.777  0.0822  1.3715  0.2675
 2220TIP3   OH228294   0.896   1.454   8.059 -0.3556  0.3482 -0.0071
 2220TIP3    H128295   0.948   1.497   8.126 -2.3176  1.7124  0.7388
 2220TIP3    H228296   0.882   1.521   7.993  0.8249 -0.7257 -1.4225
 2221TIP3   OH228297   5.219   1.790   8.544  0.6700  0.0309 -0.6183
 2221TIP3    H128298   5.260   1.869   8.510  2.8827 -0.2449  1.1861
 2221TIP3    H228299   5.288   1.723   8.541 -0.6000 -1.3606 -0.3818
 2222TIP3   OH228300   4.753   4.092   8.576 -0.1648  0.1767 -0.4421
 2222TIP3    H128301   4.739   4.186   8.573  1.3426  0.5349  1.3526
 2222TIP3    H228302   4.780   4.075   8.667  0.0473 -1.8988 -0.8443
 2223TIP3   OH228303   1.013   5.288   2.316 -0.4619 -0.2631 -0.0471
 2223TIP3    H128304   0.917   5.294   2.314 -0.4653  0.2400 -2.9483
 2223TIP3    H228305   1.031   5.194   2.317 -0.9116 -0.3737  1.6615
 2224TIP3   OH228306   3.183   5.603   8.161  0.0506 -0.6282 -0.2624
 2224TIP3    H128307   3.109   5.544   8.147 -0.2140  0.0787 -2.0673
 2224TIP3    H228308   3.173   5.633   8.252 -3.2558  1.2412 -1.0765
 2225TIP3   OH228309   6.308   5.562   8.486  0.1299  0.3134  0.4262
 2225TIP3    H128310   6.273   5.624   8.551  0.3541 -1.0221  1.8859
 2225TIP3    H228311   6.359   5.499   8.538  0.0902 -0.9638 -1.0180
 2226TIP3   OH228312   1.871   6.729   0.645  0.1927  0.5553  0.1093
 2226TIP3    H128313   1.893   6.645   0.685  0.7209  1.3248  1.4832
 2226TIP3    H228314   1.793   6.758   0.691 -1.0054  0.0862 -1.5036
 2227TIP3   OH228315   0.223   0.992   8.441  0.8040  0.1478 -0.2616
 2227TIP3    H128316   0.240   1.072   8.491 -0.1759  0.4565 -0.3995
 2227TIP3    H228317   0.259   0.922   8.495  0.3302  0.5442  0.5902
 2228TIP3   OH228318   6.325   2.897   7.021 -0.1850 -0.0056  0.4112
 2228TIP3    H128319   6.251   2.911   6.962 -0.1011 -0.1469  0.2715
 2228TIP3    H228320   6.333   2.979   7.069  0.4387  0.5197 -0.5537
 2229TIP3   OH228321   4.901   3.149   0.086 -0.4796  0.1527  0.6943
 2229TIP3    H128322   4.864   3.137   0.173 -2.3222 -0.0661 -0.0607
 2229TIP3    H228323   4.825   3.162   0.030  0.6699  0.4360 -0.8642
 2230TIP3   OH228324   2.344   3.983   2.736 -0.3516  0.6856  0.1901
 2230TIP3    H128325   2.382   3.901   2.768 -0.8049 -0.1166 -1.2817
 2230TIP3    H228326   2.384   4.050   2.792  0.3631 -0.4785  1.1310
 2231TIP3   OH228327   0.530   0.865   0.992 -0.0593  0.0108 -0.8889
 2231TIP3    H128328   0.470   0.805   1.035 -0.7396  0.0292 -1.7693
 2231TIP3    H228329   0.477   0.908   0.925  0.6647  0.8545 -0.9467
 2232TIP3   OH228330   1.750   3.553   6.611  0.3637  0.4689 -0.1049
 2232TIP3    H128331   1.707   3.596   6.537  0.0221  1.0344  0.4146
 2232TIP3    H228332   1.799   3.622   6.654  0.5689  0.1410  0.1921
 2233TIP3   OH228333   6.173   4.547   8.017  0.5280 -0.4696 -0.0404
 2233TIP3    H128334   6.175   4.466   8.068 -0.2427 -0.7732 -0.4772
 2233TIP3    H228335   6.092   4.541   7.967  1.8398 -0.7384 -2.2304
 2234TIP3   OH228336   0.128   3.735   0.124  0.2832  0.1231  0.0428
 2234TIP3    H128337   0.204   3.692   0.085 -0.1253 -0.2686 -0.3354
 2234TIP3    H228338   0.121   3.818   0.077 -0.0252 -0.2159 -0.5242
 2235TIP3   OH228339   2.318   4.009   6.809 -0.1380 -0.1222  0.1906
 2235TIP3    H128340   2.353   3.924   6.783 -1.1271 -0.5228  0.1541
 2235TIP3    H228341   2.378   4.039   6.878 -0.0838 -1.0904  0.5846
 2236TIP3   OH228342   3.092   1.558   1.851 -0.1308  0.9335  0.4061
 2236TIP3    H128343   3.134   1.598   1.927 -1.2262 -0.7761  2.0174
 2236TIP3    H228344   3.147   1.482   1.831 -0.9097  0.2439  0.7997
 2237TIP3   OH228345   3.750   3.377   0.133  0.3791 -0.4005  0.3333
 2237TIP3    H128346   3.758   3.292   0.176  0.9468 -0.8973 -0.7335
 2237TIP3    H228347   3.798   3.437   0.190 -0.7352 -0.6071  1.5357
 2238TIP3   OH228348   3.304   4.491   1.310 -0.6309  0.4276 -0.6747
 2238TIP3    H128349   3.220   4.515   1.271 -0.5419  0.7200 -0.6872
 2238TIP3    H228350   3.347   4.575   1.328 -0.5060  0.2847 -0.3089
 2239TIP3   OH228351   5.034   1.084   7.518  0.7162 -0.2829  0.2104
 2239TIP3    H128352   5.069   1.005   7.476  0.1515 -1.4503  1.8045
 2239TIP3    H228353   5.025   1.147   7.447  1.8818 -1.3978 -1.0013
 2240TIP3   OH228354   0.875   0.014   1.158  0.1599  0.6092  0.7269
 2240TIP3    H128355   0.960  -0.030   1.156  0.7405  1.7226 -0.0860
 2240TIP3    H228356   0.823  -0.036   1.222  0.7963 -1.1979 -0.1177
 2241TIP3   OH228357   4.987   1.061   0.621 -0.1240  0.0268  0.1346
 2241TIP3    H128358   5.022   0.988   0.572 -1.9803 -1.1800  0.5067
 2241TIP3    H228359   5.035   1.059   0.704 -1.3763 -1.9544  0.8776
 2242TIP3   OH228360   2.107   1.300   1.101  0.5133 -0.0308  0.5286
 2242TIP3    H128361   2.187   1.300   1.153  0.4016  0.6301  0.7030
 2242TIP3    H228362   2.138   1.292   1.010  0.8979  2.0633  0.4391
 2243TIP3   OH228363   4.726   3.597   7.819 -0.6118  0.1124 -0.2390
 2243TIP3    H128364   4.697   3.623   7.732 -0.9098 -1.0876 -0.5186
 2243TIP3    H228365   4.644   3.580   7.867 -0.4937  1.7678  0.6220
 2244TIP3   OH228366   0.784   2.289   7.456 -0.0159  0.5854 -0.0160
 2244TIP3    H128367   0.781   2.197   7.430 -3.2668 -0.1096  2.1075
 2244TIP3    H228368   0.736   2.335   7.388 -0.1713  0.3555 -0.0630
 2245TIP3   OH228369   5.278   2.103   0.523  1.2565  0.5762 -0.1107
 2245TIP3    H128370   5.215   2.041   0.559  1.8085 -0.9538 -1.6920
 2245TIP3    H228371   5.246   2.121   0.435  3.0043 -0.2442 -0.9503
 2246TIP3   OH228372   5.100   3.921   6.418  0.3571 -0.0245 -0.3929
 2246TIP3    H128373   5.163   3.852   6.395  0.9752 -0.3032  1.8884
 2246TIP3    H228374   5.021   3.874   6.444  0.6881  0.1066  0.9007
 2247TIP3   OH228375   1.481   1.454   1.668  0.5754 -0.6763  0.0108
 2247TIP3    H128376   1.397   1.448   1.622  0.2830 -1.0381  0.5727
 2247TIP3    H228377   1.470   1.397   1.744  1.0877 -0.1903  0.4590
 2248TIP3   OH228378   3.188   5.699   8.419  0.0593 -0.0087 -0.1511
 2248TIP3    H128379   3.181   5.794   8.430 -0.2333 -0.0928  0.4430
 2248TIP3    H228380   3.184   5.664   8.508  0.0563 -0.5855 -0.3724
 2249TIP3   OH228381   1.555   5.188   1.026  0.3234  0.6460  0.1622
 2249TIP3    H128382   1.548   5.107   1.076  2.4805 -0.0513 -0.5193
 2249TIP3    H228383   1.644   5.219   1.043  0.7078  1.0529 -2.1731
 2250TIP3   OH228384   5.952   4.436   2.118  0.0660  0.2289 -0.0532
 2250TIP3    H128385   5.924   4.345   2.126  0.8714 -0.1453 -1.1729
 2250TIP3    H228386   5.873   4.484   2.094 -1.1330  0.4504  3.7626
 2251TIP3   OH228387   5.931   5.243   8.086  0.4063  0.5982 -0.1369
 2251TIP3    H128388   5.989   5.168   8.096  1.1032  1.0809 -0.5276
 2251TIP3    H228389   5.859   5.210   8.032  1.5257  0.6267 -1.7088
 2252TIP3   OH228390   4.421   4.057   7.907  0.3481 -0.0899  0.2644
 2252TIP3    H128391   4.330   4.050   7.879  0.4883  0.1199 -0.2551
 2252TIP3    H228392   4.470   4.076   7.827  0.6421  1.4452  0.7777
 2253TIP3   OH228393   5.419   4.218   1.801  0.0817 -0.2128 -0.4144
 2253TIP3    H128394   5.449   4.308   1.787 -1.2121  0.0058 -1.9881
 2253TIP3    H228395   5.489   4.178   1.853  0.6744  1.6873  0.3465
 2254TIP3   OH228396   2.361   1.340   0.626  0.1664 -0.7821  0.0865
 2254TIP3    H128397   2.388   1.393   0.701  2.0225  0.8385 -1.6244
 2254TIP3    H228398   2.295   1.393   0.582  1.3716 -0.2107 -1.1198
 2255TIP3   OH228399   0.215   6.699   7.754 -0.1340 -0.2143 -0.0078
 2255TIP3    H128400   0.155   6.626   7.744  0.2636 -0.1958 -3.7212
 2255TIP3    H228401   0.294   6.673   7.705  1.4781  1.2488  1.6391
 2256TIP3   OH228402   6.526   5.102   2.335 -0.5877  0.4131  0.3783
 2256TIP3    H128403   6.571   5.056   2.406 -0.5864  0.1491  0.2074
 2256TIP3    H228404   6.435   5.071   2.341 -0.9858  1.6925  1.3549
 2257TIP3   OH228405   3.887   0.043   1.198 -0.2129 -0.3805 -0.2077
 2257TIP3    H128406   3.863   0.107   1.266 -2.6651 -0.9997 -0.3844
 2257TIP3    H228407   3.890  -0.041   1.244 -0.6055 -0.6195 -0.6052
 2258TIP3   OH228408   4.521   2.355   7.995 -0.0202  0.9819  0.2428
 2258TIP3    H128409   4.604   2.311   8.013 -0.6164 -0.2640  0.0701
 2258TIP3    H228410   4.455   2.300   8.037 -1.4019 -1.5676 -4.5332
 2259TIP3   OH228411   5.596   3.291   6.703 -0.0730 -0.4592  0.1838
 2259TIP3    H128412   5.574   3.384   6.697 -3.7414 -0.9882  2.1905
 2259TIP3    H228413   5.626   3.279   6.794 -0.5555 -1.3404  0.2412
 2260TIP3   OH228414   0.820   2.320   1.799  0.0133  0.1204  0.0585
 2260TIP3    H128415   0.783   2.236   1.825  0.0338 -0.2541 -1.0362
 2260TIP3    H228416   0.914   2.303   1.792 -0.0491  0.0325 -0.7837
 2261TIP3   OH228417   1.876   1.184   0.783  0.3364  0.6966  0.0425
 2261TIP3    H128418   1.967   1.213   0.777  0.7876 -0.8236 -1.0652
 2261TIP3    H228419   1.829   1.238   0.720  0.4155  1.6421  0.7803
 2262TIP3   OH228420   1.355   2.196   7.499 -0.5319  0.0740 -0.4669
 2262TIP3    H128421   1.336   2.217   7.590  1.3891  2.0725 -0.4347
 2262TIP3    H228422   1.398   2.110   7.503 -1.2801 -0.2776  0.3798
 2263TIP3   OH228423   6.480   5.406   8.663  0.9605  0.0790 -0.0798
 2263TIP3    H128424   6.486   5.463   8.740  1.6153  1.2694 -0.9928
 2263TIP3    H228425   6.527   5.326   8.689 -1.0846 -0.6516  1.6773
 2264TIP3   OH228426   0.918   1.179   7.623 -0.1551  0.2060  0.3759
 2264TIP3    H128427   0.910   1.232   7.702 -1.0376  1.6533 -0.6207
 2264TIP3    H228428   0.830   1.144   7.609 -0.5996  1.7292 -1.0767
 2265TIP3   OH228429   0.299   6.346   7.966 -0.0034  0.6252 -0.4550
 2265TIP3    H128430   0.313   6.436   7.997 -2.1391  1.4452 -1.6383
 2265TIP3    H228431   0.209   6.346   7.933  0.8197 -1.1910 -3.0175
 2266TIP3   OH228432   4.358   0.126   1.862  0.3863  0.0924  0.0017
 2266TIP3    H128433   4.442   0.167   1.884 -0.4524  3.6445 -2.4269
 2266TIP3    H228434   4.295   0.166   1.923  0.2530 -2.0485  1.3716
 2267TIP3   OH228435   3.164   4.882   1.910 -0.1620  0.6175  0.0062
 2267TIP3    H128436   3.250   4.924   1.910 -0.2601  0.9502  2.2842
 2267TIP3    H228437   3.174   4.808   1.970 -0.6246 -1.3419 -2.1978
 2268TIP3   OH228438   6.510   0.046   0.209 -0.1214 -0.2155  0.0031
 2268TIP3    H128439   6.510   0.134   0.247 -0.2349 -1.3172  2.7483
 2268TIP3    H228440   6.529  -0.012   0.282  0.0816 -2.5037 -1.7589
 2269TIP3   OH228441   5.299   3.862   1.204 -0.1322  0.6510  0.2917
 2269TIP3    H128442   5.322   3.934   1.264  2.0938  1.0174 -0.8784
 2269TIP3    H228443   5.326   3.783   1.251  0.3744  0.8374  0.3248
 2270TIP3   OH228444   1.267   4.259   2.002  0.8202  0.2725 -0.0936
 2270TIP3    H128445   1.213   4.253   1.923 -0.6021 -1.7065  0.9275
 2270TIP3    H228446   1.225   4.326   2.055 -0.8312 -1.3143  0.7330
 2271TIP3   OH228447   1.104   6.611   0.734 -0.4047  0.2092 -0.0831
 2271TIP3    H128448   1.050   6.686   0.713 -1.6954 -0.7158 -0.1865
 2271TIP3    H228449   1.181   6.619   0.677 -1.1427  0.7581 -1.0168
 2272TIP3   OH228450   4.743   3.709   1.909  0.3687 -0.3421 -0.2073
 2272TIP3    H128451   4.753   3.636   1.969 -0.4598  1.0204  1.6983
 2272TIP3    H228452   4.664   3.689   1.859 -0.3965 -0.3257  0.9672
 2273TIP3   OH228453   1.795   1.182   8.654  0.1308 -0.3214  0.3636
 2273TIP3    H128454   1.770   1.133   8.732  2.7537 -1.5816  0.5331
 2273TIP3    H228455   1.886   1.156   8.638  0.8245  2.6143 -1.0561
 2274TIP3   OH228456   4.490   6.354   7.793  0.0713 -0.3387  0.5233
 2274TIP3    H128457   4.450   6.441   7.794  1.1664  0.4969 -4.0245
 2274TIP3    H228458   4.563   6.360   7.854 -0.9834  1.2826  1.6881
 2275TIP3   OH228459   2.940   1.204   6.603  0.2193  1.0323 -0.1576
 2275TIP3    H128460   2.859   1.232   6.646  0.4410  2.5687 -0.6791
 2275TIP3    H228461   3.007   1.261   6.638  1.0281  0.0281 -0.0265
 2276TIP3   OH228462   5.921   0.653   6.886 -0.1166  0.0332 -0.2189
 2276TIP3    H128463   5.861   0.714   6.843 -0.4301  0.5862  0.9714
 2276TIP3    H228464   5.867   0.576   6.904 -0.1108 -0.0086 -0.3768
 2277TIP3   OH228465   5.014   2.849   7.316  0.0990 -0.8855  0.1239
 2277TIP3    H128466   4.980   2.854   7.226 -0.6596  2.4423  0.4590
 2277TIP3    H228467   4.955   2.789   7.360 -0.4107 -1.4405 -1.2569
 2278TIP3   OH228468   6.160   3.980   6.497 -0.5919  0.0877  0.9619
 2278TIP3    H128469   6.215   4.043   6.544 -0.1330  0.4557 -0.0342
 2278TIP3    H228470   6.131   4.027   6.419  1.2721 -1.4519 -0.7842
 2279TIP3   OH228471   0.714   4.010   1.315  1.1494  0.0875  0.0289
 2279TIP3    H128472   0.801   3.997   1.277  2.0769  1.8603  1.3798
 2279TIP3    H228473   0.681   4.089   1.273  0.5490 -0.0981  0.1431
 2280TIP3   OH228474   1.709   3.127   8.302  0.1548 -0.4397 -0.0878
 2280TIP3    H128475   1.688   3.053   8.245 -1.6091 -1.7411  2.1426
 2280TIP3    H228476   1.639   3.191   8.286  0.7818  0.0997 -0.8008
 2281TIP3   OH228477   6.597   2.174   8.138  0.4612  0.3985 -0.7626
 2281TIP3    H128478   6.529   2.116   8.104 -1.9052  2.4870  0.1029
 2281TIP3    H228479   6.594   2.250   8.080  1.6232  0.7976 -0.3192
 2282TIP3   OH228480   2.455   4.959   0.126  0.2654  0.2714  0.0979
 2282TIP3    H128481   2.394   4.887   0.140  1.5733 -0.9096 -0.0964
 2282TIP3    H228482   2.424   5.029   0.184 -0.2316 -0.9258  1.3213
 2283TIP3   OH228483   2.810   1.997   8.773  0.0278 -0.5015 -0.1619
 2283TIP3    H128484   2.884   2.006   8.833 -0.8896  0.5601  0.8555
 2283TIP3    H228485   2.751   1.936   8.817 -0.8577  0.6263  0.2866
 2284TIP3   OH228486   2.669   4.877   1.385 -0.2470  0.2494 -0.7815
 2284TIP3    H128487   2.705   4.791   1.405  0.3852  0.2351 -1.8982
 2284TIP3    H228488   2.708   4.935   1.451  0.0563 -0.1515 -0.6016
 2285TIP3   OH228489   6.287   3.599   7.926 -0.0857  0.0497 -0.6748
 2285TIP3    H128490   6.290   3.645   7.842 -1.5938  1.2978 -0.0863
 2285TIP3    H228491   6.194   3.594   7.947  0.3105  1.2131  1.6904
 2286TIP3   OH228492   2.100   2.289   1.460  0.2247  0.9067 -0.0742
 2286TIP3    H128493   2.124   2.274   1.552  0.5573  0.9538 -0.1522
 2286TIP3    H228494   2.004   2.289   1.460  0.2189  1.9312  0.4392
 2287TIP3   OH228495   4.264   5.244   7.550 -0.7610  0.2428  0.5590
 2287TIP3    H128496   4.289   5.185   7.479  1.5615  2.4646 -0.6218
 2287TIP3    H228497   4.280   5.193   7.630  0.0089 -1.1040 -0.4071
 2288TIP3   OH228498   2.157   5.543   6.801 -0.9375  0.1695  0.0598
 2288TIP3    H128499   2.248   5.559   6.778 -0.5639  0.8215  1.8651
 2288TIP3    H228500   2.119   5.504   6.722  0.6547  0.7346 -1.0323
 2289TIP3   OH228501   5.391   4.942   1.804  0.1124  0.2699  0.1057
 2289TIP3    H128502   5.306   4.909   1.835  0.2838 -0.2009  0.0761
 2289TIP3    H228503   5.384   4.938   1.709 -0.6294  2.2533  0.0253
 2290TIP3   OH228504   0.819   6.329   1.541  0.3686 -0.5043  0.4543
 2290TIP3    H128505   0.870   6.271   1.484 -0.2109 -0.6911  0.1161
 2290TIP3    H228506   0.838   6.298   1.630  1.4246 -0.0899  0.3862
 2291TIP3   OH228507   6.761   2.849   8.097 -0.0020  0.2060  0.5598
 2291TIP3    H128508   6.805   2.777   8.141 -0.3772 -0.7952 -0.6282
 2291TIP3    H228509   6.677   2.856   8.142  0.1777  0.1385  0.9097
 2292TIP3   OH228510   2.931   2.931   7.817 -0.1532 -0.0789 -0.0668
 2292TIP3    H128511   2.893   2.999   7.873 -1.3355  0.9873 -2.0277
 2292TIP3    H228512   2.855   2.885   7.782  0.5628 -0.8043 -0.6726
 2293TIP3   OH228513   4.036   3.159   7.473  0.0584 -0.1678  0.2102
 2293TIP3    H128514   3.975   3.139   7.402  0.7412  1.3218 -0.8574
 2293TIP3    H228515   4.083   3.237   7.443  1.2443 -0.2246  1.7748
 2294TIP3   OH228516   1.120   3.715   1.599  0.0365  0.5836  0.8528
 2294TIP3    H128517   1.189   3.773   1.634 -0.5909  1.3746  0.7972
 2294TIP3    H228518   1.038   3.757   1.625 -0.4306 -0.3895  0.9737
 2295TIP3   OH228519   2.051   6.485   8.270  0.1517 -0.6988  0.3523
 2295TIP3    H128520   2.113   6.456   8.337 -0.2964  1.6644  1.9032
 2295TIP3    H228521   1.965   6.459   8.303 -0.0317  0.0374  0.4769
 2296TIP3   OH228522   3.783   5.939   7.751  0.5302 -0.5637  0.0077
 2296TIP3    H128523   3.816   5.855   7.719  1.6661  0.2771 -1.0867
 2296TIP3    H228524   3.795   5.999   7.678  0.0857  0.6537  0.9077
 2297TIP3   OH228525   5.651   1.631   0.439  0.3401 -0.0552  0.1787
 2297TIP3    H128526   5.660   1.650   0.346  0.2784 -0.6117  0.0541
 2297TIP3    H228527   5.562   1.661   0.461  0.7458  1.0899  0.3201
 2298TIP3   OH228528   1.252   1.159   7.162  0.5170 -0.2534  0.5312
 2298TIP3    H128529   1.208   1.193   7.240 -0.5416  0.5463 -0.3840
 2298TIP3    H228530   1.222   1.068   7.156 -0.3511  0.0278  0.4043
 2299TIP3   OH228531   0.629   2.072   8.331  0.1328 -0.1979 -0.5500
 2299TIP3    H128532   0.577   2.001   8.292  0.8436 -0.6541 -0.6967
 2299TIP3    H228533   0.653   2.127   8.257 -0.2484  0.0819 -0.4647
 2300TIP3   OH228534   2.494   4.889   8.252 -0.1715 -0.2408  0.3475
 2300TIP3    H128535   2.580   4.910   8.216  0.6855 -0.9782  1.8871
 2300TIP3    H228536   2.438   4.878   8.175  0.5039  2.5193 -0.6639
 2301TIP3   OH228537   3.397   1.361   7.671  0.0331 -1.1357  0.1027
 2301TIP3    H128538   3.349   1.414   7.735  0.2626 -1.1588  0.2983
 2301TIP3    H228539   3.489   1.372   7.696  0.1098 -1.2997 -0.1076
 2302TIP3   OH228540   5.879   4.813   7.996  0.0588 -0.2764  0.2030
 2302TIP3    H128541   5.938   4.881   8.030  0.7097 -0.6087 -0.2364
 2302TIP3    H228542   5.800   4.821   8.050  0.3867  0.3746  0.6093
 2303TIP3   OH228543   4.466   4.045   1.995 -0.3149  0.4748  0.2796
 2303TIP3    H128544   4.441   3.977   2.058 -0.3078 -1.5896 -1.8361
 2303TIP3    H228545   4.383   4.076   1.959 -0.2496  0.4998  0.1500
 2304TIP3   OH228546   2.005   1.845   0.435 -0.2534 -0.1583 -0.0614
 2304TIP3    H128547   2.024   1.754   0.411 -0.5326 -0.6351  1.4341
 2304TIP3    H228548   2.087   1.877   0.473 -0.2457  0.1451 -0.3219
 2305TIP3   OH228549   1.404   0.309   1.764 -0.2197 -0.5600 -0.0279
 2305TIP3    H128550   1.462   0.357   1.704 -1.2891  0.5814 -0.1841
 2305TIP3    H228551   1.385   0.227   1.718  0.8313 -0.7170 -0.2071
 2306TIP3   OH228552   4.186   2.847   8.149 -0.2422  0.5693  0.0600
 2306TIP3    H128553   4.108   2.892   8.116  0.9893  1.4849 -1.7903
 2306TIP3    H228554   4.230   2.814   8.070  1.3407  0.2745  1.0144
 2307TIP3   OH228555   6.548   0.201   6.980 -0.2558  0.7095  0.1405
 2307TIP3    H128556   6.572   0.108   6.973 -2.0563  0.0635  1.6358
 2307TIP3    H228557   6.630   0.245   7.003  0.5733 -0.5455 -0.2969
 2308TIP3   OH228558   2.380   6.633   7.103 -0.0632  0.1533 -0.4975
 2308TIP3    H128559   2.286   6.642   7.092 -0.1977  1.6306  1.4755
 2308TIP3    H228560   2.417   6.679   7.027 -0.9331  1.3296 -0.2329
 2309TIP3   OH228561   1.576   6.629   8.568 -0.3096  0.0113 -0.4431
 2309TIP3    H128562   1.579   6.546   8.615  2.1258 -0.8137 -1.8380
 2309TIP3    H228563   1.639   6.684   8.613 -0.1713  0.2546 -0.9260
 2310TIP3   OH228564   6.185   1.486   0.776 -1.0805  0.0406 -0.5106
 2310TIP3    H128565   6.252   1.547   0.807  0.3335 -0.9236 -1.5295
 2310TIP3    H228566   6.108   1.505   0.829 -0.1822  1.6034  0.2854
 2311TIP3   OH228567   3.774   5.045   1.360 -0.6593 -0.0053 -0.3699
 2311TIP3    H128568   3.844   4.981   1.347 -0.0711  0.8707 -1.6695
 2311TIP3    H228569   3.769   5.056   1.455  0.1057 -1.0003 -0.1961
 2312TIP3   OH228570   0.486   1.665   6.787  0.6433  0.4984  0.0912
 2312TIP3    H128571   0.463   1.747   6.744  1.1919  0.7075  0.1806
 2312TIP3    H228572   0.550   1.690   6.854  1.6366 -0.1338 -0.5969
 2313TIP3   OH228573   2.741   6.340   2.164  0.1548 -0.4751 -0.5502
 2313TIP3    H128574   2.813   6.367   2.221 -0.4733  0.4035 -0.1405
 2313TIP3    H228575   2.687   6.283   2.219  0.0201 -0.3353 -0.5345
 2314TIP3   OH228576   1.428   0.549   1.473  0.2995 -0.1043 -0.3198
 2314TIP3    H128577   1.389   0.464   1.455  1.2911 -0.8005  0.6879
 2314TIP3    H228578   1.521   0.537   1.455  0.1527  1.4741 -2.5273
 2315TIP3   OH228579   3.131   0.669   7.489 -0.5012 -0.4032 -0.0687
 2315TIP3    H128580   3.041   0.636   7.498 -0.2595 -1.0994 -0.1701
 2315TIP3    H228581   3.133   0.747   7.545 -1.4506  0.2043 -0.8469
 2316TIP3   OH228582   3.644   3.610   7.562 -0.2947 -0.0008  0.0029
 2316TIP3    H128583   3.551   3.598   7.547 -0.2096 -1.9147  0.7298
 2316TIP3    H228584   3.654   3.609   7.657  0.5505 -0.7103 -0.0811
 2317TIP3   OH228585   4.261   2.278   7.740  0.3241 -0.1831 -0.0486
 2317TIP3    H128586   4.349   2.304   7.714 -0.3683  0.7472 -1.6476
 2317TIP3    H228587   4.257   2.184   7.722  1.0674 -0.2810  0.2823
 2318TIP3   OH228588   2.845   3.755   0.414  0.6284  0.4599 -0.2213
 2318TIP3    H128589   2.802   3.772   0.498  1.2766  0.9842  0.0113
 2318TIP3    H228590   2.789   3.799   0.349 -0.6983 -1.2049 -0.2632
 2319TIP3   OH228591   4.932   3.126   8.006 -0.5258 -0.0755  0.9682
 2319TIP3    H128592   4.842   3.158   8.001 -0.2335  0.5651 -1.5800
 2319TIP3    H228593   4.979   3.174   7.938  1.2861 -1.7997  0.8963
 2320TIP3   OH228594   0.594   1.448   0.434  0.3634 -0.3723  0.0286
 2320TIP3    H128595   0.570   1.360   0.406  2.1606 -0.5287 -1.1639
 2320TIP3    H228596   0.536   1.506   0.384  1.6460 -0.7757 -2.0755
 2321TIP3   OH228597   2.259   0.201   8.652  0.2367  0.1630 -0.3951
 2321TIP3    H128598   2.237   0.148   8.576 -0.5555  1.9109 -1.4582
 2321TIP3    H228599   2.345   0.238   8.632 -0.0303  0.7310 -0.5130
 2322TIP3   OH228600   6.691   3.409   1.823 -0.6235  0.1468  0.1865
 2322TIP3    H128601   6.608   3.382   1.861 -0.8342  0.4290 -0.0661
 2322TIP3    H228602   6.667   3.450   1.740 -0.3409  1.3922  0.7085
 2323TIP3   OH228603   4.534   0.900   6.734  0.3467  0.2447  0.0201
 2323TIP3    H128604   4.472   0.829   6.721 -0.0044  0.5226  0.1698
 2323TIP3    H228605   4.561   0.892   6.826 -1.4938  1.7186  0.7668
 2324TIP3   OH228606   1.714   0.226   8.741 -0.0431  0.1280 -0.2146
 2324TIP3    H128607   1.706   0.195   8.832  1.2973  0.2709 -0.0255
 2324TIP3    H228608   1.687   0.317   8.745  2.9311  1.0775  0.7182
 2325TIP3   OH228609   6.841   2.593   7.344 -0.2785  0.2262  0.0288
 2325TIP3    H128610   6.883   2.524   7.292 -0.9892 -0.5925  0.5143
 2325TIP3    H228611   6.905   2.612   7.413  0.7582  1.4642 -1.2152
 2326TIP3   OH228612   5.399   5.363   8.295  0.4443 -0.1677 -0.1403
 2326TIP3    H128613   5.420   5.446   8.337  0.0802 -1.4657  2.8357
 2326TIP3    H228614   5.303   5.357   8.300  0.5796 -1.9169  2.3112
 2327TIP3   OH228615   5.579   3.391   8.623  0.0085 -0.1443  0.1534
 2327TIP3    H128616   5.514   3.344   8.675  0.8858  0.4948  1.8936
 2327TIP3    H228617   5.658   3.337   8.628  0.6463  0.8439  1.0812
 2328TIP3   OH228618   0.678   1.446   7.019 -0.0022 -0.1102 -0.0765
 2328TIP3    H128619   0.763   1.412   6.992 -0.0644 -1.4543  1.2723
 2328TIP3    H228620   0.672   1.532   6.979  3.0148  1.0428  1.6779
 2329TIP3   OH228621   5.405   1.891   0.047 -0.4188  0.2393  0.4422
 2329TIP3    H128622   5.440   1.949  -0.020 -0.2762 -0.0143  0.2960
 2329TIP3    H228623   5.316   1.924   0.063 -0.5253  0.1826 -0.0135
 2330TIP3   OH228624   3.874   6.472   0.815 -0.5359 -0.4582  0.0856
 2330TIP3    H128625   3.937   6.479   0.887 -0.0461  1.5261 -0.4789
 2330TIP3    H228626   3.840   6.561   0.805 -2.5354 -1.2305 -0.4463
 2331TIP3   OH228627   5.694   2.477   0.944 -0.7183 -0.1698 -0.4460
 2331TIP3    H128628   5.712   2.507   1.033  0.7331  0.9817 -1.0895
 2331TIP3    H228629   5.731   2.388   0.941  0.6172  0.3475 -0.3004
 2332TIP3   OH228630   2.283   1.092   1.027 -0.3637 -0.0608 -0.1276
 2332TIP3    H128631   2.214   1.065   0.966 -1.2480  0.8711  0.4237
 2332TIP3    H228632   2.240   1.096   1.112  0.5819 -0.2536  0.3736
 2333TIP3   OH228633   6.597   2.508   8.202 -0.3453 -0.0310 -0.7442
 2333TIP3    H128634   6.536   2.444   8.167  0.7258 -1.0407 -0.8217
 2333TIP3    H228635   6.546   2.589   8.208 -1.4975 -0.6828 -1.3889
 2334TIP3   OH228636   3.702   6.054   7.986 -0.0808  0.0271 -0.4147
 2334TIP3    H128637   3.788   6.042   8.026  0.7614  0.9475 -1.8638
 2334TIP3    H228638   3.712   6.022   7.897 -1.0631  0.7639 -0.8077
 2335TIP3   OH228639   5.788   0.293   8.284 -0.7829  0.0960  0.4487
 2335TIP3    H128640   5.719   0.299   8.218 -0.9165  1.1740  0.6617
 2335TIP3    H228641   5.779   0.205   8.320 -1.3831 -0.1358 -0.2449
 2336TIP3   OH228642   5.583   0.633   6.951  0.4318 -0.5241 -0.3173
 2336TIP3    H128643   5.578   0.537   6.953 -1.4559 -0.4797 -0.8109
 2336TIP3    H228644   5.530   0.657   6.875 -1.0833  0.9850  1.1368
 2337TIP3   OH228645   4.287   2.274   6.587 -0.3024 -0.0013 -0.5178
 2337TIP3    H128646   4.305   2.200   6.529 -0.6770  0.0789 -0.7434
 2337TIP3    H228647   4.300   2.351   6.533  0.0624  0.0966 -0.2898
 2338TIP3   OH228648   0.558   1.904   0.377 -0.8673 -0.3100  0.0667
 2338TIP3    H128649   0.509   1.842   0.322 -0.5750 -0.3759 -0.1247
 2338TIP3    H228650   0.586   1.972   0.316 -1.4730  0.1868  0.3405
 2339TIP3   OH228651   4.322   1.076   1.750  0.1330  0.2996  0.0069
 2339TIP3    H128652   4.372   1.156   1.769  0.1950  0.6901 -1.6594
 2339TIP3    H228653   4.277   1.095   1.668  2.4326 -2.3841 -2.0846
 2340TIP3   OH228654   2.728   0.359   6.337  0.1349 -0.2363  0.0764
 2340TIP3    H128655   2.817   0.367   6.370  0.5334  0.5510 -1.1041
 2340TIP3    H228656   2.737   0.365   6.241 -1.4035  2.9210 -0.0312
 2341TIP3   OH228657   1.216   4.778   1.940  0.2084  0.2071 -0.3663
 2341TIP3    H128658   1.191   4.833   1.866  0.5422  3.7280  1.9042
 2341TIP3    H228659   1.133   4.758   1.984  0.2030  0.1300 -0.4122
 2342TIP3   OH228660   0.555   2.740   7.092  0.1200 -0.1145  0.3304
 2342TIP3    H128661   0.512   2.682   7.029 -0.8195  1.1295 -0.2150
 2342TIP3    H228662   0.621   2.787   7.041 -0.2111  0.4410  0.4099
 2343TIP3   OH228663   2.138   3.005   0.625  0.0151  0.0450 -0.4125
 2343TIP3    H128664   2.222   3.030   0.664 -0.7390  0.9770  0.6995
 2343TIP3    H228665   2.109   2.931   0.678 -1.3068  1.7024  1.3381
 2344TIP3   OH228666   6.260   5.475   7.798 -0.4938 -0.5905 -0.5892
 2344TIP3    H128667   6.176   5.468   7.843 -0.6491  0.2423 -0.7358
 2344TIP3    H228668   6.296   5.558   7.829 -0.0879 -0.5589 -1.1440
 2345TIP3   OH228669   6.819   3.892   7.896  0.1382 -0.2928 -0.1520
 2345TIP3    H128670   6.731   3.872   7.863  0.1455  1.5543 -1.4155
 2345TIP3    H228671   6.803   3.933   7.981 -0.5656  2.9086 -1.6562
 2346TIP3   OH228672   4.807   5.022   8.814  0.0196  0.3625 -0.2160
 2346TIP3    H128673   4.840   5.008   8.725  1.0132 -0.1900  0.2187
 2346TIP3    H228674   4.886   5.034   8.867 -0.5464  0.4122  0.6356
 2347TIP3   OH228675   6.334   5.045   1.448 -0.8918  0.6116 -0.1702
 2347TIP3    H128676   6.361   4.955   1.427 -1.5200  0.2095  0.6756
 2347TIP3    H228677   6.417   5.092   1.461 -0.5473 -0.1624  0.6003
 2348TIP3   OH228678   2.647   0.634   8.661 -0.3514  0.7748  0.4712
 2348TIP3    H128679   2.622   0.723   8.684 -0.7607  0.7874 -0.0185
 2348TIP3    H228680   2.648   0.587   8.744  2.6211  1.8812  1.1798
 2349TIP3   OH228681   3.281   6.360   7.181 -0.1293  0.0436 -0.6403
 2349TIP3    H128682   3.220   6.315   7.123 -1.2899 -0.0457  0.5967
 2349TIP3    H228683   3.226   6.390   7.254  1.4995 -1.1606  1.1588
 2350TIP3   OH228684   6.402   6.696   8.259  0.2294  0.1556  0.0208
 2350TIP3    H128685   6.313   6.707   8.294 -0.2957 -0.0790 -1.2116
 2350TIP3    H228686   6.398   6.618   8.204  0.7693  1.0759 -1.3809
 2351TIP3   OH228687   4.733   4.745   8.817 -0.1783  0.5402 -0.2067
 2351TIP3    H128688   4.717   4.752   8.722  0.7009 -0.7548 -0.4736
 2351TIP3    H228689   4.745   4.836   8.845 -4.0507  1.3839 -0.6102
 2352TIP3   OH228690   0.721   2.178   2.174 -0.2807 -0.0081  0.0146
 2352TIP3    H128691   0.739   2.199   2.266  1.4022 -3.7293  0.7272
 2352TIP3    H228692   0.640   2.127   2.177 -1.0099  1.0800 -0.7967
 2353TIP3   OH228693   2.270   5.338   2.539  0.4391 -0.2000  0.0698
 2353TIP3    H128694   2.297   5.270   2.602  0.2038 -0.2235  0.1470
 2353TIP3    H228695   2.352   5.380   2.513  0.5395 -0.1740  0.4136
 2354TIP3   OH228696   4.756   2.166   8.039 -0.1065 -0.4945  0.8111
 2354TIP3    H128697   4.753   2.077   8.006  3.8170 -1.4439  2.4952
 2354TIP3    H228698   4.710   2.162   8.123 -0.9818 -0.5721  0.3450
 2355TIP3   OH228699   0.768   6.696   0.047  0.2069 -0.3268 -0.0844
 2355TIP3    H128700   0.766   6.604   0.072 -0.6765 -0.2328  0.2331
 2355TIP3    H228701   0.819   6.698  -0.034 -0.1150 -1.1561 -0.3194
 2356TIP3   OH228702   2.743   5.517   0.426 -0.0431 -0.3439 -0.0540
 2356TIP3    H128703   2.823   5.569   0.429 -0.6795  0.7276 -0.9248
 2356TIP3    H228704   2.701   5.543   0.345 -1.7410 -0.1821  0.8365
 2357TIP3   OH228705   3.081   0.436   1.706 -0.0333 -0.1413 -0.0095
 2357TIP3    H128706   3.085   0.459   1.799 -1.3807  1.2687 -0.2686
 2357TIP3    H228707   3.170   0.452   1.674  0.2840 -0.0307  0.8834
 2358TIP3   OH228708   1.434   4.257   1.114 -0.0731  0.0275  0.2632
 2358TIP3    H128709   1.375   4.229   1.185  0.3144 -0.9138  0.2292
 2358TIP3    H228710   1.378   4.308   1.055 -1.2916 -2.1814 -0.6158
 2359TIP3   OH228711   2.626   1.960   6.076 -0.5349  0.1046  0.3093
 2359TIP3    H128712   2.685   2.008   6.134 -0.2832  0.2179 -0.0408
 2359TIP3    H228713   2.645   1.868   6.092  1.3699  0.1328 -1.4484
 2360TIP3   OH228714   3.531   2.003   6.988  0.4372 -0.1672 -0.3356
 2360TIP3    H128715   3.622   1.975   6.997 -0.5034 -3.2762  0.7914
 2360TIP3    H228716   3.507   2.033   7.076  0.0291 -0.6319 -0.2848
 2361TIP3   OH228717   4.783   4.945   0.330  0.1440 -0.5843 -0.2568
 2361TIP3    H128718   4.844   4.980   0.266 -1.5420  1.9509 -0.6385
 2361TIP3    H228719   4.833   4.942   0.412  0.8316  1.4309 -0.5427
 2362TIP3   OH228720   4.500   6.387   0.743 -0.1180 -0.0924  0.5169
 2362TIP3    H128721   4.457   6.424   0.819  1.0916  0.3795  0.9876
 2362TIP3    H228722   4.593   6.403   0.757  0.1738 -0.4904 -0.7919
 2363TIP3   OH228723   6.716   5.305   8.084 -0.3228  0.3871 -0.8013
 2363TIP3    H128724   6.714   5.248   8.161  2.4534  0.8347 -0.2834
 2363TIP3    H228725   6.628   5.299   8.047 -1.0437 -1.7266  1.0321
 2364TIP3   OH228726   6.047   4.882   7.574 -0.2002 -0.9304  0.2367
 2364TIP3    H128727   6.092   4.835   7.503  0.0123 -1.6124  0.8096
 2364TIP3    H228728   6.050   4.974   7.547  0.2323 -1.1300 -0.4452
 2365TIP3   OH228729   4.595   0.899   8.779  0.0083  0.3320 -0.7449
 2365TIP3    H128730   4.644   0.847   8.844  0.6800  0.0321 -1.4701
 2365TIP3    H228731   4.591   0.986   8.817 -0.7432 -0.1279  0.2910
 2366TIP3   OH228732   0.948   2.124   0.716  0.5765 -0.2510 -0.2524
 2366TIP3    H128733   0.970   2.062   0.646 -0.8818  0.1398 -1.1124
 2366TIP3    H228734   0.854   2.141   0.704  0.3910  0.2068  1.5160
 2367TIP3   OH228735   4.671   4.355   0.417  0.0997  0.4172  0.2046
 2367TIP3    H128736   4.689   4.369   0.510  1.5317 -0.7964  0.1456
 2367TIP3    H228737   4.575   4.348   0.413  0.0577 -0.7590  1.8039
 2368TIP3   OH228738   3.556   0.426   7.043 -0.1920 -0.2382  0.3165
 2368TIP3    H128739   3.556   0.518   7.067 -2.3281  0.2861 -1.3682
 2368TIP3    H228740   3.468   0.396   7.062 -1.2727 -0.4219 -3.9283
 2369TIP3   OH228741   6.208   6.771   6.954 -0.0801 -0.5357  0.5606
 2369TIP3    H128742   6.267   6.809   6.888 -1.4399  1.2436  0.3233
 2369TIP3    H228743   6.239   6.806   7.037  1.7155 -2.8800  1.0157
 2370TIP3   OH228744   1.960   4.143   0.527  0.0849  0.4310 -0.1159
 2370TIP3    H128745   2.052   4.121   0.543  0.7808  3.3581  0.3850
 2370TIP3    H228746   1.921   4.151   0.614 -0.2682  0.6759 -0.2929
 2371TIP3   OH228747   3.287   4.484   8.065 -0.6468  0.0845  0.2616
 2371TIP3    H128748   3.214   4.454   8.119  0.0365  1.7928  2.2519
 2371TIP3    H228749   3.275   4.579   8.059 -0.0819  0.0889 -1.7411
 2372TIP3   OH228750   2.754   6.089   6.683 -0.5110 -0.5275 -0.1900
 2372TIP3    H128751   2.748   6.169   6.631  0.7748  0.6626  1.4189
 2372TIP3    H228752   2.785   6.023   6.621 -1.5432  0.1913 -1.5313
 2373TIP3   OH228753   2.755   2.975   0.751  0.1808  0.0703 -0.4864
 2373TIP3    H128754   2.761   3.068   0.731  0.7330 -0.2399 -1.9348
 2373TIP3    H228755   2.730   2.935   0.667 -0.4489 -1.0435  0.2103
 2374TIP3   OH228756   3.376   2.337   1.653  0.1865  0.1286 -0.3830
 2374TIP3    H128757   3.457   2.338   1.601 -0.0780  0.6548 -0.8030
 2374TIP3    H228758   3.336   2.253   1.634 -0.3482  0.6635 -1.7616
 2375TIP3   OH228759   5.132   2.580   7.269  0.0961  0.4202  0.3189
 2375TIP3    H128760   5.181   2.629   7.336  0.3965  0.3218  0.1748
 2375TIP3    H228761   5.075   2.645   7.228 -0.5058  0.3685  1.0496
 2376TIP3   OH228762   2.113   3.009   7.576  0.2907  0.2069 -0.3270
 2376TIP3    H128763   2.095   3.064   7.500  2.9087 -0.2607 -1.3834
 2376TIP3    H228764   2.079   2.922   7.551  0.4669  0.2304 -0.6577
 2377TIP3   OH228765   2.224   4.908   6.618  0.4768  0.0764 -0.4814
 2377TIP3    H128766   2.144   4.945   6.655 -0.0999 -1.3473 -0.2765
 2377TIP3    H228767   2.209   4.814   6.616  2.2258 -0.2323 -0.2774
 2378TIP3   OH228768   0.420   4.707   7.593 -0.2921  0.1234  0.0469
 2378TIP3    H128769   0.497   4.722   7.540 -1.4179  3.6175 -0.8499
 2378TIP3    H228770   0.453   4.700   7.683  1.2139 -1.1830 -0.5696
 2379TIP3   OH228771   5.843   6.677   2.543  0.1412 -0.0252  0.0544
 2379TIP3    H128772   5.869   6.745   2.605 -1.6551  0.0548  0.7903
 2379TIP3    H228773   5.765   6.712   2.500  1.4278 -0.0018 -2.4523
 2380TIP3   OH228774   5.359   6.371   0.263  0.0904  0.1444  0.7073
 2380TIP3    H128775   5.313   6.361   0.179 -0.7995 -2.4302  1.3923
 2380TIP3    H228776   5.416   6.294   0.268 -0.2013  0.0015  2.6226
 2381TIP3   OH228777   0.292   5.790   1.585  0.5293  0.6166 -0.2309
 2381TIP3    H128778   0.249   5.869   1.553  0.0953  0.1071 -0.9197
 2381TIP3    H228779   0.364   5.775   1.524  1.1419  0.9526  0.3954
 2382TIP3   OH228780   6.469   2.267   8.807 -0.1541  0.2594  0.1176
 2382TIP3    H128781   6.560   2.268   8.836  0.4932 -1.4104 -1.6339
 2382TIP3    H228782   6.418   2.270   8.888  1.3855  2.3039  1.0942
 2383TIP3   OH228783   3.298   2.589   0.208 -0.5187 -0.2123 -0.0047
 2383TIP3    H128784   3.281   2.499   0.234 -1.3564 -0.0471  0.0758
 2383TIP3    H228785   3.335   2.583   0.121 -0.9410 -0.6254 -0.1598
 2384TIP3   OH228786   3.773   5.435   2.138 -0.1092  0.0312  0.2724
 2384TIP3    H128787   3.766   5.527   2.166 -1.7323 -0.2275  0.8445
 2384TIP3    H228788   3.796   5.387   2.218  0.5367 -0.0982  0.0149
 2385TIP3   OH228789   3.252   4.575   6.273  0.1305 -0.1940  0.1128
 2385TIP3    H128790   3.213   4.510   6.214  0.4185 -0.8024  0.5746
 2385TIP3    H228791   3.234   4.541   6.361  1.2986 -0.2566  0.3389
 2386TIP3   OH228792   0.530   2.117   0.053 -0.1883  0.1741 -0.1861
 2386TIP3    H128793   0.464   2.113  -0.017  0.3636  2.5584 -0.9361
 2386TIP3    H228794   0.497   2.186   0.111 -0.4528 -1.5305  1.7766
 2387TIP3   OH228795   4.052   6.100   7.789  0.2776 -0.0380 -0.8583
 2387TIP3    H128796   4.054   6.071   7.881 -1.4151 -0.5403 -0.9533
 2387TIP3    H228797   3.994   6.176   7.789 -0.9696 -0.9389 -1.7135
 2388TIP3   OH228798   3.322   2.402   8.530 -0.3829 -0.0548 -0.1278
 2388TIP3    H128799   3.337   2.377   8.439  0.6776 -0.9779  0.2828
 2388TIP3    H228800   3.233   2.374   8.549 -0.4894 -0.1621 -0.7778
 2389TIP3   OH228801   4.947   4.112   0.629 -0.5380 -1.0864  0.5494
 2389TIP3    H128802   4.985   4.076   0.710 -1.0148 -2.4010  0.2111
 2389TIP3    H228803   4.876   4.169   0.659 -0.2387 -0.9883  1.0796
 2390TIP3   OH228804   6.524   0.600   8.801 -0.0968  0.0387 -0.3869
 2390TIP3    H128805   6.443   0.553   8.784 -0.8341  1.0167  0.2845
 2390TIP3    H228806   6.545   0.643   8.718 -0.8342  0.5964 -0.3006
 2391TIP3   OH228807   5.751   3.742   8.022 -0.2591  0.1475 -0.1284
 2391TIP3    H128808   5.832   3.791   8.036 -0.3188  0.3083 -0.3283
 2391TIP3    H228809   5.732   3.701   8.106 -0.9599  1.5972  0.4729
 2392TIP3   OH228810   2.231   3.964   8.296 -0.3777 -0.5842 -0.2713
 2392TIP3    H128811   2.275   3.894   8.248 -1.4167 -1.2144 -0.3275
 2392TIP3    H228812   2.155   3.986   8.243  0.5165  1.4286 -0.8584
 2393TIP3   OH228813   5.269   6.227   1.636 -0.4585  0.5820  0.0664
 2393TIP3    H128814   5.262   6.132   1.635 -0.5560  0.5596  1.6052
 2393TIP3    H228815   5.187   6.258   1.597 -1.2348  0.0498  1.2376
 2394TIP3   OH228816   2.421   6.679   2.567 -0.6509 -0.3928  0.9889
 2394TIP3    H128817   2.355   6.627   2.614 -0.7856 -0.6361  0.5422
 2394TIP3    H228818   2.411   6.767   2.602 -1.7050 -0.2717  0.4345
 2395TIP3   OH228819   2.732   2.128   0.961  0.2540 -0.4799 -0.0685
 2395TIP3    H128820   2.776   2.045   0.976 -1.1487 -1.1334  0.6168
 2395TIP3    H228821   2.653   2.123   1.015 -1.4076  0.0477 -2.3320
 2396TIP3   OH228822   4.132   5.928   7.569 -0.2609 -0.1953 -0.7538
 2396TIP3    H128823   4.196   5.987   7.529 -1.6349  0.4986 -2.0257
 2396TIP3    H228824   4.093   5.979   7.640 -0.7096  0.0581 -1.1791
 2397TIP3   OH228825   3.937   6.340   2.231  0.7611  0.4274 -0.2307
 2397TIP3    H128826   3.914   6.351   2.323  1.1295  1.1636 -0.2205
 2397TIP3    H228827   3.966   6.426   2.203  1.2531  0.0636 -0.8738
 2398TIP3   OH228828   2.337   1.816   6.896  0.3823 -0.3022  0.0172
 2398TIP3    H128829   2.243   1.815   6.909  0.5711  0.9534  1.9967
 2398TIP3    H228830   2.351   1.873   6.821 -0.4190 -0.1518 -0.0163
 2399TIP3   OH228831   5.908   2.445   1.434 -0.3250  0.1657 -0.3703
 2399TIP3    H128832   5.887   2.531   1.470 -2.4294 -0.5707  0.3419
 2399TIP3    H228833   6.000   2.450   1.410  0.3852  1.6846  2.3578
 2400TIP3   OH228834   1.196   1.921   8.017  1.1954 -1.0135  0.1658
 2400TIP3    H128835   1.283   1.935   8.056  1.1245 -1.9261  0.6940
 2400TIP3    H228836   1.195   1.977   7.940  1.0663  1.4049  1.8301
 2401TIP3   OH228837   1.899   4.946   1.025 -0.0971  0.5054 -0.2445
 2401TIP3    H128838   1.966   4.920   1.089  0.8911  1.4705 -0.8496
 2401TIP3    H228839   1.832   4.878   1.032 -0.8276  1.3878  2.9452
 2402TIP3   OH228840   5.877   5.524   1.902 -0.2338 -0.4503  0.2887
 2402TIP3    H128841   5.826   5.495   1.826 -2.7657 -2.0055  2.4255
 2402TIP3    H228842   5.821   5.589   1.944  0.4312 -0.7347  1.6399
 2403TIP3   OH228843   6.505   3.180   7.904 -0.0487  0.1810 -0.2010
 2403TIP3    H128844   6.543   3.259   7.865  0.2793 -0.9361 -2.3091
 2403TIP3    H228845   6.579   3.119   7.910 -0.3710 -0.1077  1.0583
 2404TIP3   OH228846   1.636   0.598   8.065  0.1300 -0.3680 -0.3845
 2404TIP3    H128847   1.646   0.513   8.108 -2.4276 -1.0778 -0.9790
 2404TIP3    H228848   1.672   0.585   7.977  0.6941 -0.5213 -0.1305
 2405TIP3   OH228849   0.675   1.294   8.175  0.5104 -0.5061  0.0985
 2405TIP3    H128850   0.759   1.319   8.137 -0.0117 -2.0925 -2.3067
 2405TIP3    H228851   0.654   1.211   8.133 -1.7339 -0.7311  1.5280
 2406TIP3   OH228852   3.442   1.127   1.441 -0.3637  0.5078 -0.5121
 2406TIP3    H128853   3.407   1.058   1.497  0.3096  1.6658  1.4475
 2406TIP3    H228854   3.371   1.192   1.438  0.7457  1.9843  1.8961
 2407TIP3   OH228855   4.467   3.469   8.283 -0.4677  0.5104 -0.8155
 2407TIP3    H128856   4.455   3.429   8.368 -2.3470  0.0672 -1.2553
 2407TIP3    H228857   4.549   3.518   8.291  0.1953 -0.7660  0.7337
 2408TIP3   OH228858   5.870   1.042   7.726 -0.0109 -0.7468 -0.4002
 2408TIP3    H128859   5.817   1.025   7.803 -1.4619 -0.9772 -1.4098
 2408TIP3    H228860   5.817   1.101   7.672  1.1598 -0.2252 -1.0321
 2409TIP3   OH228861   4.326   4.491   1.327 -0.3470  0.4671 -0.0192
 2409TIP3    H128862   4.379   4.423   1.368  0.2338  1.1798  0.4298
 2409TIP3    H228863   4.241   4.449   1.312 -1.5252  0.8822  4.3258
 2410TIP3   OH228864   2.446   6.793   8.575  0.1590 -0.0193 -0.1231
 2410TIP3    H128865   2.404   6.779   8.660  0.4084 -0.2309 -0.0307
 2410TIP3    H228866   2.523   6.846   8.595 -0.4385  0.9655 -0.3883
 2411TIP3   OH228867   6.015   4.178   7.276  0.0939  0.1951  0.0698
 2411TIP3    H128868   6.104   4.151   7.296  0.9284  2.5929 -0.0262
 2411TIP3    H228869   6.003   4.158   7.183  0.4172 -0.3923  0.1539
 2412TIP3   OH228870   3.535   1.844   8.279 -0.6229  0.0671 -0.2602
 2412TIP3    H128871   3.587   1.821   8.357 -1.0774  1.8900  0.6380
 2412TIP3    H228872   3.445   1.826   8.305 -0.6947 -0.2669 -0.7379
 2413TIP3   OH228873   6.267   5.524   1.754 -0.0362 -0.2201  0.1400
 2413TIP3    H128874   6.300   5.435   1.737 -0.3540 -0.4703  0.8144
 2413TIP3    H228875   6.188   5.530   1.700  0.5970  0.0642 -0.7854
 2414TIP3   OH228876   5.643   5.924   1.673  0.1023  0.0826  0.1372
 2414TIP3    H128877   5.683   5.946   1.588  2.0555 -0.5275  0.8428
 2414TIP3    H228878   5.659   6.002   1.727 -4.1496  1.9421 -0.8926
 2415TIP3   OH228879   2.821   4.559   8.444  0.1055  0.8219 -0.7742
 2415TIP3    H128880   2.910   4.526   8.444  0.4503  1.3375  2.8850
 2415TIP3    H228881   2.830   4.654   8.449 -0.6029  0.8584  0.0849
 2416TIP3   OH228882   5.256   5.948   1.615  0.2183  0.3915 -0.1866
 2416TIP3    H128883   5.198   5.888   1.568 -0.1607  0.5131  0.1260
 2416TIP3    H228884   5.313   5.890   1.666  0.0428  0.2824 -0.1109
 2417TIP3   OH228885   1.932   0.621   6.508  0.1506 -0.3008 -0.4681
 2417TIP3    H128886   1.990   0.552   6.476 -0.6353 -0.5208 -1.4735
 2417TIP3    H228887   1.960   0.636   6.598  1.2745 -0.9188 -0.6930
 2418TIP3   OH228888   3.306   5.301   0.026  0.3136 -0.3960  0.8389
 2418TIP3    H128889   3.347   5.229  -0.022  1.5945  0.2860  0.8606
 2418TIP3    H228890   3.301   5.271   0.116 -0.9037 -1.1746  0.5359
 2419TIP3   OH228891   4.518   4.642   1.196 -0.1334  0.7527  0.8797
 2419TIP3    H128892   4.452   4.578   1.224 -0.2967 -0.0230 -1.1144
 2419TIP3    H228893   4.588   4.590   1.157  0.3065  1.7153  0.3358
 2420TIP3   OH228894   5.921   5.993   8.282 -0.3614 -0.1867 -0.6089
 2420TIP3    H128895   5.828   6.017   8.289 -0.3554 -0.2876 -0.0674
 2420TIP3    H228896   5.954   6.004   8.371  0.1355 -0.2023 -0.7914
 2421TIP3   OH228897   2.244   1.039   6.199 -0.6031  0.0531 -0.2175
 2421TIP3    H128898   2.232   0.954   6.157 -0.0530 -0.7326  1.1640
 2421TIP3    H228899   2.156   1.065   6.227 -0.7823 -0.0103 -0.7149
 2422TIP3   OH228900   1.265   6.058   7.672  0.4741 -0.0652  0.1913
 2422TIP3    H128901   1.289   6.143   7.637  0.7290 -0.7908 -1.4904
 2422TIP3    H228902   1.191   6.029   7.618 -1.1893  0.0712  2.2509
 2423TIP3   OH228903   3.285   1.671   1.626  0.1960  0.0994  0.3131
 2423TIP3    H128904   3.275   1.732   1.698  1.3497  2.7812 -1.6266
 2423TIP3    H228905   3.195   1.655   1.596 -0.1054  1.6703  0.2810
 2424TIP3   OH228906   0.246   3.586   7.758 -0.7083  0.1107 -0.3653
 2424TIP3    H128907   0.178   3.573   7.823 -0.4276 -0.7130 -0.2323
 2424TIP3    H228908   0.289   3.668   7.784 -0.9455  0.0657  0.1672
 2425TIP3   OH228909   1.670   3.451   7.130  0.3773 -0.8130 -0.4346
 2425TIP3    H128910   1.697   3.455   7.038  0.5860 -0.9560 -0.3795
 2425TIP3    H228911   1.673   3.542   7.160  1.1492 -0.8641 -0.3274
 2426TIP3   OH228912   3.913   5.933   6.904  0.0752 -0.3338 -0.2625
 2426TIP3    H128913   3.929   5.842   6.880 -1.0164 -0.2126 -1.5668
 2426TIP3    H228914   3.997   5.976   6.890  0.8978 -1.3152  1.4015
 2427TIP3   OH228915   6.586   6.719   7.900 -0.0897 -0.0927 -0.6953
 2427TIP3    H128916   6.506   6.672   7.924  1.9759 -3.2761  0.6610
 2427TIP3    H228917   6.588   6.795   7.958 -1.4284 -0.7833  0.2996
 2428TIP3   OH228918   3.876   6.271   0.302  0.3328 -0.7832 -0.3681
 2428TIP3    H128919   3.804   6.334   0.298 -0.9368 -2.1449 -0.2388
 2428TIP3    H228920   3.832   6.186   0.311  1.9702 -1.6805 -0.4457
 2429TIP3   OH228921   4.559   5.536   0.362 -0.1488 -0.1228 -0.8273
 2429TIP3    H128922   4.616   5.467   0.327 -0.4258 -0.5524 -0.4393
 2429TIP3    H228923   4.555   5.602   0.292 -1.9038 -1.6239 -2.2364
 2430TIP3   OH228924   0.746   5.725   8.805  0.3637  0.0631 -0.1111
 2430TIP3    H128925   0.754   5.647   8.860  0.3029 -0.6424 -1.0866
 2430TIP3    H228926   0.836   5.755   8.791  0.3139  1.3328  1.8442
 2431TIP3   OH228927   5.727   3.339   6.246  0.2762 -0.0337 -0.6359
 2431TIP3    H128928   5.810   3.298   6.219  1.4584  1.4154  0.6165
 2431TIP3    H228929   5.694   3.283   6.316  0.4913 -0.3074 -0.7525
 2432TIP3   OH228930   5.475   3.968   1.699  0.0086 -0.2130 -1.0938
 2432TIP3    H128931   5.399   3.924   1.738 -0.9867  1.5443 -0.9179
 2432TIP3    H228932   5.459   4.061   1.715  2.8940  0.1735  0.1542
 2433TIP3   OH228933   1.065   6.081   8.799 -0.4851  0.0037  0.0845
 2433TIP3    H128934   1.129   6.120   8.739 -1.1781  0.0840 -0.6230
 2433TIP3    H228935   1.107   6.002   8.832  0.5439  0.8076  0.7540
 2434TIP3   OH228936   6.736   5.685   2.026  0.1991  0.1678  0.5746
 2434TIP3    H128937   6.651   5.728   2.015 -0.8021 -0.9043  3.2644
 2434TIP3    H228938   6.790   5.751   2.071  0.1184  0.1692  0.6717
 2435TIP3   OH228939   5.634   0.924   2.601 -0.1721 -0.1452  0.1168
 2435TIP3    H128940   5.543   0.949   2.619 -0.2715  0.2168 -0.8493
 2435TIP3    H228941   5.660   0.979   2.527  0.3257 -1.3606 -0.6441
 2436TIP3   OH228942   2.683   4.142   1.407  0.1804 -0.0655 -0.0080
 2436TIP3    H128943   2.685   4.099   1.322  0.3097 -1.1973  0.5523
 2436TIP3    H228944   2.775   4.157   1.430  0.2681 -1.7094  0.8663
 2437TIP3   OH228945   0.991   0.797   2.259 -0.0421  0.1343 -0.1209
 2437TIP3    H128946   1.043   0.763   2.332  0.8581  0.5120 -0.5703
 2437TIP3    H228947   1.041   0.873   2.228 -0.7340  0.3441 -0.7350
 2438TIP3   OH228948   6.372   0.062   7.577 -0.4065  0.4060  0.6011
 2438TIP3    H128949   6.466   0.071   7.566 -0.1158 -2.2593  0.3016
 2438TIP3    H228950   6.334   0.128   7.519  1.2715 -0.3593 -1.4720
 2439TIP3   OH228951   0.941   4.854   0.790  0.1702  0.2039 -0.6487
 2439TIP3    H128952   1.017   4.870   0.846 -0.2815 -0.1790  0.1031
 2439TIP3    H228953   0.896   4.781   0.832 -1.0681  0.9649 -0.5876
 2440TIP3   OH228954   6.524   1.035   7.890  0.2650  0.1050  0.2383
 2440TIP3    H128955   6.519   0.942   7.913  1.3773  0.0440  0.2877
 2440TIP3    H228956   6.531   1.080   7.975 -1.4531  0.3536  0.2899
 2441TIP3   OH228957   0.882   1.979   1.689 -0.1648 -0.4332 -0.2478
 2441TIP3    H128958   0.889   2.021   1.775 -1.3849 -1.1507  0.2268
 2441TIP3    H228959   0.896   1.886   1.706 -0.5277 -0.5954 -0.7941
 2442TIP3   OH228960   3.550   2.653   8.112 -0.3622 -0.5501 -0.2533
 2442TIP3    H128961   3.480   2.596   8.080 -2.8188  2.2690 -0.3222
 2442TIP3    H228962   3.596   2.680   8.032 -2.6548  1.7152 -0.9170
 2443TIP3   OH228963   2.457   4.953   8.665  0.3164 -0.4900  0.3055
 2443TIP3    H128964   2.516   4.927   8.737  0.3003 -1.5564 -0.0598
 2443TIP3    H228965   2.387   4.888   8.667 -1.0912  0.9851  0.9796
 2444TIP3   OH228966   5.858   1.945   8.175 -0.2775  0.1855  0.1355
 2444TIP3    H128967   5.797   1.931   8.103 -1.2847 -0.1755  1.0278
 2444TIP3    H228968   5.939   1.904   8.146 -1.5423 -2.7630  0.4124
 2445TIP3   OH228969   6.373   2.787   8.645 -0.3688 -0.4466  0.0852
 2445TIP3    H128970   6.291   2.813   8.604 -0.1438 -1.3612 -0.9849
 2445TIP3    H228971   6.362   2.693   8.662  0.6044 -0.6602 -0.4380
 2446TIP3   OH228972   6.674   1.746   6.534  0.6274 -0.3554  0.0692
 2446TIP3    H128973   6.586   1.730   6.498 -0.3199 -0.7062  2.3779
 2446TIP3    H228974   6.727   1.771   6.458 -1.3062 -0.7683 -1.4866
 2447TIP3   OH228975   5.377   3.590   1.285 -0.2420 -0.2161 -0.1723
 2447TIP3    H128976   5.425   3.580   1.367 -0.4785  1.5084  0.2321
 2447TIP3    H228977   5.335   3.506   1.270  0.6042 -0.8592  0.9624
 2448TIP3   OH228978   2.510   6.227   7.618  0.4081 -0.9686 -0.0837
 2448TIP3    H128979   2.543   6.223   7.708  0.7190  1.9232  0.0477
 2448TIP3    H228980   2.427   6.275   7.625  1.4497  1.2397 -1.4545
 2449TIP3   OH228981   3.090   5.061   7.017  0.0161  0.3738  0.5395
 2449TIP3    H128982   3.181   5.034   7.000  0.0673  0.3036  0.9163
 2449TIP3    H228983   3.092   5.156   7.016  0.0913  0.3724  0.5402
 2450TIP3   OH228984   5.965   2.264   2.022 -0.0209  0.0311  0.3674
 2450TIP3    H128985   5.992   2.304   2.105  1.0967 -1.0988  0.5899
 2450TIP3    H228986   5.933   2.337   1.969 -1.0515  0.7341  1.8881
 2451TIP3   OH228987   2.945   6.652   1.372 -0.0553 -0.4790 -0.1190
 2451TIP3    H128988   2.978   6.615   1.291 -1.8152  0.9569 -1.5838
 2451TIP3    H228989   3.018   6.702   1.408  0.5124 -0.4756 -1.2465
 2452TIP3   OH228990   2.391   5.569   1.107  0.0253 -0.0845  0.0678
 2452TIP3    H128991   2.338   5.523   1.172  0.9374 -0.4229  0.5875
 2452TIP3    H228992   2.401   5.658   1.141  1.5780 -0.6008  1.0818
 2453TIP3   OH228993   4.539   2.964   1.089 -0.0804 -0.0986  0.1289
 2453TIP3    H128994   4.527   2.949   0.995 -0.4496 -0.4522  0.2296
 2453TIP3    H228995   4.544   2.877   1.127 -0.4839  0.0341  0.5023
 2454TIP3   OH228996   1.511   0.751   8.274  0.3972 -0.1235 -0.0803
 2454TIP3    H128997   1.515   0.714   8.186  1.2156 -1.0803  0.3404
 2454TIP3    H228998   1.572   0.825   8.272 -1.8802  1.8683 -1.1769
 2455TIP3   OH228999   1.766   2.620   0.658  0.3644 -0.3608  0.1003
 2455TIP3    H129000   1.821   2.581   0.590 -0.9736 -1.3811 -0.4465
 2455TIP3    H229001   1.739   2.704   0.621  3.1230  1.1424  1.2116
 2456TIP3   OH229002   2.597   0.023   8.264  0.4022 -0.1466 -0.0682
 2456TIP3    H129003   2.656   0.015   8.339 -0.0070  0.2692  0.3039
 2456TIP3    H229004   2.610  -0.058   8.215  1.5718  0.1048 -0.2110
 2457TIP3   OH229005   5.320   6.588   1.877 -0.0033  0.3345 -0.1910
 2457TIP3    H129006   5.348   6.620   1.962 -0.9706  1.7136 -0.3510
 2457TIP3    H229007   5.391   6.531   1.848  0.6936  0.4640  1.1830
 2458TIP3   OH229008   6.587   3.733   8.176  0.0118  0.2506  0.2541
 2458TIP3    H129009   6.504   3.780   8.186 -0.3784  0.4024 -2.8126
 2458TIP3    H229010   6.567   3.660   8.118  1.4277 -1.6106  1.9415
 2459TIP3   OH229011   1.850   3.429   0.518 -0.7280 -0.4499  0.6749
 2459TIP3    H129012   1.939   3.426   0.552 -0.5304 -1.1462  0.1211
 2459TIP3    H229013   1.794   3.436   0.595 -0.2203 -0.5866  1.0556
 2460TIP3   OH229014   3.694   6.579   1.660  0.4830 -1.0042 -0.1678
 2460TIP3    H129015   3.612   6.560   1.706  0.5461  0.3232  0.5389
 2460TIP3    H229016   3.757   6.519   1.700  0.0327 -1.5227 -0.2034
 2461TIP3   OH229017   0.183   1.071   8.810 -0.7000 -0.2604 -0.3822
 2461TIP3    H129018   0.191   1.101   8.719 -1.3627 -1.3436 -0.8139
 2461TIP3    H229019   0.272   1.074   8.844 -0.3090 -0.6312 -1.3343
 2462TIP3   OH229020   5.083   1.765   8.789  0.0441 -0.3279  0.2487
 2462TIP3    H129021   5.042   1.843   8.751  0.8670  0.3560  0.7369
 2462TIP3    H229022   5.136   1.729   8.718  1.4563  0.8604  0.6565
 2463TIP3   OH229023   5.573   1.866   1.485  0.6270  0.3272 -0.2633
 2463TIP3    H129024   5.649   1.904   1.530  0.5271  0.1685  0.0425
 2463TIP3    H229025   5.527   1.817   1.553  0.3703  0.2391 -0.4983
 2464TIP3   OH229026   0.974   4.398   8.510 -0.1166  0.4823  0.2982
 2464TIP3    H129027   0.902   4.377   8.570  0.5160  0.6293  1.1199
 2464TIP3    H229028   1.046   4.342   8.539 -0.5373 -1.4065 -1.9457
 2465TIP3   OH229029   4.037   3.330   0.883  0.3336 -0.5122  0.1421
 2465TIP3    H129030   4.063   3.374   0.802  1.6844  1.0059  1.3437
 2465TIP3    H229031   4.116   3.327   0.936 -0.5306 -1.4201  1.4585
 2466TIP3   OH229032   1.504   3.471   1.037 -0.1088  0.5083  0.6495
 2466TIP3    H129033   1.496   3.504   0.948  1.2406  1.4984  0.8733
 2466TIP3    H229034   1.439   3.400   1.042  0.5498 -0.3181 -1.4592
 2467TIP3   OH229035   6.556   3.153   1.147  0.2957 -0.1896 -0.2974
 2467TIP3    H129036   6.520   3.180   1.231  1.7621 -0.0185  0.3154
 2467TIP3    H229037   6.634   3.208   1.136  0.5047 -0.6899 -1.4435
 2468TIP3   OH229038   3.348   4.934   8.280  1.1651 -0.1008  0.0451
 2468TIP3    H129039   3.364   4.992   8.206 -3.2308 -0.8386 -1.8550
 2468TIP3    H229040   3.357   4.989   8.357  2.9931  1.4560 -1.1970
 2469TIP3   OH229041   4.664   3.635   8.330  0.1442  0.2978 -0.3109
 2469TIP3    H129042   4.732   3.678   8.383  0.0220  1.0710 -0.7748
 2469TIP3    H229043   4.681   3.665   8.241  0.4424 -1.1132 -0.7562
 2470TIP3   OH229044   1.200   5.535   7.582  0.3903 -0.3370 -0.0346
 2470TIP3    H129045   1.193   5.447   7.546  0.3219 -0.6384  0.6988
 2470TIP3    H229046   1.256   5.582   7.521 -1.8541 -0.0489 -1.9977
 2471TIP3   OH229047   1.164   0.685   0.605 -0.2918 -0.1173  0.6269
 2471TIP3    H129048   1.127   0.597   0.614  0.2992 -0.2924  1.4463
 2471TIP3    H229049   1.159   0.722   0.693  2.2072 -0.4577  0.9993
 2472TIP3   OH229050   0.722   6.441   7.701  0.0442  1.1220 -0.1277
 2472TIP3    H129051   0.712   6.529   7.663  0.6847  1.6617  0.9142
 2472TIP3    H229052   0.811   6.416   7.678  0.0402  0.9674  0.0281
 2473TIP3   OH229053   3.786   5.530   8.290 -0.3106 -0.6184 -0.3154
 2473TIP3    H129054   3.705   5.579   8.294 -0.8698 -1.4769 -0.7631
 2473TIP3    H229055   3.761   5.440   8.314  0.7909 -0.5712  1.1348
 2474TIP3   OH229056   3.681   3.078   8.783 -0.5883 -0.5553  0.4773
 2474TIP3    H129057   3.711   3.168   8.773  1.0278 -1.1333 -0.1323
 2474TIP3    H229058   3.586   3.083   8.770 -0.2272  0.6619 -2.2755
 2475TIP3   OH229059   5.035   4.489   1.124 -1.2342 -0.0814 -0.1718
 2475TIP3    H129060   5.051   4.424   1.192  2.7811  0.5284 -0.2652
 2475TIP3    H229061   5.007   4.567   1.172 -2.4891 -0.8135  0.3106
 2476TIP3   OH229062   2.182   3.318   0.284 -0.0820  0.2845 -0.0374
 2476TIP3    H129063   2.118   3.247   0.277  0.2293  0.1652 -2.7890
 2476TIP3    H229064   2.193   3.332   0.378  0.0224 -3.4549  0.6378
 2477TIP3   OH229065   2.482   2.912   1.637 -0.0151  0.3023 -0.1429
 2477TIP3    H129066   2.402   2.913   1.584  1.2657 -0.8448 -2.2690
 2477TIP3    H229067   2.551   2.939   1.575  1.2931  1.0526  1.5623
 2478TIP3   OH229068   3.032   1.832   6.877  0.4056  0.2064 -0.0759
 2478TIP3    H129069   3.022   1.737   6.863 -2.0278  0.3042  0.5823
 2478TIP3    H229070   2.976   1.872   6.811  0.9798  1.1823  0.0136
 2479TIP3   OH229071   2.938   2.318   8.263  0.1254 -0.3034 -0.2149
 2479TIP3    H129072   2.869   2.267   8.220  0.2043 -0.3339 -0.3061
 2479TIP3    H229073   2.906   2.409   8.259  0.4971 -0.2006 -1.0557
 2480TIP3   OH229074   4.294   0.497   0.824  0.0852 -0.1896  0.1124
 2480TIP3    H129075   4.252   0.464   0.745 -1.4520  0.2729  0.6971
 2480TIP3    H229076   4.366   0.437   0.840  0.2593 -0.4438 -1.4791
 2481TIP3   OH229077   3.890   1.786   1.318 -0.3892  0.3933 -0.2315
 2481TIP3    H129078   3.936   1.855   1.271 -0.8505  1.7958  1.2592
 2481TIP3    H229079   3.868   1.826   1.403 -1.7177 -1.1990  0.2231
 2482TIP3   OH229080   6.497   4.123   0.135 -0.2190  0.1616 -0.1367
 2482TIP3    H129081   6.450   4.196   0.173  0.0600 -0.8661  2.3230
 2482TIP3    H229082   6.460   4.045   0.176  2.3538 -0.7954  0.5649
 2483TIP3   OH229083   0.978   1.281   0.228 -0.1206  0.1899 -0.0362
 2483TIP3    H129084   1.032   1.315   0.300 -1.3483 -0.0768  1.0379
 2483TIP3    H229085   0.992   1.186   0.231 -1.2358  0.0387  0.7556
 2484TIP3   OH229086   6.042   3.347   1.546  0.1192 -0.4771 -0.4773
 2484TIP3    H129087   6.014   3.403   1.618 -0.5963  0.6213 -1.5678
 2484TIP3    H229088   6.021   3.259   1.575 -2.2079  0.1114 -0.1975
 2485TIP3   OH229089   2.616   4.178   8.728  0.1610 -0.2953  0.4026
 2485TIP3    H129090   2.693   4.234   8.741  0.0829 -0.4567  1.6905
 2485TIP3    H229091   2.551   4.235   8.687  0.8583 -0.0850 -0.4486
 2486TIP3   OH229092   3.906   4.697   7.024  0.0527 -0.4369 -0.1216
 2486TIP3    H129093   3.986   4.668   6.979 -0.1595 -1.7937  0.3595
 2486TIP3    H229094   3.868   4.618   7.060 -1.8231  0.1087 -0.7824
 2487TIP3   OH229095   4.666   4.616   0.639  0.0481  0.1467  0.3942
 2487TIP3    H129096   4.755   4.591   0.662  0.1437  1.0140  1.0372
 2487TIP3    H229097   4.611   4.554   0.686  0.3021 -1.5624 -1.4527
 2488TIP3   OH229098   3.964   6.789   7.907 -0.1893 -0.2709 -0.0402
 2488TIP3    H129099   3.958   6.710   7.961 -2.7439 -0.0332  0.1417
 2488TIP3    H229100   3.962   6.861   7.969  0.3926 -0.0210 -0.3025
 2489TIP3   OH229101   3.747   1.844   6.883 -0.4367 -0.0539 -0.4735
 2489TIP3    H129102   3.754   1.760   6.927  0.9611  0.5210  0.4769
 2489TIP3    H229103   3.838   1.866   6.860 -0.7397  1.3228 -0.4291
 2490TIP3   OH229104   1.105   6.456   8.812 -0.2326  0.0443  0.4761
 2490TIP3    H129105   1.080   6.536   8.764  1.1864  0.3882  0.2467
 2490TIP3    H229106   1.100   6.481   8.904  0.6947  0.5845  0.3966
 2491TIP3   OH229107   6.023   1.924   8.689  0.3330  0.8680  0.1374
 2491TIP3    H129108   6.046   2.017   8.693  0.4395  0.9500 -1.6028
 2491TIP3    H229109   5.941   1.921   8.642  0.3964  0.0642  0.0600
 2492TIP3   OH229110   5.700   0.379   1.125 -0.5053 -0.2907  0.4465
 2492TIP3    H129111   5.619   0.430   1.114  0.1121  0.5711 -0.2475
 2492TIP3    H229112   5.757   0.436   1.177 -0.6723 -1.2899  1.7759
 2493TIP3   OH229113   4.929   1.946   1.213 -0.3616  0.1140 -0.5181
 2493TIP3    H129114   5.014   1.931   1.173  0.2272  1.8370  0.0269
 2493TIP3    H229115   4.942   2.020   1.272 -1.9545 -0.3516  0.4892
 2494TIP3   OH229116   1.349   2.593   1.265 -0.9545 -0.2414 -0.1325
 2494TIP3    H129117   1.346   2.589   1.361 -1.4563 -0.1281 -0.1423
 2494TIP3    H229118   1.410   2.665   1.246 -0.6675 -0.4207  0.0970
 2495TIP3   OH229119   2.231   3.270   8.425  0.0748 -0.6898  0.7558
 2495TIP3    H129120   2.139   3.268   8.398 -0.1492  2.0478  1.0368
 2495TIP3    H229121   2.272   3.201   8.373 -2.1185 -2.0974  0.7232
 2496TIP3   OH229122   5.191   2.836   0.935  0.5444  0.1815  0.2135
 2496TIP3    H129123   5.139   2.904   0.891 -0.4875 -0.5661  0.2308
 2496TIP3    H229124   5.134   2.759   0.935  1.0723 -0.2343  1.6099
 2497TIP3   OH229125   5.878   2.652   8.530 -0.0299  0.1474 -0.4952
 2497TIP3    H129126   5.886   2.589   8.458 -2.1219  0.4402 -1.0545
 2497TIP3    H229127   5.784   2.657   8.547  0.2750  1.4408  1.0721
 2498TIP3   OH229128   6.793   1.402   8.726 -0.0675  0.4049 -0.2381
 2498TIP3    H129129   6.763   1.338   8.791  0.2652  0.4058 -0.0798
 2498TIP3    H229130   6.795   1.353   8.644 -1.5095  0.6754 -0.4704
 2499TIP3   OH229131   3.981   3.238   1.975  0.2768 -0.1584  0.0448
 2499TIP3    H129132   3.921   3.267   2.043 -0.8768  0.5624 -1.2130
 2499TIP3    H229133   3.978   3.142   1.979  0.3890 -0.1279  1.1095
 2500TIP3   OH229134   2.979   0.367   6.416 -0.2652 -0.4712  0.1525
 2500TIP3    H129135   3.006   0.325   6.498  0.4860 -1.6206 -0.6535
 2500TIP3    H229136   3.011   0.457   6.424  1.9761 -1.2057  0.1460
 2501TIP3   OH229137   1.636   0.693   7.514  0.2845 -0.5779 -0.0688
 2501TIP3    H129138   1.589   0.657   7.438 -0.7964  0.9625 -0.1891
 2501TIP3    H229139   1.600   0.645   7.589 -0.2298 -0.6174 -0.3336
 2502TIP3   OH229140   6.489   2.819   8.181  0.6636 -0.9484  0.3496
 2502TIP3    H129141   6.401   2.838   8.213  0.7236 -0.6278  0.3320
 2502TIP3    H229142   6.476   2.779   8.096  0.5664  0.7832 -0.4974
 2503TIP3   OH229143   5.338   0.350   6.958 -0.3288 -0.1486 -0.2775
 2503TIP3    H129144   5.281   0.291   6.908 -0.3137  1.3662 -2.2124
 2503TIP3    H229145   5.425   0.311   6.951 -0.8157 -1.6515  1.3774
 2504TIP3   OH229146   6.493   3.168   8.299 -0.3207  0.7845 -0.2077
 2504TIP3    H129147   6.498   3.222   8.220 -2.1447  1.0847 -0.1501
 2504TIP3    H229148   6.496   3.231   8.371 -1.1278  0.7077 -0.1047
 2505TIP3   OH229149   0.813   4.602   6.563 -0.2664 -0.3959 -0.4129
 2505TIP3    H129150   0.853   4.525   6.602 -1.5208 -0.5338  0.6760
 2505TIP3    H229151   0.863   4.676   6.599 -2.0346 -0.4331  2.4814
 2506TIP3   OH229152   1.537   1.940   1.411 -0.8008  0.6111  0.5203
 2506TIP3    H129153   1.561   1.891   1.489 -3.1349  1.2005  1.6825
 2506TIP3    H229154   1.459   1.989   1.435  0.3125  3.5005 -1.1551
 2507TIP3   OH229155   6.760   2.201   6.493 -0.0850 -0.6094  0.3814
 2507TIP3    H129156   6.696   2.197   6.422  0.7558 -1.5502 -0.3603
 2507TIP3    H229157   6.798   2.288   6.487  1.3298 -1.2901 -1.5943
 2508TIP3   OH229158   4.161   5.134   2.605 -0.4100  0.1384 -0.2502
 2508TIP3    H129159   4.103   5.107   2.675  0.1141  0.7421  0.4385
 2508TIP3    H229160   4.240   5.081   2.618  1.0379  2.5604  1.7437
 2509TIP3   OH229161   6.620   3.596   0.983 -0.5299 -0.3683  0.1897
 2509TIP3    H129162   6.553   3.570   1.047 -0.1928 -0.0009  0.6992
 2509TIP3    H229163   6.672   3.662   1.029  0.3150 -0.8001 -0.1289
 2510TIP3   OH229164   5.721   4.421   0.932  0.4719 -0.1349  0.2863
 2510TIP3    H129165   5.633   4.384   0.918  0.1617 -0.0080  1.7160
 2510TIP3    H229166   5.777   4.373   0.871 -0.7541  0.5920 -1.4991
 2511TIP3   OH229167   2.070   6.726   7.175 -0.1868 -0.0097 -0.3997
 2511TIP3    H129168   2.096   6.686   7.259  1.0429 -0.2799 -0.8823
 2511TIP3    H229169   2.011   6.662   7.136  0.5904 -0.6999 -0.4916
 2512TIP3   OH229170   0.744   0.681   2.327  0.1562  0.7449  0.3510
 2512TIP3    H129171   0.691   0.741   2.276 -0.2038 -1.0460 -1.5257
 2512TIP3    H229172   0.835   0.707   2.309  0.0103  2.1233  1.4284
 2513TIP3   OH229173   4.625   4.927   1.804  0.1521 -0.1452  0.7254
 2513TIP3    H129174   4.540   4.971   1.800  0.6388  0.7357 -1.3294
 2513TIP3    H229175   4.689   4.998   1.798  1.0333 -0.8669  1.3013
 2514TIP3   OH229176   1.313   3.163   0.682  0.2436 -0.4188 -0.4056
 2514TIP3    H129177   1.238   3.126   0.635 -1.1344  0.8246  0.6746
 2514TIP3    H229178   1.286   3.253   0.701  0.2092 -1.0724  3.5506
 2515TIP3   OH229179   2.038   0.807   8.513 -0.3255 -0.2285 -0.0482
 2515TIP3    H129180   1.966   0.747   8.535 -0.0028 -0.4476  0.4409
 2515TIP3    H229181   2.077   0.770   8.434 -0.8553 -0.0139 -0.4140
 2516TIP3   OH229182   5.407   1.629   7.339 -0.2829 -0.3887 -0.2193
 2516TIP3    H129183   5.476   1.684   7.377  0.1068 -0.5466 -0.6853
 2516TIP3    H229184   5.449   1.588   7.263 -0.7366 -0.9020 -0.1960
 2517TIP3   OH229185   1.682   5.604   8.387 -0.0046  0.5690 -0.5802
 2517TIP3    H129186   1.657   5.562   8.305  0.2293 -0.5632 -0.0920
 2517TIP3    H229187   1.621   5.569   8.451  0.2314  0.9411 -0.1445
 2518TIP3   OH229188   2.760   0.883   8.279 -0.6331  0.0549 -0.3355
 2518TIP3    H129189   2.800   0.797   8.284 -0.3750  0.1258 -1.0526
 2518TIP3    H229190   2.733   0.902   8.368 -0.3025 -0.5810 -0.0927
 2519TIP3   OH229191   0.145   3.205   1.481 -0.6813 -0.7812  0.3037
 2519TIP3    H129192   0.187   3.231   1.562  0.0163 -0.3134 -0.1942
 2519TIP3    H229193   0.064   3.161   1.508 -0.6677 -0.2480  1.2264
 2520TIP3   OH229194   2.157   1.277   0.797 -0.1192  0.5287 -0.0611
 2520TIP3    H129195   2.177   1.369   0.816 -0.8862  1.2135 -2.2807
 2520TIP3    H229196   2.223   1.251   0.734 -1.0197  0.1367 -0.8626
 2521TIP3   OH229197   1.741   0.844   7.753 -0.0963 -0.0600  0.4907
 2521TIP3    H129198   1.653   0.842   7.790  0.1135 -0.1878  0.9935
 2521TIP3    H229199   1.769   0.752   7.752  0.4521  0.0867  1.3761
 2522TIP3   OH229200   5.305   2.446   0.736 -0.1138 -0.0104  0.2295
 2522TIP3    H129201   5.385   2.401   0.708  0.2480 -0.0722  1.2981
 2522TIP3    H229202   5.337   2.528   0.774 -0.5572 -0.0217  0.6293
 2523TIP3   OH229203   3.896   5.626   7.774  0.2489  0.2887  0.2560
 2523TIP3    H129204   3.977   5.610   7.823 -0.3180 -0.2826  1.0386
 2523TIP3    H229205   3.828   5.583   7.826 -0.3671 -0.5000 -1.1339
 2524TIP3   OH229206   6.826   6.549   0.153 -0.3194  0.3261 -0.3300
 2524TIP3    H129207   6.864   6.586   0.232 -0.6411  1.5557 -0.7296
 2524TIP3    H229208   6.901   6.526   0.098 -0.0997 -0.4604  0.2925
 2525TIP3   OH229209   3.877   5.754   0.828  0.1954  0.3554 -0.0606
 2525TIP3    H129210   3.851   5.708   0.908  0.9420 -0.9463 -0.5475
 2525TIP3    H229211   3.800   5.806   0.805  0.4769  1.9842  2.3193
 2526TIP3   OH229212   5.430   6.244   8.643 -0.6175 -0.0028 -0.2172
 2526TIP3    H129213   5.493   6.277   8.578 -0.4283  2.0471  0.9447
 2526TIP3    H229214   5.482   6.185   8.698  0.3274  1.5477  0.6311
 2527TIP3   OH229215   1.731   4.225   2.536  0.1871 -0.3739 -0.1718
 2527TIP3    H129216   1.768   4.161   2.596  0.3965  0.1000  0.2061
 2527TIP3    H229217   1.674   4.279   2.590  0.4523  0.1158 -0.3749
 2528TIP3   OH229218   2.814   0.653   7.841  0.5800 -0.3246  0.1606
 2528TIP3    H129219   2.787   0.732   7.795  0.9979  0.5454  1.3590
 2528TIP3    H229220   2.799   0.582   7.778 -1.6689  0.4418 -0.2612
 2529TIP3   OH229221   0.248   2.258   0.035  0.2046 -0.1243  0.1632
 2529TIP3    H129222   0.316   2.311   0.077  0.5705 -0.4725  0.0204
 2529TIP3    H229223   0.192   2.321  -0.009  1.0493  0.1152 -0.6098
 2530TIP3   OH229224   4.996   1.940   2.005 -0.0131 -0.0371 -0.1473
 2530TIP3    H129225   5.016   1.852   1.975  0.0031 -0.1832  0.2936
 2530TIP3    H229226   4.973   1.930   2.097 -0.0833  0.4083 -0.1130
 2531TIP3   OH229227   1.645   5.482   1.127  0.2323 -0.0827  0.7663
 2531TIP3    H129228   1.699   5.405   1.107 -2.1432 -2.5530  2.9753
 2531TIP3    H229229   1.668   5.504   1.218 -1.4903 -0.3903  1.3109
 2532TIP3   OH229230   4.514   5.832   1.531  0.5135 -0.0265 -0.1534
 2532TIP3    H129231   4.555   5.748   1.552 -1.4892 -1.5640 -1.9441
 2532TIP3    H229232   4.541   5.850   1.441  0.2985  0.8914 -0.0459
 2533TIP3   OH229233   6.182   3.979   8.130  0.0935  0.3568 -0.0295
 2533TIP3    H129234   6.252   3.926   8.168 -0.9996 -0.9234  0.2931
 2533TIP3    H229235   6.101   3.932   8.154 -0.7555  0.4824 -2.3759
 2534TIP3   OH229236   4.119   0.078   0.042  0.4286 -0.0170  0.4918
 2534TIP3    H129237   4.163   0.163   0.044  0.1551  0.1445 -0.0993
 2534TIP3    H229238   4.158   0.029   0.114  0.7664  0.5228  0.6818
 2535TIP3   OH229239   2.344   1.434   7.337  0.3799  0.1081 -0.0741
 2535TIP3    H129240   2.364   1.345   7.365 -1.1756 -0.4814 -0.6968
 2535TIP3    H229241   2.418   1.486   7.367  0.9887 -1.2701  0.9316
 2536TIP3   OH229242   0.490   4.397   8.507  0.8855 -0.3923 -1.1952
 2536TIP3    H129243   0.474   4.488   8.481 -1.8489 -1.0455 -2.0643
 2536TIP3    H229244   0.473   4.346   8.428 -1.4916 -1.9197  0.1928
 2537TIP3   OH229245   6.746   3.787   8.492  0.0711  0.0014 -0.1902
 2537TIP3    H129246   6.681   3.725   8.525 -1.2611  1.2588 -0.3456
 2537TIP3    H229247   6.774   3.751   8.408 -1.2597 -0.0108 -0.6407
 2538TIP3   OH229248   5.146   0.926   6.788  0.2799  0.5807 -0.3277
 2538TIP3    H129249   5.175   0.845   6.745  1.9090  1.3235 -0.7148
 2538TIP3    H229250   5.164   0.995   6.723 -0.4551  1.3415  0.2524
 2539TIP3   OH229251   2.318   2.430   7.330  0.2129  0.5928  0.7362
 2539TIP3    H129252   2.234   2.453   7.371 -0.2613  0.1925  0.0018
 2539TIP3    H229253   2.297   2.420   7.237  0.9673 -0.0514  0.6315
 2540TIP3   OH229254   3.126   0.825   0.568  0.2288 -0.5496 -0.2084
 2540TIP3    H129255   3.041   0.867   0.561 -0.8128 -2.7221 -1.4079
 2540TIP3    H229256   3.121   0.774   0.649 -0.1115 -1.6858 -0.9314
 2541TIP3   OH229257   1.833   0.651   8.445  0.2095 -0.3487 -0.1005
 2541TIP3    H129258   1.818   0.686   8.358 -0.9690 -3.1743 -1.1619
 2541TIP3    H229259   1.769   0.695   8.501 -1.6666 -1.1996 -1.4909
 2542TIP3   OH229260   0.626   0.341   6.872  0.1370 -0.5057  0.1807
 2542TIP3    H129261   0.540   0.304   6.887  0.2754 -0.4063  1.3101
 2542TIP3    H229262   0.629   0.357   6.777 -1.0867 -0.4685  0.1313
 2543TIP3   OH229263   1.517   4.395   2.033  0.0304 -0.6215 -0.2722
 2543TIP3    H129264   1.475   4.424   1.952  0.0509 -1.7390 -0.6948
 2543TIP3    H229265   1.445   4.367   2.089  0.0163  0.1529  0.1101
 2544TIP3   OH229266   0.371   4.175   8.669 -0.0809  0.3026  0.0353
 2544TIP3    H129267   0.309   4.139   8.606 -1.7351  0.5154  1.4582
 2544TIP3    H229268   0.437   4.219   8.615 -0.5448 -0.8824 -1.5706
 2545TIP3   OH229269   6.750   5.405   8.484  0.1633 -0.4785  0.0648
 2545TIP3    H129270   6.839   5.391   8.453  1.4395  1.1041  2.7189
 2545TIP3    H229271   6.740   5.345   8.558 -0.8092 -0.2969  0.0997
 2546TIP3   OH229272   2.942   0.006   8.771  0.4407  0.0672 -0.5297
 2546TIP3    H129273   2.872   0.062   8.738  0.0435 -0.2543 -0.2375
 2546TIP3    H229274   3.009   0.009   8.703  0.7590  1.5098 -0.1924
 2547TIP3   OH229275   4.495   6.657   0.597 -0.5137  0.4383  0.1714
 2547TIP3    H129276   4.475   6.576   0.643  0.1966 -0.6925 -1.4153
 2547TIP3    H229277   4.518   6.630   0.508 -3.8614  2.6498 -1.5879
 2548TIP3   OH229278   6.717   0.942   8.123  0.2743  0.3466 -0.1843
 2548TIP3    H129279   6.685   1.032   8.121 -3.1434 -0.5773  2.4635
 2548TIP3    H229280   6.763   0.935   8.206 -0.4725 -0.5474  0.1788
 2549TIP3   OH229281   0.090   3.248   7.184  0.1792  0.0700  0.7039
 2549TIP3    H129282   0.109   3.257   7.277  1.3125 -1.9565  0.7156
 2549TIP3    H229283   0.174   3.262   7.141 -0.2114  0.3654  0.0149
 2550TIP3   OH229284   5.585   5.364   7.965  0.1346  0.4579 -1.0136
 2550TIP3    H129285   5.639   5.297   7.924  0.6841  1.1486 -1.4300
 2550TIP3    H229286   5.510   5.315   8.001  1.7175 -0.7400  0.8664
 2551TIP3   OH229287   4.117   3.592   1.637  0.2785 -0.5609 -0.2159
 2551TIP3    H129288   4.186   3.541   1.679 -0.1890 -1.1780 -0.1905
 2551TIP3    H229289   4.043   3.588   1.698  0.4151  0.6424  0.0664
 2552TIP3   OH229290   0.782   4.126   8.702 -0.2733 -0.2932 -0.0874
 2552TIP3    H129291   0.773   4.220   8.686  0.8673  0.2957  2.2535
 2552TIP3    H229292   0.699   4.100   8.743 -0.4202 -0.2064 -0.3300
 2553TIP3   OH229293   0.984   2.184   7.936  0.3118  0.5257  0.0406
 2553TIP3    H129294   0.942   2.255   7.886  0.2706 -0.0744 -0.7936
 2553TIP3    H229295   1.074   2.215   7.950  0.3697  0.6368 -0.5455
 2554TIP3   OH229296   2.932   1.062   6.857  0.0700  0.3245 -0.0141
 2554TIP3    H129297   2.888   1.109   6.928 -1.4438 -0.6868 -0.2248
 2554TIP3    H229298   2.895   1.099   6.777 -0.5728 -0.6631 -0.1948
 2555TIP3   OH229299   5.561   4.882   0.353 -0.5618  0.2109  0.0843
 2555TIP3    H129300   5.581   4.953   0.413 -0.4919 -1.9716  2.8829
 2555TIP3    H229301   5.508   4.821   0.405 -0.4552 -1.8830 -2.0638
 2556TIP3   OH229302   4.847   3.340   1.125 -0.0890 -0.1104 -0.3639
 2556TIP3    H129303   4.877   3.274   1.187 -0.1292 -2.0611 -2.3164
 2556TIP3    H229304   4.926   3.366   1.077 -0.0940  1.2273  0.2964
 2557TIP3   OH229305   3.244   3.096   8.335 -0.0623  0.1738  0.0134
 2557TIP3    H129306   3.273   3.163   8.273 -0.2521 -0.0808 -0.3542
 2557TIP3    H229307   3.288   3.016   8.306  0.7726  0.2897  0.9136
 2558TIP3   OH229308   3.329   1.135   8.363  0.0775 -0.6922  0.0696
 2558TIP3    H129309   3.238   1.117   8.386  0.1437 -1.5673 -0.2940
 2558TIP3    H229310   3.369   1.048   8.352  1.3242 -0.3635  1.5609
 2559TIP3   OH229311   2.266   0.227   8.202  0.0430 -0.2017 -0.9367
 2559TIP3    H129312   2.354   0.236   8.167 -0.0857 -3.0471 -2.2695
 2559TIP3    H229313   2.242   0.316   8.229  3.2077  0.6933 -0.6579
 2560TIP3   OH229314   3.874   1.979   0.228  0.6689 -0.2168  0.9287
 2560TIP3    H129315   3.815   2.046   0.193  0.3688 -0.1808  1.4973
 2560TIP3    H229316   3.942   2.029   0.273  0.8153 -0.2748  0.7700
 2561TIP3   OH229317   0.016   5.256   1.475 -0.2480  0.5054 -0.4568
 2561TIP3    H129318   0.015   5.306   1.394  0.5067 -1.2714 -1.6348
 2561TIP3    H229319   0.033   5.321   1.543  1.2208  1.7914 -1.9499
 2562TIP3   OH229320   6.565   3.708   2.318 -0.6935  0.1745 -0.0043
 2562TIP3    H129321   6.507   3.760   2.373 -0.9760  0.1868 -0.3120
 2562TIP3    H229322   6.555   3.744   2.230 -1.5570 -0.9385 -0.3917
 2563TIP3   OH229323   4.950   1.251   0.324  0.1830  0.1692 -0.0536
 2563TIP3    H129324   5.001   1.237   0.244  1.1557  0.5323  0.4818
 2563TIP3    H229325   5.014   1.286   0.387 -0.8478  1.1636  0.4699
 2564TIP3   OH229326   4.910   6.682   0.516 -0.3271  0.0506 -0.9148
 2564TIP3    H129327   4.933   6.594   0.487 -1.8133 -0.4496 -0.6782
 2564TIP3    H229328   4.840   6.710   0.457 -0.0302  0.9806 -0.8428
 2565TIP3   OH229329   1.128   3.427   7.993 -0.1116  0.5742  0.2237
 2565TIP3    H129330   1.050   3.469   8.031 -1.0644 -1.0097  0.1197
 2565TIP3    H229331   1.145   3.478   7.913 -1.1245  0.8894  0.1819
 2566TIP3   OH229332   2.340   5.057   7.701 -0.3379 -0.4680 -0.0746
 2566TIP3    H129333   2.383   5.117   7.762 -2.7704 -1.5175  2.9039
 2566TIP3    H229334   2.250   5.088   7.696 -0.2892 -0.4648 -3.2613
 2567TIP3   OH229335   1.389   1.004   1.143  0.2235  0.0339 -0.1739
 2567TIP3    H129336   1.340   1.062   1.201  0.1156 -0.4427  0.2179
 2567TIP3    H229337   1.416   1.060   1.070  1.4362  0.9251  0.9246
 2568TIP3   OH229338   4.417   0.655   0.501 -0.2044  0.0110 -0.3717
 2568TIP3    H129339   4.482   0.586   0.511 -1.5554 -1.2542  0.0555
 2568TIP3    H229340   4.464   0.726   0.457  2.0579  0.0528  1.9033
 2569TIP3   OH229341   4.530   3.852   8.069 -0.2997 -0.1593 -0.1878
 2569TIP3    H129342   4.478   3.889   7.998 -0.5629  2.0071  1.0401
 2569TIP3    H229343   4.465   3.827   8.135  0.0239 -1.1118 -0.2046
 2570TIP3   OH229344   1.596   0.549   1.013  0.3958  0.3806 -0.1993
 2570TIP3    H129345   1.522   0.523   0.959 -0.6233  1.5258  0.6007
 2570TIP3    H229346   1.662   0.579   0.949 -0.2534  0.4217 -0.8633
 2571TIP3   OH229347   5.418   2.560   7.687 -0.2853  0.4469 -0.1718
 2571TIP3    H129348   5.357   2.498   7.726  1.1217 -0.5572  0.5583
 2571TIP3    H229349   5.432   2.625   7.755  1.9345 -1.1391  1.0273
 2572TIP3   OH229350   2.967   3.746   0.905  0.0771  0.0955  0.4543
 2572TIP3    H129351   2.923   3.760   0.821  3.9925 -0.0666 -1.8431
 2572TIP3    H229352   2.928   3.665   0.939 -0.7510 -0.5351 -1.8268
 2573TIP3   OH229353   1.421   0.313   0.195  0.4576  0.0574  0.1905
 2573TIP3    H129354   1.501   0.329   0.246  0.8557 -0.5342 -0.2243
 2573TIP3    H229355   1.430   0.368   0.117  0.6601 -0.2969 -0.0450
 2574TIP3   OH229356   6.094   2.872   8.200 -0.0548 -0.5182 -0.6873
 2574TIP3    H129357   6.136   2.940   8.252 -0.2143 -1.8472  1.3066
 2574TIP3    H229358   6.001   2.884   8.216 -0.1344 -0.6753 -1.0265
 2575TIP3   OH229359   1.879   2.576   2.330  0.3710  0.0790 -0.1506
 2575TIP3    H129360   1.891   2.491   2.374  1.2614  0.5070  0.4626
 2575TIP3    H229361   1.954   2.628   2.359  0.1385  0.8861 -0.9847
 2576TIP3   OH229362   5.158   1.474   1.821  0.4344  0.7087 -0.9190
 2576TIP3    H129363   5.173   1.527   1.743  0.9747  0.3638 -1.0561
 2576TIP3    H229364   5.236   1.419   1.828 -0.2138 -0.2350 -0.9120
 2577TIP3   OH229365   0.248   3.096   8.115  0.0447  0.2713 -0.2247
 2577TIP3    H129366   0.323   3.045   8.146  0.6887  0.6977 -1.0242
 2577TIP3    H229367   0.271   3.118   8.024 -0.3827  1.6461 -0.0208
 2578TIP3   OH229368   5.688   0.059   0.506  0.4830 -0.1630 -1.4070
 2578TIP3    H129369   5.674  -0.023   0.554 -1.0243  0.7347 -0.2404
 2578TIP3    H229370   5.620   0.060   0.439 -2.3318  1.9695  1.2196
 2579TIP3   OH229371   3.459   4.191   2.485 -0.1976 -0.5140 -0.4663
 2579TIP3    H129372   3.512   4.132   2.432 -0.1921 -1.5118  0.6186
 2579TIP3    H229373   3.495   4.278   2.466 -1.2977 -0.5927 -3.3504
 2580TIP3   OH229374   4.838   1.088   0.071  0.1172 -0.0841 -0.1662
 2580TIP3    H129375   4.820   1.055   0.159 -0.0914  0.7516  0.1092
 2580TIP3    H229376   4.889   1.018   0.030  1.0317 -0.0985  0.9336
 2581TIP3   OH229377   4.506   4.370   2.726  0.1923  0.1492 -0.4594
 2581TIP3    H129378   4.431   4.415   2.766  0.5947 -1.7020  2.7058
 2581TIP3    H229379   4.575   4.436   2.725  0.0844  0.3892  1.8488
 2582TIP3   OH229380   5.659   1.368   7.743 -0.8367 -0.7753 -0.1677
 2582TIP3    H129381   5.716   1.416   7.683 -1.2818  0.5023  0.3891
 2582TIP3    H229382   5.718   1.340   7.814 -0.6859 -0.4272 -0.1502
 2583TIP3   OH229383   0.387   1.219   1.933 -0.2987  0.2476 -0.0648
 2583TIP3    H129384   0.293   1.240   1.927  0.0916  1.8695 -1.1605
 2583TIP3    H229385   0.417   1.220   1.842  0.8089 -0.1359  0.2845
 2584TIP3   OH229386   3.037   0.196   0.283 -0.0703  0.2153 -0.0432
 2584TIP3    H129387   3.035   0.206   0.378 -0.3438 -0.8203  0.0681
 2584TIP3    H229388   3.027   0.102   0.268  2.3587  0.0542 -1.0238
 2585TIP3   OH229389   4.312   1.785   0.665 -0.3457 -0.4595  0.0307
 2585TIP3    H129390   4.375   1.762   0.734  0.1904 -0.1970 -0.3703
 2585TIP3    H229391   4.294   1.703   0.620 -0.2031 -0.5122  0.0711
 2586TIP3   OH229392   0.272   4.275   8.029 -0.4445  0.5067  0.2454
 2586TIP3    H129393   0.192   4.243   8.071 -0.4679 -2.7547 -1.9453
 2586TIP3    H229394   0.242   4.338   7.965 -1.3905 -0.9722 -0.8220
 2587TIP3   OH229395   1.246   0.379   0.838 -0.1477 -0.0358 -0.1780
 2587TIP3    H129396   1.298   0.300   0.855  0.9840  0.5659 -0.7054
 2587TIP3    H229397   1.311   0.448   0.826 -0.9751  0.3961 -2.7438
 2588TIP3   OH229398   2.287   2.104   1.833  0.1744  0.2581  0.1041
 2588TIP3    H129399   2.328   2.060   1.759  1.8221  0.0916  1.0570
 2588TIP3    H229400   2.355   2.162   1.867 -0.5317  0.3260  1.4815
 2589TIP3   OH229401   6.691   5.414   7.144  0.6316  0.1840  0.2355
 2589TIP3    H129402   6.626   5.468   7.099  0.9345  0.1405 -0.2577
 2589TIP3    H229403   6.681   5.327   7.105 -0.4275 -0.3405  1.6063
 2590TIP3   OH229404   6.527   6.566   0.726 -0.3467 -0.0802 -0.5020
 2590TIP3    H129405   6.487   6.482   0.751 -0.6465  0.4571  0.9587
 2590TIP3    H229406   6.525   6.566   0.631 -2.5612 -0.6991 -0.5098
 2591TIP3   OH229407   6.165   4.117   1.107 -0.2219 -0.2628  0.0035
 2591TIP3    H129408   6.110   4.063   1.163  0.7064 -1.3130 -0.0685
 2591TIP3    H229409   6.108   4.141   1.033 -0.6696 -1.0524  0.0850
 2592TIP3   OH229410   0.379   2.831   2.214 -0.2314 -0.6333  0.0780
 2592TIP3    H129411   0.468   2.848   2.183 -0.9938  0.3302 -1.6675
 2592TIP3    H229412   0.372   2.882   2.295  0.3306  0.5098 -0.5674
 2593TIP3   OH229413   1.493   1.437   6.595  0.5834 -0.3799 -0.0028
 2593TIP3    H129414   1.546   1.404   6.522 -1.6138 -0.2200 -1.8027
 2593TIP3    H229415   1.539   1.517   6.623  1.2060 -0.1139 -1.6290
 2594TIP3   OH229416   6.276   5.814   1.739 -0.1763 -0.1475 -0.0436
 2594TIP3    H129417   6.368   5.839   1.731  0.0089 -0.2378  1.4075
 2594TIP3    H229418   6.274   5.721   1.716  0.1463 -0.2024  0.1337
 2595TIP3   OH229419   3.226   6.498   1.268  0.2620 -0.0327  0.6342
 2595TIP3    H129420   3.214   6.449   1.349 -0.1732  1.2092  1.3413
 2595TIP3    H229421   3.138   6.507   1.231  0.1534  1.2142  1.1331
 2596TIP3   OH229422   5.452   6.050   7.570 -0.3959  0.2398 -0.4961
 2596TIP3    H129423   5.493   5.979   7.620  0.1733 -0.0772 -1.3978
 2596TIP3    H229424   5.361   6.023   7.559 -0.2721 -0.1686 -0.5170
 2597TIP3   OH229425   2.676   0.336   0.708 -0.2469  0.0788 -0.1397
 2597TIP3    H129426   2.595   0.342   0.658  0.1675 -1.0116 -0.9812
 2597TIP3    H229427   2.694   0.426   0.735 -2.4065  0.1796  1.1856
 2598TIP3   OH229428   6.122   5.322   7.257  0.5874 -1.0363 -0.2642
 2598TIP3    H129429   6.060   5.249   7.251  0.6732 -1.1062 -0.3036
 2598TIP3    H229430   6.178   5.298   7.331  1.0696 -1.3553 -0.7350
 2599TIP3   OH229431   5.555   2.089   7.536 -0.2133  0.1076 -0.2039
 2599TIP3    H129432   5.641   2.102   7.495  0.2461  0.6379  0.8603
 2599TIP3    H229433   5.494   2.137   7.480  0.2876  0.2763 -0.6154
 2600TIP3   OH229434   0.594   1.366   2.039  0.1836 -0.2417  0.2851
 2600TIP3    H129435   0.565   1.391   2.127  0.8202  1.7172 -0.0029
 2600TIP3    H229436   0.522   1.315   2.004 -2.2361  2.8603  0.2781
 2601TIP3   OH229437   0.995   2.857   7.548 -0.0147 -0.0259  0.6997
 2601TIP3    H129438   1.052   2.931   7.528  0.5377 -0.2712  1.3301
 2601TIP3    H229439   1.025   2.787   7.490 -1.3013  0.5673 -0.7480
 2602TIP3   OH229440   6.779   6.555   7.796 -0.1652 -0.1979  0.1094
 2602TIP3    H129441   6.734   6.548   7.712  0.8955 -1.2424 -0.3841
 2602TIP3    H229442   6.714   6.596   7.854 -0.7887  0.8903 -1.2884
 2603TIP3   OH229443   6.837   0.572   1.290  0.8105 -0.1104 -0.3356
 2603TIP3    H129444   6.888   0.567   1.371  0.1857 -2.7746  0.0207
 2603TIP3    H229445   6.902   0.581   1.220  1.4589  0.6298  0.3501
 2604TIP3   OH229446   1.412   6.119   8.674  0.1071  0.1895  0.1753
 2604TIP3    H129447   1.402   6.037   8.625 -0.5363  0.4761 -0.1827
 2604TIP3    H229448   1.506   6.125   8.691  0.3298  0.0202 -0.9200
 2605TIP3   OH229449   1.139   3.912   7.798  0.1914  0.1103 -0.0261
 2605TIP3    H129450   1.087   3.938   7.722 -0.7667  0.1009  0.6047
 2605TIP3    H229451   1.132   3.816   7.801 -1.2318  0.2174  1.0521
 2606TIP3   OH229452   0.387   0.936   8.226  0.4245 -0.2608 -0.0442
 2606TIP3    H129453   0.355   0.916   8.138 -0.3717 -0.5049  0.2952
 2606TIP3    H229454   0.312   0.921   8.283  0.8024  0.3576  0.6273
 2607TIP3   OH229455   0.773   0.514   8.713 -0.0476  0.2657 -0.3146
 2607TIP3    H129456   0.837   0.535   8.644  0.5170 -1.3769 -0.3282
 2607TIP3    H229457   0.755   0.421   8.701 -0.8637  0.2345  1.0125
 2608TIP3   OH229458   0.617   4.620   1.616 -0.2667 -0.1792  0.0028
 2608TIP3    H129459   0.560   4.645   1.688 -0.1751  0.1460 -0.0381
 2608TIP3    H229460   0.592   4.677   1.544 -0.5445 -0.6885 -0.3119
 2609TIP3   OH229461   2.743   6.659   1.739 -0.3533  0.0974 -0.4546
 2609TIP3    H129462   2.727   6.617   1.823 -1.5160  1.5419  0.0822
 2609TIP3    H229463   2.798   6.597   1.691  0.3332 -0.7466  1.3575
 2610TIP3   OH229464   5.647   3.232   0.628  0.1346 -0.1205  0.0792
 2610TIP3    H129465   5.619   3.319   0.600 -3.1910 -1.6598 -2.0491
 2610TIP3    H229466   5.683   3.192   0.548 -1.8090 -1.8439 -0.0152
 2611TIP3   OH229467   5.259   3.452   7.539 -0.4709  0.7613 -0.3172
 2611TIP3    H129468   5.196   3.381   7.548 -0.6689  0.8791 -0.7275
 2611TIP3    H229469   5.286   3.472   7.628 -0.8676  0.5741 -0.1534
 2612TIP3   OH229470   6.426   0.053   1.982 -0.0059 -0.2282 -0.3346
 2612TIP3    H129471   6.393  -0.010   2.045 -2.4541  0.1917 -1.0895
 2612TIP3    H229472   6.356   0.119   1.975  0.8586  0.5641 -2.2996
 2613TIP3   OH229473   2.382   6.331   6.689 -0.4640 -0.6205  0.1314
 2613TIP3    H129474   2.434   6.410   6.705 -1.1277 -0.1330 -0.0352
 2613TIP3    H229475   2.345   6.345   6.602  0.7438 -1.8891 -0.6138
 2614TIP3   OH229476   5.893   1.527   7.206 -0.1433  0.2985 -0.0346
 2614TIP3    H129477   5.974   1.531   7.257  0.1083 -0.3844 -0.3569
 2614TIP3    H229478   5.879   1.616   7.175 -0.7836  0.9208  1.9383
 2615TIP3   OH229479   1.944   5.479   1.019 -0.2378  0.2950 -0.2537
 2615TIP3    H129480   2.009   5.426   1.065  0.3096 -0.6784 -2.0224
 2615TIP3    H229481   1.982   5.567   1.016  0.1407  0.1532  0.3324
 2616TIP3   OH229482   2.837   6.611   7.708 -0.3258  0.5890 -0.6638
 2616TIP3    H129483   2.917   6.586   7.755 -1.4233 -0.6021  0.6513
 2616TIP3    H229484   2.844   6.565   7.624  0.7371  1.1602 -0.9033
 2617TIP3   OH229485   4.234   4.197   0.017  0.1289  0.1743 -0.6682
 2617TIP3    H129486   4.278   4.278   0.044 -0.5775  0.1870  0.5045
 2617TIP3    H229487   4.306   4.140  -0.013  0.8004  0.6921 -0.0782
 2618TIP3   OH229488   5.101   1.306   0.798  0.5515  0.3985  0.1526
 2618TIP3    H129489   5.113   1.224   0.846  1.8763  0.5671  0.1584
 2618TIP3    H229490   5.010   1.332   0.815  0.6417 -0.1580  1.5958
 2619TIP3   OH229491   3.954   0.248   8.439  0.1939  0.0062 -0.1767
 2619TIP3    H129492   4.025   0.196   8.475 -1.0874 -0.7979  1.3059
 2619TIP3    H229493   3.878   0.190   8.440 -1.2531  1.7645  1.4007
 2620TIP3   OH229494   5.966   1.640   7.905 -0.0887 -0.1536 -0.1523
 2620TIP3    H129495   6.042   1.680   7.948 -0.1408  0.0050 -0.2107
 2620TIP3    H229496   5.902   1.710   7.898 -0.6266 -0.5222  0.7934
 2621TIP3   OH229497   6.201   2.242   1.246 -0.5317  0.1605  0.4000
 2621TIP3    H129498   6.193   2.335   1.266 -0.0133 -0.0679  1.7991
 2621TIP3    H229499   6.278   2.214   1.294 -1.0577 -1.1321  0.5206
 2622TIP3   OH229500   4.783   0.366   1.682  0.3854 -0.0905 -0.1297
 2622TIP3    H129501   4.719   0.413   1.629 -0.3232 -0.2373  0.5850
 2622TIP3    H229502   4.802   0.426   1.754 -1.2684 -1.2409  1.3408
 2623TIP3   OH229503   4.470   6.791   8.338 -0.2430 -0.0438  0.0040
 2623TIP3    H129504   4.543   6.841   8.299 -0.4427 -0.7631 -1.3420
 2623TIP3    H229505   4.477   6.704   8.299 -0.9154 -0.5881  1.0491
 2624TIP3   OH229506   5.401   6.000   8.383 -0.3757  0.4683  1.1606
 2624TIP3    H129507   5.387   5.919   8.335 -2.2038  0.8779  0.9331
 2624TIP3    H229508   5.397   5.974   8.475  3.4502 -0.3700  1.2531
 2625TIP3   OH229509   1.265   0.830   7.762 -0.6397  0.0423  0.1180
 2625TIP3    H129510   1.243   0.755   7.818 -0.2024 -1.5601 -1.7483
 2625TIP3    H229511   1.205   0.822   7.688 -0.5655  1.5599 -0.1233
 2626TIP3   OH229512   1.735   1.458   1.545 -0.7007  0.3162  0.1949
 2626TIP3    H129513   1.645   1.440   1.570 -1.3362  2.3700 -0.4038
 2626TIP3    H229514   1.755   1.542   1.587  1.3968 -0.6922  1.3889
 2627TIP3   OH229515   6.233   2.681   0.366  0.2411 -0.1790 -0.0778
 2627TIP3    H129516   6.324   2.708   0.354 -0.0683  0.5164 -1.0327
 2627TIP3    H229517   6.224   2.603   0.310  0.4335 -0.6916  0.5933
 2628TIP3   OH229518   3.093   6.496   0.282 -0.1559  0.1098 -0.0127
 2628TIP3    H129519   3.159   6.538   0.338 -2.0111  2.4810  0.5514
 2628TIP3    H229520   3.144   6.459   0.210  1.8679  1.0962  0.8212
 2629TIP3   OH229521   1.405   1.197   0.943 -0.0551 -0.1306 -0.0351
 2629TIP3    H129522   1.314   1.168   0.947 -0.1131 -0.0094 -0.4022
 2629TIP3    H229523   1.428   1.188   0.850  0.7481 -1.5092  0.2703
 2630TIP3   OH229524   0.339   6.148   8.649 -0.6062 -0.0264 -0.2476
 2630TIP3    H129525   0.276   6.096   8.699 -1.7598  1.5964  0.0767
 2630TIP3    H229526   0.285   6.200   8.589  0.6803 -1.5590 -2.9494
 2631TIP3   OH229527   4.639   3.707   2.354  0.3790 -0.2090 -0.3454
 2631TIP3    H129528   4.632   3.617   2.387  0.7041 -1.1857 -2.7804
 2631TIP3    H229529   4.549   3.740   2.356  0.2414 -0.6008  0.4610
 2632TIP3   OH229530   3.732   3.835   2.644  0.4990 -0.1025 -0.1420
 2632TIP3    H129531   3.723   3.756   2.696  2.1883 -0.2764 -0.0460
 2632TIP3    H229532   3.657   3.889   2.668  0.1042 -1.0701  0.8665
 2633TIP3   OH229533   2.273   6.483   2.669 -0.5326 -0.3785  0.4834
 2633TIP3    H129534   2.335   6.410   2.661  0.0089  0.2110 -1.1014
 2633TIP3    H229535   2.189   6.446   2.645 -0.5586 -0.8526  1.2734
 2634TIP3   OH229536   6.202   2.614   1.777  0.0879  0.2060  0.0989
 2634TIP3    H129537   6.234   2.547   1.716 -0.8600  1.2150 -1.5972
 2634TIP3    H229538   6.196   2.694   1.724 -0.6468  1.1697  1.5633
 2635TIP3   OH229539   0.436   4.664   8.483 -0.0253 -0.1062 -0.9050
 2635TIP3    H129540   0.372   4.716   8.434 -1.2353 -0.3603  0.3505
 2635TIP3    H229541   0.466   4.723   8.552 -0.1153 -0.5217 -0.5123
 2636TIP3   OH229542   2.396   3.371   8.012  0.9178  0.2847 -0.4822
 2636TIP3    H129543   2.366   3.431   8.080  0.9153  0.8026 -0.9301
 2636TIP3    H229544   2.491   3.372   8.019  0.8826 -1.2079  0.8116
 2637TIP3   OH229545   3.429   1.081   7.885  0.4952 -0.5169 -0.4054
 2637TIP3    H129546   3.492   1.048   7.821  2.6045 -2.4134  2.4035
 2637TIP3    H229547   3.461   1.169   7.907 -0.2909  0.1834 -1.8831
 2638TIP3   OH229548   5.518   0.197   8.596  0.1548  0.3044  0.0805
 2638TIP3    H129549   5.476   0.256   8.659  0.9112  0.0915  0.8105
 2638TIP3    H229550   5.584   0.151   8.648  0.5619 -0.1248 -0.8052
 2639TIP3   OH229551   3.251   1.166   7.309 -0.0580  0.5043  0.0058
 2639TIP3    H129552   3.188   1.114   7.358  1.2828 -1.4462 -0.2255
 2639TIP3    H229553   3.334   1.151   7.353  0.7429  0.7315 -1.3551
 2640TIP3   OH229554   0.366   3.532   0.458  0.3575 -0.0335 -0.3209
 2640TIP3    H129555   0.398   3.474   0.527 -2.0647 -0.8526  0.2439
 2640TIP3    H229556   0.310   3.476   0.404 -0.2966  1.2843 -1.0627
 2641TIP3   OH229557   5.351   1.242   7.564 -0.3032  0.3165  0.1357
 2641TIP3    H129558   5.360   1.158   7.520 -2.0019 -0.2290  0.7749
 2641TIP3    H229559   5.290   1.292   7.509  0.2613  0.9450  0.0549
 2642TIP3   OH229560   4.147   2.864   0.233  0.4692  0.1619 -0.2626
 2642TIP3    H129561   4.148   2.935   0.169  3.1242  0.2867 -0.2079
 2642TIP3    H229562   4.151   2.784   0.180 -2.1350 -0.0214 -0.3113
 2643TIP3   OH229563   0.336   0.384   1.575  0.3985  0.7479 -0.5237
 2643TIP3    H129564   0.363   0.299   1.540 -0.5959  0.5801 -0.9224
 2643TIP3    H229565   0.393   0.399   1.650 -0.9477 -1.3909  1.0238
 2644TIP3   OH229566   2.854   3.019   1.007  0.1740 -0.8857 -0.4268
 2644TIP3    H129567   2.808   2.973   0.937 -0.9932 -0.8384  0.2712
 2644TIP3    H229568   2.946   3.018   0.981 -0.2881 -0.3386 -2.2605
 2645TIP3   OH229569   5.133   3.758   1.034 -0.1369 -0.2071  0.1226
 2645TIP3    H129570   5.055   3.736   1.084 -0.5323  0.1579 -0.3325
 2645TIP3    H229571   5.192   3.799   1.098 -0.7605  0.5411  0.2270
 2646TIP3   OH229572   5.026   0.891   8.366 -0.1381  0.0828 -0.1638
 2646TIP3    H129573   5.072   0.827   8.420  0.2637 -0.6161 -1.2849
 2646TIP3    H229574   5.017   0.968   8.422  0.3638 -0.5674  0.8429
 2647TIP3   OH229575   2.007   2.837   1.165 -0.4742 -0.6303 -0.2339
 2647TIP3    H129576   2.064   2.836   1.088 -0.3271 -3.2406 -0.1839
 2647TIP3    H229577   1.919   2.826   1.130 -0.3348 -2.6413 -0.0513
 2648TIP3   OH229578   1.426   2.375   7.961  0.1197 -0.2229  0.5087
 2648TIP3    H129579   1.384   2.457   7.988  0.9946  0.2819  0.3611
 2648TIP3    H229580   1.485   2.354   8.032 -0.4157 -0.9702  0.7416
 2649TIP3   OH229581   0.070   1.185   8.299  0.9613 -0.3255  0.5018
 2649TIP3    H129582   0.026   1.154   8.377  0.0943 -1.5186 -0.4289
 2649TIP3    H229583   0.158   1.147   8.304  0.2727 -2.0853 -0.0663
 2650TIP3   OH229584   1.611   3.575   6.860 -0.1817  0.6357 -0.1814
 2650TIP3    H129585   1.524   3.608   6.835 -1.1301 -0.5829  1.3272
 2650TIP3    H229586   1.646   3.536   6.780 -0.5194  2.1319 -1.0974
 2651TIP3   OH229587   3.469   6.248   8.570  0.0062  0.1231  0.6887
 2651TIP3    H129588   3.504   6.260   8.659  0.7526  0.0656  0.4130
 2651TIP3    H229589   3.438   6.157   8.569 -2.0500  0.7491  1.5602
 2652TIP3   OH229590   1.137   1.175   7.448 -0.1707 -0.2947  0.4118
 2652TIP3    H129591   1.072   1.167   7.517  0.0567  2.3925  1.0589
 2652TIP3    H229592   1.220   1.188   7.493 -0.4335  4.8692 -0.0233
 2653TIP3   OH229593   3.842   4.367   1.297  0.5468  0.9772 -0.2373
 2653TIP3    H129594   3.778   4.307   1.260  0.2941  0.9601  0.2228
 2653TIP3    H229595   3.791   4.445   1.320  0.4323  0.5012  1.2841
 2654TIP3   OH229596   2.300   5.288   1.694 -0.1145 -0.1237 -0.0510
 2654TIP3    H129597   2.311   5.367   1.641  0.5776  0.9675  1.6245
 2654TIP3    H229598   2.360   5.224   1.655  2.6541  1.5850  1.0670
 2655TIP3   OH229599   1.620   1.617   8.387  0.1281 -0.0023  0.0337
 2655TIP3    H129600   1.632   1.529   8.421 -1.6102  0.6819  2.6282
 2655TIP3    H229601   1.706   1.658   8.396  0.5789 -0.9609  0.1829
 2656TIP3   OH229602   1.589   4.088   0.090  0.1158 -0.2233  1.1653
 2656TIP3    H129603   1.548   4.003   0.103  1.0777 -0.7078  1.1315
 2656TIP3    H229604   1.653   4.095   0.160 -0.2412  0.6622  1.4129
 2657TIP3   OH229605   4.407   6.066   7.421  0.2375 -0.0535 -0.2860
 2657TIP3    H129606   4.446   6.027   7.343 -0.7708  0.5104 -1.1030
 2657TIP3    H229607   4.476   6.121   7.457  1.2056 -1.4695  0.0870
 2658TIP3   OH229608   4.749   0.584   7.339  0.2461 -0.3390  0.5359
 2658TIP3    H129609   4.780   0.504   7.295  1.3369  0.5668 -0.4052
 2658TIP3    H229610   4.736   0.646   7.268  0.1024  0.5472  1.3258
 2659TIP3   OH229611   2.106   6.200   7.255 -0.5091 -0.2992 -0.6073
 2659TIP3    H129612   2.082   6.114   7.288 -0.0255 -0.4937 -0.7643
 2659TIP3    H229613   2.024   6.237   7.222 -0.8458 -0.4234  0.0714
 2660TIP3   OH229614   5.395   5.361   7.763  0.2014  0.4383  0.5116
 2660TIP3    H129615   5.447   5.353   7.843  1.7746 -1.7038 -0.6354
 2660TIP3    H229616   5.460   5.373   7.693 -0.7768 -2.0893 -0.9481
 2661TIP3   OH229617   1.992   6.490   7.954 -0.1588 -0.2733 -0.1767
 2661TIP3    H129618   2.017   6.504   8.046  0.4141 -0.8434 -0.2348
 2661TIP3    H229619   1.927   6.421   7.958 -1.3777  0.8460 -0.0723
 2662TIP3   OH229620   4.058   3.536   8.092 -0.3091 -0.3279 -0.1638
 2662TIP3    H129621   4.012   3.588   8.158 -0.8093  0.3613 -1.0294
 2662TIP3    H229622   4.047   3.445   8.120 -1.4509 -0.1119  0.1289
 2663TIP3   OH229623   3.641   5.404   0.127  0.3328 -0.2589  0.0566
 2663TIP3    H129624   3.594   5.373   0.205  0.8092 -0.3897  0.2982
 2663TIP3    H229625   3.653   5.498   0.142 -0.6802 -0.0351 -0.4483
 2664TIP3   OH229626   3.479   4.126   0.102 -0.0057  0.1272  0.0459
 2664TIP3    H129627   3.437   4.093   0.182 -0.1627  0.7237  0.2176
 2664TIP3    H229628   3.419   4.192   0.069  0.0516 -0.1312 -0.5858
 2665TIP3   OH229629   4.841   1.859   7.161 -0.0939 -0.3112  0.9163
 2665TIP3    H129630   4.811   1.875   7.250 -0.4864 -1.9415  1.1142
 2665TIP3    H229631   4.883   1.773   7.165  0.0206 -0.3450 -0.4398
 2666TIP3   OH229632   3.415   2.298   8.271  0.0078 -0.6016 -0.8584
 2666TIP3    H129633   3.485   2.289   8.206  0.2730  0.3879 -0.7278
 2666TIP3    H229634   3.349   2.352   8.228 -0.2956 -0.8305 -0.6808
 2667TIP3   OH229635   2.328   5.769   8.810 -0.4989 -0.6541 -0.3250
 2667TIP3    H129636   2.350   5.706   8.741  0.3287  1.8271 -2.5279
 2667TIP3    H229637   2.243   5.804   8.784  0.1139  0.7672 -0.5005
 2668TIP3   OH229638   4.092   4.379   1.833 -0.0052 -0.2049  0.4192
 2668TIP3    H129639   4.001   4.362   1.853 -0.5160 -0.9136 -2.0903
 2668TIP3    H229640   4.140   4.303   1.865 -0.5064 -0.4799  0.5119
 2669TIP3   OH229641   4.762   2.487   7.767  0.0225 -0.3183  0.2066
 2669TIP3    H129642   4.802   2.410   7.728  2.5832  1.4816 -0.9601
 2669TIP3    H229643   4.829   2.523   7.824 -0.5701  1.7805 -0.3419
 2670TIP3   OH229644   6.725   5.588   1.393 -0.1930 -0.1532  0.0185
 2670TIP3    H129645   6.793   5.559   1.332  0.2336 -2.3958  1.4251
 2670TIP3    H229646   6.643   5.573   1.346  0.1788 -0.0726 -0.6762
 2671TIP3   OH229647   1.786   5.232   1.665  0.1842 -0.3010  0.3268
 2671TIP3    H129648   1.875   5.201   1.679  0.3904  0.2281  0.1705
 2671TIP3    H229649   1.761   5.195   1.580  0.5714  0.2801 -0.0442
 2672TIP3   OH229650   2.625   3.843   6.909 -0.0990  0.2488 -0.4526
 2672TIP3    H129651   2.543   3.822   6.865  0.8268 -1.1480 -1.6275
 2672TIP3    H229652   2.600   3.873   6.996 -1.9738  2.1655 -1.5664
 2673TIP3   OH229653   2.621   3.410   0.441  0.4695 -0.0633 -0.0021
 2673TIP3    H129654   2.580   3.353   0.377  0.7572  0.0836 -0.3218
 2673TIP3    H229655   2.697   3.448   0.395 -0.0128  0.9812  0.0234
 2674TIP3   OH229656   0.407   4.446   1.983  0.1222 -0.6620  0.1718
 2674TIP3    H129657   0.401   4.485   1.896 -0.6966 -1.1250  0.0004
 2674TIP3    H229658   0.364   4.509   2.040  0.7217 -0.3260  0.2560
 2675TIP3   OH229659   5.404   0.315   1.822 -0.6580 -0.1359 -0.3021
 2675TIP3    H129660   5.452   0.235   1.802 -0.3506 -0.1809  0.5722
 2675TIP3    H229661   5.465   0.386   1.800 -0.0547 -0.1978  1.0701
 2676TIP3   OH229662   5.856   1.232   1.466  0.3733 -0.3805 -0.4632
 2676TIP3    H129663   5.813   1.234   1.552 -0.3072  1.5988 -0.8002
 2676TIP3    H229664   5.872   1.324   1.445 -0.2556 -0.7317 -2.8272
 2677TIP3   OH229665   1.352   5.028   1.961 -0.1658  0.0274 -0.0683
 2677TIP3    H129666   1.389   4.939   1.953  0.8798  0.3052  1.2299
 2677TIP3    H229667   1.357   5.064   1.872  0.3021 -0.8838 -0.4293
 2678TIP3   OH229668   4.203   3.933   8.237 -0.2241 -0.4415 -0.5042
 2678TIP3    H129669   4.273   3.995   8.259  0.4861 -1.6316  0.7978
 2678TIP3    H229670   4.237   3.883   8.163 -0.1158 -0.3466 -0.5184
 2679TIP3   OH229671   6.701   1.747   2.182 -0.4984  0.7858  0.0199
 2679TIP3    H129672   6.642   1.814   2.148  0.0125 -0.4195 -3.7419
 2679TIP3    H229673   6.743   1.711   2.104  1.8288 -1.5401  2.1654
 2680TIP3   OH229674   3.915   2.408   2.393 -0.0579 -0.1952 -0.7220
 2680TIP3    H129675   3.858   2.479   2.423 -0.9866 -0.7013 -1.2258
 2680TIP3    H229676   3.923   2.350   2.469 -1.2902 -0.7790 -1.0106
 2681TIP3   OH229677   2.016   0.819   1.068 -0.0490  0.1391 -0.1746
 2681TIP3    H129678   2.056   0.838   0.983  2.4093 -0.8549  0.6916
 2681TIP3    H229679   1.958   0.745   1.051 -0.0291  0.3287 -1.0996
 2682TIP3   OH229680   2.372   0.714   2.071 -0.0790  0.4694  0.3520
 2682TIP3    H129681   2.340   0.665   2.147  1.6935 -0.4485  0.5460
 2682TIP3    H229682   2.427   0.652   2.023 -1.6617  0.8251 -2.0846
 2683TIP3   OH229683   2.457   4.250   2.350 -0.7384 -0.2900 -0.2174
 2683TIP3    H129684   2.441   4.156   2.343  1.7775 -0.8366  0.3076
 2683TIP3    H229685   2.416   4.275   2.433 -2.0357 -0.7376 -0.6993
 2684TIP3   OH229686   2.601   6.410   0.856  0.0423 -0.0415  0.4340
 2684TIP3    H129687   2.640   6.489   0.818 -0.3633  0.6728  1.4242
 2684TIP3    H229688   2.511   6.436   0.878  0.0661 -0.6083  1.2635
 2685TIP3   OH229689   2.972   6.319   1.218 -0.2779 -0.5431 -0.5432
 2685TIP3    H129690   3.026   6.309   1.140  0.4206  2.6533 -0.6374
 2685TIP3    H229691   2.893   6.365   1.187 -0.4205 -0.0780  0.4572
 2686TIP3   OH229692   1.031   4.382   0.062 -0.3081 -0.6027 -0.0854
 2686TIP3    H129693   1.094   4.400   0.132  0.0912 -0.6306 -0.4404
 2686TIP3    H229694   0.954   4.349   0.109 -0.7102  1.0706  0.5019
 2687TIP3   OH229695   3.656   3.123   1.907  0.5333 -0.0016 -0.0288
 2687TIP3    H129696   3.567   3.152   1.928  1.3191  1.1948  2.0552
 2687TIP3    H229697   3.668   3.043   1.957  0.9395  0.4151  0.5671
 2688TIP3   OH229698   0.197   1.771   2.243  0.4962  0.6220  0.4901
 2688TIP3    H129699   0.285   1.807   2.237  0.7129  0.2719  1.4007
 2688TIP3    H229700   0.209   1.676   2.249  0.1279  0.6308  1.6324
 2689TIP3   OH229701   1.090   3.662   0.915  0.3248  0.1491 -1.0361
 2689TIP3    H129702   1.128   3.596   0.857 -0.5267  1.2505 -2.9117
 2689TIP3    H229703   0.996   3.646   0.912  0.2525  0.3214 -0.0461
 2690TIP3   OH229704   4.345   0.316   0.306  0.0135  0.3472  0.6543
 2690TIP3    H129705   4.363   0.359   0.223 -3.0832  0.3795 -0.1313
 2690TIP3    H229706   4.337   0.224   0.284  0.0290  0.2417  1.0838
 2691TIP3   OH229707   1.264   0.020   8.601 -0.5715  0.1936 -0.3465
 2691TIP3    H129708   1.198  -0.049   8.614 -1.4171  0.8231 -1.1122
 2691TIP3    H229709   1.280   0.020   8.507 -0.2329  0.7323 -0.2928
 2692TIP3   OH229710   0.776   2.873   1.299  0.4774  0.2609  0.9699
 2692TIP3    H129711   0.730   2.810   1.354 -1.0678 -0.8754 -1.4062
 2692TIP3    H229712   0.724   2.953   1.304 -0.3548 -0.2192  0.2858
 2693TIP3   OH229713   5.097   0.255   8.306 -0.1267  0.1910 -0.2654
 2693TIP3    H129714   5.105   0.243   8.211 -1.3386  1.5897 -0.5834
 2693TIP3    H229715   5.184   0.283   8.333  0.1024  0.3025 -1.0704
 2694TIP3   OH229716   1.243   1.811   7.308 -0.4948 -0.0984  0.2190
 2694TIP3    H129717   1.164   1.774   7.270 -0.3526 -0.8772  0.6461
 2694TIP3    H229718   1.235   1.793   7.402  0.2889 -0.4039  0.2392
 2695TIP3   OH229719   2.757   0.019   0.645  0.5859 -0.5105  0.1588
 2695TIP3    H129720   2.721   0.100   0.681  1.2292 -0.2275  0.1798
 2695TIP3    H229721   2.819   0.048   0.578 -0.3250 -1.0267 -0.9434
 2696TIP3   OH229722   3.178   1.181   1.928 -0.2600 -0.3960 -0.9469
 2696TIP3    H129723   3.223   1.108   1.971  1.6150  1.2170  0.0202
 2696TIP3    H229724   3.101   1.197   1.982  0.6254 -0.1374  0.2912
 2697TIP3   OH229725   6.746   2.117   1.736  0.5420  0.0502  0.3042
 2697TIP3    H129726   6.695   2.036   1.739  1.1142 -0.3780 -0.7994
 2697TIP3    H229727   6.721   2.165   1.815 -1.4103 -0.2389 -0.0986
 2698TIP3   OH229728   2.552   0.310   8.172  0.1395  0.1244 -0.5055
 2698TIP3    H129729   2.556   0.406   8.163 -0.1657  0.0362 -1.8805
 2698TIP3    H229730   2.643   0.284   8.186  0.1040  0.6839  0.8893
 2699TIP3   OH229731   4.711   3.106   6.956  0.1384 -0.2750 -0.2478
 2699TIP3    H129732   4.768   3.179   6.981  1.0066 -0.9770 -0.1114
 2699TIP3    H229733   4.700   3.115   6.862  0.5184 -0.1527 -0.2837
 2700TIP3   OH229734   5.147   4.570   7.160 -0.5522 -0.2024  0.5998
 2700TIP3    H129735   5.234   4.531   7.150 -0.3548  0.7234 -3.0329
 2700TIP3    H229736   5.090   4.496   7.180  0.7423 -1.2605  0.5470
 2701TIP3   OH229737   4.982   3.360   8.669 -0.4085  0.1046  0.4492
 2701TIP3    H129738   4.894   3.325   8.685 -0.3696 -0.0316  0.3689
 2701TIP3    H229739   4.972   3.455   8.678 -0.5679  0.0911  0.4186
 2702TIP3   OH229740   4.193   4.539   0.922 -0.3569 -0.1414  0.0763
 2702TIP3    H129741   4.277   4.582   0.938 -0.8103  1.2031 -0.9775
 2702TIP3    H229742   4.182   4.479   0.996  0.3573  1.4937  1.5714
 2703TIP3   OH229743   6.378   5.000   7.545 -0.2585 -0.6185 -0.3512
 2703TIP3    H129744   6.319   4.942   7.592  0.1677 -0.7555  0.0165
 2703TIP3    H229745   6.436   4.942   7.496 -0.2571 -0.4912 -0.5041
 2704TIP3   OH229746   6.312   1.791   7.926 -0.2972 -0.0676 -0.0712
 2704TIP3    H129747   6.349   1.864   7.877 -0.7915  0.0083 -0.3368
 2704TIP3    H229748   6.298   1.723   7.860 -2.9199  0.7583 -0.4841
 2705TIP3   OH229749   4.381   2.871   0.369 -0.5063  0.2156 -0.2286
 2705TIP3    H129750   4.308   2.908   0.320 -0.7194 -0.6625 -0.5959
 2705TIP3    H229751   4.412   2.798   0.314 -0.6912 -0.7295  0.8720
 2706TIP3   OH229752   2.199   1.033   6.799 -0.0278  0.1978 -0.3157
 2706TIP3    H129753   2.113   1.029   6.759  1.2567 -0.5480 -3.2449
 2706TIP3    H229754   2.182   1.023   6.893 -3.0443 -0.6979 -0.8497
 2707TIP3   OH229755   3.898   5.358   8.726 -0.2143 -0.3790  0.1636
 2707TIP3    H129756   3.892   5.377   8.820  0.6936 -0.0596  0.1649
 2707TIP3    H229757   3.808   5.339   8.700 -0.6395  0.5621  0.8820
 2708TIP3   OH229758   2.312   4.942   8.012  0.5333  0.0795  0.5129
 2708TIP3    H129759   2.311   5.024   8.061 -1.0104 -0.1859  0.9912
 2708TIP3    H229760   2.316   4.968   7.920  0.0478  0.6957  0.6634
 2709TIP3   OH229761   5.114   1.421   8.551  0.4587 -0.2830  0.3343
 2709TIP3    H129762   5.209   1.433   8.552  0.1662  2.6696 -0.1052
 2709TIP3    H229763   5.094   1.400   8.460  0.5276  0.8501  0.0522
 2710TIP3   OH229764   0.006   2.251   0.846  0.1114 -0.0701 -0.3260
 2710TIP3    H129765   0.101   2.267   0.846  0.2710 -0.0764  3.7207
 2710TIP3    H229766  -0.032   2.335   0.823  1.0234 -0.0529 -1.9547
 2711TIP3   OH229767   1.471   5.001   1.199 -0.3187  0.2692 -0.1015
 2711TIP3    H129768   1.451   4.975   1.289  0.0764  0.0001 -0.0929
 2711TIP3    H229769   1.485   4.919   1.152  0.4870  0.4435 -0.1764
 2712TIP3   OH229770   4.631   0.442   0.564  0.4726  0.3741 -0.8900
 2712TIP3    H129771   4.712   0.492   0.572  1.4973 -1.2112 -1.0256
 2712TIP3    H229772   4.646   0.383   0.490 -0.3705 -0.7015 -0.2286
 2713TIP3   OH229773   3.265   2.896   0.645  0.3612 -0.2559 -0.1846
 2713TIP3    H129774   3.291   2.900   0.553 -1.1003  0.2517 -0.6062
 2713TIP3    H229775   3.177   2.933   0.646  0.2640 -0.4817  1.3917
 2714TIP3   OH229776   0.561   2.308   7.616 -0.9175 -0.4107 -0.1975
 2714TIP3    H129777   0.565   2.239   7.682  0.9692 -0.5205 -0.3581
 2714TIP3    H229778   0.637   2.291   7.559 -0.6296  1.5459 -0.4731
 2715TIP3   OH229779   0.992   6.366   7.572 -1.1481  0.3097  0.0100
 2715TIP3    H129780   1.019   6.295   7.630  0.2914  0.2142 -0.7306
 2715TIP3    H229781   1.074   6.402   7.539 -1.9209  0.4687 -1.8417
 2716TIP3   OH229782   3.959   4.263   8.793  0.5727 -0.8210  0.2153
 2716TIP3    H129783   4.050   4.237   8.809 -0.2842 -4.4597  0.0746
 2716TIP3    H229784   3.910   4.227   8.867 -0.8017  1.1529  0.3354
 2717TIP3   OH229785   2.159   6.128   1.595 -0.3173 -0.1083 -0.0182
 2717TIP3    H129786   2.250   6.122   1.625 -0.2904  0.8521  0.1084
 2717TIP3    H229787   2.138   6.221   1.598 -2.0802 -0.4936  2.2034
 2718TIP3   OH229788   0.468   2.950   8.166 -0.3198  0.8291  0.1447
 2718TIP3    H129789   0.407   2.883   8.196 -0.8432  1.5902  0.8271
 2718TIP3    H229790   0.510   2.912   8.089 -0.5609 -0.2944  0.5573
 2719TIP3   OH229791   2.649   4.996   1.933 -0.0822 -0.3856  0.0719
 2719TIP3    H129792   2.730   5.006   1.984 -0.1501  0.1115  0.0917
 2719TIP3    H229793   2.611   4.913   1.963  0.3180 -0.5226  0.2053
 2720TIP3   OH229794   6.716   2.379   7.732  0.1682  0.3722  0.3361
 2720TIP3    H129795   6.699   2.360   7.640  1.5785  1.1222 -0.1027
 2720TIP3    H229796   6.725   2.474   7.735 -3.3302  0.8026  1.8824
 2721TIP3   OH229797   2.896   1.753   7.458  0.4700  0.0191 -0.1909
 2721TIP3    H129798   2.940   1.773   7.541  0.3127 -1.3627  0.2608
 2721TIP3    H229799   2.804   1.742   7.483  0.0857  1.4939 -0.8869
 2722TIP3   OH229800   1.867   4.035   2.667  0.1801 -0.2993  0.4032
 2722TIP3    H129801   1.940   4.041   2.605 -0.3096 -1.7428 -0.3585
 2722TIP3    H229802   1.897   3.972   2.733  0.8484  1.5031  1.9088
 2723TIP3   OH229803   1.019   3.800   8.231 -0.2102  0.1724 -0.1324
 2723TIP3    H129804   0.946   3.833   8.284 -0.6680  1.3001 -1.4066
 2723TIP3    H229805   1.011   3.705   8.235 -2.8204  0.2552 -1.6385
 2724TIP3   OH229806   6.443   4.294   0.856 -0.4574 -0.0434 -0.3225
 2724TIP3    H129807   6.377   4.359   0.880 -0.7552  0.0354 -1.3043
 2724TIP3    H229808   6.447   4.235   0.932 -1.1261  0.3693  0.0458
 2725TIP3   OH229809   2.837   4.307   7.886  0.6800 -0.3064 -0.9978
 2725TIP3    H129810   2.892   4.242   7.930  0.0644 -0.0062  0.2678
 2725TIP3    H229811   2.747   4.283   7.910  0.4917  1.8099  0.6972
 2726TIP3   OH229812   5.760   5.995   1.402  0.0990  0.0226 -0.5265
 2726TIP3    H129813   5.737   6.087   1.410  1.4829  0.3198  0.4151
 2726TIP3    H229814   5.854   5.992   1.418  0.1571 -1.5015 -0.9865
 2727TIP3   OH229815   0.541   0.983   6.737  0.0071  0.7936 -0.7735
 2727TIP3    H129816   0.472   0.917   6.728  1.2767 -0.5231 -1.0720
 2727TIP3    H229817   0.620   0.940   6.706  1.3773  1.5966  1.3948
 2728TIP3   OH229818   6.058   2.369   6.846  0.1323 -0.6603 -0.3284
 2728TIP3    H129819   6.028   2.420   6.771  0.1187 -1.5022 -0.9116
 2728TIP3    H229820   6.006   2.288   6.842 -1.3090  0.0970  1.7627
 2729TIP3   OH229821   0.831   0.170   2.135  0.5682  0.7508  0.1628
 2729TIP3    H129822   0.742   0.203   2.144 -0.6870 -2.1828 -0.1377
 2729TIP3    H229823   0.881   0.242   2.097 -2.2631  1.7470 -1.9655
 2730TIP3   OH229824   3.496   2.723   7.226  0.3036 -0.0707  0.1360
 2730TIP3    H129825   3.461   2.812   7.231  0.6311  0.2705 -2.4428
 2730TIP3    H229826   3.528   2.714   7.137 -0.4944 -3.0892  0.0393
 2731TIP3   OH229827   1.774   3.636   0.891 -0.3919  0.4963 -0.1612
 2731TIP3    H129828   1.786   3.722   0.850 -0.4397  0.1201 -0.9782
 2731TIP3    H229829   1.682   3.615   0.876 -0.1034 -0.2134 -1.0074
 2732TIP3   OH229830   4.434   3.963   1.165 -0.5028  0.0015  0.2306
 2732TIP3    H129831   4.527   3.966   1.143 -0.4134  0.2264  0.6247
 2732TIP3    H229832   4.391   3.939   1.083 -0.0874 -0.2386  0.0771
 2733TIP3   OH229833   3.812   1.349   7.355 -0.3403  0.5294  0.6320
 2733TIP3    H129834   3.864   1.269   7.346 -2.2686 -0.8669  1.1451
 2733TIP3    H229835   3.876   1.420   7.354  1.7890 -1.1701  3.2523
 2734TIP3   OH229836   2.835   6.800   8.388  0.0050  0.2599 -0.9419
 2734TIP3    H129837   2.902   6.812   8.456  1.3100 -1.5631 -1.8143
 2734TIP3    H229838   2.883   6.813   8.305 -1.3199  1.4162 -1.5711
 2735TIP3   OH229839   1.765   2.951   7.384 -0.2579  0.4208  0.5058
 2735TIP3    H129840   1.788   2.907   7.466 -1.0838  0.4164  0.7417
 2735TIP3    H229841   1.840   3.008   7.366  1.0209 -1.3192 -0.0066
 2736TIP3   OH229842   6.473   3.954   0.712  0.0220 -0.4627 -0.5739
 2736TIP3    H129843   6.507   4.010   0.641  3.1334  0.7739  1.6581
 2736TIP3    H229844   6.549   3.903   0.740 -0.9312 -0.4695  2.2282
 2737TIP3   OH229845   5.319   6.436   0.548  0.0074  0.6501  0.2181
 2737TIP3    H129846   5.410   6.418   0.571 -0.0674 -0.9086 -0.6357
 2737TIP3    H229847   5.324   6.509   0.487  0.8671 -0.6897 -1.3742
 2738TIP3   OH229848   6.080   1.224   7.878 -0.5748 -0.8025 -0.3560
 2738TIP3    H129849   6.066   1.133   7.904  2.1648 -1.3110 -0.3429
 2738TIP3    H229850   6.074   1.223   7.783 -1.9983 -0.6630 -0.2892
 2739TIP3   OH229851   3.805   0.239   7.150 -0.5682 -0.1812  0.1206
 2739TIP3    H129852   3.829   0.195   7.068  1.6443  2.7085 -0.9147
 2739TIP3    H229853   3.741   0.305   7.124  0.2176  0.8213  0.7002
 2740TIP3   OH229854   3.510   1.052   1.902  0.4520 -0.2198  0.0524
 2740TIP3    H129855   3.428   1.020   1.940  1.2636 -2.9205 -0.2620
 2740TIP3    H229856   3.564   1.073   1.978 -0.7481  2.5008  0.2753
 2741TIP3   OH229857   2.637   0.566   6.153 -0.0156 -0.0601  0.0743
 2741TIP3    H129858   2.578   0.558   6.079  0.6709  1.0583 -0.6282
 2741TIP3    H229859   2.711   0.509   6.132  0.3968  0.6165 -0.3374
 2742TIP3   OH229860   3.937   2.513   7.125 -0.2295  0.1655 -0.4890
 2742TIP3    H129861   3.886   2.466   7.059 -0.1771 -1.3615  0.5044
 2742TIP3    H229862   3.945   2.602   7.091  0.1693 -0.6756 -2.7390
 2743TIP3   OH229863   2.613   3.230   1.638 -0.0154 -0.3351  0.2415
 2743TIP3    H129864   2.631   3.164   1.571 -0.2689  0.4717 -0.6524
 2743TIP3    H229865   2.602   3.311   1.588  1.7145  0.6809  1.4015
 2744TIP3   OH229866   6.271   2.012   0.582 -0.2494 -0.1417 -0.4553
 2744TIP3    H129867   6.267   1.964   0.499 -1.0967 -0.4545 -0.2447
 2744TIP3    H229868   6.258   2.104   0.557 -1.4286 -0.3269 -0.6012
 2745TIP3   OH229869   0.993   1.441   0.727 -0.7812 -0.0523 -0.2288
 2745TIP3    H129870   0.928   1.387   0.683 -2.3703  1.3444  0.2505
 2745TIP3    H229871   1.053   1.469   0.658 -1.2194 -0.6467 -0.8610
 2746TIP3   OH229872   6.717   6.511   8.220 -0.0803  0.0985  0.4071
 2746TIP3    H129873   6.686   6.488   8.307 -0.9304  0.1918  0.1367
 2746TIP3    H229874   6.798   6.560   8.235 -1.2590  1.9164  1.2633
 2747TIP3   OH229875   3.755   3.283   1.039 -0.2348  0.4833  0.7966
 2747TIP3    H129876   3.792   3.196   1.057 -0.2026  0.2336 -0.4209
 2747TIP3    H229877   3.693   3.297   1.111  0.8753  0.1276  1.8508
 2748TIP3   OH229878   4.376   2.060   6.398 -0.0344  0.0999 -0.1698
 2748TIP3    H129879   4.388   1.999   6.470 -2.8145  0.0665  0.3864
 2748TIP3    H229880   4.459   2.058   6.350  1.2207 -1.2967  1.9269
 2749TIP3   OH229881   5.008   0.820   8.783 -0.0864 -0.3015  0.6099
 2749TIP3    H129882   4.959   0.763   8.723 -1.1709  1.3718 -0.1854
 2749TIP3    H229883   5.037   0.892   8.727  2.7983 -0.8826  1.1999
 2750TIP3   OH229884   4.100   3.443   2.235  0.0267  0.4450 -0.0022
 2750TIP3    H129885   4.089   3.522   2.182  0.0584 -0.8504 -2.0854
 2750TIP3    H229886   4.011   3.411   2.250 -0.1506  1.8957  2.6559
 2751TIP3   OH229887   4.798   2.112   1.963 -0.6310  0.2268  0.5988
 2751TIP3    H129888   4.736   2.041   1.973 -0.5505 -0.1775 -1.4018
 2751TIP3    H229889   4.884   2.070   1.964 -0.5154  0.4614  0.7077
 2752TIP3   OH229890   4.004   2.614   6.652  0.0880 -0.3156 -0.0487
 2752TIP3    H129891   3.998   2.531   6.605 -2.9408 -1.4028  1.9573
 2752TIP3    H229892   4.084   2.607   6.704  1.6699 -0.4649 -2.3572
 2753TIP3   OH229893   2.889   0.063   7.322 -0.4068  0.2025 -0.2294
 2753TIP3    H129894   2.869   0.033   7.411 -0.0095  0.6212  0.0098
 2753TIP3    H229895   2.818   0.029   7.268 -0.9739  0.4520  0.3531
 2754TIP3   OH229896   3.187   5.283   8.353 -0.0035 -0.1170  0.7354
 2754TIP3    H129897   3.245   5.225   8.403  0.0314 -0.4341  0.3306
 2754TIP3    H229898   3.126   5.318   8.418 -1.1072 -1.9024  0.7342
 2755TIP3   OH229899   5.112   2.133   8.095 -0.2892  0.9528 -0.0497
 2755TIP3    H129900   5.177   2.176   8.040 -0.6431  0.8777 -0.5314
 2755TIP3    H229901   5.052   2.203   8.121 -0.6171  0.8387 -0.4790
 2756TIP3   OH229902   1.826   0.077   2.332 -0.3335 -0.5158 -0.5029
 2756TIP3    H129903   1.871   0.044   2.409 -1.6718 -1.6085 -0.1571
 2756TIP3    H229904   1.834   0.007   2.267  1.3102  0.6347 -1.6152
 2757TIP3   OH229905   0.711   0.075   0.490 -0.0813 -0.2272  0.0695
 2757TIP3    H129906   0.745  -0.011   0.514  0.7475  0.0052 -0.2400
 2757TIP3    H229907   0.667   0.060   0.406 -0.0052 -0.3706  0.0539
 2758TIP3   OH229908   3.313   3.516   6.972 -0.0228 -0.6139  0.9118
 2758TIP3    H129909   3.309   3.458   6.896  1.3857 -0.3640  0.6209
 2758TIP3    H229910   3.373   3.472   7.032 -1.6343 -1.1563  2.2236
 2759TIP3   OH229911   2.654   6.470   7.877 -0.1986  0.2392  0.2525
 2759TIP3    H129912   2.662   6.375   7.867 -1.7480  0.2070 -1.1724
 2759TIP3    H229913   2.696   6.505   7.799 -0.6189  0.6604  0.2103
 2760TIP3   OH229914   2.674   2.909   7.698  0.6068  0.1388 -0.6821
 2760TIP3    H129915   2.621   2.988   7.709  0.4168 -0.3211  3.2964
 2760TIP3    H229916   2.700   2.910   7.606  0.4982  4.7164 -0.9125
 2761TIP3   OH229917   0.537   6.272   1.643  0.0907  0.1342 -0.3737
 2761TIP3    H129918   0.467   6.289   1.707 -0.2466  0.2943 -0.7783
 2761TIP3    H229919   0.601   6.341   1.658  0.4156 -0.3067  0.3414
 2762TIP3   OH229920   3.021   3.444   6.771 -0.1634  0.7308  0.8065
 2762TIP3    H129921   3.106   3.401   6.762 -0.4462  0.0967  1.1333
 2762TIP3    H229922   3.020   3.509   6.701 -0.1850 -0.5263 -0.3913
 2763TIP3   OH229923   2.549   5.678   0.823 -0.4729 -0.0492  0.1656
 2763TIP3    H129924   2.474   5.620   0.837 -1.6594  0.2626 -3.7618
 2763TIP3    H229925   2.623   5.619   0.813 -1.1520 -0.7427 -0.9673
 2764TIP3   OH229926   5.757   2.129   7.793  0.1257 -0.3105 -0.2411
 2764TIP3    H129927   5.709   2.208   7.820 -1.4565 -0.6862 -1.7547
 2764TIP3    H229928   5.696   2.058   7.809  0.3571 -0.8745 -1.7343
 2765TIP3   OH229929   0.633   4.686   1.982 -0.7069  0.0294  0.0594
 2765TIP3    H129930   0.648   4.767   1.934  0.8666 -0.6262 -0.6333
 2765TIP3    H229931   0.538   4.678   1.988 -0.8903  1.7746 -0.0858
 2766TIP3   OH229932   5.485   3.552   1.537 -0.5182  0.4179 -0.4342
 2766TIP3    H129933   5.429   3.625   1.562 -0.8803 -0.0956  0.3172
 2766TIP3    H229934   5.470   3.486   1.606 -0.5796 -0.5518 -1.3468
 2767TIP3   OH229935   5.172   1.054   0.888 -1.1814  0.3208  0.2585
 2767TIP3    H129936   5.238   1.082   0.952  0.7564  1.9343 -2.2364
 2767TIP3    H229937   5.217   0.987   0.836 -0.5467  2.8383 -2.7695
 2768TIP3   OH229938   3.603   2.011   1.455 -1.0105  0.6177 -0.4375
 2768TIP3    H129939   3.631   1.929   1.495 -2.4033  0.6036  0.5941
 2768TIP3    H229940   3.570   2.063   1.528 -0.9221  1.7718 -1.1900
 2769TIP3   OH229941   1.436   4.284   7.522 -0.4694 -0.1706 -0.9519
 2769TIP3    H129942   1.527   4.311   7.514  0.0068 -0.4981  1.9781
 2769TIP3    H229943   1.385   4.364   7.505  0.5801  0.9310  0.7453
 2770TIP3   OH229944   6.047   4.194   0.849  0.4101 -0.1736 -1.0748
 2770TIP3    H129945   6.079   4.284   0.854 -1.5161  0.4800  1.5117
 2770TIP3    H229946   5.967   4.200   0.797  1.4797 -0.8862 -2.9207
 2771TIP3   OH229947   6.310   2.807   7.344  0.1600 -0.2344  0.0151
 2771TIP3    H129948   6.350   2.864   7.410 -1.7733  1.5443 -0.2758
 2771TIP3    H229949   6.343   2.840   7.261  0.1486 -0.4776 -0.0881
 2772TIP3   OH229950   0.468   0.440   1.811 -0.1858 -0.0608 -0.2331
 2772TIP3    H129951   0.540   0.495   1.780 -1.9142  1.3640 -1.9539
 2772TIP3    H229952   0.434   0.486   1.888  1.7854 -1.6962  1.7567
 2773TIP3   OH229953   1.750   3.929   1.345 -0.4123 -0.0185 -0.1024
 2773TIP3    H129954   1.797   3.845   1.345  2.1242  1.1479  3.9356
 2773TIP3    H229955   1.672   3.913   1.399  1.3434  0.6474  2.8043
 2774TIP3   OH229956   4.579   6.851   8.600 -0.4259 -0.3062 -0.4265
 2774TIP3    H129957   4.602   6.803   8.520  0.7628  0.3885 -0.5159
 2774TIP3    H229958   4.494   6.815   8.625  0.1483 -2.0428 -0.8293
 2775TIP3   OH229959   3.318   2.140   1.112 -0.2276  0.3580 -0.1620
 2775TIP3    H129960   3.257   2.118   1.183  0.4391  1.1472  0.6740
 2775TIP3    H229961   3.355   2.056   1.085  0.6919  0.1873  1.5323
 2776TIP3   OH229962   2.811   5.721   7.662  0.3620 -0.5201  0.1124
 2776TIP3    H129963   2.727   5.698   7.702  1.1353 -2.7636  0.6293
 2776TIP3    H229964   2.814   5.668   7.582  0.6033  0.8033 -0.7804
 2777TIP3   OH229965   4.471   1.901   8.756  0.2763  0.4090  0.0627
 2777TIP3    H129966   4.525   1.826   8.781 -2.6903 -2.0137 -0.3443
 2777TIP3    H229967   4.535   1.966   8.724  2.9419 -2.2396 -0.4720
 2778TIP3   OH229968   1.467   3.582   8.327 -0.0284  0.2169  0.0554
 2778TIP3    H129969   1.374   3.601   8.337 -0.5513 -1.1771 -1.6514
 2778TIP3    H229970   1.500   3.651   8.269  0.0556  0.8073  0.7960
 2779TIP3   OH229971   4.156   6.695   1.225 -0.0369  0.1242  0.5680
 2779TIP3    H129972   4.130   6.787   1.218 -1.0211  0.0073  2.0858
 2779TIP3    H229973   4.252   6.696   1.224 -0.0454  1.0688 -0.2777
 2780TIP3   OH229974   2.279   6.037   1.256  0.0762  0.1640 -0.5414
 2780TIP3    H129975   2.220   6.056   1.329 -0.6966  0.4999 -1.2260
 2780TIP3    H229976   2.222   5.999   1.189 -0.0093  3.0809 -2.3179
 2781TIP3   OH229977   6.497   0.743   1.073  0.4526  0.6718 -0.0376
 2781TIP3    H129978   6.576   0.789   1.044  1.0162 -0.8235 -0.9707
 2781TIP3    H229979   6.522   0.651   1.076 -1.0683  0.2334  0.3255
 2782TIP3   OH229980   1.857   4.181   0.770  0.2950 -0.0086 -0.5047
 2782TIP3    H129981   1.860   4.273   0.794 -1.6731 -0.0983  0.3107
 2782TIP3    H229982   1.792   4.143   0.830  0.6921 -1.8063 -1.1598
 2783TIP3   OH229983   5.195   2.393   8.495 -0.1121  0.2274 -0.2187
 2783TIP3    H129984   5.135   2.433   8.557 -0.0431  0.3791 -0.2508
 2783TIP3    H229985   5.140   2.366   8.422 -0.3574 -0.8401  0.3270
 2784TIP3   OH229986   5.278   3.102   8.160 -0.1418 -0.1861  0.1818
 2784TIP3    H129987   5.308   3.100   8.251  2.8750 -0.7372 -0.6939
 2784TIP3    H229988   5.299   3.190   8.129  0.0794 -0.4142 -0.3282
 2785TIP3   OH229989   0.658   3.716   8.070  0.0120 -0.3167 -0.2394
 2785TIP3    H129990   0.569   3.713   8.106  0.2352  0.3789  0.3938
 2785TIP3    H229991   0.666   3.636   8.018 -0.5489 -1.0037  0.7170
 2786TIP3   OH229992   3.217   2.853   8.187 -0.6095 -0.1328  0.0747
 2786TIP3    H129993   3.203   2.793   8.114 -1.6791  0.2595 -0.0748
 2786TIP3    H229994   3.180   2.936   8.157  0.0464  0.3645  0.6082
 2787TIP3   OH229995   0.632   1.016   8.116  0.1364  0.5670 -0.2592
 2787TIP3    H129996   0.562   0.971   8.164  1.6861  1.0349  2.6558
 2787TIP3    H229997   0.682   0.945   8.075 -1.0292  0.1321 -1.0008
 2788TIP3   OH229998   2.246   1.070   2.220 -0.3210 -0.4133 -0.1125
 2788TIP3    H129999   2.187   1.029   2.156 -1.0611  0.6670 -0.1427
 2788TIP3    H230000   2.326   1.088   2.171 -0.5555 -0.4197 -0.5040
 2789TIP3   OH230001   2.512   2.029   7.389 -0.0069 -0.6340 -0.6043
 2789TIP3    H130002   2.472   1.996   7.309 -0.7346 -1.6491  0.1484
 2789TIP3    H230003   2.479   2.118   7.397 -1.6107 -1.2141 -0.3722
 2790TIP3   OH230004   6.559   3.772   2.053  0.0245 -0.5766 -0.2176
 2790TIP3    H130005   6.549   3.826   1.974  4.2170  0.2340 -0.4467
 2790TIP3    H230006   6.525   3.686   2.028 -1.5038  0.4176 -1.8243
 2791TIP3   OH230007   4.372   3.084   8.564  0.3643  0.3591  0.4970
 2791TIP3    H130008   4.313   3.021   8.522 -0.5900  1.7002 -0.2726
 2791TIP3    H230009   4.360   3.069   8.657 -1.1126  0.4742  0.3565
 2792TIP3   OH230010   3.464   1.786   0.373 -0.1122  0.5286  0.5566
 2792TIP3    H130011   3.436   1.847   0.442 -0.8603  0.9124 -0.0688
 2792TIP3    H230012   3.560   1.787   0.377 -0.1416  0.6765  1.4716
 2793TIP3   OH230013   6.115   0.583   0.431 -0.0261 -0.2652  0.3098
 2793TIP3    H130014   6.143   0.614   0.345 -2.6937  1.6182 -0.0188
 2793TIP3    H230015   6.144   0.492   0.435 -0.3212 -0.5849 -2.8358
 2794TIP3   OH230016   1.001   2.199   1.133 -0.4629  0.2831 -0.2809
 2794TIP3    H130017   1.017   2.268   1.068 -1.3180  1.8371  1.0806
 2794TIP3    H230018   0.986   2.120   1.081 -1.4919  1.5483 -2.0042
 2795TIP3   OH230019   2.534   3.229   0.929  0.4240 -0.2882  0.0780
 2795TIP3    H130020   2.528   3.134   0.939  0.3948 -0.3457 -0.4835
 2795TIP3    H230021   2.606   3.243   0.867  1.6132  0.1310  1.4784
 2796TIP3   OH230022   1.382   4.602   0.841  0.1563 -0.0424  0.1636
 2796TIP3    H130023   1.453   4.546   0.873 -1.3036 -2.2335 -0.1591
 2796TIP3    H230024   1.302   4.550   0.855 -1.2152  1.6414 -0.9468
 2797TIP3   OH230025   6.245   4.859   7.769 -0.0975  0.0975 -0.1972
 2797TIP3    H130026   6.279   4.770   7.774 -0.5279  0.0076  1.9409
 2797TIP3    H230027   6.152   4.848   7.747 -0.8073 -0.2099  2.6083
 2798TIP3   OH230028   2.396   2.606   1.795 -0.3173  0.1737  0.6916
 2798TIP3    H130029   2.405   2.558   1.712  1.3478 -0.0811  0.9875
 2798TIP3    H230030   2.434   2.547   1.860 -1.1577  0.5879  1.5655
 2799TIP3   OH230031   4.333   1.323   7.744  0.1647  0.0056  0.7378
 2799TIP3    H130032   4.270   1.395   7.751 -1.3228 -1.1946  0.3777
 2799TIP3    H230033   4.405   1.359   7.692  0.2341  1.6966  1.9253
 2800TIP3   OH230034   2.503   6.137   2.208  0.6617  0.1455  0.0769
 2800TIP3    H130035   2.575   6.119   2.268 -0.3248  0.9537  1.5659
 2800TIP3    H230036   2.447   6.059   2.212  0.2148  0.4930  0.8079
 2801TIP3   OH230037   5.986   2.301   7.642 -0.2501  0.0814  0.0291
 2801TIP3    H130038   5.943   2.372   7.593 -0.5187 -0.0868  0.0192
 2801TIP3    H230039   5.915   2.257   7.687 -0.1624 -0.5578 -0.4374
 2802TIP3   OH230040   1.612   1.199   6.943 -0.6693 -0.2783 -0.0301
 2802TIP3    H130041   1.607   1.104   6.929  2.2292 -0.4554 -0.6388
 2802TIP3    H230042   1.626   1.235   6.855  0.5190  0.4324  0.4280
 2803TIP3   OH230043   4.111   5.306   1.780  0.0100 -0.6666  0.4043
 2803TIP3    H130044   4.036   5.347   1.823 -0.0770  0.4888 -0.7732
 2803TIP3    H230045   4.186   5.332   1.833 -0.2858 -0.8684  0.9321
 2804TIP3   OH230046   3.214   6.327   1.504 -0.3999 -0.2982 -0.2067
 2804TIP3    H130047   3.124   6.300   1.489  0.0251 -0.9414 -1.7583
 2804TIP3    H230048   3.255   6.251   1.545 -1.1431  0.8873  3.0641
 2805TIP3   OH230049   2.496   2.486   2.022  0.6931  0.0225 -0.4582
 2805TIP3    H130050   2.523   2.426   2.091  0.0086 -0.3627 -0.5113
 2805TIP3    H230051   2.470   2.566   2.068  0.1113 -0.2788 -0.2548
 2806TIP3   OH230052   5.797   2.868   0.808  0.2487 -0.5207  0.2763
 2806TIP3    H130053   5.845   2.949   0.788  0.1332 -1.1498 -3.3562
 2806TIP3    H230054   5.730   2.895   0.871  0.2513  2.2336 -0.7401
 2807TIP3   OH230055   0.222   4.380   0.474  0.3634  0.0970  0.0130
 2807TIP3    H130056   0.236   4.309   0.536 -2.0084  0.7453  1.4076
 2807TIP3    H230057   0.270   4.454   0.511  1.0648 -0.1816 -0.3167
 2808TIP3   OH230058   0.556   1.784   7.690  0.3802  0.1545 -0.2766
 2808TIP3    H130059   0.563   1.723   7.617  1.4601 -0.4268  0.2935
 2808TIP3    H230060   0.474   1.761   7.733  0.0977  0.0274 -0.8745
 2809TIP3   OH230061   6.556   5.902   1.742 -0.3283  0.4938  0.1680
 2809TIP3    H130062   6.536   5.985   1.784  0.5490  0.8264 -0.0499
 2809TIP3    H230063   6.596   5.926   1.659  1.0355 -0.1216  0.6190
 2810TIP3   OH230064   6.450   4.537   1.956 -0.0256  0.1955 -0.7613
 2810TIP3    H130065   6.515   4.535   2.026 -2.1534  0.9802  1.3602
 2810TIP3    H230066   6.493   4.586   1.885  1.6586  0.7291  0.5509
 2811TIP3   OH230067   4.827   6.730   2.530  0.0867 -0.5657 -0.2344
 2811TIP3    H130068   4.855   6.809   2.576  0.6067 -0.1851 -1.1656
 2811TIP3    H230069   4.906   6.701   2.483 -0.4419 -0.8776 -0.9429
 2812TIP3   OH230070   2.724   5.150   8.663 -0.9763  0.3750  1.2358
 2812TIP3    H130071   2.734   5.062   8.699  0.3670  0.2969  0.7165
 2812TIP3    H230072   2.651   5.143   8.602  0.9381 -1.1526 -1.0343
 2813TIP3   OH230073   5.628   6.361   0.879  0.0696 -0.2483 -0.2368
 2813TIP3    H130074   5.560   6.398   0.935 -0.4637 -0.5759 -0.6543
 2813TIP3    H230075   5.611   6.398   0.792  0.1904 -0.6140 -0.4236
 2814TIP3   OH230076   5.500   5.179   1.617 -0.3642 -0.1206 -0.1784
 2814TIP3    H130077   5.531   5.157   1.704  2.3844 -0.1711 -1.0848
 2814TIP3    H230078   5.412   5.142   1.613 -0.5184 -0.2386  2.4815
 2815TIP3   OH230079   5.399   3.994   8.029  0.5704 -0.3900  0.9522
 2815TIP3    H130080   5.396   4.087   8.052 -0.7859 -0.6834  2.0867
 2815TIP3    H230081   5.363   3.949   8.105 -0.2425 -1.7339 -0.1796
 2816TIP3   OH230082   2.803   2.194   7.220 -0.1112 -0.1281 -0.1050
 2816TIP3    H130083   2.801   2.287   7.241  1.1411 -0.1333  0.0707
 2816TIP3    H230084   2.789   2.150   7.304  1.3819 -0.1095  0.1704
 2817TIP3   OH230085   0.632   2.595   8.267 -0.3029  0.0813 -0.1758
 2817TIP3    H130086   0.658   2.621   8.355  1.1234  0.2035 -0.5914
 2817TIP3    H230087   0.560   2.534   8.279 -1.0513  1.1590  1.0009
 2818TIP3   OH230088   0.276   6.229   0.329 -0.1825 -0.5783 -0.2228
 2818TIP3    H130089   0.261   6.321   0.348  0.8453 -0.8322  2.1520
 2818TIP3    H230090   0.370   6.222   0.314 -0.1180 -1.3341  0.4339
 2819TIP3   OH230091   4.541   6.565   8.196 -0.2759  0.0430 -0.2766
 2819TIP3    H130092   4.624   6.520   8.209 -0.4137 -0.1744 -0.1606
 2819TIP3    H230093   4.474   6.500   8.215 -0.4970  0.7379  1.5612
 2820TIP3   OH230094   2.270   4.674   8.093 -0.0866 -0.1148 -0.1660
 2820TIP3    H130095   2.201   4.621   8.054 -0.1588 -1.5160  1.7653
 2820TIP3    H230096   2.293   4.737   8.024 -2.4187 -0.3744 -1.2842
 2821TIP3   OH230097   0.149   3.753   6.310  0.6516 -0.0493  0.0019
 2821TIP3    H130098   0.129   3.680   6.368 -1.5983 -1.0250 -1.8418
 2821TIP3    H230099   0.151   3.830   6.367 -0.1497 -1.1095  1.5221
 2822TIP3   OH230100   4.454   6.079   8.088  0.5588  0.1816 -0.5291
 2822TIP3    H130101   4.506   6.030   8.024 -0.1340 -0.3521 -0.6988
 2822TIP3    H230102   4.412   6.011   8.141  2.7057  0.5684  1.8801
 2823TIP3   OH230103   3.008   5.126   6.708 -0.2584 -0.8698 -0.9411
 2823TIP3    H130104   3.068   5.077   6.653 -0.1507 -0.8068 -0.8812
 2823TIP3    H230105   3.046   5.214   6.712 -1.2714 -0.3458 -2.3362
 2824TIP3   OH230106   1.522   4.788   0.565 -0.1972 -0.0111  0.1948
 2824TIP3    H130107   1.480   4.777   0.650 -1.6551  0.3964 -0.4463
 2824TIP3    H230108   1.474   4.859   0.524 -1.2646 -1.8845 -2.0085
 2825TIP3   OH230109   3.671   0.826   1.415  0.7866  0.1294  0.1535
 2825TIP3    H130110   3.686   0.739   1.451 -1.2565 -0.2109  0.2990
 2825TIP3    H230111   3.690   0.818   1.322  2.1329 -0.0343  0.4224
 2826TIP3   OH230112   5.324   6.528   8.555 -0.6081  0.6115 -0.2193
 2826TIP3    H130113   5.259   6.457   8.554 -0.2695  0.3046 -1.0377
 2826TIP3    H230114   5.408   6.484   8.540 -0.2797  1.0745  0.2554
 2827TIP3   OH230115   4.829   4.196   6.910  0.3161 -0.2325  0.4131
 2827TIP3    H130116   4.841   4.162   6.822  0.2315  0.3386  0.1720
 2827TIP3    H230117   4.917   4.203   6.946  0.6539  2.1863 -0.6688
 2828TIP3   OH230118   2.447   3.974   0.447  0.6870  0.2940  0.1341
 2828TIP3    H130119   2.479   3.898   0.495  0.9385  0.1074 -0.3262
 2828TIP3    H230120   2.384   3.939   0.384  0.9202  0.4477 -0.1876
 2829TIP3   OH230121   6.744   2.244   6.820 -0.0374  0.0098  0.0614
 2829TIP3    H130122   6.758   2.219   6.729 -1.8043 -1.6534  0.1909
 2829TIP3    H230123   6.787   2.330   6.828 -1.0532  0.8921 -2.7110
 2830TIP3   OH230124   5.558   4.636   7.654  0.6601  0.5235 -0.7490
 2830TIP3    H130125   5.653   4.644   7.652  0.6813  1.7730  1.6866
 2830TIP3    H230126   5.528   4.687   7.578  1.9125 -2.6882 -3.6531
 2831TIP3   OH230127   1.877   2.036   8.132  0.1031  0.7669 -0.3032
 2831TIP3    H130128   1.824   2.050   8.054  1.6564  1.8339 -1.2438
 2831TIP3    H230129   1.826   2.073   8.204 -1.0682  0.3640 -0.9060
 2832TIP3   OH230130   6.131   0.006   7.726 -0.1535  0.4090 -0.7777
 2832TIP3    H130131   6.196   0.037   7.662 -0.6395  0.2290 -1.3603
 2832TIP3    H230132   6.047   0.015   7.682 -0.5847  1.1169  0.1625
 2833TIP3   OH230133   4.591   6.280   7.547  0.4980  0.8207  0.5594
 2833TIP3    H130134   4.538   6.299   7.624 -0.3055  0.6322  0.0641
 2833TIP3    H230135   4.672   6.243   7.582  0.2311  0.9393  1.3191
 2834TIP3   OH230136   3.854   1.549   1.991  0.2787  0.0254 -0.0362
 2834TIP3    H130137   3.861   1.498   2.072 -0.3686 -2.1658 -1.2803
 2834TIP3    H230138   3.838   1.484   1.923  0.2803  1.8497 -1.8751
 2835TIP3   OH230139   5.095   3.962   0.854 -0.2936  0.2724  0.1878
 2835TIP3    H130140   5.104   4.033   0.918  2.9945 -0.2860  0.4833
 2835TIP3    H230141   5.120   3.883   0.901 -0.9771 -0.6439 -0.9426
 2836TIP3   OH230142   2.252   5.014   1.055 -0.0332  0.0014  0.5091
 2836TIP3    H130143   2.315   5.084   1.076  1.9325 -1.8169  0.9741
 2836TIP3    H230144   2.248   5.015   0.959 -0.0574  0.7725  0.5105
 2837TIP3   OH230145   2.938   0.523   7.638  0.5444  0.2936 -0.4311
 2837TIP3    H130146   2.902   0.442   7.602  0.3522 -0.2963  1.0105
 2837TIP3    H230147   3.026   0.498   7.668  0.2253  0.4244  0.6470
 2838TIP3   OH230148   5.660   3.589   1.985  0.0840  0.0990  0.5385
 2838TIP3    H130149   5.676   3.667   1.931  2.0777 -0.1026  0.7484
 2838TIP3    H230150   5.713   3.521   1.945 -0.1516 -0.6449  1.4613
 2839TIP3   OH230151   1.401   1.729   8.265  0.4945  0.4561 -0.2556
 2839TIP3    H130152   1.442   1.795   8.210 -0.1649  1.2384  0.1788
 2839TIP3    H230153   1.467   1.706   8.330 -0.0097  2.3668  1.0091
 2840TIP3   OH230154   5.146   4.819   0.899 -0.3290 -0.3262  0.3594
 2840TIP3    H130155   5.114   4.871   0.973  2.5988 -0.2776  1.7528
 2840TIP3    H230156   5.168   4.884   0.832  1.0223  0.1035  1.1648
 2841TIP3   OH230157   6.740   3.591   6.501  0.0078 -0.5182 -0.2351
 2841TIP3    H130158   6.832   3.567   6.488 -0.1469 -1.6942  0.6187
 2841TIP3    H230159   6.731   3.601   6.596 -0.5119  0.6680 -0.3931
 2842TIP3   OH230160   3.400   0.411   0.535 -0.1808  1.0201  0.0507
 2842TIP3    H130161   3.443   0.496   0.542 -1.2207  1.6728 -1.0398
 2842TIP3    H230162   3.316   0.423   0.578 -0.1774  0.4127  0.2326
 2843TIP3   OH230163   6.685   6.020   8.217 -0.7848 -0.0610  0.0521
 2843TIP3    H130164   6.678   6.068   8.135 -2.8438 -0.1323  0.1311
 2843TIP3    H230165   6.599   5.979   8.228  0.3424 -2.4157  0.8114
 2844TIP3   OH230166   5.468   0.061   2.238  0.3468  0.3303  0.1746
 2844TIP3    H130167   5.518   0.113   2.176 -0.7083  0.9749 -0.1622
 2844TIP3    H230168   5.429   0.125   2.297  0.5213 -0.2105  0.8987
 2845TIP3   OH230169   5.922   1.400   8.759  0.2591  0.3019  0.1874
 2845TIP3    H130170   5.867   1.365   8.829 -2.6518  2.9280 -0.5776
 2845TIP3    H230171   5.933   1.493   8.780  0.4944  0.8589 -2.0744
 2846TIP3   OH230172   0.838   1.753   2.306  0.0898  0.1244 -0.2132
 2846TIP3    H130173   0.794   1.711   2.232  2.1812 -1.4170 -0.6795
 2846TIP3    H230174   0.894   1.819   2.267 -0.7486  1.1330  0.2522
 2847TIP3   OH230175   6.362   5.711   1.358  0.0490 -0.4394  0.2852
 2847TIP3    H130176   6.434   5.693   1.298 -0.7489 -0.8534 -0.5680
 2847TIP3    H230177   6.327   5.795   1.330 -0.7130 -0.9159 -0.2480
 2848TIP3   OH230178   2.506   0.360   7.360 -0.1181  0.5115 -0.3596
 2848TIP3    H130179   2.577   0.382   7.300 -0.0804  1.1791 -0.0766
 2848TIP3    H230180   2.436   0.422   7.338  0.1925  1.3101  0.8216
 2849TIP3   OH230181   0.882   4.858   8.040  0.1478  0.0651  0.1696
 2849TIP3    H130182   0.957   4.884   7.986 -0.4700 -0.5105 -1.0093
 2849TIP3    H230183   0.887   4.763   8.044 -0.9134 -0.0321 -0.5383
 2850TIP3   OH230184   4.415   6.470   7.480  0.1872  0.1499 -0.0138
 2850TIP3    H130185   4.468   6.544   7.510  0.6430 -0.9006  2.0059
 2850TIP3    H230186   4.477   6.397   7.477 -1.1789 -1.4335  3.6741
 2851TIP3   OH230187   4.945   4.622   0.702  0.3087 -0.1795  0.3173
 2851TIP3    H130188   5.024   4.644   0.751  0.4113  1.3591 -0.4714
 2851TIP3    H230189   4.972   4.552   0.643  0.8176 -0.3395  0.7352
 2852TIP3   OH230190   2.988   1.342   7.929 -0.0694  0.0011 -0.7726
 2852TIP3    H130191   3.035   1.331   8.012 -1.4202  0.0043  0.0227
 2852TIP3    H230192   2.902   1.303   7.945 -0.8393  1.2431 -1.7229
 2853TIP3   OH230193   6.676   3.736   0.618  0.0335 -1.2291  0.3641
 2853TIP3    H130194   6.721   3.775   0.692  0.9661 -2.0777  0.2654
 2853TIP3    H230195   6.743   3.682   0.575 -0.1497  0.1111 -1.7485
 2854TIP3   OH230196   0.782   2.716   1.903 -0.0782 -0.5308 -0.2446
 2854TIP3    H130197   0.870   2.677   1.902  0.2957 -0.0744  3.0252
 2854TIP3    H230198   0.743   2.683   1.984 -2.8741 -0.4794 -1.4663
 2855TIP3   OH230199   2.380   3.733   8.247 -0.1739  0.1067 -0.2378
 2855TIP3    H130200   2.333   3.717   8.165 -0.5675  1.2560 -0.2454
 2855TIP3    H230201   2.369   3.652   8.297 -1.1659 -0.0652 -0.7188
 2856TIP3   OH230202   5.462   2.077   2.065  0.2264 -0.0380  0.2931
 2856TIP3    H130203   5.469   2.024   1.985  1.4125 -2.3930  1.8280
 2856TIP3    H230204   5.370   2.067   2.092  0.6598 -2.3221  1.1193
 2857TIP3   OH230205   3.506   2.483   7.362  0.1700  0.1979 -0.0875
 2857TIP3    H130206   3.598   2.472   7.336  0.9468 -0.6669  2.6903
 2857TIP3    H230207   3.485   2.573   7.338  2.1656  0.8161  0.3205
 2858TIP3   OH230208   1.719   3.563   8.396 -0.5116 -0.0941  0.1967
 2858TIP3    H130209   1.716   3.639   8.455 -1.0688 -0.3352  0.4810
 2858TIP3    H230210   1.628   3.548   8.372 -0.2939 -0.0130 -0.7207
 2859TIP3   OH230211   3.532   1.823   0.833  0.2597 -0.0031  0.1812
 2859TIP3    H130212   3.564   1.768   0.905  2.1005 -0.0292 -0.6015
 2859TIP3    H230213   3.552   1.912   0.861 -0.1427  0.0771  0.2197
 2860TIP3   OH230214   1.750   1.336   6.759  0.8992  0.1785  0.0408
 2860TIP3    H130215   1.839   1.324   6.791  1.9081  2.1315 -1.7696
 2860TIP3    H230216   1.761   1.354   6.666 -1.4273  0.2762 -0.2598
 2861TIP3   OH230217   5.196   3.517   0.660  0.1796  0.6177 -0.2982
 2861TIP3    H130218   5.151   3.601   0.652 -0.4659  0.2349 -0.7392
 2861TIP3    H230219   5.259   3.531   0.731 -1.5304  0.7897  1.2907
 2862TIP3   OH230220   2.166   4.076   2.563  0.4471 -0.0269  0.6607
 2862TIP3    H130221   2.221   4.041   2.634  0.2139 -0.4098  0.6540
 2862TIP3    H230222   2.128   3.998   2.522 -1.7529  0.2847  1.9792
 2863TIP3   OH230223   0.194   4.207   1.052  0.3266 -0.3760 -0.5310
 2863TIP3    H130224   0.180   4.129   1.106 -1.2693  0.9207  1.0399
 2863TIP3    H230225   0.240   4.268   1.109  1.8179 -0.1984 -1.8381
 2864TIP3   OH230226   5.514   3.008   0.050  0.7051 -0.2793  0.6568
 2864TIP3    H130227   5.533   2.957   0.129  1.4155  0.0160  0.6830
 2864TIP3    H230228   5.563   2.964  -0.020 -0.7133 -1.1396  0.1592
 2865TIP3   OH230229   6.233   2.206   7.738  0.0051  0.0906  0.1419
 2865TIP3    H130230   6.153   2.230   7.692  0.3156  1.5704  0.3023
 2865TIP3    H230231   6.290   2.282   7.728  0.9488 -0.4652  1.0207
 2866TIP3   OH230232   2.517   4.446   0.608  0.1003 -0.1485 -0.2802
 2866TIP3    H130233   2.563   4.520   0.568 -1.0851  0.5232 -0.4379
 2866TIP3    H230234   2.440   4.432   0.552  1.4240 -3.0014 -1.6078
 2867TIP3   OH230235   0.099   5.097   0.311  0.2360  0.0905 -0.1358
 2867TIP3    H130236   0.081   5.012   0.270 -1.5748 -0.0868  0.9076
 2867TIP3    H230237   0.181   5.084   0.358  1.6162 -0.1172 -2.4420
 2868TIP3   OH230238   5.687   1.216   8.264 -0.0629  0.1757  0.0848
 2868TIP3    H130239   5.628   1.192   8.192  0.9305 -1.4858 -0.2279
 2868TIP3    H230240   5.754   1.147   8.265  1.9784  2.0312  0.3346
 2869TIP3   OH230241   0.560   1.919   7.106  0.4463  0.3861 -0.3620
 2869TIP3    H130242   0.488   1.949   7.051  1.6715 -1.2321 -3.0721
 2869TIP3    H230243   0.635   1.972   7.079  0.8387  0.3119  0.5560
 2870TIP3   OH230244   6.277   1.122   7.156 -0.4760 -0.3204 -0.4195
 2870TIP3    H130245   6.188   1.101   7.184  0.0129 -0.1660  1.3741
 2870TIP3    H230246   6.322   1.037   7.155 -0.0954 -0.1559  0.8447
 2871TIP3   OH230247   6.372   2.320   7.142 -0.3262  0.1515 -0.3402
 2871TIP3    H130248   6.351   2.361   7.226  0.3063 -1.5299  0.6938
 2871TIP3    H230249   6.359   2.227   7.157  0.0072 -0.2110 -2.0646
 2872TIP3   OH230250   1.010   0.825   0.140  0.1298 -0.0021 -0.1749
 2872TIP3    H130251   1.082   0.877   0.177 -0.3417 -1.1083  2.4875
 2872TIP3    H230252   0.932   0.879   0.155 -0.3469 -1.2557  2.5071
 2873TIP3   OH230253   4.815   5.073   7.900 -0.3864 -0.3026  0.2058
 2873TIP3    H130254   4.893   5.125   7.921 -2.5545  3.1246  0.5734
 2873TIP3    H230255   4.815   5.002   7.964  0.7671  1.4711  2.3005
 2874TIP3   OH230256   6.732   1.467   6.862  0.3578 -0.5226 -0.3777
 2874TIP3    H130257   6.801   1.524   6.896 -0.5171  1.6784 -2.0530
 2874TIP3    H230258   6.683   1.439   6.939  0.7118  1.1816  0.4940
 2875TIP3   OH230259   2.397   4.953   0.433  0.0572  0.7460  0.4263
 2875TIP3    H130260   2.463   4.903   0.385  0.2393  0.2788  1.1468
 2875TIP3    H230261   2.426   5.043   0.428 -0.9353  1.0229 -1.9976
 2876TIP3   OH230262   2.615   1.504   8.146 -0.0380  0.2905 -0.0229
 2876TIP3    H130263   2.635   1.561   8.220 -0.2865 -1.0323  1.0784
 2876TIP3    H230264   2.700   1.471   8.117 -0.0349 -0.0110  0.3326
 2877TIP3   OH230265   5.219   0.233   0.497  0.0822 -0.0852 -0.3080
 2877TIP3    H130266   5.214   0.150   0.450 -0.0617  0.4589 -1.2776
 2877TIP3    H230267   5.311   0.257   0.495  0.2164 -0.4957  0.4836
 2878TIP3   OH230268   3.889   1.338   0.285 -0.9149  0.1801  0.2658
 2878TIP3    H130269   3.864   1.266   0.227 -0.2053  0.4245 -0.3589
 2878TIP3    H230270   3.894   1.299   0.372 -1.5035 -0.3038  0.0913
 2879TIP3   OH230271   4.871   0.034   1.138 -0.0586 -0.4222 -0.3320
 2879TIP3    H130272   4.917  -0.001   1.062  1.1623 -1.6015  0.9092
 2879TIP3    H230273   4.877   0.129   1.128  1.9557 -0.5400 -0.6420
 2880TIP3   OH230274   3.168   3.213   0.679  0.0262  0.1088  0.0962
 2880TIP3    H130275   3.103   3.143   0.685 -0.1432  0.1996 -0.5044
 2880TIP3    H230276   3.250   3.173   0.706 -0.3563  0.1138  1.3134
 2881TIP3   OH230277   5.311   6.203   8.219  0.0512  0.6675 -0.3016
 2881TIP3    H130278   5.334   6.120   8.260 -2.0967  0.6500  1.0004
 2881TIP3    H230279   5.374   6.265   8.253  0.7278 -0.1223 -0.0840
 2882TIP3   OH230280   2.552   6.723   1.491 -0.3310 -0.0009 -0.2295
 2882TIP3    H130281   2.607   6.741   1.567 -0.5639  3.1591 -0.6496
 2882TIP3    H230282   2.463   6.732   1.523 -0.4286  1.5672 -0.8439
 2883TIP3   OH230283   4.203   4.695   0.540 -0.0355 -0.8416  0.0702
 2883TIP3    H130284   4.223   4.724   0.451 -0.9119 -0.2180  0.0625
 2883TIP3    H230285   4.253   4.754   0.596 -0.4134 -0.4711  0.0168
 2884TIP3   OH230286   5.937   3.575   1.723 -0.0071  0.1515 -0.4220
 2884TIP3    H130287   5.871   3.612   1.665 -0.6558  0.6697  0.6258
 2884TIP3    H230288   5.887   3.534   1.793  0.7742 -0.1822 -0.0473
 2885TIP3   OH230289   4.270   2.942   1.389  0.4658 -0.0344 -0.2776
 2885TIP3    H130290   4.196   2.900   1.433 -1.2467  0.1061 -2.8328
 2885TIP3    H230291   4.242   3.033   1.377  3.2926  1.5412  3.3558
 2886TIP3   OH230292   5.806   6.294   8.375  0.3581  0.1500  0.0859
 2886TIP3    H130293   5.815   6.318   8.283  2.5822 -0.8178  0.0038
 2886TIP3    H230294   5.743   6.222   8.374  0.0451  0.4159 -0.6042
 2887TIP3   OH230295   2.467   6.321   2.664 -0.3737 -0.0890  0.3866
 2887TIP3    H130296   2.506   6.234   2.673 -1.3389 -0.7444 -1.2820
 2887TIP3    H230297   2.542   6.380   2.659  0.3259 -0.9651  0.2935
 2888TIP3   OH230298   5.451   1.472   8.067 -0.0926  0.0883 -0.3294
 2888TIP3    H130299   5.503   1.395   8.044 -1.6948 -1.6006  1.3116
 2888TIP3    H230300   5.379   1.472   8.003 -0.1823  0.1386 -0.2282
 2889TIP3   OH230301   3.467   1.954   7.400 -0.0706  0.4442  0.1732
 2889TIP3    H130302   3.491   1.862   7.417  1.5920  0.6001 -0.9762
 2889TIP3    H230303   3.391   1.948   7.343  0.0127 -0.2285  0.1140
 2890TIP3   OH230304   5.448   1.623   8.775 -0.3252 -0.0382  0.1409
 2890TIP3    H130305   5.429   1.701   8.828  1.3607  0.1026  0.6036
 2890TIP3    H230306   5.453   1.656   8.685  0.3413  0.3892  0.3301
 2891TIP3   OH230307   0.326   6.047   7.994  0.3274 -0.3293  0.4419
 2891TIP3    H130308   0.270   6.047   8.072  1.4773 -0.7476  1.2981
 2891TIP3    H230309   0.306   6.129   7.950  0.5968  0.5675  1.9031
 2892TIP3   OH230310   5.249   2.007   8.335  0.4719 -0.5463 -0.1890
 2892TIP3    H130311   5.340   1.984   8.319 -0.0038 -1.5472 -1.6558
 2892TIP3    H230312   5.228   2.071   8.266  0.4995  0.9826  1.1483
 2893TIP3   OH230313   5.783   4.759   8.335 -0.0023  0.7477  0.0108
 2893TIP3    H130314   5.764   4.841   8.381 -2.2825 -1.1878  2.8879
 2893TIP3    H230315   5.719   4.757   8.263 -0.6823  1.0486  0.5892
 2894TIP3   OH230316   1.838   2.152   1.895 -0.2981  0.1611 -0.5837
 2894TIP3    H130317   1.849   2.242   1.924  1.1601 -0.6306  1.5540
 2894TIP3    H230318   1.759   2.121   1.940  0.0827 -0.0822 -0.0777
 2895TIP3   OH230319   1.232   0.677   7.064  0.8535 -0.0180  0.6425
 2895TIP3    H130320   1.175   0.600   7.074 -1.4942  1.7180  1.4818
 2895TIP3    H230321   1.297   0.650   7.000  0.2025 -2.7349  0.9794
 2896TIP3   OH230322   4.003   1.638   8.542 -0.1662 -0.4429 -0.3704
 2896TIP3    H130323   3.998   1.733   8.534  0.1382 -0.4190 -0.3056
 2896TIP3    H230324   4.068   1.623   8.611  0.1925 -0.7044 -0.7580
 2897TIP3   OH230325   5.572   3.571   7.133 -0.0637 -0.5473  0.1208
 2897TIP3    H130326   5.568   3.665   7.153  0.2904 -0.5791  0.3645
 2897TIP3    H230327   5.581   3.567   7.038 -3.0241 -0.4261 -0.2540
 2898TIP3   OH230328   5.176   1.820   1.411 -0.6240 -0.4877 -0.1600
 2898TIP3    H130329   5.235   1.883   1.371 -1.3353  0.1109 -0.2887
 2898TIP3    H230330   5.092   1.865   1.415 -0.3679 -0.0930  3.0138
 2899TIP3   OH230331   4.880   1.014   2.367  0.7253  0.6134  0.4011
 2899TIP3    H130332   4.907   0.922   2.359 -0.4114  0.2617  0.4491
 2899TIP3    H230333   4.906   1.054   2.284 -0.5095 -0.2368 -0.4318
 2900TIP3   OH230334   0.999   1.741   8.808  0.1273  0.2193  0.3471
 2900TIP3    H130335   0.905   1.754   8.794 -0.0923  1.9838  2.7414
 2900TIP3    H230336   1.041   1.790   8.737 -0.7725  0.8093  0.2056
 2901TIP3   OH230337   2.553   6.553   1.246 -0.1580 -0.2723 -0.0500
 2901TIP3    H130338   2.463   6.569   1.216  0.0982 -0.8819 -1.1932
 2901TIP3    H230339   2.562   6.609   1.323 -1.1551  0.6322 -0.5534
 2902TIP3   OH230340   5.000   6.102   2.514  0.0536  0.1924 -0.1647
 2902TIP3    H130341   5.048   6.172   2.558  0.2323  0.1557 -0.2989
 2902TIP3    H230342   4.910   6.133   2.510  0.4853  1.3676 -2.1065
 2903TIP3   OH230343   3.336   3.359   7.251 -0.5596 -0.6412  0.0311
 2903TIP3    H130344   3.322   3.311   7.333 -1.3453 -0.7532 -0.1555
 2903TIP3    H230345   3.322   3.293   7.183  1.7036 -0.9493 -0.1884
 2904TIP3   OH230346   5.252   1.694   2.819 -0.0648 -0.3232  0.7492
 2904TIP3    H130347   5.158   1.678   2.815 -0.1681 -0.9731  3.7013
 2904TIP3    H230348   5.292   1.608   2.813  0.2954 -0.1544  0.6455
 2905TIP3   OH230349   4.393   4.775   0.068  0.2698 -0.2556  0.6961
 2905TIP3    H130350   4.450   4.700   0.053 -0.3570 -0.7916  0.9188
 2905TIP3    H230351   4.439   4.849   0.028  0.7696 -0.8067  0.2273
 2906TIP3   OH230352   5.262   4.213   7.447 -0.3407 -0.4257  0.2671
 2906TIP3    H130353   5.178   4.168   7.454 -0.7411 -0.3922 -2.9805
 2906TIP3    H230354   5.239   4.306   7.446 -0.3562 -0.4259 -1.0380
 2907TIP3   OH230355   1.495   1.053   8.785 -0.1656  0.0305  0.1833
 2907TIP3    H130356   1.467   1.058   8.693  0.0270 -0.8251  0.0669
 2907TIP3    H230357   1.497   1.144   8.814 -1.7000  0.2313 -0.2195
 2908TIP3   OH230358   0.362   1.939   2.397 -0.6765  1.2980  0.8254
 2908TIP3    H130359   0.304   1.876   2.440 -0.2935 -0.8486 -1.5374
 2908TIP3    H230360   0.450   1.911   2.423 -0.5192  0.9501 -0.0224
 2909TIP3   OH230361   4.233   1.406   0.800  0.5695  0.2257 -0.0829
 2909TIP3    H130362   4.208   1.413   0.893 -0.1845  0.5850 -0.3025
 2909TIP3    H230363   4.302   1.339   0.799 -1.2109 -1.7594  0.4445
 2910TIP3   OH230364   5.304   3.759   1.573 -0.1848 -0.0818  0.5434
 2910TIP3    H130365   5.236   3.766   1.505 -0.1239  0.4585  0.5319
 2910TIP3    H230366   5.275   3.819   1.642 -0.2574 -0.6475  1.0058
 2911TIP3   OH230367   4.690   5.630   8.705 -0.0370  0.4533 -0.0291
 2911TIP3    H130368   4.749   5.650   8.632  1.5337 -1.4606  0.6281
 2911TIP3    H230369   4.748   5.612   8.778 -1.5064 -0.0770  1.0521
 2912TIP3   OH230370   3.591   5.714   8.617  0.2575  0.1177  0.4315
 2912TIP3    H130371   3.597   5.702   8.522 -1.2165 -2.2020  0.5419
 2912TIP3    H230372   3.681   5.720   8.647  0.7341  1.5041 -1.1636
 2913TIP3   OH230373   3.832   3.320   2.192  0.7942  0.1507 -0.0563
 2913TIP3    H130374   3.803   3.230   2.206  1.4879 -0.4056 -1.9262
 2913TIP3    H230375   3.755   3.373   2.211  0.4154 -0.7955  1.2158
 2914TIP3   OH230376   6.334   1.223   8.682  0.7829 -0.2271 -0.7446
 2914TIP3    H130377   6.240   1.214   8.668  0.6436  1.1435 -0.8494
 2914TIP3    H230378   6.375   1.164   8.618  0.0462  1.2021 -2.6036
 2915TIP3   OH230379   3.466   4.729   7.666 -0.6536 -0.3270 -0.0164
 2915TIP3    H130380   3.377   4.758   7.688 -0.9662 -0.3023 -1.1948
 2915TIP3    H230381   3.523   4.799   7.696 -1.3716  1.5318 -2.5918
 2916TIP3   OH230382   0.517   4.010   0.014  0.6661 -0.2235  0.2421
 2916TIP3    H130383   0.480   3.964   0.090 -1.0994  0.2186 -0.2961
 2916TIP3    H230384   0.445   4.065  -0.017  1.8787  0.8371 -0.7719
 2917TIP3   OH230385   6.195   6.585   8.814 -0.0893 -0.1604  0.1781
 2917TIP3    H130386   6.222   6.651   8.878 -2.7248  1.8542 -0.6227
 2917TIP3    H230387   6.238   6.612   8.733 -1.4814  0.8702 -0.2424
 2918TIP3   OH230388   6.580   4.252   1.363 -0.3334 -0.3405 -0.6100
 2918TIP3    H130389   6.619   4.266   1.449 -2.0694  0.2705  0.1293
 2918TIP3    H230390   6.630   4.309   1.305  1.9057 -1.9399 -0.3828
 2919TIP3   OH230391   1.155   5.201   8.513  0.0573 -0.0942 -0.0721
 2919TIP3    H130392   1.094   5.157   8.455  1.1892  0.5878 -1.8800
 2919TIP3    H230393   1.231   5.220   8.457  1.6853 -0.4010  1.9256
 2920TIP3   OH230394   4.995   1.566   8.127  0.2193 -0.2520 -0.1072
 2920TIP3    H130395   5.017   1.489   8.074 -0.1628 -0.5572  0.1673
 2920TIP3    H230396   5.074   1.620   8.124 -0.0054  0.0218 -1.4586
 2921TIP3   OH230397   3.124   3.991   1.271  0.3233 -0.5134  0.3922
 2921TIP3    H130398   3.140   3.896   1.272  0.3928 -0.5286 -0.7673
 2921TIP3    H230399   3.163   4.023   1.353 -1.6662 -1.7784  1.9374
 2922TIP3   OH230400   3.659   3.063   2.651  0.0708  0.2015 -0.5324
 2922TIP3    H130401   3.597   3.084   2.581 -1.5489  1.0072  1.0519
 2922TIP3    H230402   3.716   3.140   2.656 -1.0911  1.0370  0.3193
 2923TIP3   OH230403   6.280   3.971   1.901  0.2160  0.0107 -0.2977
 2923TIP3    H130404   6.213   3.903   1.914  0.6542 -0.2345  0.8625
 2923TIP3    H230405   6.350   3.927   1.854  0.3708 -0.2806  0.1901
 2924TIP3   OH230406   3.927   2.666   2.023  0.1621 -0.3403 -0.1738
 2924TIP3    H130407   3.944   2.573   2.036 -0.3785 -0.1402  2.4831
 2924TIP3    H230408   3.838   2.670   1.988  0.2282 -0.8185 -0.3937
 2925TIP3   OH230409   6.432   4.355   8.668  0.3497 -0.4754  0.7818
 2925TIP3    H130410   6.365   4.340   8.735  1.1077  1.0072  1.9153
 2925TIP3    H230411   6.475   4.270   8.659 -0.3936 -0.9473  1.4839
 2926TIP3   OH230412   0.082   5.009   1.560 -0.1785  0.0095 -0.1917
 2926TIP3    H130413   0.038   5.085   1.524  0.9327  1.1631  0.7850
 2926TIP3    H230414   0.064   5.013   1.654  1.7139  0.3942  0.2123
 2927TIP3   OH230415   4.150   3.186   1.392  0.3556  0.2654 -0.2952
 2927TIP3    H130416   4.112   3.200   1.478  0.1735  1.4237 -0.5407
 2927TIP3    H230417   4.090   3.231   1.332  0.5872 -0.3459 -1.0052
 2928TIP3   OH230418   2.959   5.312   8.526  0.2655  0.3013  0.3843
 2928TIP3    H130419   2.973   5.278   8.614 -0.3744 -1.0306  0.0034
 2928TIP3    H230420   2.867   5.291   8.507  0.8657 -1.0514 -1.2511
 2929TIP3   OH230421   5.664   4.109   8.530 -0.1125  0.1191 -0.3079
 2929TIP3    H130422   5.661   4.174   8.600 -0.2689  0.3079 -0.4892
 2929TIP3    H230423   5.644   4.026   8.574 -0.5576  0.2843 -0.1870
 2930TIP3   OH230424   2.353   0.189   7.567  0.3122 -0.4336 -0.3813
 2930TIP3    H130425   2.399   0.231   7.495  0.0181 -0.1231 -0.3907
 2930TIP3    H230426   2.295   0.126   7.525 -0.3357  0.2083 -0.4580
 2931TIP3   OH230427   3.203   2.115   0.382 -0.1499 -0.0615 -0.2104
 2931TIP3    H130428   3.239   2.140   0.297  0.3148  1.2430  0.3479
 2931TIP3    H230429   3.238   2.028   0.398  1.1281  0.3568 -0.6094
 2932TIP3   OH230430   4.293   0.635   7.643  0.1086  0.1977 -0.5483
 2932TIP3    H130431   4.291   0.643   7.738  0.7420 -1.1778 -0.3974
 2932TIP3    H230432   4.297   0.541   7.627  1.6776  0.4623 -1.9008
 2933TIP3   OH230433   2.184   1.876   2.207  0.6026 -0.7084 -0.7179
 2933TIP3    H130434   2.235   1.944   2.251 -2.0040  0.1431  1.2890
 2933TIP3    H230435   2.161   1.914   2.122  1.5403 -0.2818 -0.7935
 2934TIP3   OH230436   5.607   5.467   0.395  0.7609  0.3975  0.0144
 2934TIP3    H130437   5.591   5.383   0.440 -0.4044  1.0191  0.8306
 2934TIP3    H230438   5.677   5.448   0.333  0.2362 -1.2940 -0.1221
 2935TIP3   OH230439   5.600   3.872   8.632 -0.1563  0.2859  0.4490
 2935TIP3    H130440   5.603   3.778   8.649  0.5517 -0.0490 -1.3323
 2935TIP3    H230441   5.512   3.899   8.659 -1.4317 -1.4694 -1.6632
 2936TIP3   OH230442   5.467   6.277   6.914 -0.2343  0.1145 -0.5399
 2936TIP3    H130443   5.380   6.237   6.915  0.4471 -1.4269  0.5003
 2936TIP3    H230444   5.488   6.290   7.007  0.0077  2.0111 -0.8063
 2937TIP3   OH230445   3.285   5.439   0.518 -0.4883 -0.3510 -0.3555
 2937TIP3    H130446   3.306   5.506   0.452 -1.2081  1.8176  1.5008
 2937TIP3    H230447   3.370   5.406   0.546 -0.0607  0.4331 -0.6898
 2938TIP3   OH230448   0.318   2.261   7.035 -0.0682 -0.1087 -0.1442
 2938TIP3    H130449   0.320   2.176   6.991 -0.8303 -1.0048  1.4517
 2938TIP3    H230450   0.293   2.323   6.966  3.2966 -0.6204 -2.0466
 2939TIP3   OH230451   3.298   4.172   7.023 -0.6396  0.0076  0.1348
 2939TIP3    H130452   3.378   4.158   7.075  0.1591  1.1247 -0.7405
 2939TIP3    H230453   3.232   4.195   7.088 -0.0304 -0.0672  0.7974
 2940TIP3   OH230454   5.962   6.412   0.573 -0.3650 -0.1572 -0.0781
 2940TIP3    H130455   5.867   6.415   0.569 -0.4095 -0.3943  0.5368
 2940TIP3    H230456   5.988   6.357   0.499 -0.7057 -0.0544 -0.2730
 2941TIP3   OH230457   4.462   5.184   8.634  0.1064  0.6967 -0.3046
 2941TIP3    H130458   4.445   5.175   8.728  0.7263 -0.2737 -0.2753
 2941TIP3    H230459   4.485   5.276   8.623  1.2762  0.5530  0.7120
 2942TIP3   OH230460   6.579   1.829   0.053 -0.1046  0.2918  0.3017
 2942TIP3    H130461   6.563   1.899   0.115 -0.7779  2.0092 -1.6946
 2942TIP3    H230462   6.666   1.848   0.016 -1.0108  1.1675 -1.5121
 2943TIP3   OH230463   5.156   0.466   1.084  0.3610  0.5800  0.1001
 2943TIP3    H130464   5.200   0.459   1.168  1.2288  3.2731 -0.0086
 2943TIP3    H230465   5.171   0.557   1.057  1.3249 -0.4779 -3.5931
 2944TIP3   OH230466   1.667   6.423   0.582  0.3154 -0.2201  1.1113
 2944TIP3    H130467   1.714   6.458   0.506 -0.5208 -0.5118  0.4366
 2944TIP3    H230468   1.709   6.463   0.657  0.7088  0.6308  0.4550
 2945TIP3   OH230469   0.949   0.532   6.231  0.2566 -0.6509 -0.1914
 2945TIP3    H130470   0.967   0.565   6.319  1.2451  0.2690 -0.7071
 2945TIP3    H230471   0.864   0.570   6.208  0.0972 -0.7165  0.2784
 2946TIP3   OH230472   4.766   4.271   7.356  0.6640 -0.7374 -0.6966
 2946TIP3    H130473   4.785   4.260   7.449  0.7491  1.2697 -0.4306
 2946TIP3    H230474   4.702   4.202   7.337  0.5661 -1.1263  0.8639
 2947TIP3   OH230475   0.531   5.994   1.449 -0.3788 -0.2959 -0.5734
 2947TIP3    H130476   0.498   6.003   1.539  0.3923  0.8723 -0.3850
 2947TIP3    H230477   0.529   5.899   1.432  1.3395 -0.7584  1.4148
 2948TIP3   OH230478   6.634   1.689   7.852  0.5178  0.0851 -0.1220
 2948TIP3    H130479   6.632   1.693   7.756  0.5685  1.4258 -0.0874
 2948TIP3    H230480   6.627   1.780   7.880  0.5301 -0.2846  1.1594
 2949TIP3   OH230481   1.102   0.425   1.507 -0.5423  0.3518 -0.6668
 2949TIP3    H130482   1.022   0.376   1.488 -0.4972 -0.1399  0.3019
 2949TIP3    H230483   1.173   0.367   1.481 -0.4880 -0.1425  0.5082
 2950TIP3   OH230484   5.585   1.802   1.884 -0.3516  0.5542 -0.4438
 2950TIP3    H130485   5.539   1.726   1.918 -0.4519  1.3076  1.2371
 2950TIP3    H230486   5.517   1.856   1.844 -0.6894  0.8776  0.5381
 2951TIP3   OH230487   2.695   5.413   1.397 -0.1961 -0.2782  0.7470
 2951TIP3    H130488   2.776   5.462   1.414  0.0203 -0.2688 -0.2817
 2951TIP3    H230489   2.672   5.435   1.307 -1.5530 -0.0025  1.1357
 2952TIP3   OH230490   3.696   2.114   7.427  0.5459  0.2787  0.2305
 2952TIP3    H130491   3.617   2.059   7.426  2.3773 -2.5174 -0.5593
 2952TIP3    H230492   3.698   2.153   7.339 -0.3440  1.0167  0.5221
 2953TIP3   OH230493   4.636   4.932   7.484 -0.3978 -0.0175  0.3618
 2953TIP3    H130494   4.700   4.861   7.497 -2.4893 -2.0702  0.2206
 2953TIP3    H230495   4.676   5.008   7.524  2.5951 -0.8900 -0.6740
 2954TIP3   OH230496   1.251   1.524   6.511 -0.0534  0.3174 -0.2554
 2954TIP3    H130497   1.331   1.499   6.556 -0.4048 -0.6806 -0.1780
 2954TIP3    H230498   1.281   1.553   6.424  0.4490  0.5985  0.0077
 2955TIP3   OH230499   3.015   5.034   2.282 -0.1703  0.3406 -0.0972
 2955TIP3    H130500   3.055   5.087   2.352 -0.0826 -0.6588  0.6279
 2955TIP3    H230501   2.947   4.984   2.327 -0.3098 -0.0948 -0.7913
 2956TIP3   OH230502   1.713   0.602   0.776 -0.1086  0.0305  0.0218
 2956TIP3    H130503   1.782   0.653   0.734  0.1001  0.6848  1.1093
 2956TIP3    H230504   1.739   0.511   0.761 -0.0887  0.2363 -1.2967
 2957TIP3   OH230505   0.207   4.793   8.674  0.0685 -0.1654  0.3768
 2957TIP3    H130506   0.279   4.854   8.691  1.2461 -0.8901 -1.6761
 2957TIP3    H230507   0.244   4.706   8.691  0.2605 -0.6623 -2.2797
 2958TIP3   OH230508   6.291   4.339   8.317  0.2627 -0.1218  0.4414
 2958TIP3    H130509   6.348   4.414   8.304  2.7081 -2.1291 -1.4161
 2958TIP3    H230510   6.225   4.347   8.248  0.2977  0.5020  0.4778
 2959TIP3   OH230511   6.637   1.054   7.361  0.6815  0.4552  0.3791
 2959TIP3    H130512   6.617   1.005   7.441  1.9073  1.3965  1.2965
 2959TIP3    H230513   6.571   1.123   7.358  0.1878 -0.0182  0.1712
 2960TIP3   OH230514   5.515   3.795   7.882  0.3526  0.0246  0.4287
 2960TIP3    H130515   5.600   3.780   7.922 -0.1686 -0.9934  1.2257
 2960TIP3    H230516   5.482   3.875   7.923  0.9604  0.4824  0.0343
 2961TIP3   OH230517   0.261   1.472   8.782  0.6484  0.4464 -0.2176
 2961TIP3    H130518   0.260   1.483   8.687 -2.2184 -0.1102 -0.3417
 2961TIP3    H230519   0.175   1.502   8.811  0.0061 -2.7010  1.7150
 2962TIP3   OH230520   0.558   4.444   6.811  0.1882  0.2788 -0.0662
 2962TIP3    H130521   0.484   4.421   6.754  0.6659 -1.2424 -0.1116
 2962TIP3    H230522   0.635   4.433   6.755  0.5641  0.1493  0.4675
 2963TIP3   OH230523   2.525   1.224   8.676  0.3957  0.6794 -0.3340
 2963TIP3    H130524   2.469   1.302   8.677  1.9853  1.9448 -2.3078
 2963TIP3    H230525   2.560   1.221   8.587 -0.0929 -2.7029 -0.5483
 2964TIP3   OH230526   0.369   0.037   0.569  0.0257  0.4924 -0.3110
 2964TIP3    H130527   0.464   0.035   0.556 -0.1640 -1.4667 -1.8241
 2964TIP3    H230528   0.348  -0.048   0.608 -1.2226  0.3942 -1.1429
 2965TIP3   OH230529   6.252   5.609   0.225  0.2775 -0.3449 -0.3576
 2965TIP3    H130530   6.251   5.594   0.131  2.0090  1.5072 -0.7565
 2965TIP3    H230531   6.247   5.522   0.264 -0.2558 -1.1551 -2.1555
 2966TIP3   OH230532   4.285   2.177   0.131  0.0679  0.0183 -0.1545
 2966TIP3    H130533   4.249   2.254   0.087 -1.1035 -0.1922  0.3920
 2966TIP3    H230534   4.253   2.103   0.079 -2.4572 -0.3211  1.6711
 2967TIP3   OH230535   0.614   1.137   7.397  0.4361  0.1257  0.5617
 2967TIP3    H130536   0.624   1.232   7.388  1.8670 -0.0731 -0.2258
 2967TIP3    H230537   0.663   1.100   7.323 -1.6030 -1.2041 -0.2242
 2968TIP3   OH230538   4.968   0.522   8.463 -0.2047  0.6011 -0.4327
 2968TIP3    H130539   4.923   0.500   8.545  0.8411 -0.0376 -0.0193
 2968TIP3    H230540   5.035   0.585   8.488 -0.8928  1.6303 -1.0682
 2969TIP3   OH230541   6.224   4.557   8.605  0.3754  0.5928 -0.5462
 2969TIP3    H130542   6.193   4.597   8.524 -0.7311  0.3862 -0.2546
 2969TIP3    H230543   6.312   4.525   8.585  0.3737  1.1279 -1.4609
 2970TIP3   OH230544   3.717   3.083   2.253  0.1297  0.3458 -0.6956
 2970TIP3    H130545   3.690   3.005   2.204  0.1558 -0.6579  0.8368
 2970TIP3    H230546   3.683   3.069   2.341  3.0776  0.3697  0.5763
 2971TIP3   OH230547   2.590   5.892   0.423 -0.0721 -0.1674  0.7871
 2971TIP3    H130548   2.527   5.848   0.367  0.3698 -1.4711  1.2851
 2971TIP3    H230549   2.673   5.884   0.378 -0.4529  3.2605 -0.8541
 2972TIP3   OH230550   0.301   0.199   1.270  0.4425 -0.6887 -0.0230
 2972TIP3    H130551   0.391   0.185   1.298 -0.5755 -2.5455  2.8747
 2972TIP3    H230552   0.248   0.169   1.345 -2.5987 -1.1354 -2.1512
 2973TIP3   OH230553   5.719   3.226   0.128  0.2270 -0.0446  0.1921
 2973TIP3    H130554   5.799   3.228   0.076  0.7331 -0.4092  0.9280
 2973TIP3    H230555   5.658   3.173   0.077  0.8411 -0.7185  0.1448
 2974TIP3   OH230556   0.680   5.210   1.938 -0.0417  0.1251 -0.0903
 2974TIP3    H130557   0.622   5.242   1.869 -1.5020  1.4497  1.6496
 2974TIP3    H230558   0.758   5.181   1.891 -0.3037  2.4077 -2.1873
 2975TIP3   OH230559   3.868   3.265   0.344  0.1104 -0.0507 -0.3519
 2975TIP3    H130560   3.862   3.171   0.362 -0.2357  0.2373  1.1644
 2975TIP3    H230561   3.787   3.301   0.380  1.1427  1.0846  0.9302
 2976TIP3   OH230562   4.172   5.698   1.697 -0.5280 -0.9220 -0.2194
 2976TIP3    H130563   4.169   5.631   1.630 -0.4513 -0.2679 -0.8950
 2976TIP3    H230564   4.204   5.776   1.652 -2.6075  0.1645  0.0122
 2977TIP3   OH230565   0.234   1.515   7.250 -0.1572 -0.1536 -0.1829
 2977TIP3    H130566   0.185   1.575   7.306  0.4858  0.1393  0.0749
 2977TIP3    H230567   0.179   1.506   7.171 -1.3360 -1.0115  0.7059
 2978TIP3   OH230568   4.251   4.513   2.782 -0.3288 -0.2391 -0.5876
 2978TIP3    H130569   4.185   4.466   2.731 -2.7780  2.1143  0.1683
 2978TIP3    H230570   4.258   4.599   2.738  1.1746  0.0857  0.2233
 2979TIP3   OH230571   5.140   5.682   8.761 -0.1003 -0.0279  0.4896
 2979TIP3    H130572   5.144   5.685   8.665 -0.3347  1.7769  0.5080
 2979TIP3    H230573   5.221   5.723   8.790 -0.3427  0.0604  1.0617
 2980TIP3   OH230574   0.104   3.958   8.808  0.3365  0.4249  0.3886
 2980TIP3    H130575   0.031   3.982   8.751  0.6471  0.4467 -0.0002
 2980TIP3    H230576   0.137   4.041   8.842  0.8683  0.4999 -0.2890
 2981TIP3   OH230577   2.397   4.522   1.566 -0.6070 -0.0455 -0.4544
 2981TIP3    H130578   2.382   4.601   1.617  0.5803  0.3190 -0.6494
 2981TIP3    H230579   2.479   4.487   1.600 -0.4409 -0.4751 -1.2795
 2982TIP3   OH230580   1.603   6.274   1.823  0.5476  0.1224 -0.1615
 2982TIP3    H130581   1.557   6.223   1.889 -2.2264  0.5864 -1.6157
 2982TIP3    H230582   1.655   6.210   1.775  0.0921 -0.7117  0.4330
 2983TIP3   OH230583   2.340   0.538   7.244  0.0028  0.0133  0.2556
 2983TIP3    H130584   2.280   0.558   7.316  0.6371  0.4907  0.6590
 2983TIP3    H230585   2.327   0.608   7.181  0.4395  0.3625  0.5434
 2984TIP3   OH230586   0.947   3.997   2.445  0.5731  0.3232  0.2936
 2984TIP3    H130587   0.947   4.081   2.491  0.6789  1.0929 -1.0533
 2984TIP3    H230588   0.969   3.932   2.512 -1.8662  1.0382  1.9105
 2985TIP3   OH230589   2.564   1.028   2.042  0.4940 -0.2649 -0.0045
 2985TIP3    H130590   2.626   1.070   2.102  1.6883  0.2017 -1.4628
 2985TIP3    H230591   2.525   1.101   1.993 -0.0706 -0.6508 -0.1401
 2986TIP3   OH230592   1.857   5.221   2.255 -0.2506 -0.1231 -0.1441
 2986TIP3    H130593   1.946   5.258   2.258  0.1661 -1.0997  0.1114
 2986TIP3    H230594   1.801   5.295   2.234  0.2361  1.2096  2.7556
 2987TIP3   OH230595   6.316   1.750   7.114  0.1796 -0.1259  0.3848
 2987TIP3    H130596   6.298   1.657   7.099 -0.2555  0.3667 -2.8179
 2987TIP3    H230597   6.249   1.778   7.177 -0.2010 -1.7652  0.7540
 2988TIP3   OH230598   3.593   3.215   1.286 -0.2572 -0.5607 -0.3781
 2988TIP3    H130599   3.508   3.175   1.265 -0.3832 -1.9300  2.3957
 2988TIP3    H230600   3.625   3.166   1.361  1.9553  1.4315  0.0817
 2989TIP3   OH230601   3.482   6.377   0.886  0.2027  0.3826 -0.1404
 2989TIP3    H130602   3.549   6.319   0.922 -0.0894 -0.3565 -0.7399
 2989TIP3    H230603   3.476   6.352   0.794 -0.8495  0.4547 -0.1122
 2990TIP3   OH230604   4.159   0.744   7.290  0.7205 -0.4216 -0.3113
 2990TIP3    H130605   4.164   0.659   7.336  1.8781 -0.8864 -1.2350
 2990TIP3    H230606   4.229   0.739   7.225  0.1417  0.8621 -1.0526
 2991TIP3   OH230607   6.788   1.167   0.083 -0.2043 -0.7495  0.0178
 2991TIP3    H130608   6.879   1.187   0.065 -1.3975  2.7920 -3.3388
 2991TIP3    H230609   6.756   1.125   0.003 -2.2334  1.2600 -0.3227
 2992TIP3   OH230610   2.538   3.982   0.072  0.3755  0.0318 -0.2071
 2992TIP3    H130611   2.493   4.052   0.120  1.6299  0.1378  0.8635
 2992TIP3    H230612   2.553   4.020  -0.015  0.1270  0.7071  0.0317
 2993TIP3   OH230613   0.315   3.060   8.689 -0.0408 -0.5332 -0.2867
 2993TIP3    H130614   0.260   2.989   8.656 -0.3253  0.0341 -1.0485
 2993TIP3    H230615   0.364   3.090   8.612  1.2430 -0.9310  0.3392
 2994TIP3   OH230616   6.237   5.419   7.533 -0.6704  0.3506 -0.2001
 2994TIP3    H130617   6.331   5.420   7.517 -0.4361 -0.9366  0.9207
 2994TIP3    H230618   6.228   5.434   7.627 -1.4211 -1.5359  0.0909
 2995TIP3   OH230619   6.203   5.525   8.800 -0.5422  0.3944  0.0185
 2995TIP3    H130620   6.112   5.511   8.773 -0.5913 -0.0631  0.4123
 2995TIP3    H230621   6.230   5.441   8.837 -0.1809  0.7409  0.5548
 2996TIP3   OH230622   0.423   5.336   1.198 -0.2359 -0.0691 -0.2203
 2996TIP3    H130623   0.510   5.371   1.218 -1.2240  1.1624  2.2893
 2996TIP3    H230624   0.386   5.400   1.137 -0.2064  0.6245  0.4796
 2997TIP3   OH230625   0.385   3.972   6.901  0.1962  0.0283 -0.2740
 2997TIP3    H130626   0.303   3.992   6.855 -0.3877  1.0920  1.1633
 2997TIP3    H230627   0.454   3.999   6.839 -0.5678  1.6972 -0.4447
 2998TIP3   OH230628   3.539   1.315   7.994  0.0546  0.3585 -0.3375
 2998TIP3    H130629   3.532   1.295   8.087 -0.8342  1.6176 -0.1039
 2998TIP3    H230630   3.629   1.346   7.983  0.2263  0.0054  0.0590
 2999TIP3   OH230631   5.151   4.771   8.457 -0.4393  0.1464  0.0580
 2999TIP3    H130632   5.206   4.733   8.525 -2.0754  0.2383  1.5018
 2999TIP3    H230633   5.209   4.778   8.381  1.0666 -1.2663  0.9936
 3000TIP3   OH230634   2.464   3.778   2.102 -0.0447  0.1321  0.7898
 3000TIP3    H130635   2.397   3.711   2.107  1.2580 -1.3241 -0.2967
 3000TIP3    H230636   2.520   3.763   2.178  1.2134 -1.1667 -0.3345
 3001TIP3   OH230637   6.727   5.933   0.490 -0.5295  0.3969  0.3922
 3001TIP3    H130638   6.799   5.931   0.554  0.2650  1.2568 -0.4401
 3001TIP3    H230639   6.770   5.951   0.407 -1.4664 -1.4563 -0.5446
 3002TIP3   OH230640   1.769   1.554   8.129  0.5939 -0.2894  0.7174
 3002TIP3    H130641   1.753   1.622   8.064 -0.1763 -2.6915 -1.8211
 3002TIP3    H230642   1.688   1.550   8.180 -0.0062 -0.3605 -0.2099
 3003TIP3   OH230643   5.299   5.893   0.508 -0.7948 -0.5952 -0.2852
 3003TIP3    H130644   5.213   5.862   0.536  0.0351 -2.4134  0.3848
 3003TIP3    H230645   5.281   5.948   0.432 -2.6411  0.0933  0.6040
 3004TIP3   OH230646   4.147   3.927   8.678 -0.0868 -0.7185 -0.0770
 3004TIP3    H130647   4.212   3.863   8.648  0.9737  1.1609 -2.1699
 3004TIP3    H230648   4.173   4.009   8.634 -2.5858  0.6470  0.7951
 3005TIP3   OH230649   6.049   1.267   8.317 -0.6061  0.5505 -0.3270
 3005TIP3    H130650   6.012   1.330   8.379  1.0556  0.7978  0.4663
 3005TIP3    H230651   5.985   1.196   8.315 -0.7430  0.5559  1.6567
 3006TIP3   OH230652   3.779   1.213   1.098  0.3170 -0.0004  0.3556
 3006TIP3    H130653   3.846   1.188   1.034 -0.3451  1.9957 -1.2138
 3006TIP3    H230654   3.708   1.250   1.045 -0.3621  1.5158  2.2261
 3007TIP3   OH230655   5.491   2.121   1.345 -0.3202  0.0776  0.1424
 3007TIP3    H130656   5.524   2.071   1.419  0.0599 -1.0194 -0.7416
 3007TIP3    H230657   5.565   2.174   1.316  0.0177 -0.7081 -0.4500
 3008TIP3   OH230658   0.433   3.901   7.667  0.4402  0.1990  0.1271
 3008TIP3    H130659   0.376   3.866   7.736 -2.0171 -1.2623 -2.4059
 3008TIP3    H230660   0.441   3.994   7.687 -0.7937 -0.0266  1.9574
 3009TIP3   OH230661   6.747   4.404   1.215  0.2285  0.0248  0.0222
 3009TIP3    H130662   6.731   4.382   1.123  1.1166 -0.9474  0.0875
 3009TIP3    H230663   6.826   4.458   1.213 -0.9583  1.8865  0.0356
 3010TIP3   OH230664   1.362   4.544   7.415 -0.4275  0.4563  0.0977
 3010TIP3    H130665   1.401   4.483   7.353 -0.1428 -0.9077  1.5595
 3010TIP3    H230666   1.404   4.628   7.396  0.9133 -0.3039 -0.4184
 3011TIP3   OH230667   5.258   0.443   0.669  0.2017 -0.2378 -0.8593
 3011TIP3    H130668   5.217   0.387   0.603 -0.1832 -0.0147 -0.8176
 3011TIP3    H230669   5.332   0.393   0.702  0.1063 -0.5481 -1.1186
 3012TIP3   OH230670   4.150   3.317   0.287  0.1286  0.4379 -0.0876
 3012TIP3    H130671   4.190   3.291   0.370 -1.7098 -0.9026  0.4459
 3012TIP3    H230672   4.056   3.301   0.299 -0.0558 -1.5920 -3.0003
 3013TIP3   OH230673   1.526   2.628   8.663  0.3666 -0.0814  0.7268
 3013TIP3    H130674   1.444   2.595   8.627 -0.7920  1.0012  2.2773
 3013TIP3    H230675   1.518   2.615   8.758  1.5747  0.9077  0.9907
 3014TIP3   OH230676   4.236   6.418   8.637 -0.1271  0.3921  0.0290
 3014TIP3    H130677   4.306   6.376   8.688  0.6065  0.3541 -0.9839
 3014TIP3    H230678   4.190   6.472   8.701 -1.2475 -2.0682  1.4481
 3015TIP3   OH230679   2.664   0.029   8.716  0.0575  0.5424 -0.2338
 3015TIP3    H130680   2.594   0.030   8.781 -0.0214 -1.2088 -0.2325
 3015TIP3    H230681   2.698   0.118   8.715  0.7919  0.4011  3.0222
 3016TIP3   OH230682   2.381   4.228   0.108  0.2904 -0.0831  0.5810
 3016TIP3    H130683   2.433   4.294   0.154  0.9396 -1.6551  2.1917
 3016TIP3    H230684   2.302   4.219   0.160 -1.4444  1.8375 -1.5175
 3017TIP3   OH230685   3.091   1.331   1.574  0.2577  0.2502  0.0926
 3017TIP3    H130686   3.036   1.268   1.527  1.2553 -0.0345 -0.7239
 3017TIP3    H230687   3.169   1.282   1.598  0.4605  0.8311  0.6464
 3018TIP3   OH230688   6.499   3.543   6.723 -0.0794 -0.7459 -0.1212
 3018TIP3    H130689   6.482   3.472   6.661 -0.7248 -0.6460 -0.0605
 3018TIP3    H230690   6.413   3.572   6.752  0.2028 -0.6462  0.6656
 3019TIP3   OH230691   2.228   4.041   7.716  0.4850 -0.4127 -0.5312
 3019TIP3    H130692   2.191   3.953   7.709 -1.0280  0.1290  0.2773
 3019TIP3    H230693   2.152   4.099   7.721  1.4139  0.7393  1.3325
 3020TIP3   OH230694   1.695   0.921   8.445  0.4026 -0.3698  0.4162
 3020TIP3    H130695   1.741   0.906   8.527  0.2394  2.0679  1.0430
 3020TIP3    H230696   1.759   0.966   8.389  0.3412 -1.5224 -0.6212
 3021TIP3   OH230697   5.218   3.585   7.274 -0.4337  0.2105 -0.0568
 3021TIP3    H130698   5.186   3.594   7.364 -0.0387  0.6409  0.0446
 3021TIP3    H230699   5.152   3.532   7.230 -1.3023  1.0982  0.1465
 3022TIP3   OH230700   5.166   1.885   1.077  0.2190 -0.0295  0.3250
 3022TIP3    H130701   5.219   1.947   1.128  2.3034 -1.0845 -0.4387
 3022TIP3    H230702   5.203   1.890   0.989 -1.7505  0.0092 -0.5490
 3023TIP3   OH230703   2.040   5.785   2.572  0.0801 -0.2006 -0.1051
 3023TIP3    H130704   2.024   5.802   2.665  0.6628  1.9812 -0.3457
 3023TIP3    H230705   2.127   5.746   2.569 -0.0439 -0.5108  0.2680
 3024TIP3   OH230706   4.591   2.979   1.775 -0.6164  0.2489 -0.3283
 3024TIP3    H130707   4.599   2.901   1.721 -0.1475 -0.0054  0.1124
 3024TIP3    H230708   4.497   2.987   1.790 -0.5509 -1.2535  1.1180
 3025TIP3   OH230709   4.111   6.563   0.006 -0.1239  0.4787  0.1710
 3025TIP3    H130710   4.149   6.535   0.089  0.0271 -0.2815 -0.1454
 3025TIP3    H230711   4.021   6.529   0.008  0.3591 -0.9279 -0.6320
 3026TIP3   OH230712   5.535   4.603   1.280  0.4188 -0.0134 -0.3368
 3026TIP3    H130713   5.540   4.671   1.347 -0.9262 -0.7417  0.5590
 3026TIP3    H230714   5.529   4.650   1.197 -0.7872  0.9766  0.2817
 3027TIP3   OH230715   6.749   4.309   0.641  0.8010 -0.2904  0.4028
 3027TIP3    H130716   6.662   4.341   0.663  0.6200 -1.6211  1.7455
 3027TIP3    H230717   6.735   4.249   0.568  0.6708 -0.1689  0.3261
 3028TIP3   OH230718   2.171   4.925   7.414 -0.0416 -0.3634  0.5624
 3028TIP3    H130719   2.099   4.907   7.475  0.5717 -0.9904  1.1244
 3028TIP3    H230720   2.235   4.856   7.433  0.6945  0.1740  0.0567
 3029TIP3   OH230721   0.248   2.725   7.235  0.2652  0.1301  0.4471
 3029TIP3    H130722   0.179   2.710   7.170 -1.8638  2.0138  2.1008
 3029TIP3    H230723   0.286   2.809   7.209 -1.4401  1.5304  2.1820
 3030TIP3   OH230724   5.004   5.277   0.726 -0.0512  0.0429 -0.0819
 3030TIP3    H130725   4.920   5.300   0.766  0.5176  0.7452  0.7648
 3030TIP3    H230726   5.069   5.317   0.784  1.0081 -2.9441  0.9929
 3031TIP3   OH230727   2.010   2.480   0.616  0.0565 -0.2016 -0.0505
 3031TIP3    H130728   2.005   2.453   0.708  2.2316 -2.1839 -0.4261
 3031TIP3    H230729   2.057   2.409   0.572 -1.7298  0.2243 -2.9290
 3032TIP3   OH230730   1.137   1.030   1.619 -0.6641  0.3001 -0.0272
 3032TIP3    H130731   1.215   0.999   1.573 -0.4805  1.4066 -0.4940
 3032TIP3    H230732   1.169   1.055   1.706 -0.5309  0.5793 -0.1555
 3033TIP3   OH230733   4.934   1.941   6.730 -0.0378 -0.3341  0.1086
 3033TIP3    H130734   4.873   1.872   6.703  0.1717 -0.4219 -0.1384
 3033TIP3    H230735   4.992   1.953   6.655  1.8145 -1.9584  1.1896
 3034TIP3   OH230736   4.448   0.935   0.821 -0.6186 -0.4012  0.0729
 3034TIP3    H130737   4.471   0.978   0.904 -1.3955  0.5545 -0.1915
 3034TIP3    H230738   4.370   0.884   0.842 -0.1214 -1.1426  0.2014
 3035TIP3   OH230739   4.598   6.578   6.351  0.5380 -0.9549 -0.6040
 3035TIP3    H130740   4.646   6.661   6.350 -1.9744  0.6414  0.9753
 3035TIP3    H230741   4.590   6.555   6.444 -0.5472 -1.9001 -0.8984
 3036TIP3   OH230742   0.771   2.749   1.027  0.1435 -0.1220 -0.8406
 3036TIP3    H130743   0.729   2.829   0.995 -2.5484 -0.7468  0.7910
 3036TIP3    H230744   0.771   2.760   1.123  0.5436 -1.7027 -0.6401
 3037TIP3   OH230745   2.625   5.922   2.024 -0.1922  0.2633  0.3583
 3037TIP3    H130746   2.590   5.868   2.094  1.3783  0.9622  1.7533
 3037TIP3    H230747   2.601   6.011   2.048  3.1678  0.9128  1.9525
 3038TIP3   OH230748   2.093   4.526   1.026  0.0658  0.4121 -0.5614
 3038TIP3    H130749   2.169   4.511   0.970 -0.2472  1.1538 -1.2029
 3038TIP3    H230750   2.110   4.611   1.067  0.0194  0.1405  0.0332
 3039TIP3   OH230751   5.309   1.813   2.092  0.8822  0.0807 -0.6188
 3039TIP3    H130752   5.221   1.774   2.090  0.7609  0.1881  1.3822
 3039TIP3    H230753   5.366   1.745   2.055  0.2570 -0.8690  0.1173
 3040TIP3   OH230754   4.761   2.097   7.400  0.2460 -0.0282  0.1370
 3040TIP3    H130755   4.692   2.115   7.464  1.6430 -0.6037  1.8602
 3040TIP3    H230756   4.713   2.071   7.321 -1.5439 -1.4601  1.5804
 3041TIP3   OH230757   1.469   0.641   7.260 -0.1617 -0.2162  0.1451
 3041TIP3    H130758   1.492   0.647   7.168 -0.5461 -0.4733  0.0301
 3041TIP3    H230759   1.432   0.726   7.281  0.9689  0.2399  0.3602
 3042TIP3   OH230760   3.435   4.725   1.332 -0.0257 -0.3208  0.2725
 3042TIP3    H130761   3.414   4.793   1.268  1.5180  0.4376  0.5497
 3042TIP3    H230762   3.416   4.765   1.417 -1.9356 -1.2773  0.3582
 3043TIP3   OH230763   4.376   4.612   8.017  0.0201 -0.2327 -0.5974
 3043TIP3    H130764   4.296   4.632   7.968 -0.4594 -1.1441 -0.2010
 3043TIP3    H230765   4.380   4.517   8.018  0.7975 -0.1949 -0.0985
 3044TIP3   OH230766   5.755   5.395   7.292 -0.2865  0.3263  0.2361
 3044TIP3    H130767   5.672   5.349   7.281  0.9305 -1.3617 -4.7720
 3044TIP3    H230768   5.803   5.345   7.357 -2.6880  0.7454  2.4779
 3045TIP3   OH230769   0.059   2.399   8.748 -0.2139 -0.2409  0.2387
 3045TIP3    H130770   0.080   2.489   8.776  0.8873 -0.6026  0.6095
 3045TIP3    H230771  -0.021   2.378   8.796 -1.9112  1.3869 -1.6803
 3046TIP3   OH230772   4.736   4.006   1.121  0.2068 -0.2703  0.1037
 3046TIP3    H130773   4.729   4.097   1.150  0.4523  0.3405 -1.6229
 3046TIP3    H230774   4.799   3.966   1.181  0.2858  0.7701  0.7353
 3047TIP3   OH230775   1.910   6.181   1.048 -0.3833  0.2410  0.0033
 3047TIP3    H130776   1.845   6.205   1.114  0.4094 -0.8418  1.2249
 3047TIP3    H230777   1.860   6.173   0.967 -1.8174 -0.6440  0.9229
 3048TIP3   OH230778   3.648   5.523   0.750  0.3800  0.2622 -0.2984
 3048TIP3    H130779   3.726   5.472   0.769 -0.3906 -0.4990  0.9433
 3048TIP3    H230780   3.604   5.533   0.834 -1.2277  0.0381 -1.0623
 3049TIP3   OH230781   5.395   6.066   1.962 -0.4708 -0.0751 -0.7111
 3049TIP3    H130782   5.409   5.974   1.983 -0.6812  0.0321 -0.0816
 3049TIP3    H230783   5.464   6.087   1.898 -0.8089 -0.8223 -1.3239
 3050TIP3   OH230784   4.020   0.804   1.041 -0.1937 -0.5110 -0.2657
 3050TIP3    H130785   4.096   0.821   1.097 -0.4361  0.9311 -0.3434
 3050TIP3    H230786   3.945   0.832   1.093 -0.3845  1.3175 -1.4459
 3051TIP3   OH230787   4.697   6.694   0.307 -0.4023  0.1656 -0.4044
 3051TIP3    H130788   4.689   6.720   0.215  0.1799 -1.7384 -1.0373
 3051TIP3    H230789   4.647   6.613   0.314  1.2705 -0.8481  0.4329
 3052TIP3   OH230790   6.201   2.687   1.101  0.1298 -0.7482 -0.0686
 3052TIP3    H130791   6.141   2.682   1.027  0.7946  0.9262 -0.7930
 3052TIP3    H230792   6.197   2.779   1.128  1.3028 -0.9204  0.7671
 3053TIP3   OH230793   1.744   4.130   8.683  0.0748 -0.1879 -0.3867
 3053TIP3    H130794   1.689   4.126   8.762  1.4361 -0.4352  0.5743
 3053TIP3    H230795   1.831   4.103   8.712  1.5115  3.1199 -1.1702
 3054TIP3   OH230796   0.784   3.681   1.442  0.3792  0.1936  0.2100
 3054TIP3    H130797   0.850   3.687   1.372  1.0773  2.5447  0.9728
 3054TIP3    H230798   0.703   3.712   1.402  0.0507 -1.1972 -0.2852
 3055TIP3   OH230799   4.657   3.127   6.702  0.5627 -0.0955  0.0991
 3055TIP3    H130800   4.585   3.071   6.672 -0.7709  0.9004  1.3014
 3055TIP3    H230801   4.735   3.074   6.688 -0.6531 -2.3944  1.4374
 3056TIP3   OH230802   0.660   0.093   1.700  0.4702 -0.4050  0.2822
 3056TIP3    H130803   0.564   0.092   1.700  0.4644 -1.2749  1.3457
 3056TIP3    H230804   0.683   0.135   1.617 -0.8211 -2.5934 -1.2954
 3057TIP3   OH230805   6.528   5.256   1.437 -0.3079  0.0514  0.0491
 3057TIP3    H130806   6.470   5.331   1.428  1.0994  1.1218 -0.6114
 3057TIP3    H230807   6.610   5.284   1.395  0.9172 -1.1079  1.5181
 3058TIP3   OH230808   4.678   2.096   6.914 -0.0754  0.5236  0.2609
 3058TIP3    H130809   4.592   2.139   6.916  0.5593  1.8085  0.4930
 3058TIP3    H230810   4.673   2.038   6.838 -0.9402  1.0334 -0.0930
 3059TIP3   OH230811   2.223   0.460   7.634 -0.1748 -0.4747 -0.1724
 3059TIP3    H130812   2.176   0.421   7.561  0.6342  1.5535 -1.8483
 3059TIP3    H230813   2.155   0.502   7.687 -0.4464  1.4182 -1.9339
 3060TIP3   OH230814   3.781   3.586   0.342 -0.0031 -0.2787  0.1350
 3060TIP3    H130815   3.702   3.641   0.340 -0.1437 -0.3523  1.8774
 3060TIP3    H230816   3.761   3.517   0.405  1.7936  0.3037  1.4540
 3061TIP3   OH230817   2.446   0.625   0.162 -0.2308  0.2394  0.0328
 3061TIP3    H130818   2.361   0.581   0.156 -0.9160  1.6185 -0.8505
 3061TIP3    H230819   2.452   0.652   0.254 -1.4109  1.3302 -0.1699
 3062TIP3   OH230820   2.675   3.008   6.932 -0.1449  0.9832 -0.3225
 3062TIP3    H130821   2.594   2.973   6.895 -0.4643 -0.3554  1.4933
 3062TIP3    H230822   2.742   2.944   6.907 -0.3097  0.2331  1.0369
 3063TIP3   OH230823   4.057   5.116   0.062 -0.0361  0.0920 -0.0851
 3063TIP3    H130824   4.107   5.097   0.142  1.0925  1.0660 -0.5358
 3063TIP3    H230825   4.011   5.198   0.082  0.8440  0.7449 -0.6800
 3064TIP3   OH230826   6.114   0.067   1.295  0.0762 -0.4042  0.0807
 3064TIP3    H130827   6.188   0.018   1.259  1.2487  1.6915 -0.5363
 3064TIP3    H230828   6.048   0.064   1.226  0.9790  0.6718 -0.8684
 3065TIP3   OH230829   2.909   6.611   2.322 -0.0564  0.3067 -0.3110
 3065TIP3    H130830   2.818   6.633   2.337 -1.4067 -3.1496 -2.2494
 3065TIP3    H230831   2.949   6.610   2.409 -2.0927  0.9700  0.6713
 3066TIP3   OH230832   3.327   5.197   6.735  0.1450 -0.2931  0.1356
 3066TIP3    H130833   3.325   5.151   6.819 -2.0161  0.1094  0.3589
 3066TIP3    H230834   3.310   5.129   6.670 -0.3637 -0.2568  0.2279
 3067TIP3   OH230835   5.977   6.128   2.284  0.1784  0.0432  0.4496
 3067TIP3    H130836   6.010   6.168   2.365 -0.0703  0.9349  0.1165
 3067TIP3    H230837   5.926   6.197   2.242 -0.0637 -0.5562 -0.2553
 3068TIP3   OH230838   4.272   2.251   8.121  0.0061  0.0344 -0.3637
 3068TIP3    H130839   4.200   2.245   8.185  0.6964 -0.1722  0.4145
 3068TIP3    H230840   4.267   2.341   8.089 -1.3150 -0.3041 -1.1928
 3069TIP3   OH230841   4.565   0.506   0.077 -0.0281 -0.1890  0.0202
 3069TIP3    H130842   4.481   0.552   0.077 -0.7972 -1.5278  0.2710
 3069TIP3    H230843   4.549   0.427   0.025  1.1294 -0.3826 -0.0657
 3070TIP3   OH230844   5.190   0.555   7.912  0.1507 -0.4715 -0.2002
 3070TIP3    H130845   5.180   0.605   7.831 -1.0116 -2.0877 -1.1250
 3070TIP3    H230846   5.119   0.491   7.909  2.0674 -2.7797  0.4433
 3071TIP3   OH230847   6.798   1.182   6.882  0.5369 -0.1239  0.0582
 3071TIP3    H130848   6.816   1.270   6.851  0.0440  0.5832  1.7060
 3071TIP3    H230849   6.740   1.193   6.957  0.6434 -1.8340  0.4495
 3072TIP3   OH230850   1.580   2.350   0.446  0.2727  0.3529 -0.4277
 3072TIP3    H130851   1.543   2.437   0.432 -1.8285 -0.6614 -1.7048
 3072TIP3    H230852   1.613   2.324   0.360  0.9868 -0.0627 -0.0320
 3073TIP3   OH230853   0.630   1.487   0.044 -0.4150  1.0710 -0.1197
 3073TIP3    H130854   0.601   1.407   0.088  0.1677 -0.7023 -2.7355
 3073TIP3    H230855   0.571   1.555   0.077 -0.9197 -0.3788  2.2201
 3074TIP3   OH230856   2.239   5.327   1.067  0.0436  0.2660  0.3887
 3074TIP3    H130857   2.307   5.390   1.040 -1.6593  1.4159 -1.5069
 3074TIP3    H230858   2.211   5.285   0.986 -1.1739 -0.5400  1.1903
 3075TIP3   OH230859   4.365   1.361   1.768  0.7706  0.5150  0.5755
 3075TIP3    H130860   4.392   1.329   1.854  0.5542  0.6311  0.6877
 3075TIP3    H230861   4.270   1.370   1.775  0.7457  0.4543  0.3013
 3076TIP3   OH230862   3.354   6.421   7.713  0.2984  0.0397 -0.3726
 3076TIP3    H130863   3.380   6.503   7.672 -0.0054  1.1326  1.5268
 3076TIP3    H230864   3.424   6.359   7.691  1.4578  1.2958 -0.2846
 3077TIP3   OH230865   0.543   0.602   6.629  0.3545 -0.5984 -0.9487
 3077TIP3    H130866   0.597   0.525   6.613  1.6211  0.5033 -2.1916
 3077TIP3    H230867   0.603   0.676   6.624 -0.6219  0.4496  1.3159
 3078TIP3   OH230868   3.232   6.451   8.188  0.2858  0.0876  0.1301
 3078TIP3    H130869   3.270   6.457   8.275  1.0634  1.1791 -0.2587
 3078TIP3    H230870   3.307   6.443   8.129 -0.1199  1.1076 -0.5556
 3079TIP3   OH230871   3.725   4.874   0.519  0.5494  0.4843 -0.7158
 3079TIP3    H130872   3.634   4.881   0.549  0.7085  0.5687 -0.2536
 3079TIP3    H230873   3.760   4.798   0.564  0.6152  0.2569 -1.1435
 3080TIP3   OH230874   4.210   6.837   8.378  0.2612  0.4401  0.1082
 3080TIP3    H130875   4.191   6.793   8.461  0.2849  0.7999  0.3028
 3080TIP3    H230876   4.304   6.823   8.364  0.7794  2.3340  1.2986
 3081TIP3   OH230877   6.691   4.496   8.630  0.1499 -0.1574  0.2926
 3081TIP3    H130878   6.728   4.557   8.695  0.3479 -0.9041  0.9002
 3081TIP3    H230879   6.598   4.495   8.650  0.0102  0.5672 -0.2598
 3082TIP3   OH230880   6.739   3.685   6.751  0.0680 -0.2057  0.2782
 3082TIP3    H130881   6.728   3.753   6.818 -0.4500 -0.4526  0.4499
 3082TIP3    H230882   6.656   3.638   6.751  0.6218 -1.2192  0.5762
 3083TIP3   OH230883   0.732   5.602   8.481  0.3457 -0.4091  0.5719
 3083TIP3    H130884   0.769   5.684   8.446  0.5122 -1.3295 -1.5599
 3083TIP3    H230885   0.638   5.618   8.484  0.3942 -0.0673  0.3846
 3084TIP3   OH230886   3.996   0.304   0.185  0.0049 -0.3718  0.6054
 3084TIP3    H130887   3.902   0.286   0.172 -0.2839  1.7479 -0.7946
 3084TIP3    H230888   4.018   0.364   0.114  2.2302 -0.1014  1.4682
 3085TIP3   OH230889   6.285   6.723   0.211  0.2817 -0.7144  0.3887
 3085TIP3    H130890   6.353   6.655   0.218  0.6776 -0.3019  0.5807
 3085TIP3    H230891   6.277   6.757   0.300  2.6445  1.9574 -0.2913
 3086TIP3   OH230892   4.701   3.984   8.342 -0.6777 -0.0187 -0.0991
 3086TIP3    H130893   4.720   4.018   8.430 -0.7566  1.1203 -0.5018
 3086TIP3    H230894   4.751   3.902   8.336  1.6938  1.3231 -0.0055
 3087TIP3   OH230895   1.624   3.206   0.659 -0.5543 -0.1322 -0.1421
 3087TIP3    H130896   1.590   3.192   0.747  1.5789  0.9101  0.9015
 3087TIP3    H230897   1.689   3.137   0.646  0.1170  0.5271 -0.3556
 3088TIP3   OH230898   2.525   4.771   6.771 -0.4217 -0.4738 -0.0153
 3088TIP3    H130899   2.439   4.739   6.745 -1.3704  1.9585 -0.1860
 3088TIP3    H230900   2.568   4.793   6.688 -0.7320  0.8167  0.1439
 3089TIP3   OH230901   6.585   5.176   7.079 -0.0672  0.7856  0.3774
 3089TIP3    H130902   6.602   5.082   7.076 -0.0955  0.7990 -0.8406
 3089TIP3    H230903   6.509   5.185   7.137 -0.1778  0.0413  0.3511
 3090TIP3   OH230904   5.777   6.237   2.067 -0.7020 -0.1592 -0.6983
 3090TIP3    H130905   5.761   6.143   2.059 -0.2759 -0.1304 -1.9736
 3090TIP3    H230906   5.690   6.274   2.084 -0.6242 -0.9492  1.8931
 3091TIP3   OH230907   0.327   2.723   8.256 -0.2779  0.0301  0.1829
 3091TIP3    H130908   0.285   2.649   8.300  0.4138 -0.4853 -0.0032
 3091TIP3    H230909   0.361   2.686   8.175  0.3609  0.4794  0.2386
 3092TIP3   OH230910   3.053   0.634   6.460  0.1575 -0.4340  0.0005
 3092TIP3    H130911   3.008   0.646   6.376  3.0508  0.0216 -1.5875
 3092TIP3    H230912   3.079   0.722   6.486  0.1012 -0.6840  0.9417
 3093TIP3   OH230913   1.139   2.949   8.137 -0.3464  0.0932 -0.0919
 3093TIP3    H130914   1.200   2.999   8.191  0.6993 -0.7790 -0.4189
 3093TIP3    H230915   1.096   3.014   8.083  1.1773  0.6515 -0.7024
 3094TIP3   OH230916   6.697   5.465   0.553  0.5865 -0.0298  0.1287
 3094TIP3    H130917   6.723   5.373   0.539  0.3678 -0.1978  0.7991
 3094TIP3    H230918   6.752   5.495   0.625 -1.3987 -0.5610  1.9755
 3095TIP3   OH230919   1.014   3.133   7.957 -0.0581 -0.1592  0.1635
 3095TIP3    H130920   0.939   3.150   8.014  0.3922 -1.3579  1.1552
 3095TIP3    H230921   1.051   3.220   7.939 -0.7582  0.3110  0.9438
 3096TIP3   OH230922   6.379   4.503   0.320  0.0504 -0.3226 -0.1011
 3096TIP3    H130923   6.467   4.503   0.282  0.5958  0.4540  1.1182
 3096TIP3    H230924   6.382   4.435   0.387 -1.0000 -1.9033 -1.5701
 3097TIP3   OH230925   1.669   4.668   1.193 -0.0378 -0.5990 -0.0303
 3097TIP3    H130926   1.687   4.723   1.116 -0.9082  0.2929  0.3862
 3097TIP3    H230927   1.574   4.661   1.195  0.0309 -1.4915  0.3751
 3098TIP3   OH230928   1.477   4.244   0.814  0.1820 -0.1266 -0.0666
 3098TIP3    H130929   1.419   4.315   0.843  0.7502 -0.0659  0.9692
 3098TIP3    H230930   1.512   4.274   0.730 -0.8414  0.0875 -0.4292
 3099TIP3   OH230931   1.032   3.759   1.325 -0.0412 -0.0729 -0.1381
 3099TIP3    H130932   1.071   3.732   1.408 -0.3382  0.4433  0.1789
 3099TIP3    H230933   1.091   3.724   1.258 -1.1576 -2.6952  0.1648
 3100TIP3   OH230934   4.522   4.933   0.319  0.3033  0.0498 -0.7047
 3100TIP3    H130935   4.508   4.891   0.403  0.9192  0.3031 -0.4715
 3100TIP3    H230936   4.616   4.944   0.313  0.1266  2.2913 -0.2989
 3101TIP3   OH230937   2.737   6.553   8.296  0.3075  0.3996 -0.0026
 3101TIP3    H130938   2.786   6.622   8.340  1.8600  0.0259 -1.0903
 3101TIP3    H230939   2.706   6.593   8.215  1.2980 -0.1805 -0.6847
 3102TIP3   OH230940   2.271   5.504   7.732  0.0363  0.1624 -0.1136
 3102TIP3    H130941   2.178   5.508   7.757 -0.0744  1.1394 -0.6396
 3102TIP3    H230942   2.271   5.521   7.637  0.8279  1.1555  0.0480
 3103TIP3   OH230943   5.394   6.635   8.237 -0.1078  0.1196 -0.3379
 3103TIP3    H130944   5.380   6.619   8.144  0.0742  0.6475 -0.4611
 3103TIP3    H230945   5.490   6.636   8.246 -0.0617 -2.7060  0.3530
 3104TIP3   OH230946   4.485   3.524   7.950  0.5054  0.1356 -0.0708
 3104TIP3    H130947   4.407   3.579   7.958  0.4726  0.1203 -0.2853
 3104TIP3    H230948   4.516   3.514   8.040  0.7071  0.7777 -0.0660
 3105TIP3   OH230949   0.079   1.766   7.660 -0.4361  0.4972 -0.1737
 3105TIP3    H130950   0.053   1.801   7.745  3.4905 -1.6644  2.2733
 3105TIP3    H230951   0.157   1.817   7.636 -0.7696  0.2603 -1.9160
 3106TIP3   OH230952   2.953   4.516   7.763  0.2038  0.3279 -0.2865
 3106TIP3    H130953   2.903   4.587   7.802  0.1198 -0.3696  0.9182
 3106TIP3    H230954   2.919   4.437   7.803  2.7433 -0.1328  1.1868
 3107TIP3   OH230955   6.201   0.412   7.664 -0.0539 -0.0889 -0.1044
 3107TIP3    H130956   6.144   0.481   7.630  0.5865  0.9206  0.7996
 3107TIP3    H230957   6.146   0.364   7.726 -0.5043 -0.4091 -0.7395
 3108TIP3   OH230958   6.834   1.402   7.425 -0.1748 -0.1285  0.6438
 3108TIP3    H130959   6.857   1.329   7.483 -1.3846 -0.8943  0.1844
 3108TIP3    H230960   6.743   1.386   7.399 -0.2935  1.2481  0.0841
 3109TIP3   OH230961   0.706   3.315   0.372  0.2410  0.1520 -0.0824
 3109TIP3    H130962   0.637   3.282   0.314  0.7327  0.0332 -0.6081
 3109TIP3    H230963   0.685   3.277   0.457 -0.3584  0.1400 -0.2288
 3110TIP3   OH230964   6.434   2.865   1.986 -0.8983  0.3530  0.3820
 3110TIP3    H130965   6.429   2.943   2.041 -1.1439  0.6783 -0.0990
 3110TIP3    H230966   6.350   2.863   1.939  0.0838  1.2205 -1.5154
 3111TIP3   OH230967   5.693   6.260   1.375  0.4736  0.3979 -0.0742
 3111TIP3    H130968   5.714   6.335   1.319  0.7687  1.2214  1.0912
 3111TIP3    H230969   5.618   6.290   1.427 -0.5245 -0.7625 -0.7828
 3112TIP3   OH230970   0.317   1.402   7.525  0.1399 -0.3054 -0.1621
 3112TIP3    H130971   0.289   1.448   7.446  1.9957  1.0836 -0.0756
 3112TIP3    H230972   0.258   1.433   7.594 -0.0704  0.1935 -0.5627
 3113TIP3   OH230973   6.820   0.116   1.522 -0.0984  0.1517 -0.1263
 3113TIP3    H130974   6.802   0.152   1.435  0.0602 -0.1038 -0.2671
 3113TIP3    H230975   6.912   0.091   1.519  0.7847  2.8866  1.1090
 3114TIP3   OH230976   1.800   2.714   8.592  0.2292  0.1104 -0.0058
 3114TIP3    H130977   1.807   2.798   8.547  0.6509 -1.0429 -2.2150
 3114TIP3    H230978   1.706   2.696   8.596  0.2231 -0.6487 -2.2696
 3115TIP3   OH230979   6.643   1.627   1.118  0.2866  0.2460 -0.2681
 3115TIP3    H130980   6.673   1.708   1.077 -1.7547  1.0524 -0.2962
 3115TIP3    H230981   6.571   1.597   1.061 -0.0100 -0.7283  0.5990
 3116TIP3   OH230982   0.744   6.052   8.122  0.3044  0.2449  0.4276
 3116TIP3    H130983   0.715   6.143   8.113  0.0439  0.1374  0.1835
 3116TIP3    H230984   0.691   6.003   8.059  0.5870 -0.0456  0.4115
 3117TIP3   OH230985   2.004   5.947   7.530  0.2816  0.3392  0.4223
 3117TIP3    H130986   2.005   5.858   7.496  0.2791  0.2650  0.6152
 3117TIP3    H230987   1.926   5.987   7.492  0.9043  0.6230 -0.5858
 3118TIP3   OH230988   1.072   2.122   0.298  0.7390  0.1991  0.0099
 3118TIP3    H130989   1.024   2.042   0.316  1.4536  0.1507  1.8982
 3118TIP3    H230990   1.157   2.093   0.266 -0.9275  0.2448 -5.6048
 3119TIP3   OH230991   5.861   4.909   0.698  0.5546 -0.2720  0.1784
 3119TIP3    H130992   5.912   4.925   0.618 -0.5440 -0.0328 -0.4998
 3119TIP3    H230993   5.916   4.852   0.751  1.9995  0.8595 -0.0372
 3120TIP3   OH230994   6.759   5.768   2.654 -0.3620  0.3765 -0.4891
 3120TIP3    H130995   6.712   5.726   2.726  0.9981 -2.8211 -1.2661
 3120TIP3    H230996   6.695   5.773   2.583 -0.9098  0.8866  0.0322
 3121TIP3   OH230997   6.798   4.919   7.559  0.2324  0.2827  0.2177
 3121TIP3    H130998   6.845   4.876   7.487  0.6845  2.5491 -0.9388
 3121TIP3    H230999   6.733   4.974   7.515  0.1367  1.2995  1.5690
 3122TIP3   OH231000   4.978   2.154   1.382 -0.1140  0.4133 -0.0596
 3122TIP3    H131001   4.981   2.113   1.468  0.8143 -1.0422 -0.7625
 3122TIP3    H231002   5.046   2.222   1.386  1.1322 -0.7975 -0.1953
 3123TIP3   OH231003   5.435   4.058   6.999  0.4760  0.0463 -0.7054
 3123TIP3    H131004   5.370   4.035   7.066 -1.2827  0.1890 -2.2854
 3123TIP3    H231005   5.472   4.141   7.030 -0.3930  0.1771  0.0251
 3124TIP3   OH231006   3.368   5.219   1.077 -0.0107 -0.1369  0.2133
 3124TIP3    H131007   3.312   5.148   1.048  1.4030 -1.6618  1.0316
 3124TIP3    H231008   3.441   5.176   1.122  0.3868  1.8760  1.6529
 3125TIP3   OH231009   6.367   3.739   8.538  0.1100  0.0909 -0.5446
 3125TIP3    H131010   6.401   3.778   8.619  0.1875  2.3147 -1.5853
 3125TIP3    H231011   6.425   3.664   8.522  1.5884  1.0285  0.2146
 3126TIP3   OH231012   5.512   5.549   2.744  0.6822  0.2969  0.4350
 3126TIP3    H131013   5.466   5.632   2.729  0.8298  0.3287  0.1540
 3126TIP3    H231014   5.601   5.576   2.767  0.2675  0.2809  2.1561
 3127TIP3   OH231015   0.537   0.935   1.853 -0.1151  0.7692  0.0189
 3127TIP3    H131016   0.607   0.994   1.824  0.8095 -0.5243 -0.4893
 3127TIP3    H231017   0.458   0.988   1.848  0.8664  2.4301  1.0886
 3128TIP3   OH231018   4.368   2.055   1.647 -1.2321  0.0621  0.3062
 3128TIP3    H131019   4.366   1.974   1.696  2.9045 -0.4511 -0.0643
 3128TIP3    H231020   4.353   2.029   1.556 -0.5570 -0.1981  0.2689
 3129TIP3   OH231021   3.005   3.175   7.337  0.1250  0.0177 -0.0694
 3129TIP3    H131022   3.043   3.167   7.424 -1.1774  1.0763  0.6434
 3129TIP3    H231023   2.948   3.098   7.328 -1.4494  1.0167  0.9558
 3130TIP3   OH231024   1.910   5.535   2.474 -0.1388 -0.3358  0.0940
 3130TIP3    H131025   1.815   5.546   2.478 -0.1800 -0.9019  2.7007
 3130TIP3    H231026   1.946   5.621   2.494 -0.1063 -0.3229 -0.0156
 3131TIP3   OH231027   0.014   6.825   7.882  0.0131 -0.2986  0.1587
 3131TIP3    H131028   0.091   6.776   7.912  1.2099  0.0069 -2.1953
 3131TIP3    H231029  -0.044   6.758   7.846 -0.7983 -0.5020  1.7327
 3132TIP3   OH231030   0.794   5.194   1.063 -0.5451  0.2993 -0.1068
 3132TIP3    H131031   0.780   5.281   1.101 -1.6947 -0.3477  1.0379
 3132TIP3    H231032   0.732   5.189   0.991  0.3133  0.8297 -0.8984
 3133TIP3   OH231033   5.823   1.864   7.599 -0.0417  0.3013 -0.5984
 3133TIP3    H131034   5.913   1.896   7.597 -0.5207  1.8072  0.1354
 3133TIP3    H231035   5.773   1.937   7.636 -1.6805 -0.2151 -1.6826
 3134TIP3   OH231036   1.690   1.362   8.438 -0.1153  0.0775  0.2355
 3134TIP3    H131037   1.734   1.284   8.474  0.3941 -0.7041 -1.9337
 3134TIP3    H231038   1.610   1.328   8.398 -0.0549  0.7061 -0.4406
 3135TIP3   OH231039   2.227   2.401   7.072  0.0510 -0.4661  0.0048
 3135TIP3    H131040   2.159   2.454   7.030  0.4216  0.4431  0.5153
 3135TIP3    H231041   2.307   2.424   7.024 -0.0538 -1.9346 -0.9518
 3136TIP3   OH231042   6.411   6.821   6.801 -0.0588 -0.1334  0.0216
 3136TIP3    H131043   6.466   6.862   6.734  1.1516  0.0674  1.1019
 3136TIP3    H231044   6.425   6.727   6.790 -0.1149 -0.1155 -0.2038
 3137TIP3   OH231045   2.624   6.292   1.836 -0.0768 -0.4963 -0.2420
 3137TIP3    H131046   2.619   6.239   1.915 -0.0818 -0.6448 -0.3410
 3137TIP3    H231047   2.710   6.271   1.799 -0.4877 -1.2139 -0.8238
 3138TIP3   OH231048   2.803   0.851   7.430 -0.1378  0.1065 -0.0931
 3138TIP3    H131049   2.804   0.778   7.368 -0.7404  0.3371 -0.3736
 3138TIP3    H231050   2.747   0.821   7.502 -1.3178  0.7237 -0.7382
 3139TIP3   OH231051   1.001   3.733   1.972  0.4080 -0.0146 -0.0214
 3139TIP3    H131052   0.989   3.792   2.046 -0.8654 -1.7565  1.2379
 3139TIP3    H231053   0.932   3.758   1.910  0.6778  0.6137 -0.0811
 3140TIP3   OH231054   4.817   3.916   0.040  0.0808 -0.0414  0.0580
 3140TIP3    H131055   4.872   3.919   0.118  0.5444 -0.1638 -0.2598
 3140TIP3    H231056   4.732   3.950   0.069  0.4787  0.6679  0.4159
 3141TIP3   OH231057   3.516   5.112   2.935  0.3851 -0.1219  0.1946
 3141TIP3    H131058   3.492   5.115   3.027  1.6068  0.7585  0.5079
 3141TIP3    H231059   3.572   5.034   2.927  0.6952  0.0859  0.3139
 3142TIP3   OH231060   2.173   1.655   2.425  0.5772  0.0516  0.9559
 3142TIP3    H131061   2.146   1.731   2.373  0.0391 -0.4561  0.4681
 3142TIP3    H231062   2.180   1.584   2.361 -1.4604 -0.9299  1.7184
 3143TIP3   OH231063   1.116   3.924   0.866 -0.0227  0.2555  0.4436
 3143TIP3    H131064   1.104   3.849   0.925  0.1301 -0.1532 -0.0384
 3143TIP3    H231065   1.134   3.884   0.781  2.7981  0.8216  0.6981
 3144TIP3   OH231066   0.423   5.568   0.623 -0.3564  0.1258 -0.1720
 3144TIP3    H131067   0.504   5.619   0.619 -0.5343  0.4217 -0.0553
 3144TIP3    H231068   0.362   5.624   0.671 -0.2978 -0.5590  0.7204
 3145TIP3   OH231069   2.095   2.244   7.503 -0.3042  0.3633 -0.8123
 3145TIP3    H131070   2.095   2.340   7.495  0.1607  0.3112 -1.4742
 3145TIP3    H231071   2.003   2.221   7.515 -0.2323  1.0634  1.6349
 3146TIP3   OH231072   5.505   3.600   8.201 -0.3763  0.5937  0.2113
 3146TIP3    H131073   5.570   3.533   8.179 -1.7770 -0.2813 -1.4967
 3146TIP3    H231074   5.538   3.640   8.281  1.3659 -0.9973  0.3497
 3147TIP3   OH231075   6.008   0.991   7.171 -0.0881 -0.6691 -0.3543
 3147TIP3    H131076   5.935   0.939   7.139 -0.4678  0.3244 -1.1345
 3147TIP3    H231077   5.971   1.078   7.187  0.8840 -0.1856 -0.6526
 3148TIP3   OH231078   0.230   0.802   1.675  0.1391  0.2059 -0.5438
 3148TIP3    H131079   0.220   0.781   1.768 -1.4198  0.3701 -0.6514
 3148TIP3    H231080   0.199   0.723   1.630 -0.7239  0.7541 -0.9248
 3149TIP3   OH231081   4.266   5.741   6.855 -0.1256  0.1937 -0.5751
 3149TIP3    H131082   4.181   5.740   6.812 -0.5573 -1.7009  0.1718
 3149TIP3    H231083   4.303   5.654   6.837  0.7678  0.2663  0.7319
 3150TIP3   OH231084   5.425   2.872   0.556 -0.0611 -0.1196  0.2365
 3150TIP3    H131085   5.462   2.911   0.477  0.0643  1.8723  1.2136
 3150TIP3    H231086   5.480   2.797   0.575  0.5255 -0.0159 -1.0025
 3151TIP3   OH231087   5.221   6.188   7.382 -0.2076 -0.5256 -0.1529
 3151TIP3    H131088   5.227   6.283   7.370 -0.5134 -0.4636  0.1657
 3151TIP3    H231089   5.307   6.155   7.356 -0.0375 -0.1425 -0.0844
 3152TIP3   OH231090   5.137   3.217   7.246  0.0497  0.6006  0.2280
 3152TIP3    H131091   5.054   3.263   7.233 -0.5120 -0.4934 -0.1149
 3152TIP3    H231092   5.122   3.159   7.320  0.0642 -0.5835 -0.6738
 3153TIP3   OH231093   0.973   3.882   0.164  0.0258 -0.6447 -0.1942
 3153TIP3    H131094   0.938   3.830   0.092 -1.5190  0.5027 -0.3227
 3153TIP3    H231095   1.058   3.912   0.133  0.1244 -1.5552 -0.8454
 3154TIP3   OH231096   5.095   6.508   7.250  0.0294  0.7075 -0.1589
 3154TIP3    H131097   5.089   6.443   7.180 -0.7907  1.1322 -0.5035
 3154TIP3    H231098   5.085   6.592   7.205 -1.3800  0.9533  0.5581
 3155TIP3   OH231099   0.107   0.266   1.040 -0.6452  0.6646  0.0043
 3155TIP3    H131100   0.147   0.222   0.965  0.5571  1.8045 -0.0453
 3155TIP3    H231101   0.168   0.252   1.112  0.4189  3.2601 -0.3118
 3156TIP3   OH231102   0.334   4.973   2.067  0.2077  0.1423 -0.3588
 3156TIP3    H131103   0.379   5.054   2.092  1.6391 -1.0733  1.1306
 3156TIP3    H231104   0.241   4.991   2.085  0.5838  1.2230  0.5983
 3157TIP3   OH231105   1.373   5.487   8.012  0.2508  0.2841 -0.3319
 3157TIP3    H131106   1.391   5.529   7.928 -0.0878 -0.7442 -0.9500
 3157TIP3    H231107   1.286   5.519   8.037 -0.1129 -0.2063 -0.9217
 3158TIP3   OH231108   4.350   2.790   8.790  0.2015 -0.1488 -0.4845
 3158TIP3    H131109   4.433   2.837   8.793 -0.3217  0.8062 -0.2653
 3158TIP3    H231110   4.335   2.773   8.697 -0.8176  2.4767 -0.8874
 3159TIP3   OH231111   3.368   3.189   1.933 -0.0128 -0.1934 -0.1521
 3159TIP3    H131112   3.303   3.190   1.863  0.8269 -2.4871 -1.0366
 3159TIP3    H231113   3.333   3.128   1.998 -0.2725  1.1060  0.9824
 3160TIP3   OH231114   1.437   0.040   0.207 -0.3429 -0.0579 -0.0109
 3160TIP3    H131115   1.438   0.135   0.201 -2.5402  0.0282  0.1400
 3160TIP3    H231116   1.348   0.015   0.183 -0.2225 -1.9864  1.2671
 3161TIP3   OH231117   1.147   3.289   6.187  0.2664  0.0364 -0.0461
 3161TIP3    H131118   1.146   3.229   6.263 -1.0000  2.0743  1.6510
 3161TIP3    H231119   1.055   3.310   6.172  0.6283  0.9512 -1.1175
 3162TIP3   OH231120   6.498   2.283   6.678 -0.0593 -0.1589 -0.1022
 3162TIP3    H131121   6.575   2.310   6.729 -1.1394  1.8515  0.5925
 3162TIP3    H231122   6.425   2.295   6.738 -1.1563  0.1630 -1.4628
 3163TIP3   OH231123   1.967   3.508   8.251 -0.2949 -0.2192 -0.1892
 3163TIP3    H131124   1.979   3.413   8.254  0.5756 -0.1125 -0.1212
 3163TIP3    H231125   1.879   3.522   8.285 -0.1238 -0.9408  0.5737
 3164TIP3   OH231126   4.436   4.180   1.687  0.1777  0.3381  0.0119
 3164TIP3    H131127   4.432   4.270   1.719 -0.9497  0.4222 -0.3062
 3164TIP3    H231128   4.507   4.140   1.736  0.4184  1.2891  0.4591
 3165TIP3   OH231129   2.341   6.217   7.031  0.0526  0.5754  0.3257
 3165TIP3    H131130   2.416   6.213   6.972 -0.2838 -0.7609 -0.0435
 3165TIP3    H231131   2.271   6.171   6.985 -0.2271 -0.4655  1.7192
 3166TIP3   OH231132   5.370   4.461   7.535 -0.0843  0.0509 -0.6367
 3166TIP3    H131133   5.451   4.481   7.583 -0.1195 -1.4704  0.1301
 3166TIP3    H231134   5.307   4.526   7.566  0.7906  1.1755 -1.1468
 3167TIP3   OH231135   0.123   6.033   8.199  0.1656  0.6092 -0.3878
 3167TIP3    H131136   0.035   6.041   8.161  0.7369  0.0245 -1.9510
 3167TIP3    H231137   0.116   5.961   8.261 -0.3014  0.0720 -1.0469
 3168TIP3   OH231138   1.484   5.107   8.815  0.3307  1.0487  0.0405
 3168TIP3    H131139   1.545   5.036   8.832  1.3989  1.4119 -1.9797
 3168TIP3    H231140   1.522   5.183   8.859  2.5997  1.7763 -2.8446
 3169TIP3   OH231141   4.819   4.984   2.035 -0.3311 -0.2820 -0.6372
 3169TIP3    H131142   4.914   4.977   2.045 -0.2904  0.3392 -0.5530
 3169TIP3    H231143   4.807   5.042   1.960 -0.6337  0.5530  0.0372
 3170TIP3   OH231144   3.522   0.247   0.314 -0.3945  0.1152  0.1920
 3170TIP3    H131145   3.487   0.277   0.398 -1.4618  2.8295 -1.0765
 3170TIP3    H231146   3.490   0.312   0.251  1.5905 -0.9876 -2.1001
 3171TIP3   OH231147   0.977   6.122   8.033  0.2975  0.2267  0.0489
 3171TIP3    H131148   0.911   6.057   8.057  0.5646  0.0429  0.3017
 3171TIP3    H231149   0.994   6.170   8.114  0.6788  0.0859  0.0535
 3172TIP3   OH231150   4.860   2.344   7.379  0.2435  0.1760  0.3109
 3172TIP3    H131151   4.810   2.266   7.358 -0.0646  0.5442 -0.3294
 3172TIP3    H231152   4.827   2.411   7.320  1.3411  0.4800  0.0220
 3173TIP3   OH231153   4.284   2.824   7.594 -0.2261 -0.0229 -0.1089
 3173TIP3    H131154   4.235   2.898   7.631 -0.5164 -0.7736  1.0794
 3173TIP3    H231155   4.219   2.776   7.543 -0.6270 -0.7203  1.0259
 3174TIP3   OH231156   4.492   5.250   8.225  0.5221  0.1733  0.2214
 3174TIP3    H131157   4.568   5.209   8.266  1.1917  2.4379  1.4345
 3174TIP3    H231158   4.416   5.211   8.268  1.0088 -1.2218 -0.1257
 3175TIP3   OH231159   5.875   1.761   1.320  0.4255 -0.0925  0.3647
 3175TIP3    H131160   5.924   1.691   1.278  1.9764  0.3481  1.3498
 3175TIP3    H231161   5.934   1.796   1.386 -1.2449  0.4684  1.6485
 3176TIP3   OH231162   5.877   0.415   1.653  0.2957  0.1219  0.1799
 3176TIP3    H131163   5.970   0.430   1.637  0.4400  1.7490  2.1653
 3176TIP3    H231164   5.867   0.419   1.748 -1.8325  0.1618  0.0191
 3177TIP3   OH231165   4.263   5.676   2.048  0.1776  0.2832  0.2982
 3177TIP3    H131166   4.251   5.698   2.141 -1.0226  1.1735 -0.0441
 3177TIP3    H231167   4.352   5.705   2.029  0.2551  0.5744  1.0412
 3178TIP3   OH231168   2.373   4.736   7.104  0.3084  0.1800  0.0432
 3178TIP3    H131169   2.409   4.657   7.145  0.1647 -0.7823 -1.6105
 3178TIP3    H231170   2.279   4.721   7.102  0.3461  0.0234 -0.9871
 3179TIP3   OH231171   6.589   3.848   1.135 -0.2446  0.7538  0.0666
 3179TIP3    H131172   6.659   3.903   1.101 -0.6226  0.7931 -0.6581
 3179TIP3    H231173   6.623   3.816   1.219 -0.0883  2.2388  0.6056
 3180TIP3   OH231174   2.287   2.985   2.699  0.8755  0.6487 -0.0002
 3180TIP3    H131175   2.256   3.048   2.764 -0.3902 -0.5098  0.5747
 3180TIP3    H231176   2.370   2.953   2.734  1.4203  1.8089 -0.1890
 3181TIP3   OH231177   4.410   3.678   1.540  0.1372 -0.0894  0.6345
 3181TIP3    H131178   4.482   3.700   1.481  0.4553  0.2480  1.1472
 3181TIP3    H231179   4.452   3.651   1.621 -0.2422  3.9298  2.3949
 3182TIP3   OH231180   3.050   1.465   0.447  0.1530  0.4826  0.1800
 3182TIP3    H131181   3.084   1.512   0.523 -0.3038  0.9868  0.0782
 3182TIP3    H231182   3.005   1.532   0.395 -0.6524 -0.0893  0.1218
 3183TIP3   OH231183   4.231   2.033   6.794  0.5226 -0.6483  0.1004
 3183TIP3    H131184   4.228   2.120   6.755 -0.1714 -1.2338 -1.2133
 3183TIP3    H231185   4.289   1.983   6.737 -1.2990 -1.7961 -0.8485
 3184TIP3   OH231186   2.899   5.063   1.154 -0.1020 -0.3083 -0.2267
 3184TIP3    H131187   2.860   5.061   1.242  1.3223 -0.0386  0.4480
 3184TIP3    H231188   2.947   5.146   1.152  0.4433 -0.6396 -1.0082
 3185TIP3   OH231189   0.423   0.512   0.929  0.4059  0.4588 -0.0492
 3185TIP3    H131190   0.513   0.546   0.936 -0.0221  1.2811  3.1071
 3185TIP3    H231191   0.434   0.417   0.925  1.4089  0.5682 -0.3036
 3186TIP3   OH231192   2.812   4.772   0.489  0.3465 -0.5009  0.6017
 3186TIP3    H131193   2.800   4.833   0.416 -0.1613 -2.3769 -0.9858
 3186TIP3    H231194   2.882   4.810   0.541 -0.1091  1.5224 -0.1723
 3187TIP3   OH231195   0.363   4.650   1.795  0.6153 -0.3320 -0.0732
 3187TIP3    H131196   0.406   4.735   1.805 -0.0612  0.0645 -0.4477
 3187TIP3    H231197   0.271   4.667   1.816  0.7875 -1.3825  1.7543
 3188TIP3   OH231198   1.022   0.891   0.751  0.7500  0.3171  0.0248
 3188TIP3    H131199   1.003   0.942   0.672  2.8309  1.2064  0.0523
 3188TIP3    H231200   0.951   0.912   0.811  1.1912  2.7070 -0.2048
 3189TIP3   OH231201   6.528   4.464   0.656  0.6304 -0.0683  0.1130
 3189TIP3    H131202   6.494   4.403   0.722  0.0668  0.8529  0.6952
 3189TIP3    H231203   6.480   4.545   0.671  1.8003  0.7211 -0.2296
 3190TIP3   OH231204   3.972   3.820   7.449 -0.2067 -0.6671 -0.1066
 3190TIP3    H131205   3.878   3.801   7.449 -0.3041 -0.2119  0.1385
 3190TIP3    H231206   3.979   3.908   7.411  0.1693 -0.9138 -0.6084
 3191TIP3   OH231207   4.196   3.227   7.178 -0.1513 -0.4264 -0.0778
 3191TIP3    H131208   4.268   3.261   7.126 -1.3137  0.1239 -1.3997
 3191TIP3    H231209   4.159   3.303   7.221  0.9792 -0.9178  1.8577
 3192TIP3   OH231210   2.014   2.295   0.326  0.1974  0.3722 -0.2137
 3192TIP3    H131211   2.083   2.292   0.392 -0.5140 -0.4772  0.5016
 3192TIP3    H231212   2.060   2.276   0.244  0.9324  0.5350  0.1487
 3193TIP3   OH231213   0.359   0.542   6.882  0.0388 -0.0980 -0.4617
 3193TIP3    H131214   0.303   0.558   6.958 -0.2661  2.5494 -1.1287
 3193TIP3    H231215   0.357   0.447   6.870 -0.9588 -0.4704  2.0153
 3194TIP3   OH231216   6.314   2.933   0.126  0.2750  0.5704  0.3691
 3194TIP3    H131217   6.255   2.862   0.152 -0.3039  1.6644  2.2788
 3194TIP3    H231218   6.373   2.894   0.062 -1.4817 -1.0071 -0.3788
 3195TIP3   OH231219   3.646   6.081   2.583 -0.9364 -0.2757  0.0072
 3195TIP3    H131220   3.718   6.023   2.610 -0.1134  1.0330  0.7384
 3195TIP3    H231221   3.576   6.063   2.645 -1.6180 -2.1752 -1.2178
 3196TIP3   OH231222   0.729   6.504   1.822  0.2637  0.3952 -0.1101
 3196TIP3    H131223   0.797   6.495   1.888  0.7974 -0.3933 -0.7457
 3196TIP3    H231224   0.648   6.518   1.871  0.8069  0.8408  0.6666
 3197TIP3   OH231225   0.110   4.802   1.886 -0.5179 -0.0991 -0.4534
 3197TIP3    H131226   0.118   4.886   1.931 -2.4687 -0.0941 -0.0496
 3197TIP3    H231227   0.061   4.746   1.946  1.3260 -1.8058 -0.4198
 3198TIP3   OH231228   1.067   1.691   6.657  0.1683 -0.3308  0.1467
 3198TIP3    H131229   1.112   1.634   6.594 -0.0089 -0.8104  0.4472
 3198TIP3    H231230   0.974   1.675   6.641  0.1046  0.5353 -0.3611
 3199TIP3   OH231231   0.538   6.798   7.361  0.4177 -0.2828  0.0797
 3199TIP3    H131232   0.577   6.796   7.274 -1.9948 -0.4444 -1.0976
 3199TIP3    H231233   0.453   6.754   7.350 -0.6435  1.0596  2.1373
 3200TIP3   OH231234   3.219   1.538   8.283  0.3896  0.2630  0.5994
 3200TIP3    H131235   3.266   1.596   8.344 -1.0453  1.5536  0.5344
 3200TIP3    H231236   3.283   1.519   8.215  1.5773 -0.0437  1.7605
 3201TIP3   OH231237   0.919   4.454   6.825 -0.4369  0.5543  0.1182
 3201TIP3    H131238   0.959   4.470   6.739  1.1605  0.2920  0.7739
 3201TIP3    H231239   0.890   4.540   6.854 -1.1961  0.6140 -0.7674
 3202TIP3   OH231240   1.970   5.611   2.188  0.1996 -0.4141 -0.0444
 3202TIP3    H131241   1.933   5.630   2.274 -0.4754 -0.4945 -0.3111
 3202TIP3    H231242   1.949   5.689   2.135  0.8287 -0.2570 -0.0727
 3203TIP3   OH231243   5.756   4.123   1.340 -0.0314 -0.1556  0.1775
 3203TIP3    H131244   5.728   4.211   1.313  2.2958  0.9045  1.0008
 3203TIP3    H231245   5.751   4.125   1.435  0.0031 -0.9546  0.2012
 3204TIP3   OH231246   6.756   1.935   7.243 -0.2238 -0.3162  0.0305
 3204TIP3    H131247   6.705   1.971   7.316  1.9126  1.6072  0.7054
 3204TIP3    H231248   6.844   1.923   7.280  0.3694 -1.4655 -1.6541
 3205TIP3   OH231249   2.463   6.564   0.096 -0.0445  0.1017 -0.0551
 3205TIP3    H131250   2.493   6.613   0.173 -0.3497  0.9116 -0.4391
 3205TIP3    H231251   2.544   6.540   0.050  0.0878  1.0284 -0.3276
 3206TIP3   OH231252   3.599   4.424   7.907  0.6337  0.0819  0.2120
 3206TIP3    H131253   3.569   4.510   7.936  1.1262  0.3333 -0.0100
 3206TIP3    H231254   3.529   4.391   7.850  1.8192  1.7488 -2.3868
 3207TIP3   OH231255   2.837   2.878   8.465  0.3006  0.4272  0.1356
 3207TIP3    H131256   2.898   2.937   8.421 -0.2988 -0.9619 -2.7394
 3207TIP3    H231257   2.892   2.809   8.501  0.6612  0.6693  0.0519
 3208TIP3   OH231258   4.287   5.229   0.300  0.1519  0.0152 -0.2990
 3208TIP3    H131259   4.367   5.196   0.261  0.3683  1.3896 -1.0814
 3208TIP3    H231260   4.308   5.242   0.392  0.3737 -0.9647 -0.2015
 3209TIP3   OH231261   1.097   2.655   7.086  0.1366  0.5285  0.1364
 3209TIP3    H131262   1.171   2.669   7.028 -1.3129 -0.2045 -1.9981
 3209TIP3    H231263   1.022   2.695   7.041 -1.0264  0.0630  1.5565
 3210TIP3   OH231264   6.364   2.214   0.222 -0.2900  0.4215  0.0921
 3210TIP3    H131265   6.321   2.251   0.299 -0.7769  0.1407 -0.0402
 3210TIP3    H231266   6.331   2.124   0.217  0.9224 -0.0583  0.4511
 3211TIP3   OH231267   2.847   1.312   8.702 -0.2654  0.5722  0.1995
 3211TIP3    H131268   2.779   1.322   8.636  0.3793  0.6128 -0.4669
 3211TIP3    H231269   2.907   1.385   8.687 -0.1338  0.6068  0.8571
 3212TIP3   OH231270   0.739   5.002   8.821 -0.2258 -0.1901  0.0349
 3212TIP3    H131271   0.752   5.083   8.871  0.2923 -0.1889 -0.0931
 3212TIP3    H231272   0.799   4.939   8.862  1.5832  0.2961 -1.6732
 3213TIP3   OH231273   3.230   1.595   7.381 -0.4410 -0.0043 -0.0877
 3213TIP3    H131274   3.301   1.533   7.365  0.5552  0.7619  1.1923
 3213TIP3    H231275   3.246   1.627   7.470 -1.4368  1.4415 -0.4014
 3214TIP3   OH231276   5.510   6.608   0.054 -0.3277 -0.4204 -0.0512
 3214TIP3    H131277   5.512   6.539  -0.012  1.6925  0.0115 -0.5207
 3214TIP3    H231278   5.571   6.577   0.122  0.3480  0.7098 -0.1123
 3215TIP3   OH231279   0.753   0.613   0.250 -0.1038 -0.2340 -0.8799
 3215TIP3    H131280   0.828   0.584   0.198  1.3726  1.7304  0.0230
 3215TIP3    H231281   0.693   0.652   0.187  1.0535  0.9071 -1.3294
 3216TIP3   OH231282   6.021   5.392   2.287  0.1485 -0.0627  0.2591
 3216TIP3    H131283   5.975   5.325   2.337 -1.4489  1.0839  0.4026
 3216TIP3    H231284   6.083   5.431   2.349  2.5703 -2.6331 -0.3318
 3217TIP3   OH231285   5.657   6.648   7.709 -0.0499  0.5113  0.0205
 3217TIP3    H131286   5.746   6.654   7.744  0.0516  0.4132 -0.2188
 3217TIP3    H231287   5.667   6.661   7.615 -0.1422 -0.6373 -0.1665
 3218TIP3   OH231288   1.057   0.502   8.271  0.3392  0.2466  0.0145
 3218TIP3    H131289   1.150   0.481   8.282  1.0320  2.1519 -1.6751
 3218TIP3    H231290   1.026   0.438   8.207  0.6544  0.0464  0.0575
 3219TIP3   OH231291   6.636   4.607   1.385  0.0507 -0.0593 -0.0687
 3219TIP3    H131292   6.667   4.522   1.356  1.9260  0.4174  0.4017
 3219TIP3    H231293   6.649   4.607   1.480  1.4101  1.2090 -0.2070
 3220TIP3   OH231294   6.119   1.794   7.273 -0.6569 -0.3649  0.6625
 3220TIP3    H131295   6.030   1.803   7.238 -0.3608  0.7548  0.1669
 3220TIP3    H231296   6.112   1.830   7.362 -0.9963 -1.5602  1.1451
 3221TIP3   OH231297   5.246   5.401   0.499  0.5326 -0.2720  0.6199
 3221TIP3    H131298   5.191   5.422   0.575 -0.7932 -0.8315 -0.1613
 3221TIP3    H231299   5.303   5.330   0.529  0.2338 -0.2829  1.1767
 3222TIP3   OH231300   3.689   3.849   0.473 -0.1385 -0.1782 -0.1161
 3222TIP3    H131301   3.778   3.880   0.488  0.1083 -0.8937 -0.0249
 3222TIP3    H231302   3.657   3.900   0.398 -0.5886  1.8665  1.3889
 3223TIP3   OH231303   5.558   1.327   6.919  0.3074  0.2604  0.0275
 3223TIP3    H131304   5.528   1.236   6.928  0.1730  0.3640  0.6425
 3223TIP3    H231305   5.498   1.365   6.854 -2.0852  0.9453  2.4511
 3224TIP3   OH231306   4.258   0.712   8.325 -0.1624 -0.1704  0.8304
 3224TIP3    H131307   4.198   0.776   8.363 -1.2144 -0.4104 -0.3476
 3224TIP3    H231308   4.250   0.635   8.381  0.6633  0.5068  1.9101
 3225TIP3   OH231309   0.540   6.210   0.262  0.2961 -0.2524 -0.0602
 3225TIP3    H131310   0.605   6.274   0.233  2.8712 -0.8027  3.8767
 3225TIP3    H231311   0.569   6.128   0.223  0.0946  0.0014 -0.7774
 3226TIP3   OH231312   1.450   0.857   1.549 -0.1724 -0.4902 -0.8335
 3226TIP3    H131313   1.470   0.932   1.604 -0.4020 -1.0911  0.0886
 3226TIP3    H231314   1.509   0.866   1.474  0.6614 -0.0507 -0.1464
 3227TIP3   OH231315   4.097   1.792   7.495 -0.1460  0.2059  0.1324
 3227TIP3    H131316   4.131   1.708   7.526  0.8721  0.1934 -0.9745
 3227TIP3    H231317   4.008   1.772   7.465 -0.4524 -0.1612  1.2327
 3228TIP3   OH231318   1.974   5.261   0.721 -0.1092  0.0562  0.0589
 3228TIP3    H131319   1.885   5.247   0.755  0.4570 -2.4914  0.7562
 3228TIP3    H231320   1.974   5.219   0.636  0.1135  1.1810 -0.5126
 3229TIP3   OH231321   2.192   2.755   8.752  0.2907 -0.0436  0.0440
 3229TIP3    H131322   2.109   2.710   8.769  1.0428 -1.1660  0.9346
 3229TIP3    H231323   2.244   2.739   8.831  2.0436 -0.9943 -1.2356
 3230TIP3   OH231324   4.703   5.157   8.369  0.0444 -0.2957  0.4487
 3230TIP3    H131325   4.729   5.065   8.369  0.8883 -0.0742 -0.2763
 3230TIP3    H231326   4.783   5.204   8.393 -0.4754  0.2245  1.1733
 3231TIP3   OH231327   6.159   4.714   1.464  0.2266  0.7596 -0.3906
 3231TIP3    H131328   6.235   4.667   1.429 -0.0281 -0.8873  1.1853
 3231TIP3    H231329   6.144   4.783   1.399  2.3601  0.4564 -1.3317
 3232TIP3   OH231330   5.635   3.470   0.224  0.3081 -0.2106 -0.0728
 3232TIP3    H131331   5.554   3.443   0.266  0.4507 -1.3900 -0.5241
 3232TIP3    H231332   5.674   3.389   0.191  0.4873  0.5874 -1.9692
 3233TIP3   OH231333   1.313   3.382   1.976  0.6591 -0.0969 -0.5136
 3233TIP3    H131334   1.238   3.433   2.006  1.0727 -0.2327  0.8110
 3233TIP3    H231335   1.294   3.292   2.003  1.1705 -0.1787 -0.4071
 3234TIP3   OH231336   4.872   5.767   1.534 -0.1939  0.2136 -0.5093
 3234TIP3    H131337   4.808   5.703   1.565 -0.7203  1.7531  1.8022
 3234TIP3    H231338   4.949   5.753   1.590  0.7035 -0.1141 -1.7636
 3235TIP3   OH231339   5.598   5.205   1.888 -0.3997 -0.3707 -0.5482
 3235TIP3    H131340   5.672   5.253   1.852  0.3804 -0.3503  0.9877
 3235TIP3    H231341   5.555   5.268   1.947 -0.1738 -1.1147  0.4401
 3236TIP3   OH231342   5.438   0.097   8.348 -0.1651  0.1571 -0.3913
 3236TIP3    H131343   5.520   0.065   8.313 -0.5854 -2.5767  0.8617
 3236TIP3    H231344   5.463   0.148   8.425  0.4046  0.8467 -1.0157
 3237TIP3   OH231345   6.686   3.367   2.250 -0.0659 -0.0182  0.6334
 3237TIP3    H131346   6.693   3.372   2.345 -1.2842  0.8253  0.7008
 3237TIP3    H231347   6.591   3.368   2.233  0.1442  0.3368 -0.6028
 3238TIP3   OH231348   2.491   0.693   7.959  0.2428 -0.2629 -0.3152
 3238TIP3    H131349   2.425   0.626   7.945  1.4784 -1.4424 -0.7334
 3238TIP3    H231350   2.555   0.679   7.890  0.1739  1.8717 -0.9098
 3239TIP3   OH231351   6.490   5.460   7.480 -0.7716  0.1249 -0.3185
 3239TIP3    H131352   6.540   5.415   7.411 -0.1614 -1.0445  0.8225
 3239TIP3    H231353   6.552   5.522   7.517 -0.2221 -1.0678  0.8534
 3240TIP3   OH231354   1.164   2.681   7.734  0.4179  0.0695 -0.5003
 3240TIP3    H131355   1.102   2.753   7.719 -1.8322 -1.8387 -0.8574
 3240TIP3    H231356   1.246   2.712   7.695 -0.6103  2.2196 -1.1012
 3241TIP3   OH231357   6.651   0.101   7.976  0.3347 -0.0533  0.5775
 3241TIP3    H131358   6.729   0.061   7.938  0.3327 -1.3616  1.8560
 3241TIP3    H231359   6.684   0.171   8.032  0.4058  1.0800 -0.8319
 3242TIP3   OH231360   5.631   2.711   2.154 -0.0976  0.6004 -0.8209
 3242TIP3    H131361   5.547   2.672   2.177  0.0678  1.1717  0.9307
 3242TIP3    H231362   5.614   2.759   2.073 -0.9885 -0.7582 -1.4654
 3243TIP3   OH231363   0.004   5.859   2.212  0.0823  0.3181 -0.3454
 3243TIP3    H131364  -0.086   5.890   2.225 -0.2104 -0.0359 -1.4668
 3243TIP3    H231365   0.024   5.812   2.293 -0.3620  1.2739  0.3473
 3244TIP3   OH231366   2.396   6.015   1.704  0.5555  0.1012 -0.2779
 3244TIP3    H131367   2.395   5.920   1.717 -0.8474 -0.0272 -1.1227
 3244TIP3    H231368   2.474   6.032   1.651  0.8606 -0.5630 -0.0439
 3245TIP3   OH231369   3.731   1.190   8.360 -0.4058  0.1999  0.1629
 3245TIP3    H131370   3.773   1.257   8.414 -0.2238  0.4195 -0.2396
 3245TIP3    H231371   3.662   1.237   8.313 -0.0395  0.1909 -0.3951
 3246TIP3   OH231372   6.797   5.379   7.714  0.2399  0.2938  0.0481
 3246TIP3    H131373   6.709   5.346   7.694  0.1076  0.5186  0.2553
 3246TIP3    H231374   6.838   5.390   7.628  0.8621 -1.9071  0.0135
 3247TIP3   OH231375   4.746   6.810   6.393  0.1690 -0.1660  0.0372
 3247TIP3    H131376   4.754   6.874   6.323 -0.1448  0.9198  0.9605
 3247TIP3    H231377   4.665   6.833   6.438 -0.8801 -2.2696 -0.6095
 3248TIP3   OH231378   3.910   6.443   8.464  0.2647  0.1307  0.0413
 3248TIP3    H131379   3.994   6.418   8.424 -1.0548 -0.2096 -2.7425
 3248TIP3    H231380   3.885   6.523   8.418  0.3977  1.9524  2.9330
 3249TIP3   OH231381   0.391   2.341   0.496  0.7501  0.0869  0.0513
 3249TIP3    H131382   0.343   2.363   0.417 -0.0229 -1.5480  0.0227
 3249TIP3    H231383   0.382   2.246   0.504  1.8114  0.0663  1.4632
 3250TIP3   OH231384   0.389   0.087   1.719 -0.0839 -0.1011  0.4269
 3250TIP3    H131385   0.317   0.138   1.757  0.1514 -0.4774  1.4053
 3250TIP3    H231386   0.407   0.019   1.783  0.5204 -0.5927 -0.2457
 3251TIP3   OH231387   2.026   5.937   1.755  0.6575 -0.6977 -0.0143
 3251TIP3    H131388   2.094   5.999   1.729  0.6380 -0.2166  1.0392
 3251TIP3    H231389   2.016   5.879   1.680 -0.6229  1.6623 -1.8235
 3252TIP3   OH231390   6.042   1.941   0.721 -0.3724 -0.0219 -0.6565
 3252TIP3    H131391   6.124   1.975   0.685 -0.3509  1.4695  0.6811
 3252TIP3    H231392   5.985   1.932   0.645  0.5951  0.2470 -1.4368
 3253TIP3   OH231393   0.205   1.730   1.189 -0.2822  1.1316  0.0705
 3253TIP3    H131394   0.144   1.700   1.122 -2.3150  0.3021  2.1293
 3253TIP3    H231395   0.229   1.651   1.237  1.4040  1.6478  0.1265
 3254TIP3   OH231396   0.215   3.882   7.452 -0.1000 -0.3950 -0.0651
 3254TIP3    H131397   0.296   3.874   7.502  0.5748 -1.0442 -1.2102
 3254TIP3    H231398   0.225   3.820   7.380 -0.2650  1.7534 -2.0408
 3255TIP3   OH231399   6.016   0.113   6.655  0.8049 -0.0285 -0.4816
 3255TIP3    H131400   6.019   0.147   6.565 -1.4946 -2.7843 -1.7529
 3255TIP3    H231401   5.938   0.153   6.693  1.7646  1.1166  0.3477
 3256TIP3   OH231402   5.496   5.036   2.128  0.6377  0.0583 -0.4124
 3256TIP3    H131403   5.475   4.943   2.133  1.5566 -0.1934 -0.9844
 3256TIP3    H231404   5.557   5.051   2.200 -1.4419  0.8062  1.3020
 3257TIP3   OH231405   0.677   4.316   0.500  0.1439  0.3414  0.0412
 3257TIP3    H131406   0.621   4.324   0.423  0.9634  0.2374 -0.5710
 3257TIP3    H231407   0.751   4.263   0.471 -0.5427 -1.5376  1.4613
 3258TIP3   OH231408   3.665   2.423   8.661  0.2980  0.0175 -0.3342
 3258TIP3    H131409   3.633   2.396   8.575 -2.8377  1.0475  0.3902
 3258TIP3    H231410   3.750   2.379   8.670 -0.7683 -2.7965 -2.5530
 3259TIP3   OH231411   4.650   4.118   8.105  0.1055  0.2950 -0.9501
 3259TIP3    H131412   4.615   4.054   8.043 -2.2505  0.7862 -0.2469
 3259TIP3    H231413   4.662   4.069   8.187  0.2921  0.3022 -0.9725
 3260TIP3   OH231414   2.212   5.552   1.873  0.6652 -0.1186 -0.0999
 3260TIP3    H131415   2.252   5.579   1.790 -0.0841  1.1186 -0.0761
 3260TIP3    H231416   2.232   5.624   1.933 -2.0967  0.9049 -0.2553
 3261TIP3   OH231417   2.167   5.366   0.153 -0.4767  0.1652  0.3719
 3261TIP3    H131418   2.094   5.355   0.215 -0.1878  1.4517  0.9624
 3261TIP3    H231419   2.127   5.355   0.067 -0.8402 -1.9484  0.7544
 3262TIP3   OH231420   1.755   5.594   0.199 -0.3094  0.3889  0.4657
 3262TIP3    H131421   1.832   5.591   0.141 -0.7903 -2.0155 -0.1638
 3262TIP3    H231422   1.790   5.576   0.286 -0.0322  0.2566  0.3286
 3263TIP3   OH231423   2.646   2.500   1.360  0.0085  0.1765 -0.2074
 3263TIP3    H131424   2.729   2.464   1.327  0.4068 -0.0278  0.9547
 3263TIP3    H231425   2.579   2.445   1.321  0.3827  0.6367 -1.5368
 3264TIP3   OH231426   5.634   5.896   7.329 -0.6453 -0.2705 -0.3203
 3264TIP3    H131427   5.695   5.823   7.321  0.3004  0.5363 -0.8736
 3264TIP3    H231428   5.690   5.972   7.346 -1.6309  0.2626  0.7119
 3265TIP3   OH231429   1.126   1.210   8.400 -0.2843  0.3146 -0.0519
 3265TIP3    H131430   1.141   1.188   8.492  0.1517 -0.5943 -0.3314
 3265TIP3    H231431   1.051   1.157   8.374 -0.1945  0.3181 -0.3171
 3266TIP3   OH231432   2.496   3.727   7.321  0.3826 -0.3172 -0.2532
 3266TIP3    H131433   2.419   3.705   7.374 -0.6400  2.8541 -0.1766
 3266TIP3    H231434   2.483   3.680   7.239 -0.2852 -1.8542  0.6901
 3267TIP3   OH231435   1.427   4.935   6.981 -0.3944  0.4038 -0.4688
 3267TIP3    H131436   1.425   4.839   6.984  0.1736  0.3811 -0.7840
 3267TIP3    H231437   1.386   4.962   7.063 -1.1393 -0.1054 -0.6562
 3268TIP3   OH231438   0.777   2.551   7.617  0.2336  0.0924  0.2572
 3268TIP3    H131439   0.732   2.557   7.533  0.7589  0.5007  0.0057
 3268TIP3    H231440   0.832   2.473   7.609  0.8300  0.5380 -0.0458
 3269TIP3   OH231441   3.017   6.312   2.261  0.6325  0.5952  0.1106
 3269TIP3    H131442   3.059   6.232   2.229  1.2480  0.4559  1.2326
 3269TIP3    H231443   3.051   6.381   2.204  1.1275  0.2459 -0.0252
 3270TIP3   OH231444   5.545   4.784   1.058 -0.1003 -0.1358 -0.4243
 3270TIP3    H131445   5.591   4.862   1.087 -0.8214 -0.1378  0.8016
 3270TIP3    H231446   5.530   4.798   0.964  1.4529  0.3138 -0.6270
 3271TIP3   OH231447   2.993   4.336   0.705 -0.2001  0.3820 -0.0479
 3271TIP3    H131448   2.990   4.298   0.792 -0.4623 -1.9098 -0.9747
 3271TIP3    H231449   3.078   4.309   0.670 -1.2614 -1.3621 -1.5165
 3272TIP3   OH231450   0.970   4.148   7.459  0.3643  0.2810 -0.1252
 3272TIP3    H131451   1.056   4.109   7.473 -0.2596 -2.3129 -2.7066
 3272TIP3    H231452   0.985   4.219   7.398  0.9115  1.3821  1.2283
 3273TIP3   OH231453   0.978   4.147   7.078 -0.3139  0.1081  0.2156
 3273TIP3    H131454   1.024   4.226   7.107 -2.2172  0.5713  2.2309
 3273TIP3    H231455   1.043   4.077   7.085  0.7600  1.1170  0.5846
 3274TIP3   OH231456   0.507   5.313   6.211 -0.0155 -0.2446 -0.2280
 3274TIP3    H131457   0.544   5.224   6.209 -3.4345 -1.9400  1.8937
 3274TIP3    H231458   0.542   5.352   6.291  1.1297  0.1664 -0.9183
 3275TIP3   OH231459   1.923   6.061   1.413 -0.3308 -0.2333  0.1754
 3275TIP3    H131460   2.002   6.065   1.468  1.4485 -0.5385 -2.1926
 3275TIP3    H231461   1.851   6.051   1.476  1.5599 -0.8330  2.4217
 3276TIP3   OH231462   2.279   4.773   0.233 -0.0754  0.0673  0.1403
 3276TIP3    H131463   2.285   4.777   0.329  0.3852 -0.2848  0.1327
 3276TIP3    H231464   2.239   4.688   0.215 -0.5407  0.3102  0.0331
 3277TIP3   OH231465   3.695   6.838   7.201 -0.2493  0.1837  0.2338
 3277TIP3    H131466   3.710   6.870   7.290 -0.2812  2.1627 -0.4135
 3277TIP3    H231467   3.766   6.876   7.150 -0.7396 -0.1898 -0.7438
 3278TIP3   OH231468   4.093   6.727   7.295  0.3776 -0.0197 -0.3575
 3278TIP3    H131469   4.086   6.817   7.262  1.5272  0.2685  0.1399
 3278TIP3    H231470   4.006   6.690   7.282 -0.1477  1.2070 -0.4571
 3279TIP3   OH231471   0.424   4.352   8.245  0.2999  0.5955  0.4202
 3279TIP3    H131472   0.352   4.321   8.189 -1.2725  1.3172  1.9671
 3279TIP3    H231473   0.435   4.444   8.221  2.0913  0.0460 -1.1617
 3280TIP3   OH231474   2.511   2.967   1.011 -0.3899 -0.1097  0.0658
 3280TIP3    H131475   2.570   2.892   1.014  2.0382  1.6909  0.8856
 3280TIP3    H231476   2.464   2.964   1.094  0.4812 -0.1772  0.5740
 3281TIP3   OH231477   0.500   5.488   0.945  0.0836 -0.5160 -0.4007
 3281TIP3    H131478   0.527   5.579   0.957 -1.4159 -0.2440  1.1658
 3281TIP3    H231479   0.565   5.452   0.884  3.5923  0.2446  2.5715
 3282TIP3   OH231480   0.367   1.153   0.884 -0.1755  0.1209 -0.0368
 3282TIP3    H131481   0.340   1.125   0.972  0.1795 -1.3075 -0.3581
 3282TIP3    H231482   0.409   1.238   0.898  0.9384 -0.6098  1.3672
 3283TIP3   OH231483   5.339   1.159   7.168  0.0702 -0.5506 -0.1987
 3283TIP3    H131484   5.329   1.097   7.241  0.7882 -2.2385 -1.4840
 3283TIP3    H231485   5.321   1.244   7.208  1.8917 -1.2159  2.3103
 3284TIP3   OH231486   4.508   0.767   7.508 -0.2167 -0.2605 -0.2417
 3284TIP3    H131487   4.477   0.805   7.425 -1.0822  1.5218  0.8395
 3284TIP3    H231488   4.433   0.717   7.541 -0.2931  0.0429  0.0472
 3285TIP3   OH231489   3.972   1.587   7.291 -0.1618  0.1607  1.0591
 3285TIP3    H131490   4.006   1.663   7.243 -0.1663  0.3549  1.3580
 3285TIP3    H231491   3.898   1.622   7.341 -1.0556 -0.3427  0.1137
 3286TIP3   OH231492   6.549   4.837   2.750 -0.1096 -1.3341 -0.3020
 3286TIP3    H131493   6.557   4.768   2.684 -1.0246 -1.3086 -0.4611
 3286TIP3    H231494   6.477   4.892   2.718  0.0945 -0.7564  0.2206
 3287TIP3   OH231495   2.146   2.900   8.476 -0.2371 -0.2686  0.5001
 3287TIP3    H131496   2.185   2.984   8.451 -0.0811 -1.0659 -2.2334
 3287TIP3    H231497   2.165   2.892   8.569  2.3786  1.3539  0.2035
 3288TIP3   OH231498   3.045   5.613   0.121  0.1955 -0.1606 -0.0182
 3288TIP3    H131499   3.086   5.539   0.166  0.8491  0.2949  0.1532
 3288TIP3    H231500   3.074   5.690   0.170 -2.1988  0.0984  1.1521
 3289TIP3   OH231501   1.730   3.099   7.724 -0.1663  0.2660 -0.1141
 3289TIP3    H131502   1.678   3.172   7.758 -1.0530 -1.2236  1.9453
 3289TIP3    H231503   1.812   3.104   7.773 -2.0026 -2.7736  3.8229
 3290TIP3   OH231504   6.698   0.409   7.388 -0.0838 -0.1128 -0.3809
 3290TIP3    H131505   6.722   0.320   7.362 -0.1930 -0.1028 -0.5135
 3290TIP3    H231506   6.756   0.466   7.338  2.8651 -0.1931  2.6298
 3291TIP3   OH231507   5.099   6.783   8.020  0.4162  0.5001 -0.2244
 3291TIP3    H131508   5.130   6.810   7.933  1.7469  0.7852  0.3261
 3291TIP3    H231509   5.159   6.825   8.081 -0.1631 -0.1709  0.8255
 3292TIP3   OH231510   3.982   5.991   0.064  0.2444 -0.1622  0.3280
 3292TIP3    H131511   3.904   6.004   0.118  0.0254  1.0509 -0.2527
 3292TIP3    H231512   3.985   6.068   0.007  0.4942 -1.3549 -1.3431
 3293TIP3   OH231513   6.618   2.934   8.398 -0.4582 -0.2504  0.3342
 3293TIP3    H131514   6.573   2.882   8.331 -1.9731  0.9923  0.3128
 3293TIP3    H231515   6.579   3.021   8.391  0.1983  0.2330  2.0314
 3294TIP3   OH231516   5.466   3.364   7.788  0.0311  0.4201 -0.0504
 3294TIP3    H131517   5.447   3.270   7.793  0.2751  0.3715 -0.0060
 3294TIP3    H231518   5.383   3.407   7.808 -0.0930  0.2133 -0.1184
 3295TIP3   OH231519   5.922   4.981   6.783 -0.2345 -0.3333  0.7489
 3295TIP3    H131520   5.884   5.054   6.736  1.9149  1.1175  1.1143
 3295TIP3    H231521   5.943   5.016   6.870  2.3645 -0.7814  0.4091
 3296TIP3   OH231522   0.390   5.483   8.205  0.5716 -0.0113  0.2087
 3296TIP3    H131523   0.479   5.500   8.238 -0.4121  1.9012  2.1397
 3296TIP3    H231524   0.378   5.545   8.134  0.7895 -0.3306 -0.1113
 3297TIP3   OH231525   3.971   6.756   0.462  0.3596  0.2147  0.6224
 3297TIP3    H131526   4.055   6.716   0.486 -0.4853 -1.3070  1.2140
 3297TIP3    H231527   3.906   6.697   0.500 -1.0589 -0.7667 -2.9866
 3298TIP3   OH231528   3.169   3.159   8.614 -0.2266 -0.0200  0.4056
 3298TIP3    H131529   3.228   3.098   8.569  0.3297  0.7280  0.1139
 3298TIP3    H231530   3.172   3.132   8.706 -0.4393 -0.7940  0.1940
 3299TIP3   OH231531   0.230   2.042   8.302  0.7425  0.0401 -0.1561
 3299TIP3    H131532   0.193   1.954   8.311  0.9241  0.1765  3.4082
 3299TIP3    H231533   0.155   2.097   8.281  0.4537 -0.7859 -1.4131
 3300TIP3   OH231534   4.747   1.036   7.335 -0.4612 -0.0513  0.0176
 3300TIP3    H131535   4.804   1.113   7.332 -1.0245  0.4304  1.2027
 3300TIP3    H231536   4.766   0.989   7.254 -1.2120  2.1239 -1.5246
 3301TIP3   OH231537   6.242   3.188   0.217  0.0319  0.6500  0.2050
 3301TIP3    H131538   6.250   3.093   0.222 -3.7035 -0.2040 -3.7141
 3301TIP3    H231539   6.317   3.216   0.165 -0.2188 -0.6222 -0.8786
 3302TIP3   OH231540   5.063   3.782   0.603 -0.2492 -0.1423  0.3308
 3302TIP3    H131541   5.087   3.841   0.675 -0.0529  1.9104 -1.3471
 3302TIP3    H231542   4.973   3.804   0.583 -0.0672 -0.1708 -0.5340
 3303TIP3   OH231543   6.392   6.401   2.305 -0.0392  0.5291  0.5168
 3303TIP3    H131544   6.413   6.404   2.212  3.4635  0.9711  1.1811
 3303TIP3    H231545   6.418   6.313   2.333 -0.9995  0.4182  1.1236
 3304TIP3   OH231546   2.099   6.414   6.630  0.1737  0.6998  0.0318
 3304TIP3    H131547   2.116   6.343   6.692 -2.8733 -1.7465 -1.6368
 3304TIP3    H231548   2.005   6.430   6.637 -0.0622  1.1847 -2.9975
 3305TIP3   OH231549   3.459   5.246   1.462  0.2776  0.7184  0.0230
 3305TIP3    H131550   3.501   5.277   1.383 -0.4392  0.8805 -0.3021
 3305TIP3    H231551   3.366   5.244   1.441  0.2036 -0.6228  0.3863
 3306TIP3   OH231552   0.053   6.841   8.407 -0.2670 -0.1028  0.8186
 3306TIP3    H131553   0.061   6.746   8.406 -0.2156 -0.2060  3.4170
 3306TIP3    H231554  -0.033   6.859   8.371 -1.1290 -1.3202  2.1549
 3307TIP3   OH231555   2.475   4.110   7.028 -0.0146  0.3615  0.1826
 3307TIP3    H131556   2.537   4.163   6.977 -0.7200  1.2718  0.2453
 3307TIP3    H231557   2.526   4.079   7.103  0.7201 -0.0354 -0.4653
 3308TIP3   OH231558   5.021   6.564   7.783  0.0656  0.3931 -0.2794
 3308TIP3    H131559   5.081   6.630   7.817  1.4499 -0.7902 -0.3227
 3308TIP3    H231560   5.029   6.490   7.844 -1.1155  0.0862 -0.4680
 3309TIP3   OH231561   0.279   0.597   0.305  0.0451  0.5009  0.1849
 3309TIP3    H131562   0.362   0.554   0.283 -0.3829 -1.0066  1.3106
 3309TIP3    H231563   0.212   0.539   0.268 -0.5392  1.6173 -0.5666
 3310TIP3   OH231564   3.834   2.088   7.093  0.1678  0.0785  0.0928
 3310TIP3    H131565   3.912   2.046   7.128  0.0981 -0.1485 -0.0173
 3310TIP3    H231566   3.851   2.096   6.999  0.4751  0.9482  0.2125
 3311TIP3   OH231567   2.781   5.417   2.009 -0.4115  0.4846  0.0367
 3311TIP3    H131568   2.867   5.412   1.966  0.0659  3.3935  0.4762
 3311TIP3    H231569   2.793   5.369   2.091  0.8291  0.9198  0.1283
 3312TIP3   OH231570   0.274   2.505   8.418  0.0604  0.8673  0.3051
 3312TIP3    H131571   0.271   2.410   8.405 -0.9212  0.9916 -0.4797
 3312TIP3    H231572   0.321   2.516   8.500  1.2312 -0.2416 -0.1808
 3313TIP3   OH231573   3.684   5.960   0.775  0.1557 -0.1437  0.3550
 3313TIP3    H131574   3.626   5.988   0.703 -0.9507 -2.1953  0.3464
 3313TIP3    H231575   3.713   6.041   0.816  0.9989  1.1344 -2.5152
 3314TIP3   OH231576   6.410   2.926   1.143 -0.2634  0.7795 -0.8252
 3314TIP3    H131577   6.489   2.972   1.116  0.4462 -0.3852 -0.7815
 3314TIP3    H231578   6.401   2.947   1.236  0.8944 -0.3004 -0.4312
 3315TIP3   OH231579   1.855   5.578   0.473 -0.0060  0.0660  0.0624
 3315TIP3    H131580   1.911   5.569   0.551 -1.5672 -0.7292  1.1456
 3315TIP3    H231581   1.771   5.606   0.507 -0.7344 -0.3252 -1.3486
 3316TIP3   OH231582   2.822   3.274   6.332 -0.1037  0.1011 -0.3678
 3316TIP3    H131583   2.764   3.206   6.297 -1.5909  1.1116  0.0369
 3316TIP3    H231584   2.855   3.238   6.414 -2.8999  0.7748  1.1743
 3317TIP3   OH231585   3.479   4.921   0.768  0.1707  0.2235 -0.0421
 3317TIP3    H131586   3.443   4.869   0.696 -0.9342 -2.2987  2.1602
 3317TIP3    H231587   3.433   5.005   0.761  0.8505  0.4610 -2.8075
 3318TIP3   OH231588   3.955   2.236   2.613 -0.2806 -0.3740  0.0402
 3318TIP3    H131589   4.016   2.224   2.685 -1.2517  0.8306  1.1315
 3318TIP3    H231590   3.956   2.154   2.565  0.7665 -1.0237  1.1433
 3319TIP3   OH231591   5.265   3.760   2.202 -0.1857  0.0348 -0.0850
 3319TIP3    H131592   5.313   3.694   2.150  0.4559  0.4610 -0.0467
 3319TIP3    H231593   5.327   3.787   2.269 -0.4331  0.7026 -0.1178
 3320TIP3   OH231594   0.963   4.006   1.202  0.0135 -0.0457  0.6404
 3320TIP3    H131595   1.038   4.060   1.178 -0.5866  0.2004 -0.7830
 3320TIP3    H231596   0.997   3.947   1.269  1.2086  0.7313  0.7612
 3321TIP3   OH231597   2.150   3.566   8.438 -0.5272  0.4024 -0.1025
 3321TIP3    H131598   2.203   3.487   8.446 -2.8849 -1.2401  0.5636
 3321TIP3    H231599   2.104   3.555   8.355 -0.2054  1.5484 -0.4410
 3322TIP3   OH231600   6.556   3.542   7.958 -0.5191  0.3066 -0.4365
 3322TIP3    H131601   6.610   3.573   7.885  0.6918 -1.0511 -0.1633
 3322TIP3    H231602   6.467   3.570   7.936 -0.0687  0.5416 -2.0878
 3323TIP3   OH231603   3.960   3.857   0.031 -0.0683  0.3702  0.4552
 3323TIP3    H131604   3.917   3.781  -0.008  3.0036 -2.1943  1.6707
 3323TIP3    H231605   4.005   3.900  -0.042  0.1794 -0.4402  0.1227
 3324TIP3   OH231606   4.496   3.266   1.992  0.1793  0.2091  0.0156
 3324TIP3    H131607   4.450   3.205   1.935  1.0198 -2.8681  2.3375
 3324TIP3    H231608   4.430   3.292   2.057  0.1267  0.9600 -0.3192
 3325TIP3   OH231609   0.483   5.185   2.109  0.5280  0.0377 -0.1538
 3325TIP3    H131610   0.523   5.213   2.192 -0.4855  1.2766 -0.0466
 3325TIP3    H231611   0.556   5.183   2.047  1.4416 -1.6257  0.8948
 3326TIP3   OH231612   3.370   6.472   0.366 -0.0826 -0.0077 -0.9726
 3326TIP3    H131613   3.416   6.548   0.330  1.4434 -0.5738 -0.2949
 3326TIP3    H231614   3.403   6.398   0.316  2.9878 -0.9856  2.1388
 3327TIP3   OH231615   2.277   0.151   0.724 -0.5949  0.2557 -0.1088
 3327TIP3    H131616   2.243   0.184   0.807 -0.5245  0.7092 -0.2586
 3327TIP3    H231617   2.328   0.073   0.748 -0.5813  0.3802  0.2706
 3328TIP3   OH231618   2.524   0.549   1.923  0.1593  0.2960  0.5829
 3328TIP3    H131619   2.550   0.539   1.832 -1.0774 -0.5833  0.2987
 3328TIP3    H231620   2.542   0.464   1.963 -2.3615 -0.4413  0.3104
 3329TIP3   OH231621   3.744   6.156   1.270  0.0485 -0.1470  0.1486
 3329TIP3    H131622   3.776   6.088   1.330  1.5666  1.6310  1.4855
 3329TIP3    H231623   3.815   6.169   1.208  0.6049  1.4485  1.0456
 3330TIP3   OH231624   5.916   0.141   1.467 -0.2259 -0.4788  0.3437
 3330TIP3    H131625   5.935   0.234   1.478 -1.2859 -0.2121  0.0356
 3330TIP3    H231626   5.983   0.110   1.406 -0.2046  0.2122  0.0095
 3331TIP3   OH231627   5.996   1.188   1.201  0.7110 -0.1149 -0.0965
 3331TIP3    H131628   5.972   1.098   1.225  0.9284 -0.5526 -1.4473
 3331TIP3    H231629   5.974   1.240   1.278  0.9297 -1.3794  0.8570
 3332TIP3   OH231630   0.663   0.691   1.807 -0.0926 -0.3577 -1.0153
 3332TIP3    H131631   0.653   0.644   1.890  0.3984 -1.3543 -1.5053
 3332TIP3    H231632   0.618   0.774   1.821  2.9959  1.1020  1.5105
 3333TIP3   OH231633   3.912   1.542   1.587 -0.3575 -0.7112  0.1012
 3333TIP3    H131634   3.873   1.630   1.593 -1.3404 -1.2004  4.1068
 3333TIP3    H231635   3.841   1.483   1.614  1.2443 -2.3681  0.8723
 3334TIP3   OH231636   6.700   6.499   6.714 -0.1047 -1.1936  0.3548
 3334TIP3    H131637   6.716   6.413   6.677  2.2396 -0.9609  0.6201
 3334TIP3    H231638   6.747   6.559   6.656 -2.6386  0.1163 -0.4964
 3335TIP3   OH231639   2.157   6.428   7.069  0.0135  0.6356  0.4894
 3335TIP3    H131640   2.175   6.371   6.995  1.6272  0.8609  0.6796
 3335TIP3    H231641   2.067   6.458   7.055 -0.6135 -1.3472  0.0002
 3336TIP3   OH231642   1.861   0.400   0.457  0.2086  0.1265 -0.2755
 3336TIP3    H131643   1.913   0.363   0.386  1.2130  0.3563  0.3278
 3336TIP3    H231644   1.904   0.370   0.537 -1.6971 -1.2801  0.2868
 3337TIP3   OH231645   2.044   4.515   7.940  0.1412  0.2249  0.3607
 3337TIP3    H131646   2.028   4.479   7.853  2.0980 -0.4897  0.2377
 3337TIP3    H231647   2.040   4.439   7.999 -2.1458  0.8404  1.0895
 3338TIP3   OH231648   4.474   4.565   6.471 -0.1828 -0.1019 -0.0499
 3338TIP3    H131649   4.418   4.642   6.459  0.1326 -0.1464 -2.1860
 3338TIP3    H231650   4.561   4.602   6.491 -0.5380 -0.0044  1.4754
 3339TIP3   OH231651   5.784   1.358   0.158  0.7610 -0.6535 -0.5405
 3339TIP3    H131652   5.817   1.351   0.248  1.5758  0.4170 -0.7333
 3339TIP3    H231653   5.691   1.378   0.168  1.0005  0.2075  0.0819
 3340TIP3   OH231654   5.364   2.241   8.665  0.5256  0.0530 -0.6186
 3340TIP3    H131655   5.413   2.303   8.719 -0.0184 -0.6888  0.7691
 3340TIP3    H231656   5.308   2.295   8.610  0.3719  0.7966  0.2652
 3341TIP3   OH231657   5.893   2.154   6.787  0.0865 -0.2296 -0.6106
 3341TIP3    H131658   5.815   2.164   6.732 -0.1923 -1.1840 -0.4153
 3341TIP3    H231659   5.940   2.080   6.748  0.1792 -0.5414  0.0751
 3342TIP3   OH231660   5.234   6.798   7.799  0.0473 -0.8219  0.1004
 3342TIP3    H131661   5.241   6.824   7.707 -1.2424 -0.1544  0.1627
 3342TIP3    H231662   5.321   6.765   7.821  0.5956 -0.2995 -1.1476
 3343TIP3   OH231663   2.536   4.942   7.206 -0.2564 -0.4575  0.3002
 3343TIP3    H131664   2.463   5.003   7.207 -0.9364 -1.1179 -2.2980
 3343TIP3    H231665   2.494   4.856   7.203  0.6856 -1.0424  2.3299
 3344TIP3   OH231666   2.817   5.611   1.058 -0.0300  0.2911 -0.0363
 3344TIP3    H131667   2.853   5.670   0.991  1.9136  0.5505  1.1392
 3344TIP3    H231668   2.763   5.668   1.113  0.1749  0.5452 -0.0938
 3345TIP3   OH231669   1.391   6.101   7.288  0.0287 -0.2433  0.2471
 3345TIP3    H131670   1.362   6.010   7.283  0.8053 -0.4582 -0.8480
 3345TIP3    H231671   1.416   6.123   7.198  1.1774  0.6043  0.7460
 3346TIP3   OH231672   1.152   6.469   1.000  0.2283 -0.1199 -0.5697
 3346TIP3    H131673   1.116   6.492   0.914  1.7879  1.2406 -0.9071
 3346TIP3    H231674   1.218   6.402   0.981 -0.6756 -1.1638 -0.1771
 3347TIP3   OH231675   1.853   0.195   1.238 -0.0385 -0.6444  0.1536
 3347TIP3    H131676   1.905   0.140   1.179 -0.8053 -1.9130  0.6196
 3347TIP3    H231677   1.830   0.137   1.311  0.6521  0.8008  1.5818
 3348TIP3   OH231678   2.155   1.282   8.019  0.1520 -0.1461 -0.3770
 3348TIP3    H131679   2.097   1.270   7.944 -0.5728 -0.0041  0.1457
 3348TIP3    H231680   2.131   1.367   8.055  1.6046  0.5233 -0.9234
 3349TIP3   OH231681   1.172   3.629   7.748 -0.0165 -0.0932 -0.2187
 3349TIP3    H131682   1.256   3.655   7.710 -0.6406  1.8820 -0.3585
 3349TIP3    H231683   1.121   3.598   7.673  0.7062 -1.8031 -0.0624
 3350TIP3   OH231684   4.573   0.276   1.888 -0.2271 -0.6447  0.1278
 3350TIP3    H131685   4.642   0.328   1.928 -1.0536  1.0352 -0.5638
 3350TIP3    H231686   4.516   0.339   1.844 -0.4590 -2.2143 -2.0391
 3351TIP3   OH231687   5.287   1.470   1.308  0.2337  0.3330 -0.0136
 3351TIP3    H131688   5.371   1.510   1.286 -1.3377  4.1198  0.2217
 3351TIP3    H231689   5.222   1.519   1.258 -2.1207 -0.3589  2.1356
 3352TIP3   OH231690   3.408   0.134   7.683  0.0731  0.5100  0.2429
 3352TIP3    H131691   3.350   0.210   7.686  0.3474  0.8341 -1.4939
 3352TIP3    H231692   3.365   0.069   7.738 -0.7100  1.5473  0.9040
 3353TIP3   OH231693   2.372   2.848   7.861  0.1342 -0.3778 -0.0898
 3353TIP3    H131694   2.413   2.808   7.784 -0.4332 -0.0235 -0.5795
 3353TIP3    H231695   2.370   2.942   7.841 -1.6499 -0.4671 -0.4307
 3354TIP3   OH231696   2.685   3.030   6.276  0.1309 -1.3691  0.1716
 3354TIP3    H131697   2.693   2.976   6.354 -0.5679  1.0426  2.0357
 3354TIP3    H231698   2.615   2.989   6.225 -2.3213 -0.8428  2.8521
 3355TIP3   OH231699   4.894   3.914   1.329  0.0354 -0.4566  0.5024
 3355TIP3    H131700   4.972   3.876   1.370 -0.8436 -1.2747  1.4829
 3355TIP3    H231701   4.844   3.949   1.402 -0.7635 -0.4061 -0.0625
 3356TIP3   OH231702   1.928   6.772   1.707 -0.0200 -0.0170  0.4732
 3356TIP3    H131703   1.849   6.748   1.658  0.5232 -0.6603 -0.1068
 3356TIP3    H231704   1.900   6.772   1.799 -0.7589  0.0246  0.2538
 3357TIP3   OH231705   3.696   0.365   7.864 -0.0847 -0.6780  0.0217
 3357TIP3    H131706   3.663   0.353   7.775 -1.4673 -0.1108  0.4245
 3357TIP3    H231707   3.757   0.292   7.877  0.3407 -0.6200 -1.4656
 3358TIP3   OH231708   2.826   2.150   6.236 -0.4809 -0.0412  0.1808
 3358TIP3    H131709   2.879   2.229   6.233  2.0118 -1.6343 -0.1361
 3358TIP3    H231710   2.842   2.113   6.323  0.6875 -1.6413 -0.6713
 3359TIP3   OH231711   0.221   3.961   2.843 -0.2092  1.1616 -0.2647
 3359TIP3    H131712   0.244   3.951   2.751 -2.5075 -1.3492 -0.6948
 3359TIP3    H231713   0.136   4.006   2.843  0.3009  2.1985  0.7413
 3360TIP3   OH231714   2.590   2.408   7.848  0.0136  0.5594 -0.0801
 3360TIP3    H131715   2.513   2.449   7.887  0.7546  1.1667  0.7931
 3360TIP3    H231716   2.625   2.474   7.788 -0.9762 -0.2759 -1.6557
 3361TIP3   OH231717   6.171   0.822   1.291  0.2446  0.3203  0.5778
 3361TIP3    H131718   6.212   0.856   1.211  0.4041  1.8843  1.2925
 3361TIP3    H231719   6.089   0.871   1.298 -0.4042 -0.7620  0.6791
 3362TIP3   OH231720   0.291   3.780   0.552  0.2291 -0.0672 -0.0100
 3362TIP3    H131721   0.210   3.781   0.604  1.0887  1.3804  1.4165
 3362TIP3    H231722   0.304   3.688   0.530 -1.5549 -0.3935  0.1106
 3363TIP3   OH231723   2.717   1.252   7.972 -0.4182  0.0599  0.0671
 3363TIP3    H131724   2.633   1.298   7.974 -0.2826  0.2993  1.2955
 3363TIP3    H231725   2.699   1.168   8.015 -0.0113  0.1668  0.4592
 3364TIP3   OH231726   4.444   2.317   6.886 -0.1217 -0.2872  0.2322
 3364TIP3    H131727   4.367   2.335   6.832  0.4870  0.5362 -0.3843
 3364TIP3    H231728   4.460   2.399   6.933  0.4400 -0.4259  0.2844
 3365TIP3   OH231729   2.702   0.104   1.017  0.0642  0.0518  0.1735
 3365TIP3    H131730   2.736   0.191   0.995  0.4704 -0.3066 -0.6220
 3365TIP3    H231731   2.718   0.096   1.111  2.8770 -0.3857 -0.2706
 3366TIP3   OH231732   1.979   5.634   7.013 -0.7138 -0.1068 -0.0438
 3366TIP3    H131733   2.041   5.613   6.943 -1.7089 -0.0168 -0.9930
 3366TIP3    H231734   1.898   5.590   6.986 -1.5948  1.3344  0.1777
 3367TIP3   OH231735   2.295   3.793   1.068 -0.1105 -0.6176  0.0972
 3367TIP3    H131736   2.339   3.866   1.111 -0.1021  0.3057 -1.4132
 3367TIP3    H231737   2.203   3.820   1.064 -0.2317 -1.0136  0.1770
 3368TIP3   OH231738   2.335   5.576   8.599  0.2090 -0.0558  0.4558
 3368TIP3    H131739   2.294   5.501   8.641 -2.8309  0.5463 -1.1235
 3368TIP3    H231740   2.405   5.539   8.545  0.2627 -1.4452  1.4541
 3369TIP3   OH231741   0.626   3.486   0.822 -0.0209 -0.1692 -0.3622
 3369TIP3    H131742   0.686   3.548   0.781  3.1426 -2.4726  0.4438
 3369TIP3    H231743   0.617   3.415   0.759  1.1545 -1.5530  0.9512
 3370TIP3   OH231744   1.969   5.633   0.003 -0.3694 -0.2980  0.0322
 3370TIP3    H131745   1.921   5.653  -0.077 -0.5966  0.6364  0.3865
 3370TIP3    H231746   2.017   5.553  -0.017 -2.4397 -1.5646 -0.1907
 3371TIP3   OH231747   5.607   3.291   8.054  0.6471  0.0213 -0.3315
 3371TIP3    H131748   5.666   3.239   8.000  1.7343  1.7920 -0.9611
 3371TIP3    H231749   5.550   3.335   7.991  2.1031  2.3148 -0.1724
 3372TIP3   OH231750   3.677   5.177   7.191 -0.5752 -0.1520 -0.7874
 3372TIP3    H131751   3.685   5.110   7.124 -0.5177  0.0400 -0.9726
 3372TIP3    H231752   3.594   5.220   7.173 -2.2529 -2.2904  1.2658
 3373TIP3   OH231753   4.157   6.158   7.427  0.5352 -0.2536 -0.3898
 3373TIP3    H131754   4.241   6.117   7.410  1.0516  0.4146  0.4751
 3373TIP3    H231755   4.175   6.224   7.493 -0.5733  0.2619 -0.5713
 3374TIP3   OH231756   5.513   3.061   7.251  0.0172 -0.1640 -0.1505
 3374TIP3    H131757   5.433   3.017   7.279  0.3956 -0.9964 -0.3493
 3374TIP3    H231758   5.536   3.019   7.168  0.9658 -0.3257  0.1798
 3375TIP3   OH231759   1.852   2.592   7.373  0.3728 -0.5603  0.2693
 3375TIP3    H131760   1.791   2.556   7.438  1.1856  0.0171  1.3934
 3375TIP3    H231761   1.799   2.650   7.320 -0.3404 -1.1324  0.3334
 3376TIP3   OH231762   0.634   4.666   0.607 -0.0150 -0.1825 -0.1171
 3376TIP3    H131763   0.551   4.622   0.588  0.5653 -0.2003 -3.2198
 3376TIP3    H231764   0.690   4.643   0.533  2.3063  1.0026  1.1595
 3377TIP3   OH231765   5.917   1.150   0.855 -0.2667 -0.0642 -0.1318
 3377TIP3    H131766   5.971   1.077   0.884  0.2801  0.1846 -0.4907
 3377TIP3    H231767   5.845   1.154   0.917  0.3473 -0.1584  0.5996
 3378TIP3   OH231768   2.527   3.134   7.753 -0.8370 -0.3056  0.2567
 3378TIP3    H131769   2.439   3.166   7.769 -0.6699 -0.0653  0.7234
 3378TIP3    H231770   2.583   3.212   7.761 -0.1606 -0.9973  3.5747
 3379TIP3   OH231771   2.154   1.714   1.893  0.5619  0.1409 -0.6377
 3379TIP3    H131772   2.082   1.652   1.883  0.1153  0.1219  1.9196
 3379TIP3    H231773   2.113   1.792   1.931  1.9362 -0.3053  2.0399
 3380TIP3   OH231774   0.700   6.657   0.560  0.1048 -0.3371  0.0937
 3380TIP3    H131775   0.732   6.572   0.590  1.9218 -0.0920 -1.0278
 3380TIP3    H231776   0.612   6.640   0.529 -0.0467 -1.5322  1.1059
 3381TIP3   OH231777   3.712   2.071   8.260  0.6479  0.3784  0.2034
 3381TIP3    H131778   3.723   2.086   8.166  1.4168 -0.5423  0.1303
 3381TIP3    H231779   3.642   2.006   8.267  0.2757  0.7873  0.2932
 3382TIP3   OH231780   2.021   6.256   0.767 -0.0836  0.1023 -0.9422
 3382TIP3    H131781   2.110   6.251   0.732 -0.1063 -0.2763 -0.9492
 3382TIP3    H231782   1.975   6.315   0.708  0.4164  1.0758 -0.3883
 3383TIP3   OH231783   1.742   3.914   1.018  0.6347 -0.1193  0.0583
 3383TIP3    H131784   1.701   3.889   1.100 -1.8361  0.1311 -1.0058
 3383TIP3    H231785   1.714   4.005   1.004  1.5938  0.0786 -0.7391
 3384TIP3   OH231786   1.615   0.187   8.362 -0.5977 -0.2900 -0.1128
 3384TIP3    H131787   1.590   0.274   8.391 -1.6865 -0.1547 -1.3984
 3384TIP3    H231788   1.562   0.128   8.415 -2.4637 -0.0455 -1.5965
 3385TIP3   OH231789   2.213   2.050   1.292  0.1175  0.2650 -0.2952
 3385TIP3    H131790   2.157   2.123   1.320  2.4202  2.2215 -0.4432
 3385TIP3    H231791   2.261   2.025   1.371 -1.1119 -1.6034 -0.0937
 3386TIP3   OH231792   1.130   4.561   2.639 -0.0982 -0.8667 -0.5772
 3386TIP3    H131793   1.204   4.562   2.579  0.9239 -3.3406  0.5010
 3386TIP3    H231794   1.136   4.644   2.687  0.6327 -0.0697 -1.9892
 3387TIP3   OH231795   4.263   5.180   0.861  0.5007  0.0750  0.1832
 3387TIP3    H131796   4.216   5.110   0.906  1.2110  0.0241  0.8703
 3387TIP3    H231797   4.199   5.218   0.801  0.6482 -2.6163 -1.8805
 3388TIP3   OH231798   1.900   1.463   8.756  0.5368  0.1727  0.3800
 3388TIP3    H131799   1.824   1.458   8.699 -0.1267  0.2061  1.2371
 3388TIP3    H231800   1.913   1.373   8.787  1.6163 -0.0782 -0.7096
 3389TIP3   OH231801   3.602   4.805   8.795  0.2691  0.6124  0.0005
 3389TIP3    H131802   3.606   4.719   8.754 -0.0225 -0.5973  2.3626
 3389TIP3    H231803   3.691   4.840   8.786  1.0488 -0.9962  1.1378
 3390TIP3   OH231804   1.043   3.439   6.522 -0.5713  0.1008 -0.7467
 3390TIP3    H131805   0.959   3.402   6.551  0.0578  0.0787  1.1696
 3390TIP3    H231806   1.077   3.484   6.599  0.7085  1.0060 -1.8083
 3391TIP3   OH231807   6.382   0.299   1.115  0.0128  0.6418  0.4801
 3391TIP3    H131808   6.457   0.360   1.115  0.5761 -0.0330 -0.4842
 3391TIP3    H231809   6.371   0.274   1.024 -0.7493 -0.0650  0.7570
 3392TIP3   OH231810   2.645   6.684   8.063 -0.3550  0.3083 -0.1835
 3392TIP3    H131811   2.611   6.757   8.011 -0.9493  0.6933  0.7194
 3392TIP3    H231812   2.649   6.611   8.001  0.1207  1.0625 -1.0645
 3393TIP3   OH231813   2.350   5.617   7.967  0.1136  0.2693 -0.6108
 3393TIP3    H131814   2.372   5.595   7.877 -0.0949 -1.0691 -0.3532
 3393TIP3    H231815   2.399   5.553   8.020 -0.8954  0.1123  0.1592
 3394TIP3   OH231816   0.330   5.017   0.139 -0.0796  0.0461 -0.5812
 3394TIP3    H131817   0.282   4.968   0.072 -0.5888 -0.0915 -0.1200
 3394TIP3    H231818   0.397   5.064   0.090 -0.0541 -0.5302 -1.1187
 3395TIP3   OH231819   6.168   1.248   2.229 -0.6527  0.0370 -0.2236
 3395TIP3    H131820   6.217   1.279   2.305 -0.3142 -0.2639 -0.3205
 3395TIP3    H231821   6.208   1.292   2.154 -1.4148  0.8550 -0.1746
 3396TIP3   OH231822   4.590   3.049   7.816  0.1878  0.4181  0.0354
 3396TIP3    H131823   4.510   3.057   7.868  1.3859 -0.5203  2.1443
 3396TIP3    H231824   4.566   2.991   7.744 -0.7215 -0.9378  1.3764
 3397TIP3   OH231825   6.375   3.854   8.297 -0.3966 -0.3231 -0.1355
 3397TIP3    H131826   6.359   3.804   8.377  1.4129 -1.1288 -0.2280
 3397TIP3    H231827   6.435   3.923   8.323 -1.0930  0.4208 -0.4786
 3398TIP3   OH231828   4.730   3.262   8.731 -0.5083  0.2844  0.1032
 3398TIP3    H131829   4.663   3.300   8.787 -1.3801 -0.7522 -0.1951
 3398TIP3    H231830   4.691   3.181   8.699  0.6342 -0.0018 -0.6277
 3399TIP3   OH231831   0.231   4.493   7.641 -0.3954  0.2156  0.0103
 3399TIP3    H131832   0.307   4.444   7.612 -0.1681  0.7592 -0.3201
 3399TIP3    H231833   0.240   4.579   7.600 -0.8917  0.4711  0.4186
 3400TIP3   OH231834   1.695   3.746   8.576  0.1187 -1.0467 -0.0546
 3400TIP3    H131835   1.610   3.705   8.592 -0.4083 -0.0920 -0.3360
 3400TIP3    H231836   1.679   3.839   8.589  1.4907 -0.9661  1.4554
 3401TIP3   OH231837   1.504   5.272   1.307  0.0668 -0.7528 -0.3595
 3401TIP3    H131838   1.413   5.243   1.321 -0.9629  2.7881  1.4827
 3401TIP3    H231839   1.500   5.324   1.227  0.7468 -1.5350 -0.9069
 3402TIP3   OH231840   1.018   0.546   0.139 -0.0611  0.2436  0.2336
 3402TIP3    H131841   1.024   0.502   0.224  1.2739  0.2953  0.1853
 3402TIP3    H231842   1.029   0.639   0.160 -1.1666  0.4113  0.1433
 3403TIP3   OH231843   3.799   0.842   6.992  0.1596 -0.0424  0.7185
 3403TIP3    H131844   3.882   0.881   6.962 -0.3434  0.1555 -0.4830
 3403TIP3    H231845   3.784   0.769   6.931  0.5605 -1.5085  2.2931
 3404TIP3   OH231846   2.244   2.551   0.145  0.3890 -0.8626 -0.1287
 3404TIP3    H131847   2.298   2.572   0.222 -1.2070  0.9262  0.6062
 3404TIP3    H231848   2.232   2.457   0.149  1.1560 -0.9374  1.2720
 3405TIP3   OH231849   2.103   0.981   1.661  0.1129  0.0076 -0.2635
 3405TIP3    H131850   2.155   1.040   1.607 -0.4654  1.6555  0.8993
 3405TIP3    H231851   2.163   0.950   1.729  0.4997 -1.0630 -1.0507
 3406TIP3   OH231852   2.642   4.649   8.674  0.1253  0.3222  0.3297
 3406TIP3    H131853   2.686   4.591   8.612  1.4818 -0.7225  2.1812
 3406TIP3    H231854   2.549   4.629   8.662  0.5264 -2.2973  0.8835
 3407TIP3   OH231855   5.233   0.371   7.674  0.3879  0.2484  0.3831
 3407TIP3    H131856   5.276   0.408   7.597  0.3072 -0.3029  0.0701
 3407TIP3    H231857   5.184   0.444   7.712 -1.7624 -0.0462 -1.5925
 3408TIP3   OH231858   4.465   0.902   7.809 -0.0224  0.5174  0.2923
 3408TIP3    H131859   4.384   0.853   7.826 -0.1291 -0.3976 -2.3863
 3408TIP3    H231860   4.535   0.837   7.819  0.3142  1.0286  1.4502
 3409TIP3   OH231861   1.327   5.249   2.343 -0.4197 -0.4241 -0.2167
 3409TIP3    H131862   1.378   5.326   2.367 -1.8522  0.7453 -0.7294
 3409TIP3    H231863   1.329   5.192   2.420  0.5405  0.1979  0.2192
 3410TIP3   OH231864   3.758   3.955   6.233 -0.2808 -0.8161  0.1638
 3410TIP3    H131865   3.824   3.887   6.220  1.4195  0.8230 -0.2705
 3410TIP3    H231866   3.800   4.018   6.292 -1.6330  0.0788  0.2075
 3411TIP3   OH231867   5.127   0.903   1.813 -0.6511 -0.5961 -0.3806
 3411TIP3    H131868   5.031   0.903   1.812 -0.6610 -0.0541 -0.0718
 3411TIP3    H231869   5.152   0.855   1.735 -1.1743 -1.5004 -0.0049
 3412TIP3   OH231870   6.810   0.201   2.215  0.5856 -0.4052  0.4646
 3412TIP3    H131871   6.810   0.168   2.126 -0.6016 -0.3010  0.4037
 3412TIP3    H231872   6.745   0.272   2.214 -0.2589 -1.1180  1.6468
 3413TIP3   OH231873   1.750   0.335   0.738 -1.0052  0.6625 -0.1031
 3413TIP3    H131874   1.832   0.294   0.711 -0.6597  0.4951  1.1155
 3413TIP3    H231875   1.683   0.291   0.687 -0.6465 -1.4046  1.0655
 3414TIP3   OH231876   1.066   5.542   7.137  0.3591 -0.1505 -0.5290
 3414TIP3    H131877   1.023   5.612   7.187  1.3764  0.8507 -1.0088
 3414TIP3    H231878   1.159   5.557   7.151  0.5942 -2.1895  0.3649
 3415TIP3   OH231879   4.287   4.167   0.775 -0.4785  0.1246  0.1960
 3415TIP3    H131880   4.200   4.138   0.801 -0.3477  1.1689  1.9986
 3415TIP3    H231881   4.344   4.092   0.794 -0.6469  0.2813  1.3840
 3416TIP3   OH231882   5.081   3.353   2.362 -0.5165 -0.4732 -0.5375
 3416TIP3    H131883   5.089   3.260   2.380  0.4908 -0.4061 -0.5666
 3416TIP3    H231884   4.987   3.370   2.364 -0.6129 -0.9933  1.9112
 3417TIP3   OH231885   5.589   3.271   6.993  0.4184  0.7403 -0.0522
 3417TIP3    H131886   5.587   3.186   7.038  0.2832  1.5831  1.5771
 3417TIP3    H231887   5.508   3.314   7.019 -0.0147  0.9990 -1.6932
 3418TIP3   OH231888   1.580   5.614   0.505 -0.0839 -0.6666  0.2500
 3418TIP3    H131889   1.604   5.706   0.510  1.3311 -0.9917 -0.1254
 3418TIP3    H231890   1.501   5.606   0.558 -0.5456  0.8613 -0.1705
 3419TIP3   OH231891   5.215   2.886   7.689 -0.0605  0.3189  0.1583
 3419TIP3    H131892   5.166   2.806   7.668 -0.8628  0.8259  0.0387
 3419TIP3    H231893   5.250   2.869   7.777 -0.0494 -0.2413  0.0535
 3420TIP3   OH231894   2.837   0.625   8.314 -0.2842 -0.1408  0.1610
 3420TIP3    H131895   2.779   0.550   8.328 -0.3569 -0.1503 -0.1769
 3420TIP3    H231896   2.866   0.650   8.402 -1.3125  0.2586  0.4065
 3421TIP3   OH231897   0.761   5.791   0.293  0.2087  0.1104 -0.3698
 3421TIP3    H131898   0.837   5.822   0.342  1.3537  0.6422 -2.3817
 3421TIP3    H231899   0.790   5.707   0.256 -1.6012 -1.7289  2.0125
 3422TIP3   OH231900   3.139   0.051   7.254 -0.6223  0.1549  0.0083
 3422TIP3    H131901   3.142   0.094   7.169  0.5666 -0.3675 -0.2420
 3422TIP3    H231902   3.048   0.058   7.282 -0.8626  1.0350 -0.9366
 3423TIP3   OH231903   0.266   4.861   8.328  0.4859 -0.3906 -0.4166
 3423TIP3    H131904   0.301   4.892   8.245  1.5950  1.7432  0.7777
 3423TIP3    H231905   0.200   4.926   8.352  0.2681 -0.9130  0.4631
 3424TIP3   OH231906   1.259   2.609   8.530  0.8759 -0.1447  0.0545
 3424TIP3    H131907   1.178   2.632   8.484 -0.7369 -1.9188  1.8108
 3424TIP3    H231908   1.262   2.669   8.605  0.7686 -0.5745  0.4068
 3425TIP3   OH231909   2.290   0.031   1.550  0.0657 -0.5296 -0.4254
 3425TIP3    H131910   2.353   0.037   1.622 -0.9233 -1.2777  0.5443
 3425TIP3    H231911   2.311   0.106   1.494  1.3424 -0.3526  0.2428
 3426TIP3   OH231912   4.637   1.395   7.296 -0.1474 -0.2058 -0.3966
 3426TIP3    H131913   4.733   1.396   7.306 -0.1426 -0.5935 -0.4202
 3426TIP3    H231914   4.619   1.321   7.239 -0.3614  0.6489 -1.4599
 3427TIP3   OH231915   5.721   4.933   1.729  0.3668 -0.7920  0.0676
 3427TIP3    H131916   5.763   4.860   1.683 -0.0002 -0.3552 -0.9859
 3427TIP3    H231917   5.760   5.011   1.691 -1.5270 -0.3661 -1.1059
 3428TIP3   OH231918   3.861   4.733   2.002 -0.0095  0.1746 -0.1530
 3428TIP3    H131919   3.786   4.773   1.958 -0.1539  0.3109  0.2063
 3428TIP3    H231920   3.824   4.697   2.083  0.3115  0.2290  0.0196
 3429TIP3   OH231921   5.628   6.791   2.392 -0.4336 -0.0929 -0.5215
 3429TIP3    H131922   5.556   6.846   2.360 -0.7693 -0.8949 -1.1725
 3429TIP3    H231923   5.706   6.828   2.350  0.0404  2.5589  2.3255
 3430TIP3   OH231924   0.900   0.190   0.805  0.1224 -0.7399  0.1482
 3430TIP3    H131925   0.920   0.098   0.786  0.1052 -0.9672  1.1416
 3430TIP3    H231926   0.818   0.206   0.760  0.5500 -0.9615 -0.7274
 3431TIP3   OH231927   2.063   0.172   1.646 -0.6073  0.5211 -0.2591
 3431TIP3    H131928   2.010   0.092   1.638  0.2712 -0.0223 -0.8532
 3431TIP3    H231929   2.148   0.149   1.607  0.0811  1.3640  0.6714
 3432TIP3   OH231930   2.221   5.547   7.458 -0.0921  0.5090 -0.1873
 3432TIP3    H131931   2.216   5.490   7.382 -0.8229 -0.7638  0.7704
 3432TIP3    H231932   2.129   5.559   7.485  0.1648  0.7643  0.6076
 3433TIP3   OH231933   5.642   1.713   7.900  0.4287  0.3310 -0.2366
 3433TIP3    H131934   5.595   1.733   7.819  0.7285 -0.2290 -0.5542
 3433TIP3    H231935   5.681   1.627   7.884  0.4222  0.1790  0.5307
 3434TIP3   OH231936   5.129   3.346   0.123 -0.0209  0.0529 -0.3825
 3434TIP3    H131937   5.062   3.298   0.074 -0.0065  0.5617 -0.9138
 3434TIP3    H231938   5.099   3.345   0.213 -1.7546  1.8769 -0.8578
 3435TIP3   OH231939   4.393   1.229   6.338  0.1524 -0.1060  0.3926
 3435TIP3    H131940   4.321   1.275   6.295 -0.0364 -1.3698 -0.7230
 3435TIP3    H231941   4.470   1.253   6.286  0.3916  0.4717  0.9960
 3436TIP3   OH231942   3.353   2.469   7.040 -0.0520  0.3923  0.0155
 3436TIP3    H131943   3.415   2.441   7.107 -0.1650  1.0183  0.3848
 3436TIP3    H231944   3.406   2.481   6.962  0.3686  1.3217  0.4346
 3437TIP3   OH231945   0.338   2.231   8.457  0.0673  0.0748 -0.1528
 3437TIP3    H131946   0.252   2.221   8.498  0.1489  2.1858  0.6543
 3437TIP3    H231947   0.339   2.165   8.388 -1.9193 -0.4770  0.2781
 3438TIP3   OH231948   4.316   0.714   1.022  0.0724 -0.3929  0.3859
 3438TIP3    H131949   4.269   0.643   1.065  0.0392  0.7638  2.3749
 3438TIP3    H231950   4.353   0.674   0.943 -1.7262 -2.0598  0.3209
 3439TIP3   OH231951   6.834   0.253   8.162  0.0765  0.4507 -0.2982
 3439TIP3    H131952   6.850   0.256   8.256 -1.0545 -1.0737 -0.0091
 3439TIP3    H231953   6.921   0.253   8.122  0.5863  0.0854  0.7959
 3440TIP3   OH231954   5.017   4.928   7.211 -0.0394 -0.3977  0.0552
 3440TIP3    H131955   5.035   4.991   7.141 -1.4129  0.2154  0.2215
 3440TIP3    H231956   4.951   4.869   7.173 -0.0760 -0.6464  0.5023
 3441TIP3   OH231957   5.582   3.635   1.089 -0.1349 -0.0707 -0.6869
 3441TIP3    H131958   5.579   3.725   1.120  2.2776  0.4249 -1.7051
 3441TIP3    H231959   5.548   3.584   1.163  1.6852  1.3855  1.3214
 3442TIP3   OH231960   4.213   4.763   7.237  0.0325 -0.0323  0.6827
 3442TIP3    H131961   4.204   4.670   7.216  1.8855 -0.1419  0.1845
 3442TIP3    H231962   4.302   4.772   7.271  1.4017  2.1222 -2.8713
 3443TIP3   OH231963   5.550   5.609   8.474  0.4505  0.5954 -0.7577
 3443TIP3    H131964   5.605   5.531   8.477 -0.5242 -0.1222 -0.9906
 3443TIP3    H231965   5.591   5.665   8.408  0.7459 -0.0505 -1.1273
 3444TIP3   OH231966   5.058   2.494   8.720 -0.4195  0.0725 -0.0266
 3444TIP3    H131967   5.068   2.456   8.807  0.5247  0.8996  0.2547
 3444TIP3    H231968   5.021   2.581   8.736  0.5227  0.5511 -0.3599
 3445TIP3   OH231969   0.655   0.250   0.682  0.8411  0.1778 -0.4499
 3445TIP3    H131970   0.666   0.195   0.605  0.6783  0.7171 -0.8703
 3445TIP3    H231971   0.605   0.326   0.650 -1.8219 -0.9201  0.7932
 3446TIP3   OH231972   3.031   2.759   7.347  0.0620 -0.0995 -0.5629
 3446TIP3    H131973   3.100   2.753   7.413  1.3982  0.0741 -1.8935
 3446TIP3    H231974   3.047   2.684   7.289 -0.7218  0.0761 -1.0224
 3447TIP3   OH231975   1.355   6.303   0.307 -0.3135  0.2804  0.1030
 3447TIP3    H131976   1.384   6.306   0.398  1.3775 -0.2354 -0.3774
 3447TIP3    H231977   1.345   6.209   0.288 -3.5129  0.4240  0.5448
 3448TIP3   OH231978   3.278   0.152   1.294 -0.2039 -0.0663  0.1608
 3448TIP3    H131979   3.292   0.086   1.226 -2.6155 -0.1613 -0.3593
 3448TIP3    H231980   3.267   0.102   1.375 -0.9356 -0.2433 -0.0402
 3449TIP3   OH231981   0.606   0.590   7.034 -0.3599 -1.0244  0.2458
 3449TIP3    H131982   0.656   0.643   6.972 -2.1719  1.6125  0.8732
 3449TIP3    H231983   0.568   0.520   6.980 -1.3407  0.7815 -1.5517
 3450TIP3   OH231984   1.903   4.279   7.227  0.5466  0.4842 -0.1290
 3450TIP3    H131985   1.950   4.337   7.167 -0.3014  1.9151  0.5282
 3450TIP3    H231986   1.961   4.270   7.303 -0.3305  2.6458  0.8990
 3451TIP3   OH231987   3.991   1.041   2.034  0.2615  0.0333  0.5419
 3451TIP3    H131988   4.083   1.017   2.022  0.7518  1.1739  1.7977
 3451TIP3    H231989   3.966   1.085   1.952  1.0938  0.5187  0.5486
 3452TIP3   OH231990   0.320   1.209   6.895  0.1509 -0.4632  0.0502
 3452TIP3    H131991   0.362   1.222   6.981 -1.3630  1.3660  0.5647
 3452TIP3    H231992   0.369   1.266   6.836  0.3765 -0.7506 -0.0455
 3453TIP3   OH231993   4.249   4.708   8.457 -0.1483  0.3865  1.1032
 3453TIP3    H131994   4.290   4.630   8.419 -1.9158  0.6906 -1.6362
 3453TIP3    H231995   4.234   4.685   8.549  4.3452 -0.3823  1.8758
 3454TIP3   OH231996   6.422   3.769   1.782 -0.5037 -0.4380 -0.1177
 3454TIP3    H131997   6.422   3.687   1.832  0.8059  0.0894  0.8070
 3454TIP3    H231998   6.493   3.759   1.719  0.5043  0.4295  0.8328
 3455TIP3   OH231999   6.209   4.386   7.090  0.0861 -1.1124  0.1480
 3455TIP3    H132000   6.230   4.351   7.004  0.2816 -0.7684  0.0543
 3455TIP3    H232001   6.140   4.451   7.074  1.6859  0.5994 -0.0518
 3456TIP3   OH232002   3.478   1.745   1.441 -0.3067 -0.7974  0.5637
 3456TIP3    H132003   3.411   1.708   1.498 -1.3778  0.5260  0.1917
 3456TIP3    H232004   3.438   1.747   1.354 -0.2269  1.0377  0.5342
 3457TIP3   OH232005   5.449   4.584   0.115  0.2447  0.3294 -0.1736
 3457TIP3    H132006   5.514   4.521   0.147  0.6109  0.7003 -0.1664
 3457TIP3    H232007   5.365   4.539   0.122  0.3229  0.3603  1.2220
 3458TIP3   OH232008   0.835   0.822   8.617 -0.6779 -0.2512  1.1747
 3458TIP3    H132009   0.740   0.809   8.606 -0.6609 -0.7331  1.5723
 3458TIP3    H232010   0.874   0.765   8.551 -0.6744  0.5828  0.4383
 3459TIP3   OH232011   5.316   2.726   7.024 -0.0864 -0.1478 -0.1043
 3459TIP3    H132012   5.364   2.648   7.051  0.6536  0.2443 -0.2502
 3459TIP3    H232013   5.231   2.718   7.066  0.3321 -0.5395  0.6941
 3460TIP3   OH232014   3.076   2.286   0.536  0.7356 -0.4121  0.1270
 3460TIP3    H132015   3.122   2.218   0.489  0.8150 -0.9182  0.9166
 3460TIP3    H232016   3.143   2.328   0.590  0.4311 -0.6258  0.6819
 3461TIP3   OH232017   0.177   4.488   7.313  0.7564 -0.4408 -0.1432
 3461TIP3    H132018   0.088   4.499   7.346  0.0270 -0.2640 -2.0831
 3461TIP3    H232019   0.201   4.574   7.279  2.3118 -0.0463  1.7283
 3462TIP3   OH232020   1.352   4.709   1.187  0.2057 -0.1288  0.2341
 3462TIP3    H132021   1.300   4.746   1.115  0.6002 -1.2663 -0.6807
 3462TIP3    H232022   1.337   4.768   1.261 -0.9472  0.5650 -0.5190
 3463TIP3   OH232023   0.174   2.398   7.236 -0.3636 -0.1273 -0.5034
 3463TIP3    H132024   0.241   2.381   7.302 -0.8199 -1.6965 -0.3908
 3463TIP3    H232025   0.213   2.367   7.154 -0.4268  0.2772 -0.6920
 3464TIP3   OH232026   1.308   0.898   8.378  0.8863 -0.0980 -0.0420
 3464TIP3    H132027   1.385   0.846   8.352  2.3958  1.8869  0.1634
 3464TIP3    H232028   1.279   0.940   8.297  0.2848 -0.5101 -0.0402
 3465TIP3   OH232029   0.705   4.696   8.371  0.4621  0.5533  0.0253
 3465TIP3    H132030   0.642   4.705   8.443 -0.3142  1.8844 -0.7823
 3465TIP3    H232031   0.657   4.651   8.302 -0.1202  2.8121 -1.1210
 3466TIP3   OH232032   5.592   5.200   0.110 -0.6199  0.4710  0.3439
 3466TIP3    H132033   5.610   5.248   0.029  0.3385  0.8094  0.7487
 3466TIP3    H232034   5.504   5.164   0.097 -1.0388  1.6754 -0.2806
 3467TIP3   OH232035   6.532   1.261   6.622  0.0511  0.1257  0.2197
 3467TIP3    H132036   6.607   1.315   6.596 -0.7642  0.8716 -0.6488
 3467TIP3    H232037   6.485   1.243   6.541 -0.6824 -0.4001  0.7367
 3468TIP3   OH232038   3.483   2.851   8.316  0.1610  0.0643 -0.2147
 3468TIP3    H132039   3.430   2.832   8.238  0.8739 -0.2340 -0.6401
 3468TIP3    H232040   3.558   2.792   8.308  0.1679 -0.0841  0.7870
 3469TIP3   OH232041   1.635   3.246   2.695  0.3435  0.5981 -0.3269
 3469TIP3    H132042   1.686   3.195   2.759  1.1977  0.6789 -0.9218
 3469TIP3    H232043   1.693   3.252   2.619 -0.3129  1.2651 -0.7775
 3470TIP3   OH232044   0.140   2.127   7.990 -0.4773  0.3622 -0.2103
 3470TIP3    H132045   0.130   2.179   8.069  2.7474  0.3276  0.3908
 3470TIP3    H232046   0.187   2.184   7.929  0.2341 -0.7359 -0.7424
 3471TIP3   OH232047   0.068   0.577   8.440 -0.3129 -0.0466  0.2274
 3471TIP3    H132048   0.042   0.509   8.502 -0.5624  0.1752  0.3729
 3471TIP3    H232049   0.105   0.530   8.366 -2.5531 -0.4815 -0.7004
 3472TIP3   OH232050   5.942   6.732   6.815  0.4311  0.0227 -0.4020
 3472TIP3    H132051   5.966   6.804   6.757  0.2024 -0.7053 -1.4070
 3472TIP3    H232052   6.014   6.728   6.879  1.2141  0.1422 -1.2625
 3473TIP3   OH232053   0.585   4.160   8.368  0.5221 -0.4958  0.1243
 3473TIP3    H132054   0.510   4.193   8.318  0.2571 -0.4773  0.5368
 3473TIP3    H232055   0.653   4.226   8.353 -0.1373  0.5013  1.2861
 3474TIP3   OH232056   6.135   2.961   0.995  0.2452 -0.2533  0.1295
 3474TIP3    H132057   6.162   3.049   1.018  1.0625 -0.2268 -0.8512
 3474TIP3    H232058   6.213   2.921   0.956 -0.0333 -1.4997  0.7885
 3475TIP3   OH232059   4.421   1.301   6.972 -0.1520 -0.1631  0.0895
 3475TIP3    H132060   4.478   1.298   6.895  0.2700  1.9111  0.2641
 3475TIP3    H232061   4.468   1.251   7.039 -0.4010 -1.7639 -0.8739
 3476TIP3   OH232062   1.404   5.142   1.713  0.5007  0.3177 -0.6147
 3476TIP3    H132063   1.389   5.099   1.629 -0.4547  0.6789 -0.6303
 3476TIP3    H232064   1.331   5.202   1.723 -0.5176 -1.1617  1.4133
 3477TIP3   OH232065   5.445   0.501   1.526  0.4251 -0.2731  0.0840
 3477TIP3    H132066   5.517   0.439   1.527  0.3710 -0.3332  0.5645
 3477TIP3    H232067   5.476   0.575   1.579 -0.8134 -1.4047  2.5377
 3478TIP3   OH232068   5.555   1.104   1.226  0.0456 -0.0113 -0.2053
 3478TIP3    H132069   5.583   1.024   1.182  0.4345  1.0081 -1.8976
 3478TIP3    H232070   5.473   1.128   1.182  0.3404  0.9283 -0.2602
 3479TIP3   OH232071   0.627   2.982   0.716 -0.2676 -0.5525 -0.7168
 3479TIP3    H132072   0.649   3.025   0.799 -1.0856 -0.6103 -0.4661
 3479TIP3    H232073   0.572   2.908   0.741 -1.6939  0.2267 -1.3964
 3480TIP3   OH232074   6.472   3.632   0.734  0.4222  0.0318 -0.4611
 3480TIP3    H132075   6.521   3.641   0.816 -1.9048  1.6615  0.8516
 3480TIP3    H232076   6.539   3.641   0.665  1.9774  2.4487  1.2207
 3481TIP3   OH232077   3.183   3.608   1.548  0.1718 -0.1828  0.4026
 3481TIP3    H132078   3.219   3.658   1.475 -0.3914 -1.3919 -0.7444
 3481TIP3    H232079   3.094   3.641   1.559  0.4965  0.5075  1.0506
 3482TIP3   OH232080   0.395   6.646   0.066 -0.1983 -0.2929 -0.3801
 3482TIP3    H132081   0.309   6.671   0.099  1.0614  1.8658  1.5004
 3482TIP3    H232082   0.386   6.552   0.047 -2.0035 -1.0164  3.1400
 3483TIP3   OH232083   4.170   6.574   8.080  0.2094  0.9201  0.2971
 3483TIP3    H132084   4.220   6.560   8.160 -0.8665  1.1551  1.0360
 3483TIP3    H232085   4.079   6.581   8.110 -0.2688  0.4888 -1.0049
 3484TIP3   OH232086   4.180   0.357   7.627  0.1310 -0.3013  0.2724
 3484TIP3    H132087   4.243   0.290   7.602 -0.4661 -0.6501 -0.3320
 3484TIP3    H232088   4.150   0.329   7.714  1.4593  0.3648  0.9723
 3485TIP3   OH232089   0.272   6.130   1.143 -0.0107 -0.0728  0.0201
 3485TIP3    H132090   0.305   6.137   1.232 -0.9619  1.7837  0.2771
 3485TIP3    H232091   0.252   6.220   1.118 -0.5803 -0.6542 -1.7572
 3486TIP3   OH232092   2.437   5.778   2.776  0.2118  0.5497  0.0171
 3486TIP3    H132093   2.528   5.804   2.789  0.4368 -0.5610  0.8048
 3486TIP3    H232094   2.441   5.684   2.758 -0.6515  0.8087 -1.8013
 3487TIP3   OH232095   0.213   1.249   8.579 -0.3631 -0.4823  0.0511
 3487TIP3    H132096   0.181   1.310   8.512 -1.1018 -0.2441  0.5942
 3487TIP3    H232097   0.269   1.302   8.635 -0.2691 -0.5220 -0.0059
 3488TIP3   OH232098   6.854   1.174   7.607 -0.2367  0.3047  0.3422
 3488TIP3    H132099   6.907   1.103   7.643  0.1767  0.9789  1.0807
 3488TIP3    H232100   6.764   1.145   7.622 -0.0732  0.0050  0.7755
 3489TIP3   OH232101   6.798   6.349   7.972  0.4799 -0.1400  0.0653
 3489TIP3    H132102   6.786   6.399   8.053  1.1390 -1.4767  1.0356
 3489TIP3    H232103   6.806   6.415   7.904  2.8534  1.1888  1.4947
 3490TIP3   OH232104   1.664   2.973   1.387  0.3298  0.7582  0.0543
 3490TIP3    H132105   1.626   3.056   1.359 -0.9844  1.2107  2.8516
 3490TIP3    H232106   1.659   2.975   1.483  0.4961 -2.4374  0.2440
 3491TIP3   OH232107   3.620   2.884   0.798  0.0620  0.6574  0.0283
 3491TIP3    H132108   3.682   2.927   0.739  0.4800 -0.3371 -0.2916
 3491TIP3    H232109   3.670   2.811   0.835 -1.0507 -0.4971 -0.6378
 3492TIP3   OH232110   4.886   3.007   0.511  0.0032  0.1831  0.0425
 3492TIP3    H132111   4.848   3.040   0.430  0.6376  1.7453  0.3351
 3492TIP3    H232112   4.980   3.006   0.495 -0.0194 -2.5906 -0.2998
 3493TIP3   OH232113   4.640   6.479   8.729 -0.8494 -0.1925  0.0880
 3493TIP3    H132114   4.710   6.423   8.695  0.1037 -0.1312  1.8626
 3493TIP3    H232115   4.568   6.419   8.747 -0.0448 -0.8178  1.4182
 3494TIP3   OH232116   5.258   6.043   7.888  0.5911 -0.0508  0.6132
 3494TIP3    H132117   5.338   6.000   7.921  1.4783 -0.9168 -2.3889
 3494TIP3    H232118   5.287   6.131   7.865  0.0017  0.5022  1.8537
 3495TIP3   OH232119   3.912   1.279   2.148  0.5618 -0.0060  0.4008
 3495TIP3    H132120   3.938   1.192   2.118  1.9562  0.2178  0.8778
 3495TIP3    H232121   3.978   1.303   2.213  0.3462  1.5115  0.1121
 3496TIP3   OH232122   2.907   1.170   1.065  0.1471  0.2506  0.2517
 3496TIP3    H132123   2.955   1.234   1.013 -1.2475  0.6883 -0.5483
 3496TIP3    H232124   2.952   1.087   1.048  0.4657  0.5952 -0.6808
 3497TIP3   OH232125   3.936   2.556   0.444 -0.0888  0.5339  0.2413
 3497TIP3    H132126   4.004   2.607   0.489  0.2989 -0.8590  1.3273
 3497TIP3    H232127   3.939   2.470   0.487 -0.9316 -0.3054 -1.2985
 3498TIP3   OH232128   0.508   1.162   0.421 -0.0537  0.0626 -0.0799
 3498TIP3    H132129   0.487   1.148   0.514  0.4474 -0.2317 -0.0092
 3498TIP3    H232130   0.423   1.154   0.377  0.0543 -2.6763  0.0247
 3499TIP3   OH232131   4.890   4.882   0.654 -0.1303 -0.0536 -0.1056
 3499TIP3    H132132   4.916   4.790   0.661  2.1891  0.6369  3.3314
 3499TIP3    H232133   4.954   4.920   0.594  1.4154 -0.0811  1.4222
 3500TIP3   OH232134   0.321   4.250   1.728  0.3327 -0.4014 -0.6566
 3500TIP3    H132135   0.411   4.219   1.741  0.8149  1.0614 -0.3986
 3500TIP3    H232136   0.281   4.242   1.815 -0.2598 -2.3901 -1.0570
 3501TIP3   OH232137   3.899   0.134   1.864  0.0365  0.6566  0.5026
 3501TIP3    H132138   3.899   0.048   1.821 -4.2768  1.0666 -0.7977
 3501TIP3    H232139   3.988   0.166   1.853  0.9356 -2.2212 -2.0010
 3502TIP3   OH232140   4.692   4.309   1.481 -0.2239 -0.4003  0.0786
 3502TIP3    H132141   4.706   4.231   1.535  2.2946 -0.2787 -0.3122
 3502TIP3    H232142   4.656   4.373   1.542  3.2488 -0.0207  1.9476
 3503TIP3   OH232143   2.354   1.811   0.854 -0.2762  0.0145 -0.7644
 3503TIP3    H132144   2.441   1.827   0.815  0.0377 -1.3603 -0.6779
 3503TIP3    H232145   2.359   1.851   0.940  0.3687 -0.2598 -0.6644
 3504TIP3   OH232146   5.152   5.477   7.103  0.2381  0.1177  0.2094
 3504TIP3    H132147   5.240   5.441   7.115 -0.5870 -1.7434  0.9016
 3504TIP3    H232148   5.128   5.451   7.014  0.6256  1.2582 -0.2578
 3505TIP3   OH232149   2.106   5.931   8.742  0.6035 -0.1034 -0.0276
 3505TIP3    H132150   2.131   5.988   8.814  0.7546 -0.2168  0.0106
 3505TIP3    H232151   2.010   5.930   8.744  0.5273  1.3835 -0.9766
 3506TIP3   OH232152   2.698   3.136   8.435  0.5500  0.6909  0.0391
 3506TIP3    H132153   2.764   3.075   8.402 -0.0464  0.4139 -0.6670
 3506TIP3    H232154   2.747   3.197   8.490  1.1361 -0.5203  0.9087
 3507TIP3   OH232155   0.893   1.704   1.732 -0.4045 -0.4829  0.1302
 3507TIP3    H132156   0.897   1.650   1.653  1.8004 -1.3580  0.7733
 3507TIP3    H232157   0.821   1.667   1.783 -0.9363 -0.7960 -0.8273
 3508TIP3   OH232158   1.102   5.830   1.537 -0.0049 -0.3567  0.3600
 3508TIP3    H132159   1.054   5.912   1.530  0.3593 -0.1568  0.1857
 3508TIP3    H232160   1.189   5.850   1.503 -0.0084 -0.8947  0.0313
 3509TIP3   OH232161   2.941   0.015   0.909 -0.0657 -0.4214  0.8573
 3509TIP3    H132162   2.963   0.104   0.885  1.1559 -0.7771  0.5652
 3509TIP3    H232163   2.852   0.020   0.943  0.9737  1.4434  3.7155
 3510TIP3   OH232164   5.583   1.939   8.050 -0.0874  0.5150 -0.0422
 3510TIP3    H132165   5.593   1.862   7.995 -1.4931  0.9804 -1.0141
 3510TIP3    H232166   5.530   1.999   7.998 -0.0491  1.6561  1.1665
 3511TIP3   OH232167   2.319   4.058   2.037  0.2696  0.1995 -0.1537
 3511TIP3    H132168   2.233   4.040   2.075 -0.1040  1.3499 -0.4136
 3511TIP3    H232169   2.379   4.003   2.086 -0.4673  0.2076  0.7838
 3512TIP3   OH232170   2.149   4.913   8.755 -0.6483 -0.0747  0.5040
 3512TIP3    H132171   2.133   4.850   8.825  1.4187  0.1708  1.2721
 3512TIP3    H232172   2.101   4.991   8.782 -1.0657 -0.4475  0.8802
 3513TIP3   OH232173   3.584   2.811   1.424  0.1834  0.1282 -0.7708
 3513TIP3    H132174   3.593   2.904   1.403 -0.8187  0.5665  0.5527
 3513TIP3    H232175   3.660   2.791   1.478  1.5026 -0.3991 -2.7053
 3514TIP3   OH232176   1.373   5.686   0.669  0.0478 -0.2962 -0.3556
 3514TIP3    H132177   1.284   5.721   0.659  0.5169  0.8233 -0.6896
 3514TIP3    H232178   1.423   5.757   0.709  0.5424 -1.3157  0.8996
 3515TIP3   OH232179   4.162   6.496   1.433  0.4061  0.0776  0.4958
 3515TIP3    H132180   4.249   6.456   1.420  0.8569  1.0197  0.5720
 3515TIP3    H232181   4.165   6.576   1.382 -1.4110 -1.2023 -1.7800
 3516TIP3   OH232182   1.373   5.329   0.427 -0.3856 -0.1104  0.0754
 3516TIP3    H132183   1.413   5.242   0.418  1.1005  0.3900  1.3318
 3516TIP3    H232184   1.424   5.371   0.496 -0.0096  2.3698 -1.5900
 3517TIP3   OH232185   2.397   2.184   1.584 -0.0215 -0.2761 -0.1162
 3517TIP3    H132186   2.450   2.159   1.508  0.3421  1.6072 -0.5382
 3517TIP3    H232187   2.391   2.280   1.579 -1.6617 -0.2649  1.1431
 3518TIP3   OH232188   5.025   5.750   7.790 -0.0571  0.1963 -0.3623
 3518TIP3    H132189   4.935   5.779   7.805 -0.1755 -0.2096 -0.2708
 3518TIP3    H232190   5.026   5.724   7.698 -0.1054 -0.0352 -0.2999
 3519TIP3   OH232191   1.766   3.708   7.888 -0.2664  0.0622  0.2688
 3519TIP3    H132192   1.693   3.703   7.950 -0.4049  1.3100  0.2248
 3519TIP3    H232193   1.819   3.782   7.919 -0.6400  1.0785 -1.4074
 3520TIP3   OH232194   0.557   3.780   1.297 -0.0660 -1.0280 -0.5943
 3520TIP3    H132195   0.604   3.863   1.290 -1.7475 -0.0448 -0.6303
 3520TIP3    H232196   0.556   3.746   1.207 -0.7129 -0.3181 -0.8611
 3521TIP3   OH232197   2.810   0.486   1.868 -0.6667  0.2471  0.3858
 3521TIP3    H132198   2.807   0.433   1.789 -0.3009  0.4949  0.2042
 3521TIP3    H232199   2.822   0.423   1.939 -0.8482  0.0376  0.2308
 3522TIP3   OH232200   3.665   4.017   7.164  0.0615  0.0720 -0.2708
 3522TIP3    H132201   3.627   3.948   7.110  1.5588 -1.0585  0.0506
 3522TIP3    H232202   3.664   4.095   7.108  0.0921 -0.6684 -1.3329
 3523TIP3   OH232203   4.078   6.847   2.150 -0.4729  0.0505  0.0071
 3523TIP3    H132204   4.041   6.897   2.078  0.0673 -0.4806 -0.6469
 3523TIP3    H232205   4.094   6.912   2.219  1.9198  1.1308 -1.4564
 3524TIP3   OH232206   0.437   2.606   8.642  0.0182 -0.5274  0.5185
 3524TIP3    H132207   0.440   2.700   8.626 -2.0398 -0.3741  0.8727
 3524TIP3    H232208   0.453   2.596   8.736 -1.0716 -0.4251  0.7179
 3525TIP3   OH232209   2.552   4.652   0.411  0.0408  0.4073  0.1653
 3525TIP3    H132210   2.532   4.691   0.326  0.1524 -2.1784 -1.1721
 3525TIP3    H232211   2.646   4.669   0.425 -0.0576  1.1312 -0.0658
 3526TIP3   OH232212   3.388   2.738   1.170 -0.3435 -0.2030 -0.0880
 3526TIP3    H132213   3.293   2.723   1.179 -0.3854 -0.4361 -0.8486
 3526TIP3    H232214   3.396   2.827   1.137 -0.2679  0.0213  0.5242
 3527TIP3   OH232215   2.931   2.510   1.974  0.4017  0.1347  0.1387
 3527TIP3    H132216   2.981   2.591   1.968  1.0393 -0.2491  0.1928
 3527TIP3    H232217   2.989   2.443   1.938 -0.0008 -0.3482  0.3724
 3528TIP3   OH232218   5.489   3.061   1.635 -0.0103  0.3851  0.5270
 3528TIP3    H132219   5.577   3.087   1.609  1.5301 -2.6074  2.2523
 3528TIP3    H232220   5.469   2.985   1.581 -0.4447 -0.4657  1.8174
 3529TIP3   OH232221   3.498   6.683   7.274  1.1085  0.2667  0.1037
 3529TIP3    H132222   3.571   6.735   7.240  1.6505  0.0259  0.8406
 3529TIP3    H232223   3.450   6.742   7.332 -0.6986  1.1200 -2.1479
 3530TIP3   OH232224   1.624   2.631   7.154  0.0884 -0.3644  0.6316
 3530TIP3    H132225   1.624   2.722   7.126 -0.7860 -0.4648  0.2402
 3530TIP3    H232226   1.561   2.588   7.095  1.1682 -1.4143  0.1945
 3531TIP3   OH232227   4.012   0.136   7.325  0.5349  0.8288  0.1412
 3531TIP3    H132228   3.995   0.169   7.413  0.0481  2.2192 -0.4463
 3531TIP3    H232229   3.934   0.161   7.274  1.3320  1.1281 -0.9650
 3532TIP3   OH232230   3.298   3.181   1.489  0.8707 -0.0461 -0.1058
 3532TIP3    H132231   3.348   3.232   1.425 -1.5102  1.4847 -0.9282
 3532TIP3    H232232   3.298   3.235   1.568 -2.3388  1.9121 -1.2233
 3533TIP3   OH232233   1.953   5.813   0.675  0.1286  0.5107 -0.1903
 3533TIP3    H132234   1.882   5.851   0.625 -0.0809  1.5353  0.8429
 3533TIP3    H232235   1.958   5.866   0.754  0.9838 -0.5431  0.4989
 3534TIP3   OH232236   1.774   5.514   1.727 -0.9199  0.2252 -0.1932
 3534TIP3    H132237   1.837   5.509   1.799 -0.4475 -0.8069 -0.6472
 3534TIP3    H232238   1.769   5.424   1.694  0.4849  1.0105 -2.8047
 3535TIP3   OH232239   0.669   6.065   1.944 -0.3931 -0.0626  0.2611
 3535TIP3    H132240   0.604   6.014   1.994 -2.2891  0.6897 -1.3333
 3535TIP3    H232241   0.697   6.133   2.005 -1.8184  0.1613  0.7116
 3536TIP3   OH232242   3.315   3.381   1.670 -0.3630 -0.7651  0.3064
 3536TIP3    H132243   3.410   3.369   1.670 -0.2927 -0.2258  0.1079
 3536TIP3    H232244   3.300   3.454   1.610 -0.8302 -0.2012  1.1043
 3537TIP3   OH232245   6.492   3.177   2.442 -0.0720 -0.0164 -0.4278
 3537TIP3    H132246   6.587   3.180   2.433  0.1122 -1.5011  0.6322
 3537TIP3    H232247   6.463   3.268   2.429  1.6374  0.7399  0.6941
 3538TIP3   OH232248   6.773   4.161   0.114  0.0395  0.1278  0.1900
 3538TIP3    H132249   6.802   4.184   0.203 -2.3377  1.1793  0.7806
 3538TIP3    H232250   6.690   4.117   0.126 -1.0571  1.5679 -1.5482
 3539TIP3   OH232251   2.360   3.246   0.635 -0.3485 -0.0055  0.0682
 3539TIP3    H132252   2.371   3.177   0.570  2.8601  0.7360 -0.3350
 3539TIP3    H232253   2.407   3.321   0.599  0.2510  0.9054  2.5524
 3540TIP3   OH232254   6.533   1.326   8.471 -0.1312 -0.0091 -0.0980
 3540TIP3    H132255   6.461   1.280   8.430 -0.2589  0.2310 -0.1456
 3540TIP3    H232256   6.535   1.412   8.428  0.8354 -0.3733 -0.8275
 3541TIP3   OH232257   4.018   5.295   8.493  0.2213  0.5149 -0.3880
 3541TIP3    H132258   4.002   5.278   8.585 -0.6758  1.0814 -0.4320
 3541TIP3    H232259   3.993   5.387   8.481 -3.3847 -0.4960 -1.9729
 3542TIP3   OH232260   0.376   0.286   8.825 -0.0438  0.7975 -0.0302
 3542TIP3    H132261   0.391   0.195   8.850  1.2359  0.5932 -1.4621
 3542TIP3    H232262   0.409   0.337   8.899  0.7454  0.1344  0.0814
 3543TIP3   OH232263   5.133   2.461   8.078 -0.3124 -0.3179  0.0838
 3543TIP3    H132264   5.053   2.471   8.027  0.9179  0.5713 -1.7562
 3543TIP3    H232265   5.141   2.544   8.125  0.7016  0.5502 -1.5456
 3544TIP3   OH232266   1.221   0.858   6.662 -0.0277  0.0321  0.1062
 3544TIP3    H132267   1.186   0.777   6.626  2.1037 -1.0950  0.3917
 3544TIP3    H232268   1.316   0.844   6.664  0.2235  1.4956  2.6244
 3545TIP3   OH232269   6.216   4.095   7.711 -0.3367 -0.2175 -0.3537
 3545TIP3    H132270   6.252   4.169   7.760  0.3780 -1.1839  0.6097
 3545TIP3    H232271   6.193   4.031   7.778 -2.0451 -0.4314 -1.0871
 3546TIP3   OH232272   4.099   6.474   0.273  0.0653  0.0856 -0.1707
 3546TIP3    H132273   4.015   6.435   0.299 -0.2308 -0.3341 -1.6741
 3546TIP3    H232274   4.164   6.407   0.296 -0.0464  0.2118  0.5476
 3547TIP3   OH232275   5.626   2.365   7.402 -0.2620 -0.2764 -0.0127
 3547TIP3    H132276   5.639   2.449   7.447 -0.1705 -0.1487 -0.2758
 3547TIP3    H232277   5.532   2.359   7.391 -0.3390 -0.6072  0.7622
 3548TIP3   OH232278   3.805   2.736   0.962  0.1070  0.4092  0.7906
 3548TIP3    H132279   3.762   2.701   1.040  0.7108  0.8578  1.3366
 3548TIP3    H232280   3.880   2.678   0.948  0.4514  0.7908  1.0186
 3549TIP3   OH232281   2.258   1.805   8.823 -0.2845 -1.0794  0.2041
 3549TIP3    H132282   2.205   1.850   8.757 -0.6795 -1.1417  0.4708
 3549TIP3    H232283   2.221   1.717   8.827  0.4327 -1.4084 -0.2562
 3550TIP3   OH232284   4.624   6.593   1.402  0.2891 -0.4701 -0.5506
 3550TIP3    H132285   4.670   6.550   1.330 -0.0769  1.6870 -2.2119
 3550TIP3    H232286   4.656   6.683   1.400 -0.1993 -0.1906  1.6253
 3551TIP3   OH232287   2.052   5.228   1.759  0.7659 -0.1060 -0.5173
 3551TIP3    H132288   2.136   5.247   1.718 -0.0735  3.1164 -1.0335
 3551TIP3    H232289   2.051   5.280   1.839  0.0393 -1.7547  0.6130
 3552TIP3   OH232290   3.855   4.598   7.502  0.5387  0.0901 -0.6802
 3552TIP3    H132291   3.856   4.505   7.483  0.5904  0.1246 -0.8552
 3552TIP3    H232292   3.913   4.608   7.578 -1.3942 -0.3313  0.9161
 3553TIP3   OH232293   2.706   0.908   1.479 -0.6105  0.3408  0.0209
 3553TIP3    H132294   2.648   0.963   1.426  0.4071  1.5335  0.0895
 3553TIP3    H232295   2.726   0.962   1.556 -0.2324 -0.4558  0.4904
 3554TIP3   OH232296   4.799   5.349   8.108  0.1851 -0.3238  0.1665
 3554TIP3    H132297   4.771   5.266   8.145 -0.8216  0.5432  1.4335
 3554TIP3    H232298   4.863   5.325   8.040 -0.7264 -2.1457 -0.1008
 3555TIP3   OH232299   5.681   1.102   1.956  0.0888 -0.1076 -0.4583
 3555TIP3    H132300   5.754   1.097   2.018 -0.1924 -0.7325 -0.1582
 3555TIP3    H232301   5.622   1.168   1.994 -0.3947 -0.9508  0.3090
 3556TIP3   OH232302   5.302   0.923   0.665  0.6346  0.3517 -0.2261
 3556TIP3    H132303   5.339   0.918   0.576 -0.6549  0.9208 -0.8229
 3556TIP3    H232304   5.212   0.894   0.655 -0.2784  2.7157  0.3956
 3557TIP3   OH232305   3.045   1.599   1.528 -0.3724  0.2102  0.1109
 3557TIP3    H132306   3.055   1.506   1.547  1.1602  0.3072 -0.0874
 3557TIP3    H232307   2.996   1.601   1.446  3.1677 -0.6621 -2.2565
 3558TIP3   OH232308   3.896   5.148   1.636 -0.4242  0.0536  0.6246
 3558TIP3    H132309   3.985   5.180   1.655 -0.9162  2.2936 -0.5305
 3558TIP3    H232310   3.842   5.227   1.637 -1.8966 -0.8428 -1.5987
 3559TIP3   OH232311   4.683   5.841   0.815 -0.1112  0.0717  0.2814
 3559TIP3    H132312   4.772   5.844   0.850  0.7736 -1.0557 -1.7720
 3559TIP3    H232313   4.627   5.844   0.893  1.6732  1.1070  1.6022
 3560TIP3   OH232314   1.340   6.006   2.631 -0.1459  0.3979 -0.2452
 3560TIP3    H132315   1.352   6.085   2.577  0.5561  1.8299  1.8550
 3560TIP3    H232316   1.425   5.994   2.674 -1.1204  0.3920  1.8173
 3561TIP3   OH232317   2.898   1.268   7.657  0.2258 -0.2520 -0.0626
 3561TIP3    H132318   2.990   1.241   7.661  0.3660  0.3210  1.0009
 3561TIP3    H232319   2.891   1.337   7.722 -0.2182  2.0123 -2.3556
 3562TIP3   OH232320   0.930   6.282   2.297  0.0955 -0.2705  0.1642
 3562TIP3    H132321   0.918   6.326   2.381 -1.5616 -0.2273 -0.0695
 3562TIP3    H232322   0.980   6.344   2.244 -1.5126  1.0526  0.1078
 3563TIP3   OH232323   0.687   4.872   1.086  0.8488 -0.3749  0.0952
 3563TIP3    H132324   0.770   4.921   1.092 -0.7594  2.9386 -2.0570
 3563TIP3    H232325   0.677   4.854   0.993 -1.4939  0.6228  0.1041
 3564TIP3   OH232326   3.867   1.811   2.088 -0.1205  0.3057 -0.3657
 3564TIP3    H132327   3.939   1.835   2.146 -0.3178 -0.6700  0.3155
 3564TIP3    H232328   3.891   1.724   2.055 -0.4030  0.5013 -1.1105
 3565TIP3   OH232329   2.555   0.910   1.781 -0.2617 -0.2913  0.0623
 3565TIP3    H132330   2.536   0.903   1.875  0.6678 -2.1569  0.1424
 3565TIP3    H232331   2.639   0.956   1.777  0.4528 -1.5416  0.2478
 3566TIP3   OH232332   1.120   3.156   1.011 -0.1626 -0.2873  0.1266
 3566TIP3    H132333   1.100   3.065   1.028  0.9346 -0.6792 -0.5717
 3566TIP3    H232334   1.059   3.182   0.942 -0.0103 -0.6998 -0.1648
 3567TIP3   OH232335   4.439   5.205   2.125 -0.2065  0.8241 -0.5694
 3567TIP3    H132336   4.418   5.195   2.032  0.2903 -1.0297 -0.5249
 3567TIP3    H232337   4.412   5.122   2.164  2.0749  0.5003  0.4599
 3568TIP3   OH232338   3.778   3.546   0.931 -0.2121  0.0966  0.2109
 3568TIP3    H132339   3.796   3.529   0.838 -0.7029  0.7685 -0.0154
 3568TIP3    H232340   3.797   3.463   0.975 -0.2731 -0.3165 -0.5284
 3569TIP3   OH232341   4.784   2.932   1.417  0.0124 -0.6587  0.0889
 3569TIP3    H132342   4.801   2.994   1.488  0.5850 -2.3492  1.4996
 3569TIP3    H232343   4.689   2.936   1.405 -0.1606 -0.6778  1.2974
 3570TIP3   OH232344   0.603   0.912   7.155 -0.5717  0.0028 -0.2052
 3570TIP3    H132345   0.556   0.931   7.073 -0.2592  2.5496  0.1252
 3570TIP3    H232346   0.693   0.940   7.138 -0.3152 -0.2163  0.7587
 3571TIP3   OH232347   2.029   6.637   7.678  0.4660 -0.1690  0.0120
 3571TIP3    H132348   2.062   6.725   7.696 -1.3578  0.2563  1.5737
 3571TIP3    H232349   2.059   6.584   7.752 -0.3145 -0.3303  0.2192
 3572TIP3   OH232350   3.833   4.594   8.155 -0.4025  0.3216 -0.8000
 3572TIP3    H132351   3.927   4.599   8.139 -0.1625 -0.7330  0.0620
 3572TIP3    H232352   3.798   4.677   8.125  0.8899  0.9467 -0.6435
 3573TIP3   OH232353   1.948   1.897   7.173 -0.0785  0.3937 -0.7715
 3573TIP3    H132354   1.991   1.971   7.132  1.4609  0.8819  1.5902
 3573TIP3    H232355   2.015   1.829   7.178 -1.1171 -0.7649 -1.7694
 3574TIP3   OH232356   3.448   5.720   0.767 -0.4425 -0.0464  0.0823
 3574TIP3    H132357   3.508   5.751   0.699 -2.2142  0.3743 -1.3748
 3574TIP3    H232358   3.469   5.627   0.777  1.2542  0.3473  0.5331
 3575TIP3   OH232359   6.372   5.727   8.723  0.1948  0.1104  0.2662
 3575TIP3    H132360   6.303   5.666   8.749 -0.6984  0.1080 -1.8942
 3575TIP3    H232361   6.452   5.689   8.759 -0.6667 -0.9673  1.1202
 3576TIP3   OH232362   5.757   0.662   6.315 -0.2204 -0.5021 -0.2711
 3576TIP3    H132363   5.777   0.687   6.405  0.5262 -1.8378 -0.0386
 3576TIP3    H232364   5.688   0.723   6.288  0.0440  0.3831  0.9470
 3577TIP3   OH232365   4.856   4.084   2.363 -0.4769  0.0553  0.4052
 3577TIP3    H132366   4.915   4.082   2.288  2.1327  0.6994  2.3181
 3577TIP3    H232367   4.841   3.991   2.384  1.8340 -0.1916  1.2703
 3578TIP3   OH232368   5.867   1.246   7.239 -0.1961 -0.3066  0.0164
 3578TIP3    H132369   5.805   1.228   7.310 -0.6337  2.2894  0.4047
 3578TIP3    H232370   5.877   1.341   7.240  1.7020 -0.4174 -1.8421
 3579TIP3   OH232371   2.222   5.194   0.828  0.5678 -0.4626  0.2755
 3579TIP3    H132372   2.134   5.228   0.810  0.3093 -0.5638  1.2612
 3579TIP3    H232373   2.266   5.193   0.743 -0.1182  0.3544 -0.1060
 3580TIP3   OH232374   6.580   6.159   7.660  0.0052 -0.2766 -0.1150
 3580TIP3    H132375   6.586   6.106   7.739  0.1317 -2.1981 -1.3390
 3580TIP3    H232376   6.524   6.107   7.601  0.4311  0.7908 -1.5068
 3581TIP3   OH232377   1.894   3.123   1.552  0.4475  0.1629  0.3427
 3581TIP3    H132378   1.864   3.205   1.512 -0.7079 -0.6412 -0.4889
 3581TIP3    H232379   1.868   3.130   1.644 -0.6157  0.2847  0.0411
 3582TIP3   OH232380   3.444   0.769   6.697  0.6155 -0.2053 -0.0533
 3582TIP3    H132381   3.446   0.682   6.659 -1.1312 -0.6705  0.8101
 3582TIP3    H232382   3.410   0.755   6.786 -0.6770  1.4572 -0.2480
 3583TIP3   OH232383   6.240   1.614   8.198  0.2247  0.1537 -0.5173
 3583TIP3    H132384   6.147   1.593   8.191  0.1237 -0.1082  1.2041
 3583TIP3    H232385   6.277   1.585   8.115 -0.9957 -1.0496 -0.6812
 3584TIP3   OH232386   5.402   5.140   2.428 -0.3270  0.1315 -0.1060
 3584TIP3    H132387   5.407   5.161   2.521 -1.3830 -1.7306  0.4171
 3584TIP3    H232388   5.491   5.112   2.405 -0.4329 -1.0202  0.7867
 3585TIP3   OH232389   5.396   1.442   0.492  1.1673 -0.3477  0.2921
 3585TIP3    H132390   5.474   1.390   0.474  1.2442 -0.4032  0.7746
 3585TIP3    H232391   5.419   1.496   0.568  1.0513  0.3207 -0.1388
 3586TIP3   OH232392   0.213   0.867   8.028 -0.4625 -0.3861  0.2827
 3586TIP3    H132393   0.123   0.849   7.999 -0.3901 -0.0127 -0.1820
 3586TIP3    H232394   0.242   0.939   7.972  0.3856 -0.9946 -0.0670
 3587TIP3   OH232395   6.707   0.706   7.706  0.2371 -0.1583 -0.3781
 3587TIP3    H132396   6.776   0.726   7.769 -0.1499 -0.1373  0.0396
 3587TIP3    H232397   6.721   0.615   7.681 -0.2390 -0.4879  0.5333
 3588TIP3   OH232398   4.643   5.234   1.537  1.0078 -0.0448  0.2718
 3588TIP3    H132399   4.577   5.179   1.493  1.7106 -0.7128  0.0233
 3588TIP3    H232400   4.592   5.291   1.595  0.1815 -0.2632 -0.2210
 3589TIP3   OH232401   1.126   6.468   7.079  0.1983 -0.2783  0.2112
 3589TIP3    H132402   1.101   6.482   7.171  1.2652  1.0434  0.3411
 3589TIP3    H232403   1.182   6.543   7.059  0.0829 -0.6217 -1.4923
 3590TIP3   OH232404   3.035   4.029   0.412 -0.4450 -0.2822  0.1969
 3590TIP3    H132405   3.062   3.980   0.490 -0.3426 -0.3626  0.1106
 3590TIP3    H232406   2.958   3.982   0.379  1.3373 -2.1698 -1.5902
 3591TIP3   OH232407   5.877   5.095   0.243  0.0887  0.2441  0.2867
 3591TIP3    H132408   5.854   5.124   0.155 -0.8964  0.5518  0.6236
 3591TIP3    H232409   5.891   5.001   0.234  0.6148  0.3751 -0.3108
 3592TIP3   OH232410   4.861   4.698   7.137  0.0235  0.5372  0.3364
 3592TIP3    H132411   4.784   4.640   7.141 -0.0396  0.4523 -1.3151
 3592TIP3    H232412   4.934   4.642   7.162 -0.1062 -0.1604 -0.7531
 3593TIP3   OH232413   5.527   6.417   1.806  0.0803 -0.2923  0.5324
 3593TIP3    H132414   5.522   6.322   1.816  0.2604 -0.3019  0.5367
 3593TIP3    H232415   5.553   6.430   1.715  1.1749 -0.2804  0.8354
 3594TIP3   OH232416   3.091   2.724   1.131 -0.1872  0.4254  0.2081
 3594TIP3    H132417   3.026   2.676   1.079  0.5247  0.5269 -0.8069
 3594TIP3    H232418   3.046   2.803   1.161 -0.4392  0.6514 -0.7586
 3595TIP3   OH232419   3.643   4.168   8.077 -0.2105 -0.1939  0.3669
 3595TIP3    H132420   3.613   4.146   8.165 -0.3864 -0.7309  0.1739
 3595TIP3    H232421   3.678   4.257   8.085 -0.2944 -0.2133  0.9614
 3596TIP3   OH232422   1.528   2.988   7.253  0.0680 -0.4761  0.3431
 3596TIP3    H132423   1.512   3.068   7.304 -0.7578 -0.6484  0.3658
 3596TIP3    H232424   1.613   2.957   7.285 -0.4466 -0.6016  1.6623
 3597TIP3   OH232425   5.289   4.569   0.978 -0.4570 -0.1267  0.0919
 3597TIP3    H132426   5.195   4.556   0.970 -0.4659  0.5754 -1.1670
 3597TIP3    H232427   5.301   4.664   0.971  0.5332 -0.3516 -2.5351
 3598TIP3   OH232428   2.851   1.897   1.220 -0.5034  0.1601  0.1400
 3598TIP3    H132429   2.832   1.803   1.229  1.7270 -0.2170  1.7722
 3598TIP3    H232430   2.785   1.940   1.273  0.1287 -0.7263  1.7095
 3599TIP3   OH232431   2.893   1.876   0.951 -0.0609  0.1654 -0.2419
 3599TIP3    H132432   2.885   1.873   1.047 -2.0978  0.7154 -0.3675
 3599TIP3    H232433   2.978   1.835   0.934  0.2251 -0.2061  1.7797
 3600TIP3   OH232434   0.607   3.525   7.619  0.4785 -0.5956 -0.3531
 3600TIP3    H132435   0.536   3.480   7.575 -0.4834 -0.0132  0.5564
 3600TIP3    H232436   0.608   3.612   7.579  1.7816 -1.1083 -1.5163
 3601TIP3   OH232437   3.822   6.740   0.824 -0.7293 -0.7170  0.0548
 3601TIP3    H132438   3.751   6.762   0.764 -0.5860  1.1634  0.5369
 3601TIP3    H232439   3.796   6.777   0.908  0.6824 -0.2474  0.3103
 3602TIP3   OH232440   4.005   4.849   7.726  0.1603  0.3270  0.1664
 3602TIP3    H132441   4.072   4.854   7.658  1.2234  0.4870  1.1748
 3602TIP3    H232442   4.025   4.923   7.784 -0.4917 -0.0039  0.8273
 3603TIP3   OH232443   1.460   4.174   8.236  0.1754 -0.4158  0.5972
 3603TIP3    H132444   1.466   4.085   8.200 -0.6271  0.2946 -1.3838
 3603TIP3    H232445   1.366   4.190   8.245  0.2445  0.7707 -0.5260
 3604TIP3   OH232446   5.310   3.601   0.204 -0.8030 -0.6118  0.1291
 3604TIP3    H132447   5.366   3.623   0.130 -0.3687 -0.2218  0.5746
 3604TIP3    H232448   5.317   3.675   0.263 -0.9428 -1.0360  0.6874
 3605TIP3   OH232449   0.168   0.431   8.686  0.5016 -0.0112  0.0074
 3605TIP3    H132450   0.168   0.339   8.658  0.3674 -0.6515  1.9772
 3605TIP3    H232451   0.253   0.442   8.730  0.8473  1.0504 -0.8770
 3606TIP3   OH232452   1.231   2.026   1.824 -0.8447 -0.3073 -0.3311
 3606TIP3    H132453   1.314   2.060   1.791 -0.2029 -0.4593  1.0348
 3606TIP3    H232454   1.192   1.979   1.751 -0.1028  0.4427 -1.2211
 3607TIP3   OH232455   0.994   2.840   0.689  0.0225  0.1510  0.6836
 3607TIP3    H132456   1.023   2.910   0.631  0.9661  0.1701  1.1618
 3607TIP3    H232457   1.015   2.759   0.642 -1.5691  0.1609 -0.1119
 3608TIP3   OH232458   4.102   3.066   6.486 -0.3236 -0.3045 -0.5405
 3608TIP3    H132459   4.082   3.139   6.428 -0.8922  0.9671  1.1968
 3608TIP3    H232460   4.033   3.001   6.468  1.0813 -1.2127 -3.2369
 3609TIP3   OH232461   5.845   5.156   1.672 -0.2284  0.6929  0.1193
 3609TIP3    H132462   5.921   5.153   1.615  0.1158  0.4050  0.5789
 3609TIP3    H232463   5.819   5.248   1.674 -0.9397  0.5561 -1.3786
 3610TIP3   OH232464   3.349   1.494   1.936 -0.5287  0.1692 -0.1564
 3610TIP3    H132465   3.435   1.535   1.925 -0.5041 -0.1659 -1.3879
 3610TIP3    H232466   3.297   1.560   1.983 -0.3619  1.4818 -1.7065
 3611TIP3   OH232467   6.485   1.707   7.619  0.4225  0.1826 -0.0536
 3611TIP3    H132468   6.456   1.772   7.554  0.7822  1.2387  0.8163
 3611TIP3    H232469   6.550   1.654   7.573 -0.3581  0.0049 -0.9757
 3612TIP3   OH232470   2.601   3.956   8.063  0.1546 -0.5902 -0.3564
 3612TIP3    H132471   2.592   4.033   8.008  0.6766  0.0847  0.4766
 3612TIP3    H232472   2.579   3.882   8.006  0.1148  0.1334 -1.2908
 3613TIP3   OH232473   6.620   0.843   0.089  0.5054 -0.4090  0.1566
 3613TIP3    H132474   6.683   0.858   0.019 -1.0729 -0.3267 -1.3285
 3613TIP3    H232475   6.586   0.754   0.073 -0.7936  0.0841  0.0116
 3614TIP3   OH232476   3.716   5.195   7.976  0.0626 -0.3483  0.2718
 3614TIP3    H132477   3.770   5.272   7.993  1.2152 -1.5640  2.6498
 3614TIP3    H232478   3.651   5.225   7.912  2.1420  1.7822 -1.0006
 3615TIP3   OH232479   5.889   3.373   1.200 -0.1434 -0.4502 -0.1745
 3615TIP3    H132480   5.838   3.292   1.204 -1.5141  0.4232  0.6283
 3615TIP3    H232481   5.872   3.417   1.283  0.8197  0.5455 -0.4711
 3616TIP3   OH232482   1.687   6.801   0.348  0.2076 -0.3652  0.4572
 3616TIP3    H132483   1.612   6.838   0.302  1.0133  0.0364 -0.5538
 3616TIP3    H232484   1.664   6.810   0.441 -1.3442 -0.9953  0.1741
 3617TIP3   OH232485   2.687   6.139   1.076  0.0505  0.1631 -0.3285
 3617TIP3    H132486   2.620   6.199   1.109  0.0406  0.2917 -0.5830
 3617TIP3    H232487   2.643   6.054   1.071 -0.0077  0.1868 -0.2079
 3618TIP3   OH232488   5.581   6.571   2.625 -0.2024  0.1772  0.4924
 3618TIP3    H132489   5.556   6.608   2.541 -2.7849 -1.7900  0.2642
 3618TIP3    H232490   5.605   6.480   2.606 -1.4520 -0.4926  1.8954
 3619TIP3   OH232491   5.750   2.609   7.754 -0.4141 -0.6094  0.1129
 3619TIP3    H132492   5.686   2.538   7.748 -1.7261  0.6614 -1.5194
 3619TIP3    H232493   5.831   2.570   7.721 -1.3399 -1.1310 -1.6807
 3620TIP3   OH232494   4.512   5.456   8.588  0.3092  0.3439  0.0813
 3620TIP3    H132495   4.434   5.498   8.553  1.4280  2.2660 -0.2560
 3620TIP3    H232496   4.574   5.528   8.602  1.6445 -0.9752  1.3671
 3621TIP3   OH232497   3.599   1.780   2.422 -0.3276  0.2985  0.3487
 3621TIP3    H132498   3.578   1.807   2.332  0.5440 -1.5681 -0.4849
 3621TIP3    H232499   3.569   1.852   2.477 -1.5210  1.2010 -1.3852
 3622TIP3   OH232500   2.492   5.938   0.148  0.4888 -0.4407  0.2914
 3622TIP3    H132501   2.451   5.893   0.075  0.6012  0.4593 -0.3446
 3622TIP3    H232502   2.581   5.958   0.117  0.5642 -0.1202  0.7018
 3623TIP3   OH232503   2.280   4.303   1.293  0.0890  0.3316  0.3348
 3623TIP3    H132504   2.213   4.364   1.323  0.1912  0.1811  0.8741
 3623TIP3    H232505   2.344   4.359   1.248 -0.1925  0.5229  0.1658
 3624TIP3   OH232506   1.532   4.543   0.368  0.5364 -0.5690 -0.2411
 3624TIP3    H132507   1.539   4.634   0.398 -1.8674 -0.2217 -0.5523
 3624TIP3    H232508   1.610   4.530   0.314  0.9127  1.3065 -0.2211
 3625TIP3   OH232509   0.140   2.834   1.068 -0.2639 -0.0917  0.6760
 3625TIP3    H132510   0.166   2.848   1.159 -0.0365 -0.8919  0.7435
 3625TIP3    H232511   0.113   2.743   1.065  1.1753 -0.5272 -0.3880
 3626TIP3   OH232512   2.224   4.376   1.748  0.4752 -1.0906 -0.3582
 3626TIP3    H132513   2.285   4.331   1.807  2.0538  2.1019  0.7186
 3626TIP3    H232514   2.279   4.409   1.677 -0.1144  0.8822  0.0327
 3627TIP3   OH232515   4.886   2.273   7.645 -0.0215  0.2959  0.5751
 3627TIP3    H132516   4.867   2.276   7.551 -0.2833  1.5686  0.6403
 3627TIP3    H232517   4.868   2.183   7.671 -1.4030  0.2781 -0.3243
 3628TIP3   OH232518   3.926   0.066   7.668  0.5651 -0.0321  0.2558
 3628TIP3    H132519   3.982   0.143   7.679  0.8812  0.0981 -1.8231
 3628TIP3    H232520   3.953   0.006   7.737  0.6970  1.4745  1.5745
 3629TIP3   OH232521   0.507   3.249   7.267 -0.3118  0.5166  0.2418
 3629TIP3    H132522   0.554   3.167   7.254 -1.0201  0.0207  0.7062
 3629TIP3    H232523   0.441   3.250   7.198 -0.6618  0.4176  0.5672
 3630TIP3   OH232524   1.506   5.994   7.932  0.4318 -0.1724 -0.2544
 3630TIP3    H132525   1.516   6.009   8.026 -0.0203  0.6321 -0.3288
 3630TIP3    H232526   1.446   6.062   7.903 -0.3574 -1.1253 -0.9237
 3631TIP3   OH232527   6.518   3.915   7.830  0.5085 -0.0565  0.4697
 3631TIP3    H132528   6.519   3.962   7.913  3.0287  1.1356 -0.1213
 3631TIP3    H232529   6.466   3.970   7.771 -1.0512 -0.7684  1.1396
 3632TIP3   OH232530   3.728   1.064   0.584 -0.6371 -0.5752 -0.1214
 3632TIP3    H132531   3.668   1.070   0.510 -0.4312  3.5546 -0.1663
 3632TIP3    H232532   3.815   1.072   0.544 -0.3160 -1.3496  0.3890
 3633TIP3   OH232533   6.208   2.726   7.788 -0.2144 -0.4167 -0.3339
 3633TIP3    H132534   6.256   2.808   7.780  2.8142 -1.9831  0.2229
 3633TIP3    H232535   6.148   2.726   7.713 -0.4203  2.3010 -0.2643
 3634TIP3   OH232536   1.785   2.132   7.318  0.2178  0.1446 -0.3506
 3634TIP3    H132537   1.828   2.177   7.245  0.2778  0.7915  0.0724
 3634TIP3    H232538   1.693   2.156   7.310  0.4401  1.4712  0.6436
 3635TIP3   OH232539   4.293   4.907   8.032 -0.1643 -0.1252  0.7452
 3635TIP3    H132540   4.221   4.924   8.093  1.5933  3.9363  2.0892
 3635TIP3    H232541   4.265   4.950   7.950 -0.5245 -1.3909  0.1752
 3636TIP3   OH232542   6.777   2.951   7.195  0.3844  0.1021  0.7388
 3636TIP3    H132543   6.689   2.984   7.174  0.2515  1.5258  3.2323
 3636TIP3    H232544   6.804   3.000   7.273  3.2215 -0.6473  0.3482
 3637TIP3   OH232545   4.091   1.399   1.765  0.3283  0.0060  0.2638
 3637TIP3    H132546   4.028   1.471   1.764 -1.1346 -1.2377  0.8257
 3637TIP3    H232547   4.044   1.325   1.728  2.0595 -0.5054 -1.0635
 3638TIP3   OH232548   2.189   5.778   8.491 -0.5152 -0.6636  0.2290
 3638TIP3    H132549   2.147   5.804   8.573 -2.7908 -3.0595 -0.0324
 3638TIP3    H232550   2.234   5.696   8.512  1.9922  0.5188 -0.1601
 3639TIP3   OH232551   0.930   5.759   7.224  0.1259  0.2482 -0.0230
 3639TIP3    H132552   0.891   5.800   7.147 -0.4400  0.9473  0.6232
 3639TIP3    H232553   0.921   5.825   7.293 -1.3827 -1.1741  1.2076
 3640TIP3   OH232554   2.907   2.233   6.670 -0.2022  0.3859  0.1790
 3640TIP3    H132555   2.856   2.283   6.734 -1.5695 -0.9034  0.1496
 3640TIP3    H232556   2.997   2.262   6.683 -0.6845  1.3645  1.5316
 3641TIP3   OH232557   1.913   2.474   8.592 -0.2608  0.2522 -0.8196
 3641TIP3    H132558   1.930   2.480   8.498  0.5765 -0.0888 -0.7003
 3641TIP3    H232559   1.882   2.561   8.616 -1.3214  0.1004 -1.5641
 3642TIP3   OH232560   4.810   6.178   0.338 -0.5194  0.5488  0.0290
 3642TIP3    H132561   4.822   6.085   0.323 -2.2260  0.4196 -0.8256
 3642TIP3    H232562   4.884   6.220   0.295  0.6642 -0.4257  1.0569
 3643TIP3   OH232563   4.019   2.726   7.463  0.2062  0.5100 -0.0286
 3643TIP3    H132564   3.960   2.778   7.408  1.7901  0.5109 -1.8554
 3643TIP3    H232565   3.972   2.714   7.545 -1.8338  1.4508 -0.9976
 3644TIP3   OH232566   2.160   3.793   0.031  0.0955 -0.2717 -0.1211
 3644TIP3    H132567   2.092   3.726   0.032 -0.4030  0.2199 -0.4435
 3644TIP3    H232568   2.176   3.811  -0.061  0.5404 -0.2593 -0.0439
 3645TIP3   OH232569   2.164   2.559   7.743  0.2799 -0.1174 -0.6204
 3645TIP3    H132570   2.091   2.585   7.799  0.1735 -0.4413 -0.6109
 3645TIP3    H232571   2.185   2.470   7.769  0.0091 -0.3934 -1.3265
 3646TIP3   OH232572   6.122   1.419   6.478 -0.2112  0.5486 -0.0588
 3646TIP3    H132573   6.142   1.505   6.514 -0.8430  0.2433  1.0696
 3646TIP3    H232574   6.026   1.416   6.473 -0.2754 -0.6058  1.2887
 3647TIP3   OH232575   4.721   6.734   0.849 -0.6309  0.3857  0.4564
 3647TIP3    H132576   4.665   6.669   0.890 -0.6514  0.0788 -0.0502
 3647TIP3    H232577   4.809   6.712   0.879 -0.8672  1.5895  2.2239
 3648TIP3   OH232578   3.073   6.240   0.466 -0.0950 -0.4939  1.1087
 3648TIP3    H132579   3.112   6.257   0.379  0.8490 -0.1414  1.5795
 3648TIP3    H232580   3.086   6.147   0.480  0.1103 -0.4797  1.0283
 3649TIP3   OH232581   1.853   3.636   1.177 -0.7863  0.1086 -0.3537
 3649TIP3    H132582   1.883   3.546   1.167 -0.6277  0.0685  0.4284
 3649TIP3    H232583   1.805   3.654   1.096 -2.2461 -1.2245  0.1780
 3650TIP3   OH232584   0.648   0.732   0.019 -0.6058  0.6657  0.2299
 3650TIP3    H132585   0.617   0.775  -0.060  1.3546  1.7827  0.0078
 3650TIP3    H232586   0.722   0.679  -0.009 -0.4785  0.3218  1.1663
 3651TIP3   OH232587   4.517   0.238   7.246 -0.3981 -0.1548  0.2821
 3651TIP3    H132588   4.503   0.200   7.332  1.6780 -0.4710  0.5440
 3651TIP3    H232589   4.498   0.331   7.257 -0.9984 -0.3352  0.8406
 3652TIP3   OH232590   3.952   3.128   7.731  0.1521  0.5196 -0.5566
 3652TIP3    H132591   4.011   3.120   7.656  1.3092 -1.3184  0.4725
 3652TIP3    H232592   3.930   3.221   7.735 -0.0910  0.6383 -3.2511
 3653TIP3   OH232593   3.371   3.104   0.246 -0.1906  0.3754 -0.0821
 3653TIP3    H132594   3.421   3.185   0.234 -0.8469  0.7411 -0.4502
 3653TIP3    H232595   3.284   3.135   0.273 -0.2769 -0.2349  0.3482
 3654TIP3   OH232596   5.534   1.629   1.660  0.1650  0.5113  0.2899
 3654TIP3    H132597   5.579   1.637   1.744 -0.7904 -1.1198  1.0005
 3654TIP3    H232598   5.603   1.608   1.597  0.9628  2.2421  0.5367
 3655TIP3   OH232599   5.290   0.109   8.113 -0.1933  0.3550 -0.4920
 3655TIP3    H132600   5.352   0.110   8.186  2.0346  0.5187 -2.2793
 3655TIP3    H232601   5.342   0.135   8.037 -2.0720 -1.1104 -2.4018
 3656TIP3   OH232602   5.790   3.906   6.426  0.0772  0.5003  0.5456
 3656TIP3    H132603   5.718   3.888   6.365  0.2802 -0.0238  0.4531
 3656TIP3    H232604   5.765   3.988   6.469  0.5554  1.6071 -1.1827
 3657TIP3   OH232605   5.113   1.412   7.068 -0.5463  0.1878 -0.4642
 3657TIP3    H132606   5.048   1.359   7.115 -0.6262 -0.3519 -1.1600
 3657TIP3    H232607   5.140   1.357   6.994 -1.7078  1.6403 -2.0717
 3658TIP3   OH232608   3.820   1.304   0.662  0.2486  0.4252  0.2999
 3658TIP3    H132609   3.775   1.220   0.667  3.3703 -1.4380 -0.4712
 3658TIP3    H232610   3.842   1.325   0.753 -0.5980  0.4716  0.5018
 3659TIP3   OH232611   1.823   0.467   1.280  0.6489 -0.8675 -0.0109
 3659TIP3    H132612   1.822   0.509   1.195 -0.6600 -0.5860  0.1151
 3659TIP3    H232613   1.828   0.373   1.261 -2.1624 -0.9904 -0.5494
 3660TIP3   OH232614   3.650   3.368   0.462  0.4572  0.4052  0.1973
 3660TIP3    H132615   3.629   3.358   0.555  1.7113 -1.9274  0.2978
 3660TIP3    H232616   3.566   3.393   0.422 -0.2699  0.7649  1.8290
 3661TIP3   OH232617   6.792   2.463   1.665 -0.2198 -0.3030  0.1217
 3661TIP3    H132618   6.698   2.477   1.670 -0.1469  0.4551 -0.5177
 3661TIP3    H232619   6.823   2.473   1.755 -0.5080  1.3017  0.0694
 3662TIP3   OH232620   4.924   5.246   8.516 -0.1678 -0.3531  0.0608
 3662TIP3    H132621   4.987   5.175   8.504 -0.0478 -0.5684  1.7467
 3662TIP3    H232622   4.972   5.312   8.566 -1.0160 -0.1634  0.6528
 3663TIP3   OH232623   3.106   5.041   7.955  0.1482  0.2550 -0.3160
 3663TIP3    H132624   3.056   4.960   7.942  0.7778  0.1092 -2.2152
 3663TIP3    H232625   3.040   5.107   7.977 -0.9405  0.0471 -2.6769
 3664TIP3   OH232626   0.194   5.141   1.034 -0.3022 -0.5510  0.4253
 3664TIP3    H132627   0.179   5.112   0.944 -2.0874 -1.2026  0.8968
 3664TIP3    H232628   0.278   5.101   1.059 -0.0169 -0.7362 -0.7717
 3665TIP3   OH232629   4.983   0.012   0.190  0.3298  0.0911  0.3704
 3665TIP3    H132630   4.961   0.044   0.102  1.9654  0.3388  0.0200
 3665TIP3    H232631   4.953   0.081   0.249  0.4654  0.5663 -0.1098
 3666TIP3   OH232632   1.058   0.890   1.345 -0.3288  0.2315  0.2465
 3666TIP3    H132633   1.134   0.831   1.346  0.7632  1.5848  0.0336
 3666TIP3    H232634   1.093   0.974   1.315 -2.0933  0.6712 -0.7532
 3667TIP3   OH232635   5.416   5.946   7.064  0.4463  0.1734  0.6241
 3667TIP3    H132636   5.493   5.966   7.117  1.2931  0.7274 -0.7632
 3667TIP3    H232637   5.376   6.031   7.046  0.4161  0.0387  0.0263
 3668TIP3   OH232638   5.720   2.091   2.188 -0.2866  0.1610 -0.1683
 3668TIP3    H132639   5.635   2.110   2.149  0.2905  0.7404 -1.1726
 3668TIP3    H232640   5.783   2.120   2.123  0.6929  0.2701  0.8060
 3669TIP3   OH232641   6.709   6.324   2.405  0.0893 -0.2752 -0.5366
 3669TIP3    H132642   6.634   6.314   2.463 -1.4392 -2.2011 -2.6385
 3669TIP3    H232643   6.772   6.258   2.435  0.3261  0.3379  0.3298
 3670TIP3   OH232644   0.715   6.271   0.816 -0.1736 -0.1252 -0.3196
 3670TIP3    H132645   0.753   6.319   0.742 -0.6429  1.2358  0.2896
 3670TIP3    H232646   0.789   6.253   0.874 -0.1577  0.9232  0.0039
 3671TIP3   OH232647   1.625   6.775   8.792 -0.0269 -0.2927 -0.6163
 3671TIP3    H132648   1.666   6.851   8.751  1.4042  0.4582  1.9439
 3671TIP3    H232649   1.542   6.807   8.826  2.3755  1.7662  4.4287
 3672TIP3   OH232650   3.170   5.209   7.761  0.9115 -0.0952 -0.4408
 3672TIP3    H132651   3.138   5.157   7.835  2.1194  3.0996  2.5898
 3672TIP3    H232652   3.093   5.220   7.704 -0.6015 -1.0278  1.3262
 3673TIP3   OH232653   0.764   1.936   8.744  0.4095 -0.0588  0.0183
 3673TIP3    H132654   0.687   1.993   8.737  0.7027  0.3423 -0.0006
 3673TIP3    H232655   0.740   1.857   8.696  0.2185  0.2937 -0.4744
 3674TIP3   OH232656   3.766   0.845   1.127 -0.3504  0.4944  0.0112
 3674TIP3    H132657   3.709   0.780   1.086 -0.2624  0.6848 -0.4138
 3674TIP3    H232658   3.760   0.922   1.071  1.2833  0.1133 -0.7594
 3675TIP3   OH232659   1.888   0.698   0.538  0.0788 -0.0623 -0.1527
 3675TIP3    H132660   1.947   0.718   0.465 -1.5501  1.9028 -1.0345
 3675TIP3    H232661   1.818   0.646   0.498 -0.0354 -0.2980  0.3526
 3676TIP3   OH232662   4.754   2.851   7.929  0.5500 -0.5050  0.5136
 3676TIP3    H132663   4.725   2.924   7.874  1.5630 -1.9225 -2.0996
 3676TIP3    H232664   4.733   2.878   8.018 -1.5215  1.8235 -0.5546
 3677TIP3   OH232665   0.680   0.505   8.034  0.7255  0.3068 -0.4839
 3677TIP3    H132666   0.680   0.596   8.062  1.1972  0.3895 -0.7446
 3677TIP3    H232667   0.645   0.507   7.945  0.2837  0.1767 -0.3139
 3678TIP3   OH232668   5.623   3.900   0.173  0.4625  0.4384 -0.1187
 3678TIP3    H132669   5.705   3.866   0.138  0.3437 -0.3766  0.3676
 3678TIP3    H232670   5.630   3.889   0.268 -0.9978 -1.5914 -0.1647
 3679TIP3   OH232671   2.475   0.778   8.260  0.1430 -0.6687 -0.3920
 3679TIP3    H132672   2.518   0.789   8.345 -0.8838 -0.3069  0.1021
 3679TIP3    H232673   2.475   0.683   8.245  1.7277 -0.6453 -0.7592
 3680TIP3   OH232674   1.431   4.870   0.842  0.0840 -0.1310 -0.6452
 3680TIP3    H132675   1.348   4.917   0.834  0.8098  1.1887 -0.6841
 3680TIP3    H232676   1.406   4.778   0.847 -1.4795  0.3280  0.9533
 3681TIP3   OH232677   4.633   2.950   8.549 -0.1655  0.2540 -0.0601
 3681TIP3    H132678   4.627   2.939   8.644  0.4061  0.4860  0.0049
 3681TIP3    H232679   4.571   3.019   8.529  1.9904  2.5358  0.5800
 3682TIP3   OH232680   5.368   6.639   7.459 -0.9868  0.0248 -0.0367
 3682TIP3    H132681   5.349   6.625   7.366 -3.1499 -3.5903  0.7387
 3682TIP3    H232682   5.453   6.681   7.460  0.5192 -2.3891 -3.6934
 3683TIP3   OH232683   2.642   5.174   0.811 -0.1152  0.2373 -0.4482
 3683TIP3    H132684   2.713   5.123   0.849  1.3919  0.5608 -2.6864
 3683TIP3    H232685   2.600   5.216   0.887  3.0855  1.3541  0.8820
 3684TIP3   OH232686   0.395   4.053   7.968  0.1888  0.3865  0.0793
 3684TIP3    H132687   0.480   4.062   8.011  0.3374  3.0720 -0.5984
 3684TIP3    H232688   0.354   4.138   7.978 -1.9042 -0.4509 -0.7624
 3685TIP3   OH232689   3.985   6.030   0.621  0.1701 -0.0090 -0.4509
 3685TIP3    H132690   3.928   6.107   0.616 -0.3775 -0.2999  0.7814
 3685TIP3    H232691   4.068   6.058   0.581 -0.3016  0.9422 -0.7811
 3686TIP3   OH232692   0.304   0.189   2.315 -0.5460  0.4401  0.3533
 3686TIP3    H132693   0.368   0.245   2.359 -0.3758 -0.0601  0.7461
 3686TIP3    H232694   0.224   0.198   2.367  0.2275 -1.8017  2.0871
 3687TIP3   OH232695   2.809   1.583   0.702 -0.1923 -0.1668  0.5205
 3687TIP3    H132696   2.868   1.650   0.665 -0.4396 -0.9111 -1.3033
 3687TIP3    H232697   2.739   1.634   0.743 -0.7281  0.7197 -1.4155
 3688TIP3   OH232698   0.913   2.160   2.463  0.1129 -0.2620 -0.3420
 3688TIP3    H132699   0.840   2.122   2.512  0.9146 -1.5495 -0.1003
 3688TIP3    H232700   0.891   2.253   2.454 -0.8620 -0.3467  0.9710
 3689TIP3   OH232701   3.236   5.008   8.745 -0.1417 -0.2984 -0.4785
 3689TIP3    H132702   3.166   5.073   8.748 -1.5605 -1.7780  0.2038
 3689TIP3    H232703   3.191   4.925   8.760  1.7655 -1.3141 -0.1564
 3690TIP3   OH232704   5.348   2.862   1.850 -0.0979 -0.3240 -0.2871
 3690TIP3    H132705   5.325   2.826   1.936 -0.2713 -0.8535 -0.5487
 3690TIP3    H232706   5.318   2.953   1.852  1.9910  0.4233  1.0744
 3691TIP3   OH232707   2.077   1.314   0.244 -0.1981 -0.3807 -0.0016
 3691TIP3    H132708   2.060   1.302   0.150  1.8950 -1.2111 -0.3365
 3691TIP3    H232709   2.142   1.385   0.247 -1.2483  0.5840  0.9536
 3692TIP3   OH232710   5.100   1.624   1.165 -0.6576 -0.2431  0.6355
 3692TIP3    H132711   5.097   1.713   1.128 -1.2826  0.1900  1.6884
 3692TIP3    H232712   5.014   1.611   1.204 -0.2156 -0.8894  1.4363
 3693TIP3   OH232713   5.137   5.880   8.544  0.7971  0.0049 -0.0846
 3693TIP3    H132714   5.224   5.851   8.570  0.3548 -1.5636 -0.2106
 3693TIP3    H232715   5.131   5.858   8.451  0.6584  1.1362 -0.3506
 3694TIP3   OH232716   2.400   1.752   0.261  0.0916 -0.5828 -0.0673
 3694TIP3    H132717   2.486   1.727   0.229  0.5473  1.2080 -0.3570
 3694TIP3    H232718   2.354   1.786   0.184 -0.7280 -1.1088  0.1695
 3695TIP3   OH232719   2.133   4.600   8.756  0.2158  0.1372  0.8595
 3695TIP3    H132720   2.115   4.520   8.706 -0.1345 -0.5831  2.1019
 3695TIP3    H232721   2.221   4.626   8.728 -1.0707  1.5851 -2.4840
 3696TIP3   OH232722   2.298   4.483   0.437 -0.6776 -0.0884  0.4110
 3696TIP3    H132723   2.243   4.468   0.360  0.7242  1.1477 -0.8856
 3696TIP3    H232724   2.257   4.557   0.482 -0.6524  0.1503  0.0388
 3697TIP3   OH232725   0.421   4.904   1.821 -0.1876 -0.2964  0.0259
 3697TIP3    H132726   0.391   4.931   1.908 -0.3670 -0.5075  0.0304
 3697TIP3    H232727   0.413   4.983   1.767  2.2226  0.5464  0.7652
 3698TIP3   OH232728   1.812   1.113   1.021 -0.2411  1.3469 -0.2882
 3698TIP3    H132729   1.726   1.072   1.006 -1.1649  3.5904 -1.7464
 3698TIP3    H232730   1.852   1.116   0.934  2.1539 -1.1618  0.5797
 3699TIP3   OH232731   5.464   0.685   7.647 -0.1121 -0.4574  0.3047
 3699TIP3    H132732   5.406   0.615   7.616 -1.1524  0.2056  0.6746
 3699TIP3    H232733   5.475   0.742   7.570  2.0973 -1.8486 -0.4912
 3700TIP3   OH232734   3.187   5.421   6.591  0.1312  0.8440 -0.1998
 3700TIP3    H132735   3.145   5.452   6.671 -0.7381  1.3035 -0.8247
 3700TIP3    H232736   3.259   5.366   6.622 -0.1497  1.0713  0.8962
 3701TIP3   OH232737   0.423   0.726   7.974 -0.1787  0.5102 -0.0136
 3701TIP3    H132738   0.340   0.773   7.988  0.0847  1.1600 -0.5638
 3701TIP3    H232739   0.464   0.724   8.061 -0.3591  0.9950  0.0860
 3702TIP3   OH232740   1.608   3.505   1.672 -0.3443 -0.1867 -0.5937
 3702TIP3    H132741   1.588   3.527   1.763  2.3116  1.0220 -0.1992
 3702TIP3    H232742   1.558   3.568   1.620 -0.7584  0.0585  0.0904
 3703TIP3   OH232743   3.765   0.662   6.776  0.0203  0.0988 -0.1874
 3703TIP3    H132744   3.809   0.590   6.731 -0.7929  0.3282 -1.4062
 3703TIP3    H232745   3.672   0.637   6.776 -0.0570  0.3063  1.0211
 3704TIP3   OH232746   4.734   3.453   2.013  0.2433 -0.3264 -0.0913
 3704TIP3    H132747   4.739   3.443   2.109  2.3183 -1.0282 -0.2187
 3704TIP3    H232748   4.675   3.383   1.985 -1.2411  0.5340  0.7190
 3705TIP3   OH232749   2.662   3.951   1.222 -0.0673  0.3165 -0.3413
 3705TIP3    H132750   2.666   3.878   1.283  0.2328 -0.1452 -0.9042
 3705TIP3    H232751   2.571   3.953   1.192  0.2359 -0.7328 -1.3961
 3706TIP3   OH232752   1.555   2.046   0.741  0.3349 -0.2784 -0.0216
 3706TIP3    H132753   1.563   1.951   0.732 -1.0008 -0.5968  1.6729
 3706TIP3    H232754   1.643   2.076   0.760  0.7216 -1.2010 -0.2937
 3707TIP3   OH232755   1.039   6.843   8.182  0.4333  0.2295 -0.1538
 3707TIP3    H132756   1.075   6.761   8.214  1.5839  0.9469  0.4919
 3707TIP3    H232757   1.114   6.886   8.140  0.1516  1.4487  0.5532
 3708TIP3   OH232758   4.562   5.854   1.983  0.1913  0.1257 -0.1545
 3708TIP3    H132759   4.595   5.904   2.058 -0.9571 -0.0152  0.4590
 3708TIP3    H232760   4.492   5.907   1.947 -0.6770 -0.7794  0.1695
 3709TIP3   OH232761   3.040   0.472   1.004 -0.6308  0.3286  0.2247
 3709TIP3    H132762   2.959   0.451   1.051 -0.2954  0.0797  0.7034
 3709TIP3    H232763   3.109   0.435   1.059 -0.1460  1.1778  0.1895
 3710TIP3   OH232764   0.407   2.067   0.541  0.2567  0.0072  0.5441
 3710TIP3    H132765   0.342   2.060   0.611  2.0347  0.2808  2.3150
 3710TIP3    H232766   0.420   1.978   0.510 -2.1523  0.1054 -1.1127
 3711TIP3   OH232767   4.973   2.747   0.567 -0.0054 -0.3123 -0.4368
 3711TIP3    H132768   4.951   2.706   0.483 -0.9175  1.0814 -0.9119
 3711TIP3    H232769   4.942   2.837   0.558  0.3050 -0.0145  1.2359
 3712TIP3   OH232770   2.797   5.171   6.970 -0.1520 -0.5159 -0.9813
 3712TIP3    H132771   2.777   5.263   6.953 -1.1371 -0.6499 -0.6216
 3712TIP3    H232772   2.737   5.122   6.913 -0.1238 -0.9383 -0.6558
 3713TIP3   OH232773   1.818   2.284   1.498  0.3353 -0.5468 -0.2303
 3713TIP3    H132774   1.797   2.375   1.479  0.2755 -0.4522  0.2679
 3713TIP3    H232775   1.769   2.233   1.434  0.3636 -0.2292 -0.5037
 3714TIP3   OH232776   5.122   4.175   1.015  0.3821  0.2729  0.1716
 3714TIP3    H132777   5.090   4.183   1.105 -0.6898  1.3227 -0.2813
 3714TIP3    H232778   5.095   4.256   0.973  1.2170 -0.0417 -1.0043
 3715TIP3   OH232779   5.360   3.171   8.433  0.5841  0.4160  0.0878
 3715TIP3    H132780   5.436   3.159   8.490  1.4954  4.9385  0.2105
 3715TIP3    H232781   5.285   3.166   8.493  0.6841 -2.9444  0.1444
 3716TIP3   OH232782   4.867   3.440   8.129  0.1926 -0.2384 -0.0546
 3716TIP3    H132783   4.779   3.432   8.092 -0.2124  0.2446  0.7764
 3716TIP3    H232784   4.879   3.534   8.143  0.0769 -0.4474  1.6075
 3717TIP3   OH232785   3.986   6.733   8.611  0.4983 -0.5875 -0.8474
 3717TIP3    H132786   3.919   6.668   8.590  0.1398 -0.6081  0.2814
 3717TIP3    H232787   4.042   6.689   8.675 -1.1129  0.9369  1.7691
 3718TIP3   OH232788   4.175   2.032   2.060 -0.1158 -0.1142 -0.1295
 3718TIP3    H132789   4.229   1.962   2.095  0.5761  0.2798 -0.3948
 3718TIP3    H232790   4.148   2.082   2.137 -0.1333 -0.3269  0.0042
 3719TIP3   OH232791   6.047   5.099   0.622  0.3617 -0.3999 -0.5509
 3719TIP3    H132792   6.013   5.170   0.676 -0.2249 -1.2531  0.2423
 3719TIP3    H232793   6.050   5.135   0.534 -0.1351  0.5359 -0.2045
 3720TIP3   OH232794   2.071   5.114   7.730 -0.1210  0.2506 -0.0291
 3720TIP3    H132795   2.006   5.052   7.698 -1.1867  1.5896 -0.5684
 3720TIP3    H232796   2.022   5.196   7.742  1.3197  1.1123  0.2012
 3721TIP3   OH232797   4.491   1.063   1.061 -0.4371 -0.2830  0.4966
 3721TIP3    H132798   4.511   1.156   1.055 -0.2606 -0.3455  0.0935
 3721TIP3    H232799   4.549   1.030   1.130  1.7097 -0.6779 -1.4067
 3722TIP3   OH232800   3.651   2.992   0.257  0.2130  0.5747 -0.1271
 3722TIP3    H132801   3.607   2.946   0.185 -0.2663  1.3163 -0.3160
 3722TIP3    H232802   3.582   3.043   0.299  0.4144 -0.1119  1.0877
 3723TIP3   OH232803   0.078   0.408   0.225 -0.2925 -0.0142  0.1413
 3723TIP3    H132804   0.020   0.367   0.288 -0.6182  0.9223  0.4691
 3723TIP3    H232805   0.105   0.337   0.166 -0.6142 -0.7334  0.8543
 3724TIP3   OH232806   5.799   5.025   2.007  0.1138  0.0515 -0.1120
 3724TIP3    H132807   5.847   5.067   1.936 -0.7083 -1.0413 -1.3535
 3724TIP3    H232808   5.838   5.062   2.087  1.9661  0.3278 -1.0774
 3725TIP3   OH232809   2.436   0.929   7.702 -0.4554 -0.3434 -0.1717
 3725TIP3    H132810   2.406   0.939   7.792 -2.7735 -1.2592 -0.7490
 3725TIP3    H232811   2.422   1.015   7.663  2.7279  0.7418  0.8229
 3726TIP3   OH232812   2.820   5.711   8.143 -0.3506  0.1331 -0.0009
 3726TIP3    H132813   2.783   5.790   8.183 -2.5564 -0.8991  0.1529
 3726TIP3    H232814   2.833   5.651   8.216 -1.8504 -0.7945 -0.4460
 3727TIP3   OH232815   1.103   2.263   1.811 -1.0901  0.4627  0.3146
 3727TIP3    H132816   1.182   2.316   1.826 -1.3848  0.9736  0.0668
 3727TIP3    H232817   1.132   2.173   1.829 -0.4362  0.6362  0.1816
 3728TIP3   OH232818   3.674   6.831   0.566 -0.6459  0.1299 -0.7688
 3728TIP3    H132819   3.627   6.899   0.616  0.3813  0.2893  0.0208
 3728TIP3    H232820   3.686   6.869   0.479 -1.7475  0.1785 -0.9191
 3729TIP3   OH232821   5.888   2.268   1.650 -0.1293  0.2705  0.2094
 3729TIP3    H132822   5.899   2.317   1.569 -1.5864  0.8410  0.3387
 3729TIP3    H232823   5.881   2.334   1.718 -1.0218 -0.1322  0.5247
 3730TIP3   OH232824   1.575   6.587   7.008  0.3840 -0.0293 -0.3641
 3730TIP3    H132825   1.561   6.644   7.084 -1.8218  0.6656 -1.1966
 3730TIP3    H232826   1.574   6.498   7.043  0.7051  0.3276  0.5677
 3731TIP3   OH232827   1.995   0.157   7.575  0.1507 -0.1016  0.0119
 3731TIP3    H132828   2.007   0.136   7.668 -0.2125 -1.5764 -0.2400
 3731TIP3    H232829   1.957   0.244   7.575 -0.5386 -0.3690  1.2969
 3732TIP3   OH232830   4.319   2.241   1.952 -0.3764  0.1394  0.5820
 3732TIP3    H132831   4.306   2.302   2.025 -2.5033 -0.0783  0.4272
 3732TIP3    H232832   4.249   2.177   1.961  1.1662 -1.7071  0.1034
 3733TIP3   OH232833   6.584   5.788   2.439 -0.3211 -0.1370 -0.4645
 3733TIP3    H132834   6.580   5.837   2.356  1.2293 -1.1508 -1.1869
 3733TIP3    H232835   6.493   5.769   2.460 -0.7208 -0.6820 -2.4622
 3734TIP3   OH232836   5.014   3.857   8.036 -0.4168 -0.3737 -0.0638
 3734TIP3    H132837   5.023   3.949   8.059  0.6592 -0.9508  2.0057
 3734TIP3    H232838   5.103   3.823   8.034 -0.8697 -1.6619  0.5300
 3735TIP3   OH232839   0.490   2.423   0.130  0.3257  0.2989 -0.1288
 3735TIP3    H132840   0.582   2.410   0.154  0.4964  1.1327 -0.3082
 3735TIP3    H232841   0.458   2.486   0.194  0.1157  0.6660 -0.5907
 3736TIP3   OH232842   0.278   3.869   8.570 -0.3877  0.1190 -0.0035
 3736TIP3    H132843   0.251   3.959   8.552  0.2187 -0.0334 -1.9129
 3736TIP3    H232844   0.245   3.851   8.658 -0.4665  2.2173  0.4443
 3737TIP3   OH232845   5.651   4.514   7.057 -0.6616  0.1147  0.1250
 3737TIP3    H132846   5.720   4.468   7.010  0.2031  1.8166 -0.3147
 3737TIP3    H232847   5.603   4.444   7.102 -1.3074 -1.5373 -2.9221
 3738TIP3   OH232848   3.027   3.687   7.368 -0.1808  0.9917 -0.0910
 3738TIP3    H132849   2.931   3.697   7.372 -0.3241 -0.3443  0.1038
 3738TIP3    H232850   3.042   3.635   7.289  0.3737  0.9933  0.0149
 3739TIP3   OH232851   3.612   2.415   2.189 -0.6000 -0.4827 -0.1201
 3739TIP3    H132852   3.681   2.438   2.252 -0.1567 -0.3214 -0.6611
 3739TIP3    H232853   3.556   2.493   2.186  0.7691  0.4968 -1.7722
 3740TIP3   OH232854   4.426   4.724   2.046  0.8188 -0.0297  0.4186
 3740TIP3    H132855   4.431   4.728   1.951  0.4155 -0.6505  0.3675
 3740TIP3    H232856   4.423   4.631   2.067 -1.1842  0.0791  0.9047
 3741TIP3   OH232857   4.134   2.189   0.627 -0.0236 -0.0288 -0.1832
 3741TIP3    H132858   4.053   2.167   0.580 -0.4108 -1.3196  1.0565
 3741TIP3    H232859   4.107   2.255   0.691  0.4877  1.6590 -1.6186
 3742TIP3   OH232860   6.443   2.539   1.124  0.2425  0.4755  0.7370
 3742TIP3    H132861   6.372   2.597   1.096  0.1630 -0.5584 -1.3271
 3742TIP3    H232862   6.462   2.485   1.048  0.5705 -1.9782  2.4398
 3743TIP3   OH232863   0.365   0.723   1.166  0.4748  0.5794  0.5688
 3743TIP3    H132864   0.336   0.633   1.182 -0.5543  0.9980  1.2028
 3743TIP3    H232865   0.284   0.774   1.167  1.2072  1.8236  2.5331
 3744TIP3   OH232866   1.905   2.515   7.079 -0.4627  0.0147 -0.5266
 3744TIP3    H132867   1.868   2.525   7.167 -0.1449 -1.3440 -0.2145
 3744TIP3    H232868   1.974   2.580   7.074 -0.7844  0.4095  0.0593
 3745TIP3   OH232869   2.298   2.796   1.449  0.2170 -0.1310 -0.1681
 3745TIP3    H132870   2.276   2.703   1.445  1.1908 -0.3985  0.3900
 3745TIP3    H232871   2.225   2.836   1.497 -0.7317 -0.4083 -1.3037
 3746TIP3   OH232872   6.239   4.372   1.910 -0.1890  0.4436  0.0477
 3746TIP3    H132873   6.315   4.430   1.909 -0.5037  0.8880  0.8188
 3746TIP3    H232874   6.202   4.383   1.998 -1.6748  0.9640 -0.6093
 3747TIP3   OH232875   1.785   2.211   0.620  0.1459 -0.0255  0.1016
 3747TIP3    H132876   1.809   2.135   0.566 -1.0795 -0.2092 -0.2119
 3747TIP3    H232877   1.739   2.270   0.560 -1.3968 -0.3134  0.9504
 3748TIP3   OH232878   4.315   3.789   7.679 -0.0562  0.0877  0.3762
 3748TIP3    H132879   4.268   3.738   7.746 -0.5192 -0.0607 -0.0570
 3748TIP3    H232880   4.315   3.878   7.713  0.9712 -0.2201  1.2601
 3749TIP3   OH232881   6.568   5.203   0.249 -0.2848 -0.0810 -0.0372
 3749TIP3    H132882   6.549   5.109   0.243 -1.2246  0.0502  0.6589
 3749TIP3    H232883   6.590   5.218   0.341  0.2610  0.3154 -0.2266
 3750TIP3   OH232884   2.124   6.758   1.933 -0.3113  0.1540 -0.1427
 3750TIP3    H132885   2.171   6.688   1.888 -1.6823 -0.5924 -0.4612
 3750TIP3    H232886   2.104   6.723   2.019 -2.4252 -0.5276 -0.8536
 3751TIP3   OH232887   3.459   5.506   2.169 -0.7948  0.0651 -0.2358
 3751TIP3    H132888   3.488   5.485   2.080 -0.3858 -1.7590  0.2929
 3751TIP3    H232889   3.519   5.574   2.198  0.1906 -0.5630 -0.7368
 3752TIP3   OH232890   2.541   2.136   5.846  0.9276 -0.1255 -0.2572
 3752TIP3    H132891   2.456   2.095   5.829 -0.2498  0.8809  2.5637
 3752TIP3    H232892   2.584   2.077   5.908  1.6782  0.0847 -0.5672
 3753TIP3   OH232893   6.019   5.839   1.059  0.2166 -0.1269 -0.3242
 3753TIP3    H132894   5.996   5.921   1.017  0.8944  0.0221 -0.4122
 3753TIP3    H232895   6.080   5.864   1.129 -0.4266 -0.4350  0.3624
 3754TIP3   OH232896   6.655   2.778   1.163  0.0933 -0.3495 -0.0903
 3754TIP3    H132897   6.560   2.772   1.170  0.1757  0.1143  2.3294
 3754TIP3    H232898   6.673   2.871   1.154  0.3265 -0.3527  0.2950
 3755TIP3   OH232899   2.658   1.210   6.069  0.1413 -0.3880 -0.2067
 3755TIP3    H132900   2.629   1.119   6.066  1.4306 -0.8150 -0.8654
 3755TIP3    H232901   2.749   1.206   6.039 -0.2060  1.2946 -1.6568
 3756TIP3   OH232902   3.489   5.381   1.921  0.5432 -0.0402  0.2177
 3756TIP3    H132903   3.523   5.300   1.959 -2.9601 -1.4043  0.8506
 3756TIP3    H232904   3.474   5.359   1.829 -0.0291 -0.0002  0.2988
 3757TIP3   OH232905   1.698   0.156   2.012  0.0624 -0.1932  0.3270
 3757TIP3    H132906   1.604   0.147   2.032  0.0416 -1.1709 -0.1461
 3757TIP3    H232907   1.711   0.250   2.001 -1.4007 -0.1710 -2.0078
 3758TIP3   OH232908   1.972   4.298   0.105 -0.2232  0.0820 -0.1753
 3758TIP3    H132909   2.035   4.269   0.171 -0.3397  0.6399  0.1916
 3758TIP3    H232910   1.980   4.234   0.034  0.5809  0.0118 -0.0310
 3759TIP3   OH232911   1.765   0.615   6.773 -0.0936  0.4286 -0.0648
 3759TIP3    H132912   1.753   0.524   6.801  0.2621  1.0228  2.2416
 3759TIP3    H232913   1.859   0.631   6.786 -0.5071  1.7201  1.6994
 3760TIP3   OH232914   5.042   1.173   1.575  0.1113  0.1350 -0.3914
 3760TIP3    H132915   5.071   1.238   1.511  0.2814 -0.4146 -0.8812
 3760TIP3    H232916   4.992   1.109   1.524 -1.1059  0.5149  0.2805
 3761TIP3   OH232917   6.635   5.583   7.933  0.4145  0.0575 -0.0931
 3761TIP3    H132918   6.609   5.492   7.923  1.9555 -0.1563 -5.5146
 3761TIP3    H232919   6.730   5.579   7.945  0.3545  0.9906  0.8497
 3762TIP3   OH232920   0.230   3.973   1.762 -0.3605  0.0749  0.2517
 3762TIP3    H132921   0.281   4.053   1.772 -0.9360  0.9588 -2.9437
 3762TIP3    H232922   0.280   3.921   1.699 -0.3817 -1.8239  1.6978
 3763TIP3   OH232923   2.178   4.760   1.442 -0.2968 -0.0318  0.1149
 3763TIP3    H132924   2.124   4.796   1.513 -0.0447 -0.5044  0.5505
 3763TIP3    H232925   2.268   4.763   1.476 -0.1918 -0.4208 -0.1210
 3764TIP3   OH232926   0.263   0.219   8.065 -0.2238  0.3343 -0.0073
 3764TIP3    H132927   0.307   0.303   8.073  2.0238 -0.8153  0.7041
 3764TIP3    H232928   0.314   0.172   7.999 -0.5818 -0.9443  0.5874
 3765TIP3   OH232929   0.554   0.865   1.379 -0.0016  0.2494 -0.5865
 3765TIP3    H132930   0.466   0.858   1.341 -0.2429 -0.6550  0.0882
 3765TIP3    H232931   0.591   0.777   1.369  0.0464  0.0567  0.9191
 3766TIP3   OH232932   1.804   4.332   1.691 -0.0723  0.1602 -0.3025
 3766TIP3    H132933   1.837   4.419   1.716  0.6166 -0.2841  0.3592
 3766TIP3    H232934   1.883   4.282   1.668 -0.3117 -0.7471  0.7712
 3767TIP3   OH232935   2.490   6.427   1.655  0.3966 -0.3475  0.6282
 3767TIP3    H132936   2.570   6.459   1.614 -0.0527 -2.2131 -1.9655
 3767TIP3    H232937   2.520   6.367   1.723  1.2305 -0.8332 -0.1441
 3768TIP3   OH232938   5.435   5.310   2.077  0.0412 -0.6829  0.3962
 3768TIP3    H132939   5.477   5.226   2.095  2.2299  0.1302 -0.5518
 3768TIP3    H232940   5.370   5.320   2.147 -0.2620 -3.1131  0.5376
 3769TIP3   OH232941   0.720   5.373   0.520 -0.3503 -0.5110  0.0823
 3769TIP3    H132942   0.716   5.453   0.572  0.4518  0.1785 -0.8805
 3769TIP3    H232943   0.694   5.400   0.432 -0.3642 -1.3752 -0.1900
 3770TIP3   OH232944   2.898   3.235   8.597  0.1301 -0.0779 -0.1058
 3770TIP3    H132945   2.989   3.208   8.614  0.7900  0.8690 -1.8736
 3770TIP3    H232946   2.885   3.311   8.652 -0.0289 -0.9298  1.0729
 3771TIP3   OH232947   4.396   3.310   6.634  0.6432  0.3838  0.1765
 3771TIP3    H132948   4.416   3.327   6.542  0.8232 -0.4081  0.0619
 3771TIP3    H232949   4.467   3.253   6.663 -0.4538 -0.9856  0.2693
 3772TIP3   OH232950   0.202   0.031   0.077 -0.1357 -0.5243 -0.0487
 3772TIP3    H132951   0.220  -0.007  -0.009  1.3781 -0.7731  0.3567
 3772TIP3    H232952   0.110   0.058   0.072  0.4397  1.3883 -2.4760
 3773TIP3   OH232953   2.099   2.522   7.469  0.2314 -0.0831 -0.4246
 3773TIP3    H132954   2.016   2.557   7.436 -0.4962 -0.5442  0.8442
 3773TIP3    H232955   2.113   2.568   7.552 -0.0890 -1.8326  0.6519
 3774TIP3   OH232956   3.998   0.572   0.876 -0.0206 -0.0078  0.1670
 3774TIP3    H132957   4.091   0.587   0.860 -0.3697  1.1948 -0.8304
 3774TIP3    H232958   3.973   0.639   0.939  0.0303 -1.0790  1.3697
 3775TIP3   OH232959   2.680   6.793   7.809 -0.1381 -0.4199  0.0436
 3775TIP3    H132960   2.737   6.733   7.761  0.4639  0.6243 -0.5903
 3775TIP3    H232961   2.591   6.763   7.790 -0.0208  0.7877 -2.9921
 3776TIP3   OH232962   3.996   1.545   0.690  0.0720  0.5030  0.0432
 3776TIP3    H132963   4.066   1.487   0.722  0.2403 -1.4873 -3.3861
 3776TIP3    H232964   3.933   1.485   0.649 -2.3218  2.4746  0.6327
 3777TIP3   OH232965   5.696   1.499   8.165 -0.1659  0.3051 -0.2658
 3777TIP3    H132966   5.609   1.520   8.131  0.2352  1.1257 -0.8295
 3777TIP3    H232967   5.698   1.403   8.169 -1.8860  0.2885  1.9183
 3778TIP3   OH232968   2.053   1.239   2.287 -0.6309  0.7147 -0.1107
 3778TIP3    H132969   2.120   1.173   2.268 -1.5323  0.6189 -3.7016
 3778TIP3    H232970   2.091   1.322   2.257 -1.0649  1.1431  0.4886
 3779TIP3   OH232971   0.379   1.758   1.755  0.0984 -0.1349  0.1028
 3779TIP3    H132972   0.314   1.826   1.771  0.6415  0.9226 -1.7897
 3779TIP3    H232973   0.456   1.787   1.803  0.1244  0.2882 -0.1797
 3780TIP3   OH232974   0.194   3.537   6.512  0.0324 -0.5640  0.3531
 3780TIP3    H132975   0.211   3.449   6.547 -0.0635 -0.5433  0.4522
 3780TIP3    H232976   0.215   3.596   6.585  0.9044 -0.4537  0.0201
 3781TIP3   OH232977   6.490   2.612   2.092 -0.2423 -0.5403 -0.2464
 3781TIP3    H132978   6.564   2.587   2.147 -0.4010 -2.4807 -0.8515
 3781TIP3    H232979   6.515   2.697   2.056  1.2796 -0.7335  0.2780
 3782TIP3   OH232980   3.319   6.358   2.077 -0.0054 -0.4464  0.4016
 3782TIP3    H132981   3.319   6.454   2.077 -2.1676 -0.3388 -1.8673
 3782TIP3    H232982   3.408   6.334   2.051  0.5340  0.9454  0.8860
 3783TIP3   OH232983   6.352   3.860   0.226  0.0552  0.0640 -0.0701
 3783TIP3    H132984   6.435   3.818   0.247 -0.4229 -0.8106  0.1212
 3783TIP3    H232985   6.323   3.816   0.146 -2.0287 -2.3645  1.8613
 3784TIP3   OH232986   2.324   6.119   7.982  0.3483 -0.7401 -0.5599
 3784TIP3    H132987   2.298   6.065   7.907 -0.9086 -1.2677  0.2243
 3784TIP3    H232988   2.248   6.118   8.040  0.4679  1.5128 -0.2933
 3785TIP3   OH232989   4.245   5.899   1.543 -0.2505  0.1533  0.3986
 3785TIP3    H132990   4.246   5.987   1.506  1.8257  0.8262  1.8525
 3785TIP3    H232991   4.334   5.865   1.530 -0.9227 -1.6411  0.1252
 3786TIP3   OH232992   4.353   4.639   1.730 -0.4970 -0.2639 -0.2585
 3786TIP3    H132993   4.265   4.620   1.762 -0.4751  0.3330  0.1736
 3786TIP3    H232994   4.339   4.671   1.641 -1.0188  2.5201  0.7150
 3787TIP3   OH232995   4.384   3.770   8.631  0.1084 -0.1750 -0.3049
 3787TIP3    H132996   4.461   3.715   8.645  0.1428 -0.1199 -0.2773
 3787TIP3    H232997   4.418   3.849   8.590  0.1749  0.1859  0.4277
 3788TIP3   OH232998   6.720   1.770   0.896  0.2280 -0.1145  0.4699
 3788TIP3    H132999   6.743   1.846   0.841 -0.0872  0.6070  1.3062
 3788TIP3    H233000   6.678   1.709   0.835  1.8785 -0.3033 -0.5325
 3789TIP3   OH233001   3.678   3.068   1.517 -0.0417 -0.3328  0.3025
 3789TIP3    H133002   3.747   3.031   1.572  0.9384  0.3393 -0.4401
 3789TIP3    H233003   3.661   3.155   1.555  1.4104  0.5876 -1.0418
 3790TIP3   OH233004   1.883   0.832   8.192  0.0505 -0.2729  0.2491
 3790TIP3    H133005   1.794   0.858   8.172 -0.0141 -0.7377 -0.1063
 3790TIP3    H233006   1.923   0.909   8.232 -1.4659 -0.9856  3.5364
 3791TIP3   OH233007   0.070   2.823   2.248 -0.1473  0.1107  0.0692
 3791TIP3    H133008   0.156   2.803   2.210 -0.2134  0.7359 -0.4183
 3791TIP3    H233009   0.089   2.883   2.320 -0.0497 -0.8595  0.8835
 3792TIP3   OH233010   1.994   4.183   7.647  0.4390  0.3929 -0.4083
 3792TIP3    H133011   1.966   4.273   7.659 -0.0594  0.2460 -0.4419
 3792TIP3    H233012   2.045   4.184   7.566 -0.6021  0.4206 -1.0782
 3793TIP3   OH233013   1.391   3.092   7.482 -0.1956 -0.0415  0.5505
 3793TIP3    H133014   1.410   3.153   7.553  2.1556 -1.2621  1.0491
 3793TIP3    H233015   1.395   3.006   7.522 -5.2022 -0.6978  0.2669
 3794TIP3   OH233016   3.348   0.536   6.582 -0.1496  0.2237 -0.5104
 3794TIP3    H133017   3.266   0.572   6.548  0.7167  1.1941 -1.7042
 3794TIP3    H233018   3.370   0.466   6.521 -0.3420 -0.3687  0.1010
 3795TIP3   OH233019   0.645   6.659   8.285 -0.1961  0.0960 -0.6912
 3795TIP3    H133020   0.581   6.730   8.276 -0.1827  0.0032 -1.5513
 3795TIP3    H233021   0.720   6.700   8.327  0.3538  0.9427 -2.4222
 3796TIP3   OH233022   6.407   5.930   8.380 -0.2044 -0.5806 -0.4350
 3796TIP3    H133023   6.335   5.972   8.334 -1.2761 -1.4629  0.3827
 3796TIP3    H233024   6.426   5.851   8.330  0.8194  0.1080 -1.1526
 3797TIP3   OH233025   3.217   3.957   1.729 -0.0000 -0.8502  1.2413
 3797TIP3    H133026   3.225   4.010   1.650 -0.5618 -0.2330  1.5937
 3797TIP3    H233027   3.125   3.967   1.756 -0.0151 -1.6801  1.5338
 3798TIP3   OH233028   3.740   6.517   0.273  0.1169  0.5096 -0.2289
 3798TIP3    H133029   3.710   6.543   0.359 -0.0166  1.3399 -0.5138
 3798TIP3    H233030   3.730   6.596   0.219  2.7846  0.8742 -0.3446
 3799TIP3   OH233031   5.375   1.375   8.473 -0.5708 -0.2054  0.1870
 3799TIP3    H133032   5.454   1.321   8.482  0.3299  0.9465 -0.6392
 3799TIP3    H233033   5.342   1.355   8.385  0.5319  1.5551 -0.6617
 3800TIP3   OH233034   5.423   3.204   1.340 -0.4136  0.0370  0.0446
 3800TIP3    H133035   5.386   3.115   1.339 -0.7438  0.1784 -0.3467
 3800TIP3    H233036   5.441   3.221   1.433 -0.1760 -0.5083  0.1037
 3801TIP3   OH233037   0.012   2.747   0.407 -0.2388  0.2096  0.2871
 3801TIP3    H133038  -0.017   2.837   0.396  2.9173  1.1026 -2.4140
 3801TIP3    H233039  -0.027   2.700   0.333  1.8523  0.5464 -1.1013
 3802TIP3   OH233040   2.856   4.054   0.748  0.0525 -0.3917 -0.9102
 3802TIP3    H133041   2.851   4.050   0.843  4.3726 -1.7751 -0.5186
 3802TIP3    H233042   2.806   4.133   0.725  1.2550  1.7063  2.7874
 3803TIP3   OH233043   2.920   0.968   6.287  0.6979  0.5287  0.2404
 3803TIP3    H133044   2.916   1.057   6.252 -0.1759  0.5486  0.3858
 3803TIP3    H233045   3.014   0.948   6.289  0.7978 -0.0164 -3.3769
 3804TIP3   OH233046   3.934   1.490   0.032  0.2453 -0.2566  0.1862
 3804TIP3    H133047   4.009   1.438   0.004 -0.2067 -0.5943 -0.4132
 3804TIP3    H233048   3.922   1.466   0.124  0.9071 -0.1462  0.3097
 3805TIP3   OH233049   4.484   4.125   7.662  0.2339 -0.1311  0.0137
 3805TIP3    H133050   4.474   4.220   7.661 -0.0399 -0.1584  0.1663
 3805TIP3    H233051   4.436   4.095   7.584  0.5022 -0.1275 -0.1551
 3806TIP3   OH233052   2.036   3.706   0.874 -0.0066 -0.1397  0.4489
 3806TIP3    H133053   1.949   3.669   0.856  0.0130 -1.0948  2.1340
 3806TIP3    H233054   2.018   3.778   0.934  0.4417 -1.3302  2.0894
 3807TIP3   OH233055   1.921   5.839   1.997 -0.3527  0.4174  0.3563
 3807TIP3    H133056   1.855   5.896   2.036  2.1922  2.0964  2.6009
 3807TIP3    H233057   1.929   5.870   1.906 -2.3319  0.4062  0.1524
 3808TIP3   OH233058   6.344   5.888   0.970 -0.3114 -0.3224  0.0059
 3808TIP3    H133059   6.361   5.970   1.016 -1.7180  0.1019 -0.1872
 3808TIP3    H233060   6.406   5.887   0.898  0.1432  0.2589  0.3763
 3809TIP3   OH233061   1.739   4.250   2.007  0.6214 -0.5984 -0.4927
 3809TIP3    H133062   1.755   4.213   2.094 -0.2473 -0.1259 -0.1293
 3809TIP3    H233063   1.675   4.319   2.021  2.0997  0.9997 -1.1733
 3810TIP3   OH233064   3.091   4.499   7.518 -0.6441  0.8046 -0.3944
 3810TIP3    H133065   3.186   4.492   7.531 -0.7856  0.3060  0.4358
 3810TIP3    H233066   3.056   4.511   7.606 -1.4132  0.2485 -0.6202
 3811TIP3   OH233067   1.109   4.278   0.451  0.0026 -0.2411  0.0331
 3811TIP3    H133068   1.155   4.345   0.502  1.0427  0.3253 -1.5507
 3811TIP3    H233069   1.178   4.215   0.428 -0.1404  0.1689 -1.6689
 3812TIP3   OH233070   3.584   2.111   0.902 -0.4763 -0.3412 -0.5021
 3812TIP3    H133071   3.556   2.097   0.992 -0.0915  0.8130 -0.1852
 3812TIP3    H233072   3.676   2.136   0.909 -0.1883 -1.1367 -1.2949
 3813TIP3   OH233073   6.573   3.015   6.937  0.3185 -0.2223 -0.3370
 3813TIP3    H133074   6.571   3.085   7.002  1.0095 -0.3085 -0.2168
 3813TIP3    H233075   6.501   2.958   6.962  0.4751 -0.1685  0.2552
 3814TIP3   OH233076   2.649   3.026   1.431 -0.0071  0.2987  0.5918
 3814TIP3    H133077   2.729   2.975   1.429 -0.6666 -0.7593  0.1459
 3814TIP3    H233078   2.658   3.089   1.359  0.0959 -0.3351  0.0489
 3815TIP3   OH233079   1.181   3.996   7.146 -0.1637  0.2273  0.1017
 3815TIP3    H133080   1.188   3.927   7.212  0.8667  0.8882  0.7186
 3815TIP3    H233081   1.249   4.059   7.171 -0.3636  0.9283 -1.0778
 3816TIP3   OH233082   6.411   2.155   7.453  0.3410  0.1755 -0.0125
 3816TIP3    H133083   6.320   2.180   7.468  0.2838 -1.2986  2.7696
 3816TIP3    H233084   6.462   2.234   7.473 -0.2766  1.1681 -2.1133
 3817TIP3   OH233085   1.531   3.998   7.262 -0.2086  0.0246  0.0445
 3817TIP3    H133086   1.606   4.048   7.231  0.8288 -1.7367 -0.4291
 3817TIP3    H233087   1.482   3.974   7.183 -0.2517 -0.3728  0.1852
 3818TIP3   OH233088   5.080   6.057   8.104 -0.0345 -0.4902 -0.4068
 3818TIP3    H133089   5.102   6.032   8.014 -1.5237  0.4350 -1.0842
 3818TIP3    H233090   5.132   6.135   8.121 -0.1702 -0.3336 -0.6960
 3819TIP3   OH233091   0.993   2.070   8.794  0.0415  0.4089 -0.0085
 3819TIP3    H133092   0.902   2.041   8.790 -0.3975  1.5991  0.9322
 3819TIP3    H233093   1.023   2.042   8.880  0.5204  0.1899 -0.2404
 3820TIP3   OH233094   5.133   5.330   8.326  1.0889 -0.1869  0.3137
 3820TIP3    H133095   5.091   5.247   8.347 -0.0307  0.1948 -0.3148
 3820TIP3    H233096   5.123   5.382   8.406 -1.6865  0.6716 -0.4522
 3821TIP3   OH233097   6.504   3.290   1.452 -0.1416 -0.1407  0.4517
 3821TIP3    H133098   6.520   3.363   1.512  1.3129  0.9023 -1.0989
 3821TIP3    H233099   6.416   3.306   1.418  0.9050  2.2490 -1.4795
 3822TIP3   OH233100   1.688   3.852   6.946  0.5050 -0.3603 -0.1171
 3822TIP3    H133101   1.641   3.768   6.947 -0.9310  0.4217  0.5601
 3822TIP3    H233102   1.620   3.917   6.930  1.6303  0.6846 -0.8155
 3823TIP3   OH233103   3.062   3.832   7.584  0.1944  0.2134  0.0431
 3823TIP3    H133104   3.136   3.780   7.616  0.5896  0.0445 -1.0790
 3823TIP3    H233105   3.027   3.781   7.510 -2.7043 -1.0105  2.0903
 3824TIP3   OH233106   1.623   5.351   0.596 -0.1272 -0.6296 -0.0392
 3824TIP3    H133107   1.640   5.445   0.603  0.9114 -0.8736  0.9925
 3824TIP3    H233108   1.694   5.319   0.539 -0.0033 -0.9054  0.2670
 3825TIP3   OH233109   0.104   6.760   2.002 -0.4336  0.5261  0.0795
 3825TIP3    H133110   0.196   6.787   1.998 -0.0702 -0.3754  1.5655
 3825TIP3    H233111   0.061   6.813   1.935  1.7203 -1.2944 -3.0572
 3826TIP3   OH233112   6.498   2.759   0.303  0.2109 -0.5726  0.3836
 3826TIP3    H133113   6.574   2.745   0.358  0.6376 -0.2343 -0.1112
 3826TIP3    H233114   6.508   2.849   0.270 -2.4538  1.0746  3.4988
 3827TIP3   OH233115   1.775   4.706   0.295 -0.0236 -0.1813  0.3109
 3827TIP3    H133116   1.816   4.749   0.371  0.7152  1.0324 -0.7258
 3827TIP3    H233117   1.788   4.613   0.310  1.9176  0.1041  0.7220
 3828TIP3   OH233118   1.804   4.450   1.376 -0.2580  0.6632  0.1500
 3828TIP3    H133119   1.736   4.442   1.443 -0.1519  1.8241  0.4258
 3828TIP3    H233120   1.769   4.515   1.315 -0.3129 -0.3125 -0.8878
 3829TIP3   OH233121   6.294   6.785   7.235 -0.6539  0.4664  0.5339
 3829TIP3    H133122   6.329   6.698   7.217  0.0183  0.9089 -0.3798
 3829TIP3    H233123   6.370   6.839   7.256 -1.0492  0.8605  0.9843
 3830TIP3   OH233124   3.910   2.320   1.605  0.2502  0.1953  0.4944
 3830TIP3    H133125   3.896   2.254   1.538 -0.8986  0.5206  0.3981
 3830TIP3    H233126   3.948   2.272   1.679  0.0443 -0.4415  0.1889
 3831TIP3   OH233127   2.706   1.363   8.490  0.6821  0.9971  0.5242
 3831TIP3    H133128   2.695   1.457   8.472  1.3505  1.2757  1.5073
 3831TIP3    H233129   2.720   1.324   8.404  0.9705  1.8786  0.1590
 3832TIP3   OH233130   3.205   4.581   0.695 -0.3495  0.3161 -0.4616
 3832TIP3    H133131   3.289   4.566   0.650  0.8073  1.5039  1.1609
 3832TIP3    H233132   3.213   4.531   0.777 -0.6719  1.4605  0.2941
 3833TIP3   OH233133   5.875   3.788   7.648  0.8923  0.0327 -0.3503
 3833TIP3    H133134   5.863   3.700   7.685  2.5465 -0.3865 -0.7518
 3833TIP3    H233135   5.930   3.834   7.712  1.2745  0.2818 -0.8535
 3834TIP3   OH233136   0.961   3.151   0.774 -0.4382  0.5054  0.2606
 3834TIP3    H133137   0.923   3.073   0.734  2.2892 -1.2092  0.7467
 3834TIP3    H233138   1.028   3.179   0.711  0.0170  1.2093  1.0446
 3835TIP3   OH233139   2.592   0.420   1.577 -0.0485  0.3534  0.0749
 3835TIP3    H133140   2.600   0.514   1.591  0.0579  0.5141 -0.9801
 3835TIP3    H233141   2.683   0.388   1.575 -0.0916  0.1828  0.6942
 3836TIP3   OH233142   1.331   2.016   0.328  0.2180  0.7251 -0.3630
 3836TIP3    H133143   1.351   2.084   0.393  2.1603 -0.2871  0.1726
 3836TIP3    H233144   1.324   1.935   0.379 -0.0090  0.1909 -1.2164
 3837TIP3   OH233145   5.864   1.012   8.020  0.0582 -0.5493 -0.0898
 3837TIP3    H133146   5.798   0.943   8.029  0.6131 -1.0255  0.4255
 3837TIP3    H233147   5.893   1.029   8.110  1.9215 -1.6230 -0.4282
 3838TIP3   OH233148   5.277   4.106   0.565  0.3406 -0.5690 -0.3804
 3838TIP3    H133149   5.237   4.187   0.594  1.2896  0.1287 -0.9533
 3838TIP3    H233150   5.214   4.038   0.588 -0.2441  0.2685  0.5571
 3839TIP3   OH233151   5.807   4.690   1.077 -0.2083  0.0556  0.1942
 3839TIP3    H133152   5.801   4.607   1.029 -2.4203 -0.6772  1.5808
 3839TIP3    H233153   5.718   4.726   1.074  0.5343  1.9959  0.3052
 3840TIP3   OH233154   1.335   0.924   0.537 -0.1638 -0.6035 -0.2542
 3840TIP3    H133155   1.255   0.903   0.585  0.2803 -1.6512  0.0654
 3840TIP3    H233156   1.383   0.841   0.533  1.3257  0.1901  0.3546
 3841TIP3   OH233157   0.971   2.823   2.122 -0.1549 -0.8762  0.3485
 3841TIP3    H133158   1.066   2.831   2.133 -0.1690  1.5313 -0.6049
 3841TIP3    H233159   0.950   2.736   2.157  2.2504 -1.1221  1.3994
 3842TIP3   OH233160   5.547   6.275   7.461  0.0535  0.4089 -0.5224
 3842TIP3    H133161   5.503   6.204   7.507  1.9824 -0.3835  0.2407
 3842TIP3    H233162   5.495   6.289   7.382 -1.4225 -0.5511  0.2423
 3843TIP3   OH233163   4.972   2.029   8.791 -0.1711 -0.5587 -0.5562
 3843TIP3    H133164   4.954   2.076   8.710 -1.7072  0.6157  0.4187
 3843TIP3    H233165   5.049   2.072   8.827 -0.1565 -0.3509 -0.8316
 3844TIP3   OH233166   4.432   2.608   1.953  0.4682 -0.4012 -0.2341
 3844TIP3    H133167   4.397   2.605   1.865  0.7565 -0.7201 -0.3392
 3844TIP3    H233168   4.389   2.536   1.999  0.2045 -0.1439 -0.0666
 3845TIP3   OH233169   2.869   4.007   1.013 -0.5882 -0.0204  0.5908
 3845TIP3    H133170   2.820   3.997   1.095 -1.9808  0.1792 -0.1786
 3845TIP3    H233171   2.896   3.918   0.990 -0.7734 -0.1650  0.9345
 3846TIP3   OH233172   3.484   0.692   7.134  0.3375  0.1754 -0.1990
 3846TIP3    H133173   3.437   0.743   7.200  1.0383  2.7472 -1.5970
 3846TIP3    H233174   3.435   0.705   7.054  0.8671 -0.9100 -0.7222
 3847TIP3   OH233175   6.500   0.336   0.847 -0.3269  0.0422 -0.4810
 3847TIP3    H133176   6.457   0.372   0.770  0.6366 -1.1342 -1.6351
 3847TIP3    H233177   6.584   0.303   0.814  1.1862  1.5966  1.5128
 3848TIP3   OH233178   5.922   0.783   8.588 -0.1129 -0.7916 -0.3194
 3848TIP3    H133179   5.973   0.795   8.509  0.5682  1.0583  0.3435
 3848TIP3    H233180   5.853   0.850   8.583 -0.6968 -1.3355  0.1758
 3849TIP3   OH233181   3.698   1.433   1.797 -0.0182  0.0199  0.4396
 3849TIP3    H133182   3.646   1.509   1.775  0.1626  0.3945  1.2645
 3849TIP3    H233183   3.687   1.373   1.723 -2.0213 -0.1262  0.8207
 3850TIP3   OH233184   6.691   1.393   7.730 -0.0260 -0.0347  0.0448
 3850TIP3    H133185   6.759   1.330   7.754  0.4211  0.3481 -0.1980
 3850TIP3    H233186   6.701   1.464   7.794 -0.9357 -0.4835  0.7075
 3851TIP3   OH233187   1.618   1.355   8.773 -0.3641 -0.0591 -0.2771
 3851TIP3    H133188   1.668   1.316   8.845 -3.3087 -1.5635  1.0924
 3851TIP3    H233189   1.656   1.315   8.694  1.3186 -0.2232  0.5631
 3852TIP3   OH233190   0.602   4.503   6.405 -0.4512 -0.7265 -0.1675
 3852TIP3    H133191   0.530   4.565   6.415  1.0468  1.5467 -2.2879
 3852TIP3    H233192   0.677   4.545   6.448 -0.0618 -2.5473  1.0584
 3853TIP3   OH233193   6.777   3.763   1.317 -0.3599  0.6208  0.1461
 3853TIP3    H133194   6.857   3.750   1.368  1.1577  1.1016 -1.9427
 3853TIP3    H233195   6.783   3.698   1.247 -1.5701  0.9746 -0.3065
 3854TIP3   OH233196   4.915   5.450   7.744 -0.1074 -0.1619  0.3848
 3854TIP3    H133197   5.001   5.447   7.787 -0.2133 -1.9164  0.5699
 3854TIP3    H233198   4.911   5.368   7.695 -1.1653  0.5078 -0.6723
 3855TIP3   OH233199   2.936   4.816   8.052 -0.2974 -0.0727 -0.2719
 3855TIP3    H133200   2.926   4.724   8.074 -0.6793 -0.3236 -1.4036
 3855TIP3    H233201   2.873   4.831   7.981 -0.4613  1.1327  0.0965
 3856TIP3   OH233202   0.719   3.814   7.721 -0.1452 -0.3886 -0.4226
 3856TIP3    H133203   0.635   3.848   7.690 -0.6060 -2.2489 -1.3441
 3856TIP3    H233204   0.720   3.834   7.815 -0.5967  1.6040 -0.7849
 3857TIP3   OH233205   6.788   2.656   0.154  0.3169 -0.1970 -0.1043
 3857TIP3    H133206   6.713   2.642   0.096  0.5961  1.8744 -1.0671
 3857TIP3    H233207   6.864   2.656   0.095  0.7498  0.6110  0.4372
 3858TIP3   OH233208   6.285   1.391   1.709  0.3449  0.4944 -0.5083
 3858TIP3    H133209   6.373   1.365   1.736 -0.1273 -0.8466 -0.1669
 3858TIP3    H233210   6.289   1.396   1.614  0.2141 -1.9982 -0.7028
 3859TIP3   OH233211   1.351   5.918   8.512 -0.5573  0.8001 -0.0401
 3859TIP3    H133212   1.388   5.840   8.471 -0.0074  0.7116  0.6102
 3859TIP3    H233213   1.322   5.972   8.438  0.1227  0.5023 -0.5354
 3860TIP3   OH233214   0.430   2.052   1.070  0.3980  0.2569 -0.1143
 3860TIP3    H133215   0.337   2.043   1.091 -0.1097  0.3281 -2.1223
 3860TIP3    H233216   0.454   2.139   1.101 -0.7973  1.0962 -1.4279
 3861TIP3   OH233217   0.867   6.761   0.785 -0.2637 -0.1071 -0.5791
 3861TIP3    H133218   0.818   6.699   0.730 -0.1109 -1.3037  0.5911
 3861TIP3    H233219   0.800   6.812   0.829 -0.5164 -1.5851  0.8401
 3862TIP3   OH233220   2.421   2.829   8.343 -0.1250  0.2873  0.2010
 3862TIP3    H133221   2.431   2.801   8.252  0.5832 -0.9778  0.6470
 3862TIP3    H233222   2.487   2.779   8.391 -2.1927 -1.0712  1.8094
 3863TIP3   OH233223   2.218   3.806   1.891  0.5937 -0.0532 -0.2838
 3863TIP3    H133224   2.208   3.793   1.985 -0.0363  0.5142 -0.2672
 3863TIP3    H233225   2.228   3.717   1.856 -1.3164 -0.4606  0.0823
 3864TIP3   OH233226   1.396   4.755   1.666 -0.4175 -0.1066  0.4104
 3864TIP3    H133227   1.306   4.784   1.647 -0.1469  1.5872  1.4492
 3864TIP3    H233228   1.386   4.666   1.698 -1.4066 -1.0388 -2.2064
 3865TIP3   OH233229   0.058   6.121   2.472  0.4865  0.3851 -0.6208
 3865TIP3    H133230   0.026   6.085   2.554 -0.8388  0.5043 -1.0528
 3865TIP3    H233231   0.140   6.074   2.454  1.1077  0.7753  1.0403
 3866TIP3   OH233232   1.345   0.001   7.540  0.4100 -0.6694  0.7325
 3866TIP3    H133233   1.391   0.007   7.456  0.9023  0.0691  1.0486
 3866TIP3    H233234   1.384   0.070   7.594 -0.2507 -0.8111  1.4031
 3867TIP3   OH233235   1.094   5.790   0.646  0.3361 -0.0204  0.1848
 3867TIP3    H133236   1.004   5.824   0.647  0.7869  1.2865  2.0277
 3867TIP3    H233237   1.100   5.739   0.728  0.8803 -1.2782 -0.6108
 3868TIP3   OH233238   5.828   4.895   7.736 -0.4018 -0.2035 -0.7939
 3868TIP3    H133239   5.843   4.840   7.813  0.0107  1.0838  0.0859
 3868TIP3    H233240   5.899   4.871   7.676  1.7557  1.5538  0.8788
 3869TIP3   OH233241   2.486   2.312   7.512 -0.0775  0.4927 -0.3264
 3869TIP3    H133242   2.564   2.367   7.517  1.6370 -1.6902 -1.1110
 3869TIP3    H233243   2.441   2.342   7.433 -0.3308  2.1152  0.4097
 3870TIP3   OH233244   6.065   2.319   8.303  0.2771  0.2005 -0.0057
 3870TIP3    H133245   6.139   2.293   8.358 -0.6228 -3.3536 -0.2491
 3870TIP3    H233246   6.089   2.292   8.215 -0.3991  1.1156 -0.4866
 3871TIP3   OH233247   5.439   6.287   7.199 -0.1165  0.5423 -0.0065
 3871TIP3    H133248   5.363   6.257   7.149 -0.4182 -0.3458  0.9420
 3871TIP3    H233249   5.429   6.382   7.202 -1.5601  0.4013  0.6602
 3872TIP3   OH233250   1.522   0.963   7.165 -0.1950 -0.0754 -0.5554
 3872TIP3    H133251   1.464   0.970   7.241  0.3279  0.4422 -0.2024
 3872TIP3    H233252   1.466   0.988   7.091  0.0589  2.3222  0.0075
 3873TIP3   OH233253   5.202   5.443   1.194  0.2608 -0.0012  0.1629
 3873TIP3    H133254   5.158   5.398   1.122  0.8712  1.1094 -0.9530
 3873TIP3    H233255   5.131   5.480   1.247 -0.1927 -0.6477  0.0097
 3874TIP3   OH233256   3.741   4.321   1.599  0.6148  0.0135 -0.1425
 3874TIP3    H133257   3.773   4.236   1.569 -0.5199 -0.2102 -0.7773
 3874TIP3    H233258   3.773   4.383   1.533  0.0837 -0.1566 -0.5675
 3875TIP3   OH233259   2.420   5.327   8.356 -0.6289 -0.2605 -0.1136
 3875TIP3    H133260   2.465   5.245   8.376  0.0785 -0.1984 -1.3778
 3875TIP3    H233261   2.486   5.395   8.368 -0.6353 -0.0755 -1.0370
 3876TIP3   OH233262   0.888   4.117   0.507  0.3120  0.5249  0.2078
 3876TIP3    H133263   0.969   4.157   0.475  1.0502 -0.7662  0.3964
 3876TIP3    H233264   0.909   4.089   0.596  0.4486 -1.9292 -0.5393
 3877TIP3   OH233265   3.474   4.681   8.251  0.1951  0.5408  0.2625
 3877TIP3    H133266   3.521   4.650   8.173  1.2111  1.0574  0.6449
 3877TIP3    H233267   3.426   4.758   8.220 -1.3266 -0.6270 -0.3910
 3878TIP3   OH233268   6.479   5.017   2.040 -0.0553 -0.6655 -0.1528
 3878TIP3    H133269   6.544   4.946   2.040  0.0308 -0.6049 -1.0655
 3878TIP3    H233270   6.473   5.044   2.131 -0.3116 -2.0452  0.2621
 3879TIP3   OH233271   2.138   1.571   8.779 -0.0814  1.0624 -0.3029
 3879TIP3    H133272   2.048   1.539   8.768  0.5162 -0.0936 -2.0382
 3879TIP3    H233273   2.171   1.524   8.856  0.2459 -1.4447 -1.8628
 3880TIP3   OH233274   5.942   5.527   8.734 -0.5801 -0.4534  0.4461
 3880TIP3    H133275   5.860   5.540   8.782 -0.5180 -0.9841  0.6980
 3880TIP3    H233276   5.917   5.535   8.642 -0.8126 -0.0590  0.5403
 3881TIP3   OH233277   5.212   6.192   2.322  0.3059  0.0413  0.6286
 3881TIP3    H133278   5.274   6.265   2.320  0.3804 -0.0183 -1.3976
 3881TIP3    H233279   5.135   6.227   2.367  0.4359  1.3189 -0.1013
 3882TIP3   OH233280   4.868   5.281   1.390 -0.3075 -0.0871 -0.0659
 3882TIP3    H133281   4.785   5.266   1.435 -0.3019 -0.6058 -0.2223
 3882TIP3    H233282   4.887   5.198   1.347  1.0945 -0.5054  1.2802
 3883TIP3   OH233283   2.956   5.286   0.780  0.2454 -0.0520 -0.6235
 3883TIP3    H133284   2.883   5.339   0.748  0.6074  1.5673  1.0770
 3883TIP3    H233285   3.032   5.322   0.734  0.4252  0.6370  0.1845
 3884TIP3   OH233286   4.679   0.770   0.174 -0.0863 -0.0910 -0.0682
 3884TIP3    H133287   4.642   0.687   0.144 -0.3773 -0.1899  0.5342
 3884TIP3    H233288   4.717   0.750   0.260  2.5997 -0.3050 -1.2113
 3885TIP3   OH233289   5.440   5.670   0.331 -0.1703  0.1674 -0.6953
 3885TIP3    H133290   5.396   5.706   0.408  0.8660 -0.8479  0.3895
 3885TIP3    H233291   5.498   5.602   0.365  2.1530  1.3361 -2.0861
 3886TIP3   OH233292   4.062   0.761   8.648 -0.1097 -0.2767  0.1935
 3886TIP3    H133293   4.041   0.676   8.608 -1.7377 -0.4939  1.4135
 3886TIP3    H233294   4.051   0.824   8.576  0.9933 -1.0534 -0.6959
 3887TIP3   OH233295   4.650   3.439   7.381  0.4572  0.4912  0.7598
 3887TIP3    H133296   4.615   3.464   7.467  0.1776  0.3932  0.6760
 3887TIP3    H233297   4.620   3.508   7.322 -3.0320 -1.5102 -0.1192
 3888TIP3   OH233298   2.025   1.518   8.502 -0.2417 -0.6051 -0.6454
 3888TIP3    H133299   1.993   1.526   8.592  0.5762  1.8311 -0.5004
 3888TIP3    H233300   1.959   1.564   8.450  0.7318  0.5513 -0.8946
 3889TIP3   OH233301   1.317   1.431   7.158  1.1105  0.4233 -0.3972
 3889TIP3    H133302   1.380   1.423   7.230 -0.4542  1.0023  1.1172
 3889TIP3    H233303   1.308   1.342   7.124  0.7905 -0.1722  1.1409
 3890TIP3   OH233304   1.932   5.323   1.401  0.0648 -0.0195  0.1929
 3890TIP3    H133305   1.868   5.252   1.399 -0.1824  0.1912 -2.0867
 3890TIP3    H233306   2.012   5.283   1.435 -0.5467 -0.9397  0.5882
 3891TIP3   OH233307   3.050   4.816   0.638  0.0500  0.2939  0.2102
 3891TIP3    H133308   3.092   4.733   0.613  2.7246  2.1994 -2.3012
 3891TIP3    H233309   3.109   4.853   0.703  0.1675  1.2337 -0.4168
 3892TIP3   OH233310   3.246   4.051   7.829  0.6323  0.2682  0.1510
 3892TIP3    H133311   3.204   4.058   7.914  0.9193 -0.6905  0.3817
 3892TIP3    H233312   3.174   4.058   7.766  0.0658 -1.5993  0.5486
 3893TIP3   OH233313   4.515   0.337   1.117  0.5475  0.2148 -0.0428
 3893TIP3    H133314   4.594   0.358   1.167  0.8726 -0.8903 -0.0673
 3893TIP3    H233315   4.535   0.364   1.028  0.8232  0.0993 -0.0160
 3894TIP3   OH233316   1.813   0.441   0.106 -0.0439  0.3480  0.3306
 3894TIP3    H133317   1.769   0.484   0.032 -0.5931  1.1083  1.0838
 3894TIP3    H233318   1.880   0.387   0.065 -0.4174  0.6637 -0.7391
 3895TIP3   OH233319   3.739   2.051   2.393  0.5001  0.1120  0.5137
 3895TIP3    H133320   3.822   2.041   2.438 -0.1133 -0.2497  1.5903
 3895TIP3    H233321   3.673   2.021   2.456 -0.3323 -1.0508 -0.8296
 3896TIP3   OH233322   0.656   4.887   0.789  0.2033  0.3201  0.5127
 3896TIP3    H133323   0.748   4.900   0.769 -0.5735  3.1965 -1.7908
 3896TIP3    H233324   0.633   4.804   0.746  1.1522  0.9114 -1.2192
 3897TIP3   OH233325   0.063   3.066   8.319 -0.3587  0.2362 -0.0447
 3897TIP3    H133326  -0.019   3.018   8.306 -0.9294  0.9196  0.8522
 3897TIP3    H233327   0.087   3.097   8.231 -1.4142  0.5660 -0.2372
 3898TIP3   OH233328   1.853   1.804   1.635  0.4375  0.4408 -0.2009
 3898TIP3    H133329   1.759   1.786   1.635  0.7873 -1.5983 -0.8042
 3898TIP3    H233330   1.859   1.899   1.648 -1.6559  0.4604  1.1108
 3899TIP3   OH233331   4.550   6.084   1.650  0.2591  0.1068 -0.4887
 3899TIP3    H133332   4.627   6.134   1.623 -0.6105  0.9719 -1.4573
 3899TIP3    H233333   4.554   6.004   1.597 -0.2229  0.7773 -1.5796
 3900TIP3   OH233334   5.193   4.751   7.356  0.1683 -0.0108  0.7957
 3900TIP3    H133335   5.131   4.819   7.329  1.1025  0.4808 -0.1942
 3900TIP3    H233336   5.173   4.677   7.298  1.2209  0.5440 -0.3241
 3901TIP3   OH233337   4.061   6.427   6.604 -1.0737  0.2845 -0.0815
 3901TIP3    H133338   4.124   6.465   6.543 -1.8793 -0.5741 -1.5077
 3901TIP3    H233339   4.079   6.470   6.688  0.1218  1.4365 -0.8954
 3902TIP3   OH233340   1.764   2.893   0.567 -0.1437  0.3094  0.3200
 3902TIP3    H133341   1.692   2.917   0.509  0.1164  0.9915  0.2684
 3902TIP3    H233342   1.809   2.976   0.585  0.7759 -0.1372  0.1434
 3903TIP3   OH233343   0.773   0.959   1.553 -0.2667 -0.0826  0.8862
 3903TIP3    H133344   0.786   1.024   1.483 -0.1566  0.5092  1.4513
 3903TIP3    H233345   0.692   0.915   1.529 -0.7980  0.8358  0.9291
 3904TIP3   OH233346   2.274   4.536   7.716  0.2832  0.7838  0.2403
 3904TIP3    H133347   2.254   4.480   7.790 -0.8719  1.3117  0.3604
 3904TIP3    H233348   2.355   4.581   7.740  1.0185 -0.5469  0.2872
 3905TIP3   OH233349   5.769   2.618   1.187  0.3512 -0.2480  0.2387
 3905TIP3    H133350   5.723   2.610   1.271 -2.3018  1.3172 -0.9378
 3905TIP3    H233351   5.837   2.683   1.203 -0.2130  0.1408  1.1340
 3906TIP3   OH233352   1.334   3.272   7.727  0.1974  0.2399  0.0018
 3906TIP3    H133353   1.385   3.345   7.760 -1.9541  1.2434  1.3368
 3906TIP3    H233354   1.325   3.213   7.802  2.6766 -1.9754 -1.2880
 3907TIP3   OH233355   2.542   3.908   8.455  0.1002 -0.4317  0.4243
 3907TIP3    H133356   2.488   3.940   8.528  0.7670  0.2122  0.6481
 3907TIP3    H233357   2.479   3.871   8.393 -0.5361 -0.3465  1.0038
 3908TIP3   OH233358   1.114   5.812   8.648 -0.0224 -0.2735 -0.0184
 3908TIP3    H133359   1.062   5.873   8.596  0.3147 -0.5526 -0.7034
 3908TIP3    H233360   1.202   5.819   8.611 -0.0198 -1.3049 -0.2219
 3909TIP3   OH233361   2.874   4.254   8.380  0.3275  0.1348  0.0436
 3909TIP3    H133362   2.819   4.198   8.326 -0.4692  0.8944  0.0390
 3909TIP3    H233363   2.822   4.268   8.460 -0.4558  2.5109 -0.7754
 3910TIP3   OH233364   3.754   5.586   1.034  0.0244 -0.6347  0.0145
 3910TIP3    H133365   3.686   5.533   1.075 -0.8195  1.5272  1.5687
 3910TIP3    H233366   3.830   5.578   1.091 -0.1351 -0.1206  0.3054
 3911TIP3   OH233367   1.811   3.597   7.645 -0.0858 -0.2613  0.3463
 3911TIP3    H133368   1.793   3.626   7.735  2.3350  1.0160  0.5296
 3911TIP3    H233369   1.874   3.525   7.656  0.7439  0.3478 -0.2967
 3912TIP3   OH233370   5.143   1.822   0.224  0.4383  0.4619  0.1504
 3912TIP3    H133371   5.049   1.837   0.238  0.0403 -1.3074 -0.3107
 3912TIP3    H233372   5.148   1.791   0.133  1.5012  0.7074  0.1149
 3913TIP3   OH233373   6.170   2.311   7.410 -0.0975  0.1453  0.0753
 3913TIP3    H133374   6.137   2.228   7.374 -1.0219  1.0354 -1.2168
 3913TIP3    H233375   6.098   2.344   7.464  0.9522 -0.7372  2.1368
 3914TIP3   OH233376   3.262   0.366   1.133  0.4146  0.3943  0.1979
 3914TIP3    H133377   3.247   0.284   1.180  0.6753 -0.8775 -1.8241
 3914TIP3    H233378   3.255   0.433   1.200  0.4852 -1.2905  1.9883
 3915TIP3   OH233379   5.973   1.739   8.441 -0.0130  0.1552  0.2589
 3915TIP3    H133380   6.002   1.727   8.350 -0.0888  1.7394 -0.0099
 3915TIP3    H233381   6.020   1.817   8.470 -1.0742  0.4986  1.1009
 3916TIP3   OH233382   4.753   4.863   8.171  0.2740  0.2276  0.1843
 3916TIP3    H133383   4.775   4.777   8.206 -0.1345 -0.4968 -1.2556
 3916TIP3    H233384   4.837   4.909   8.165  0.3180  0.5741  2.4530
 3917TIP3   OH233385   3.177   6.173   8.143  0.5330 -0.2798  0.6038
 3917TIP3    H133386   3.172   6.268   8.153 -0.9752 -0.3179  0.3940
 3917TIP3    H233387   3.101   6.139   8.191  0.1545 -1.2688 -0.6464
 3918TIP3   OH233388   2.989   3.301   8.087  0.6369  0.0126 -0.3246
 3918TIP3    H133389   2.993   3.394   8.064 -0.5607  0.2442  0.2861
 3918TIP3    H233390   2.968   3.302   8.181 -0.5904 -0.8604 -0.5742
 3919TIP3   OH233391   6.811   6.792   2.239  0.2999 -0.2191 -0.3319
 3919TIP3    H133392   6.842   6.776   2.150 -2.1564 -0.1542 -1.2654
 3919TIP3    H233393   6.827   6.885   2.254  2.3871 -0.5928  0.0377
 3920TIP3   OH233394   0.633   2.171   7.831 -0.1682 -0.5001 -0.0254
 3920TIP3    H133395   0.695   2.231   7.873 -0.4154  0.1117 -0.5190
 3920TIP3    H233396   0.576   2.141   7.902  0.2037 -0.4598  0.2916
 3921TIP3   OH233397   2.444   2.598   0.360  0.6944 -0.0235  0.0782
 3921TIP3    H133398   2.534   2.567   0.367  0.8388  0.6651  1.9692
 3921TIP3    H233399   2.405   2.578   0.445 -0.4521  1.1234 -0.1354
 3922TIP3   OH233400   3.206   5.812   0.733  0.8337 -0.7094  0.0338
 3922TIP3    H133401   3.191   5.878   0.801  1.7394  0.9173 -1.2799
 3922TIP3    H233402   3.298   5.788   0.744  0.8284 -0.8674 -0.2743
 3923TIP3   OH233403   5.615   1.072   7.123  0.1589  0.2155  0.3165
 3923TIP3    H133404   5.623   1.109   7.210 -1.1124  1.6170 -0.1348
 3923TIP3    H233405   5.612   1.148   7.064 -1.3133 -0.6207 -0.7398
 3924TIP3   OH233406   1.614   0.168   1.636 -0.0951 -0.2164 -0.1429
 3924TIP3    H133407   1.613   0.091   1.692 -2.4211 -0.1037  0.1000
 3924TIP3    H233408   1.693   0.216   1.661  0.9258 -2.0599  0.3083
 3925TIP3   OH233409   5.239   4.782   6.987  0.0635 -0.4896 -0.3182
 3925TIP3    H133410   5.192   4.728   7.051 -0.7311 -1.6339 -1.7896
 3925TIP3    H233411   5.298   4.720   6.943  1.8614  0.6175  0.4473
 3926TIP3   OH233412   2.413   0.141   7.133  0.2672 -0.2059  0.0443
 3926TIP3    H133413   2.332   0.124   7.182 -0.2834 -0.5677 -0.9694
 3926TIP3    H233414   2.387   0.205   7.067 -0.2865 -3.2566 -2.9836
 3927TIP3   OH233415   0.766   4.180   2.424 -0.0338 -0.2301  0.5629
 3927TIP3    H133416   0.831   4.127   2.378  2.0954  0.8159  2.2244
 3927TIP3    H233417   0.691   4.183   2.363  0.8680 -2.6246 -0.8307
 3928TIP3   OH233418   1.621   5.996   6.354  0.5872 -0.0682 -0.1060
 3928TIP3    H133419   1.586   6.051   6.425  2.3262  2.4539 -1.0671
 3928TIP3    H233420   1.584   6.035   6.274  0.8848 -1.1005 -0.7586
 3929TIP3   OH233421   3.413   5.691   8.001 -0.6177  0.1594  0.3439
 3929TIP3    H133422   3.423   5.784   7.980 -1.1447  0.5346  1.6712
 3929TIP3    H233423   3.324   5.683   8.036 -0.2703 -0.6651  1.0882
 3930TIP3   OH233424   2.456   0.892   6.710  0.2044  0.3698  0.3815
 3930TIP3    H133425   2.475   0.833   6.783  0.8302 -1.3612 -1.0790
 3930TIP3    H233426   2.365   0.918   6.723  0.6322  1.0465  2.3580
 3931TIP3   OH233427   2.120   6.356   1.825 -0.0637  0.9161  0.5094
 3931TIP3    H133428   2.156   6.444   1.814  1.7325  0.1062 -0.4747
 3931TIP3    H233429   2.026   6.369   1.828  0.1543  2.8526  0.2187
 3932TIP3   OH233430   5.714   5.759   8.295  0.1673 -0.1327 -0.0560
 3932TIP3    H133431   5.675   5.761   8.207 -0.0084  1.9760  0.0235
 3932TIP3    H233432   5.805   5.736   8.280 -0.1665 -1.1364 -0.6398
 3933TIP3   OH233433   3.918   0.554   8.111 -0.5581  0.7510 -0.3757
 3933TIP3    H133434   3.935   0.624   8.174 -0.6451  0.1922  0.2690
 3933TIP3    H233435   3.830   0.523   8.133  0.0192 -0.4849  0.2158
 3934TIP3   OH233436   1.924   2.469   8.318 -0.3615 -0.2170  0.2509
 3934TIP3    H133437   1.863   2.535   8.283  0.4316  0.5398  0.2524
 3934TIP3    H233438   1.935   2.406   8.247  0.0477  0.4792 -0.3133
 3935TIP3   OH233439   2.992   6.104   8.354  0.3277  0.5522 -0.1780
 3935TIP3    H133440   2.923   6.050   8.392  0.6680 -0.3194 -0.7747
 3935TIP3    H233441   2.950   6.189   8.339  0.2582  1.0230  2.3513
 3936TIP3   OH233442   2.622   6.001   1.584 -0.0638 -0.0256  0.4389
 3936TIP3    H133443   2.692   6.037   1.638 -0.1476  0.1106  0.4566
 3936TIP3    H233444   2.666   5.936   1.529 -0.2000 -1.0546  1.5280
 3937TIP3   OH233445   6.301   0.330   1.457 -0.0986 -0.1593  0.0125
 3937TIP3    H133446   6.351   0.253   1.429 -0.9560 -0.5801 -0.4231
 3937TIP3    H233447   6.328   0.399   1.397  0.4184 -0.2054  0.1834
 3938TIP3   OH233448   1.009   6.165   0.811  0.4282  0.1686 -0.1437
 3938TIP3    H133449   1.046   6.158   0.723  0.7961  1.1112 -0.0761
 3938TIP3    H233450   1.085   6.158   0.869  0.3063  0.5031  0.0575
 3939TIP3   OH233451   5.017   5.282   6.973 -0.0454 -0.0465 -0.0173
 3939TIP3    H133452   4.923   5.291   6.959 -0.6069 -0.6039  2.7580
 3939TIP3    H233453   5.038   5.195   6.939 -0.8988 -0.5910  0.8056
 3940TIP3   OH233454   4.946   2.648   7.916  0.2688  0.7568  0.0833
 3940TIP3    H133455   4.876   2.711   7.899 -0.5215  0.0120  0.4746
 3940TIP3    H233456   5.018   2.700   7.950  0.3079  1.6867 -1.3292
 3941TIP3   OH233457   5.402   4.825   7.516 -0.1324 -0.3350  0.0572
 3941TIP3    H133458   5.346   4.903   7.516  0.7219  0.2926 -0.6862
 3941TIP3    H233459   5.361   4.767   7.451 -2.5755 -1.9047  2.7580
 3942TIP3   OH233460   1.715   0.530   1.510 -0.0778  0.6295 -0.4322
 3942TIP3    H133461   1.758   0.514   1.425 -0.5525  1.8913 -0.9219
 3942TIP3    H233462   1.749   0.460   1.566  0.1678 -0.3096 -1.6785
 3943TIP3   OH233463   4.076   4.383   1.146 -0.1764 -0.0364 -0.1038
 3943TIP3    H133464   4.000   4.372   1.202  0.4666 -1.4889  0.5294
 3943TIP3    H233465   4.118   4.298   1.145  2.1767  1.0362  0.6149
 3944TIP3   OH233466   5.888   6.654   7.499 -0.0956  0.3612 -0.2499
 3944TIP3    H133467   5.954   6.608   7.551  0.5386 -0.2385 -1.5358
 3944TIP3    H233468   5.895   6.745   7.527  1.4962  0.3599 -0.5598
 3945TIP3   OH233469   0.498   2.065   8.055  0.0215 -0.4078 -0.2994
 3945TIP3    H133470   0.403   2.066   8.038  0.0558  0.4794 -0.4553
 3945TIP3    H233471   0.515   1.976   8.085 -0.8684 -0.5774 -0.2553
 3946TIP3   OH233472   1.930   6.445   8.534 -0.0841 -0.0684  0.2403
 3946TIP3    H133473   2.000   6.476   8.592  0.4064  1.2324 -0.9756
 3946TIP3    H233474   1.881   6.524   8.511 -0.9115 -0.7156 -0.2765
 3947TIP3   OH233475   2.657   0.031   7.544  0.0902  1.2632 -0.0097
 3947TIP3    H133476   2.666  -0.026   7.468 -0.2979  0.9638  0.1628
 3947TIP3    H233477   2.578  -0.000   7.588 -0.6824  2.5373 -0.4303
 3948TIP3   OH233478   4.803   6.433   6.985 -0.0509 -0.3548 -0.3569
 3948TIP3    H133479   4.737   6.363   6.989 -1.4094  0.8886 -0.3675
 3948TIP3    H233480   4.885   6.389   7.009 -0.9835 -1.7995  0.3479
 3949TIP3   OH233481   4.638   0.207   8.422 -0.1448 -0.1977 -0.3044
 3949TIP3    H133482   4.577   0.258   8.368  0.2333 -0.0614 -0.6094
 3949TIP3    H233483   4.582   0.147   8.472 -0.5075 -0.2481 -0.7654
 3950TIP3   OH233484   0.837   5.748   1.286  0.1254  0.1258 -0.4111
 3950TIP3    H133485   0.799   5.830   1.256  0.0577  0.3811  0.3529
 3950TIP3    H233486   0.929   5.753   1.258  0.4952  1.1186  0.8791
 3951TIP3   OH233487   4.895   0.516   0.574 -0.2990 -0.1300 -0.6274
 3951TIP3    H133488   4.926   0.426   0.561  2.2198  0.7962 -1.6759
 3951TIP3    H233489   4.946   0.547   0.649 -0.2452  0.7956 -1.0456
 3952TIP3   OH233490   3.043   3.491   7.060  0.0575  0.2002  0.0296
 3952TIP3    H133491   3.135   3.484   7.033  0.3858  1.1706  0.8312
 3952TIP3    H233492   2.994   3.458   6.985  1.0591 -0.3725 -0.3977
 3953TIP3   OH233493   6.824   6.373   1.595  0.1711 -0.4009  0.0620
 3953TIP3    H133494   6.765   6.310   1.637 -2.1160  2.1654  0.9665
 3953TIP3    H233495   6.860   6.423   1.667 -0.7297  1.4924 -0.7346
 3954TIP3   OH233496   5.732   3.559   1.420  0.4020  0.5126 -0.0621
 3954TIP3    H133497   5.756   3.635   1.473  0.5401  0.4282 -0.0046
 3954TIP3    H233498   5.650   3.528   1.458  0.1013  0.9072 -0.3688
 3955TIP3   OH233499   5.220   0.988   0.132 -0.0990 -0.1773 -0.1256
 3955TIP3    H133500   5.290   0.932   0.098  1.1265  1.3916 -0.2855
 3955TIP3    H233501   5.231   1.071   0.086  0.8623  1.6493  3.1045
 3956TIP3   OH233502   4.673   4.558   8.090  0.8136 -0.3971  0.3174
 3956TIP3    H133503   4.583   4.544   8.121  0.6755 -0.1311  0.0541
 3956TIP3    H233504   4.706   4.470   8.072  0.4246 -0.4747 -0.0632
 3957TIP3   OH233505   1.758   4.437   0.241  0.2083 -0.6430 -0.2793
 3957TIP3    H133506   1.838   4.404   0.199 -0.0489 -1.4333 -0.1459
 3957TIP3    H233507   1.738   4.373   0.308 -0.6016 -0.4935 -0.3755
 3958TIP3   OH233508   1.832   2.447   1.902  0.5622 -0.4047  0.2052
 3958TIP3    H133509   1.894   2.442   1.830  0.0462  0.0316 -0.2752
 3958TIP3    H233510   1.852   2.529   1.946  1.0935 -0.8246  0.7735
 3959TIP3   OH233511   0.182   3.899   8.271  0.2505  0.3260  0.2110
 3959TIP3    H133512   0.197   3.869   8.361  1.0213  0.4882  0.1473
 3959TIP3    H233513   0.126   3.832   8.232  0.1543  0.1019  0.7241
 3960TIP3   OH233514   2.482   5.018   6.568  0.2321  0.0461 -0.8072
 3960TIP3    H133515   2.485   5.112   6.553 -0.1385  0.0138 -1.0715
 3960TIP3    H233516   2.389   4.997   6.576  0.2783 -0.3888 -1.3326
 3961TIP3   OH233517   2.183   1.527   6.967  0.5175  0.4419 -0.7066
 3961TIP3    H133518   2.269   1.513   6.929 -0.2651 -4.1878 -1.4191
 3961TIP3    H233519   2.127   1.550   6.892  0.3801 -1.1781 -1.1469
 3962TIP3   OH233520   0.025   3.485   0.481  0.1756 -0.2980 -0.1537
 3962TIP3    H133521   0.060   3.484   0.391  1.8086  1.3565  0.4041
 3962TIP3    H233522   0.078   3.420   0.527  3.3839  2.7186  0.8753
 3963TIP3   OH233523   2.228   0.329   0.213  0.2150  0.0420  0.7544
 3963TIP3    H133524   2.192   0.400   0.160  1.0014 -1.9156 -2.7678
 3963TIP3    H233525   2.152   0.272   0.230  0.2795 -0.3070 -0.0694
 3964TIP3   OH233526   1.700   5.062   0.670  0.3505 -0.3601  0.3899
 3964TIP3    H133527   1.702   5.088   0.578  0.6046 -2.3128 -0.2009
 3964TIP3    H233528   1.790   5.033   0.688 -0.2523 -2.2305  0.5343
 3965TIP3   OH233529   2.306   6.585   1.818 -0.1699 -0.0907 -0.1303
 3965TIP3    H133530   2.356   6.624   1.889 -0.8351  0.4401  0.0551
 3965TIP3    H233531   2.364   6.518   1.782 -0.7135 -2.2198  2.5691
 3966TIP3   OH233532   6.319   6.700   2.131 -0.6561 -0.4298  0.2220
 3966TIP3    H133533   6.407   6.687   2.166 -0.5966 -0.0187  0.2314
 3966TIP3    H233534   6.268   6.629   2.169 -0.4829 -0.2689  0.7784
 3967TIP3   OH233535   3.272   6.785   7.848  0.6467  0.2273 -0.4207
 3967TIP3    H133536   3.186   6.756   7.878  0.6962 -0.0625 -0.5614
 3967TIP3    H233537   3.326   6.790   7.927  0.6657 -0.1540 -0.4105
 3968TIP3   OH233538   5.738   4.978   8.745 -0.0790 -0.3753 -0.0172
 3968TIP3    H133539   5.770   4.922   8.815  0.7342 -0.6446 -0.5885
 3968TIP3    H233540   5.646   4.993   8.766  0.2016 -0.2537  1.2295
 3969TIP3   OH233541   4.337   5.846   8.195 -0.0141  0.2436 -0.1936
 3969TIP3    H133542   4.338   5.750   8.189 -1.8526  0.2384 -1.5199
 3969TIP3    H233543   4.271   5.865   8.261  0.8587  0.6079  0.5844
 3970TIP3   OH233544   5.118   1.155   7.776 -0.6556  0.2773 -0.0787
 3970TIP3    H133545   5.094   1.131   7.687 -1.1179  0.4181  0.0034
 3970TIP3    H233546   5.189   1.096   7.799 -1.4174 -0.6563 -0.0717
 3971TIP3   OH233547   1.130   3.415   7.238  0.5971  0.1420  0.1902
 3971TIP3    H133548   1.209   3.404   7.186 -0.4674  0.8545 -1.7015
 3971TIP3    H233549   1.105   3.327   7.263  2.8035 -0.0099  2.2482
 3972TIP3   OH233550   5.147   2.018   6.528  0.5141 -0.2226  0.4914
 3972TIP3    H133551   5.234   2.017   6.568  0.3675 -0.8014  0.8050
 3972TIP3    H233552   5.137   2.107   6.496  1.0364 -0.0222  0.8642
 3973TIP3   OH233553   5.710   2.923   0.523 -0.3012 -0.4969  0.2998
 3973TIP3    H133554   5.768   2.991   0.491  0.2447  0.1733  2.5375
 3973TIP3    H233555   5.745   2.899   0.609 -2.2060 -1.4596  0.8836
 3974TIP3   OH233556   5.318   0.500   7.456 -0.8632 -0.0476  0.8147
 3974TIP3    H133557   5.360   0.466   7.377  1.7098  0.2044  1.9681
 3974TIP3    H233558   5.238   0.542   7.424  0.1867  0.2342 -1.6957
 3975TIP3   OH233559   0.028   3.092   1.267 -0.2880  0.5876  0.2011
 3975TIP3    H133560  -0.026   3.045   1.330  0.4139  0.5290  0.7788
 3975TIP3    H233561   0.097   3.133   1.320  0.2436  0.6477 -0.5084
 3976TIP3   OH233562   6.401   3.518   0.133 -0.3656 -0.5763 -0.0430
 3976TIP3    H133563   6.439   3.446   0.083 -0.4223 -1.1042  0.6791
 3976TIP3    H233564   6.442   3.513   0.219  1.4857  1.7085 -0.6533
 3977TIP3   OH233565   4.482   1.173   0.710 -0.4740 -0.2339  0.2817
 3977TIP3    H133566   4.471   1.083   0.741  0.1529 -0.0049  1.2089
 3977TIP3    H233567   4.420   1.181   0.638 -1.7066 -0.9166  1.2258
 3978TIP3   OH233568   2.490   5.305   7.124 -0.0408  0.2108  0.0431
 3978TIP3    H133569   2.441   5.386   7.113  0.0862  0.3520  0.4723
 3978TIP3    H233570   2.466   5.275   7.212 -0.5071 -0.5057 -0.3282
 3979TIP3   OH233571   0.381   1.774   0.206 -0.3237 -0.7561  0.1417
 3979TIP3    H133572   0.384   1.683   0.237  2.4208 -0.2903  1.5270
 3979TIP3    H233573   0.435   1.775   0.127 -1.4548 -0.5462 -0.6520
 3980TIP3   OH233574   2.147   2.102   8.727 -0.0506 -0.2298 -0.6372
 3980TIP3    H133575   2.173   2.171   8.666  1.5311 -1.1122 -1.0142
 3980TIP3    H233576   2.099   2.039   8.672 -1.0172  0.2758 -0.3987
 3981TIP3   OH233577   0.887   6.157   0.212 -0.2279  0.1160  0.6126
 3981TIP3    H133578   0.948   6.147   0.139  0.7277 -2.2618  1.6100
 3981TIP3    H233579   0.828   6.227   0.186 -0.3129 -1.0456 -2.7245
 3982TIP3   OH233580   4.606   6.070   8.725  0.7153 -0.1960 -0.1456
 3982TIP3    H133581   4.635   6.018   8.799  2.6744  0.8530 -0.1323
 3982TIP3    H233582   4.586   6.005   8.657 -0.0265 -1.0994  0.8943
 3983TIP3   OH233583   3.788   4.116   2.469  0.7625  0.1985  0.1296
 3983TIP3    H133584   3.753   4.199   2.501 -3.1272 -1.0494 -0.3437
 3983TIP3    H233585   3.812   4.068   2.548 -1.3755  0.1016  0.7807
 3984TIP3   OH233586   2.040   1.059   8.586 -0.2151 -0.3354  0.4146
 3984TIP3    H133587   2.035   0.980   8.532  0.3122  0.1674 -0.3775
 3984TIP3    H233588   2.062   1.129   8.525 -0.1446  0.3358  1.1950
 3985TIP3   OH233589   3.392   3.951   2.113  0.0263 -0.0515  0.1703
 3985TIP3    H133590   3.463   3.968   2.175  0.2893  0.6025 -0.3046
 3985TIP3    H233591   3.316   3.992   2.152 -0.4531 -1.9267  1.3725
 3986TIP3   OH233592   3.753   2.811   8.408  0.3528 -0.9290  0.1688
 3986TIP3    H133593   3.708   2.849   8.484 -0.5301 -2.0141  0.2038
 3986TIP3    H233594   3.768   2.720   8.432  0.9600 -1.0310 -0.5698
 3987TIP3   OH233595   5.292   1.372   7.306  0.1484  0.2766  0.6544
 3987TIP3    H133596   5.203   1.370   7.270  0.0793 -1.9216  0.7913
 3987TIP3    H233597   5.303   1.461   7.339 -1.9690  0.6156  0.5714
 3988TIP3   OH233598   2.211   2.592   2.242 -0.2218  0.3037  0.0514
 3988TIP3    H133599   2.292   2.637   2.220  0.1050  0.9128  2.2525
 3988TIP3    H233600   2.162   2.655   2.295 -1.2579 -0.7597  0.4148
 3989TIP3   OH233601   5.102   0.606   1.745 -0.1877 -0.1650 -0.1083
 3989TIP3    H133602   5.105   0.510   1.753 -1.3477 -0.1622  0.6620
 3989TIP3    H233603   5.046   0.634   1.817 -2.3318  0.8457 -2.0514
 3990TIP3   OH233604   1.866   1.550   7.181 -0.3148 -0.1442  0.6029
 3990TIP3    H133605   1.953   1.537   7.219 -1.0524 -2.2578  1.7146
 3990TIP3    H233606   1.826   1.464   7.182 -1.0902 -0.0462 -3.4567
 3991TIP3   OH233607   2.453   2.283   1.289  0.4705  0.3427 -0.1658
 3991TIP3    H133608   2.414   2.280   1.201  0.0043 -4.2996 -0.0325
 3991TIP3    H233609   2.479   2.193   1.307  1.4419  1.2569  4.1472
 3992TIP3   OH233610   1.290   6.570   0.352  0.0260  0.5610  0.0722
 3992TIP3    H133611   1.332   6.494   0.311  0.3100  1.8060 -2.1103
 3992TIP3    H233612   1.199   6.564   0.324  0.1003  1.1242 -0.3026
 3993TIP3   OH233613   4.481   5.686   0.116 -0.0794  0.3653  0.4661
 3993TIP3    H133614   4.483   5.623   0.043  1.1504  0.5619  0.3055
 3993TIP3    H233615   4.541   5.755   0.089 -1.0723  1.3933  0.8436
 3994TIP3   OH233616   3.350   5.101   8.505 -0.1568  0.1621  0.0570
 3994TIP3    H133617   3.437   5.085   8.542 -1.0735 -0.4225  2.1000
 3994TIP3    H233618   3.290   5.058   8.566 -1.8652  0.1910 -1.5327
 3995TIP3   OH233619   6.576   6.661   2.245  0.3600 -0.2101 -0.2154
 3995TIP3    H133620   6.612   6.580   2.281  0.2061 -0.5315 -0.7735
 3995TIP3    H233621   6.648   6.724   2.252  0.6822 -0.5556 -0.3263
 3996TIP3   OH233622   4.080   0.173   0.446 -0.8138  0.7110  0.6879
 3996TIP3    H133623   4.037   0.087   0.440  1.8242 -0.6097 -1.8898
 3996TIP3    H233624   4.091   0.200   0.355  1.1676  2.3038  1.3274
 3997TIP3   OH233625   3.986   3.237   8.177  0.2520  0.6637  0.5032
 3997TIP3    H133626   4.014   3.186   8.253  1.3630  1.6897  0.8164
 3997TIP3    H233627   3.893   3.254   8.192 -0.5069 -2.2301 -0.2114
 3998TIP3   OH233628   3.856   4.326   7.460  0.3929 -0.1580 -0.2482
 3998TIP3    H133629   3.769   4.287   7.466  0.4601 -0.2869 -0.0534
 3998TIP3    H233630   3.890   4.298   7.375  0.0267  0.3613 -0.5663
 3999TIP3   OH233631   2.104   6.454   1.269 -0.5695  0.2203 -0.5168
 3999TIP3    H133632   2.119   6.431   1.360 -0.4914 -0.6292 -0.7342
 3999TIP3    H233633   2.042   6.527   1.273  0.4284  1.0574  0.2399
 4000TIP3   OH233634   5.810   2.238   0.957  0.2665 -0.6232 -0.1518
 4000TIP3    H133635   5.897   2.245   0.918 -0.1164 -0.8555 -1.0695
 4000TIP3    H233636   5.799   2.144   0.973 -1.0977 -1.0991 -3.1532
 4001TIP3   OH233637   1.804   1.132   2.179 -0.0230 -0.9247 -0.6207
 4001TIP3    H133638   1.772   1.083   2.254  1.5054 -0.8317  0.1356
 4001TIP3    H233639   1.896   1.150   2.200 -0.2050  1.2053 -1.4214
 4002TIP3   OH233640   3.775   2.718   1.749  0.7122  0.1811 -0.2365
 4002TIP3    H133641   3.744   2.654   1.813  1.9353 -0.3036 -0.1047
 4002TIP3    H233642   3.832   2.669   1.691  0.4749  0.8496 -1.0585
 4003TIP3   OH233643   0.906   5.650   2.396 -0.2121 -0.1996 -0.4236
 4003TIP3    H133644   0.828   5.675   2.346  0.2192  0.6151 -0.7119
 4003TIP3    H233645   0.891   5.559   2.420 -0.6917 -0.4383 -1.5548
 4004TIP3   OH233646   3.046   1.066   2.273  0.3080  0.2193  0.0784
 4004TIP3    H133647   3.090   0.984   2.251 -1.2286 -1.1124  1.6019
 4004TIP3    H233648   3.016   1.100   2.189  2.0937 -0.0724 -0.7204
 4005TIP3   OH233649   6.229   2.599   8.068 -0.4005  0.1856  0.1137
 4005TIP3    H133650   6.250   2.620   7.977 -1.2642 -1.4183 -0.5078
 4005TIP3    H233651   6.135   2.582   8.067 -0.1236 -1.6156  0.9082
 4006TIP3   OH233652   1.871   5.825   2.352  0.8262 -0.0501  0.1617
 4006TIP3    H133653   1.801   5.888   2.373 -1.4710 -3.1263  2.6851
 4006TIP3    H233654   1.931   5.831   2.426  0.8386 -0.5405  0.1899
 4007TIP3   OH233655   6.234   2.573   2.038 -0.5192  0.0697 -0.1747
 4007TIP3    H133656   6.222   2.605   1.949 -0.2169  0.2864 -0.1406
 4007TIP3    H233657   6.326   2.587   2.057 -0.6705  0.4472  0.3308
 4008TIP3   OH233658   4.771   0.720   0.433  0.1715  0.4731  0.1155
 4008TIP3    H133659   4.834   0.647   0.435 -0.8282 -0.5038 -1.4502
 4008TIP3    H233660   4.754   0.739   0.525  2.4490  0.5245  0.5821
 4009TIP3   OH233661   2.654   3.724   1.371 -0.2919  0.1303 -0.4794
 4009TIP3    H133662   2.596   3.745   1.444  1.8303 -1.3186  1.7880
 4009TIP3    H233663   2.640   3.631   1.355 -0.4381  0.3468 -1.6651
 4010TIP3   OH233664   5.506   4.500   7.879 -0.3167  0.2928 -0.3311
 4010TIP3    H133665   5.528   4.558   7.807 -0.9078 -0.6809 -1.3244
 4010TIP3    H233666   5.572   4.431   7.875  0.1362  0.6504  0.5875
 4011TIP3   OH233667   4.920   3.588   0.864 -0.4091 -0.2019 -0.4921
 4011TIP3    H133668   4.895   3.631   0.946 -0.6547 -0.2591 -0.5371
 4011TIP3    H233669   4.894   3.648   0.795 -1.0793 -0.5735 -0.5719
 4012TIP3   OH233670   2.155   0.885   8.782 -0.2408  0.2411 -0.2367
 4012TIP3    H133671   2.111   0.932   8.710 -0.0139 -0.9183 -1.1605
 4012TIP3    H233672   2.145   0.793   8.759 -0.1356 -0.1447  1.2326
 4013TIP3   OH233673   6.433   1.948   8.143  0.2810 -0.0191 -0.0976
 4013TIP3    H133674   6.466   1.880   8.201  0.1937  0.5621  0.6361
 4013TIP3    H233675   6.388   1.900   8.073  1.3798 -0.7618 -0.3088
 4014TIP3   OH233676   3.682   1.572   7.738  0.1313 -0.3365 -0.2129
 4014TIP3    H133677   3.688   1.505   7.670  0.4834 -0.7591  0.2263
 4014TIP3    H233678   3.688   1.523   7.820 -2.2450 -0.0669  0.2025
 4015TIP3   OH233679   2.185   3.740   1.618 -0.5510 -0.7795  0.0080
 4015TIP3    H133680   2.273   3.770   1.596 -0.5463 -0.2152  0.7857
 4015TIP3    H233681   2.156   3.693   1.539  0.5637 -1.2603 -0.1370
 4016TIP3   OH233682   3.660   1.095   7.724 -0.0992  0.1866  0.3419
 4016TIP3    H133683   3.711   1.101   7.805 -1.2788 -2.0207  1.3408
 4016TIP3    H233684   3.717   1.049   7.662  0.8750  2.0442 -0.2100
 4017TIP3   OH233685   3.577   3.396   7.085  0.7659 -0.1645 -0.1306
 4017TIP3    H133686   3.509   3.420   7.148  0.2720 -1.8226  0.0155
 4017TIP3    H233687   3.596   3.304   7.104  1.0307 -0.5382 -2.0254
 4018TIP3   OH233688   5.883   1.562   7.667 -0.2564  0.3351  0.1632
 4018TIP3    H133689   5.878   1.647   7.623  0.4140 -0.4860 -1.6004
 4018TIP3    H233690   5.924   1.580   7.751 -0.6133  1.8255  0.0425
 4019TIP3   OH233691   1.814   6.715   7.897 -0.3546  0.8502 -0.6694
 4019TIP3    H133692   1.876   6.643   7.906  1.0328  1.8881 -1.4854
 4019TIP3    H233693   1.772   6.722   7.982 -0.1363 -0.5575 -0.4160
 4020TIP3   OH233694   2.827   2.777   0.535  0.2875  0.1386 -0.0104
 4020TIP3    H133695   2.837   2.686   0.505  1.1436  0.0998  0.3496
 4020TIP3    H233696   2.848   2.830   0.458 -0.0534  0.0318 -0.1776
 4021TIP3   OH233697   1.407   3.645   1.544  0.1116  0.4554 -0.3710
 4021TIP3    H133698   1.439   3.620   1.457 -1.7909  0.4848 -1.1273
 4021TIP3    H233699   1.318   3.609   1.548 -0.6086  2.2130  0.7299
 4022TIP3   OH233700   6.107   3.749   1.829 -0.3635 -0.5042 -0.2637
 4022TIP3    H133701   6.030   3.697   1.805 -1.3124  0.5324  0.3970
 4022TIP3    H233702   6.114   3.739   1.924 -1.9751  2.2902  0.2730
 4023TIP3   OH233703   6.358   1.405   1.452  0.5444  0.2043 -1.2627
 4023TIP3    H133704   6.294   1.392   1.383 -0.1884 -0.3376 -0.5072
 4023TIP3    H233705   6.436   1.357   1.422  0.5242  0.6619 -2.0713
 4024TIP3   OH233706   6.252   4.040   8.695  0.0094  0.1897 -0.2764
 4024TIP3    H133707   6.202   4.113   8.732  0.5544  0.5618 -0.2626
 4024TIP3    H233708   6.259   4.060   8.602  2.0464  1.3357  0.0452
 4025TIP3   OH233709   2.765   4.722   2.222  0.6407 -0.3833  0.3305
 4025TIP3    H133710   2.725   4.678   2.297 -0.1132  0.9022  0.7115
 4025TIP3    H233711   2.783   4.811   2.252 -1.8173  0.9131 -1.6233
 4026TIP3   OH233712   0.696   5.961   1.042  0.0354  0.1028 -0.3834
 4026TIP3    H133713   0.728   6.014   1.115  0.8062 -0.2117 -0.4788
 4026TIP3    H233714   0.632   6.016   0.998  0.9737  1.0470 -0.6080
 4027TIP3   OH233715   4.540   1.793   8.475  0.5728 -0.2423 -0.3933
 4027TIP3    H133716   4.561   1.803   8.382  1.1289 -2.0107 -0.5024
 4027TIP3    H233717   4.625   1.800   8.519  0.2536  1.0745  0.0585
 4028TIP3   OH233718   0.718   6.105   7.101  0.5112 -0.3159  0.0088
 4028TIP3    H133719   0.641   6.111   7.045  1.0659  1.4943 -0.6321
 4028TIP3    H233720   0.747   6.014   7.091 -1.1715 -0.8678 -0.1934
 4029TIP3   OH233721   2.703   2.579   0.013  0.2274  0.7113  0.2715
 4029TIP3    H133722   2.630   2.638  -0.010  0.9012  0.9593 -1.3944
 4029TIP3    H233723   2.676   2.494  -0.022  0.0447  0.4164  1.1001
 4030TIP3   OH233724   6.421   0.623   7.187  0.2497  0.6980 -0.0080
 4030TIP3    H133725   6.496   0.643   7.244 -0.6616  0.0786  1.4482
 4030TIP3    H233726   6.458   0.569   7.117  1.1078  0.1064  0.8773
 4031TIP3   OH233727   4.188   2.421   8.481 -0.4173  0.0008 -0.2630
 4031TIP3    H133728   4.280   2.441   8.495 -0.9645  2.4168  0.4394
 4031TIP3    H233729   4.155   2.495   8.430 -2.1114 -0.4384  0.1326
 4032TIP3   OH233730   3.634   2.376   1.579 -0.0373  0.3883 -0.1766
 4032TIP3    H133731   3.623   2.380   1.674 -1.3549 -0.3200 -0.2725
 4032TIP3    H233732   3.726   2.350   1.566 -0.0771 -0.3661  0.9326
 4033TIP3   OH233733   5.183   2.338   1.169  0.8055  0.0478 -0.3615
 4033TIP3    H133734   5.113   2.398   1.194  1.2047 -0.0077  0.9716
 4033TIP3    H233735   5.254   2.394   1.140  0.6277  0.1568 -0.5814
 4034TIP3   OH233736   2.262   6.712   8.788  0.1467 -0.6634  0.1685
 4034TIP3    H133737   2.328   6.661   8.834  1.9233 -0.0123 -1.4801
 4034TIP3    H233738   2.235   6.779   8.851  0.0730 -1.7422  1.3128
 4035TIP3   OH233739   4.221   6.172   1.519  0.2204 -0.4452  0.7389
 4035TIP3    H133740   4.262   6.250   1.557 -0.5829  1.1243 -1.4070
 4035TIP3    H233741   4.138   6.163   1.565 -0.1435  0.6239  0.3272
 4036TIP3   OH233742   4.957   4.329   8.411  0.1043  0.1460  0.2017
 4036TIP3    H133743   5.004   4.377   8.479 -0.0359  1.5098 -0.6212
 4036TIP3    H233744   4.865   4.336   8.436  0.1401 -0.3599  0.4833
 4037TIP3   OH233745   3.780   6.180   0.013 -0.0577 -0.4777  0.0867
 4037TIP3    H133746   3.746   6.121  -0.054 -0.6029  0.5557 -0.5694
 4037TIP3    H233747   3.718   6.172   0.085  0.1915 -1.1278  0.2406
 4038TIP3   OH233748   0.910   5.982   7.407 -0.4253 -0.4202  0.2659
 4038TIP3    H133749   0.839   6.040   7.435 -0.8607  0.1786 -1.8928
 4038TIP3    H233750   0.979   6.041   7.379  1.2152 -0.9878  2.7800
 4039TIP3   OH233751   4.320   2.182   7.423 -0.0414  0.2461 -0.7081
 4039TIP3    H133752   4.249   2.142   7.372  0.8618  0.0156 -1.8455
 4039TIP3    H233753   4.368   2.235   7.359  0.4148  0.9447  0.1891
 4040TIP3   OH233754   5.344   6.639   0.274 -0.2823 -0.1776 -0.3949
 4040TIP3    H133755   5.349   6.543   0.273 -0.0817 -0.1799  0.2455
 4040TIP3    H233756   5.365   6.665   0.185 -1.5668 -0.7830 -0.8935
 4041TIP3   OH233757   0.929   0.863   1.790 -0.1864 -0.5674 -0.0871
 4041TIP3    H133758   0.840   0.898   1.785  0.0963  0.0187 -1.2771
 4041TIP3    H233759   0.964   0.899   1.872 -0.0829  1.6195 -1.0267
 4042TIP3   OH233760   2.567   1.874   2.196 -0.0924  0.1267  0.2513
 4042TIP3    H133761   2.534   1.928   2.125 -2.6007  0.0317  1.2503
 4042TIP3    H233762   2.542   1.920   2.276 -0.7076 -1.5851  1.1029
 4043TIP3   OH233763   0.066   1.334   7.908 -0.8120  0.0376 -0.1994
 4043TIP3    H133764   0.038   1.243   7.917 -1.6397  0.3207  0.1816
 4043TIP3    H233765   0.145   1.340   7.963 -1.2289 -0.2463  0.4472
 4044TIP3   OH233766   6.808   3.897   1.730  0.1372 -0.0551  0.1108
 4044TIP3    H133767   6.900   3.926   1.729  0.0827  0.1108 -0.5983
 4044TIP3    H233768   6.811   3.810   1.770  0.4570  0.4219  1.1550
 4045TIP3   OH233769   6.264   4.168   0.613 -0.0527  0.2741 -0.1153
 4045TIP3    H133770   6.237   4.078   0.630  1.7023 -0.3386 -0.3761
 4045TIP3    H233771   6.336   4.183   0.674  2.3353  0.1003 -2.6942
 4046TIP3   OH233772   2.781   3.733   8.200  0.6016  0.2636  0.2159
 4046TIP3    H133773   2.699   3.783   8.206 -0.1380 -0.7143 -1.1337
 4046TIP3    H233774   2.774   3.667   8.270  0.6012  0.6818  0.6121
 4047TIP3   OH233775   5.176   5.471   7.861 -0.1198  0.5461  0.0478
 4047TIP3    H133776   5.206   5.535   7.924  0.8894  1.1213 -0.9738
 4047TIP3    H233777   5.254   5.449   7.810 -0.0413 -2.6790  1.3225
 4048TIP3   OH233778   5.145   0.866   7.367  0.1903 -0.0459  0.8971
 4048TIP3    H133779   5.116   0.777   7.385  0.2038 -0.1433  0.4560
 4048TIP3    H233780   5.152   0.870   7.272  2.1648 -0.1937  1.0007
 4049TIP3   OH233781   3.168   6.466   0.699 -0.9365 -0.2560  0.4342
 4049TIP3    H133782   3.242   6.432   0.649 -0.5323  1.1878 -0.0094
 4049TIP3    H233783   3.091   6.421   0.664 -0.4605 -0.4770 -0.3287
 4050TIP3   OH233784   2.661   4.692   8.062 -0.6034 -0.2029  0.2947
 4050TIP3    H133785   2.728   4.624   8.057 -1.3645 -0.8981 -0.8021
 4050TIP3    H233786   2.617   4.677   8.145 -0.6029 -0.8970  0.1706
 4051TIP3   OH233787   1.817   1.437   1.151 -0.2274  0.1061 -0.2527
 4051TIP3    H133788   1.787   1.467   1.065 -0.4770 -0.0856 -0.2325
 4051TIP3    H233789   1.752   1.471   1.212 -2.0264 -2.6475 -0.4706
 4052TIP3   OH233790   3.858   5.734   8.674 -0.0577  0.3092  0.4210
 4052TIP3    H133791   3.902   5.818   8.666 -0.3806  0.5483  1.0662
 4052TIP3    H233792   3.911   5.686   8.738  0.8238 -0.4507 -0.8433
 4053TIP3   OH233793   5.804   0.427   8.626  0.1013  0.3937  0.1105
 4053TIP3    H133794   5.836   0.389   8.708 -1.4521  0.4984  0.7927
 4053TIP3    H233795   5.847   0.376   8.558  1.0376 -0.0224  0.9901
 4054TIP3   OH233796   2.094   2.590   1.794 -0.3965 -0.1340 -0.4384
 4054TIP3    H133797   2.022   2.653   1.790  1.3750  1.9407 -2.4612
 4054TIP3    H233798   2.171   2.639   1.764  2.1985 -1.8885  2.7354
 4055TIP3   OH233799   1.035   1.648   0.927 -0.4676  0.3931  0.3634
 4055TIP3    H133800   1.048   1.586   0.854 -1.0525  0.5285  0.1406
 4055TIP3    H233801   1.048   1.734   0.887  0.9599  0.4139  0.8023
 4056TIP3   OH233802   3.852   4.162   7.888  0.2820 -1.0039 -0.2649
 4056TIP3    H133803   3.767   4.188   7.924  0.3450  0.8009 -1.3192
 4056TIP3    H233804   3.898   4.122   7.962 -1.8349 -3.0424  0.0901
 4057TIP3   OH233805   2.308   2.604   8.549  0.4016 -0.5498  0.7815
 4057TIP3    H133806   2.257   2.671   8.595  0.1561 -0.5588  0.5228
 4057TIP3    H233807   2.386   2.650   8.520 -0.0202 -0.2291  0.1217
 4058TIP3   OH233808   3.467   6.077   1.254 -0.4404  1.0868 -0.3659
 4058TIP3    H133809   3.557   6.104   1.273  0.7129 -1.7384 -1.3209
 4058TIP3    H233810   3.467   6.057   1.161 -1.0942 -2.0015  0.1926
 4059TIP3   OH233811   4.200   6.373   7.591 -0.4465  0.3165  0.5594
 4059TIP3    H133812   4.262   6.427   7.542 -2.0069  1.3802 -0.3629
 4059TIP3    H233813   4.210   6.401   7.682  2.2574 -1.4407  0.8925
 4060TIP3   OH233814   2.315   6.518   7.340 -0.2660 -0.1988  0.3826
 4060TIP3    H133815   2.223   6.534   7.360 -0.3438  0.8633 -0.7305
 4060TIP3    H233816   2.336   6.582   7.272  0.8819 -1.4346 -0.4651
 4061TIP3   OH233817   2.652   2.131   2.526  0.5486  0.1455  0.0297
 4061TIP3    H133818   2.568   2.105   2.565 -0.2312 -3.0195 -3.1488
 4061TIP3    H233819   2.633   2.211   2.478 -1.3339 -1.3776 -2.0228
 4062TIP3   OH233820   4.561   4.867   0.608  0.4707 -0.0899  0.2110
 4062TIP3    H133821   4.596   4.778   0.609 -0.1802 -0.4189 -1.6598
 4062TIP3    H233822   4.483   4.863   0.663  0.4612 -0.6661  0.1631
 4063TIP3   OH233823   2.560   3.297   6.882  0.3184 -0.0344  0.3152
 4063TIP3    H133824   2.520   3.300   6.969 -1.7748  0.3167 -0.5958
 4063TIP3    H233825   2.549   3.386   6.847  0.4318 -0.3653 -0.6046
 4064TIP3   OH233826   1.768   6.052   7.436  0.1237  0.1980 -0.0175
 4064TIP3    H133827   1.790   6.067   7.344  0.5329 -0.1740  0.0128
 4064TIP3    H233828   1.693   5.993   7.434  0.1396  0.1808 -0.1143
 4065TIP3   OH233829   1.922   3.364   7.420  0.1471  0.2003 -0.1079
 4065TIP3    H133830   1.944   3.428   7.352  2.2186 -0.2775  0.0440
 4065TIP3    H233831   1.917   3.415   7.500  0.4372  0.3770 -0.2000
 4066TIP3   OH233832   2.093   4.421   0.656 -0.1212 -0.3598 -0.4644
 4066TIP3    H133833   2.167   4.449   0.710 -0.8348 -0.9389  0.8675
 4066TIP3    H233834   2.129   4.352   0.601  0.6457  0.2954 -0.7974
 4067TIP3   OH233835   0.978   3.378   1.818 -0.0150  0.3308  0.4129
 4067TIP3    H133836   0.896   3.424   1.803 -0.8010 -1.2684 -0.4361
 4067TIP3    H233837   1.034   3.442   1.862 -1.6629  1.4910  0.9081
 4068TIP3   OH233838   0.159   1.517   7.714 -0.6058  0.2159 -0.0154
 4068TIP3    H133839   0.095   1.585   7.696  0.8233  1.9922  1.2026
 4068TIP3    H233840   0.129   1.477   7.796  0.2201  1.6766  1.0668
 4069TIP3   OH233841   0.600   0.703   8.204 -0.3036 -0.1460 -0.2221
 4069TIP3    H133842   0.588   0.669   8.293  0.1373  1.7375  0.6274
 4069TIP3    H233843   0.693   0.727   8.200 -0.2980 -0.2953 -1.2318
 4070TIP3   OH233844   1.167   5.382   0.258  0.2258  0.2410  0.1096
 4070TIP3    H133845   1.236   5.366   0.323 -0.7884 -1.0244  0.9213
 4070TIP3    H233846   1.187   5.320   0.187  0.5327  0.6443 -0.1626
 4071TIP3   OH233847   4.361   1.655   2.469 -0.4162 -0.1893  0.0692
 4071TIP3    H133848   4.315   1.717   2.526  0.6654  1.0620 -0.3681
 4071TIP3    H233849   4.447   1.643   2.510 -0.5602 -1.3069  0.0676
 4072TIP3   OH233850   3.877   4.715   2.885  0.0594  0.0931 -0.6951
 4072TIP3    H133851   3.896   4.653   2.956  2.8155  0.7603 -0.7389
 4072TIP3    H233852   3.895   4.666   2.805  0.2530  0.3429 -0.8051
 4073TIP3   OH233853   0.088   5.467   7.942  0.3853 -0.2400 -0.0183
 4073TIP3    H133854   0.049   5.457   7.856  0.5307  1.6652 -0.3480
 4073TIP3    H233855   0.046   5.400   7.996 -1.0398 -0.2637 -1.1122
 4074TIP3   OH233856   2.352   5.264   0.543 -0.0782 -0.1419 -0.1201
 4074TIP3    H133857   2.434   5.221   0.568  0.1989  0.8566  0.7723
 4074TIP3    H233858   2.361   5.281   0.449  0.5619 -0.4150 -0.1127
 4075TIP3   OH233859   2.782   0.264   8.700  0.1558 -0.0477  0.6503
 4075TIP3    H133860   2.748   0.328   8.762 -0.5914  1.2817 -1.0507
 4075TIP3    H233861   2.877   0.279   8.700  0.2656 -0.6611  2.0795
 4076TIP3   OH233862   3.890   0.275   2.215 -0.5788 -0.4083 -0.0640
 4076TIP3    H133863   3.880   0.314   2.302  1.3767 -3.4035  1.6712
 4076TIP3    H233864   3.976   0.305   2.186 -0.4077 -0.9151 -0.0929
 4077TIP3   OH233865   6.441   6.511   1.138 -0.0128 -0.8083  0.6273
 4077TIP3    H133866   6.384   6.526   1.213 -1.8613  0.2018 -0.8993
 4077TIP3    H233867   6.482   6.596   1.121 -1.7067 -0.2783 -1.0999
 4078TIP3   OH233868   4.165   6.744   7.556 -0.1460  0.0870 -0.0132
 4078TIP3    H133869   4.072   6.757   7.575 -0.2821 -1.3122  0.4099
 4078TIP3    H233870   4.167   6.723   7.462 -0.4078 -0.9767  0.2021
 4079TIP3   OH233871   1.507   1.682   2.335 -0.5902 -0.5611 -0.4207
 4079TIP3    H133872   1.509   1.589   2.354 -0.4912 -0.4349  0.1977
 4079TIP3    H233873   1.486   1.724   2.419  1.2079  0.0946 -0.2488
 4080TIP3   OH233874   5.653   1.276   8.531 -0.2307  0.1050 -0.0659
 4080TIP3    H133875   5.712   1.351   8.543 -0.9876  0.5685  1.0204
 4080TIP3    H233876   5.666   1.248   8.441  1.9140 -0.0447  0.2489
 4081TIP3   OH233877   0.358   3.649   8.805 -0.6904 -0.3131 -0.1207
 4081TIP3    H133878   0.395   3.616   8.887  0.1130  0.7854 -0.0136
 4081TIP3    H233879   0.367   3.577   8.743 -2.2660 -1.5418  0.9916
 4082TIP3   OH233880   1.364   5.297   8.669 -0.9040 -0.1096  0.4794
 4082TIP3    H133881   1.400   5.227   8.724 -0.2256  0.8399  1.2854
 4082TIP3    H233882   1.305   5.252   8.609  0.4790 -1.5557  0.1116
 4083TIP3   OH233883   6.825   4.447   8.285  0.3492  0.1913 -0.1093
 4083TIP3    H133884   6.829   4.390   8.363 -0.5935  1.5546  0.9787
 4083TIP3    H233885   6.913   4.486   8.280  0.9277 -1.1184 -0.7222
 4084TIP3   OH233886   6.470   4.218   7.003  0.6924 -0.6265  0.2616
 4084TIP3    H133887   6.419   4.172   7.070  0.6964  0.4090  0.9974
 4084TIP3    H233888   6.411   4.225   6.928 -0.4027  0.7974  1.1939
 4085TIP3   OH233889   1.929   0.388   8.162  0.3378 -0.3688 -0.4050
 4085TIP3    H133890   1.834   0.384   8.149  0.2341  1.5802 -0.6357
 4085TIP3    H233891   1.963   0.311   8.118 -1.1838 -1.4674  0.2634
 4086TIP3   OH233892   3.420   1.172   0.066  0.9931  0.1603  0.0696
 4086TIP3    H133893   3.476   1.241   0.031  2.1655  0.2024  1.9055
 4086TIP3    H233894   3.479   1.114   0.114 -0.3953 -0.2439  1.4054
 4087TIP3   OH233895   2.644   4.816   7.413 -0.1517 -0.6711 -0.5298
 4087TIP3    H133896   2.643   4.857   7.327 -0.7894  1.6346  0.5166
 4087TIP3    H233897   2.736   4.810   7.436 -0.0143 -0.6230 -1.0600
 4088TIP3   OH233898   3.144   3.080   0.032 -0.1391 -0.3264  0.0929
 4088TIP3    H133899   3.054   3.073   0.062 -0.6190  2.6350 -0.3081
 4088TIP3    H233900   3.196   3.090   0.112 -0.8211  2.5776  0.2957
 4089TIP3   OH233901   5.064   3.144   1.685 -0.5890  0.7168  0.1197
 4089TIP3    H133902   5.059   3.189   1.600 -0.4024  1.2555  0.3907
 4089TIP3    H233903   5.146   3.175   1.723  0.8230 -1.7057 -0.7232
 4090TIP3   OH233904   5.087   3.820   7.123 -0.1135 -0.1781 -0.0824
 4090TIP3    H133905   5.022   3.791   7.186  0.2448  0.2450  0.4974
 4090TIP3    H233906   5.166   3.835   7.175 -0.2286  1.6418 -0.3598
 4091TIP3   OH233907   5.379   3.122   7.711  0.4932 -0.1569 -0.0573
 4091TIP3    H133908   5.333   3.045   7.677  0.2669  0.1870 -0.5486
 4091TIP3    H233909   5.424   3.159   7.635  1.2278 -0.2407  0.3341
 4092TIP3   OH233910   2.736   2.760   7.112  0.7628  0.4785 -0.1016
 4092TIP3    H133911   2.727   2.698   7.184  0.9297  0.1686 -0.3431
 4092TIP3    H233912   2.659   2.744   7.056  1.9371 -1.1042 -1.3574
 4093TIP3   OH233913   2.739   5.845   2.674 -0.3314 -0.1395  0.1478
 4093TIP3    H133914   2.834   5.853   2.679 -0.2419 -1.0925  0.0829
 4093TIP3    H233915   2.724   5.774   2.611 -1.0682 -0.3682  0.5709
 4094TIP3   OH233916   3.926   3.641   7.696 -0.1151  0.4812  0.5994
 4094TIP3    H133917   3.901   3.714   7.753 -2.1561  1.1651 -1.0694
 4094TIP3    H233918   3.928   3.679   7.608 -0.2413 -1.2759 -0.1977
 4095TIP3   OH233919   0.944   5.421   1.719  0.5152  0.0408  0.4899
 4095TIP3    H133920   0.897   5.475   1.656  1.1933 -0.1606 -0.1911
 4095TIP3    H233921   0.899   5.438   1.803  0.4516  1.3039  0.2134
 4096TIP3   OH233922   1.582   0.280   1.083 -0.2621 -0.1978 -0.4481
 4096TIP3    H133923   1.580   0.280   1.179 -0.8166  1.0244 -0.4397
 4096TIP3    H233924   1.606   0.370   1.060  1.3198 -0.8203 -1.4508
 4097TIP3   OH233925   5.535   2.952   8.267 -0.1963  0.6096 -0.0273
 4097TIP3    H133926   5.485   2.967   8.187  0.8298 -0.7933 -0.9699
 4097TIP3    H233927   5.594   3.027   8.273 -0.4883  0.8757 -0.4103
 4098TIP3   OH233928   2.495   2.537   0.922  0.2796 -0.0959 -0.3809
 4098TIP3    H133929   2.473   2.587   1.001  0.9445 -0.5858  0.1221
 4098TIP3    H233930   2.416   2.484   0.906 -1.1431  2.3130 -1.9353
 4099TIP3   OH233931   2.864   5.655   7.046 -0.1940 -0.0390 -0.0524
 4099TIP3    H133932   2.845   5.672   7.138  0.0447  0.4306 -0.0850
 4099TIP3    H233933   2.944   5.706   7.028 -0.4098  0.1219 -0.5940
 4100TIP3   OH233934   5.894   0.257   0.547 -0.5019  0.0934  0.0900
 4100TIP3    H133935   5.808   0.216   0.552 -1.1214  0.7292 -3.0826
 4100TIP3    H233936   5.897   0.296   0.459  3.2740 -0.5084 -0.2247
 4101TIP3   OH233937   3.713   4.955   1.850 -0.2263  0.0660  0.5093
 4101TIP3    H133938   3.718   4.963   1.755  0.7007 -0.9621  0.4475
 4101TIP3    H233939   3.698   5.044   1.881 -2.1104  0.2273 -0.6745
 4102TIP3   OH233940   2.120   2.690   8.307 -0.5476 -0.8641  0.4475
 4102TIP3    H133941   2.114   2.626   8.378 -1.9425 -1.9350 -0.5709
 4102TIP3    H233942   2.139   2.773   8.351  0.1095 -1.7394  1.9167
 4103TIP3   OH233943   2.494   5.409   6.766 -0.4220 -0.3492 -0.0357
 4103TIP3    H133944   2.563   5.412   6.833  0.2242  1.5785 -0.7073
 4103TIP3    H233945   2.512   5.327   6.718  0.0477 -0.9748  1.1494
 4104TIP3   OH233946   0.209   5.992   7.511 -0.2039 -0.2904 -0.4358
 4104TIP3    H133947   0.254   5.923   7.462  1.0247  0.9528 -1.1392
 4104TIP3    H233948   0.279   6.047   7.545 -1.1621  1.2302 -0.8198
 4105TIP3   OH233949   3.612   3.810   8.739 -0.0043  0.4106 -0.0156
 4105TIP3    H133950   3.544   3.743   8.728 -1.7329  1.9529  0.7438
 4105TIP3    H233951   3.614   3.856   8.655  0.6501 -0.1003 -0.2855
 4106TIP3   OH233952   4.316   5.685   7.306  0.3091 -0.0932 -0.6886
 4106TIP3    H133953   4.306   5.772   7.268  0.8111  0.5050  0.4952
 4106TIP3    H233954   4.388   5.645   7.256  1.0042  0.6971 -0.3406
 4107TIP3   OH233955   6.320   0.060   8.132  0.0257 -0.3343 -0.3180
 4107TIP3    H133956   6.347   0.076   8.042 -0.1196  0.2881 -0.2568
 4107TIP3    H233957   6.335  -0.033   8.146 -2.0961 -0.9705 -1.7166
 4108TIP3   OH233958   4.373   4.176   7.126  0.2072  0.8869 -0.1797
 4108TIP3    H133959   4.427   4.162   7.048  0.6585  0.4324  0.2136
 4108TIP3    H233960   4.284   4.155   7.097  0.7126 -2.0918  0.1377
 4109TIP3   OH233961   6.537   1.883   1.776 -0.1555 -0.2919  0.4660
 4109TIP3    H133962   6.482   1.806   1.793 -0.5914 -0.2390 -0.6348
 4109TIP3    H233963   6.478   1.957   1.789  0.2537 -0.1356  1.4853
 4110TIP3   OH233964   0.785   4.383   0.192 -0.0107  0.9106  0.4549
 4110TIP3    H133965   0.749   4.434   0.120 -1.0318  0.2290  0.4535
 4110TIP3    H233966   0.718   4.317   0.210  1.7390 -1.2229 -0.3685
 4111TIP3   OH233967   2.160   4.105   0.226  0.9079 -0.4747  0.2906
 4111TIP3    H133968   2.168   4.017   0.190 -1.0637 -0.5675  0.0100
 4111TIP3    H233969   2.111   4.094   0.307  1.1255  0.3029  0.5390
 4112TIP3   OH233970   3.835   4.280   1.876  0.6873 -0.8689 -0.1035
 4112TIP3    H133971   3.778   4.245   1.945  1.0505  0.0462  0.6755
 4112TIP3    H233972   3.775   4.310   1.808  0.1712  0.5473  0.9250
 4113TIP3   OH233973   1.902   3.742   1.729 -0.1485  0.4916  0.0291
 4113TIP3    H133974   1.911   3.704   1.641 -0.7132  0.9191 -0.2167
 4113TIP3    H233975   1.815   3.782   1.729 -0.5402 -0.3246  1.0975
 4114TIP3   OH233976   3.349   3.811   7.919  0.4015 -0.4705 -0.4707
 4114TIP3    H133977   3.320   3.885   7.865 -1.6075 -0.0854  1.0072
 4114TIP3    H233978   3.385   3.852   7.998  1.4171 -1.0591 -0.6090
 4115TIP3   OH233979   3.635   6.381   2.142 -0.3440 -0.0799  0.4293
 4115TIP3    H133980   3.617   6.291   2.173 -0.6916  0.4136  1.7572
 4115TIP3    H233981   3.729   6.383   2.127 -0.5126 -1.0315 -0.8716
 4116TIP3   OH233982   0.348   3.319   0.668 -0.2307 -0.3704  0.5198
 4116TIP3    H133983   0.258   3.298   0.643 -0.3251  1.3449 -0.7879
 4116TIP3    H233984   0.339   3.369   0.749 -0.5656  0.6253 -0.1108
 4117TIP3   OH233985   0.499   5.676   8.572  0.0099  0.3168 -0.1146
 4117TIP3    H133986   0.420   5.627   8.594 -1.5168  2.2266 -0.9406
 4117TIP3    H233987   0.530   5.711   8.655  2.4107 -3.5485  0.8777
 4118TIP3   OH233988   3.282   0.748   0.091  0.1241 -0.4527  0.7687
 4118TIP3    H133989   3.358   0.708   0.133 -1.1927 -3.4428  0.5220
 4118TIP3    H233990   3.227   0.778   0.164  0.5495 -0.1811  0.9838
 4119TIP3   OH233991   5.676   1.668   8.381  0.5440 -0.7311  0.1338
 4119TIP3    H133992   5.762   1.682   8.420  0.1506  1.4233  0.3639
 4119TIP3    H233993   5.693   1.610   8.307  2.6343  1.3498 -1.1827
 4120TIP3   OH233994   0.463   2.150   2.232  0.8418 -0.2855  0.1186
 4120TIP3    H133995   0.440   2.083   2.296  2.1205  0.0622  0.9884
 4120TIP3    H233996   0.439   2.233   2.273 -1.6204 -0.1834 -1.3369
 4121TIP3   OH233997   1.054   5.138   0.831 -0.1320  0.1627  0.2413
 4121TIP3    H133998   1.069   5.053   0.874  2.1277  1.2363  1.7920
 4121TIP3    H233999   0.970   5.167   0.865 -0.7818 -1.2746 -0.0483
 4122TIP3   OH234000   3.134   4.001   6.841  0.1190 -0.0054  0.1954
 4122TIP3    H134001   3.181   4.070   6.888 -0.3216 -0.0709  0.7534
 4122TIP3    H234002   3.177   3.920   6.867  1.6178  0.1354 -1.6349
 4123TIP3   OH234003   4.538   2.026   7.233  0.5176 -0.4298  0.1434
 4123TIP3    H134004   4.501   2.078   7.161  0.5568 -0.7529 -0.1097
 4123TIP3    H234005   4.462   1.987   7.276  0.4740 -0.0090  0.4546
 4124TIP3   OH234006   1.316   0.098   1.601 -0.2953 -0.2342  0.6003
 4124TIP3    H134007   1.353   0.040   1.668  0.3138 -0.6011 -0.0438
 4124TIP3    H234008   1.250   0.044   1.557  0.6531 -0.6436 -0.3635
 4125TIP3   OH234009   0.721   4.601   7.484  0.0761  0.0766  0.1354
 4125TIP3    H134010   0.784   4.662   7.522  1.3854  0.0747 -1.8841
 4125TIP3    H234011   0.757   4.514   7.503  1.1460  0.0827 -1.6058
 4126TIP3   OH234012   1.623   4.486   0.908  0.2365  0.1787  0.0800
 4126TIP3    H134013   1.672   4.422   0.856  0.2444  0.4364 -0.2347
 4126TIP3    H234014   1.663   4.482   0.995 -0.8584 -1.4652  0.5534
 4127TIP3   OH234015   0.186   4.776   1.478  0.5825  0.1003 -0.6720
 4127TIP3    H134016   0.168   4.848   1.538  2.3935 -0.6664  0.9160
 4127TIP3    H234017   0.267   4.801   1.435  0.1765 -0.1241 -1.5790
 4128TIP3   OH234018   5.498   4.308   7.105  0.3935 -0.2808 -0.2172
 4128TIP3    H134019   5.451   4.316   7.022 -0.5754  0.5458  0.3919
 4128TIP3    H234020   5.448   4.361   7.167  0.8385 -1.2498  1.0188
 4129TIP3   OH234021   0.006   5.110   6.912 -0.0142  0.0297  0.0401
 4129TIP3    H134022   0.099   5.100   6.895  0.2030  4.0245 -2.6881
 4129TIP3    H234023  -0.032   5.024   6.894  2.9026 -1.1753 -0.8874
 4130TIP3   OH234024   3.206   1.654   2.590  0.2169  0.0517 -0.0889
 4130TIP3    H134025   3.154   1.727   2.624 -1.3548 -0.9046 -0.3267
 4130TIP3    H234026   3.189   1.653   2.496 -0.5892 -1.1981  0.0468
 4131TIP3   OH234027   5.564   6.459   7.912 -0.2036  0.1916 -0.2160
 4131TIP3    H134028   5.569   6.489   7.822  2.5146 -1.1534 -0.6099
 4131TIP3    H234029   5.590   6.534   7.965  2.2178 -0.0698 -0.8995
 4132TIP3   OH234030   2.289   5.936   2.294 -0.0394 -0.0346 -0.1394
 4132TIP3    H134031   2.308   5.924   2.387  1.7471  2.1761 -0.1363
 4132TIP3    H234032   2.204   5.980   2.293  0.1413  0.3601  0.5070
 4133TIP3   OH234033   1.622   0.896   0.873 -0.3535  0.5219 -0.0388
 4133TIP3    H134034   1.532   0.914   0.846 -0.2086  0.5093 -0.5449
 4133TIP3    H234035   1.673   0.903   0.792 -0.1200 -1.0594 -0.0644
 4134TIP3   OH234036   0.437   6.849   1.126 -0.1906  0.5093 -0.6727
 4134TIP3    H134037   0.393   6.930   1.098 -0.6562  0.3859 -0.3137
 4134TIP3    H234038   0.473   6.870   1.212  1.8431  1.1119 -1.6064
 4135TIP3   OH234039   4.277   5.742   0.274  0.6493 -0.1215  0.5208
 4135TIP3    H134040   4.348   5.728   0.212  0.9928 -0.0605  0.8959
 4135TIP3    H234041   4.224   5.662   0.269  0.0840  0.2930 -0.5981
 4136TIP3   OH234042   0.458   3.281   7.525 -0.2080  0.0477  0.4084
 4136TIP3    H134043   0.489   3.274   7.435 -0.6502  0.5520  0.2146
 4136TIP3    H234044   0.457   3.190   7.556  3.7089  0.0962  1.2297
 4137TIP3   OH234045   3.909   0.848   7.246  0.0597 -0.3830 -0.2970
 4137TIP3    H134046   4.000   0.818   7.246  0.3890  0.5718 -0.9710
 4137TIP3    H234047   3.881   0.844   7.155  0.0350  1.0424 -0.3874
 4138TIP3   OH234048   1.100   1.089   2.486  0.5236  0.4934 -0.2129
 4138TIP3    H134049   1.114   1.184   2.487 -1.0179  0.7963 -2.2007
 4138TIP3    H234050   1.097   1.066   2.393  3.0810 -1.9251  0.1527
 4139TIP3   OH234051   0.647   2.774   0.078  0.3735  0.4746 -0.1290
 4139TIP3    H134052   0.719   2.714   0.095 -0.5930 -1.0407 -1.1124
 4139TIP3    H234053   0.666   2.851   0.131  2.0236 -0.4218  0.6307
 4140TIP3   OH234054   3.391   0.164   8.453 -0.0097 -0.6747  0.3360
 4140TIP3    H134055   3.403   0.183   8.360 -0.3442 -0.1224  0.4002
 4140TIP3    H234056   3.392   0.250   8.496 -1.9642 -0.7282  0.5830
 4141TIP3   OH234057   0.630   4.992   7.665 -0.4444  0.3803  0.3283
 4141TIP3    H134058   0.703   5.029   7.616 -0.1478 -1.4891 -0.7353
 4141TIP3    H234059   0.555   4.999   7.606 -0.3004 -0.9929 -0.0501
 4142TIP3   OH234060   5.155   3.050   0.438  0.2306  0.3066  0.3159
 4142TIP3    H134061   5.225   3.024   0.498  0.1033 -0.7517  0.0261
 4142TIP3    H234062   5.162   3.145   0.432  1.4140  0.2466  0.5772
 4143TIP3   OH234063   0.699   1.056   8.737 -0.1639  0.3716  0.1750
 4143TIP3    H134064   0.761   0.986   8.756 -1.5247 -0.6569  1.0212
 4143TIP3    H234065   0.747   1.137   8.754  1.6958 -0.2799 -1.6036
 4144TIP3   OH234066   3.905   1.383   6.600 -0.3709 -0.2431 -0.3622
 4144TIP3    H134067   3.872   1.294   6.610 -0.8026 -0.2068 -1.4443
 4144TIP3    H234068   3.884   1.407   6.510 -2.1912  1.7315  0.5143
 4145TIP3   OH234069   2.488   0.040   1.734 -0.1462  0.5468  0.0848
 4145TIP3    H134070   2.474  -0.025   1.803 -2.4349  0.2414 -0.6000
 4145TIP3    H234071   2.575   0.075   1.753  0.3095 -1.2387  1.6830
 4146TIP3   OH234072   1.662   1.857   8.709  0.2026 -0.1947  0.2670
 4146TIP3    H134073   1.649   1.952   8.717  1.2163 -0.0689  0.5182
 4146TIP3    H234074   1.614   1.821   8.784  1.5384  0.2850  1.3875
 4147TIP3   OH234075   5.410   2.955   1.027 -0.3397 -0.4369 -0.0613
 4147TIP3    H134076   5.459   2.990   0.953 -1.4990  0.9187 -0.2339
 4147TIP3    H234077   5.336   2.908   0.988 -1.5366  1.1474  0.1728
 4148TIP3   OH234078   3.113   3.916   7.177 -0.1444  0.5469 -0.1638
 4148TIP3    H134079   3.113   3.938   7.270  0.5245 -0.8802  0.1920
 4148TIP3    H234080   3.029   3.948   7.145 -0.0826  1.7138  0.7545
 4149TIP3   OH234081   3.374   6.125   1.613 -0.3085 -0.0980 -0.0122
 4149TIP3    H134082   3.370   6.148   1.706  0.2732 -0.5246  0.1220
 4149TIP3    H234083   3.450   6.173   1.580  0.2535 -0.9396  0.0259
 4150TIP3   OH234084   1.486   2.979   6.794 -0.4988  0.5210  0.4969
 4150TIP3    H134085   1.531   3.053   6.755 -1.5849  1.6201  1.2648
 4150TIP3    H234086   1.416   2.957   6.732 -0.6808  0.6692  0.6476
 4151TIP3   OH234087   4.379   0.820   1.630 -0.2905 -0.3045 -0.3473
 4151TIP3    H134088   4.359   0.914   1.634 -0.2847 -0.2564 -1.2506
 4151TIP3    H234089   4.303   0.778   1.670 -1.1771  0.0004 -1.6535
 4152TIP3   OH234090   2.631   1.389   1.062 -0.0877 -0.4987  0.0752
 4152TIP3    H134091   2.723   1.413   1.048 -0.0158 -0.8724 -0.1055
 4152TIP3    H234092   2.623   1.301   1.025 -0.5040 -0.4949  0.1481
 4153TIP3   OH234093   4.668   1.918   7.930  0.0465  0.2117 -0.2312
 4153TIP3    H134094   4.695   1.827   7.917  1.8190  0.9475 -2.4911
 4153TIP3    H234095   4.573   1.913   7.942  0.1458 -1.9435  0.1122
 4154TIP3   OH234096   1.804   3.771   7.408 -0.3659 -0.3941  0.2710
 4154TIP3    H134097   1.821   3.848   7.461  1.9396 -0.2534 -0.5627
 4154TIP3    H234098   1.797   3.699   7.471 -1.3960  0.2967  0.9686
 4155TIP3   OH234099   0.401   6.099   7.017  0.1733  0.4742  0.1166
 4155TIP3    H134100   0.334   6.162   6.991 -0.4230 -0.1911  0.0194
 4155TIP3    H234101   0.361   6.048   7.087 -0.1237 -1.1381 -1.1676
 4156TIP3   OH234102   1.773   6.549   0.062 -0.0463 -0.4442  0.4633
 4156TIP3    H134103   1.732   6.628   0.027 -0.6172 -0.6282  0.6956
 4156TIP3    H234104   1.839   6.525  -0.002 -0.4762 -0.2813 -0.0467
 4157TIP3   OH234105   2.736   2.240   8.087  0.0811  0.2500 -0.7735
 4157TIP3    H134106   2.676   2.217   8.157  1.8531 -1.9550  0.1232
 4157TIP3    H234107   2.689   2.307   8.037 -2.2346  0.1191  1.0418
 4158TIP3   OH234108   0.185   0.088   0.361  0.0140 -0.3430 -0.2557
 4158TIP3    H134109   0.277   0.072   0.379  0.4376  2.0426  0.0554
 4158TIP3    H234110   0.176   0.074   0.267  1.1271  1.0857 -0.6088
 4159TIP3   OH234111   5.415   4.961   8.181  0.1228 -0.3751 -0.2123
 4159TIP3    H134112   5.417   4.986   8.273 -3.4400 -0.9267  0.1569
 4159TIP3    H234113   5.380   4.872   8.181  1.0106 -0.7917 -2.0999
 4160TIP3   OH234114   4.401   0.448   1.724  0.0365  0.1718 -0.4720
 4160TIP3    H134115   4.363   0.442   1.636  0.3518 -0.6579 -0.5601
 4160TIP3    H234116   4.326   0.468   1.781 -0.0926  1.2402 -0.9823
 4161TIP3   OH234117   5.112   4.909   0.446  0.1904 -0.1195  0.0119
 4161TIP3    H134118   5.095   4.949   0.361  0.8848 -1.9882 -1.0422
 4161TIP3    H234119   5.112   4.815   0.430  1.5370 -0.4975  1.8381
 4162TIP3   OH234120   0.908   6.562   2.411 -0.4784  0.1316 -1.0491
 4162TIP3    H134121   0.860   6.488   2.449  1.5373  0.0926  1.7338
 4162TIP3    H234122   0.993   6.525   2.386  0.6846  1.4636  0.6750
 4163TIP3   OH234123   3.290   3.786   0.237 -0.3287  0.3824  0.3744
 4163TIP3    H134124   3.290   3.788   0.332  1.4573 -0.2470  0.4341
 4163TIP3    H234125   3.375   3.824   0.212  0.0491 -1.1444 -0.8781
 4164TIP3   OH234126   5.827   0.748   8.119  0.5937  0.6463  0.1142
 4164TIP3    H134127   5.831   0.670   8.174  2.5330  0.7967  0.2502
 4164TIP3    H234128   5.744   0.790   8.143  1.4149  0.8047  3.0495
 4165TIP3   OH234129   5.410   4.141   1.118  0.0329 -0.3031  0.4512
 4165TIP3    H134130   5.329   4.138   1.067 -0.3550 -1.1922  1.1021
 4165TIP3    H234131   5.382   4.129   1.209  1.0256 -2.3579  0.5430
 4166TIP3   OH234132   0.769   1.668   2.014 -0.6443  0.1639 -0.5785
 4166TIP3    H134133   0.682   1.632   2.030  0.0768 -0.6836  1.9049
 4166TIP3    H234134   0.827   1.591   2.015  0.4168  0.9387  0.6002
 4167TIP3   OH234135   3.006   2.749   0.816  0.3166 -0.1998  0.7487
 4167TIP3    H134136   2.947   2.714   0.748  1.4138  0.2870 -0.5005
 4167TIP3    H234137   3.027   2.673   0.870 -0.4050 -0.6543  0.4211
 4168TIP3   OH234138   5.732   4.288   7.308 -0.1191 -0.0121 -0.3152
 4168TIP3    H134139   5.812   4.341   7.308 -0.4771  0.5335 -0.5020
 4168TIP3    H234140   5.739   4.234   7.229 -0.3123  0.6106 -0.7609
 4169TIP3   OH234141   3.094   5.839   1.802 -0.4917  0.2735  0.4042
 4169TIP3    H134142   3.024   5.887   1.759 -0.9506 -1.6140 -1.1102
 4169TIP3    H234143   3.169   5.849   1.743 -0.3722 -0.1802  0.4710
 4170TIP3   OH234144   4.525   2.288   8.828 -0.7127 -0.4375 -0.0550
 4170TIP3    H134145   4.513   2.379   8.856 -2.6467  0.2564 -2.7061
 4170TIP3    H234146   4.447   2.242   8.859 -1.3315 -0.3818 -1.4569
 4171TIP3   OH234147   4.140   6.474   2.478  0.3379 -0.0153 -0.1095
 4171TIP3    H134148   4.155   6.415   2.552 -0.2981  0.2062  0.2072
 4171TIP3    H234149   4.225   6.517   2.464 -0.4499  3.2405  3.3866
 4172TIP3   OH234150   0.783   1.745   0.821  0.1077 -0.1487  0.3505
 4172TIP3    H134151   0.814   1.676   0.880 -0.0215 -1.8331 -1.4468
 4172TIP3    H234152   0.687   1.739   0.825  0.0551 -1.8506 -1.6469
 4173TIP3   OH234153   4.837   2.363   1.639 -0.5536 -0.4209  0.1035
 4173TIP3    H134154   4.751   2.359   1.597  0.0604  0.6070 -1.3059
 4173TIP3    H234155   4.819   2.398   1.727 -1.4930  0.5276 -0.4442
 4174TIP3   OH234156   4.072   2.180   8.528 -0.2341 -0.1869 -0.5229
 4174TIP3    H134157   4.051   2.151   8.439 -0.3611 -0.0400 -0.5411
 4174TIP3    H234158   4.117   2.263   8.516 -0.4558 -0.0556 -0.4369
 4175TIP3   OH234159   3.732   3.661   0.696 -0.1888  0.1580 -0.7783
 4175TIP3    H134160   3.719   3.709   0.614 -0.0455  1.1362 -0.2422
 4175TIP3    H234161   3.767   3.726   0.756  0.7875 -0.8281 -0.2537
 4176TIP3   OH234162   0.979   3.335   7.718  0.2093 -0.2273  0.2023
 4176TIP3    H134163   0.924   3.391   7.663  0.4242  1.3088  1.4871
 4176TIP3    H234164   1.062   3.329   7.671  0.2179  0.6401  0.0904
 4177TIP3   OH234165   6.319   1.761   0.728 -0.4075  0.6959 -0.0002
 4177TIP3    H134166   6.269   1.839   0.705 -2.4824 -0.7646 -0.7231
 4177TIP3    H234167   6.349   1.725   0.644 -2.0013 -0.8293  0.0240
 4178TIP3   OH234168   6.448   4.644   8.769 -0.4996  0.4163  0.0704
 4178TIP3    H134169   6.389   4.572   8.789  0.6396 -0.1815  1.4496
 4178TIP3    H234170   6.411   4.684   8.690 -1.9636 -0.7595  0.1164
 4179TIP3   OH234171   2.813   2.092   7.442 -0.0506  0.0299  0.1318
 4179TIP3    H134172   2.741   2.035   7.470  0.5849 -1.3049 -0.8387
 4179TIP3    H234173   2.863   2.108   7.523 -1.1393  0.5504  0.7140
 4180TIP3   OH234174   1.429   3.482   7.418  0.0685  0.7828  0.0945
 4180TIP3    H134175   1.420   3.477   7.323 -1.6483 -1.7333  0.2793
 4180TIP3    H234176   1.444   3.391   7.446  0.2662  1.4152  2.2401
 4181TIP3   OH234177   5.852   2.964   1.425 -0.0812  0.5864 -0.5024
 4181TIP3    H134178   5.881   2.947   1.336  1.2155 -1.7492  0.2738
 4181TIP3    H234179   5.777   2.906   1.438  2.0549 -2.0667  1.0132
 4182TIP3   OH234180   1.815   0.937   0.668  0.5694  0.3193 -0.2524
 4182TIP3    H134181   1.812   0.859   0.613  0.3360 -0.8794  1.4136
 4182TIP3    H234182   1.894   0.983   0.639  1.9297 -1.6318  0.1617
 4183TIP3   OH234183   1.186   4.223   8.345 -0.3053 -0.4451  0.2143
 4183TIP3    H134184   1.100   4.258   8.320 -1.0513 -1.4195  1.3260
 4183TIP3    H234185   1.236   4.301   8.371 -1.1646  0.0458  0.4516
 4184TIP3   OH234186   5.406   0.088   0.047 -0.5660  0.2551 -0.1093
 4184TIP3    H134187   5.367   0.036  -0.024  1.0417 -1.0455 -0.1081
 4184TIP3    H234188   5.332   0.130   0.089 -1.6812  0.0896 -1.8087
 4185TIP3   OH234189   4.195   1.978   7.677  0.6016 -0.4633  0.5378
 4185TIP3    H134190   4.154   1.929   7.749 -0.2543 -0.5429  0.0108
 4185TIP3    H234191   4.161   1.937   7.598 -1.7831  2.2078  0.0215
 4186TIP3   OH234192   6.511   5.300   0.968  0.0780 -0.3583 -0.2663
 4186TIP3    H134193   6.596   5.327   0.933  0.2593 -1.2556 -0.5422
 4186TIP3    H234194   6.529   5.218   1.014 -0.2379  0.5620  1.5932
 4187TIP3   OH234195   6.326   6.633   8.584 -0.2924 -0.0084  0.0221
 4187TIP3    H134196   6.257   6.641   8.518 -0.6792  0.1852  0.4512
 4187TIP3    H234197   6.351   6.723   8.603  1.9734 -0.0812 -2.0974
 4188TIP3   OH234198   0.734   5.379   8.703  0.1801 -0.3727  0.0127
 4188TIP3    H134199   0.712   5.424   8.622 -0.7938 -0.8121  0.0150
 4188TIP3    H234200   0.801   5.434   8.744 -1.5571  1.5722  0.4382
 4189TIP3   OH234201   4.253   5.013   2.241  0.6427  0.0936  0.0046
 4189TIP3    H134202   4.213   5.097   2.221 -1.4744 -1.3824 -2.6501
 4189TIP3    H234203   4.181   4.958   2.271  0.4238 -2.4626 -4.3303
 4190TIP3   OH234204   0.245   6.010   6.798 -0.2148  0.2674  0.2647
 4190TIP3    H134205   0.321   6.002   6.855 -0.1229 -0.5754  0.0394
 4190TIP3    H234206   0.175   6.042   6.855  0.3310  1.1598  0.4450
 4191TIP3   OH234207   6.001   5.255   0.984 -0.3644 -0.3457  0.1068
 4191TIP3    H134208   5.982   5.194   1.056 -0.2576  0.9430  1.2804
 4191TIP3    H234209   6.093   5.279   0.998 -0.5247  0.3999 -0.0861
 4192TIP3   OH234210   6.419   5.294   2.742  0.0890 -0.2237 -0.1110
 4192TIP3    H134211   6.496   5.351   2.734  0.6340 -1.1396 -1.7799
 4192TIP3    H234212   6.438   5.238   2.817  1.4494 -0.9705 -0.9742
 4193TIP3   OH234213   5.583   3.902   1.156 -0.0104 -0.1991 -0.3134
 4193TIP3    H134214   5.601   3.928   1.247  1.6527 -0.4960 -0.5163
 4193TIP3    H234215   5.534   3.975   1.119  0.4179  0.5034  0.4655
 4194TIP3   OH234216   2.104   1.251   8.796  0.2780 -0.0231 -0.7920
 4194TIP3    H134217   2.199   1.261   8.792  0.3103  0.6026  0.7618
 4194TIP3    H234218   2.087   1.161   8.769  1.4376 -0.5267  0.0989
 4195TIP3   OH234219   6.474   3.486   6.421 -0.0729  0.4439 -0.2481
 4195TIP3    H134220   6.398   3.538   6.395 -0.0892  1.3653  1.5149
 4195TIP3    H234221   6.547   3.548   6.422  0.1247  0.2215  0.8261
 4196TIP3   OH234222   4.508   3.215   7.189  0.5909 -0.3302 -0.2220
 4196TIP3    H134223   4.516   3.265   7.270 -0.2589  0.7056 -0.7527
 4196TIP3    H234224   4.595   3.220   7.149  0.7405  0.0131  0.1345
 4197TIP3   OH234225   4.367   5.812   7.657  0.5478 -0.2888  0.2412
 4197TIP3    H134226   4.369   5.851   7.745 -0.8463 -2.1512  1.1800
 4197TIP3    H234227   4.277   5.828   7.626  1.1126  0.6110 -1.0128
 4198TIP3   OH234228   5.133   5.217   0.997 -0.1442  0.0401  0.2967
 4198TIP3    H134229   5.220   5.217   0.957 -0.7100 -0.5146 -0.9785
 4198TIP3    H234230   5.128   5.133   1.042  1.1441  1.3477  3.1172
 4199TIP3   OH234231   5.346   1.544   6.973  0.5636  0.2012 -0.6410
 4199TIP3    H134232   5.430   1.509   7.003  0.2073 -2.8788 -2.7675
 4199TIP3    H234233   5.281   1.503   7.030  0.3455  1.6504  0.2240
 4200TIP3   OH234234   0.003   5.906   0.216 -0.4089  0.2580 -0.3725
 4200TIP3    H134235  -0.016   5.829   0.163  0.1613  0.6738 -1.1965
 4200TIP3    H234236   0.099   5.908   0.222 -0.4315 -0.9203  2.3876
 4201TIP3   OH234237   2.193   1.520   0.521 -0.1809  0.1524  0.3657
 4201TIP3    H134238   2.136   1.524   0.444 -0.5168 -0.6786  0.5646
 4201TIP3    H234239   2.133   1.511   0.595  0.1932 -0.3877  0.6073
 4202TIP3   OH234240   2.178   0.063   7.375  0.1789  0.0005 -0.2035
 4202TIP3    H134241   2.127   0.039   7.298 -1.1536  3.0659 -0.4480
 4202TIP3    H234242   2.113   0.086   7.441  1.2810 -0.1339  0.9766
 4203TIP3   OH234243   1.427   2.111   8.370 -0.1729  0.3039 -0.0837
 4203TIP3    H134244   1.409   2.160   8.451 -0.7292 -0.7843  0.4722
 4203TIP3    H234245   1.354   2.050   8.362  2.0690 -2.7840  1.0791
 4204TIP3   OH234246   6.219   0.734   7.379 -0.6553 -0.8170 -0.2418
 4204TIP3    H134247   6.306   0.724   7.341 -0.6689  2.6987 -1.6265
 4204TIP3    H234248   6.158   0.715   7.307 -0.9577 -1.0924  0.0804
 4205TIP3   OH234249   4.530   1.549   1.622  0.1492  0.3723  0.1782
 4205TIP3    H134250   4.497   1.472   1.668  0.9225 -0.9577 -1.3870
 4205TIP3    H234251   4.625   1.545   1.634  0.1628  1.4378  0.5625
 4206TIP3   OH234252   5.354   6.419   2.207  1.0540 -0.2494  0.1306
 4206TIP3    H134253   5.375   6.512   2.208  0.9093 -0.2041 -0.8455
 4206TIP3    H234254   5.259   6.416   2.197  1.1955 -0.5002 -1.3618
 4207TIP3   OH234255   1.530   3.170   7.007 -0.3555 -0.1109  0.3068
 4207TIP3    H134256   1.540   3.191   6.915 -0.6375 -0.1348  0.2700
 4207TIP3    H234257   1.616   3.185   7.045  0.1685 -1.5251 -0.2436
 4208TIP3   OH234258   6.220   6.513   0.949  0.2037  0.3998  0.2998
 4208TIP3    H134259   6.175   6.496   0.867 -1.0997 -0.7929  1.2029
 4208TIP3    H234260   6.313   6.506   0.927 -0.0770  1.3081 -1.2871
 4209TIP3   OH234261   5.757   6.174   7.265 -0.2275 -0.0416 -0.2265
 4209TIP3    H134262   5.697   6.213   7.328  2.3048  0.3129  2.1753
 4209TIP3    H234263   5.769   6.241   7.198 -2.0960  0.0468 -0.5015
 4210TIP3   OH234264   6.394   3.088   2.156 -0.0564  0.3811  0.5804
 4210TIP3    H134265   6.415   3.069   2.248  1.4574  0.8460  0.3497
 4210TIP3    H234266   6.302   3.062   2.147 -0.0749 -0.1720  2.0849
 4211TIP3   OH234267   3.693   3.857   7.467 -0.0566  0.2080  0.1546
 4211TIP3    H134268   3.640   3.878   7.389  0.1969  0.4196  0.0404
 4211TIP3    H234269   3.662   3.770   7.493 -1.0318  0.6622  0.5632
 4212TIP3   OH234270   6.392   0.131   7.888  0.2138  0.2849 -0.4290
 4212TIP3    H134271   6.395   0.218   7.846  1.0811  0.2783 -0.3988
 4212TIP3    H234272   6.482   0.099   7.883  0.3457  0.2592  1.4145
 4213TIP3   OH234273   1.171   1.064   0.961 -0.2552  0.6616 -0.1520
 4213TIP3    H134274   1.075   1.070   0.965 -0.4211 -0.6579 -1.3297
 4213TIP3    H234275   1.198   1.060   1.053 -0.9798  4.4139  0.3873
 4214TIP3   OH234276   2.532   0.249   8.470 -0.2258  0.1396  0.0765
 4214TIP3    H134277   2.496   0.187   8.407 -1.2628  1.5719 -0.7987
 4214TIP3    H234278   2.622   0.220   8.484 -0.3037 -0.8272 -1.2571
 4215TIP3   OH234279   3.479   5.274   7.852  0.0291  0.1018  0.6183
 4215TIP3    H134280   3.438   5.289   7.937 -0.6075 -0.9249  0.5127
 4215TIP3    H234281   3.411   5.231   7.800 -1.0441  4.1210 -1.7793
 4216TIP3   OH234282   0.634   2.979   1.556  0.1718 -0.0589 -0.1637
 4216TIP3    H134283   0.717   3.027   1.546  0.0332 -0.1027 -1.7763
 4216TIP3    H234284   0.566   3.045   1.540 -0.0405 -0.5319 -1.2876
 4217TIP3   OH234285   4.728   1.548   7.689  0.1976 -0.1102  0.3298
 4217TIP3    H134286   4.674   1.480   7.651  0.6864 -1.5372  2.0352
 4217TIP3    H234287   4.810   1.503   7.713  1.3863  1.5471 -0.4263
 4218TIP3   OH234288   0.516   2.247   7.299 -0.3750  0.4563  0.0263
 4218TIP3    H134289   0.444   2.251   7.363 -0.6800 -1.3795 -0.1510
 4218TIP3    H234290   0.482   2.291   7.222 -0.5103  1.4791  0.6477
 4219TIP3   OH234291   6.052   0.628   7.609 -0.7902  0.3982 -0.8345
 4219TIP3    H134292   5.990   0.686   7.653  1.0364  0.9872  1.1353
 4219TIP3    H234293   6.103   0.686   7.552  1.3315  0.9868  1.4624
 4220TIP3   OH234294   5.768   2.878   7.352  0.3342 -0.3188 -0.0162
 4220TIP3    H134295   5.730   2.965   7.365 -0.7370 -0.6669 -0.7161
 4220TIP3    H234296   5.795   2.877   7.261  1.3380 -0.3553  0.2738
 4221TIP3   OH234297   4.266   1.554   7.538 -0.1883 -0.1464 -0.3188
 4221TIP3    H134298   4.344   1.597   7.573 -0.5012  0.9586 -0.9475
 4221TIP3    H234299   4.299   1.501   7.465  0.0157  0.0990 -0.4070
 4222TIP3   OH234300   4.943   5.842   1.234  0.6849 -0.2362  0.3455
 4222TIP3    H134301   4.966   5.908   1.300  0.6284  1.1439 -0.9665
 4222TIP3    H234302   5.027   5.803   1.209  0.4736 -3.2287  3.5722
 4223TIP3   OH234303   6.207   2.078   7.183  0.3795 -0.0152  0.3541
 4223TIP3    H134304   6.167   2.025   7.114 -1.7459  1.2729  0.5170
 4223TIP3    H234305   6.168   2.046   7.264  1.4353 -0.2366  0.7990
 4224TIP3   OH234306   4.050   3.026   7.990  0.8107  0.2484  0.4048
 4224TIP3    H134307   4.021   3.053   7.903 -0.0161 -1.2945  0.1649
 4224TIP3    H234308   4.030   3.100   8.047 -3.7301 -0.6084  0.2741
 4225TIP3   OH234309   2.223   2.008   7.435 -0.1052  0.6650  0.3496
 4225TIP3    H134310   2.199   2.096   7.464  1.9242  1.5228 -0.4690
 4225TIP3    H234311   2.223   2.013   7.340  2.1196  0.4279  0.2905
 4226TIP3   OH234312   4.925   2.076   1.635  0.3510  0.5898  0.3464
 4226TIP3    H134313   4.854   2.013   1.649  0.3487  0.1563 -1.3688
 4226TIP3    H234314   4.882   2.161   1.634 -0.3061  0.2770 -1.3913
 4227TIP3   OH234315   5.070   6.752   7.469 -0.1389  0.6670  0.3581
 4227TIP3    H134316   5.154   6.799   7.471  2.1156 -2.9454  0.5145
 4227TIP3    H234317   5.064   6.718   7.379 -0.2698 -0.8848  0.9238
 4228TIP3   OH234318   4.082   1.181   6.996 -0.2306  0.0227 -0.0388
 4228TIP3    H134319   4.046   1.105   6.951  0.7121  0.6896 -2.1036
 4228TIP3    H234320   4.022   1.253   6.974  0.3465  0.3984 -0.4308
 4229TIP3   OH234321   1.406   0.215   8.010  0.2874  0.1562 -0.1128
 4229TIP3    H134322   1.321   0.228   7.969 -1.2801 -2.3931  2.0097
 4229TIP3    H234323   1.447   0.145   7.959  0.3528  0.1650 -0.0727
 4230TIP3   OH234324   5.139   4.334   8.176 -0.6687  0.5893 -0.8809
 4230TIP3    H134325   5.117   4.283   8.253 -2.3446  1.2540 -0.8779
 4230TIP3    H234326   5.136   4.272   8.103  0.1273  0.1248 -0.5202
 4231TIP3   OH234327   1.188   5.320   1.715 -0.1350 -0.4255  0.1345
 4231TIP3    H134328   1.220   5.406   1.688 -0.2192 -0.6548 -0.7392
 4231TIP3    H234329   1.093   5.325   1.705 -0.2848 -0.1514  1.5138
 4232TIP3   OH234330   1.280   1.493   1.490  0.0209  0.0647  0.2398
 4232TIP3    H134331   1.210   1.481   1.426  0.1435  0.0682  0.1048
 4232TIP3    H234332   1.273   1.585   1.516 -0.0983  0.0356  0.3151
 4233TIP3   OH234333   4.179   3.588   7.154  0.4516 -0.3609 -0.0470
 4233TIP3    H134334   4.240   3.517   7.136  0.0901 -1.0574  1.3295
 4233TIP3    H234335   4.187   3.604   7.248 -0.0480  0.8958 -0.1894
 4234TIP3   OH234336   1.593   4.937   1.759  0.0391 -0.2403  0.6988
 4234TIP3    H134337   1.537   4.881   1.706  0.5253  1.2756 -1.5861
 4234TIP3    H234338   1.549   5.023   1.757  1.3478  0.4540  0.6081
 4235TIP3   OH234339   4.881   2.397   1.004  0.1990  0.1635 -0.0490
 4235TIP3    H134340   4.943   2.412   1.074 -2.5556  1.4769  2.3224
 4235TIP3    H234341   4.880   2.479   0.954 -0.0084  0.3445  0.2497
 4236TIP3   OH234342   0.442   0.696   0.621  0.0277 -0.6307  0.2763
 4236TIP3    H134343   0.370   0.708   0.683  0.1065 -1.0032  0.4426
 4236TIP3    H234344   0.503   0.637   0.666  0.7243  0.1572  0.3787
 4237TIP3   OH234345   1.222   2.811   0.883  0.0574  0.2630 -1.2197
 4237TIP3    H134346   1.224   2.721   0.915  2.1725  0.4542 -0.6807
 4237TIP3    H234347   1.135   2.821   0.844 -0.4792 -1.7682 -0.6351
 4238TIP3   OH234348   4.655   6.718   0.034  0.4649  0.3998  0.1523
 4238TIP3    H134349   4.661   6.629  -0.000 -0.7141  0.3584  0.0190
 4238TIP3    H234350   4.686   6.773  -0.038  1.9613  0.0741  0.5102
 4239TIP3   OH234351   5.036   3.084   0.833  0.1031  0.2964 -0.0620
 4239TIP3    H134352   4.988   3.160   0.798 -0.9131  0.3171  1.2801
 4239TIP3    H234353   5.092   3.122   0.901  2.4660  0.3404 -1.9070
 4240TIP3   OH234354   2.933   6.676   0.416  0.3584 -0.0598  0.2259
 4240TIP3    H134355   2.937   6.702   0.508  0.3976 -0.0981  0.2348
 4240TIP3    H234356   3.001   6.610   0.406 -0.0121 -0.4595  0.3027
 4241TIP3   OH234357   3.195   6.505   7.441  0.0486  0.3994 -0.0916
 4241TIP3    H134358   3.208   6.419   7.483  0.6955  0.3587 -0.3571
 4241TIP3    H234359   3.263   6.560   7.479 -1.8915  1.5371  1.9664
 4242TIP3   OH234360   5.034   3.284   7.587 -0.4816  0.6093 -0.2503
 4242TIP3    H134361   5.067   3.197   7.564  3.2572  1.6594  0.5140
 4242TIP3    H234362   4.968   3.267   7.655  0.9969 -1.6541  0.7441
 4243TIP3   OH234363   6.777   3.587   2.101  0.0848  0.0321 -0.1908
 4243TIP3    H134364   6.746   3.500   2.126 -1.0836  0.2515 -0.8045
 4243TIP3    H234365   6.719   3.647   2.148 -0.0178  0.4621 -0.8558
 4244TIP3   OH234366   5.843   4.450   1.502 -0.0426 -0.4667 -0.4002
 4244TIP3    H134367   5.794   4.380   1.545 -0.7658 -0.4419 -1.1458
 4244TIP3    H234368   5.821   4.441   1.409 -1.3426  1.6353 -0.3786
 4245TIP3   OH234369   5.478   1.183   0.635  0.0459  0.6185  0.2442
 4245TIP3    H134370   5.422   1.216   0.565  0.7303  1.0073 -0.1382
 4245TIP3    H234371   5.425   1.119   0.681  0.0083 -0.6049 -1.4275
 4246TIP3   OH234372   6.469   5.027   0.790 -0.8632 -0.1855 -0.0202
 4246TIP3    H134373   6.395   4.966   0.784 -1.1411 -0.0631  1.5675
 4246TIP3    H234374   6.477   5.045   0.884 -1.2527  2.7791 -0.4427
 4247TIP3   OH234375   0.131   4.788   2.378  0.1376  0.4890 -0.3714
 4247TIP3    H134376   0.193   4.720   2.350 -0.4301 -1.1942  2.1960
 4247TIP3    H234377   0.173   4.829   2.454 -1.6912 -0.4829  1.2398
 4248TIP3   OH234378   6.042   2.775   2.083  0.0644 -0.2230  0.3307
 4248TIP3    H134379   6.052   2.846   2.147  1.8766 -0.4156  0.3286
 4248TIP3    H234380   6.114   2.714   2.104  0.8639 -0.1770 -2.0010
 4249TIP3   OH234381   6.204   3.386   8.763 -0.0873  0.0622  0.7381
 4249TIP3    H134382   6.182   3.478   8.744 -0.2090  0.0778  0.9557
 4249TIP3    H234383   6.252   3.390   8.846 -0.7862 -0.1541  1.1618
 4250TIP3   OH234384   3.582   5.029   8.610 -0.1170 -0.3417 -0.1873
 4250TIP3    H134385   3.565   4.962   8.676 -1.8050 -0.3766 -0.6224
 4250TIP3    H234386   3.653   4.992   8.557 -0.7468 -1.6109 -0.1858
 4251TIP3   OH234387   3.217   1.226   0.259  0.0727  0.1896  0.1070
 4251TIP3    H134388   3.153   1.253   0.193  0.0252 -0.1908 -0.0030
 4251TIP3    H234389   3.283   1.177   0.211  0.2012  0.1772  0.2941
 4252TIP3   OH234390   3.765   4.884   8.453  0.3008 -0.1301 -0.5134
 4252TIP3    H134391   3.856   4.907   8.470 -0.1098  1.8581 -0.7734
 4252TIP3    H234392   3.760   4.875   8.358  0.5402 -1.8472 -0.3945
 4253TIP3   OH234393   1.031   6.086   1.639  0.0738 -0.6087 -0.0609
 4253TIP3    H134394   1.043   6.179   1.660  0.2511 -0.5029 -0.6161
 4253TIP3    H234395   0.937   6.072   1.643 -0.0424 -0.1552 -0.9892
 4254TIP3   OH234396   0.070   5.473   0.660  0.2204 -0.2524 -0.1958
 4254TIP3    H134397   0.131   5.546   0.670  0.3181 -0.2383 -0.8484
 4254TIP3    H234398   0.080   5.446   0.569 -1.2136  0.1566 -0.4970
 4255TIP3   OH234399   6.728   4.077   1.063 -0.1302  0.2127 -0.4798
 4255TIP3    H134400   6.766   4.158   1.028  0.3788  0.2825  0.2317
 4255TIP3    H234401   6.636   4.098   1.079  0.2690  1.0308  0.8509
 4256TIP3   OH234402   5.870   2.508   0.138 -0.1468  0.1019  0.5145
 4256TIP3    H134403   5.798   2.449   0.115  0.1979 -0.5189  0.9984
 4256TIP3    H234404   5.834   2.563   0.207  0.3227 -1.3261  1.9711
 4257TIP3   OH234405   5.182   1.709   6.223  0.2978  0.7306 -0.0732
 4257TIP3    H134406   5.276   1.722   6.242  0.2420 -0.0237  0.7865
 4257TIP3    H234407   5.138   1.742   6.301 -0.1632  1.0606 -0.4669
 4258TIP3   OH234408   3.854   1.412   8.487  0.0405 -0.4666 -0.2603
 4258TIP3    H134409   3.893   1.492   8.522  2.0002 -0.9210 -1.2790
 4258TIP3    H234410   3.775   1.399   8.540  1.5542  0.1946  2.3167
 4259TIP3   OH234411   4.566   1.140   0.314  0.4081  0.1194 -0.2467
 4259TIP3    H134412   4.541   1.110   0.227 -0.4892 -2.0828  0.7029
 4259TIP3    H234413   4.649   1.095   0.332  1.0647  1.2667 -0.2846
 4260TIP3   OH234414   3.775   2.217   1.200 -0.2851  0.0053 -0.3644
 4260TIP3    H134415   3.781   2.220   1.104 -0.7986 -2.8436 -0.5827
 4260TIP3    H234416   3.682   2.228   1.218 -0.2199  0.2907 -0.1963
 4261TIP3   OH234417   5.876   1.369   7.973  0.0236 -0.6804 -0.4416
 4261TIP3    H134418   5.958   1.326   7.949  0.4041 -0.6555  0.7550
 4261TIP3    H234419   5.898   1.463   7.977 -0.1415 -0.6416 -0.4273
 4262TIP3   OH234420   3.946   2.686   7.717  0.0142  0.1072  0.3732
 4262TIP3    H134421   3.874   2.711   7.776 -0.6961 -0.8568 -0.0593
 4262TIP3    H234422   4.013   2.651   7.775 -0.3984 -0.1930  0.6739
 4263TIP3   OH234423   0.352   4.964   8.096 -0.5970 -0.0336 -0.1557
 4263TIP3    H134424   0.314   5.047   8.067 -0.3551  0.1626  0.0878
 4263TIP3    H234425   0.441   4.966   8.063 -0.2063  0.3507  0.8984
 4264TIP3   OH234426   6.774   3.411   2.563 -0.1936  0.3648 -0.5328
 4264TIP3    H134427   6.816   3.381   2.643 -0.6306 -0.0551 -0.4576
 4264TIP3    H234428   6.683   3.429   2.589 -0.8872 -1.7113 -1.3628
 4265TIP3   OH234429   3.755   4.875   8.109  0.4412  0.2926 -0.5162
 4265TIP3    H134430   3.771   4.906   8.020  0.5512 -0.8586 -0.9215
 4265TIP3    H234431   3.662   4.891   8.125 -0.3165 -2.1795 -1.9876
 4266TIP3   OH234432   0.725   4.486   8.031 -0.3000 -0.1735  0.4291
 4266TIP3    H134433   0.656   4.501   7.966  0.4130  0.2811 -0.2329
 4266TIP3    H234434   0.807   4.502   7.984  0.2558 -0.5152  1.2587
 4267TIP3   OH234435   0.289   6.654   7.404  0.8787 -0.9135  0.4403
 4267TIP3    H134436   0.236   6.598   7.347  0.5522  0.0947 -0.2863
 4267TIP3    H234437   0.298   6.605   7.485 -0.6162 -1.3875  0.3407
 4268TIP3   OH234438   3.544   3.429   0.698 -0.3343  0.0860  0.3268
 4268TIP3    H134439   3.468   3.449   0.753 -0.2320  1.7392 -0.0857
 4268TIP3    H234440   3.594   3.510   0.696  0.4517 -0.4000 -0.9893
 4269TIP3   OH234441   3.585   2.650   8.809  0.3321  0.4611 -0.1220
 4269TIP3    H134442   3.618   2.584   8.747  2.5828  1.1831  0.2245
 4269TIP3    H234443   3.662   2.677   8.859 -0.9520  1.7824  1.2482
 4270TIP3   OH234444   0.714   0.242   1.140 -0.0744 -0.2785 -0.2868
 4270TIP3    H134445   0.788   0.181   1.136 -0.7982 -1.3278  1.1536
 4270TIP3    H234446   0.747   0.317   1.188  0.2898 -0.3773 -0.3796
 4271TIP3   OH234447   6.191   5.636   0.997  0.2597  0.6621  0.0329
 4271TIP3    H134448   6.102   5.668   0.981 -0.2743 -1.7139 -2.5638
 4271TIP3    H234449   6.246   5.714   0.990 -1.4216  1.8656 -0.4907
 4272TIP3   OH234450   5.901   4.017   1.913 -0.1457 -0.1096 -0.1259
 4272TIP3    H134451   5.941   4.001   1.998  0.1270 -0.6754 -0.3515
 4272TIP3    H234452   5.917   4.109   1.895  0.0116 -0.0487  0.3231
 4273TIP3   OH234453   5.531   3.569   7.623  0.0856 -0.3786  0.4080
 4273TIP3    H134454   5.538   3.539   7.533 -1.2936  1.9320 -0.5427
 4273TIP3    H234455   5.528   3.488   7.675 -0.9840 -1.8186 -1.7518
 4274TIP3   OH234456   5.246   5.128   7.521 -0.1751  0.2806  0.1451
 4274TIP3    H134457   5.287   5.142   7.436 -1.1520  1.7126 -0.1321
 4274TIP3    H234458   5.154   5.150   7.507 -0.6109 -0.7164  1.2739
 4275TIP3   OH234459   6.823   4.987   2.296  0.6848 -0.1573 -0.2262
 4275TIP3    H134460   6.899   4.958   2.347  0.0808  0.2468  0.9508
 4275TIP3    H234461   6.767   5.029   2.361 -1.4095 -2.0762 -0.6864
 4276TIP3   OH234462   1.249   4.796   8.295  0.4433  0.8673  0.3495
 4276TIP3    H134463   1.196   4.871   8.270  0.2804  0.7441  0.3212
 4276TIP3    H234464   1.208   4.764   8.376 -0.5920 -0.2702 -0.5916
 4277TIP3   OH234465   6.715   4.115   6.984 -0.0750 -0.6652 -0.3060
 4277TIP3    H134466   6.685   4.026   7.000 -0.0316 -0.8892 -1.4303
 4277TIP3    H234467   6.635   4.168   6.986 -0.4040 -1.0561 -1.8370
 4278TIP3   OH234468   4.231   0.939   8.770  0.0691 -0.0363 -0.0572
 4278TIP3    H134469   4.182   0.863   8.737  2.5222 -1.2415 -1.2332
 4278TIP3    H234470   4.186   1.015   8.731 -1.3811 -0.9813 -0.3149
 4279TIP3   OH234471   0.570   1.428   1.457  0.2421  0.1394 -0.1095
 4279TIP3    H134472   0.565   1.347   1.406 -1.5513 -0.0969  0.3770
 4279TIP3    H234473   0.573   1.498   1.391  0.0460 -0.2576 -0.5400
 4280TIP3   OH234474   4.662   0.055   0.467 -0.7479  0.3126  0.3478
 4280TIP3    H134475   4.619  -0.006   0.527  0.5025 -0.1639  0.8032
 4280TIP3    H234476   4.712  -0.001   0.408 -1.9853  0.7715 -1.2086
 4281TIP3   OH234477   3.112   6.676   8.041 -0.0096 -0.1796  0.0188
 4281TIP3    H134478   3.037   6.724   8.077 -1.7194 -2.7688  0.1829
 4281TIP3    H234479   3.145   6.625   8.115  0.8795 -0.3021 -0.4520
 4282TIP3   OH234480   5.575   0.621   7.234  0.4412  0.1913 -0.2096
 4282TIP3    H134481   5.571   0.605   7.140 -0.9793 -0.1024 -0.1294
 4282TIP3    H234482   5.608   0.539   7.271 -1.4047 -0.6537 -0.2807
 4283TIP3   OH234483   0.174   5.832   8.500  0.0772  0.0008  1.4167
 4283TIP3    H134484   0.258   5.868   8.530  1.0820 -0.5425 -0.5690
 4283TIP3    H234485   0.182   5.738   8.516 -0.1911 -0.0476  1.2669
 4284TIP3   OH234486   3.226   6.202   6.959  0.2697 -0.4404 -0.5678
 4284TIP3    H134487   3.186   6.124   6.997 -0.6553  0.9174  1.4149
 4284TIP3    H234488   3.319   6.181   6.953 -0.3272 -2.8309 -3.1503
 4285TIP3   OH234489   0.421   3.381   8.657 -1.0080 -0.3119  0.2615
 4285TIP3    H134490   0.502   3.366   8.705  0.0349  1.1132 -0.9529
 4285TIP3    H234491   0.353   3.342   8.712  0.3201 -0.3005  2.0061
 4286TIP3   OH234492   4.876   0.642   6.985 -0.7354  0.1604 -0.7482
 4286TIP3    H134493   4.794   0.667   6.942 -0.2650  0.3995 -1.5250
 4286TIP3    H234494   4.881   0.699   7.062  0.0084  2.0650 -2.1426
 4287TIP3   OH234495   4.980   4.420   0.531 -0.7340  0.6323 -0.3154
 4287TIP3    H134496   4.896   4.388   0.563 -0.0463 -0.6963  0.2570
 4287TIP3    H234497   5.035   4.342   0.525  0.8856  1.6203  0.6726
 4288TIP3   OH234498   3.842   3.275   2.696  0.1211 -0.0693  0.0012
 4288TIP3    H134499   3.870   3.358   2.656  1.3858 -2.0678 -3.7475
 4288TIP3    H234500   3.912   3.253   2.758 -0.1147  1.4809  0.8705
 4289TIP3   OH234501   0.602   3.758   1.031  0.0245  0.2592 -0.0042
 4289TIP3    H134502   0.650   3.684   1.068 -0.2805 -1.2191 -2.3544
 4289TIP3    H234503   0.669   3.818   1.001  0.3653 -0.5115 -0.8148
 4290TIP3   OH234504   3.414   0.619   1.582 -0.7155  0.2981 -0.1196
 4290TIP3    H134505   3.365   0.544   1.618 -1.5005  0.6871 -0.3637
 4290TIP3    H234506   3.502   0.609   1.618 -1.3070  0.3140  1.3957
 4291TIP3   OH234507   4.324   4.742   1.454 -0.3549  0.0422  0.2935
 4291TIP3    H134508   4.273   4.791   1.390  1.0888  2.6600  1.0116
 4291TIP3    H234509   4.335   4.655   1.415  1.6510  1.8623 -3.7183
 4292TIP3   OH234510   3.427   1.361   0.438  0.1036  0.1610 -0.1813
 4292TIP3    H134511   3.472   1.436   0.401  0.3598 -0.7444 -1.7833
 4292TIP3    H234512   3.358   1.340   0.375 -0.5618 -0.3828  0.6960
 4293TIP3   OH234513   5.467   0.913   0.435 -0.3903  0.3266  0.7363
 4293TIP3    H134514   5.453   0.835   0.380 -3.6782 -0.5918  2.5991
 4293TIP3    H234515   5.432   0.985   0.382 -2.0743 -0.3009  0.9447
 4294TIP3   OH234516   3.248   6.320   1.015  0.3334  0.6632 -0.0883
 4294TIP3    H134517   3.231   6.313   0.922 -2.5456  2.9706  0.1089
 4294TIP3    H234518   3.328   6.373   1.022  0.2757  0.9051 -1.2256
 4295TIP3   OH234519   5.905   3.270   7.488  0.3183  0.4568 -0.5235
 4295TIP3    H134520   5.882   3.230   7.405  0.4425 -0.3225 -0.1949
 4295TIP3    H234521   5.845   3.230   7.552  1.2339 -0.1105  0.0050
 4296TIP3   OH234522   2.085   5.141   0.475 -0.3374 -0.1231  0.0323
 4296TIP3    H134523   2.089   5.120   0.381 -0.6382  2.0070 -0.5069
 4296TIP3    H234524   2.175   5.132   0.506 -0.1044 -0.1453 -0.6430
 4297TIP3   OH234525   0.447   6.530   1.419  0.0627 -0.4109 -0.0043
 4297TIP3    H134526   0.421   6.594   1.484 -1.3314 -0.8797 -0.0666
 4297TIP3    H234527   0.366   6.504   1.375  0.9751  0.1466 -2.1960
 4298TIP3   OH234528   2.307   2.173   8.391  0.1538 -0.4175 -0.2185
 4298TIP3    H134529   2.256   2.095   8.368  1.4294 -1.5133  0.5301
 4298TIP3    H234530   2.243   2.233   8.430 -1.3485  0.0038 -3.0471
 4299TIP3   OH234531   5.708   6.183   1.063  0.0784  0.7393 -0.3912
 4299TIP3    H134532   5.699   6.240   1.139  0.4422 -0.6128  0.6831
 4299TIP3    H234533   5.670   6.234   0.991 -2.0345  1.2968  1.0327
 4300TIP3   OH234534   0.572   6.297   6.900  0.2912 -0.4883 -0.3832
 4300TIP3    H134535   0.518   6.232   6.946  0.0257 -0.2115 -0.2963
 4300TIP3    H234536   0.523   6.317   6.820  0.3472 -0.3620 -0.3866
 4301TIP3   OH234537   1.039   6.309   0.399  0.1077 -0.2819 -0.1952
 4301TIP3    H134538   1.114   6.311   0.340  1.0142  1.7375  0.9276
 4301TIP3    H234539   0.975   6.253   0.354  1.2367  0.1247 -2.4656
 4302TIP3   OH234540   3.826   3.796   1.045  0.4118  0.6902 -0.1118
 4302TIP3    H134541   3.826   3.852   0.968 -2.2799  0.1841 -0.5871
 4302TIP3    H234542   3.812   3.708   1.011 -0.7123  0.4472  0.8915
 4303TIP3   OH234543   5.679   1.800   2.233  1.0237 -0.9674 -0.8514
 4303TIP3    H134544   5.752   1.751   2.195  0.8712 -0.1167 -2.2967
 4303TIP3    H234545   5.705   1.891   2.229 -0.1567 -0.6331 -1.4921
 4304TIP3   OH234546   4.787   4.277   1.229  0.2882 -0.1593  0.0334
 4304TIP3    H134547   4.740   4.314   1.303  0.7329  1.6476 -0.5238
 4304TIP3    H234548   4.873   4.254   1.264  0.5767  0.9017  0.0558
 4305TIP3   OH234549   6.749   4.048   1.527  0.3478 -0.0888  0.3129
 4305TIP3    H134550   6.757   3.970   1.582 -1.3341 -0.5858 -0.1096
 4305TIP3    H234551   6.715   4.115   1.586 -0.2524 -0.2759  0.1858
 4306TIP3   OH234552   0.699   0.578   0.681 -0.4092 -0.1919  0.1559
 4306TIP3    H134553   0.697   0.671   0.702  0.0536 -0.0305 -0.4606
 4306TIP3    H234554   0.716   0.534   0.764 -1.0359  0.2420  0.5217
 4307TIP3   OH234555   1.505   0.335   6.559  0.4315  0.0533 -0.3337
 4307TIP3    H134556   1.514   0.430   6.564  0.2833  0.0475  0.1294
 4307TIP3    H234557   1.460   0.311   6.640  0.3661 -0.3996 -0.5011
 4308TIP3   OH234558   3.739   0.075   7.460  0.2004  0.5751 -0.6094
 4308TIP3    H134559   3.811   0.083   7.521  0.1514 -3.2466  0.1932
 4308TIP3    H234560   3.668   0.126   7.499  1.2927  1.2123  0.5992
 4309TIP3   OH234561   2.834   3.513   0.316  0.5529 -0.5240  0.7012
 4309TIP3    H134562   2.912   3.527   0.263  1.2193 -0.4953  1.6655
 4309TIP3    H234563   2.821   3.596   0.362 -2.2632  0.8498 -2.1966
 4310TIP3   OH234564   4.703   5.340   0.238  0.0197  0.1630 -0.6451
 4310TIP3    H134565   4.764   5.306   0.171 -0.9881 -0.9149 -1.0482
 4310TIP3    H234566   4.755   5.342   0.318  0.4438 -1.3620 -0.8392
 4311TIP3   OH234567   2.875   4.002   7.110  0.0046  0.1417  0.0890
 4311TIP3    H134568   2.828   4.038   7.186  0.3380  0.4458  0.1536
 4311TIP3    H234569   2.835   3.917   7.096  1.8016 -1.2420  2.4153
 4312TIP3   OH234570   3.574   3.827   6.977 -0.1451 -0.1684  0.1153
 4312TIP3    H134571   3.582   3.907   6.925  0.4883 -0.7170 -0.6549
 4312TIP3    H234572   3.481   3.806   6.975 -0.0700 -0.4715 -1.2743
 4313TIP3   OH234573   3.195   4.674   7.822 -0.2924  0.0270 -0.3461
 4313TIP3    H134574   3.175   4.719   7.904  1.2777 -1.0714  0.7074
 4313TIP3    H234575   3.123   4.611   7.812 -0.9646  0.7791 -0.2870
 4314TIP3   OH234576   5.647   1.586   1.377  0.2183 -0.1009  0.7533
 4314TIP3    H134577   5.717   1.646   1.354 -1.0104  0.7007 -1.1652
 4314TIP3    H234578   5.592   1.582   1.299 -1.8841 -0.6930  2.1745
 4315TIP3   OH234579   3.955   1.904   8.532  0.8720 -0.4224  0.0274
 4315TIP3    H134580   3.891   1.947   8.589 -1.2542 -0.4328 -2.2186
 4315TIP3    H234581   4.018   1.974   8.511  0.4656  0.1466  0.6500
 4316TIP3   OH234582   2.962   4.193   1.437 -0.0102 -0.2592  1.0414
 4316TIP3    H134583   3.020   4.134   1.389 -0.0123  0.2051  0.4686
 4316TIP3    H234584   3.020   4.258   1.475 -0.1252  0.0685  0.6637
 4317TIP3   OH234585   1.662   3.723   7.174 -0.5830  0.0853  0.4939
 4317TIP3    H134586   1.687   3.790   7.111 -0.0989 -0.6617 -0.1269
 4317TIP3    H234587   1.698   3.754   7.257  0.4906  0.1418  0.0319
 4318TIP3   OH234588   4.139   1.800   0.415  0.0124  0.2570 -0.1916
 4318TIP3    H134589   4.140   1.828   0.323 -1.4247  0.1098 -0.2714
 4318TIP3    H234590   4.121   1.706   0.412  0.1960  0.2043  0.2399
 4319TIP3   OH234591   1.166   0.588   6.574  0.2829 -0.2003  0.0680
 4319TIP3    H134592   1.075   0.592   6.545 -0.1019 -1.9044  0.9392
 4319TIP3    H234593   1.217   0.578   6.494 -0.3564 -0.0658 -0.3588
 4320TIP3   OH234594   4.171   0.687   1.746 -0.9246 -0.2816  0.0996
 4320TIP3    H134595   4.079   0.697   1.720 -0.9726 -1.1528 -0.1165
 4320TIP3    H234596   4.169   0.616   1.810 -0.3049 -0.9417 -0.5864
 4321TIP3   OH234597   3.691   0.300   1.768  0.2101  0.2165  0.5385
 4321TIP3    H134598   3.622   0.302   1.835  1.5383  2.6121  2.0041
 4321TIP3    H234599   3.759   0.245   1.806 -0.2921 -0.9941 -0.2816
 4322TIP3   OH234600   2.407   0.355   0.598  0.0646 -0.1565  0.0943
 4322TIP3    H134601   2.367   0.285   0.650 -1.4363 -0.4146 -1.3242
 4322TIP3    H234602   2.353   0.432   0.615  1.0915  0.4295  0.8425
 4323TIP3   OH234603   6.724   0.513   8.003 -0.3453  0.6734 -0.0945
 4323TIP3    H134604   6.642   0.537   7.960 -1.0360 -2.3894 -0.6745
 4323TIP3    H234605   6.698   0.475   8.087  0.6815  1.8724  0.8037
 4324TIP3   OH234606   0.920   0.687   0.975 -0.9219  0.3568  0.0513
 4324TIP3    H134607   0.956   0.742   0.905 -2.0558  1.3160  0.1927
 4324TIP3    H234608   0.893   0.749   1.042  0.1305 -0.5526  1.3649
 4325TIP3   OH234609   1.798   0.015   1.454  0.3019 -0.8494  0.3748
 4325TIP3    H134610   1.741   0.076   1.502  2.1532 -0.0501  1.6640
 4325TIP3    H234611   1.773  -0.071   1.488  0.4892 -0.4277  1.6366
 4326TIP3   OH234612   0.281   2.866   6.790 -0.1468  0.7376 -0.4822
 4326TIP3    H134613   0.222   2.922   6.841  1.6947  1.3527  1.1361
 4326TIP3    H234614   0.241   2.779   6.794 -0.8646  1.0960  0.7427
 4327TIP3   OH234615   3.039   6.531   2.087 -0.1339 -0.1182  0.1426
 4327TIP3    H134616   3.125   6.567   2.111  1.2042 -3.1578  0.3945
 4327TIP3    H234617   2.978   6.574   2.147  1.9521 -1.3918  3.5264
 4328TIP3   OH234618   2.471   3.002   0.484  0.1217  0.1319  0.2592
 4328TIP3    H134619   2.495   2.927   0.430  0.5989 -0.3191  1.0843
 4328TIP3    H234620   2.451   2.965   0.570 -1.2340  0.7669  0.2563
 4329TIP3   OH234621   4.498   2.370   0.783  0.4188  0.1210 -0.3695
 4329TIP3    H134622   4.455   2.423   0.715 -0.8942 -0.1768  0.1848
 4329TIP3    H234623   4.540   2.299   0.735  0.3529  0.4644 -0.9492
 4330TIP3   OH234624   6.440   2.349   2.046  0.6316 -0.2132 -0.1839
 4330TIP3    H134625   6.411   2.332   2.135 -0.5437 -1.4981 -0.7611
 4330TIP3    H234626   6.467   2.440   2.045  0.3912 -0.1127  1.4087
 4331TIP3   OH234627   0.955   4.893   2.051  0.8657  0.5368  0.6417
 4331TIP3    H134628   0.920   4.945   1.979 -0.1439 -0.0927  0.6682
 4331TIP3    H234629   0.925   4.804   2.034  0.9378  0.3100  1.6303
 4332TIP3   OH234630   2.567   2.149   8.302  0.0583  0.3099  0.0754
 4332TIP3    H134631   2.613   2.218   8.351 -0.3415  0.0624  0.8262
 4332TIP3    H234632   2.474   2.166   8.320 -0.2092  1.0960 -1.8045
 4333TIP3   OH234633   3.019   4.798   1.456  0.3289  0.3420 -0.2716
 4333TIP3    H134634   3.011   4.835   1.544  0.2749  1.7562 -0.8548
 4333TIP3    H234635   3.092   4.845   1.416  1.5601 -1.5633 -0.3903
 4334TIP3   OH234636   6.396   3.861   7.340  0.2040 -0.1881  0.0311
 4334TIP3    H134637   6.469   3.800   7.333  0.6245  0.2785  0.2248
 4334TIP3    H234638   6.429   3.931   7.397 -0.1487  0.3808 -0.4432
 4335TIP3   OH234639   0.409   6.522   7.625 -0.2932 -0.1030  0.2907
 4335TIP3    H134640   0.438   6.504   7.715 -1.5779  0.7503  0.9137
 4335TIP3    H234641   0.484   6.563   7.583 -0.6384  2.5806  2.0100
 4336TIP3   OH234642   5.988   3.779   0.335  0.4304 -0.3264 -0.1030
 4336TIP3    H134643   5.990   3.705   0.396  3.9216 -0.3949 -0.1097
 4336TIP3    H234644   5.920   3.756   0.272  0.0797 -2.5909  1.0017
 4337TIP3   OH234645   6.041   4.082   0.347  0.1911  0.2901 -0.1950
 4337TIP3    H134646   5.997   4.014   0.297  1.8260 -0.8483 -0.1794
 4337TIP3    H234647   5.981   4.103   0.418 -1.0128  0.0178 -1.1046
 4338TIP3   OH234648   2.432   2.940   1.276  0.3989  0.6689  0.2452
 4338TIP3    H134649   2.380   2.877   1.326  1.3843  0.3034  0.8347
 4338TIP3    H234650   2.503   2.964   1.335  0.9562  1.0799 -0.5800
 4339TIP3   OH234651   6.104   2.009   8.411  0.1511 -0.2342  0.3104
 4339TIP3    H134652   6.189   2.049   8.395  0.1205 -0.1890  0.2578
 4339TIP3    H234653   6.080   1.969   8.327 -0.7363  1.3905 -0.2590
 4340TIP3   OH234654   6.378   2.935   7.758 -0.0670  0.0657 -0.3682
 4340TIP3    H134655   6.422   2.995   7.819 -0.8665 -0.4342  0.7521
 4340TIP3    H234656   6.329   2.993   7.699  1.8389  0.6139 -1.4832
 4341TIP3   OH234657   1.502   1.185   7.898 -0.1625  0.2385 -0.4554
 4341TIP3    H134658   1.546   1.125   7.838 -1.5783 -0.9979 -0.3042
 4341TIP3    H234659   1.535   1.271   7.874  3.4801 -0.6732  0.5959
 4342TIP3   OH234660   2.594   2.141   7.035  0.3124  0.2509 -0.1048
 4342TIP3    H134661   2.553   2.054   7.042 -1.5814  0.9583 -1.6737
 4342TIP3    H234662   2.673   2.133   7.088  1.0213 -2.9178 -1.3643
 4343TIP3   OH234663   1.083   2.355   8.777  0.0704  0.6901 -0.1851
 4343TIP3    H134664   1.099   2.306   8.697 -1.3001  0.4061 -0.3243
 4343TIP3    H234665   1.026   2.298   8.829 -2.3392  2.4265 -0.7492
 4344TIP3   OH234666   6.357   0.873   8.784 -0.0866  0.0590 -0.0311
 4344TIP3    H134667   6.302   0.951   8.790 -0.6303 -0.3769  1.0225
 4344TIP3    H234668   6.443   0.902   8.815 -0.0678  0.4407 -0.4433
 4345TIP3   OH234669   1.141   6.051   0.571  0.1383 -0.4347 -0.3059
 4345TIP3    H134670   1.108   6.041   0.481  0.8322  1.1487 -0.7852
 4345TIP3    H234671   1.170   5.964   0.596  0.8623 -0.7321 -2.0333
 4346TIP3   OH234672   2.005   4.993   8.004  0.3311 -0.1458 -0.1096
 4346TIP3    H134673   2.079   4.949   8.044  1.0530 -0.3785 -1.6362
 4346TIP3    H234674   2.044   5.048   7.935 -1.0592 -2.9900 -3.4453
 4347TIP3   OH234675   2.315   4.313   2.596  0.2173 -0.1765 -0.5360
 4347TIP3    H134676   2.298   4.332   2.689 -0.6997  0.1609 -0.7578
 4347TIP3    H234677   2.274   4.228   2.582  1.0824 -0.6144 -0.4373
 4348TIP3   OH234678   1.340   0.825   0.858 -0.1890 -0.3586  0.0442
 4348TIP3    H134679   1.371   0.835   0.948  0.9245  0.4819 -0.4075
 4348TIP3    H234680   1.245   0.838   0.863 -0.4081 -2.1581  1.3470
 4349TIP3   OH234681   1.642   1.790   0.596 -0.2814  0.4601  0.0691
 4349TIP3    H134682   1.640   1.695   0.587 -0.4514  0.0862  3.0026
 4349TIP3    H234683   1.707   1.807   0.664 -1.5209  2.2761  0.8928
 4350TIP3   OH234684   5.948   4.474   7.889  0.2953 -0.2702 -0.2984
 4350TIP3    H134685   5.892   4.480   7.812 -0.5799 -0.8464  0.2676
 4350TIP3    H234686   5.888   4.480   7.963  1.2290  1.3502  0.3754
 4351TIP3   OH234687   5.886   4.643   0.496 -0.1723  0.1738 -0.4156
 4351TIP3    H134688   5.946   4.704   0.452  1.0180 -0.4164  0.3400
 4351TIP3    H234689   5.872   4.682   0.582 -0.5786  0.1180 -0.4584
 4352TIP3   OH234690   3.004   1.747   7.702 -0.1392 -0.6638 -0.0099
 4352TIP3    H134691   3.038   1.659   7.686  0.0836 -0.3387 -1.4441
 4352TIP3    H234692   3.065   1.785   7.765  0.0091 -1.3709  0.2901
 4353TIP3   OH234693   4.321   5.014   1.573  0.1763  0.2769  0.1166
 4353TIP3    H134694   4.327   4.926   1.536 -0.2306  0.4190 -0.2988
 4353TIP3    H234695   4.256   5.007   1.642 -0.0899  0.3202 -0.1283
 4354TIP3   OH234696   2.501   1.081   0.246 -0.3899 -0.7546  0.2142
 4354TIP3    H134697   2.593   1.100   0.227 -0.7444  1.6187  0.6092
 4354TIP3    H234698   2.463   1.059   0.160  0.1936 -0.0391 -0.2392
 4355TIP3   OH234699   6.675   0.547   0.503 -0.1638 -0.0039 -0.7706
 4355TIP3    H134700   6.696   0.574   0.414 -0.3493 -0.2979 -0.9074
 4355TIP3    H234701   6.718   0.462   0.513 -1.2582 -0.6192 -1.0602
 4356TIP3   OH234702   0.176   2.592   0.835 -0.1131 -0.2618 -0.1568
 4356TIP3    H134703   0.165   2.686   0.847 -0.3948 -0.3056 -0.0579
 4356TIP3    H234704   0.107   2.553   0.889  0.0560 -0.5269 -0.1306
 4357TIP3   OH234705   6.305   6.233   0.112 -0.2584 -0.6320  0.3888
 4357TIP3    H134706   6.358   6.305   0.147 -2.3553  1.4400 -0.4071
 4357TIP3    H234707   6.309   6.245   0.017 -2.4756 -0.0493  0.3131
 4358TIP3   OH234708   5.661   5.019   8.120  0.2884  0.2247 -0.0668
 4358TIP3    H134709   5.572   4.993   8.142  1.2125 -2.9186  0.5036
 4358TIP3    H234710   5.697   5.053   8.202  0.3328 -0.8864  0.3924
 4359TIP3   OH234711   5.360   5.055   7.760  0.0178  0.2543 -0.0362
 4359TIP3    H134712   5.342   5.147   7.776  1.2136  0.4029  0.5222
 4359TIP3    H234713   5.328   5.039   7.671 -0.7201  1.0494  0.0698
 4360TIP3   OH234714   3.725   3.112   8.221  0.1558 -0.3058  0.0001
 4360TIP3    H134715   3.788   3.122   8.292  1.1457 -1.3810 -0.7001
 4360TIP3    H234716   3.649   3.071   8.262  0.4739 -0.3362  0.5661
 4361TIP3   OH234717   1.037   3.939   2.186  0.5873  0.1304  0.2516
 4361TIP3    H134718   0.982   3.966   2.259 -1.9119 -2.9630 -0.2567
 4361TIP3    H234719   0.998   3.981   2.109 -1.0800 -1.8694 -0.0754
 4362TIP3   OH234720   5.355   2.453   1.539  0.1949  0.2097  0.3230
 4362TIP3    H134721   5.367   2.426   1.631 -0.1407 -0.1219  0.2701
 4362TIP3    H234722   5.271   2.415   1.514 -0.4860  1.6536  0.3646
 4363TIP3   OH234723   6.742   2.111   1.214 -0.0696 -0.2549  0.2217
 4363TIP3    H134724   6.709   2.181   1.158  0.9742  0.1002  0.0267
 4363TIP3    H234725   6.743   2.148   1.302  0.3691 -0.0602  0.1365
 4364TIP3   OH234726   2.664   5.764   6.666  0.2393 -0.1709  0.0535
 4364TIP3    H134727   2.734   5.706   6.697  0.8308  0.1771 -0.6056
 4364TIP3    H234728   2.709   5.835   6.622 -0.5055  0.5037  0.3455
 4365TIP3   OH234729   5.365   4.264   7.808 -0.2647  0.3516  0.3644
 4365TIP3    H134730   5.385   4.256   7.901 -2.1314  0.3223  0.8122
 4365TIP3    H234731   5.384   4.356   7.787  1.3451  0.0519  0.4421
 4366TIP3   OH234732   5.934   1.084   2.062 -0.0330  0.2477  0.1792
 4366TIP3    H134733   6.004   1.131   2.016  0.9160 -1.8195 -0.6075
 4366TIP3    H234734   5.941   0.994   2.031 -1.0236 -0.7116  2.5114
 4367TIP3   OH234735   2.074   4.680   2.002 -0.2721 -0.3861  0.0049
 4367TIP3    H134736   2.160   4.723   2.005 -1.1388  1.6748 -1.7303
 4367TIP3    H234737   2.024   4.724   2.071 -0.4691 -0.2690 -0.2131
 4368TIP3   OH234738   3.512   1.722   7.890  0.9964  0.2756  0.0135
 4368TIP3    H134739   3.481   1.793   7.835  1.4066  0.9324  0.6171
 4368TIP3    H234740   3.571   1.672   7.834  3.2659  2.2742  0.4806
 4369TIP3   OH234741   0.170   5.948   8.756 -0.6113 -0.1881  0.1268
 4369TIP3    H134742   0.111   5.919   8.687 -0.4831 -0.7183  0.2321
 4369TIP3    H234743   0.140   5.902   8.834 -1.6123  1.4384  0.7520
 4370TIP3   OH234744   1.239   6.163   0.950  0.0995  0.4445  0.1708
 4370TIP3    H134745   1.276   6.101   1.013  1.3485  1.6167  0.6489
 4370TIP3    H234746   1.307   6.173   0.884 -0.2143  1.0711 -0.0643
 4371TIP3   OH234747   6.648   4.969   7.914 -0.2052 -0.1095 -0.8354
 4371TIP3    H134748   6.562   5.007   7.930 -0.2339  0.0354 -1.3041
 4371TIP3    H234749   6.688   4.962   8.000 -0.2974  0.7551 -0.7164
 4372TIP3   OH234750   3.695   3.950   2.035  0.3623  0.4198 -0.5397
 4372TIP3    H134751   3.728   3.873   2.082 -0.5587  0.9797  1.0846
 4372TIP3    H234752   3.624   3.915   1.980 -0.7885  0.2244  1.0013
 4373TIP3   OH234753   2.809   5.987   7.844  0.3565  0.0880  0.0605
 4373TIP3    H134754   2.850   6.011   7.927  0.4096 -3.1302  1.1158
 4373TIP3    H234755   2.879   5.947   7.793  0.0863  1.0996 -1.1546
 4374TIP3   OH234756   2.316   4.322   8.676  0.2503  0.2292  0.0011
 4374TIP3    H134757   2.347   4.278   8.756  0.7468  0.0238 -0.2960
 4374TIP3    H234758   2.276   4.252   8.624  0.5176  0.2306 -0.2138
 4375TIP3   OH234759   3.105   4.287   7.204  0.2054 -0.0409 -0.6668
 4375TIP3    H134760   3.048   4.273   7.127  0.6666  1.9599 -1.4305
 4375TIP3    H234761   3.050   4.336   7.265  0.0914 -0.9650 -0.0097
 4376TIP3   OH234762   1.170   6.018   1.277  0.2682 -0.2519 -0.2134
 4376TIP3    H134763   1.120   5.982   1.205 -0.8795  2.0719 -0.6624
 4376TIP3    H234764   1.229   5.947   1.304  0.3407 -1.3587 -3.0251
 4377TIP3   OH234765   3.717   2.202   0.535  0.3538  0.2135  0.1481
 4377TIP3    H134766   3.735   2.167   0.447  0.7010 -3.4795  1.5244
 4377TIP3    H234767   3.631   2.243   0.527 -0.1968 -1.1487 -1.6932
 4378TIP3   OH234768   6.604   3.436   8.200  0.2250 -0.3525  0.0051
 4378TIP3    H134769   6.602   3.461   8.108  1.0391  1.3643  0.4062
 4378TIP3    H234770   6.695   3.411   8.216 -0.2025 -1.9995  0.0463
 4379TIP3   OH234771   2.868   3.044   2.502  0.1166 -0.2839  0.1664
 4379TIP3    H134772   2.795   3.031   2.563 -0.3611  1.9064  0.1368
 4379TIP3    H234773   2.917   3.117   2.538  0.5547  0.2361 -1.4034
 4380TIP3   OH234774   2.800   0.658   0.742 -0.7621 -0.2327  0.6032
 4380TIP3    H134775   2.777   0.737   0.694 -2.5148 -1.3230 -0.4709
 4380TIP3    H234776   2.760   0.670   0.829 -0.3974  0.3473  0.6968
 4381TIP3   OH234777   4.099   3.848   1.120  0.3840 -0.8638  0.4985
 4381TIP3    H134778   4.132   3.824   1.207  0.8017  1.8739  1.1840
 4381TIP3    H234779   4.006   3.828   1.122  0.5113 -1.3964  1.3375
 4382TIP3   OH234780   0.833   5.527   0.162  0.7243  0.4537 -0.4947
 4382TIP3    H134781   0.766   5.462   0.187  2.1186  0.1951  3.2267
 4382TIP3    H234782   0.912   5.475   0.149  1.5745  1.1906  1.3596
 4383TIP3   OH234783   6.490   5.574   6.970  0.1368  0.3666 -0.1872
 4383TIP3    H134784   6.400   5.541   6.962  0.0009  0.8840 -0.9217
 4383TIP3    H234785   6.521   5.581   6.880  1.0523 -0.1626  0.0822
 4384TIP3   OH234786   1.138   0.234   7.407  0.1555 -0.0354 -0.3252
 4384TIP3    H134787   1.109   0.220   7.318  0.7588 -0.7461 -0.4196
 4384TIP3    H234788   1.224   0.277   7.398 -0.7181  1.8719 -0.0584
 4385TIP3   OH234789   1.685   4.540   2.177  0.2829 -0.1744  0.1271
 4385TIP3    H134790   1.642   4.572   2.257  1.6196 -0.7720  1.1298
 4385TIP3    H234791   1.619   4.484   2.136 -1.0345  1.4612 -0.1097
 4386TIP3   OH234792   6.798   2.882   8.614  0.0993  0.0201  0.5942
 4386TIP3    H134793   6.882   2.870   8.570  0.3107  1.8615  0.3994
 4386TIP3    H234794   6.739   2.914   8.545  0.0831  1.6737  1.3311
 4387TIP3   OH234795   1.355   3.983   0.995 -0.0629  0.6345  0.1144
 4387TIP3    H134796   1.273   4.025   0.970  1.0634  1.4507 -2.5345
 4387TIP3    H234797   1.415   4.055   1.014  0.8842  0.1960 -1.0164
 4388TIP3   OH234798   6.569   3.487   0.366 -0.2841  0.0749 -0.2834
 4388TIP3    H134799   6.625   3.563   0.378 -1.6513  1.0673  0.0434
 4388TIP3    H234800   6.562   3.449   0.454 -1.6129  1.0608  0.0658
 4389TIP3   OH234801   1.870   3.763   6.739  0.0423 -0.8700 -0.1469
 4389TIP3    H134802   1.817   3.809   6.804  1.0701 -0.7329  0.6044
 4389TIP3    H234803   1.869   3.821   6.662 -0.6931 -0.7614 -0.0598
 4390TIP3   OH234804   6.398   2.102   1.827 -0.8181  0.2695 -0.1639
 4390TIP3    H134805   6.347   2.166   1.778 -0.6854  0.8389  0.4206
 4390TIP3    H234806   6.463   2.155   1.874 -0.8544 -0.2633  0.5045
 4391TIP3   OH234807   3.865   6.116   8.263  0.7702  0.2621  0.0902
 4391TIP3    H134808   3.797   6.052   8.285 -0.9099  1.8124 -0.3960
 4391TIP3    H234809   3.911   6.078   8.189 -0.8067  0.0043 -0.7952
 4392TIP3   OH234810   1.970   2.971   7.823  0.2130  0.1611  0.5788
 4392TIP3    H134811   1.999   2.880   7.815 -1.2870 -0.3308  0.4470
 4392TIP3    H234812   1.931   2.991   7.738  1.2954  1.2393  0.2974
 4393TIP3   OH234813   4.424   6.742   1.243 -0.4293 -0.6966  0.1343
 4393TIP3    H134814   4.430   6.825   1.290 -1.0325 -1.0398  0.8147
 4393TIP3    H234815   4.483   6.683   1.290 -0.5528 -0.8629  0.0821
 4394TIP3   OH234816   4.614   5.569   8.125 -0.0207 -0.1949 -0.2176
 4394TIP3    H134817   4.624   5.512   8.202  0.5690  1.2714  0.8475
 4394TIP3    H234818   4.697   5.559   8.077 -0.3039 -0.9488 -0.5637
 4395TIP3   OH234819   4.297   3.530   6.767 -0.0539  0.1606  0.5456
 4395TIP3    H134820   4.328   3.456   6.715 -0.8263  0.3613 -0.2151
 4395TIP3    H234821   4.351   3.604   6.737  0.5347 -0.0285  1.1167
 4396TIP3   OH234822   4.412   3.360   8.530 -0.1166  0.1385  0.4693
 4396TIP3    H134823   4.407   3.265   8.539 -2.0124  0.3075  1.6975
 4396TIP3    H234824   4.441   3.391   8.615  0.2986  0.6709  0.1345
 4397TIP3   OH234825   1.186   3.446   1.602  0.7004 -0.5596  0.1999
 4397TIP3    H134826   1.154   3.535   1.615  1.0969 -0.1907 -1.1787
 4397TIP3    H234827   1.145   3.395   1.672 -0.6143  0.4423  0.1969
 4398TIP3   OH234828   4.926   1.395   8.752 -0.3391  0.2448 -0.1247
 4398TIP3    H134829   4.929   1.462   8.821 -1.2942  0.3395 -0.1676
 4398TIP3    H234830   4.990   1.425   8.687  0.4037  0.2738  0.6037
 4399TIP3   OH234831   4.979   1.146   2.083 -0.1131 -0.5497 -0.1811
 4399TIP3    H134832   4.889   1.112   2.083 -0.2486 -0.3321 -2.4249
 4399TIP3    H234833   4.976   1.222   2.025  1.1195  0.6979  1.3208
 4400TIP3   OH234834   0.918   0.439   7.753 -0.1584 -0.0462 -0.0977
 4400TIP3    H134835   0.923   0.344   7.768 -0.1182  0.0068  0.2302
 4400TIP3    H234836   0.825   0.457   7.747 -0.1381 -0.4443 -2.3857
 4401TIP3   OH234837   2.147   5.025   0.242  0.3360  0.1476  0.3021
 4401TIP3    H134838   2.192   4.942   0.231  0.0365 -0.1914  1.4644
 4401TIP3    H234839   2.118   5.050   0.154  1.6298 -0.2825 -0.2543
 4402TIP3   OH234840   3.615   1.367   6.447  0.4908 -0.1512 -0.6827
 4402TIP3    H134841   3.641   1.275   6.445  1.8882  0.0861  2.1255
 4402TIP3    H234842   3.532   1.368   6.495  1.7246  0.1990  1.5641
 4403TIP3   OH234843   0.199   3.657   7.282 -0.1610 -0.1096  0.2975
 4403TIP3    H134844   0.172   3.715   7.211 -0.4954 -0.7909 -0.1482
 4403TIP3    H234845   0.274   3.609   7.246 -0.7110 -0.8919  0.1694
 4404TIP3   OH234846   2.879   0.199   1.386 -0.6632 -0.3322 -0.0203
 4404TIP3    H134847   2.822   0.127   1.358  1.6552 -1.5226 -2.0826
 4404TIP3    H234848   2.890   0.253   1.307  1.9817 -0.8485 -0.0993
 4405TIP3   OH234849   3.295   0.252   8.755  0.0523  0.3819  0.1777
 4405TIP3    H134850   3.369   0.191   8.758  0.8745  1.3394  0.1256
 4405TIP3    H234851   3.336   0.338   8.751 -1.0827  0.9575  0.5673
 4406TIP3   OH234852   5.164   5.265   2.062  0.3112 -0.3803  0.2964
 4406TIP3    H134853   5.182   5.300   2.149 -0.7260  1.2688 -0.1085
 4406TIP3    H234854   5.236   5.298   2.008  0.5058 -0.7024  0.3590
 4407TIP3   OH234855   2.227   1.805   6.244  0.2102 -0.1165 -0.5629
 4407TIP3    H134856   2.170   1.759   6.306  1.0923  0.4025  0.6905
 4407TIP3    H234857   2.313   1.765   6.257  0.4400  0.0982 -1.3674
 4408TIP3   OH234858   1.716   2.502   1.001 -0.1597  0.2574 -0.1534
 4408TIP3    H134859   1.748   2.487   0.912 -0.9849 -0.5642 -0.3277
 4408TIP3    H234860   1.702   2.415   1.037 -0.4334  0.5841  0.5574
 4409TIP3   OH234861   1.093   6.592   7.906  0.5506  0.3182 -0.0630
 4409TIP3    H134862   1.005   6.581   7.942  0.1077  0.4290 -1.0703
 4409TIP3    H234863   1.119   6.504   7.879  1.6311 -0.0815  2.1536
 4410TIP3   OH234864   6.738   6.097   7.944 -0.2513 -0.3554 -0.2689
 4410TIP3    H134865   6.758   6.190   7.943  0.7113 -0.5550 -0.3853
 4410TIP3    H234866   6.798   6.058   7.881  0.2228 -1.2122  0.6679
 4411TIP3   OH234867   0.650   2.941   0.296  0.4805  0.4403 -0.3721
 4411TIP3    H134868   0.592   2.980   0.362  0.7016 -0.7635  0.5921
 4411TIP3    H234869   0.709   2.885   0.347  1.3768  0.3179 -1.5057
 4412TIP3   OH234870   3.099   1.735   8.136 -0.4091  0.5977  0.7404
 4412TIP3    H134871   3.147   1.671   8.188 -0.2157  1.4011  1.5872
 4412TIP3    H234872   3.166   1.778   8.083 -0.5408  0.0907  0.1606
 4413TIP3   OH234873   3.821   2.787   6.762 -0.9240  0.4210  1.1347
 4413TIP3    H134874   3.892   2.830   6.810 -0.8116  0.7140  0.7181
 4413TIP3    H234875   3.866   2.731   6.698 -1.0690  0.1162  1.2985
 4414TIP3   OH234876   1.134   2.328   0.489 -0.1578 -0.3025 -0.2525
 4414TIP3    H134877   1.080   2.252   0.469 -0.3765 -0.3323  0.4439
 4414TIP3    H234878   1.208   2.293   0.538  0.3266 -0.2168 -0.9115
 4415TIP3   OH234879   2.998   4.257   0.101  0.3264 -0.1291 -0.4995
 4415TIP3    H134880   2.933   4.199   0.139  1.8781 -1.1120  0.7760
 4415TIP3    H234881   3.039   4.300   0.176  0.2642  1.5062 -1.3377
 4416TIP3   OH234882   1.249   2.399   6.606 -0.1277  0.1108 -0.1173
 4416TIP3    H134883   1.297   2.398   6.689  0.1360  0.1995 -0.2698
 4416TIP3    H234884   1.200   2.317   6.606  0.5439 -0.2951 -0.2730
 4417TIP3   OH234885   5.848   1.413   6.461  0.5715  0.8356  0.1327
 4417TIP3    H134886   5.769   1.457   6.490 -0.3821  0.3693 -1.6035
 4417TIP3    H234887   5.820   1.324   6.438  1.8270  0.3014  0.5364
 4418TIP3   OH234888   5.582   0.877   8.093 -0.5299  0.7930 -0.2101
 4418TIP3    H134889   5.506   0.843   8.140  0.5016 -2.6932 -0.7256
 4418TIP3    H234890   5.559   0.868   8.001  0.7380 -1.2573 -0.3975
 4419TIP3   OH234891   0.998   5.934   2.349 -0.4681  0.5289 -0.0208
 4419TIP3    H134892   0.904   5.916   2.343 -0.4877 -0.5584  2.4806
 4419TIP3    H234893   1.002   6.029   2.365 -0.9664  0.9684 -2.1538
 4420TIP3   OH234894   2.367   0.289   1.495 -0.3022  0.6018  0.1195
 4420TIP3    H134895   2.301   0.357   1.514 -0.6880  0.0277  0.8829
 4420TIP3    H234896   2.451   0.333   1.509 -0.5472  0.9283  0.5961
 4421TIP3   OH234897   1.188   4.327   8.658  0.0223 -0.3807  0.4467
 4421TIP3    H134898   1.249   4.267   8.701 -0.4523 -1.7837 -0.7567
 4421TIP3    H234899   1.127   4.353   8.727  0.9034 -0.4074  1.2440
 4422TIP3   OH234900   1.330   1.303   7.616  0.4766  0.5902  0.7691
 4422TIP3    H134901   1.285   1.234   7.665 -3.1337  0.4025 -2.4004
 4422TIP3    H234902   1.272   1.379   7.623  0.0116  0.6810 -2.6635
 4423TIP3   OH234903   1.071   5.037   7.946 -0.2157 -0.8115  0.1446
 4423TIP3    H134904   1.062   5.127   7.975 -0.1586  0.3686 -3.0717
 4423TIP3    H234905   1.141   5.040   7.881 -0.8322 -2.9864 -0.7031
 4424TIP3   OH234906   1.248   2.805   8.711 -0.1525  0.5382 -0.2780
 4424TIP3    H134907   1.293   2.859   8.775 -0.7800  0.4760  0.2178
 4424TIP3    H234908   1.181   2.758   8.760  1.2201 -1.7527 -0.4216
 4425TIP3   OH234909   2.956   6.393   8.790  0.1874 -0.2483 -0.4279
 4425TIP3    H134910   2.948   6.420   8.882  0.4046 -1.3929 -0.0604
 4425TIP3    H234911   2.886   6.329   8.777 -1.3976  1.6453 -1.7710
 4426TIP3   OH234912   6.488   4.941   0.324 -0.2601  0.2935  0.7318
 4426TIP3    H134913   6.564   4.883   0.327 -0.5460 -0.0615  1.5228
 4426TIP3    H234914   6.419   4.892   0.369 -1.0434  0.4911 -0.2240
 4427TIP3   OH234915   0.608   4.224   1.007 -0.0426  0.0389 -0.0454
 4427TIP3    H134916   0.693   4.266   1.018 -1.0228  1.7442  1.6364
 4427TIP3    H234917   0.597   4.218   0.912  0.8144  2.2768 -0.3590
 4428TIP3   OH234918   2.073   0.579   0.120  0.0074  0.8763 -0.5151
 4428TIP3    H134919   1.981   0.580   0.093  0.1208 -0.4373 -1.0207
 4428TIP3    H234920   2.120   0.614   0.044 -0.0030  0.7143 -0.5972
 4429TIP3   OH234921   6.793   4.738   8.377 -0.2826 -0.0636 -0.4030
 4429TIP3    H134922   6.833   4.663   8.333 -0.6387  0.8488 -2.4151
 4429TIP3    H234923   6.700   4.732   8.356 -0.3998  0.6208 -0.1121
 4430TIP3   OH234924   0.032   1.681   1.489  0.1238 -0.3854 -0.2805
 4430TIP3    H134925  -0.027   1.724   1.426 -0.4276  1.6347  1.4885
 4430TIP3    H234926   0.105   1.742   1.499  0.4351 -0.8885  0.6590
 4431TIP3   OH234927   0.076   4.055   1.282 -0.0039  0.0758  0.0261
 4431TIP3    H134928   0.023   4.059   1.362  0.3289  0.7537  0.2238
 4431TIP3    H234929   0.015   4.077   1.212 -0.3513 -0.7422  0.0635
 4432TIP3   OH234930   2.593   5.513   0.178  0.0407 -0.2547 -0.8643
 4432TIP3    H134931   2.506   5.528   0.215  1.1555 -0.5166  2.1366
 4432TIP3    H234932   2.587   5.427   0.136 -0.6925 -1.2229  1.0987
 4433TIP3   OH234933   1.022   0.290   1.014  0.7221 -0.0264  0.4817
 4433TIP3    H134934   0.963   0.225   0.977 -1.4188  1.7640  0.5803
 4433TIP3    H234935   1.073   0.322   0.939 -0.7393  0.6856 -0.2545
 4434TIP3   OH234936   2.796   3.403   6.563 -0.5388  0.1992 -0.0295
 4434TIP3    H134937   2.862   3.472   6.568 -1.2046  0.7805  1.0428
 4434TIP3    H234938   2.808   3.365   6.476  2.4515 -0.9801  0.7687
 4435TIP3   OH234939   0.102   5.755   2.453  0.5420 -0.3777  0.2722
 4435TIP3    H134940   0.172   5.820   2.459 -1.6072  2.3839 -1.6253
 4435TIP3    H234941   0.049   5.771   2.531 -0.7769  1.2989 -0.8980
 4436TIP3   OH234942   0.611   2.477   1.801  0.0998  0.0654  0.7037
 4436TIP3    H134943   0.626   2.559   1.754 -1.7941 -0.7600 -1.5290
 4436TIP3    H234944   0.691   2.426   1.789  0.0855  0.3466 -0.6768
 4437TIP3   OH234945   5.891   3.034   8.615 -0.0069 -0.3911  0.6553
 4437TIP3    H134946   5.882   3.011   8.708 -0.1139 -0.6486  0.5830
 4437TIP3    H234947   5.978   3.075   8.609 -0.2888  0.2755  0.9952
 4438TIP3   OH234948   4.183   4.821   2.022  0.2601 -0.4535  0.5334
 4438TIP3    H134949   4.140   4.754   2.075  0.5945 -0.9497  0.1819
 4438TIP3    H234950   4.276   4.804   2.032  0.4362  1.1898  2.0323
 4439TIP3   OH234951   0.702   6.292   2.115  0.4345 -0.6237  0.2682
 4439TIP3    H134952   0.774   6.355   2.118 -0.1334  0.1373 -1.3036
 4439TIP3    H234953   0.627   6.341   2.149  0.5072 -1.2345  1.3455
 4440TIP3   OH234954   6.089   2.054   7.428  0.1004 -0.3091  0.3682
 4440TIP3    H134955   6.018   2.118   7.434  0.5187  0.3296 -1.0415
 4440TIP3    H234956   6.113   2.037   7.519 -1.2931  0.0878  0.8383
 4441TIP3   OH234957   2.925   5.920   7.462  0.5316 -0.2648 -0.3006
 4441TIP3    H134958   2.928   5.903   7.556 -0.3000  1.0516 -0.0125
 4441TIP3    H234959   2.859   5.988   7.451 -0.0300 -1.0128 -1.9490
 4442TIP3   OH234960   0.533   4.922   0.518 -0.1567  0.0260 -0.0905
 4442TIP3    H134961   0.593   4.910   0.592 -1.3439 -4.2657  0.4634
 4442TIP3    H234962   0.590   4.944   0.445  1.4910  0.8729  1.3715
 4443TIP3   OH234963   2.167   1.911   7.812 -0.6610  0.4835  0.0312
 4443TIP3    H134964   2.256   1.931   7.843 -1.2958 -0.9234  3.2112
 4443TIP3    H234965   2.181   1.850   7.739  1.0126  0.6159  0.1948
 4444TIP3   OH234966   2.618   3.446   8.593 -0.1315  0.4499  0.5162
 4444TIP3    H134967   2.670   3.455   8.673 -0.3146 -0.7571  0.7939
 4444TIP3    H234968   2.570   3.364   8.605 -1.7684  1.2992  0.0702
 4445TIP3   OH234969   1.362   1.871   2.191  0.4334  0.2921  0.6648
 4445TIP3    H134970   1.402   1.955   2.214  1.5012  0.4906 -1.6028
 4445TIP3    H234971   1.412   1.806   2.241  1.9381  0.7667 -0.1608
 4446TIP3   OH234972   5.057   3.852   7.444  0.1838 -0.0859  0.1392
 4446TIP3    H134973   4.967   3.849   7.476  0.0557 -0.4995 -0.2463
 4446TIP3    H234974   5.052   3.908   7.366  0.3691  0.3674  0.4498
 4447TIP3   OH234975   3.626   4.533   1.103 -1.3098  0.1935 -0.1469
 4447TIP3    H134976   3.674   4.483   1.037 -2.7777  0.9668 -1.8712
 4447TIP3    H234977   3.590   4.466   1.162 -1.1404 -0.6193 -0.9474
 4448TIP3   OH234978   5.249   2.377   7.763  0.3063 -0.2417  0.2004
 4448TIP3    H134979   5.170   2.354   7.810 -0.0789  0.8022  0.0829
 4448TIP3    H234980   5.233   2.350   7.672  1.0719 -2.3063  0.6289
 4449TIP3   OH234981   3.308   3.989   8.114 -0.1789 -0.4631 -0.3762
 4449TIP3    H134982   3.273   4.077   8.126  0.1140 -0.3856 -0.0684
 4449TIP3    H234983   3.270   3.937   8.186  1.2726 -0.0897  0.7142
 4450TIP3   OH234984   1.122   0.281   1.824  0.2490  0.3621 -0.0932
 4450TIP3    H134985   1.063   0.235   1.764  0.4746  0.4670 -0.4008
 4450TIP3    H234986   1.210   0.261   1.791  0.4037 -0.0914  0.5802
 4451TIP3   OH234987   2.663   4.849   6.498  0.2540  0.0518  0.4672
 4451TIP3    H134988   2.636   4.827   6.409 -0.1532 -1.3488  0.9061
 4451TIP3    H234989   2.604   4.920   6.525 -1.4860 -1.3687  0.5774
 4452TIP3   OH234990   1.976   3.062   8.122 -0.2459 -0.0253  0.0539
 4452TIP3    H134991   1.956   3.015   8.041  0.8432  0.6817 -0.6433
 4452TIP3    H234992   2.062   3.099   8.108 -1.3506  2.8371  0.2599
 4453TIP3   OH234993   6.309   5.301   0.082 -0.1497 -0.2871  0.2970
 4453TIP3    H134994   6.308   5.210   0.055  1.9908  0.1221 -1.4521
 4453TIP3    H234995   6.391   5.312   0.129 -0.2422  0.7911  0.2418
 4454TIP3   OH234996   3.696   1.523   1.297  0.3622 -0.5501  0.3675
 4454TIP3    H134997   3.753   1.595   1.327  1.4831 -0.0797 -2.5516
 4454TIP3    H234998   3.755   1.448   1.290  0.3621 -0.4323 -1.2925
 4455TIP3   OH234999   2.033   4.580   1.748  0.4774  0.8174 -0.7556
 4455TIP3    H135000   2.101   4.513   1.738  1.2440  1.6342 -1.1291
 4455TIP3    H235001   2.053   4.622   1.831 -0.5383  0.0214 -0.0742
 4456TIP3   OH235002   6.336   3.374   0.741 -0.0194 -0.1479  0.3810
 4456TIP3    H135003   6.315   3.321   0.819 -0.5140 -0.0744  0.2978
 4456TIP3    H235004   6.354   3.461   0.775  1.3833 -0.4841  0.5869
 4457TIP3   OH235005   5.650   3.275   0.891 -0.1727  0.1874 -0.0823
 4457TIP3    H135006   5.734   3.239   0.919 -1.3039 -1.3886  1.5114
 4457TIP3    H235007   5.648   3.260   0.796  2.3720  2.6425 -0.6552
 4458TIP3   OH235008   2.098   4.470   1.373  0.1504 -0.1945 -0.2493
 4458TIP3    H135009   2.005   4.469   1.394  0.4533 -2.9010  1.5560
 4458TIP3    H235010   2.128   4.557   1.399 -1.9880  1.1358 -1.9044
 4459TIP3   OH235011   2.401   4.010   1.211 -0.3738 -0.1260  1.1464
 4459TIP3    H135012   2.409   4.047   1.123 -1.5857 -2.2104  0.0773
 4459TIP3    H235013   2.363   4.082   1.263  1.5457  1.5622  0.3484
 4460TIP3   OH235014   2.002   5.958   1.180 -0.1553  0.4047 -0.1313
 4460TIP3    H135015   1.964   6.011   1.109  0.1365  0.3194 -0.3574
 4460TIP3    H235016   1.964   5.993   1.260 -2.5993 -1.2179 -0.4697
 4461TIP3   OH235017   1.413   0.025   7.245  0.2679  0.7638 -0.6363
 4461TIP3    H135018   1.441   0.107   7.204 -0.1559  1.6087  0.6694
 4461TIP3    H235019   1.491  -0.030   7.244  0.6488  1.2904 -1.2770
 4462TIP3   OH235020   5.857   1.588   0.645 -0.0807 -0.5497 -0.6841
 4462TIP3    H135021   5.766   1.607   0.622 -0.3800 -0.6239  0.3636
 4462TIP3    H235022   5.890   1.534   0.573 -1.1827 -1.3677 -0.5963
 4463TIP3   OH235023   2.388   4.770   0.879 -0.1996  0.3188  0.3631
 4463TIP3    H135024   2.439   4.789   0.958  1.1410 -1.5712  0.0270
 4463TIP3    H235025   2.446   4.794   0.807 -0.5434 -0.0418 -0.0334
 4464TIP3   OH235026   3.409   6.054   8.272 -0.0801 -0.6406  0.4450
 4464TIP3    H135027   3.356   6.010   8.338 -0.6067  0.0690  0.4997
 4464TIP3    H235028   3.347   6.079   8.204  0.3547 -0.7652 -0.0093
 4465TIP3   OH235029   3.425   1.922   0.596 -0.5128 -0.2460  0.7402
 4465TIP3    H135030   3.451   1.871   0.673 -2.5600  0.4509  1.9948
 4465TIP3    H235031   3.428   2.013   0.625  1.8550  0.3422 -1.0719
 4466TIP3   OH235032   2.804   4.143   2.013 -0.1320  0.2908  0.5075
 4466TIP3    H135033   2.869   4.196   2.060  0.6235 -0.5067  0.3984
 4466TIP3    H235034   2.778   4.197   1.938  0.1711  0.7501  0.7322
 4467TIP3   OH235035   1.541   5.402   7.453  0.1038  0.7829  0.0707
 4467TIP3    H135036   1.516   5.399   7.545  0.2426  1.7326  0.1574
 4467TIP3    H235037   1.566   5.313   7.431  3.1105  1.0704  1.8232
 4468TIP3   OH235038   3.836   3.933   0.816  0.1496 -0.2750 -0.2553
 4468TIP3    H135039   3.874   3.901   0.734 -0.7264  1.3341 -1.3508
 4468TIP3    H235040   3.879   4.017   0.830 -0.2455 -0.2006  0.5491
 4469TIP3   OH235041   6.103   4.432   7.581  0.1645  0.5779 -0.6920
 4469TIP3    H135042   6.090   4.386   7.664  0.6135  0.4909 -0.6650
 4469TIP3    H235043   6.198   4.434   7.569  0.1426  1.2902 -0.8143
 4470TIP3   OH235044   6.092   5.879   7.116 -0.8905  0.2718 -0.2278
 4470TIP3    H135045   6.072   5.956   7.170  0.1956  0.5500 -0.1842
 4470TIP3    H235046   6.087   5.805   7.177 -0.9220  0.4379 -0.0271
 4471TIP3   OH235047   3.743   0.832   0.740 -0.1059  0.3976  0.4229
 4471TIP3    H135048   3.748   0.927   0.741  3.1597  0.3292  0.5473
 4471TIP3    H235049   3.833   0.803   0.730 -1.1719 -2.7026 -1.7625
 4472TIP3   OH235050   1.520   0.038   1.195 -0.1042 -0.1645 -0.2850
 4472TIP3    H135051   1.567  -0.012   1.262 -1.3903  0.1256  0.8812
 4472TIP3    H235052   1.560   0.125   1.198 -1.2369  0.3553  1.3457
 4473TIP3   OH235053   0.992   1.439   8.603  0.4327 -0.1580  0.1067
 4473TIP3    H135054   1.011   1.532   8.615 -0.6570 -0.1302  1.9508
 4473TIP3    H235055   0.951   1.412   8.685 -2.3676 -1.4563 -1.5817
 4474TIP3   OH235056   5.465   6.356   1.500 -0.0015 -0.5199 -0.3023
 4474TIP3    H135057   5.422   6.355   1.585  3.0255  0.6686  1.3912
 4474TIP3    H235058   5.404   6.402   1.442 -1.5206 -0.0679  1.5664
 4475TIP3   OH235059   1.835   2.923   8.422  0.2112  0.3006  0.2803
 4475TIP3    H135060   1.927   2.928   8.397  0.2481  1.7772  0.6228
 4475TIP3    H235061   1.799   3.010   8.401 -1.0363 -0.1555  0.4156
 4476TIP3   OH235062   1.928   4.555   0.478  0.5360  0.8151 -0.6939
 4476TIP3    H135063   1.990   4.512   0.537  0.4483  0.6714 -0.7047
 4476TIP3    H235064   1.873   4.608   0.536  0.5469  0.7922 -0.6625
 4477TIP3   OH235065   6.709   1.634   6.213 -0.7065  0.2683 -0.3335
 4477TIP3    H135066   6.654   1.642   6.135  0.4182 -0.0519 -1.1843
 4477TIP3    H235067   6.672   1.560   6.260 -0.0418 -1.0233 -1.7450
 4478TIP3   OH235068   2.312   5.167   8.772  0.4248 -0.5413  0.1510
 4478TIP3    H135069   2.385   5.174   8.833  1.0003  1.1856 -0.6424
 4478TIP3    H235070   2.319   5.079   8.735  0.9705 -1.0593  1.4479
 4479TIP3   OH235071   5.731   0.170   7.845  0.7231  0.0830  0.4857
 4479TIP3    H135072   5.652   0.131   7.882  1.3761 -0.2535  1.5356
 4479TIP3    H235073   5.738   0.256   7.888  0.3493  0.5799 -0.4060
 4480TIP3   OH235074   2.130   2.952   1.599 -0.4251 -0.6802  0.7102
 4480TIP3    H135075   2.055   3.012   1.601 -1.1877 -1.6203  0.8869
 4480TIP3    H235076   2.163   2.952   1.688 -1.1951 -1.4484  1.0137
 4481TIP3   OH235077   5.231   3.717   7.648 -0.0404 -0.0875  0.4030
 4481TIP3    H135078   5.193   3.738   7.563 -1.6426  0.2514  1.1750
 4481TIP3    H235079   5.166   3.661   7.690  0.9429 -0.6420  1.2424
 4482TIP3   OH235080   3.849   2.389   7.699 -0.3970  0.6651 -0.1260
 4482TIP3    H135081   3.887   2.437   7.773  0.4903 -0.1039 -0.0632
 4482TIP3    H235082   3.759   2.422   7.693 -1.2633 -0.7980  2.7171
 4483TIP3   OH235083   5.006   4.154   1.814  0.6857  0.1718 -0.3630
 4483TIP3    H135084   4.922   4.192   1.791  1.4111  1.4660 -0.9933
 4483TIP3    H235085   4.996   4.126   1.905 -0.5050  0.0115 -0.5277
 4484TIP3   OH235086   4.699   3.774   0.967 -0.0173 -0.5039 -0.1881
 4484TIP3    H135087   4.717   3.712   1.037  0.3319 -1.6715 -1.2832
 4484TIP3    H235088   4.714   3.860   1.007  1.6460 -1.1833  0.7746
 4485TIP3   OH235089   1.019   2.154   7.562  0.0989  0.2497  0.1561
 4485TIP3    H135090   0.933   2.192   7.546 -0.7739 -0.3392  2.9887
 4485TIP3    H235091   1.079   2.228   7.555 -0.9048  1.1096  0.3036
 4486TIP3   OH235092   4.097   0.929   8.417  0.3654 -0.1782  0.2292
 4486TIP3    H135093   4.102   1.021   8.443 -2.4862 -0.2399  1.2952
 4486TIP3    H235094   4.042   0.929   8.339 -0.0914 -1.0427  0.5467
 4487TIP3   OH235095   5.272   6.784   8.669  0.4236 -0.2126 -0.9477
 4487TIP3    H135096   5.203   6.840   8.706  2.1711  0.6039  1.2681
 4487TIP3    H235097   5.253   6.696   8.703  0.6682  0.0911  0.0095
 4488TIP3   OH235098   3.551   0.663   0.115 -0.2014 -0.7172  0.1345
 4488TIP3    H135099   3.623   0.661   0.178  0.3683 -1.4857 -0.5147
 4488TIP3    H235100   3.576   0.598   0.049  0.7041  2.0842 -2.4922
 4489TIP3   OH235101   6.177   3.111   7.641 -0.2738  0.1299  0.1751
 4489TIP3    H135102   6.103   3.053   7.624 -0.9680  0.6248  1.3831
 4489TIP3    H235103   6.171   3.177   7.572 -0.8192  0.0275  0.1175
 4490TIP3   OH235104   3.476   5.973   0.990  0.7990 -0.8137  0.1376
 4490TIP3    H135105   3.477   5.888   0.946  1.4390 -0.5105 -0.4310
 4490TIP3    H235106   3.523   6.032   0.932  1.6430 -0.3994  1.2070
 4491TIP3   OH235107   5.519   4.122   0.703  0.1094  0.1210 -0.7670
 4491TIP3    H135108   5.499   4.190   0.766 -1.0187 -0.5153 -0.4070
 4491TIP3    H235109   5.440   4.114   0.650 -0.2436 -1.6922 -0.0441
 4492TIP3   OH235110   1.846   3.814   8.262 -0.0106 -0.1351  0.1711
 4492TIP3    H135111   1.767   3.762   8.257  1.0568 -1.7538 -2.2537
 4492TIP3    H235112   1.916   3.751   8.279  0.9802  0.9234  0.1877
 4493TIP3   OH235113   0.694   5.493   8.215  0.4643 -0.0244  0.3992
 4493TIP3    H135114   0.778   5.504   8.170  0.4483  1.2789  0.6577
 4493TIP3    H235115   0.713   5.510   8.307  0.0113 -0.2107  0.5322
 4494TIP3   OH235116   5.261   4.538   1.345 -0.0340  0.6261 -0.2927
 4494TIP3    H135117   5.327   4.545   1.414 -0.4126 -1.5375  0.3817
 4494TIP3    H235118   5.311   4.530   1.264  0.4621  1.2887 -0.0562
 4495TIP3   OH235119   1.707   2.513   7.578  0.6065 -0.5380  0.5723
 4495TIP3    H135120   1.622   2.484   7.545  0.4621  1.3721 -0.9536
 4495TIP3    H235121   1.723   2.459   7.655 -1.4925 -1.6675  0.2889
 4496TIP3   OH235122   4.874   0.116   7.857  0.0611 -0.4532  0.0876
 4496TIP3    H135123   4.790   0.109   7.811  0.1424 -2.0198  0.1445
 4496TIP3    H235124   4.878   0.038   7.912  1.1878  0.0358  0.7347
 4497TIP3   OH235125   4.056   5.698   7.443 -0.4624 -0.0152  0.2532
 4497TIP3    H135126   4.079   5.786   7.475 -2.3573  0.2462  1.0096
 4497TIP3    H235127   4.128   5.675   7.384  0.8364  1.4098  1.1927
 4498TIP3   OH235128   0.350   3.109   7.862 -0.0008  0.1248 -0.0067
 4498TIP3    H135129   0.418   3.066   7.810 -1.9176 -2.2029 -0.8050
 4498TIP3    H235130   0.270   3.095   7.811 -1.0518  3.3399  0.5387
 4499TIP3   OH235131   6.619   4.884   3.024 -0.0183  0.3036  0.3706
 4499TIP3    H135132   6.672   4.851   3.097 -1.7526 -0.2191  1.4430
 4499TIP3    H235133   6.650   4.835   2.948  0.3549 -0.7103  1.1495
 4500TIP3   OH235134   6.198   0.693   0.140  0.3930 -0.2914 -0.2341
 4500TIP3    H135135   6.151   0.665   0.062  0.7135  1.7507 -1.2233
 4500TIP3    H235136   6.267   0.751   0.107  1.1452 -0.1285  1.5010
 4501TIP3   OH235137   3.721   3.316   8.693  0.8889 -0.1745 -0.6268
 4501TIP3    H135138   3.717   3.366   8.775  0.9174  0.7913 -1.2013
 4501TIP3    H235139   3.630   3.301   8.669  0.8747 -0.9671 -0.1346
 4502TIP3   OH235140   5.190   5.452   0.809  0.0266  0.5406  0.4185
 4502TIP3    H135141   5.153   5.514   0.872 -0.3424  1.5841 -0.7836
 4502TIP3    H235142   5.284   5.465   0.817  0.0174  0.2363  1.1578
 4503TIP3   OH235143   6.210   3.196   7.890  0.2234 -0.3957 -0.3719
 4503TIP3    H135144   6.196   3.188   7.796 -0.7394 -2.0890 -0.1160
 4503TIP3    H235145   6.305   3.210   7.899  0.3320 -0.2863 -1.5698
 4504TIP3   OH235146   1.427   0.595   0.776 -0.2030 -0.0772 -0.0858
 4504TIP3    H135147   1.522   0.598   0.764 -0.0837 -2.3147 -0.2634
 4504TIP3    H235148   1.404   0.682   0.809  1.8971  0.5286 -0.0410
 4505TIP3   OH235149   2.955   3.414   8.790 -0.3540 -0.2622  0.3054
 4505TIP3    H135150   3.005   3.421   8.871 -2.7149  0.3151  1.8141
 4505TIP3    H235151   2.871   3.457   8.809 -2.3276 -3.0374 -1.2775
 4506TIP3   OH235152   2.868   4.825   8.468 -0.1355 -0.7140 -0.2921
 4506TIP3    H135153   2.785   4.856   8.502 -0.5454 -0.8414 -1.1369
 4506TIP3    H235154   2.907   4.903   8.427 -0.8300 -1.0914 -1.7656
 4507TIP3   OH235155   3.712   3.568   8.047 -0.4722  0.4896  0.1246
 4507TIP3    H135156   3.764   3.631   7.997 -0.0365  0.6913  0.8172
 4507TIP3    H235157   3.673   3.620   8.118 -0.0619 -0.0204  0.7332
 4508TIP3   OH235158   1.257   3.952   0.168 -0.7346 -0.2266  0.1341
 4508TIP3    H135159   1.250   3.958   0.264 -0.9167 -1.0371  0.1754
 4508TIP3    H235160   1.342   3.911   0.152 -1.1735 -1.1055 -0.0082
 4509TIP3   OH235161   5.013   2.115   0.751  0.2309 -0.1928  0.6334
 4509TIP3    H135162   5.070   2.154   0.818 -0.4576  0.4544  0.8544
 4509TIP3    H235163   5.061   2.038   0.721  1.3034  0.4243  0.7047
 4510TIP3   OH235164   6.001   0.647   6.636 -0.2303  0.1574 -0.0733
 4510TIP3    H135165   5.984   0.665   6.729 -0.3202  1.1752 -0.2857
 4510TIP3    H235166   5.927   0.686   6.590 -1.2358 -2.0238 -0.4742
 4511TIP3   OH235167   2.878   0.267   8.440 -0.0135  0.0150  0.8133
 4511TIP3    H135168   2.926   0.185   8.451 -1.3285 -0.7899  0.7356
 4511TIP3    H235169   2.851   0.291   8.529  0.6141  0.5390  0.8735
 4512TIP3   OH235170   3.358   1.122   0.994  0.6681  0.5202 -0.4791
 4512TIP3    H135171   3.338   1.050   0.934  0.3709  0.5016 -0.3609
 4512TIP3    H235172   3.397   1.079   1.070 -2.8101 -0.0121  1.2254
 4513TIP3   OH235173   6.740   5.332   6.814  0.2227  0.2952  0.0808
 4513TIP3    H135174   6.656   5.287   6.799  0.4824 -0.0836 -0.2649
 4513TIP3    H235175   6.800   5.262   6.839  0.5317  0.5121 -0.0536
 4514TIP3   OH235176   6.490   1.502   7.213 -0.1841 -0.3278 -0.2769
 4514TIP3    H135177   6.533   1.468   7.291 -2.1210 -0.1066  0.9651
 4514TIP3    H235178   6.474   1.425   7.158  0.1944 -0.6529  0.0683
 4515TIP3   OH235179   4.143   0.632   0.396  0.0609  0.6114 -0.0953
 4515TIP3    H135180   4.225   0.634   0.446  1.1949 -0.3399 -1.8100
 4515TIP3    H235181   4.121   0.540   0.389 -0.5951  0.7946 -0.5207
 4516TIP3   OH235182   2.169   6.453   8.713  0.3908 -0.0408  0.0400
 4516TIP3    H135183   2.124   6.430   8.794 -1.8810 -0.4838 -1.2829
 4516TIP3    H235184   2.196   6.544   8.726  0.5054 -0.2615  1.4605
 4517TIP3   OH235185   3.082   2.632   0.363 -0.4326 -0.1588 -0.1953
 4517TIP3    H135186   3.076   2.727   0.371  2.4616  0.0089  1.6062
 4517TIP3    H235187   3.157   2.617   0.306 -1.8223 -1.4500 -1.7972
 4518TIP3   OH235188   4.193   5.081   8.652 -0.7128 -0.3038 -0.2892
 4518TIP3    H135189   4.175   5.086   8.746 -2.6459  2.1340 -0.6781
 4518TIP3    H235190   4.281   5.116   8.642 -0.2799 -1.0917  0.6557
 4519TIP3   OH235191   0.178   6.277   6.975 -0.5246 -0.0516  0.1710
 4519TIP3    H135192   0.102   6.220   6.963 -0.6382  0.4867 -2.1232
 4519TIP3    H235193   0.146   6.365   6.955  0.4850  0.3090  0.0578
 4520TIP3   OH235194   0.445   3.175   1.737 -0.6197  0.8107  0.2893
 4520TIP3    H135195   0.377   3.109   1.722 -1.2385  0.9304  2.2942
 4520TIP3    H235196   0.516   3.127   1.779 -0.4815  1.1492  0.4468
 4521TIP3   OH235197   4.830   3.273   7.263 -0.0525  0.0100  0.1580
 4521TIP3    H135198   4.786   3.339   7.317 -0.1134  0.0427  0.0680
 4521TIP3    H235199   4.856   3.205   7.325 -2.5055 -1.2628 -0.0980
 4522TIP3   OH235200   4.146   4.096   1.031 -0.0256  0.3788  0.1077
 4522TIP3    H135201   4.203   4.130   1.100 -0.5756  0.0557  0.7356
 4522TIP3    H235202   4.129   4.005   1.057  0.4778 -0.0228 -0.9262
 4523TIP3   OH235203   0.271   5.574   0.056 -0.0056 -0.1699 -0.2071
 4523TIP3    H135204   0.290   5.609   0.143 -1.2829 -0.5426  0.2420
 4523TIP3    H235205   0.337   5.507   0.042 -0.3139 -0.7171  0.8589
 4524TIP3   OH235206   0.080   4.504   2.348  0.2038  0.1207 -0.4484
 4524TIP3    H135207   0.096   4.422   2.394  0.8030  0.3740 -0.1917
 4524TIP3    H235208   0.037   4.560   2.413 -1.2033 -0.3306 -0.9372
 4525TIP3   OH235209   4.567   1.588   1.142  0.2938 -0.2044 -0.0738
 4525TIP3    H135210   4.485   1.598   1.191  0.7557  0.2810  0.6090
 4525TIP3    H235211   4.621   1.662   1.170  1.5992 -1.4079  0.7214
 4526TIP3   OH235212   2.023   1.951   6.533  1.0254 -0.1531 -0.1753
 4526TIP3    H135213   2.026   2.040   6.569 -0.7255  0.0869 -0.5323
 4526TIP3    H235214   1.976   1.900   6.599  0.5473 -0.4333 -0.7295
 4527TIP3   OH235215   3.599   1.483   7.223  0.0993  0.3897 -0.5818
 4527TIP3    H135216   3.542   1.471   7.298 -0.2840  2.0626 -0.5583
 4527TIP3    H235217   3.682   1.443   7.249 -0.3666 -0.0465  0.2777
 4528TIP3   OH235218   6.293   3.350   1.297 -0.0078  0.4267  0.3624
 4528TIP3    H135219   6.298   3.442   1.273 -0.9347  0.2686 -0.4960
 4528TIP3    H235220   6.209   3.342   1.342 -0.3103 -0.1494 -0.2907
 4529TIP3   OH235221   3.024   3.585   0.655  0.3684  0.4744 -0.4837
 4529TIP3    H135222   2.966   3.655   0.625 -0.2159  0.2808  0.1825
 4529TIP3    H235223   2.979   3.504   0.630  0.4607  0.3273 -0.1776
 4530TIP3   OH235224   2.273   2.247   1.031  0.0334  0.7117 -0.4058
 4530TIP3    H135225   2.290   2.152   1.030 -0.4691  0.5948 -2.4658
 4530TIP3    H235226   2.196   2.257   1.087  0.1695 -0.0892 -0.0613
 4531TIP3   OH235227   3.101   0.698   0.831  0.0646  0.2074 -0.0153
 4531TIP3    H135228   3.192   0.682   0.856 -0.0884  2.0721  2.0980
 4531TIP3    H235229   3.051   0.631   0.877  0.1818  0.8840  1.1477
 4532TIP3   OH235230   2.863   4.705   7.116 -0.2936 -0.0599  0.0504
 4532TIP3    H135231   2.801   4.747   7.056 -0.9720 -0.7318  0.2630
 4532TIP3    H235232   2.901   4.633   7.065 -1.1969 -0.9095  0.5366
 4533TIP3   OH235233   6.380   6.331   0.765 -0.1202 -0.1706 -0.1189
 4533TIP3    H135234   6.356   6.273   0.837  1.2801 -0.5794  0.0537
 4533TIP3    H235235   6.397   6.272   0.691  0.8808  0.0204 -0.0634
 4534TIP3   OH235236   0.345   1.507   8.536  0.2681 -0.3505 -0.5210
 4534TIP3    H135237   0.421   1.454   8.511  2.0636  2.0493 -0.4989
 4534TIP3    H235238   0.381   1.573   8.595 -1.7270  1.2895 -1.0586
 4535TIP3   OH235239   1.643   2.903   0.204  0.1885 -0.1410 -0.0046
 4535TIP3    H135240   1.683   2.976   0.252 -0.3148  0.4104 -0.4188
 4535TIP3    H235241   1.706   2.883   0.134  1.0960 -1.1795  1.0607
 4536TIP3   OH235242   4.612   1.800   7.437 -0.7526 -0.6067 -0.1603
 4536TIP3    H135243   4.588   1.847   7.517 -0.2274 -2.1873  1.0008
 4536TIP3    H235244   4.530   1.791   7.389 -1.3645 -0.7846  0.8688
 4537TIP3   OH235245   6.668   2.770   1.785  0.5989  0.3252 -0.0264
 4537TIP3    H135246   6.640   2.763   1.694  1.5066 -1.1288 -0.2192
 4537TIP3    H235247   6.616   2.705   1.832  2.1716 -1.0270 -0.0575
 4538TIP3   OH235248   4.086   4.845   2.385 -0.1648  0.3384 -0.0127
 4538TIP3    H135249   4.004   4.810   2.421 -1.4887  1.4541 -1.7456
 4538TIP3    H235250   4.120   4.774   2.331 -0.0572 -0.0943  0.6213
 4539TIP3   OH235251   6.747   6.319   8.638 -0.7986  0.0942  0.2526
 4539TIP3    H135252   6.747   6.256   8.565  0.8017  2.1562 -1.6676
 4539TIP3    H235253   6.802   6.391   8.607 -0.5038  1.3252  3.3442
 4540TIP3   OH235254   6.632   6.309   1.268 -0.1077  0.0323 -0.9523
 4540TIP3    H135255   6.701   6.376   1.266 -0.4480  0.3822 -1.3570
 4540TIP3    H235256   6.559   6.349   1.220  0.2321 -1.2294 -2.6172
 4541TIP3   OH235257   1.789   3.098   7.089  0.5076  0.0439  0.2539
 4541TIP3    H135258   1.872   3.063   7.123  0.4362  1.1423  1.6324
 4541TIP3    H235259   1.723   3.036   7.120  0.6945 -0.3063 -0.0261
 4542TIP3   OH235260   3.231   4.425   0.949  0.3852  0.0562  0.6266
 4542TIP3    H135261   3.289   4.446   1.022  0.0459  2.3768  0.3025
 4542TIP3    H235262   3.145   4.412   0.988  0.5782 -0.7370  0.8166
 4543TIP3   OH235263   6.296   2.598   0.727  0.3412 -0.3926  0.1849
 4543TIP3    H135264   6.206   2.586   0.697 -0.0364  2.7736 -0.2106
 4543TIP3    H235265   6.289   2.658   0.801  2.0643 -0.9713  0.8566
 4544TIP3   OH235266   1.698   3.324   8.535  0.2435  0.4064 -0.0598
 4544TIP3    H135267   1.697   3.396   8.473  0.4903  0.7391  0.3198
 4544TIP3    H235268   1.790   3.314   8.560  0.2148 -0.0517 -0.1243
 4545TIP3   OH235269   0.171   6.242   8.376  0.4733 -0.4938  0.1205
 4545TIP3    H135270   0.197   6.183   8.305  2.2150  1.1924 -0.7131
 4545TIP3    H235271   0.221   6.322   8.361 -0.0428  0.3719  2.5534
 4546TIP3   OH235272   0.961   4.635   8.399  0.2299 -0.2690  0.1170
 4546TIP3    H135273   0.871   4.665   8.415 -0.2783 -0.8348 -1.5372
 4546TIP3    H235274   0.974   4.564   8.462 -0.3664  0.0096  0.5674
 4547TIP3   OH235275   0.797   6.460   8.638 -0.4468 -0.2460 -0.6735
 4547TIP3    H135276   0.811   6.434   8.729 -0.8279  0.7147 -0.3213
 4547TIP3    H235277   0.863   6.528   8.622 -0.3106 -0.4862 -1.1543
 4548TIP3   OH235278   6.179   1.983   1.473  0.0457  0.0476  0.2731
 4548TIP3    H135279   6.270   1.975   1.444 -0.2537  1.0707 -1.0748
 4548TIP3    H235280   6.129   1.994   1.392 -1.1171  0.8672  1.0695
 4549TIP3   OH235281   6.260   3.806   0.486  0.4871  0.3884 -0.4311
 4549TIP3    H135282   6.166   3.796   0.471  0.2503  0.9743  0.5460
 4549TIP3    H235283   6.294   3.840   0.404 -0.5158  2.1943 -0.1523
 4550TIP3   OH235284   4.757   3.391   0.372  0.6102 -0.9072 -0.2561
 4550TIP3    H135285   4.677   3.401   0.321 -0.3698  2.5055  1.7189
 4550TIP3    H235286   4.731   3.342   0.450  0.2271  0.7839  0.7091
 4551TIP3   OH235287   3.595   3.721   2.349 -0.1825 -0.3007  0.6572
 4551TIP3    H135288   3.526   3.689   2.291  1.2437 -2.4797  0.0419
 4551TIP3    H235289   3.567   3.699   2.437  0.0187 -1.8298  0.3545
 4552TIP3   OH235290   0.040   4.297   7.039  0.3903 -0.7668 -0.1668
 4552TIP3    H135291   0.036   4.319   6.946  0.4858  0.2535  0.0524
 4552TIP3    H235292  -0.018   4.222   7.050 -0.5140 -0.1721 -0.8450
 4553TIP3   OH235293   3.349   3.374   7.682 -0.1160  0.5996  0.9693
 4553TIP3    H135294   3.443   3.387   7.688 -0.2285  0.9569  2.3160
 4553TIP3    H235295   3.337   3.317   7.606  1.1133  1.2061  0.2881
 4554TIP3   OH235296   3.542   5.132   7.453  0.1217 -0.3046 -0.0312
 4554TIP3    H135297   3.582   5.046   7.447 -1.3518 -0.9740 -0.7521
 4554TIP3    H235298   3.534   5.162   7.362  0.2991  0.4316  0.1887
 4555TIP3   OH235299   5.629   3.912   7.569 -0.6851 -0.2913  0.4853
 4555TIP3    H135300   5.714   3.889   7.606 -0.1793 -2.3513 -1.7079
 4555TIP3    H235301   5.641   3.904   7.474 -3.1240  0.0623  0.0774
 4556TIP3   OH235302   6.095   0.089   0.623 -0.0416  0.4001  1.1626
 4556TIP3    H135303   6.012   0.127   0.597 -1.1033 -1.6735  1.2669
 4556TIP3    H235304   6.072   0.025   0.691  1.2212 -2.2652 -0.7537
 4557TIP3   OH235305   1.849   6.268   7.140  0.1578 -0.2902  0.2693
 4557TIP3    H135306   1.758   6.294   7.126 -0.1776 -0.5268  1.7416
 4557TIP3    H235307   1.876   6.229   7.057 -1.2059 -0.5437 -0.0867
 4558TIP3   OH235308   3.775   5.986   0.233 -0.6483 -0.4420 -0.7297
 4558TIP3    H135309   3.692   6.017   0.195 -0.9628 -1.4621 -0.8942
 4558TIP3    H235310   3.749   5.939   0.312 -0.2031 -0.6033 -0.6786
 4559TIP3   OH235311   3.563   6.252   7.866 -0.5502  0.2275 -0.1748
 4559TIP3    H135312   3.580   6.165   7.902  0.5948  0.9719  1.2049
 4559TIP3    H235313   3.555   6.238   7.772  0.1771 -1.3042 -0.0381
 4560TIP3   OH235314   3.658   5.419   7.646 -0.1179 -0.0962 -0.6677
 4560TIP3    H135315   3.570   5.390   7.670 -0.0031 -0.3299 -0.5182
 4560TIP3    H235316   3.676   5.375   7.563  0.3308 -1.0409 -0.0945
 4561TIP3   OH235317   0.596   5.963   0.158  0.1426 -0.4183 -0.0223
 4561TIP3    H135318   0.583   5.895   0.092  0.0313 -1.8297  1.4005
 4561TIP3    H235319   0.671   5.934   0.209 -0.6071 -0.1021  1.3339
 4562TIP3   OH235320   0.541   2.816   1.731 -0.3233  0.1555 -0.2266
 4562TIP3    H135321   0.597   2.863   1.669  0.0570  0.0806  0.0565
 4562TIP3    H235322   0.593   2.810   1.811 -1.0803  0.8991  0.3508
 4563TIP3   OH235323   3.472   1.508   8.469 -0.4174  0.0113 -0.3974
 4563TIP3    H135324   3.521   1.583   8.503 -0.2223 -0.7685  1.1657
 4563TIP3    H235325   3.479   1.442   8.538 -1.8847 -0.8923 -1.0575
 4564TIP3   OH235326   0.203   3.928   0.339 -0.3686 -0.0769 -0.0505
 4564TIP3    H135327   0.263   3.905   0.411 -0.9852  0.9031  0.8017
 4564TIP3    H235328   0.198   3.848   0.286  2.5034  0.0978 -0.7585
 4565TIP3   OH235329   4.618   2.105   2.708  0.1801 -0.2564 -0.0158
 4565TIP3    H135330   4.585   2.029   2.755 -0.7439  0.6937  0.9544
 4565TIP3    H235331   4.543   2.164   2.701  1.2415  1.2942  0.8037
 4566TIP3   OH235332   3.802   1.718   7.460  0.3398  0.0223 -0.3143
 4566TIP3    H135333   3.712   1.686   7.464  0.4099 -0.1475 -0.0574
 4566TIP3    H235334   3.793   1.813   7.452  0.1063  0.5248  3.7453
 4567TIP3   OH235335   4.258   0.938   1.974  0.6200 -0.8393  0.3872
 4567TIP3    H135336   4.299   0.985   1.901  0.0216 -0.0062  0.5768
 4567TIP3    H235337   4.263   0.999   2.048 -2.6505  0.1155 -0.0473
 4568TIP3   OH235338   1.920   2.651   7.827  0.3720  0.0464  0.2955
 4568TIP3    H135339   1.885   2.562   7.827  1.7998 -0.5577  1.0404
 4568TIP3    H235340   1.901   2.684   7.915  0.5900  0.1538  0.3041
 4569TIP3   OH235341   1.982   0.362   7.099  0.4496 -0.0999 -0.5472
 4569TIP3    H135342   2.034   0.287   7.072  0.2285 -1.7539  3.0366
 4569TIP3    H235343   1.910   0.365   7.037  2.0795 -0.8936 -2.5931
 4570TIP3   OH235344   6.318   4.972   0.066 -0.1100  0.3239  0.4879
 4570TIP3    H135345   6.350   4.956   0.155  1.3110  1.8595  0.3203
 4570TIP3    H235346   6.241   4.916   0.057 -0.7423  0.6758  2.9498
 4571TIP3   OH235347   3.634   3.279   7.692  0.1421 -0.2631 -0.0358
 4571TIP3    H135348   3.707   3.333   7.722 -1.6690  1.1721  2.1531
 4571TIP3    H235349   3.628   3.209   7.757  0.5485 -1.3154 -1.1152
 4572TIP3   OH235350   4.866   5.275   0.462  0.1017 -0.5052  0.3215
 4572TIP3    H135351   4.932   5.258   0.528  0.5241  1.0344  0.3257
 4572TIP3    H235352   4.785   5.238   0.498  0.5009 -0.4182  1.3146
 4573TIP3   OH235353   3.008   1.435   7.036 -0.3357 -0.5158 -0.0748
 4573TIP3    H135354   3.103   1.436   7.020 -0.2909  1.2488  0.1759
 4573TIP3    H235355   2.999   1.428   7.131 -0.4598 -0.7965 -0.1065
 4574TIP3   OH235356   5.938   2.878   1.179 -0.2043  0.2862 -0.4962
 4574TIP3    H135357   5.855   2.905   1.141 -1.0069 -2.5484 -0.9950
 4574TIP3    H235358   6.004   2.905   1.114 -0.9648  0.6250 -1.1377
 4575TIP3   OH235359   1.867   4.795   2.166 -0.0786  0.1550  0.1003
 4575TIP3    H135360   1.799   4.739   2.128  0.8210 -1.0490  0.2051
 4575TIP3    H235361   1.857   4.784   2.261  1.0374 -1.0332  0.1042
 4576TIP3   OH235362   0.543   0.810   8.588  0.0467 -0.3137  0.4616
 4576TIP3    H135363   0.461   0.770   8.560  1.1684 -2.2125 -0.3203
 4576TIP3    H235364   0.554   0.885   8.530 -0.9385 -0.2898  0.2911
 4577TIP3   OH235365   3.886   6.638   1.310 -0.4191 -0.2836 -0.3536
 4577TIP3    H135366   3.981   6.629   1.323 -0.0988  2.3115 -0.3763
 4577TIP3    H235367   3.855   6.548   1.301  2.0198 -1.2244 -0.2689
 4578TIP3   OH235368   1.689   5.638   0.799  0.6619  0.2892  0.3385
 4578TIP3    H135369   1.730   5.708   0.849  0.4870 -0.3175  1.3683
 4578TIP3    H235370   1.657   5.680   0.719  0.2462  1.4557  1.0955
 4579TIP3   OH235371   4.232   2.514   8.091  0.2438 -0.4278 -0.4590
 4579TIP3    H135372   4.310   2.569   8.096  0.6806 -0.8139 -2.3231
 4579TIP3    H235373   4.172   2.553   8.154  1.5051  0.5854  0.1792
 4580TIP3   OH235374   6.372   3.810   2.507 -0.0806 -0.2860  0.4523
 4580TIP3    H135375   6.338   3.833   2.593 -0.2161  1.2597  0.0226
 4580TIP3    H235376   6.298   3.827   2.448  0.3524 -0.2705 -0.0885
 4581TIP3   OH235377   0.567   1.458   7.652  0.4081 -0.7993  0.2320
 4581TIP3    H135378   0.597   1.507   7.575 -0.8149 -0.8275 -0.2870
 4581TIP3    H235379   0.473   1.446   7.638  0.6861 -3.6242  0.1120
 4582TIP3   OH235380   1.889   2.792   8.067 -0.2241  0.2024  0.0583
 4582TIP3    H135381   1.982   2.814   8.060 -0.1433 -0.4124 -1.1306
 4582TIP3    H235382   1.862   2.827   8.151  1.4674 -0.9656  1.1466
 4583TIP3   OH235383   0.492   5.438   8.797  0.1373  0.1199 -0.1710
 4583TIP3    H135384   0.476   5.347   8.822  1.9691 -0.7417 -1.8971
 4583TIP3    H235385   0.585   5.441   8.774  0.0758  2.4000 -0.3418
 4584TIP3   OH235386   2.275   3.440   0.068 -0.0381  0.1944 -0.3493
 4584TIP3    H135387   2.230   3.388   0.135 -0.2556 -1.3981 -1.6623
 4584TIP3    H235388   2.205   3.468   0.009  0.4027 -0.4317 -1.1924
 4585TIP3   OH235389   1.755   0.916   6.807 -0.8439 -0.1328  0.0693
 4585TIP3    H135390   1.663   0.898   6.786 -0.8453  1.0089 -1.0560
 4585TIP3    H235391   1.787   0.836   6.847 -2.2490 -0.6599  0.2001
 4586TIP3   OH235392   4.891   1.121   7.956  0.0726  0.4023 -0.3439
 4586TIP3    H135393   4.803   1.084   7.951 -0.6025  1.8490  0.2436
 4586TIP3    H235394   4.936   1.087   7.879 -0.2898 -2.0592  0.4247
 4587TIP3   OH235395   1.717   4.842   7.965  0.3854  0.0859  0.0159
 4587TIP3    H135396   1.661   4.918   7.982 -1.1996 -1.0604  0.2035
 4587TIP3    H235397   1.756   4.822   8.050  0.3223  0.3288  0.1036
 4588TIP3   OH235398   2.300   4.117   0.896  0.1941 -0.2524 -0.1926
 4588TIP3    H135399   2.288   4.032   0.853  1.5786 -0.0570 -1.0206
 4588TIP3    H235400   2.212   4.151   0.908 -0.3368 -1.4569 -0.5656
 4589TIP3   OH235401   3.270   3.462   0.373  0.3096 -0.1498 -0.3355
 4589TIP3    H135402   3.257   3.552   0.346  0.5439  0.3938  1.2812
 4589TIP3    H235403   3.341   3.430   0.317  2.8171  1.8614  1.4715
 4590TIP3   OH235404   6.803   2.288   7.260  0.2006  0.0325 -0.1063
 4590TIP3    H135405   6.815   2.197   7.233 -1.4178 -0.2883  0.1307
 4590TIP3    H235406   6.888   2.329   7.245  0.7647 -1.3427 -0.8878
 4591TIP3   OH235407   6.770   3.027   0.746  0.0950  0.2804 -0.1618
 4591TIP3    H135408   6.851   3.030   0.694  0.3503  0.4451  0.2347
 4591TIP3    H235409   6.798   3.056   0.834  0.0677 -1.7643  0.5694
 4592TIP3   OH235410   5.379   2.519   1.061  0.5486 -0.8759  0.1434
 4592TIP3    H135411   5.473   2.506   1.072  0.5972  0.4310  1.6348
 4592TIP3    H235412   5.372   2.592   0.999  0.6071  0.5080  1.7127
 4593TIP3   OH235413   4.207   1.575   8.749 -0.2102 -1.1343  0.2451
 4593TIP3    H135414   4.263   1.505   8.716 -0.7325 -1.2918 -0.3148
 4593TIP3    H235415   4.243   1.655   8.712  0.8164 -1.0039  1.4419
 4594TIP3   OH235416   0.308   5.796   1.874 -0.1525  0.1364 -0.1496
 4594TIP3    H135417   0.250   5.763   1.804  1.0564 -0.8516 -0.7273
 4594TIP3    H235418   0.249   5.840   1.935 -1.8535 -2.5722  0.3561
 4595TIP3   OH235419   4.386   3.022   8.221 -0.4564 -0.3678  0.2488
 4595TIP3    H135420   4.321   2.953   8.209 -1.7233  0.6077  1.2877
 4595TIP3    H235421   4.336   3.100   8.246  1.2042 -0.2524  3.9525
 4596TIP3   OH235422   3.766   2.130   7.687 -0.1057 -0.4550 -0.1225
 4596TIP3    H135423   3.769   2.100   7.597  0.7587 -0.2186 -0.1799
 4596TIP3    H235424   3.811   2.215   7.686  0.4391 -0.7152  0.6190
 4597TIP3   OH235425   1.478   3.960   7.857 -0.1934  0.6897 -0.2239
 4597TIP3    H135426   1.491   3.866   7.874  2.2159  0.7498 -1.3075
 4597TIP3    H235427   1.428   3.991   7.932 -1.4307 -1.5067 -0.0224
 4598TIP3   OH235428   6.549   4.881   8.449 -0.4760  0.2026  0.2479
 4598TIP3    H135429   6.461   4.905   8.475  0.0178  1.9534  0.4617
 4598TIP3    H235430   6.604   4.904   8.524 -0.0603 -3.2431  1.1813
 4599TIP3   OH235431   3.848   0.880   8.810 -0.1837 -0.5767 -0.3718
 4599TIP3    H135432   3.776   0.824   8.783  0.2095 -1.8167  1.0390
 4599TIP3    H235433   3.910   0.876   8.737 -0.6008 -1.2091 -0.7007
 4600TIP3   OH235434   6.240   1.437   2.049  0.0735  0.2275 -0.3031
 4600TIP3    H135435   6.296   1.461   1.975 -0.7078 -0.3896 -1.1233
 4600TIP3    H235436   6.197   1.519   2.074  0.9900  0.6114  0.0392
 4601TIP3   OH235437   2.445   4.410   8.162  0.3884 -0.1490 -0.0714
 4601TIP3    H135438   2.408   4.405   8.074 -1.2519  3.6185  0.2094
 4601TIP3    H235439   2.369   4.409   8.220  1.3981 -1.6510  1.3407
 4602TIP3   OH235440   0.951   4.744   7.327 -0.0900 -0.0458 -0.1050
 4602TIP3    H135441   0.883   4.811   7.326  0.8293  0.9094 -1.4644
 4602TIP3    H235442   0.903   4.662   7.341 -1.2865  0.7963  1.0795
 4603TIP3   OH235443   1.078   3.052   0.523 -0.1579  0.3939  0.3985
 4603TIP3    H135444   1.057   3.145   0.521  2.1031  0.9717  0.4191
 4603TIP3    H235445   1.104   3.031   0.433  0.2181  0.0298  0.5883
 4604TIP3   OH235446   0.447   2.501   7.212 -0.3457 -0.6239 -0.4946
 4604TIP3    H135447   0.394   2.576   7.241  1.0547  0.5645 -0.8524
 4604TIP3    H235448   0.444   2.506   7.116 -0.6260 -1.3293 -0.5294
 4605TIP3   OH235449   3.429   1.413   7.411  0.2306  0.0188  0.8503
 4605TIP3    H135450   3.387   1.402   7.496 -1.6037 -1.1436 -0.1586
 4605TIP3    H235451   3.455   1.325   7.385 -0.5448  0.1329 -0.4105
 4606TIP3   OH235452   6.641   0.244   1.980  0.2152  0.3263 -0.2988
 4606TIP3    H135453   6.573   0.178   1.965  0.5454 -0.2030  0.4795
 4606TIP3    H235454   6.594   0.328   1.978 -0.1394  0.1273 -1.7395
 4607TIP3   OH235455   4.540   6.176   1.034  0.8546 -0.1319 -0.2160
 4607TIP3    H135456   4.586   6.220   0.962  1.9119 -0.3247  0.3276
 4607TIP3    H235457   4.477   6.118   0.990  1.2622 -0.0062 -0.9830
 4608TIP3   OH235458   2.120   1.001   8.093  0.1537 -0.5761  0.5315
 4608TIP3    H135459   2.143   1.094   8.083  3.3856 -1.4026 -0.9651
 4608TIP3    H235460   2.061   0.983   8.019  0.0952  0.1092  0.4031
 4609TIP3   OH235461   0.012   2.053   7.011  0.2406  0.2633  0.7760
 4609TIP3    H135462  -0.049   2.109   6.964  0.9892 -0.7581 -1.5532
 4609TIP3    H235463  -0.035   2.029   7.091 -2.7093 -0.9305 -1.1405
 4610TIP3   OH235464   0.178   2.009   1.191  0.2581  0.0695  0.0133
 4610TIP3    H135465   0.183   1.915   1.206 -2.3453 -0.0448  0.6673
 4610TIP3    H235466   0.086   2.030   1.204  0.7190  2.6719 -0.4354
 4611TIP3   OH235467   5.379   5.747   0.065  0.3559  0.6082  0.5881
 4611TIP3    H135468   5.473   5.739   0.050  0.1010 -1.9415 -0.2324
 4611TIP3    H235469   5.368   5.733   0.159  0.7730  0.5457  0.6276
 4612TIP3   OH235470   4.822   5.816   6.773  0.7266 -0.0477 -0.1826
 4612TIP3    H135471   4.891   5.764   6.814  1.3671 -0.2240 -1.4296
 4612TIP3    H235472   4.863   5.853   6.694 -0.8483 -0.9148 -1.4769
 4613TIP3   OH235473   2.981   4.160   2.425  0.1067 -0.0813 -0.5614
 4613TIP3    H135474   3.045   4.169   2.496  0.4690 -0.8342 -0.7860
 4613TIP3    H235475   2.939   4.246   2.421  0.7338  0.2658 -0.0611
 4614TIP3   OH235476   3.520   4.002   2.885 -0.2823  0.0721 -0.0931
 4614TIP3    H135477   3.427   3.981   2.898 -0.6364  0.9617 -1.0527
 4614TIP3    H235478   3.550   4.031   2.971 -0.1752 -2.7084  0.9085
 4615TIP3   OH235479   0.565   4.098   6.719  0.2132  0.6053  0.4494
 4615TIP3    H135480   0.650   4.137   6.743  0.7588 -0.3345  0.0876
 4615TIP3    H235481   0.534   4.152   6.646  0.7138  0.6731  0.2830
 4616TIP3   OH235482   6.563   1.246   7.076 -0.1399  0.5701 -0.4505
 4616TIP3    H135483   6.578   1.152   7.072  0.6102  0.6416  0.4472
 4616TIP3    H235484   6.504   1.264   7.003 -2.2193 -0.9470  0.7555
 4617TIP3   OH235485   6.747   2.257   1.468 -0.6115 -0.1986 -0.2089
 4617TIP3    H135486   6.786   2.343   1.483 -1.1443  0.2270 -1.1592
 4617TIP3    H235487   6.756   2.212   1.552 -1.1921  1.1392  0.6154
 4618TIP3   OH235488   6.670   5.891   8.570 -0.0156  0.2464  0.2021
 4618TIP3    H135489   6.664   5.822   8.505 -0.2942  0.7713 -0.3331
 4618TIP3    H235490   6.727   5.957   8.530 -1.9100  1.5782 -0.4480
 4619TIP3   OH235491   1.348   2.178   7.792 -0.2921 -0.3046 -0.1196
 4619TIP3    H135492   1.398   2.097   7.791 -0.3787 -0.4239  1.7980
 4619TIP3    H235493   1.409   2.243   7.829 -0.4763  0.3425 -0.9102
 4620TIP3   OH235494   2.998   5.582   1.707  0.7354  0.1163  0.1107
 4620TIP3    H135495   3.058   5.508   1.712  1.4264  0.6388 -0.2692
 4620TIP3    H235496   3.046   5.655   1.746  0.2134  0.4615  0.1213
 4621TIP3   OH235497   4.313   1.170   8.180  0.4129  0.3570  0.4625
 4621TIP3    H135498   4.276   1.085   8.156  1.3957 -0.5590  1.9959
 4621TIP3    H235499   4.393   1.176   8.127 -0.3298  0.9426 -0.6104
 4622TIP3   OH235500   0.136   5.454   8.344  0.3131 -0.1829  0.3226
 4622TIP3    H135501   0.095   5.495   8.268 -0.1770  1.2877  1.3434
 4622TIP3    H235502   0.229   5.453   8.322  0.0582 -1.0895 -0.8718
 4623TIP3   OH235503   6.098   1.930   6.972 -0.0058 -0.0089  0.1123
 4623TIP3    H135504   6.148   1.848   6.964 -1.6103 -1.0975  0.6504
 4623TIP3    H235505   6.063   1.945   6.885 -0.8559 -0.7015  0.3160
 4624TIP3   OH235506   2.671   0.990   8.035 -0.4205  0.0812  0.9574
 4624TIP3    H135507   2.586   0.948   8.021  0.3591 -1.1809 -0.2338
 4624TIP3    H235508   2.696   0.966   8.124 -1.1060  0.0708  1.1483
 4625TIP3   OH235509   0.932   3.435   0.875 -0.3781 -0.3625  0.1612
 4625TIP3    H135510   0.910   3.342   0.866  0.1057 -0.3481 -1.4542
 4625TIP3    H235511   0.926   3.469   0.786  1.9501  0.5930  0.3076
 4626TIP3   OH235512   3.680   0.912   6.658  0.6780  0.4167 -0.3872
 4626TIP3    H135513   3.746   0.849   6.687  0.9809  0.5352 -0.8220
 4626TIP3    H235514   3.596   0.867   6.671  0.8381  0.2667  0.1604
 4627TIP3   OH235515   2.265   3.687   0.742 -0.3833  0.4579 -0.5279
 4627TIP3    H135516   2.324   3.632   0.793  0.4505  0.7454 -1.1652
 4627TIP3    H235517   2.189   3.700   0.799 -0.9621 -1.9395 -0.6050
 4628TIP3   OH235518   1.127   3.093   7.533 -0.1932 -0.6409  0.1341
 4628TIP3    H135519   1.216   3.101   7.500 -0.5931 -0.1537 -0.8566
 4628TIP3    H235520   1.084   3.175   7.508 -1.3222 -1.4497 -0.6825
 4629TIP3   OH235521   1.077   1.616   0.515 -0.2016 -0.1426  0.1882
 4629TIP3    H135522   0.993   1.606   0.469 -0.0850 -2.0442  0.3482
 4629TIP3    H235523   1.143   1.611   0.446 -0.1760  3.6831 -0.2984
 4630TIP3   OH235524   4.597   5.549   1.072  0.7804 -0.4902 -0.0630
 4630TIP3    H135525   4.536   5.478   1.054  0.9527 -0.0596 -2.9246
 4630TIP3    H235526   4.682   5.506   1.082  0.4833 -0.8589  1.0046
 4631TIP3   OH235527   1.023   0.645   2.026  0.2836 -0.7208 -0.4533
 4631TIP3    H135528   0.995   0.703   2.097  0.8864 -1.7444  0.6666
 4631TIP3    H235529   0.981   0.680   1.948 -1.1864 -0.1111  0.5660
 4632TIP3   OH235530   1.750   1.777   2.216 -0.0945  0.1478 -0.4905
 4632TIP3    H135531   1.791   1.709   2.163 -0.5231 -1.1411  0.7435
 4632TIP3    H235532   1.670   1.736   2.249 -2.3344  2.4684 -2.6110
 4633TIP3   OH235533   6.675   4.832   2.074  0.2803  0.4638  0.1923
 4633TIP3    H135534   6.704   4.887   2.147  1.6786  0.3945 -0.2860
 4633TIP3    H235535   6.740   4.762   2.070  0.1355  0.3842 -1.0193
 4634TIP3   OH235536   3.944   1.925   6.575  0.1099  0.1161  0.3801
 4634TIP3    H135537   4.028   1.897   6.537 -0.0887 -0.6368  0.4731
 4634TIP3    H235538   3.924   2.008   6.531  0.3966 -0.2116 -0.3900
 4635TIP3   OH235539   3.068   2.370   0.031  0.4359 -0.0869 -0.4565
 4635TIP3    H135540   3.003   2.319  -0.017  2.0419 -1.6407 -1.0998
 4635TIP3    H235541   3.073   2.453  -0.016 -0.1566 -0.4380 -1.1608
 4636TIP3   OH235542   0.841   0.213   2.517  0.5875  0.1800 -0.4810
 4636TIP3    H135543   0.857   0.136   2.464 -0.8708 -0.0238 -0.6749
 4636TIP3    H235544   0.898   0.281   2.481  0.3310 -0.2276 -1.6801
 4637TIP3   OH235545   3.624   0.531   8.148 -0.0737  0.1177 -0.2243
 4637TIP3    H135546   3.571   0.531   8.069  0.3823 -0.5607 -0.5426
 4637TIP3    H235547   3.607   0.446   8.189 -0.5320  0.5820  0.5675
 4638TIP3   OH235548   4.565   4.172   8.806  0.2388  0.5786  0.2787
 4638TIP3    H135549   4.546   4.086   8.844  0.4481 -0.8867 -2.6871
 4638TIP3    H235550   4.653   4.193   8.838  0.0252 -0.0825  1.3637
 4639TIP3   OH235551   6.214   5.169   0.389  0.3628  0.0567  0.0024
 4639TIP3    H135552   6.160   5.242   0.420 -0.1899 -0.7191  0.9141
 4639TIP3    H235553   6.155   5.119   0.331  0.5326 -0.0377 -0.0879
 4640TIP3   OH235554   1.877   3.246   0.155 -0.1481 -0.1528  0.2286
 4640TIP3    H135555   1.868   3.341   0.165  0.2285 -0.0499 -0.3388
 4640TIP3    H235556   1.809   3.209   0.211  1.0963  0.3847  2.2119
 4641TIP3   OH235557   1.547   1.065   1.705 -0.2554 -0.2884  0.2559
 4641TIP3    H135558   1.638   1.063   1.677 -0.7675 -0.9107 -1.5345
 4641TIP3    H235559   1.537   1.149   1.750  0.9977  0.1410 -0.2239
 4642TIP3   OH235560   3.375   3.674   8.632  0.1883 -0.1889  0.2359
 4642TIP3    H135561   3.306   3.739   8.645 -2.7169 -2.5536 -1.8232
 4642TIP3    H235562   3.361   3.643   8.543  3.5247 -1.3681  0.0106
 4643TIP3   OH235563   0.546   0.140   1.375 -0.4487 -0.5392 -0.1183
 4643TIP3    H135564   0.617   0.203   1.369  0.1560 -1.1918  0.0445
 4643TIP3    H235565   0.590   0.055   1.382 -1.2372 -0.9057  0.4995
 4644TIP3   OH235566   1.437   1.451   0.131  0.2484 -0.0571  0.4964
 4644TIP3    H135567   1.429   1.534   0.178 -0.4030 -0.4660  1.1100
 4644TIP3    H235568   1.488   1.474   0.052 -0.5643  1.0732  0.2721
 4645TIP3   OH235569   1.458   4.798   7.396  0.1411  0.5860  0.2527
 4645TIP3    H135570   1.436   4.826   7.485  0.5455  0.6503  0.3374
 4645TIP3    H235571   1.436   4.873   7.341  1.4511  1.1960  0.5074
 4646TIP3   OH235572   4.360   0.130   7.059 -0.0468  0.3639  0.4962
 4646TIP3    H135573   4.406   0.155   6.979  1.1832 -0.0262  1.0552
 4646TIP3    H235574   4.412   0.168   7.130 -0.9347  0.4246  1.1271
 4647TIP3   OH235575   5.755   3.576   8.548  0.0712 -0.2050 -0.1651
 4647TIP3    H135576   5.684   3.523   8.583  0.8669 -3.0707 -2.5151
 4647TIP3    H235577   5.832   3.520   8.555  0.7135 -0.0383 -3.9807
 4648TIP3   OH235578   3.455   3.370   0.196  0.4739 -1.4256 -0.2552
 4648TIP3    H135579   3.398   3.390   0.121  0.0617  0.4224  0.4862
 4648TIP3    H235580   3.538   3.345   0.155  1.2094  2.3155 -1.5109
 4649TIP3   OH235581   1.800   6.685   8.394 -0.3792 -0.0605 -0.1301
 4649TIP3    H135582   1.859   6.756   8.418 -1.1641 -0.2509  2.6429
 4649TIP3    H235583   1.726   6.729   8.352 -0.6168  0.7377  1.0922
 4650TIP3   OH235584   6.743   3.895   0.834 -0.4938  0.5440  0.4331
 4650TIP3    H135585   6.746   3.937   0.921 -0.3867 -0.5049  0.9485
 4650TIP3    H235586   6.811   3.940   0.784 -0.8705  1.4822  0.7374
 4651TIP3   OH235587   6.231   0.916   1.722 -0.3565  0.4707  0.0508
 4651TIP3    H135588   6.267   0.975   1.788 -1.2451 -0.1000  1.0941
 4651TIP3    H235589   6.297   0.913   1.653  0.8083  0.7693  1.1131
 4652TIP3   OH235590   0.498   1.243   1.678  0.5853 -0.3518  0.4853
 4652TIP3    H135591   0.507   1.157   1.637  0.7422 -0.2240  0.2473
 4652TIP3    H235592   0.478   1.302   1.605  1.4349 -0.0225  0.5056
 4653TIP3   OH235593   3.204   4.710   0.142 -0.0960  0.1296  0.4985
 4653TIP3    H135594   3.210   4.716   0.047  1.0076  1.6465  0.6137
 4653TIP3    H235595   3.286   4.668   0.169  0.1024  0.6979  0.8182
 4654TIP3   OH235596   6.631   0.959   0.867  0.1127 -0.1022 -0.1895
 4654TIP3    H135597   6.628   0.949   0.772  1.3357 -0.4008 -0.2151
 4654TIP3    H235598   6.713   0.916   0.893  0.6216  1.4072  0.8192
 4655TIP3   OH235599   2.923   3.887   1.835  0.6098 -0.1518  0.4543
 4655TIP3    H135600   2.953   3.978   1.838  1.1472 -0.2982 -0.4471
 4655TIP3    H235601   2.841   3.888   1.886  0.4599  0.8903  0.2231
 4656TIP3   OH235602   5.444   6.817   1.077 -0.6835  0.0437  0.0270
 4656TIP3    H135603   5.416   6.785   0.992 -0.9821  1.2544 -0.3418
 4656TIP3    H235604   5.480   6.904   1.060  0.5750 -0.2600  0.9288
 4657TIP3   OH235605   3.868   2.239   0.018  0.2011  0.2103  0.3579
 4657TIP3    H135606   3.783   2.201   0.042  0.3983 -0.0270  0.6752
 4657TIP3    H235607   3.882   2.309   0.082 -0.2419  0.9529 -0.3241
 4658TIP3   OH235608   6.746   6.324   7.300  0.5629 -0.2112 -0.1796
 4658TIP3    H135609   6.840   6.339   7.285  1.0708  0.2977  2.8064
 4658TIP3    H235610   6.737   6.322   7.395 -2.7088  1.3881 -0.2995
 4659TIP3   OH235611   3.329   0.956   0.382  0.0089  0.0325 -0.0681
 4659TIP3    H135612   3.268   0.972   0.310 -0.1373  1.0849  0.2664
 4659TIP3    H235613   3.287   0.889   0.436  1.2424 -2.6597 -2.2557
 4660TIP3   OH235614   3.265   5.581   7.241 -0.2079  0.3491  0.6241
 4660TIP3    H135615   3.251   5.621   7.155 -1.5121  1.1309  1.1794
 4660TIP3    H235616   3.181   5.543   7.264 -0.5375  2.0483  2.5076
 4661TIP3   OH235617   5.220   0.777   1.588  0.0674 -0.5740 -0.8393
 4661TIP3    H135618   5.173   0.710   1.638  0.7661 -2.2487 -2.2917
 4661TIP3    H235619   5.188   0.766   1.498 -0.1314  1.4023 -1.0491
 4662TIP3   OH235620   3.154   6.424   6.788 -0.2396 -0.5388 -0.2674
 4662TIP3    H135621   3.121   6.411   6.699  2.4659  1.6747 -1.7760
 4662TIP3    H235622   3.179   6.337   6.818 -1.4586 -1.3682 -1.5413
 4663TIP3   OH235623   0.788   2.524   0.752  0.5635 -0.0877 -0.3665
 4663TIP3    H135624   0.858   2.583   0.781 -0.7555  1.2131  0.3303
 4663TIP3    H235625   0.710   2.556   0.798 -0.3353 -1.9990 -0.4797
 4664TIP3   OH235626   5.263   1.095   8.136  0.2529 -0.4379  0.2750
 4664TIP3    H135627   5.279   1.092   8.230 -2.0851 -0.8776  0.7100
 4664TIP3    H235628   5.216   1.177   8.122  1.2143 -0.0188 -0.6594
 4665TIP3   OH235629   3.420   6.357   0.610 -0.1566  0.5281 -0.7887
 4665TIP3    H135630   3.383   6.269   0.609  0.9466  0.0537 -1.5346
 4665TIP3    H235631   3.442   6.375   0.518 -0.9024  1.8222 -0.7445
 4666TIP3   OH235632   0.611   4.287   2.760 -0.1307 -0.5016 -0.1137
 4666TIP3    H135633   0.678   4.321   2.702  0.8335 -0.5386  0.9389
 4666TIP3    H235634   0.658   4.228   2.819 -0.8614  0.4063  1.4309
 4667TIP3   OH235635   1.749   3.354   2.081 -0.3083  0.4117 -0.1290
 4667TIP3    H135636   1.831   3.352   2.032  0.0742 -0.3382  0.5046
 4667TIP3    H235637   1.684   3.316   2.023  0.6386 -2.8341  0.7473
 4668TIP3   OH235638   2.109   0.452   1.231 -0.4496 -0.5671  0.5540
 4668TIP3    H135639   2.050   0.466   1.305 -1.5594  1.2704 -0.6084
 4668TIP3    H235640   2.054   0.414   1.163 -0.1955  0.5962 -0.3413
 4669TIP3   OH235641   0.191   0.116   0.798 -0.4392  0.3213  0.1287
 4669TIP3    H135642   0.164   0.026   0.778 -3.1098  0.7523  1.4039
 4669TIP3    H235643   0.271   0.129   0.746  0.9113 -3.2473  0.9843
 4670TIP3   OH235644   6.585   6.100   7.233 -0.3371 -0.0787 -0.4825
 4670TIP3    H135645   6.498   6.135   7.253  0.8040  2.3224  0.6413
 4670TIP3    H235646   6.646   6.165   7.267  2.0019 -2.6715  0.7407
 4671TIP3   OH235647   4.448   4.609   0.874 -0.3942  0.6584  0.4567
 4671TIP3    H135648   4.444   4.534   0.814 -3.1427 -0.0802  1.4223
 4671TIP3    H235649   4.534   4.603   0.914 -0.0340 -1.1910 -0.4876
 4672TIP3   OH235650   4.046   4.351   7.166 -0.2954 -0.1257 -0.1463
 4672TIP3    H135651   4.098   4.411   7.113 -0.7002 -0.6478 -1.1633
 4672TIP3    H235652   4.078   4.264   7.142 -2.0787 -0.5094 -1.3570
 4673TIP3   OH235653   4.264   6.725   1.866 -0.0887  0.2971 -0.7403
 4673TIP3    H135654   4.278   6.816   1.838  0.5331  0.8910  1.3068
 4673TIP3    H235655   4.234   6.732   1.957  1.1076 -1.5625 -0.1395
 4674TIP3   OH235656   6.462   4.605   8.285  0.3939  0.3735 -0.1203
 4674TIP3    H135657   6.402   4.664   8.330  1.5569  2.2373 -0.9126
 4674TIP3    H235658   6.500   4.657   8.214  0.0806 -1.8842 -2.0812
 4675TIP3   OH235659   1.575   3.368   0.242 -0.7780  0.1182  0.9818
 4675TIP3    H135660   1.582   3.432   0.313 -1.6212 -0.7119  1.8245
 4675TIP3    H235661   1.525   3.295   0.279  1.4560 -1.7422  0.5339
 4676TIP3   OH235662   4.536   3.613   0.213  0.1337 -0.2177  0.3995
 4676TIP3    H135663   4.611   3.630   0.271 -0.0735  1.1179  0.3147
 4676TIP3    H235664   4.462   3.604   0.273 -0.3197  2.4842  0.3630
 4677TIP3   OH235665   3.867   6.563   2.471  0.1223 -0.9980  0.1154
 4677TIP3    H135666   3.958   6.533   2.469  0.6427  0.5285 -1.6114
 4677TIP3    H235667   3.819   6.490   2.511  2.2448 -1.3396  2.2596
 4678TIP3   OH235668   6.384   0.742   0.757  0.6242  0.2628  0.5977
 4678TIP3    H135669   6.300   0.773   0.722 -0.0553 -1.1970  0.8875
 4678TIP3    H235670   6.446   0.813   0.736  0.0581 -0.0511 -2.6502
 4679TIP3   OH235671   3.092   1.290   8.187  1.0223  0.0111 -0.1547
 4679TIP3    H135672   3.085   1.203   8.227 -0.3992  0.5969  0.9630
 4679TIP3    H235673   3.152   1.338   8.244  1.6061 -0.1511 -0.6265
 4680TIP3   OH235674   4.795   4.708   7.517  0.1052 -0.0825  0.4016
 4680TIP3    H135675   4.768   4.643   7.452  0.2870  0.6972 -0.4924
 4680TIP3    H235676   4.836   4.658   7.586  1.3740 -0.8444 -0.8514
 4681TIP3   OH235677   0.485   0.985   0.709  0.2956  0.3682  0.0321
 4681TIP3    H135678   0.429   1.047   0.755  1.0642  1.6450 -0.6951
 4681TIP3    H235679   0.426   0.914   0.682 -0.5973  0.7721  0.8697
 4682TIP3   OH235680   4.534   2.021   0.943 -0.2774  0.1960  0.0149
 4682TIP3    H135681   4.604   2.072   0.904 -0.8202 -0.6709 -2.2361
 4682TIP3    H235682   4.553   1.931   0.917 -1.3678 -0.2565  0.7237
 4683TIP3   OH235683   6.164   3.629   0.718 -0.2742  0.1438 -0.2358
 4683TIP3    H135684   6.083   3.607   0.764  1.9865 -0.7969  3.8036
 4683TIP3    H235685   6.191   3.546   0.678 -0.3241 -0.0810  0.1801
 4684TIP3   OH235686   5.002   5.703   0.321  0.4309  0.2550 -0.2461
 4684TIP3    H135687   4.970   5.685   0.410  2.0973  1.3791  0.6190
 4684TIP3    H235688   5.066   5.634   0.305  0.5764  0.4085 -0.3264
 4685TIP3   OH235689   5.956   2.476   1.829 -0.2983 -0.0389 -0.2841
 4685TIP3    H135690   5.927   2.566   1.841  0.4607  0.0604  0.9290
 4685TIP3    H235691   6.051   2.479   1.840 -0.4999 -1.4039  2.8441
 4686TIP3   OH235692   0.552   4.246   0.252  0.1306  0.5551 -0.8481
 4686TIP3    H135693   0.466   4.264   0.213  0.2540 -0.6878 -1.7535
 4686TIP3    H235694   0.560   4.151   0.249  1.4574  0.6409 -0.5725
 4687TIP3   OH235695   5.519   3.007   0.783  0.5571 -0.1570 -0.9851
 4687TIP3    H135696   5.575   3.068   0.736  0.8610 -0.1661 -0.6405
 4687TIP3    H235697   5.444   2.993   0.725  0.3936  0.6853 -0.9821
 4688TIP3   OH235698   1.624   1.665   1.877 -0.7332  0.0503  0.1770
 4688TIP3    H135699   1.571   1.719   1.936  1.1933 -0.0641  2.1424
 4688TIP3    H235700   1.603   1.575   1.902 -0.8637 -0.0229 -0.1979
 4689TIP3   OH235701   2.576   5.918   0.944  0.1168 -0.7996 -0.3444
 4689TIP3    H135702   2.639   5.919   0.872 -0.1386  0.2399 -0.5657
 4689TIP3    H235703   2.530   5.834   0.933  0.6598 -1.0411 -0.8712
 4690TIP3   OH235704   5.033   2.272   2.274  0.7803  0.1665 -0.1484
 4690TIP3    H135705   5.045   2.349   2.329  0.0171  0.2140 -0.0463
 4690TIP3    H235706   4.974   2.300   2.205  2.3808  0.3495 -1.5098
 4691TIP3   OH235707   6.674   5.290   2.218 -0.2299 -0.3204 -0.2910
 4691TIP3    H135708   6.629   5.223   2.270 -0.2300  0.4386  0.7007
 4691TIP3    H235709   6.730   5.336   2.280  0.3863  0.0884 -1.1237
 4692TIP3   OH235710   1.196   5.107   7.644  0.0704  0.0831 -0.3880
 4692TIP3    H135711   1.188   5.150   7.559  1.0718  0.0968 -0.4827
 4692TIP3    H235712   1.160   5.019   7.629 -0.3140  0.2802 -0.6584
 4693TIP3   OH235713   1.428   4.694   8.570 -0.2472  0.0605  0.2836
 4693TIP3    H135714   1.485   4.770   8.560  0.0851 -0.1881  0.2598
 4693TIP3    H235715   1.344   4.722   8.534  0.4795 -0.3208 -1.8400
 4694TIP3   OH235716   4.338   0.672   0.077  0.2601 -0.1107  0.3201
 4694TIP3    H135717   4.314   0.749   0.024 -0.6796 -1.3298 -1.1188
 4694TIP3    H235718   4.281   0.678   0.154 -2.0885 -0.8980 -1.2248
 4695TIP3   OH235719   1.291   1.242   6.751 -0.1691  0.2777 -0.0985
 4695TIP3    H135720   1.266   1.313   6.811 -0.3871  1.9308 -2.0353
 4695TIP3    H235721   1.358   1.280   6.695  1.3912 -1.8112  0.2228
 4696TIP3   OH235722   4.373   3.901   0.851 -0.2576  0.2020  0.8862
 4696TIP3    H135723   4.412   3.821   0.817  0.3735  1.6641 -2.1816
 4696TIP3    H235724   4.279   3.891   0.834 -0.2847 -0.2437  1.3107
 4697TIP3   OH235725   4.829   4.253   0.015 -0.2185 -0.1015 -0.3745
 4697TIP3    H135726   4.814   4.333   0.066 -1.7791  0.0426 -0.9935
 4697TIP3    H235727   4.899   4.207   0.062  1.4357  2.0666 -0.5559
 4698TIP3   OH235728   6.559   0.957   0.600 -0.2711  0.1558  0.2906
 4698TIP3    H135729   6.508   1.037   0.585 -1.9638 -1.1149 -1.2163
 4698TIP3    H235730   6.594   0.934   0.514  0.6925 -0.4171  0.8205
 4699TIP3   OH235731   2.927   3.356   0.532  0.5645  0.6849 -0.4653
 4699TIP3    H135732   2.988   3.284   0.523  1.2979  1.2545 -0.1276
 4699TIP3    H235733   2.876   3.355   0.450  0.9897  0.1826 -0.7246
 4700TIP3   OH235734   4.450   1.113   8.431  0.1602 -0.1683  0.0978
 4700TIP3    H135735   4.468   1.028   8.472  0.7518 -0.9570 -1.7082
 4700TIP3    H235736   4.397   1.092   8.354 -0.0224  1.1443 -0.1525
 4701TIP3   OH235737   0.708   0.817   0.783  0.4374  0.0984 -0.1762
 4701TIP3    H135738   0.669   0.837   0.868 -0.4943 -1.1271 -0.2791
 4701TIP3    H235739   0.676   0.887   0.726 -0.6531 -0.1998  0.0323
 4702TIP3   OH235740   2.065   3.794   7.644  0.0249  0.4328  0.4833
 4702TIP3    H135741   2.044   3.725   7.707 -3.9161 -0.9058 -1.8906
 4702TIP3    H235742   1.980   3.836   7.626  1.8919  4.6175  0.2041
 4703TIP3   OH235743   4.906   2.236   8.620  0.0153  0.2355  0.5790
 4703TIP3    H135744   4.916   2.277   8.706 -2.3291  0.7320  0.6889
 4703TIP3    H235745   4.867   2.304   8.565 -1.2179 -0.9237 -0.0422
 4704TIP3   OH235746   0.876   5.814   7.980 -0.0956  0.4910  0.6834
 4704TIP3    H135747   0.808   5.861   7.933  1.1244  0.4871 -1.1595
 4704TIP3    H235748   0.862   5.838   8.072 -1.3500  2.0458  0.1344
 4705TIP3   OH235749   1.625   4.932   0.200  0.2879 -0.4916 -0.6033
 4705TIP3    H135750   1.686   4.951   0.128  1.1744  2.1659  0.7356
 4705TIP3    H235751   1.670   4.864   0.251  1.6611  0.6155 -0.2669
 4706TIP3   OH235752   1.022   1.823   0.692  0.4285  0.3538 -0.0119
 4706TIP3    H135753   0.931   1.798   0.708  0.2523  0.3101 -1.0287
 4706TIP3    H235754   1.047   1.775   0.614  1.4261  0.1532  0.4104
 4707TIP3   OH235755   4.901   3.518   2.558  0.5599 -0.2869  0.4970
 4707TIP3    H135756   4.974   3.477   2.511  1.1673  0.5910  0.6763
 4707TIP3    H235757   4.852   3.443   2.594  2.0426 -0.8521  1.4128
 4708TIP3   OH235758   4.814   2.367   2.107  0.6547  0.1770  0.2430
 4708TIP3    H135759   4.811   2.287   2.055 -0.9746  0.7821 -0.6862
 4708TIP3    H235760   4.799   2.437   2.043  1.0362  1.1398  1.1816
 4709TIP3   OH235761   6.066   4.121   6.951  0.1299 -0.0335 -0.2367
 4709TIP3    H135762   6.152   4.160   6.944  0.2327  0.1645  1.5650
 4709TIP3    H235763   6.080   4.039   6.999 -0.5752 -0.3995 -0.6306
 4710TIP3   OH235764   5.755   5.124   7.865  0.1015  0.2949  0.0358
 4710TIP3    H135765   5.765   5.058   7.796 -0.0538  0.1706  0.1311
 4710TIP3    H235766   5.706   5.079   7.934 -0.6533  0.7276 -0.1986
 4711TIP3   OH235767   6.411   0.067   8.622 -0.5422  0.0637 -0.5642
 4711TIP3    H135768   6.353   0.141   8.609 -0.8256 -0.2146 -0.9198
 4711TIP3    H235769   6.403   0.046   8.715 -0.1788  0.7068 -0.3884
 4712TIP3   OH235770   4.422   6.622   1.587 -0.0508 -0.5138  0.0424
 4712TIP3    H135771   4.483   6.586   1.523  1.0002 -2.3354  1.9095
 4712TIP3    H235772   4.444   6.715   1.592  2.2319 -0.9957  0.2028
 4713TIP3   OH235773   1.048   5.336   8.816 -0.1766 -0.0672 -0.1157
 4713TIP3    H135774   1.017   5.402   8.754  1.7499 -0.0307 -1.0993
 4713TIP3    H235775   1.119   5.291   8.771  1.7381  0.3761  2.2668
 4714TIP3   OH235776   5.739   3.101   7.636 -0.0773  0.5081  0.2892
 4714TIP3    H135777   5.650   3.123   7.610  0.4249  1.1908 -0.9706
 4714TIP3    H235778   5.729   3.030   7.698 -1.5648  1.4584  1.2072
 4715TIP3   OH235779   0.197   3.941   6.500 -0.0045 -0.3531  1.0901
 4715TIP3    H135780   0.190   3.999   6.575  2.7643  2.9183 -0.9093
 4715TIP3    H235781   0.271   3.884   6.521 -0.2582 -0.5538  1.4581
 4716TIP3   OH235782   0.103   0.397   7.865  0.0822 -0.0076  0.1293
 4716TIP3    H135783   0.015   0.373   7.839 -0.5075  3.9059 -2.3829
 4716TIP3    H235784   0.092   0.447   7.946 -0.1458  0.8356 -0.4030
 4717TIP3   OH235785   0.459   2.738   0.824  0.6690 -0.0429 -0.3438
 4717TIP3    H135786   0.476   2.685   0.745 -1.8658  0.8680 -1.6129
 4717TIP3    H235787   0.430   2.674   0.889 -1.4988 -0.4456 -1.5874
 4718TIP3   OH235788   6.283   0.623   1.776  0.1658 -0.3862  0.1482
 4718TIP3    H135789   6.274   0.718   1.776  0.6207 -0.3256 -0.7931
 4718TIP3    H235790   6.317   0.602   1.862  2.0361  0.5262 -0.3171
 4719TIP3   OH235791   1.118   4.435   2.142 -0.5641 -0.0443 -0.5496
 4719TIP3    H135792   1.152   4.486   2.215 -0.1480 -0.8873 -0.1470
 4719TIP3    H235793   1.107   4.499   2.071  0.6543  0.4624 -0.2951
 4720TIP3   OH235794   5.124   2.677   6.368 -0.6281 -0.2914  0.3455
 4720TIP3    H135795   5.118   2.680   6.464  0.0743  0.7900  0.3676
 4720TIP3    H235796   5.126   2.769   6.341 -0.4552 -0.5840 -0.6901
 4721TIP3   OH235797   1.741   6.013   2.087 -0.0055  0.1715 -0.2118
 4721TIP3    H135798   1.732   6.106   2.109  2.2189  0.0642  1.5252
 4721TIP3    H235799   1.720   5.967   2.168  3.3447 -0.5201  0.4183
 4722TIP3   OH235800   2.676   0.223   0.211  0.0940 -0.0213 -0.7497
 4722TIP3    H135801   2.744   0.157   0.226 -0.9774 -1.1834 -0.7689
 4722TIP3    H235802   2.594   0.175   0.223 -0.7377  1.5233  0.1300
 4723TIP3   OH235803   2.505   6.117   0.609  0.1100  0.5234  0.4468
 4723TIP3    H135804   2.581   6.105   0.666  2.2461  1.1765 -2.0413
 4723TIP3    H235805   2.524   6.063   0.532 -0.5093  2.8664 -1.4782
 4724TIP3   OH235806   6.757   2.976   6.734 -0.1822 -0.0702  0.3277
 4724TIP3    H135807   6.691   3.012   6.793 -0.6797  0.6391 -0.6314
 4724TIP3    H235808   6.836   2.969   6.787 -0.5187  0.8951  0.9750
 4725TIP3   OH235809   4.334   5.041   7.383 -0.2297 -0.1446  0.5812
 4725TIP3    H135810   4.409   5.084   7.342 -2.6701  3.9885 -0.0809
 4725TIP3    H235811   4.309   4.971   7.322  1.0672  0.6043 -0.8612
 4726TIP3   OH235812   1.081   2.976   0.064  0.6576  0.2364 -0.4948
 4726TIP3    H135813   1.042   3.004  -0.018  0.7250  0.1467 -0.5581
 4726TIP3    H235814   1.014   2.921   0.105  1.2704 -1.1677 -1.3087
 4727TIP3   OH235815   5.392   5.785   8.211  0.3517 -0.0612 -0.6303
 4727TIP3    H135816   5.445   5.710   8.183  0.9921 -0.4197  1.3778
 4727TIP3    H235817   5.321   5.789   8.147  0.3393 -2.3392 -0.8436
 4728TIP3   OH235818   5.463   0.465   1.058 -0.0490 -0.4435  0.2674
 4728TIP3    H135819   5.386   0.409   1.049 -1.0714  1.0044 -0.4266
 4728TIP3    H235820   5.471   0.509   0.973  1.4837 -0.4885  0.3729
 4729TIP3   OH235821   3.952   2.810   7.059  0.0323  0.1845  0.3212
 4729TIP3    H135822   4.028   2.804   7.000  0.3218  0.1965  0.6890
 4729TIP3    H235823   3.914   2.896   7.040  0.7035  0.6068  0.8418
 4730TIP3   OH235824   4.211   3.573   8.480 -0.4404  0.2888 -0.2953
 4730TIP3    H135825   4.249   3.488   8.460  0.3045  0.5781 -0.1454
 4730TIP3    H235826   4.284   3.624   8.517 -0.7329  1.1676 -0.9017
 4731TIP3   OH235827   4.857   6.182   1.021 -0.5158  0.1793  0.9498
 4731TIP3    H135828   4.817   6.253   0.972  1.6884  1.3456  0.7365
 4731TIP3    H235829   4.932   6.222   1.065  0.0511 -1.7477  1.8546
 4732TIP3   OH235830   0.911   5.477   0.828 -0.0261  0.4767 -0.6521
 4732TIP3    H135831   0.871   5.418   0.764  1.7198  0.0070 -1.3863
 4732TIP3    H235832   1.004   5.478   0.804  0.4107  1.5245  0.9349
 4733TIP3   OH235833   6.116   5.402   0.458 -0.4006  0.5694 -0.2475
 4733TIP3    H135834   6.208   5.395   0.482 -0.4628  2.4179  0.7310
 4733TIP3    H235835   6.078   5.457   0.527 -2.6765 -1.7384  0.5030
 4734TIP3   OH235836   6.847   6.182   0.665  0.9341  0.3339 -0.4145
 4734TIP3    H135837   6.921   6.204   0.722  0.9408 -0.1709 -0.2296
 4734TIP3    H235838   6.881   6.196   0.576  0.9434  1.0491 -0.3021
 4735TIP3   OH235839   4.453   1.604   7.281  0.4929  0.0581  0.7778
 4735TIP3    H135840   4.518   1.548   7.322 -0.1130 -1.7524 -0.5649
 4735TIP3    H235841   4.381   1.544   7.259 -0.8504  1.6600  0.6064
 4736TIP3   OH235842   2.067   1.646   6.428  0.1067 -0.3678  0.2829
 4736TIP3    H135843   2.051   1.552   6.414 -0.8216 -0.3001  0.8073
 4736TIP3    H235844   1.984   1.680   6.461  0.5809  0.5491  0.5755
 4737TIP3   OH235845   4.387   2.616   7.812  0.1197 -0.1555  0.1878
 4737TIP3    H135846   4.412   2.524   7.820 -1.8187 -0.6643  0.8724
 4737TIP3    H235847   4.367   2.627   7.719  0.3599 -0.4026  0.1033
 4738TIP3   OH235848   1.656   4.550   8.682  0.0223  0.8139 -0.1771
 4738TIP3    H135849   1.599   4.610   8.633  0.0492 -1.0380 -2.6212
 4738TIP3    H235850   1.597   4.509   8.746 -1.1254 -0.0047 -1.6977
 4739TIP3   OH235851   5.562   5.628   8.049  0.9323  0.2987  0.6007
 4739TIP3    H135852   5.600   5.658   7.966  1.0867 -0.7244  0.2828
 4739TIP3    H235853   5.574   5.533   8.047 -0.3215  0.1168  1.1784
 4740TIP3   OH235854   5.140   0.195   1.270 -0.0719  0.2955  0.2567
 4740TIP3    H135855   5.150   0.120   1.212 -0.4057 -0.0186  0.6083
 4740TIP3    H235856   5.048   0.220   1.261  0.4974  2.0276 -1.5401
 4741TIP3   OH235857   4.993   2.622   0.823  0.3294  0.2817 -0.0506
 4741TIP3    H135858   4.993   2.676   0.744  1.5228  0.1035 -0.1880
 4741TIP3    H235859   5.037   2.541   0.797 -0.5740 -0.3741  0.4120
 4742TIP3   OH235860   1.732   4.648   1.914 -0.0955 -0.3097 -0.9060
 4742TIP3    H135861   1.737   4.597   1.995 -0.8099 -0.9791 -1.2652
 4742TIP3    H235862   1.642   4.680   1.911 -1.3158 -3.3956 -3.2013
 4743TIP3   OH235863   3.046   5.384   2.006  0.3945 -0.0975  0.0589
 4743TIP3    H135864   3.101   5.341   2.072  0.2538 -1.4513 -0.6674
 4743TIP3    H235865   3.107   5.440   1.957  1.2563 -1.8981 -1.0093
 4744TIP3   OH235866   4.443   2.906   0.838  0.3208 -0.0644 -0.2934
 4744TIP3    H135867   4.473   2.817   0.854  0.1017  0.0856  1.0946
 4744TIP3    H235868   4.493   2.935   0.762  1.9935 -0.6139  0.5545
 4745TIP3   OH235869   5.095   5.415   0.004  0.0669 -0.2794  0.1350
 4745TIP3    H135870   5.099   5.397   0.098 -0.6072  1.6161  0.5687
 4745TIP3    H235871   5.111   5.509  -0.003  1.9186 -0.6658 -1.8222
 4746TIP3   OH235872   5.777   4.823   0.143 -0.3062  0.0378 -0.3718
 4746TIP3    H135873   5.706   4.825   0.207 -0.7370 -0.8933 -0.7972
 4746TIP3    H235874   5.800   4.730   0.136 -0.2034  0.1371 -1.4937
 4747TIP3   OH235875   1.904   2.239   7.103 -0.7281  0.0943  0.5584
 4747TIP3    H135876   1.909   2.314   7.044  0.0379 -0.7852 -0.5414
 4747TIP3    H235877   1.995   2.218   7.123 -0.9434 -0.4387  0.9980
 4748TIP3   OH235878   3.329   0.426   0.221 -0.3885 -0.0802  0.1424
 4748TIP3    H135879   3.247   0.379   0.231 -1.0901  0.6919 -1.5559
 4748TIP3    H235880   3.326   0.495   0.288 -0.5631 -0.7857  0.8706
 4749TIP3   OH235881   4.906   3.304   7.000 -0.1279 -0.1907 -0.2957
 4749TIP3    H135882   4.963   3.378   6.979 -1.3090  0.5840 -0.9232
 4749TIP3    H235883   4.896   3.309   7.095  0.6684 -0.2107 -0.2056
 4750TIP3   OH235884   5.409   4.854   0.116  0.1437 -0.0857  0.0337
 4750TIP3    H135885   5.460   4.884   0.192 -0.0167  0.7694 -0.1922
 4750TIP3    H235886   5.419   4.759   0.118 -0.4483 -0.1514  1.5506
 4751TIP3   OH235887   4.234   6.650   0.526  0.2421 -0.4101  0.3602
 4751TIP3    H135888   4.251   6.556   0.536  0.5766 -0.2371  1.6609
 4751TIP3    H235889   4.320   6.690   0.538 -0.0243  0.1032  0.5517
 4752TIP3   OH235890   4.230   5.192   7.939 -0.7422  1.2368 -0.4004
 4752TIP3    H135891   4.314   5.237   7.930  1.1814 -1.2945  2.7934
 4752TIP3    H235892   4.197   5.218   8.025 -1.6868 -0.1298 -0.3148
 4753TIP3   OH235893   0.742   2.409   7.868  0.5001  1.3163  0.4607
 4753TIP3    H135894   0.668   2.425   7.928  0.0832 -0.2642  0.4135
 4753TIP3    H235895   0.734   2.478   7.802 -2.2994 -0.0355 -0.8061
 4754TIP3   OH235896   1.055   6.343   1.740 -0.0529 -0.4720  0.1720
 4754TIP3    H135897   1.110   6.398   1.684 -1.3458  0.9950  0.2807
 4754TIP3    H235898   1.051   6.390   1.823 -0.4385 -1.1944  0.5716
 4755TIP3   OH235899   2.658   1.699   0.936 -0.1059  0.2716 -0.3267
 4755TIP3    H135900   2.707   1.646   0.999 -1.9010 -0.0038  0.9060
 4755TIP3    H235901   2.717   1.771   0.914  0.8426 -0.0451  1.0975
 4756TIP3   OH235902   4.672   1.969   1.714 -0.4569  0.3592 -0.0780
 4756TIP3    H135903   4.606   2.014   1.766  0.6017 -0.9528  2.5718
 4756TIP3    H235904   4.622   1.915   1.653 -1.8695 -0.2716  1.5508
 4757TIP3   OH235905   4.601   0.746   1.102 -0.1231 -0.0896 -0.0581
 4757TIP3    H135906   4.604   0.688   1.027  2.5033 -1.1131  0.7425
 4757TIP3    H235907   4.520   0.722   1.148 -0.7046 -0.8513 -1.4358
 4758TIP3   OH235908   5.386   5.798   8.592 -0.2193 -0.3176 -0.0225
 4758TIP3    H135909   5.410   5.735   8.524  0.3369 -0.1312 -0.0017
 4758TIP3    H235910   5.466   5.810   8.643 -0.6631 -0.5478  0.7488
 4759TIP3   OH235911   1.191   1.773   6.905 -0.2541 -0.8868  0.2139
 4759TIP3    H135912   1.189   1.868   6.898  1.0299 -0.8793 -0.3421
 4759TIP3    H235913   1.134   1.743   6.833  1.7661 -0.5454 -1.6479
 4760TIP3   OH235914   6.281   3.311   7.464  0.0788 -0.0753 -0.2614
 4760TIP3    H135915   6.319   3.373   7.401 -1.2746  0.9721 -0.0896
 4760TIP3    H235916   6.225   3.364   7.520 -0.1936 -1.2825  0.6588
 4761TIP3   OH235917   0.981   0.182   8.679  0.0165  0.2339 -0.6628
 4761TIP3    H135918   0.983   0.088   8.694  0.7953  0.5827  2.0044
 4761TIP3    H235919   0.888   0.204   8.676 -0.2211 -0.3448  1.2738
 4762TIP3   OH235920   6.132   3.300   8.131 -0.1396 -0.5430 -0.2003
 4762TIP3    H135921   6.215   3.347   8.144 -0.0873 -0.4844 -0.7459
 4762TIP3    H235922   6.151   3.239   8.060 -1.1670  0.9142 -1.7752
 4763TIP3   OH235923   5.166   0.714   8.542 -0.9216  0.6775 -0.4847
 4763TIP3    H135924   5.259   0.698   8.523 -1.2336  0.0360 -1.5127
 4763TIP3    H235925   5.168   0.768   8.622  0.2930 -0.6369  0.4292
 4764TIP3   OH235926   3.140   2.983   0.908  0.2344  0.0504  0.5290
 4764TIP3    H135927   3.236   2.980   0.909  0.2588  0.6334  0.1462
 4764TIP3    H235928   3.115   2.905   0.859  0.6302  1.6905 -2.4995
 4765TIP3   OH235929   3.840   1.767   0.736  0.3807 -0.0219 -0.5983
 4765TIP3    H135930   3.755   1.726   0.749 -0.4778  2.1199  1.1806
 4765TIP3    H235931   3.897   1.695   0.707 -1.8692 -1.6023 -1.4049
 4766TIP3   OH235932   1.257   3.159   8.294  0.2351  0.0609  0.1120
 4766TIP3    H135933   1.294   3.103   8.362  0.6100 -0.7115 -0.6971
 4766TIP3    H235934   1.179   3.198   8.333  0.1127 -0.8348  0.7760
 4767TIP3   OH235935   0.761   3.189   7.483  0.1280  0.2928  0.0730
 4767TIP3    H135936   0.721   3.186   7.570 -1.1963  1.5232 -0.4611
 4767TIP3    H235937   0.742   3.103   7.445 -0.4712  0.2306  0.5043
 4768TIP3   OH235938   2.508   0.212   7.821 -0.1244  0.3482  0.1483
 4768TIP3    H135939   2.432   0.187   7.769  1.6939 -2.1174 -1.5819
 4768TIP3    H235940   2.504   0.156   7.898  0.8216 -1.1564 -0.8434
 4769TIP3   OH235941   2.835   4.810   6.690  0.6731  0.4302  0.1905
 4769TIP3    H135942   2.781   4.843   6.618  1.1862  1.1208  0.1035
 4769TIP3    H235943   2.877   4.731   6.655 -2.1946 -1.6389  1.0813
 4770TIP3   OH235944   0.656   3.982   2.584 -0.0432 -0.5826 -0.1072
 4770TIP3    H135945   0.723   4.045   2.556 -0.8946  0.9473  1.1719
 4770TIP3    H235946   0.657   3.986   2.679 -1.2353 -1.2968 -0.0426
 4771TIP3   OH235947   2.395   5.293   7.862  0.5751 -0.3934 -0.1011
 4771TIP3    H135948   2.327   5.342   7.817 -0.1683 -0.3284  1.0334
 4771TIP3    H235949   2.381   5.312   7.955  2.1997 -0.3124  0.1701
 4772TIP3   OH235950   2.223   0.695   1.205  0.0037 -0.3885  0.0016
 4772TIP3    H135951   2.145   0.741   1.176 -0.4066 -1.0804 -0.0039
 4772TIP3    H235952   2.197   0.604   1.210 -0.2464 -0.2769  3.3292
 4773TIP3   OH235953   0.371   3.482   0.889 -0.0858  0.0143 -1.0729
 4773TIP3    H135954   0.462   3.481   0.861 -0.4654  0.8132 -2.4578
 4773TIP3    H235955   0.348   3.575   0.890 -1.2192 -0.2397 -1.9187
 4774TIP3   OH235956   5.435   0.347   0.409 -0.6978  0.0773 -0.1640
 4774TIP3    H135957   5.472   0.267   0.371 -1.9128 -0.1745 -0.8867
 4774TIP3    H235958   5.509   0.391   0.451  0.4954 -0.1997 -1.8772
 4775TIP3   OH235959   0.621   4.005   0.733  0.3300  0.2600 -0.6663
 4775TIP3    H135960   0.697   3.976   0.784  0.3914  3.1118  1.0579
 4775TIP3    H235961   0.638   4.098   0.716 -2.0538  0.5783 -1.6022
 4776TIP3   OH235962   4.410   5.550   7.531 -0.1315  0.0241  0.3921
 4776TIP3    H135963   4.376   5.620   7.587 -0.1247  1.8271 -1.7035
 4776TIP3    H235964   4.373   5.569   7.444 -0.6528 -2.9863 -0.1525
 4777TIP3   OH235965   0.256   5.033   7.170 -0.0880  0.0175  0.0867
 4777TIP3    H135966   0.187   5.093   7.199  0.6152  0.4639  0.8847
 4777TIP3    H235967   0.249   5.034   7.075 -0.0958  1.3872  0.0741
 4778TIP3   OH235968   1.046   0.799   6.909  0.4891  0.2131  0.1793
 4778TIP3    H135969   1.098   0.825   6.833  1.7079  0.4634  1.0645
 4778TIP3    H235970   1.111   0.785   6.978 -0.5135 -0.8722  0.9387
 4779TIP3   OH235971   3.957   5.154   7.340 -0.1019 -0.0702  0.1665
 4779TIP3    H135972   3.867   5.126   7.328 -0.6083  1.2756  0.6468
 4779TIP3    H235973   4.010   5.076   7.321 -1.3318 -0.7342 -0.5918
 4780TIP3   OH235974   3.993   0.685   0.133 -0.2043 -0.0788  0.7175
 4780TIP3    H135975   3.979   0.771   0.095 -2.4214 -0.6268  0.1082
 4780TIP3    H235976   4.045   0.701   0.212 -0.0355  1.7140  0.2788
 4781TIP3   OH235977   4.451   1.986   1.194 -0.2236 -0.6673  0.6310
 4781TIP3    H135978   4.441   1.964   1.101  2.3745 -3.2959  0.8227
 4781TIP3    H235979   4.453   2.081   1.197 -0.3563 -0.5164 -2.0006
 4782TIP3   OH235980   4.657   3.650   1.252 -0.1270 -0.0009 -0.4943
 4782TIP3    H135981   4.562   3.639   1.252 -0.3156  1.3735 -1.9105
 4782TIP3    H235982   4.674   3.714   1.320  0.1169 -2.1685  1.6363
 4783TIP3   OH235983   4.430   2.697   1.105  0.2952 -0.3164  0.3851
 4783TIP3    H135984   4.339   2.723   1.119  0.0448 -0.4367 -0.8295
 4783TIP3    H235985   4.425   2.606   1.075  0.6636  0.1351 -1.1650
 4784TIP3   OH235986   6.630   0.255   1.658  0.3882  0.5730  0.6518
 4784TIP3    H135987   6.687   0.222   1.589 -1.2263  0.0303 -0.4960
 4784TIP3    H235988   6.588   0.332   1.619  0.1415  0.8015  1.3567
 4785TIP3   OH235989   6.615   4.414   8.122  0.5397  0.4046 -0.5361
 4785TIP3    H135990   6.570   4.474   8.181 -2.0073 -3.0917  1.4173
 4785TIP3    H235991   6.707   4.418   8.150  0.5050  3.2697 -0.5430
 4786TIP3   OH235992   2.420   2.097   0.248 -0.5293  0.4180 -0.3654
 4786TIP3    H135993   2.464   2.153   0.311 -1.4088  1.1738 -0.4041
 4786TIP3    H235994   2.490   2.044   0.210  0.1015  0.4243  0.7531
 4787TIP3   OH235995   3.081   2.528   7.173  0.2103  0.4006 -0.5043
 4787TIP3    H135996   3.129   2.480   7.241 -0.9458 -0.2110 -0.1021
 4787TIP3    H235997   3.103   2.482   7.092  0.3547  0.1629 -0.3309
 4788TIP3   OH235998   2.183   2.023   0.759 -0.3194  0.6032 -0.6132
 4788TIP3    H135999   2.247   1.964   0.797  0.0046  1.7109  0.6123
 4788TIP3    H236000   2.166   1.986   0.672  1.8283  0.1828 -0.9081
 4789TIP3   OH236001   5.867   6.763   7.896 -0.2540 -0.1706  0.4927
 4789TIP3    H136002   5.840   6.854   7.908 -1.1608 -0.1695 -1.3386
 4789TIP3    H236003   5.809   6.713   7.953 -0.5112  0.2870  0.6391
 4790TIP3   OH236004   5.915   0.643   0.953 -0.0336  0.4851  0.5197
 4790TIP3    H136005   5.878   0.561   0.987 -0.0547  0.6901  0.9884
 4790TIP3    H236006   5.954   0.618   0.869 -0.8497  0.1749  0.2187
 4791TIP3   OH236007   6.082   2.927   6.864 -0.3960  0.4730 -0.7733
 4791TIP3    H136008   6.103   2.985   6.791 -3.2645 -0.2174 -2.3014
 4791TIP3    H236009   6.008   2.968   6.908 -0.1005 -0.2199  0.4239
 4792TIP3   OH236010   1.735   0.983   7.496 -0.0135  0.2194 -0.7553
 4792TIP3    H136011   1.679   0.938   7.433 -2.1248  0.4841  0.8466
 4792TIP3    H236012   1.736   0.925   7.573  1.0310  0.7491 -0.3507
 4793TIP3   OH236013   3.391   4.422   6.894  0.0660 -0.1900 -0.8058
 4793TIP3    H136014   3.341   4.347   6.927  0.3233 -0.8659 -1.8824
 4793TIP3    H236015   3.459   4.382   6.839  0.5571  0.8176 -0.9452
 4794TIP3   OH236016   0.725   2.455   7.233 -0.6725 -0.2666  0.3628
 4794TIP3    H136017   0.752   2.514   7.163  1.1367 -1.6509 -0.1905
 4794TIP3    H236018   0.630   2.458   7.231 -0.6731  0.2759 -1.7091
 4795TIP3   OH236019   2.662   1.339   1.426  0.3942 -0.2094 -0.3874
 4795TIP3    H136020   2.706   1.384   1.498  1.2011 -0.9665 -0.3796
 4795TIP3    H236021   2.593   1.399   1.398  2.5270  1.8504 -1.5662
 4796TIP3   OH236022   2.880   5.757   8.600  0.2482 -0.3120 -0.1348
 4796TIP3    H136023   2.969   5.792   8.599 -0.1671  0.8338  0.6773
 4796TIP3    H236024   2.862   5.740   8.692  0.3488 -2.5444 -0.4729
 4797TIP3   OH236025   4.071   2.472   7.876  0.1292 -0.3050 -0.2599
 4797TIP3    H136026   4.144   2.495   7.933  0.9946  2.0498 -2.1868
 4797TIP3    H236027   4.091   2.384   7.846  1.3367 -0.3173  0.5065
 4798TIP3   OH236028   6.171   6.600   1.905 -0.4257  0.1512  0.0282
 4798TIP3    H136029   6.233   6.635   1.968 -1.9095  1.4848  0.8061
 4798TIP3    H236030   6.213   6.614   1.820  0.6282  0.3489  0.5595
 4799TIP3   OH236031   2.781   4.095   7.345  0.5434  0.0371 -0.5951
 4799TIP3    H136032   2.859   4.149   7.334  0.7393  0.0523  0.6647
 4799TIP3    H236033   2.743   4.125   7.428  0.6595 -1.7521  0.1508
 4800TIP3   OH236034   2.523   5.820   7.295 -0.3228  0.0334 -0.1022
 4800TIP3    H136035   2.616   5.798   7.290  0.5023  3.0610 -0.6066
 4800TIP3    H236036   2.514   5.861   7.381 -1.7760 -2.2524  0.9036
 4801TIP3   OH236037   2.167   2.339   8.582  0.2734 -0.0535 -0.0771
 4801TIP3    H136038   2.078   2.367   8.605 -0.7613 -1.3464 -2.1276
 4801TIP3    H236039   2.211   2.420   8.554 -1.6242  0.1762 -2.8818
 4802TIP3   OH236040   3.426   1.937   7.699  0.3016 -0.1053 -0.1390
 4802TIP3    H136041   3.446   2.009   7.759  0.0809 -0.0888 -0.0845
 4802TIP3    H236042   3.385   1.979   7.624 -0.7587 -0.2689  0.3240
 4803TIP3   OH236043   3.291   3.623   8.102  0.5441 -0.7487 -0.1743
 4803TIP3    H136044   3.196   3.633   8.101  0.4280 -1.6373  0.5195
 4803TIP3    H236045   3.322   3.685   8.036 -0.4170  0.4031  0.4108
 4804TIP3   OH236046   3.140   4.349   6.801  0.2189 -0.0476 -0.2664
 4804TIP3    H136047   3.057   4.369   6.759 -0.2652 -0.8227  0.2879
 4804TIP3    H236048   3.117   4.293   6.875  1.0879  0.9060  0.7731
 4805TIP3   OH236049   6.116   0.381   1.157 -0.3593  0.1488 -0.1915
 4805TIP3    H136050   6.198   0.340   1.130  0.0170  0.6950  0.0893
 4805TIP3    H236051   6.125   0.472   1.129 -0.9611  0.1640 -0.3476
 4806TIP3   OH236052   1.076   2.601   2.442  0.1629 -0.2046  0.0096
 4806TIP3    H136053   1.139   2.666   2.473 -0.5566  0.4258  0.1895
 4806TIP3    H236054   1.102   2.520   2.485  0.8328  0.0526  0.1016
 4807TIP3   OH236055   2.592   4.532   1.003 -0.2223  0.1954 -0.4131
 4807TIP3    H136056   2.545   4.546   1.086  1.3972 -1.8223  0.9344
 4807TIP3    H236057   2.673   4.582   1.014  0.5846 -1.1184 -0.1872
 4808TIP3   OH236058   4.328   5.563   8.139 -0.2431 -0.0237 -0.6848
 4808TIP3    H136059   4.411   5.568   8.092 -0.2311 -0.9846 -0.7963
 4808TIP3    H236060   4.347   5.506   8.214 -0.7580 -0.0928 -0.6055
 4809TIP3   OH236061   0.884   6.322   6.903 -0.0295 -0.5481 -0.7686
 4809TIP3    H136062   0.967   6.359   6.873  0.4899 -0.1228  1.0599
 4809TIP3    H236063   0.824   6.335   6.830  1.4005 -0.5049 -1.9822
 4810TIP3   OH236064   5.838   2.727   1.854  0.0488 -0.2626  0.0252
 4810TIP3    H136065   5.754   2.773   1.856  0.1545 -0.0681  0.0820
 4810TIP3    H236066   5.895   2.780   1.910  0.8075  0.7998 -1.6507
 4811TIP3   OH236067   1.070   0.650   7.854  0.5515 -0.0288 -0.4589
 4811TIP3    H136068   1.033   0.720   7.800  0.1180  0.9166  1.0197
 4811TIP3    H236069   1.010   0.576   7.841 -1.3725  1.1483  1.0727
 4812TIP3   OH236070   0.900   1.072   1.020  0.4415 -0.1657  0.0439
 4812TIP3    H136071   0.856   1.048   1.102  0.7627 -0.7145  0.0619
 4812TIP3    H236072   0.832   1.112   0.966  0.4237  1.0835  0.9349
 4813TIP3   OH236073   2.185   6.534   0.417 -0.2048  0.2406 -0.0841
 4813TIP3    H136074   2.242   6.458   0.425 -1.6347 -0.7094  2.0337
 4813TIP3    H236075   2.244   6.610   0.422  1.3168 -0.6256 -2.9203
 4814TIP3   OH236076   3.448   2.774   7.691 -0.0515 -0.3558 -0.4236
 4814TIP3    H136077   3.495   2.789   7.773 -1.1444 -0.0067  0.1647
 4814TIP3    H236078   3.454   2.857   7.645 -0.4456 -0.1782 -0.1585
 4815TIP3   OH236079   4.687   5.785   1.311  0.0282 -0.0271  0.0578
 4815TIP3    H136080   4.682   5.690   1.322 -0.6631  0.0869  0.7774
 4815TIP3    H236081   4.780   5.804   1.306  0.1925 -0.6607  0.6575
 4816TIP3   OH236082   2.989   5.174   8.192 -0.0405  0.1076 -0.1457
 4816TIP3    H136083   3.051   5.220   8.248  0.1503  0.3692 -0.5621
 4816TIP3    H236084   3.004   5.081   8.210 -0.1600  0.1967  0.4203
 4817TIP3   OH236085   5.978   6.577   1.405  0.3305 -0.0179  0.3942
 4817TIP3    H136086   6.033   6.601   1.330  0.7149 -0.8291  0.4012
 4817TIP3    H236087   6.007   6.634   1.476  1.1744 -0.4321  0.3933
 4818TIP3   OH236088   1.735   5.492   7.255  0.0411 -0.2144 -0.8228
 4818TIP3    H136089   1.681   5.528   7.325  0.2355  0.2878 -0.9215
 4818TIP3    H236090   1.699   5.405   7.238 -0.5199 -0.0199 -0.6537
 4819TIP3   OH236091   1.187   6.503   8.480 -0.1334  0.6073 -0.1552
 4819TIP3    H136092   1.124   6.551   8.534 -1.4427  0.4519 -1.4656
 4819TIP3    H236093   1.187   6.414   8.517 -1.2061  0.4359 -0.5381
 4820TIP3   OH236094   2.576   6.148   8.112 -0.1895 -0.0792 -0.2664
 4820TIP3    H136095   2.557   6.139   8.206 -1.6557  1.5827 -0.3463
 4820TIP3    H236096   2.491   6.144   8.070  0.5144 -1.5241 -1.6479
 4821TIP3   OH236097   0.950   2.903   7.253  0.0197  0.5039 -0.3164
 4821TIP3    H136098   1.042   2.881   7.261 -0.5457 -2.1863 -0.3129
 4821TIP3    H236099   0.924   2.872   7.166 -1.0121  0.5872 -0.0611
 4822TIP3   OH236100   4.988   1.594   0.415  0.4123 -0.2518 -0.1812
 4822TIP3    H136101   4.966   1.670   0.469 -0.2705 -1.0737  0.7154
 4822TIP3    H236102   5.035   1.535   0.474  2.2776  0.0723 -1.2378
 4823TIP3   OH236103   0.003   1.050   0.680 -0.8221  0.1636 -0.2345
 4823TIP3    H136104  -0.034   0.982   0.624 -0.2231 -1.2982  1.0802
 4823TIP3    H236105   0.097   1.033   0.680 -0.7915  0.2470  1.0486
 4824TIP3   OH236106   2.416   3.300   1.183 -0.0140  0.3664  0.1372
 4824TIP3    H136107   2.375   3.223   1.223  0.4928  0.2882  0.5016
 4824TIP3    H236108   2.423   3.276   1.090 -0.1296  0.0930  0.1951
 4825TIP3   OH236109   5.997   1.225   2.532 -0.1644  0.0953  0.0807
 4825TIP3    H136110   6.053   1.266   2.599  2.8036 -1.7589 -1.0556
 4825TIP3    H236111   5.975   1.139   2.569 -0.9822  0.2031 -0.1440
 4826TIP3   OH236112   5.969   1.485   1.428 -0.0155 -0.3445 -0.7755
 4826TIP3    H136113   5.952   1.555   1.490 -0.7098  0.5025 -1.8826
 4826TIP3    H236114   6.048   1.512   1.381  1.5641 -1.8289  0.8800
 4827TIP3   OH236115   1.753   5.113   0.392  0.0779 -0.5482  0.8823
 4827TIP3    H136116   1.668   5.102   0.349  0.4846  1.7491 -0.6662
 4827TIP3    H236117   1.784   5.023   0.406 -2.1743 -1.4258  0.6719
 4828TIP3   OH236118   2.352   0.355   1.177  0.5969  0.2377 -0.1814
 4828TIP3    H136119   2.392   0.306   1.249 -0.2785  0.2946  0.3587
 4828TIP3    H236120   2.260   0.363   1.201  0.2039 -0.0487 -1.4896
 4829TIP3   OH236121   3.944   2.137   6.842 -0.2044 -0.1555  0.5268
 4829TIP3    H136122   3.944   2.077   6.768 -0.2610 -0.9779  1.1780
 4829TIP3    H236123   4.018   2.196   6.826  1.0963 -1.6257  0.8282
 4830TIP3   OH236124   5.925   4.084   7.821  0.8557 -0.0379 -0.3410
 4830TIP3    H136125   5.873   4.160   7.850 -0.7631 -0.5439 -1.7275
 4830TIP3    H236126   5.957   4.108   7.735  4.3773  0.8628  1.0395
 4831TIP3   OH236127   5.365   2.616   8.519  0.1932 -0.4114 -0.5113
 4831TIP3    H136128   5.305   2.542   8.507  1.0824 -1.2187 -0.1347
 4831TIP3    H236129   5.321   2.674   8.581  0.9470 -2.3558  1.9996
 4832TIP3   OH236130   0.545   4.601   8.178 -0.4468 -0.1916 -0.0483
 4832TIP3    H136131   0.611   4.548   8.135 -1.8082 -1.7725 -0.3142
 4832TIP3    H236132   0.520   4.666   8.112  0.6176  0.2357 -0.0417
 4833TIP3   OH236133   5.471   1.879   2.790 -0.1018  0.4125  0.4134
 4833TIP3    H136134   5.385   1.838   2.796 -0.4776  1.0648 -0.4759
 4833TIP3    H236135   5.457   1.960   2.742  1.1082  0.2163 -0.3292
 4834TIP3   OH236136   6.800   6.300   7.565 -0.0666  0.7507 -0.1002
 4834TIP3    H136137   6.738   6.259   7.627  0.3780  0.5408  0.2110
 4834TIP3    H236138   6.867   6.339   7.621  0.8478 -0.2434 -0.4658
 4835TIP3   OH236139   2.564   5.522   1.916 -0.2310  0.2971  0.3127
 4835TIP3    H136140   2.643   5.483   1.952 -0.5783 -0.9949 -0.2397
 4835TIP3    H236141   2.499   5.512   1.986 -0.3978 -0.4280  0.0656
 4836TIP3   OH236142   0.178   6.369   7.670 -0.2634 -0.1269 -0.1412
 4836TIP3    H136143   0.199   6.276   7.667 -2.0381 -0.5681 -3.1873
 4836TIP3    H236144   0.262   6.414   7.671  0.7117 -1.7895 -2.0515
 4837TIP3   OH236145   1.823   1.535   2.089 -0.0130 -0.0008  0.1032
 4837TIP3    H136146   1.865   1.475   2.151 -0.1363 -0.1561  0.0376
 4837TIP3    H236147   1.733   1.502   2.081 -0.1620  0.3589  0.2800
 4838TIP3   OH236148   3.418   0.882   8.283 -0.1011  0.2205  0.4864
 4838TIP3    H136149   3.473   0.900   8.207 -0.8877 -1.0200 -0.4222
 4838TIP3    H236150   3.346   0.829   8.249 -0.6680 -0.0784  2.0386
 4839TIP3   OH236151   0.310   6.624   6.792  0.2562 -0.0092 -0.1915
 4839TIP3    H136152   0.291   6.695   6.731 -2.7411 -0.7734 -0.2792
 4839TIP3    H236153   0.268   6.547   6.755 -0.2211 -0.8750  1.9607
 4840TIP3   OH236154   3.365   2.041   2.057  0.0729  0.1044 -0.3380
 4840TIP3    H136155   3.437   2.090   2.096  1.3675 -1.4257 -0.7328
 4840TIP3    H236156   3.332   1.986   2.128 -0.4235  0.4562 -0.2866
 4841TIP3   OH236157   6.480   0.617   7.910  0.0913 -0.8416  0.4627
 4841TIP3    H136158   6.477   0.654   7.998  0.4497 -1.4973  0.7520
 4841TIP3    H236159   6.496   0.693   7.853  0.9246 -0.5587  1.0591
 4842TIP3   OH236160   3.159   2.350   6.666  0.6536 -0.0017  0.0354
 4842TIP3    H136161   3.253   2.337   6.655  0.6451  0.0445 -0.0972
 4842TIP3    H236162   3.124   2.349   6.577  0.6635  0.9879  0.0053
 4843TIP3   OH236163   3.018   2.144   1.692  0.7613  0.4016 -0.5541
 4843TIP3    H136164   2.975   2.117   1.774  2.4588 -2.2101 -0.4059
 4843TIP3    H236165   2.950   2.193   1.644 -0.7990  0.5741  1.6558
 4844TIP3   OH236166   3.332   4.786   1.597 -0.4800 -0.1576 -0.0801
 4844TIP3    H136167   3.287   4.714   1.640 -0.8753  0.4626  0.5604
 4844TIP3    H236168   3.302   4.865   1.643 -0.8483  0.5167 -1.4310
 4845TIP3   OH236169   1.485   1.134   0.659  0.5782 -0.3774  0.0007
 4845TIP3    H136170   1.560   1.148   0.602 -0.0327  1.3297 -0.4408
 4845TIP3    H236171   1.437   1.062   0.618  1.2414 -0.5443 -0.4887
 4846TIP3   OH236172   1.425   0.374   2.192 -0.2738  0.2167 -0.3831
 4846TIP3    H136173   1.400   0.458   2.231 -1.7709 -0.0510 -0.7174
 4846TIP3    H236174   1.505   0.349   2.239 -0.7821  0.9857  0.9507
 4847TIP3   OH236175   4.989   6.711   1.320 -0.1123  0.2653  0.1030
 4847TIP3    H136176   4.898   6.711   1.291  0.2839 -0.3263 -1.1808
 4847TIP3    H236177   5.032   6.778   1.265  0.1616  0.7987  0.9445
 4848TIP3   OH236178   5.292   2.849   8.661 -0.5446  0.2386  0.0866
 4848TIP3    H136179   5.230   2.892   8.720 -0.4490 -1.5456  1.5871
 4848TIP3    H236180   5.378   2.879   8.690 -0.6096  2.1719 -1.5470
 4849TIP3   OH236181   0.926   5.523   7.633  0.1741 -0.3701 -0.1776
 4849TIP3    H136182   1.021   5.535   7.638  0.2333 -1.1623  1.0957
 4849TIP3    H236183   0.907   5.457   7.699 -1.3014 -0.0930 -0.2950
 4850TIP3   OH236184   4.400   6.647   2.170 -0.2045  0.2146  0.4013
 4850TIP3    H136185   4.485   6.680   2.200 -0.8769  1.4767  1.0011
 4850TIP3    H236186   4.343   6.654   2.247 -1.6185  2.2140 -0.7385
 4851TIP3   OH236187   1.605   2.847   7.707  0.0088 -0.1504 -0.1733
 4851TIP3    H136188   1.660   2.769   7.705 -0.0635 -0.2064 -2.0466
 4851TIP3    H236189   1.667   2.920   7.694 -0.0186  0.0669  0.8054
 4852TIP3   OH236190   2.767   3.981   7.756 -0.1300 -0.3664 -0.2389
 4852TIP3    H136191   2.773   4.062   7.706  1.5504 -0.2409  0.1278
 4852TIP3    H236192   2.688   3.938   7.722  0.0472  0.4930 -1.8171
 4853TIP3   OH236193   3.721   4.788   7.770 -0.1719 -0.5583  0.9159
 4853TIP3    H136194   3.747   4.703   7.733  0.1551  0.5727 -1.6894
 4853TIP3    H236195   3.802   4.839   7.771 -0.4421 -0.1159  2.1078
 4854TIP3   OH236196   6.508   5.058   1.777 -0.4683  0.2058 -0.4421
 4854TIP3    H136197   6.532   5.150   1.779  0.3384 -0.0062  0.6202
 4854TIP3    H236198   6.497   5.034   1.869  2.0053 -1.4112 -0.4761
 4855TIP3   OH236199   2.715   2.655   7.737 -0.2475  0.4291 -1.0469
 4855TIP3    H136200   2.784   2.645   7.802 -0.5138  1.3278 -0.5971
 4855TIP3    H236201   2.705   2.750   7.727 -0.6561  0.3102 -1.9268
 4856TIP3   OH236202   1.704   4.566   7.827  0.1307  0.2588 -0.2029
 4856TIP3    H136203   1.680   4.653   7.796  1.2551  1.2630  1.5568
 4856TIP3    H236204   1.680   4.566   7.920  0.2494 -1.2779 -0.1416
 4857TIP3   OH236205   3.206   3.620   7.727  0.7169  0.6867 -0.2287
 4857TIP3    H136206   3.254   3.677   7.787  0.7991 -0.3407  0.7086
 4857TIP3    H236207   3.251   3.536   7.733 -0.7202 -0.0920  0.1077
 4858TIP3   OH236208   3.615   1.357   0.101 -0.3429  0.3428 -0.6009
 4858TIP3    H136209   3.640   1.418   0.170 -3.2746  0.1604  0.7738
 4858TIP3    H236210   3.690   1.299   0.092  0.1524  0.3307  2.5044
 4859TIP3   OH236211   3.828   6.199   8.507 -0.2220  0.1939 -0.7678
 4859TIP3    H136212   3.841   6.169   8.417 -2.6207  0.5807 -1.3146
 4859TIP3    H236213   3.862   6.289   8.506  0.1628  0.0511 -1.1599
 4860TIP3   OH236214   3.884   5.843   1.788  0.3783 -0.0903 -0.6597
 4860TIP3    H136215   3.831   5.915   1.753  0.1944 -0.3368 -0.8903
 4860TIP3    H236216   3.820   5.782   1.824  0.5819  1.0967  2.0443
 4861TIP3   OH236217   1.874   0.418   7.530 -0.1773 -0.2759 -0.4119
 4861TIP3    H136218   1.789   0.380   7.507 -0.4896 -1.3032  2.1480
 4861TIP3    H236219   1.852   0.503   7.569  0.0383 -0.1967 -0.4644
 4862TIP3   OH236220   2.517   2.205   0.728  0.2194  0.2460  0.2537
 4862TIP3    H136221   2.585   2.171   0.786 -0.1206 -1.1925 -0.1424
 4862TIP3    H236222   2.462   2.129   0.710 -1.4467  1.3588  0.4871
 4863TIP3   OH236223   6.329   4.081   1.463  0.1870 -0.1479  0.0238
 4863TIP3    H136224   6.401   4.139   1.439 -0.4426  0.6283 -0.0630
 4863TIP3    H236225   6.293   4.119   1.543 -0.9475  0.2759 -0.6498
 4864TIP3   OH236226   3.048   4.605   2.317 -0.0404  0.9455 -0.0155
 4864TIP3    H136227   2.965   4.638   2.280  0.1898 -2.0046 -3.8528
 4864TIP3    H236228   3.022   4.527   2.366  0.3238  0.7266 -0.1702
 4865TIP3   OH236229   2.824   6.466   1.555  0.7637  0.5322 -0.7233
 4865TIP3    H136230   2.766   6.411   1.502 -1.0052  1.2899  0.3526
 4865TIP3    H236231   2.831   6.548   1.505 -0.1665  0.9098 -0.2612
 4866TIP3   OH236232   1.338   4.538   1.823 -0.1767 -0.1952  0.1467
 4866TIP3    H136233   1.260   4.593   1.815  0.3521  0.5450 -0.0544
 4866TIP3    H236234   1.396   4.586   1.882  0.0123 -0.8825  0.5362
 4867TIP3   OH236235   4.241   1.244   7.452  0.5458 -0.1808  0.3821
 4867TIP3    H136236   4.227   1.150   7.442 -0.5140 -0.0726  0.6634
 4867TIP3    H236237   4.255   1.256   7.546 -1.3838  0.1533  0.6723
 4868TIP3   OH236238   5.106   4.440   8.635  0.0021 -0.9397  0.3001
 4868TIP3    H136239   5.075   4.508   8.695  3.3657  0.5661  0.5344
 4868TIP3    H236240   5.124   4.364   8.691  1.5831 -0.0782  1.0169
 4869TIP3   OH236241   6.092   3.647   8.200  0.0685  0.4225 -0.2438
 4869TIP3    H136242   6.074   3.571   8.255 -2.9818  1.1834 -0.0472
 4869TIP3    H236243   6.187   3.661   8.209  0.4606 -2.3381  0.9601
 4870TIP3   OH236244   2.671   2.475   1.833  0.2169 -0.4255 -0.6658
 4870TIP3    H136245   2.763   2.482   1.861 -0.1442  0.8009  0.2618
 4870TIP3    H236246   2.620   2.489   1.913 -0.7967 -0.4377 -1.2933
 4871TIP3   OH236247   2.032   0.637   7.758  0.1784 -0.2048 -0.3260
 4871TIP3    H136248   2.105   0.695   7.736  0.1298  0.0546  0.1762
 4871TIP3    H236249   2.017   0.652   7.852 -0.0215 -0.8169 -0.2546
 4872TIP3   OH236250   6.275   4.927   8.491  0.5872  0.1892 -0.0217
 4872TIP3    H136251   6.231   4.847   8.461 -2.1132  1.1803  0.9833
 4872TIP3    H236252   6.265   4.988   8.418  0.8711  0.2474 -0.0140
 4873TIP3   OH236253   5.377   4.091   1.377  0.1135  0.6563  0.4491
 4873TIP3    H136254   5.418   4.168   1.415  1.1171  0.2362  0.2439
 4873TIP3    H236255   5.442   4.022   1.386 -0.5144 -0.0116  0.0248
 4874TIP3   OH236256   6.428   5.065   2.613 -0.4775 -0.3001  0.0879
 4874TIP3    H136257   6.425   5.154   2.647 -0.0787 -0.4464  0.5135
 4874TIP3    H236258   6.349   5.056   2.561  0.5801  1.0677 -1.8840
 4875TIP3   OH236259   6.173   0.633   7.941 -0.1112 -0.3917 -0.2196
 4875TIP3    H136260   6.243   0.625   7.876  1.3650  0.5227  1.1662
 4875TIP3    H236261   6.098   0.668   7.893  0.8840  0.1188 -1.4430
 4876TIP3   OH236262   4.571   4.403   7.755  0.0174  0.2363  0.0460
 4876TIP3    H136263   4.488   4.417   7.800  0.7706  0.0635  1.5544
 4876TIP3    H236264   4.635   4.390   7.825  1.0072 -1.4715 -1.1040
 4877TIP3   OH236265   0.456   3.078   0.450  0.5485 -0.1553  0.1518
 4877TIP3    H136266   0.450   3.044   0.539  1.1243 -0.4908  0.0703
 4877TIP3    H236267   0.371   3.118   0.434  0.6183  0.3801  1.0387
 4878TIP3   OH236268   0.410   0.819   0.154 -0.1081  0.1569 -0.6952
 4878TIP3    H136269   0.382   0.764   0.227 -0.4578  1.5855  0.2915
 4878TIP3    H236270   0.500   0.791   0.136  0.6344  0.9329  1.4733
 4879TIP3   OH236271   2.717   1.177   0.118 -0.2657 -0.7807  0.1490
 4879TIP3    H136272   2.769   1.192   0.039  0.7374 -1.4790  0.6454
 4879TIP3    H236273   2.763   1.225   0.187 -0.8000 -0.6610  0.4264
 4880TIP3   OH236274   5.455   4.110   2.517 -0.4143  0.2871 -0.0203
 4880TIP3    H136275   5.408   4.058   2.582  0.3455 -1.3324 -0.7023
 4880TIP3    H236276   5.543   4.072   2.515 -0.1455  0.9050 -1.3273
 4881TIP3   OH236277   4.175   2.726   2.117  0.4973 -0.8070  0.5302
 4881TIP3    H136278   4.208   2.638   2.130 -0.4077 -1.3388 -0.5511
 4881TIP3    H236279   4.096   2.715   2.063  1.0419  0.7262 -0.6926
 4882TIP3   OH236280   5.704   0.641   8.761  0.8521 -0.3302  0.3953
 4882TIP3    H136281   5.739   0.561   8.723  0.3797 -1.2932  1.8679
 4882TIP3    H236282   5.668   0.690   8.687  0.1225 -2.0236 -0.4247
 4883TIP3   OH236283   3.897   0.500   1.144 -0.1750 -0.5930  0.0617
 4883TIP3    H136284   3.952   0.513   1.221 -0.1781  0.3679 -0.0900
 4883TIP3    H236285   3.807   0.508   1.177 -0.2339 -1.6704  0.2179
 4884TIP3   OH236286   6.543   1.068   6.814  0.1652  0.1320 -0.1286
 4884TIP3    H136287   6.628   1.082   6.855  0.4499  0.5475 -0.8533
 4884TIP3    H236288   6.536   1.136   6.747 -0.2886 -0.5388 -0.7854
 4885TIP3   OH236289   2.889   5.072   0.599  0.3136 -0.2294 -0.5039
 4885TIP3    H136290   2.908   5.140   0.664 -0.6437 -1.2828  0.9527
 4885TIP3    H236291   2.916   4.991   0.641  1.6651 -0.7718 -2.3140
 4886TIP3   OH236292   1.841   5.132   8.175  0.5813 -0.0426  0.1078
 4886TIP3    H136293   1.875   5.078   8.103  2.8567 -1.1629  1.8958
 4886TIP3    H236294   1.914   5.189   8.198 -1.3966  3.1681 -0.9534
 4887TIP3   OH236295   1.460   1.061   8.522  0.1663  0.3494 -0.7681
 4887TIP3    H136296   1.535   1.004   8.504 -0.7161 -0.2675 -2.6698
 4887TIP3    H236297   1.384   1.014   8.488 -1.3445  0.3616  2.2587
 4888TIP3   OH236298   4.404   1.122   0.099  0.6626  0.1045  0.5555
 4888TIP3    H136299   4.390   1.185   0.028  0.1772 -0.1101  0.4572
 4888TIP3    H236300   4.353   1.045   0.073 -0.4611  0.4396  1.6779
 4889TIP3   OH236301   4.607   2.675   0.514  0.2280 -0.1193 -0.3068
 4889TIP3    H136302   4.534   2.644   0.461  0.4737 -0.0812 -0.6703
 4889TIP3    H236303   4.684   2.659   0.460  0.2761  2.1548 -0.9902
 4890TIP3   OH236304   2.452   4.513   2.102  0.5610  0.0061  0.3182
 4890TIP3    H136305   2.522   4.493   2.165  1.3713 -1.0783 -0.8755
 4890TIP3    H236306   2.440   4.431   2.054 -0.5747  0.5999 -0.4234
 4891TIP3   OH236307   6.194   1.373   7.065 -0.3215 -0.0409 -0.0073
 4891TIP3    H136308   6.222   1.283   7.085 -1.3343 -0.9257 -2.2704
 4891TIP3    H236309   6.256   1.403   6.999 -1.6296 -0.1522 -1.3236
 4892TIP3   OH236310   0.812   3.876   0.419  0.4030  0.0661  0.0389
 4892TIP3    H136311   0.809   3.964   0.455 -1.9030 -0.0793  0.3391
 4892TIP3    H236312   0.866   3.884   0.340  1.5751  1.3767  0.9287
 4893TIP3   OH236313   6.002   4.852   1.671 -0.6104 -0.4150  0.3080
 4893TIP3    H136314   5.970   4.939   1.647 -0.7512 -0.7367 -0.7304
 4893TIP3    H236315   6.097   4.860   1.668 -0.5329 -1.0672 -3.0252
 4894TIP3   OH236316   0.192   4.267   1.486  0.8280  0.2875 -0.0882
 4894TIP3    H136317   0.246   4.266   1.565  0.4130 -1.7503  0.2214
 4894TIP3    H236318   0.175   4.175   1.467 -0.4837  0.7925 -1.5978
 4895TIP3   OH236319   6.020   0.969   0.106 -0.2375  0.0541 -0.3530
 4895TIP3    H136320   6.051   0.911   0.176  1.4241 -1.1870 -2.0199
 4895TIP3    H236321   6.095   1.024   0.086 -0.8435  0.7046 -0.8783
 4896TIP3   OH236322   1.738   5.247   1.955 -0.0286  0.3231  0.1080
 4896TIP3    H136323   1.810   5.220   2.012  0.3654  1.2069  0.0293
 4896TIP3    H236324   1.772   5.238   1.866  0.0771  0.9767  0.0775
 4897TIP3   OH236325   0.594   6.805   7.089 -0.1615 -0.3594  0.2489
 4897TIP3    H136326   0.498   6.805   7.091 -0.1622  0.5597  1.3483
 4897TIP3    H236327   0.615   6.796   6.996 -1.2578 -2.6974  0.1640
 4898TIP3   OH236328   2.733   0.715   0.992  0.1589 -0.3820  0.2782
 4898TIP3    H136329   2.725   0.798   1.040 -1.4632 -1.2258  1.6115
 4898TIP3    H236330   2.808   0.672   1.032  1.4520  0.6738 -0.8931
 4899TIP3   OH236331   1.106   4.332   7.233  0.0664  0.0088 -0.1424
 4899TIP3    H136332   1.187   4.282   7.224 -0.2430 -0.2457 -2.3057
 4899TIP3    H236333   1.131   4.422   7.215 -0.1827 -0.1529 -1.4060
 4900TIP3   OH236334   2.292   2.876   7.159  0.1061  0.4029  0.2411
 4900TIP3    H136335   2.367   2.891   7.102  0.5070  0.2213  0.7228
 4900TIP3    H236336   2.326   2.826   7.233 -0.8876 -1.5431 -0.5382
 4901TIP3   OH236337   1.107   2.450   7.569  0.2786 -0.6357  0.1136
 4901TIP3    H136338   1.088   2.505   7.493 -0.6220 -0.7446  0.2420
 4901TIP3    H236339   1.124   2.512   7.640 -0.6763 -0.4982  0.2449
 4902TIP3   OH236340   1.702   4.964   6.893  0.6596 -0.3768 -0.1728
 4902TIP3    H136341   1.695   5.056   6.917  1.2396 -0.5703  0.8026
 4902TIP3    H236342   1.611   4.933   6.889  0.5118 -0.2553  1.5823
 4903TIP3   OH236343   1.843   2.832   0.036 -0.4720 -0.3691  0.5485
 4903TIP3    H136344   1.855   2.773  -0.038 -0.3409  0.3827 -0.0391
 4903TIP3    H236345   1.895   2.792   0.107  0.2612 -0.5476 -0.0742
 4904TIP3   OH236346   5.222   3.372   1.256  0.0916  0.6148 -0.4035
 4904TIP3    H136347   5.286   3.310   1.290  2.3154  2.7021 -0.4726
 4904TIP3    H236348   5.212   3.348   1.164 -0.8799 -1.0056  0.0927
 4905TIP3   OH236349   6.316   1.105   8.046 -0.5093  0.2037 -0.2037
 4905TIP3    H136350   6.304   1.012   8.025 -0.9776  0.0429  0.6973
 4905TIP3    H236351   6.262   1.151   7.982 -0.0324 -0.1182 -0.8544
 4906TIP3   OH236352   5.117   3.876   2.440 -0.2616 -0.3416 -0.1022
 4906TIP3    H136353   5.124   3.883   2.345 -0.3047  0.2947 -0.0621
 4906TIP3    H236354   5.024   3.862   2.456 -0.7578  2.6035  0.0024
 4907TIP3   OH236355   1.730   5.369   0.868 -0.2684  0.4938  0.0389
 4907TIP3    H136356   1.807   5.380   0.924  0.7079  1.1644 -1.3880
 4907TIP3    H236357   1.688   5.455   0.869 -0.9458  0.1678  0.6980
 4908TIP3   OH236358   4.208   1.836   8.685 -0.2999 -0.2981 -0.2774
 4908TIP3    H136359   4.153   1.897   8.734  0.5963  1.1677 -1.0016
 4908TIP3    H236360   4.298   1.860   8.709  0.1505  0.2931 -2.3629
 4909TIP3   OH236361   4.261   4.783   2.667 -0.3476  0.3544 -0.1362
 4909TIP3    H136362   4.173   4.801   2.700 -0.3765  1.1487 -0.5924
 4909TIP3    H236363   4.301   4.870   2.657  1.0401 -0.0490  1.4768
 4910TIP3   OH236364   3.492   1.845   0.093 -0.6843 -0.2010  0.6131
 4910TIP3    H136365   3.439   1.820   0.169  0.1899  3.0517  2.4775
 4910TIP3    H236366   3.569   1.788   0.098 -0.4387  0.2475  2.4711
 4911TIP3   OH236367   3.571   0.217   8.223  0.6267 -0.1333  0.1245
 4911TIP3    H136368   3.606   0.231   8.311 -2.3298  2.1961  1.0879
 4911TIP3    H236369   3.603   0.130   8.198  2.9194 -0.1893  2.7640
 4912TIP3   OH236370   3.085   1.294   0.031 -0.2858  0.0015 -0.0043
 4912TIP3    H136371   3.142   1.345  -0.027  0.0325 -0.5265 -0.1626
 4912TIP3    H236372   2.997   1.307  -0.004 -0.5342  2.2186  1.2445
 4913TIP3   OH236373   6.416   1.380   6.875 -0.1394 -0.2654  0.6322
 4913TIP3    H136374   6.451   1.466   6.853 -1.0097 -0.3148 -1.1551
 4913TIP3    H236375   6.431   1.328   6.796 -1.5822 -1.1163  0.8968
 4914TIP3   OH236376   4.773   6.429   0.842 -0.1308 -0.0593  0.3764
 4914TIP3    H136377   4.840   6.492   0.868 -1.5029  1.0848  1.2659
 4914TIP3    H236378   4.802   6.398   0.756  1.8602 -0.1154  1.0019
 4915TIP3   OH236379   6.338   0.407   8.795  0.0504 -0.2462 -0.5082
 4915TIP3    H136380   6.355   0.328   8.846  3.0649 -0.2378 -1.3103
 4915TIP3    H236381   6.247   0.398   8.766 -0.2536 -2.5055  0.9032
 4916TIP3   OH236382   4.033   0.764   7.649  0.1575 -0.0399 -0.9488
 4916TIP3    H136383   4.008   0.690   7.705  1.0753 -0.0758 -0.5642
 4916TIP3    H236384   4.100   0.728   7.591 -0.1732  0.2205 -1.4933
 4917TIP3   OH236385   0.368   6.602   8.055  0.4052  0.3460  0.0080
 4917TIP3    H136386   0.362   6.673   8.119  2.2754 -0.4045  1.0835
 4917TIP3    H236387   0.444   6.625   8.001  1.7879 -1.3796  1.1339
 4918TIP3   OH236388   2.949   3.734   1.600  0.4190  0.4914  0.1566
 4918TIP3    H136389   2.935   3.776   1.684  0.5293  0.9248 -0.0401
 4918TIP3    H236390   2.876   3.674   1.591 -0.6313  1.7939 -0.2749
 4919TIP3   OH236391   5.662   6.140   1.819  0.4860  0.1859  0.5414
 4919TIP3    H136392   5.692   6.090   1.895 -0.9243  1.0374  1.6863
 4919TIP3    H236393   5.713   6.221   1.822  1.5867 -0.4348 -0.3822
 4920TIP3   OH236394   3.380   2.209   7.242  0.1093 -0.1337 -0.1804
 4920TIP3    H136395   3.465   2.251   7.233 -0.0085  0.0402 -0.4978
 4920TIP3    H236396   3.327   2.274   7.289  0.0271 -0.0624 -0.3685
 4921TIP3   OH236397   4.844   3.780   2.511  0.6527  0.1126 -0.6773
 4921TIP3    H136398   4.881   3.693   2.525  0.2576  0.0491  0.0038
 4921TIP3    H236399   4.789   3.770   2.433 -0.0949 -0.4768 -0.0905
 4922TIP3   OH236400   1.149   4.246   1.216  0.2557  0.7610  0.5803
 4922TIP3    H136401   1.164   4.285   1.130 -0.5260 -0.4342 -0.1236
 4922TIP3    H236402   1.055   4.232   1.221  0.4940 -1.0118  0.7904
 4923TIP3   OH236403   1.350   2.998   8.479 -0.1732  0.0416 -0.6489
 4923TIP3    H136404   1.378   2.927   8.538  1.9333 -1.0713 -2.8046
 4923TIP3    H236405   1.397   3.075   8.511 -1.5213  0.2598  0.9653
 4924TIP3   OH236406   1.514   6.492   2.106 -0.2242  0.7006 -0.3287
 4924TIP3    H136407   1.494   6.586   2.106  0.7776  0.9235 -0.0155
 4924TIP3    H236408   1.455   6.455   2.041 -0.6578  1.5443 -0.4293
 4925TIP3   OH236409   0.565   3.153   0.159  0.5779 -0.2550  0.4902
 4925TIP3    H136410   0.628   3.094   0.199  1.1210  1.9854  3.1981
 4925TIP3    H236411   0.480   3.122   0.190  0.7521 -0.3995  0.8244
 4926TIP3   OH236412   6.068   5.077   1.485  0.2472  0.3063  0.1072
 4926TIP3    H136413   6.023   5.141   1.430  0.8396  1.2424  0.6838
 4926TIP3    H236414   6.160   5.086   1.461  0.1402 -2.0396 -1.5343
 4927TIP3   OH236415   4.896   0.222   0.319  0.5464 -0.2482  0.8731
 4927TIP3    H136416   4.878   0.203   0.411 -1.4327 -0.4762  0.4663
 4927TIP3    H236417   4.812   0.249   0.282  1.0176 -1.3351 -1.1613
 4928TIP3   OH236418   2.958   3.065   1.530  0.2440  0.8963  0.4250
 4928TIP3    H136419   3.023   3.013   1.483 -0.3883  0.8709 -0.4533
 4928TIP3    H236420   2.929   3.008   1.601  2.4681  1.5887  1.9591
 4929TIP3   OH236421   6.369   4.450   7.554 -0.1145  0.2020 -0.5003
 4929TIP3    H136422   6.441   4.399   7.591 -1.4392 -0.8968  0.6650
 4929TIP3    H236423   6.348   4.405   7.472  2.1447  2.0380 -2.2239
 4930TIP3   OH236424   5.629   1.646   0.868 -0.1891 -0.0013  0.0510
 4930TIP3    H136425   5.723   1.641   0.852 -0.1443 -1.0140  0.5951
 4930TIP3    H236426   5.600   1.555   0.874 -1.1593  0.3027  0.1505
 4931TIP3   OH236427   4.260   4.845   0.312 -0.2883 -0.4415 -0.0520
 4931TIP3    H136428   4.282   4.809   0.226 -2.5163 -0.3341 -0.7140
 4931TIP3    H236429   4.334   4.901   0.334  1.0261 -1.6336 -1.1896
 4932TIP3   OH236430   6.158   1.284   7.621  0.2993  0.1823  0.5772
 4932TIP3    H136431   6.248   1.263   7.644  0.3734  0.5375  0.6167
 4932TIP3    H236432   6.164   1.328   7.537  0.1946  0.5220  0.7460
 4933TIP3   OH236433   4.862   5.633   8.488  0.3664  0.5504 -0.0427
 4933TIP3    H136434   4.894   5.576   8.418 -0.6898  3.1764 -2.9071
 4933TIP3    H236435   4.935   5.692   8.506  0.6801 -0.1994  1.2539
 4934TIP3   OH236436   2.594   2.927   2.629 -0.1556  0.4395 -0.3353
 4934TIP3    H136437   2.536   2.878   2.571 -0.4300  1.6065 -1.0864
 4934TIP3    H236438   2.604   2.872   2.706 -0.9387 -0.5085 -0.8958
 4935TIP3   OH236439   1.197   1.919   8.659  0.7181  0.6066  0.1031
 4935TIP3    H136440   1.136   1.990   8.676 -2.5525 -2.0724  0.7349
 4935TIP3    H236441   1.192   1.904   8.564  0.1131  0.2253  0.1880
 4936TIP3   OH236442   1.042   2.715   1.513 -0.0876 -0.5727  0.1673
 4936TIP3    H136443   1.107   2.742   1.578  0.5469  0.4487 -0.8699
 4936TIP3    H236444   1.010   2.630   1.545  0.5495 -0.3171  1.5542
 4937TIP3   OH236445   3.003   3.505   1.153  0.3530 -0.1048 -0.6340
 4937TIP3    H136446   2.982   3.577   1.213  1.7003 -0.1537 -0.0770
 4937TIP3    H236447   3.032   3.434   1.210 -1.1896 -1.1954 -1.1635
 4938TIP3   OH236448   4.690   6.455   6.721  0.4492  0.8619 -0.5595
 4938TIP3    H136449   4.761   6.446   6.785  0.0290  1.5855  0.0234
 4938TIP3    H236450   4.674   6.366   6.690  0.0229  0.3577  1.0471
 4939TIP3   OH236451   4.640   5.591   1.585 -0.1303  0.3907 -0.2904
 4939TIP3    H136452   4.600   5.504   1.582  0.1644  0.1718  1.1507
 4939TIP3    H236453   4.634   5.617   1.677 -0.0106  1.8116 -0.6540
 4940TIP3   OH236454   3.897   1.365   6.906  0.0163 -0.0367  0.1705
 4940TIP3    H136455   3.876   1.457   6.919  0.7616  0.1586  0.0233
 4940TIP3    H236456   3.918   1.358   6.812 -3.0684 -0.9684 -0.5788
 4941TIP3   OH236457   5.324   0.412   8.416 -0.2859 -0.2762 -0.2017
 4941TIP3    H136458   5.305   0.379   8.503 -1.4295  0.6996 -0.0580
 4941TIP3    H236459   5.419   0.424   8.415 -0.4543  2.0494  1.8101
 4942TIP3   OH236460   4.313   4.843   1.211  0.1510  0.3068  0.0798
 4942TIP3    H136461   4.339   4.924   1.167 -0.3962 -0.5888 -2.0228
 4942TIP3    H236462   4.386   4.783   1.197 -0.4289 -0.2890 -0.4448
 4943TIP3   OH236463   6.158   2.733   8.492  0.4919  0.4264  0.4827
 4943TIP3    H136464   6.147   2.803   8.428  1.2076 -0.1209 -0.2563
 4943TIP3    H236465   6.069   2.703   8.510  0.2864  0.5391 -0.3153
 4944TIP3   OH236466   3.858   0.048   0.045 -0.1415 -0.4267  0.1579
 4944TIP3    H136467   3.951   0.040   0.027  0.2025 -1.2428  2.1052
 4944TIP3    H236468   3.839   0.142   0.034  1.1639 -0.0605  0.9097
 4945TIP3   OH236469   1.034   6.617   7.317  0.5369 -0.1561  0.1220
 4945TIP3    H136470   0.995   6.699   7.289  1.4394  1.1482  2.3712
 4945TIP3    H236471   1.089   6.641   7.392  1.9439 -2.5989 -0.0099
 4946TIP3   OH236472   6.184   4.630   0.168 -0.5072 -0.4660  0.3952
 4946TIP3    H136473   6.258   4.591   0.215  0.8996  0.6433 -0.7898
 4946TIP3    H236474   6.150   4.559   0.114  1.2819 -0.4211 -0.8735
 4947TIP3   OH236475   2.859   5.145   0.140 -0.2336 -0.3661  0.4276
 4947TIP3    H136476   2.861   5.195   0.222 -0.5242 -0.6648  0.6169
 4947TIP3    H236477   2.815   5.063   0.162  1.3736 -1.2585  0.4193
 4948TIP3   OH236478   3.236   2.955   2.088  0.2731  0.3175 -0.0548
 4948TIP3    H136479   3.308   2.894   2.071 -0.5912 -1.4362  2.1193
 4948TIP3    H236480   3.244   2.977   2.181 -2.2092 -0.3009  0.3813
 4949TIP3   OH236481   4.001   2.297   7.486  0.1835 -0.4574 -0.5093
 4949TIP3    H136482   4.085   2.265   7.520 -0.1225 -0.2217  0.5093
 4949TIP3    H236483   3.952   2.322   7.564 -1.4928 -2.1629 -0.9307
 4950TIP3   OH236484   2.816   4.424   1.313  0.5294 -0.2095 -0.1629
 4950TIP3    H136485   2.847   4.348   1.362 -0.5270  0.3634  1.4733
 4950TIP3    H236486   2.726   4.402   1.289  0.5963  0.0749 -0.6955
 4951TIP3   OH236487   0.310   5.611   0.359  0.3056  0.1944  0.5813
 4951TIP3    H136488   0.348   5.634   0.444  0.4244  0.0154  0.5768
 4951TIP3    H236489   0.251   5.538   0.378  0.2999  0.1817  0.5154
 4952TIP3   OH236490   1.663   5.212   7.214  0.3404  0.6042 -0.1347
 4952TIP3    H136491   1.720   5.198   7.139 -0.0104 -0.2801 -0.2463
 4952TIP3    H236492   1.574   5.199   7.180  0.0725  1.6326  0.1108
 4953TIP3   OH236493   3.691   0.258   1.055  0.4038 -0.3749 -0.8428
 4953TIP3    H136494   3.636   0.272   1.132  0.9510 -0.5289 -0.4157
 4953TIP3    H236495   3.677   0.166   1.032 -0.3055 -0.1498 -1.3724
 4954TIP3   OH236496   2.685   2.469   0.388  0.3812 -0.2434 -0.7000
 4954TIP3    H136497   2.763   2.430   0.346  3.3673  3.0286  1.2230
 4954TIP3    H236498   2.719   2.508   0.468 -3.4667  0.9530  0.5241
 4955TIP3   OH236499   0.185   1.955   1.789  0.0435 -0.4206  0.0517
 4955TIP3    H136500   0.173   1.998   1.874 -0.1410  0.2692 -0.3174
 4955TIP3    H236501   0.098   1.927   1.763  0.3188 -2.1852  0.8734
 4956TIP3   OH236502   0.360   5.736   7.241  0.4581  0.1434  0.2186
 4956TIP3    H136503   0.367   5.642   7.255 -0.3523 -0.2100 -1.4699
 4956TIP3    H236504   0.426   5.755   7.174 -1.1148  0.2453 -1.3942
 4957TIP3   OH236505   0.095   3.234   0.532 -1.0026  0.1435 -0.6096
 4957TIP3    H136506   0.020   3.233   0.473 -0.2240 -1.5391 -1.6488
 4957TIP3    H236507   0.124   3.142   0.535  2.0729  0.9800 -1.6340
 4958TIP3   OH236508   5.886   5.385   0.267 -0.1105 -0.8885  0.0483
 4958TIP3    H136509   5.900   5.291   0.280  0.0455 -1.1341 -1.6382
 4958TIP3    H236510   5.966   5.426   0.299 -0.3023 -1.2839  1.0843
 4959TIP3   OH236511   4.159   2.846   0.795 -0.0902 -0.0503 -0.4613
 4959TIP3    H136512   4.101   2.910   0.836 -0.8156 -1.0869  0.1827
 4959TIP3    H236513   4.247   2.879   0.813 -0.4498  1.4361 -1.2827
 4960TIP3   OH236514   0.726   3.032   0.970  0.2962  0.3890 -0.5357
 4960TIP3    H136515   0.819   3.040   0.954  0.0714  1.4070 -1.4295
 4960TIP3    H236516   0.709   3.089   1.045  1.0845 -3.1999  2.7004
 4961TIP3   OH236517   5.876   0.552   8.327 -0.1495 -0.2535  0.5235
 4961TIP3    H136518   5.861   0.458   8.318 -0.7292 -0.1015 -0.1549
 4961TIP3    H236519   5.953   0.559   8.384  0.5056 -1.1568 -0.2287
 4962TIP3   OH236520   2.274   0.503   7.953  0.6260  0.4739 -0.3399
 4962TIP3    H136521   2.292   0.474   8.043  1.4026 -2.2342 -1.2582
 4962TIP3    H236522   2.182   0.529   7.954  0.8164  1.1890  1.3847
 4963TIP3   OH236523   0.202   2.840   8.497  0.0672  0.0934 -0.6144
 4963TIP3    H136524   0.170   2.909   8.439  1.4003  0.6144 -0.7599
 4963TIP3    H236525   0.275   2.801   8.449 -1.1206 -1.9589 -0.8754
 4964TIP3   OH236526   2.115   5.136   1.467  0.3531  0.4800 -0.2656
 4964TIP3    H136527   2.088   5.069   1.403 -0.9269  0.7719 -0.0551
 4964TIP3    H236528   2.134   5.087   1.546  1.3743  0.1752 -0.6818
 4965TIP3   OH236529   5.319   1.365   7.800  0.1554  0.0145 -0.7207
 4965TIP3    H136530   5.384   1.428   7.771  1.8192 -2.4054 -2.7006
 4965TIP3    H236531   5.312   1.303   7.728 -2.4357 -1.2921  0.5307
 4966TIP3   OH236532   5.150   6.098   0.921 -0.4517  0.0171 -0.2468
 4966TIP3    H136533   5.201   6.116   0.841  0.8809 -0.1402  0.5366
 4966TIP3    H236534   5.074   6.049   0.890  0.6152 -1.0303 -1.3192
 4967TIP3   OH236535   2.411   3.992   2.323  0.0113  0.0105 -0.0162
 4967TIP3    H136536   2.348   3.926   2.351  1.3849 -1.9311 -1.1971
 4967TIP3    H236537   2.495   3.945   2.319  0.8760  1.5591 -1.8475
 4968TIP3   OH236538   0.474   2.567   0.615 -0.0074 -0.0220 -0.2200
 4968TIP3    H136539   0.385   2.599   0.602 -0.2816  0.3072  2.1273
 4968TIP3    H236540   0.481   2.491   0.558 -1.2141  0.9103 -1.6731
 4969TIP3   OH236541   2.750   5.954   8.783  0.2545 -0.1470  0.6406
 4969TIP3    H136542   2.840   5.969   8.755  0.0670 -1.6302 -0.8916
 4969TIP3    H236543   2.744   5.860   8.795 -1.5056 -0.2859 -0.8979
 4970TIP3   OH236544   0.378   2.538   1.024 -0.2518  0.1038  0.1847
 4970TIP3    H136545   0.311   2.566   1.086 -1.0805 -0.3964 -0.4585
 4970TIP3    H236546   0.424   2.467   1.069  0.3627  0.9646  0.9305
 4971TIP3   OH236547   3.836   2.215   0.902 -0.3792 -0.3776 -0.4101
 4971TIP3    H136548   3.915   2.251   0.942 -0.9489  0.0396  0.3546
 4971TIP3    H236549   3.834   2.254   0.815  0.0464 -0.0871 -0.2915
 4972TIP3   OH236550   0.271   6.234   2.262  0.2553  0.3550 -0.0398
 4972TIP3    H136551   0.203   6.231   2.328  1.1944 -1.0286  0.9216
 4972TIP3    H236552   0.230   6.278   2.187 -2.5704 -2.6139 -0.4780
 4973TIP3   OH236553   2.627   4.203   0.433  0.1648  0.4038  0.1974
 4973TIP3    H136554   2.565   4.131   0.444 -1.0733  1.2231 -1.0350
 4973TIP3    H236555   2.649   4.231   0.522 -0.1693 -0.7766  0.6649
 4974TIP3   OH236556   0.216   0.024   1.475  0.1763 -0.0057  0.0220
 4974TIP3    H136557   0.261   0.010   1.559 -0.7627 -0.6148  0.4392
 4974TIP3    H236558   0.210  -0.063   1.437 -2.5615 -0.3365  0.9888
 4975TIP3   OH236559   0.080   2.943   7.624  0.1173  0.1264 -0.0193
 4975TIP3    H136560   0.148   2.881   7.597  1.1615  1.1215  0.2488
 4975TIP3    H236561   0.024   2.951   7.547 -0.0822 -1.2010 -0.0313
 4976TIP3   OH236562   5.605   5.365   7.580  0.1466 -0.5497  0.5556
 4976TIP3    H136563   5.599   5.308   7.503  2.0083 -0.7194  0.5003
 4976TIP3    H236564   5.699   5.376   7.595 -0.1448  1.6607  1.1967
 4977TIP3   OH236565   6.419   1.340   0.927  0.7821  0.8749 -0.0660
 4977TIP3    H136566   6.369   1.418   0.950 -0.5094  0.1280 -0.2794
 4977TIP3    H236567   6.355   1.269   0.927  1.5405  0.1365 -1.8010
 4978TIP3   OH236568   5.462   1.281   2.033 -0.2350  0.3671  0.1437
 4978TIP3    H136569   5.384   1.226   2.033 -0.5946  0.8329  1.4489
 4978TIP3    H236570   5.486   1.288   1.940 -0.4574 -1.5449 -0.0999
 4979TIP3   OH236571   0.050   1.381   1.605 -0.0644  0.4701  0.1220
 4979TIP3    H136572   0.071   1.465   1.566 -1.3421  0.5838 -0.3709
 4979TIP3    H236573   0.092   1.316   1.548  0.4208  0.7458  0.1638
 4980TIP3   OH236574   5.409   4.255   8.093  0.0096  0.0226  0.2177
 4980TIP3    H136575   5.339   4.301   8.139  0.9545  1.7891 -0.0413
 4980TIP3    H236576   5.469   4.226   8.162 -0.0173  0.1748  0.3043
 4981TIP3   OH236577   1.030   0.436   0.696  0.1592  0.0103  0.2543
 4981TIP3    H136578   1.103   0.425   0.757 -0.9600 -2.1140  1.3196
 4981TIP3    H236579   0.965   0.371   0.725 -0.6718 -0.6726 -2.8255
 4982TIP3   OH236580   4.460   2.744   8.295  0.1828 -0.2507 -0.4794
 4982TIP3    H136581   4.490   2.697   8.217  2.0651  0.4906 -0.2488
 4982TIP3    H236582   4.442   2.833   8.264 -1.6517 -0.6062 -0.5567
 4983TIP3   OH236583   2.797   6.135   7.524  0.3007 -0.2925 -0.2226
 4983TIP3    H136584   2.810   6.148   7.618 -1.0327  0.1536 -0.0680
 4983TIP3    H236585   2.731   6.201   7.500 -0.3759 -1.2756 -1.1787
 4984TIP3   OH236586   4.642   5.129   0.608 -0.3832  0.0564 -0.2650
 4984TIP3    H136587   4.569   5.167   0.559  0.2030  0.7550 -0.6112
 4984TIP3    H236588   4.618   5.037   0.619 -0.8509  0.0476 -1.2525
 4985TIP3   OH236589   2.653   6.437   2.490  0.1726 -0.4100  0.2787
 4985TIP3    H136590   2.745   6.415   2.479  0.3136 -0.4444  1.3596
 4985TIP3    H236591   2.641   6.519   2.442  0.8052 -0.3285  0.2581
 4986TIP3   OH236592   0.780   4.550   2.168  0.0297 -0.2037 -0.1218
 4986TIP3    H136593   0.738   4.466   2.185  2.2990 -1.2207  0.8734
 4986TIP3    H236594   0.719   4.597   2.111 -1.4941 -2.3389 -0.3474
 4987TIP3   OH236595   3.931   5.813   2.087 -0.5295  0.4850  0.1121
 4987TIP3    H136596   3.905   5.901   2.113  0.1022  0.2568  1.5886
 4987TIP3    H236597   3.898   5.756   2.157  1.5035 -0.1116  0.6602
 4988TIP3   OH236598   5.737   5.383   8.511  0.3143 -0.0272  0.6000
 4988TIP3    H136599   5.789   5.412   8.436  0.2885 -0.7694  0.2882
 4988TIP3    H236600   5.780   5.304   8.541 -1.4817 -1.5735 -0.6340
 4989TIP3   OH236601   3.729   5.384   1.691  0.2683 -0.2959 -0.3793
 4989TIP3    H136602   3.637   5.406   1.676 -0.0098 -1.0733  0.1446
 4989TIP3    H236603   3.776   5.467   1.680 -0.5214  0.1558 -0.3830
 4990TIP3   OH236604   4.652   0.260   7.020 -0.1597 -0.4921 -0.3887
 4990TIP3    H136605   4.577   0.281   6.965 -1.0760  1.4550  1.4308
 4990TIP3    H236606   4.613   0.228   7.102  0.9963 -0.0940  0.3434
 4991TIP3   OH236607   1.586   6.748   8.171  0.1403 -0.1998  0.3528
 4991TIP3    H136608   1.522   6.768   8.102  0.5361 -2.4823 -0.8009
 4991TIP3    H236609   1.533   6.710   8.241 -0.0224  0.0971  0.3937
 4992TIP3   OH236610   3.715   5.290   1.112 -0.5428 -0.1925  0.2350
 4992TIP3    H136611   3.671   5.204   1.114  1.3920 -1.2379  0.8985
 4992TIP3    H236612   3.725   5.313   1.204  0.0335  0.1498  0.0896
 4993TIP3   OH236613   2.513   5.089   1.184 -0.1078  0.0599 -0.0706
 4993TIP3    H136614   2.606   5.070   1.201 -0.1181  0.8128  0.8787
 4993TIP3    H236615   2.510   5.182   1.166 -0.5389 -0.1692 -1.2890
 4994TIP3   OH236616   3.829   6.066   2.116 -0.0467  0.6256  0.3662
 4994TIP3    H136617   3.748   6.015   2.123 -0.6721  1.7771  2.1400
 4994TIP3    H236618   3.807   6.152   2.151  1.6664  1.3351 -0.1723
 4995TIP3   OH236619   1.508   6.150   0.519 -0.1407  0.2081 -0.8072
 4995TIP3    H136620   1.476   6.228   0.563  1.6989  0.3887  0.3602
 4995TIP3    H236621   1.604   6.155   0.527  0.1417 -1.1721 -2.4493
 4996TIP3   OH236622   0.611   2.863   8.642  0.3372 -0.0231  0.7689
 4996TIP3    H136623   0.631   2.956   8.650 -3.8123  1.0215  1.0770
 4996TIP3    H236624   0.593   2.834   8.731 -3.8926  0.5197  0.2927
 4997TIP3   OH236625   5.233   0.277   0.186 -0.3554 -0.1523 -0.1459
 4997TIP3    H136626   5.233   0.370   0.165  0.3009 -0.4005 -1.3563
 4997TIP3    H236627   5.273   0.272   0.273 -3.6455  0.9652  1.5746
 4998TIP3   OH236628   5.624   2.360   7.698 -0.1912  0.2878 -0.3804
 4998TIP3    H136629   5.547   2.414   7.678 -1.2331 -0.8085  0.5241
 4998TIP3    H236630   5.598   2.271   7.672  0.4531 -0.2356  0.6986
 4999TIP3   OH236631   3.578   4.074   8.338 -0.0077 -0.3372 -0.1819
 4999TIP3    H136632   3.632   4.011   8.386 -0.7753 -0.3103  0.7476
 4999TIP3    H236633   3.490   4.059   8.371 -0.0086  2.3038  1.2371
 5000TIP3   OH236634   1.861   5.780   8.487 -0.9831  0.3210 -0.9750
 5000TIP3    H136635   1.803   5.720   8.439  1.6812 -3.0172 -0.3949
 5000TIP3    H236636   1.944   5.777   8.439 -0.0206  1.6074  0.5185
 5001TIP3   OH236637   4.269   3.986   0.196  0.3282  0.2241 -0.0180
 5001TIP3    H136638   4.261   4.078   0.220 -1.0848 -0.1608  1.1121
 5001TIP3    H236639   4.256   3.985   0.101  1.4973  1.2879 -0.2147
 5002TIP3   OH236640   3.632   1.788   6.355  0.3941 -0.3035 -0.2244
 5002TIP3    H136641   3.648   1.876   6.321 -0.1352  0.4320  1.3276
 5002TIP3    H236642   3.719   1.756   6.380  0.3245  1.0874  2.1300
 5003TIP3   OH236643   0.149   5.843   1.025 -0.4749 -0.2907  0.3436
 5003TIP3    H136644   0.055   5.828   1.033 -0.7836  0.9044 -0.7192
 5003TIP3    H236645   0.165   5.851   0.931  0.4722  0.7392  0.5614
 5004TIP3   OH236646   2.672   1.441   7.175  0.2461 -0.7337  0.2516
 5004TIP3    H136647   2.588   1.475   7.208  1.1309  1.3299  0.5367
 5004TIP3    H236648   2.733   1.455   7.248  1.6983  1.5821 -1.2791
 5005TIP3   OH236649   1.178   1.358   2.477  0.1285  0.0486  0.6247
 5005TIP3    H136650   1.122   1.395   2.409 -0.5971 -0.5012  0.9130
 5005TIP3    H236651   1.266   1.387   2.454 -0.3359  1.4059  0.4752
 5006TIP3   OH236652   0.626   4.053   8.099 -0.0534  0.2005 -0.3105
 5006TIP3    H136653   0.709   4.021   8.064  0.7200  0.3263  1.3697
 5006TIP3    H236654   0.649   4.131   8.149 -1.0292 -0.3191  0.9943
 5007TIP3   OH236655   6.156   0.403   1.658  0.1180  0.1309  0.1914
 5007TIP3    H136656   6.213   0.360   1.594  1.0484 -0.3367  1.3094
 5007TIP3    H236657   6.209   0.474   1.694 -1.1450  1.8342 -1.0828
 5008TIP3   OH236658   1.922   3.380   1.265  0.2435 -0.4099  0.6268
 5008TIP3    H136659   1.868   3.372   1.343 -0.6778  3.4194  0.5903
 5008TIP3    H236660   1.923   3.292   1.226 -1.7239 -1.7363  3.3148
 5009TIP3   OH236661   0.219   2.372   7.820 -0.4614 -0.7857  0.1160
 5009TIP3    H136662   0.285   2.430   7.781  0.9510 -1.4607  1.4020
 5009TIP3    H236663   0.155   2.358   7.750  0.0320  0.9829 -0.7436
 5010TIP3   OH236664   0.014   5.905   0.754 -0.9128  0.4048 -0.4892
 5010TIP3    H136665  -0.076   5.883   0.778 -0.8048  1.1991  0.7713
 5010TIP3    H236666   0.014   6.001   0.745 -0.5221  0.2853 -1.9673
 5011TIP3   OH236667   5.170   1.255   6.843 -0.0212 -0.4703  0.1739
 5011TIP3    H136668   5.134   1.317   6.780 -0.3754  0.0868  0.8995
 5011TIP3    H236669   5.248   1.220   6.801  0.4144  0.7811 -0.1099
 5012TIP3   OH236670   5.808   4.303   0.238 -0.2444 -0.3598 -0.0756
 5012TIP3    H136671   5.815   4.301   0.334 -1.4483  0.9039  0.0605
 5012TIP3    H236672   5.899   4.295   0.208  0.1262 -1.1172  1.1505
 5013TIP3   OH236673   4.634   2.946   0.609  1.0224  0.2981 -0.2354
 5013TIP3    H136674   4.615   2.858   0.575  0.6130  0.4355 -0.3629
 5013TIP3    H236675   4.723   2.964   0.579  1.3799 -0.3657  0.3975
 5014TIP3   OH236676   0.839   0.070   8.011 -0.2244  0.5322  0.1432
 5014TIP3    H136677   0.844   0.042   7.920 -0.4848  1.7561 -0.2651
 5014TIP3    H236678   0.905   0.018   8.056 -1.1790 -1.2407 -0.4271
 5015TIP3   OH236679   0.210   1.865   7.013 -0.3326 -0.6980 -0.2149
 5015TIP3    H136680   0.151   1.941   7.015  0.4913 -0.0376  2.2602
 5015TIP3    H236681   0.283   1.893   6.958  0.1643  0.5273  0.9959
 5016TIP3   OH236682   4.398   2.470   7.535  0.8710 -0.0748  0.3353
 5016TIP3    H136683   4.342   2.465   7.457 -1.1433 -0.9166  1.7399
 5016TIP3    H236684   4.428   2.381   7.549  1.9826  0.2360  0.0444
 5017TIP3   OH236685   1.728   2.213   8.612  0.4112 -0.2484  0.3726
 5017TIP3    H136686   1.681   2.235   8.692 -1.5197  4.1574 -1.6313
 5017TIP3    H236687   1.788   2.286   8.598  0.1306 -0.4320 -2.5151
 5018TIP3   OH236688   4.802   3.196   1.855  0.2195  0.5093  0.4600
 5018TIP3    H136689   4.727   3.145   1.823 -0.0005  0.9524  0.2574
 5018TIP3    H236690   4.848   3.224   1.776  1.9952 -1.7668  0.6084
 5019TIP3   OH236691   0.859   1.914   7.953  0.2523  0.1667  0.0553
 5019TIP3    H136692   0.824   1.937   7.867  0.9810  0.9552 -0.0361
 5019TIP3    H236693   0.888   1.997   7.991  3.1903 -0.5455 -0.3818
 5020TIP3   OH236694   4.919   3.013   8.516 -0.8176 -0.4613 -0.0198
 5020TIP3    H136695   4.863   3.082   8.481 -0.3340 -0.1338 -0.1577
 5020TIP3    H236696   4.859   2.953   8.559 -1.0312  1.6247  2.8633
 5021TIP3   OH236697   5.155   4.459   1.663  0.4458  0.4231  0.2446
 5021TIP3    H136698   5.069   4.438   1.698 -1.3107  0.2990 -3.6301
 5021TIP3    H236699   5.206   4.378   1.674 -0.8525 -0.4278  0.1369
 5022TIP3   OH236700   4.020   1.540   8.134 -0.4249  0.4672  0.6860
 5022TIP3    H136701   3.957   1.606   8.165  0.4890  1.2113  1.0077
 5022TIP3    H236702   4.071   1.518   8.211 -1.4256 -1.4796  0.8466
 5023TIP3   OH236703   1.540   3.320   8.265 -0.3155  0.9675 -0.1215
 5023TIP3    H136704   1.518   3.385   8.332 -1.5222 -0.2612  0.7435
 5023TIP3    H236705   1.458   3.307   8.216 -0.2417 -0.2030  0.0268
 5024TIP3   OH236706   4.250   3.879   0.472  0.0619 -0.2447 -0.2072
 5024TIP3    H136707   4.321   3.916   0.420  0.9006  0.8524  1.6150
 5024TIP3    H236708   4.174   3.934   0.452 -0.5154 -1.7588 -2.5869
 5025TIP3   OH236709   4.355   6.423   2.015 -0.1381 -0.1088 -0.0928
 5025TIP3    H136710   4.365   6.495   2.077  0.3718  2.0677 -2.5383
 5025TIP3    H236711   4.419   6.358   2.044  0.9339  1.3385  0.9758
 5026TIP3   OH236712   3.126   1.887   7.892 -0.0488 -0.1761 -0.6228
 5026TIP3    H136713   3.059   1.949   7.918 -0.0301 -0.9129  1.3439
 5026TIP3    H236714   3.203   1.909   7.945  0.9081 -0.0950 -1.9722
 5027TIP3   OH236715   3.208   2.390   7.376  0.5430 -0.0994 -0.5349
 5027TIP3    H136716   3.255   2.459   7.424  0.2563 -0.1973 -0.1040
 5027TIP3    H236717   3.140   2.362   7.437  0.9116 -1.0448 -0.5366
 5028TIP3   OH236718   1.355   5.544   7.117  0.0560 -0.3992  0.0485
 5028TIP3    H136719   1.411   5.572   7.190  0.1477 -2.7089  0.9700
 5028TIP3    H236720   1.350   5.620   7.059 -0.2199  1.6254  2.5619
 5029TIP3   OH236721   0.571   6.239   7.832  0.3146  0.6905  0.1616
 5029TIP3    H136722   0.621   6.295   7.773 -0.6431  1.1440 -0.2380
 5029TIP3    H236723   0.506   6.298   7.871 -0.1222  0.0400  0.4200
 5030TIP3   OH236724   6.651   1.784   0.523  0.1620  0.7018  0.2132
 5030TIP3    H136725   6.697   1.701   0.538  0.1800  0.7824  0.6123
 5030TIP3    H236726   6.565   1.758   0.491  1.2666  0.5504 -3.0464
 5031TIP3   OH236727   3.469   3.911   1.846  0.4727  0.6429 -0.0854
 5031TIP3    H136728   3.431   3.908   1.934  0.7303 -1.3993 -0.0117
 5031TIP3    H236729   3.393   3.913   1.787  0.2943  0.4748  0.1395
 5032TIP3   OH236730   6.811   0.915   8.762  0.0553  0.2428  0.6445
 5032TIP3    H136731   6.834   0.822   8.765  1.3017  0.2864 -2.7143
 5032TIP3    H236732   6.881   0.959   8.810  2.6036 -0.3055 -2.1961
 5033TIP3   OH236733   2.881   4.540   8.100  0.3646  0.4470 -0.0550
 5033TIP3    H136734   2.885   4.469   8.036  3.4647  0.1419  0.3025
 5033TIP3    H236735   2.949   4.518   8.164 -0.4793  2.3519  1.6111
 5034TIP3   OH236736   0.248   3.238   0.032  0.0557  0.3677  0.2288
 5034TIP3    H136737   0.197   3.186   0.094 -0.6457  0.2615 -0.4335
 5034TIP3    H236738   0.279   3.174  -0.033  0.0454  0.6150 -0.0209
 5035TIP3   OH236739   3.954   3.619   1.414  0.2772 -0.1111 -0.5296
 5035TIP3    H136740   3.951   3.530   1.379  2.3202 -0.6559  0.5764
 5035TIP3    H236741   4.034   3.623   1.466 -0.2789  2.0787  0.2892
 5036TIP3   OH236742   1.976   6.754   8.135  0.4720  0.6467 -0.4194
 5036TIP3    H136743   1.933   6.697   8.199  0.3984  0.9538 -0.1920
 5036TIP3    H236744   2.064   6.718   8.126  1.1282  1.7093  1.2960
 5037TIP3   OH236745   0.992   2.615   0.895  0.0661  0.0860 -0.4279
 5037TIP3    H136746   1.074   2.608   0.943  0.1739 -0.8552 -0.7228
 5037TIP3    H236747   0.951   2.695   0.927  0.8817  0.3129  0.0573
 5038TIP3   OH236748   4.137   5.703   0.807  0.0562  0.1021 -0.8641
 5038TIP3    H136749   4.166   5.759   0.879  0.1883  0.2591 -1.0403
 5038TIP3    H236750   4.044   5.725   0.797 -0.5162 -1.3887  0.6188
 5039TIP3   OH236751   1.488   3.433   0.516  0.0242  0.5202  0.2956
 5039TIP3    H136752   1.521   3.357   0.565 -1.3808 -0.6211 -0.4289
 5039TIP3    H236753   1.431   3.478   0.578 -1.1026 -0.4616  0.0255
 5040TIP3   OH236754   2.884   2.536   6.884  0.1505  0.1092  0.1423
 5040TIP3    H136755   2.811   2.489   6.844  0.7727 -0.4257 -0.3864
 5040TIP3    H236756   2.874   2.626   6.854  0.6801 -0.3049 -1.3707
 5041TIP3   OH236757   2.258   1.471   8.359  0.2864  0.0868  0.0944
 5041TIP3    H136758   2.287   1.544   8.305 -3.1869 -0.9082 -3.6322
 5041TIP3    H236759   2.181   1.504   8.404  0.2737 -0.5264  0.5299
 5042TIP3   OH236760   4.255   0.721   7.924  0.3880 -0.3241  0.1242
 5042TIP3    H136761   4.220   0.797   7.971  0.4303  0.7111 -1.4555
 5042TIP3    H236762   4.181   0.662   7.915 -0.6274  1.1389 -1.7765
 5043TIP3   OH236763   1.935   1.050   6.645 -0.2532 -0.4558 -0.0817
 5043TIP3    H136764   1.930   1.004   6.562 -0.0686  0.5707 -0.6762
 5043TIP3    H236765   1.867   1.009   6.699 -0.9393 -0.5784 -1.0133
 5044TIP3   OH236766   2.748   5.663   1.606  0.0649  0.0937 -0.0906
 5044TIP3    H136767   2.677   5.688   1.664 -0.7200 -2.2897  0.0609
 5044TIP3    H236768   2.815   5.625   1.663  1.0268  1.3289 -0.3516
 5045TIP3   OH236769   5.440   1.833   7.030 -0.0052 -0.1258 -0.0179
 5045TIP3    H136770   5.375   1.899   7.009 -1.5509 -1.2811  0.8761
 5045TIP3    H236771   5.392   1.750   7.026  2.2934 -1.5032 -3.1062
 5046TIP3   OH236772   2.105   1.227   8.359 -0.2289  0.2859  0.3459
 5046TIP3    H136773   2.088   1.256   8.269 -0.4593  0.4799  0.4471
 5046TIP3    H236774   2.174   1.285   8.390  2.0153 -1.6883 -0.6748
 5047TIP3   OH236775   4.381   3.616   6.448 -0.1183  0.2937 -0.2550
 5047TIP3    H136776   4.436   3.537   6.445  0.4304  0.6355  0.4115
 5047TIP3    H236777   4.391   3.648   6.538 -0.5435  0.9786 -0.4475
 5048TIP3   OH236778   0.305   2.989   0.217 -0.1551 -0.2339  0.0497
 5048TIP3    H136779   0.321   2.923   0.150 -1.2178 -0.8716  0.4022
 5048TIP3    H236780   0.321   2.944   0.300  0.5461  0.3718  0.2541
 5049TIP3   OH236781   3.704   6.009   1.670  0.1803  0.6754 -0.6164
 5049TIP3    H136782   3.630   5.970   1.624 -0.1661 -0.1722  0.6072
 5049TIP3    H236783   3.692   6.103   1.657 -2.0038  0.6734  0.7720
 5050TIP3   OH236784   5.071   4.641   0.366  0.5362  0.2078  0.7967
 5050TIP3    H136785   5.110   4.569   0.317  1.3335  0.4766  1.0151
 5050TIP3    H236786   4.997   4.602   0.412 -1.5082  0.3456 -2.1394
 5051TIP3   OH236787   2.616   3.833   2.322  0.0084 -0.2849  0.0998
 5051TIP3    H136788   2.605   3.797   2.410 -1.3895  3.0135  1.4394
 5051TIP3    H236789   2.700   3.880   2.326  0.6655 -1.3246 -0.8556
 5052TIP3   OH236790   3.693   0.995   1.700 -0.4345  0.3413  0.4157
 5052TIP3    H136791   3.676   0.973   1.609  0.1246 -1.0135  0.6108
 5052TIP3    H236792   3.606   1.008   1.739 -0.7923 -1.1224  0.1587
 5053TIP3   OH236793   3.344   4.301   2.128  0.1603  0.2996  0.0050
 5053TIP3    H136794   3.266   4.246   2.135  1.4619 -1.7095 -0.4102
 5053TIP3    H236795   3.379   4.302   2.217  1.3863 -1.5788 -0.3952
 5054TIP3   OH236796   3.482   3.683   6.314  0.1648  0.2759  0.3920
 5054TIP3    H136797   3.577   3.688   6.315  0.1989 -0.3455  0.7491
 5054TIP3    H236798   3.454   3.770   6.285  0.8607  0.1220 -0.8106
 5055TIP3   OH236799   0.638   0.013   0.935 -0.0812 -0.2589 -0.2148
 5055TIP3    H136800   0.561   0.002   0.991 -0.0283 -1.9977 -0.4536
 5055TIP3    H236801   0.704   0.052   0.992 -1.1538  1.4371 -0.0474
 5056TIP3   OH236802   0.408   4.692   0.381 -0.0467  0.2343 -0.1222
 5056TIP3    H136803   0.425   4.780   0.415 -1.0291  1.4135 -2.4088
 5056TIP3    H236804   0.386   4.640   0.457 -0.9465  2.3696  1.1725
 5057TIP3   OH236805   6.573   3.557   8.461  0.2996 -0.2559  0.3901
 5057TIP3    H136806   6.585   3.533   8.369 -0.4555 -1.4521  0.5881
 5057TIP3    H236807   6.578   3.474   8.509 -0.4514  0.2052  1.3004
 5058TIP3   OH236808   3.970   2.374   1.957  0.2628  0.0544 -0.6366
 5058TIP3    H136809   4.003   2.303   1.902 -0.9870  0.0548 -1.4207
 5058TIP3    H236810   3.975   2.339   2.046  1.4106 -0.3050 -0.8318
 5059TIP3   OH236811   4.588   3.589   8.604 -0.1387  0.1288 -0.5711
 5059TIP3    H136812   4.600   3.570   8.511  1.2023 -1.0612 -0.1922
 5059TIP3    H236813   4.673   3.624   8.632 -0.4773  0.3195  0.2312
 5060TIP3   OH236814   3.657   1.343   7.599  0.5492 -0.0358 -0.4788
 5060TIP3    H136815   3.693   1.315   7.515 -0.7421  1.2898 -1.5323
 5060TIP3    H236816   3.681   1.274   7.660  1.0425 -1.3088 -2.0466
 5061TIP3   OH236817   5.423   2.405   0.044 -0.3634 -0.4223  0.3119
 5061TIP3    H136818   5.376   2.375   0.121 -2.0346  1.6424  0.1839
 5061TIP3    H236819   5.417   2.500   0.047  0.2014 -0.2463 -1.9618
 5062TIP3   OH236820   4.806   6.351   0.592  0.1313  0.3309 -0.2628
 5062TIP3    H136821   4.755   6.302   0.529  0.3267 -1.4417  0.8917
 5062TIP3    H236822   4.869   6.401   0.539 -1.4966  1.0795 -1.5762
 5063TIP3   OH236823   3.213   6.066   1.144  0.0114  0.0433  0.6285
 5063TIP3    H136824   3.280   6.070   1.211  1.2243 -1.3406 -0.4409
 5063TIP3    H236825   3.228   6.142   1.089 -0.0190  0.3419  1.0320
 5064TIP3   OH236826   5.644   1.518   6.583 -0.3637  0.1049  0.5002
 5064TIP3    H136827   5.621   1.611   6.575 -0.9802 -0.1499 -1.0331
 5064TIP3    H236828   5.584   1.484   6.650 -0.6134  0.6545  0.5577
 5065TIP3   OH236829   1.857   6.037   8.309  1.0464 -0.4072 -0.3819
 5065TIP3    H136830   1.881   6.053   8.401 -0.8798 -1.0752  0.2750
 5065TIP3    H236831   1.906   6.104   8.260  1.8858  0.1550  1.1439
 5066TIP3   OH236832   5.297   3.982   0.246 -0.1893 -0.3181  0.2486
 5066TIP3    H136833   5.331   3.933   0.321  0.4846  0.1456  0.2618
 5066TIP3    H236834   5.325   4.072   0.262  1.3869 -0.4707 -1.3533
 5067TIP3   OH236835   4.157   3.993   7.813 -0.3023 -0.1677 -0.2393
 5067TIP3    H136836   4.129   4.073   7.858  0.6272  0.8712 -1.4330
 5067TIP3    H236837   4.077   3.959   7.772 -1.0391 -0.8092  1.6465
 5068TIP3   OH236838   3.448   4.836   0.504  0.3260 -0.2083  0.3039
 5068TIP3    H136839   3.417   4.876   0.422 -0.4989  0.5333  0.9576
 5068TIP3    H236840   3.442   4.742   0.488  1.6820 -0.1122 -1.0331
 5069TIP3   OH236841   5.295   6.307   7.828 -0.1296  0.5026 -0.3830
 5069TIP3    H136842   5.312   6.381   7.886 -2.0627  0.2601  0.5563
 5069TIP3    H236843   5.297   6.345   7.740  1.3898  1.1488 -0.1012
 5070TIP3   OH236844   0.974   6.205   1.370  0.7673  0.4858  0.4566
 5070TIP3    H136845   1.046   6.148   1.343 -1.1690 -1.3931 -0.9976
 5070TIP3    H236846   0.990   6.287   1.322  2.1244  0.2627  0.4700
 5071TIP3   OH236847   5.523   0.650   1.239 -0.1678 -0.4421  0.0230
 5071TIP3    H136848   5.466   0.636   1.315 -1.5810  1.0695 -0.6870
 5071TIP3    H236849   5.489   0.592   1.172 -1.1721  0.7270 -0.5193
 5072TIP3   OH236850   1.857   0.704   7.350 -0.3229  0.1413  0.2822
 5072TIP3    H136851   1.797   0.717   7.277 -0.4466  0.6544  0.4655
 5072TIP3    H236852   1.801   0.704   7.428  0.0103  1.8956  0.5671
 5073TIP3   OH236853   6.107   0.521   8.472 -0.2691 -0.1496 -0.4008
 5073TIP3    H136854   6.120   0.609   8.509 -2.8158  0.1001  0.0558
 5073TIP3    H236855   6.196   0.490   8.455  0.7998  1.8030  1.0890
 5074TIP3   OH236856   1.381   2.562   1.521 -0.1771  0.4430 -0.0496
 5074TIP3    H136857   1.351   2.621   1.590  1.0937  0.1076  0.8311
 5074TIP3    H236858   1.450   2.510   1.563 -0.4099 -0.8060 -1.1584
 5075TIP3   OH236859   1.095   6.559   8.205  0.6627 -0.2019 -0.3171
 5075TIP3    H136860   1.123   6.545   8.296  0.4766 -1.2593 -0.4127
 5075TIP3    H236861   1.166   6.522   8.152  1.2479  1.3096 -0.6368
 5076TIP3   OH236862   0.963   5.407   1.372  0.1438 -0.1680 -0.1230
 5076TIP3    H136863   0.883   5.368   1.408  0.8033 -1.3380  0.1224
 5076TIP3    H236864   0.958   5.499   1.398 -0.9275 -0.3039  0.2249
 5077TIP3   OH236865   2.456   1.322   8.274  0.1513  0.2834 -0.0845
 5077TIP3    H136866   2.516   1.382   8.231  1.6280 -0.3182  1.0485
 5077TIP3    H236867   2.391   1.379   8.315 -1.0298  0.8879 -2.6004
 5078TIP3   OH236868   2.756   2.460   2.182  0.0621  0.2775 -0.1910
 5078TIP3    H136869   2.738   2.543   2.226 -1.8969  0.9250 -2.0359
 5078TIP3    H236870   2.830   2.479   2.124  0.9716  0.1167  0.8782
 5079TIP3   OH236871   1.201   6.276   8.635 -0.3233 -0.4860  0.1402
 5079TIP3    H136872   1.290   6.244   8.648  0.4069  1.2666 -0.2689
 5079TIP3    H236873   1.190   6.345   8.700 -1.1951 -0.3297 -0.1543
 5080TIP3   OH236874   3.933   6.491   7.090 -0.0272  0.5954  0.4564
 5080TIP3    H136875   3.939   6.400   7.120  1.4429 -0.1464 -1.7861
 5080TIP3    H236876   3.905   6.540   7.167 -0.5481 -1.7042  1.8266
 5081TIP3   OH236877   1.657   0.325   0.295  0.0046  0.3353  0.2718
 5081TIP3    H136878   1.702   0.353   0.374  1.4072 -1.8482  0.3071
 5081TIP3    H236879   1.712   0.356   0.223  0.4506 -0.4598  0.2599
 5082TIP3   OH236880   3.956   3.050   0.850  0.2588 -0.4614 -0.1647
 5082TIP3    H136881   3.992   3.138   0.858 -1.2558  0.3372 -1.4857
 5082TIP3    H236882   3.929   3.027   0.939  1.0193  0.2399  0.2641
 5083TIP3   OH236883   2.724   4.971   8.159  0.0665 -0.0758  0.8007
 5083TIP3    H136884   2.726   5.007   8.071 -0.1160 -1.2529  0.2963
 5083TIP3    H236885   2.787   4.899   8.157 -0.8910 -0.9583  1.2289
 5084TIP3   OH236886   6.187   1.492   7.320 -0.0816  0.4784  0.0080
 5084TIP3    H136887   6.169   1.445   7.238 -1.2882 -1.6011  1.3722
 5084TIP3    H236888   6.279   1.518   7.313  0.5660 -1.8613 -0.9995
 5085TIP3   OH236889   4.116   4.116   8.439  0.0946  0.1113 -0.0278
 5085TIP3    H136890   4.207   4.094   8.418  0.8648 -2.0903  4.3824
 5085TIP3    H236891   4.112   4.211   8.432  2.2215  0.1469 -1.9043
 5086TIP3   OH236892   2.030   0.326   8.755  0.6575  0.2430  0.1514
 5086TIP3    H136893   1.976   0.328   8.676  0.3355  0.0802  0.3649
 5086TIP3    H236894   2.111   0.283   8.728 -0.3704 -2.0385  0.4580
 5087TIP3   OH236895   0.942   1.998   0.957  0.3423 -0.6625 -0.2439
 5087TIP3    H136896   0.967   2.044   0.877  0.8554  0.9309  0.7807
 5087TIP3    H236897   0.886   1.926   0.927  1.8766 -1.1498 -2.1598
 5088TIP3   OH236898   2.555   4.743   2.005 -0.3603 -0.1976 -0.5033
 5088TIP3    H136899   2.505   4.678   2.052 -1.3105  2.5245  2.6246
 5088TIP3    H236900   2.644   4.736   2.040 -0.3054 -0.2126 -0.6417
 5089TIP3   OH236901   3.548   0.635   0.518  0.4289 -0.2179 -0.5402
 5089TIP3    H136902   3.513   0.698   0.580 -0.8243 -1.0849 -0.3421
 5089TIP3    H236903   3.600   0.688   0.457 -1.7934  1.2477 -1.2745
 5090TIP3   OH236904   0.300   4.731   7.216  0.0383 -0.1681 -0.0439
 5090TIP3    H136905   0.277   4.705   7.127  1.7689 -1.8470 -0.0696
 5090TIP3    H236906   0.359   4.805   7.205 -1.6633  1.2348 -0.1424
 5091TIP3   OH236907   6.066   4.610   7.034  0.9192 -0.1656 -0.6060
 5091TIP3    H136908   6.086   4.693   7.076 -1.2942  0.5609 -0.8080
 5091TIP3    H236909   6.034   4.635   6.947 -0.7242 -1.0998 -0.3208
 5092TIP3   OH236910   4.194   1.613   1.505  0.2432  0.1189  0.4727
 5092TIP3    H136911   4.207   1.519   1.519  0.0148  0.0845  0.4551
 5092TIP3    H236912   4.115   1.634   1.555  0.4966  0.3753  0.7725
 5093TIP3   OH236913   5.041   4.982   6.923 -0.6835 -0.1297  0.3049
 5093TIP3    H136914   5.116   4.922   6.928  0.4313  1.2109  0.3461
 5093TIP3    H236915   4.987   4.947   6.852  0.3382 -0.7545 -0.1988
 5094TIP3   OH236916   4.281   4.060   2.751 -0.0225 -0.0309  0.2000
 5094TIP3    H136917   4.296   4.116   2.827  0.9789 -1.6088  1.2223
 5094TIP3    H236918   4.337   3.984   2.766 -1.2071 -1.2400 -1.2144
 5095TIP3   OH236919   5.170   0.549   7.080 -0.4391 -0.0128 -0.0268
 5095TIP3    H136920   5.127   0.554   6.995 -0.3419  2.2096  0.0071
 5095TIP3    H236921   5.233   0.478   7.070 -1.3190 -0.6534 -1.3717
 5096TIP3   OH236922   2.664   5.370   1.706  0.1643 -0.3126  1.2426
 5096TIP3    H136923   2.665   5.414   1.621 -0.3355 -0.3385  1.2185
 5096TIP3    H236924   2.638   5.439   1.768 -2.8455 -0.9990  0.9152
 5097TIP3   OH236925   3.160   4.109   2.211  0.3207 -0.1049  0.0493
 5097TIP3    H136926   3.095   4.150   2.153  0.8616 -0.9624 -1.2125
 5097TIP3    H236927   3.114   4.100   2.295 -0.8522  0.2186 -0.5265
 5098TIP3   OH236928   0.079   1.806   8.372 -0.5576 -0.4073 -0.5797
 5098TIP3    H136929  -0.003   1.773   8.408  0.1626 -0.9011  0.6665
 5098TIP3    H236930   0.113   1.734   8.318 -0.2489 -0.7514  0.0645
 5099TIP3   OH236931   0.867   1.046   7.185 -0.0135 -0.0432  0.0705
 5099TIP3    H136932   0.946   1.004   7.220 -1.0342 -2.1140  0.0843
 5099TIP3    H236933   0.899   1.100   7.113  1.7608  1.7846  2.0879
 5100TIP3   OH236934   2.792   5.491   7.495  0.5232 -0.0885 -0.3465
 5100TIP3    H136935   2.870   5.435   7.500  0.6628 -0.0405 -1.5410
 5100TIP3    H236936   2.719   5.430   7.484  0.0148 -0.2964  3.1341
 5101TIP3   OH236937   0.305   6.613   1.135 -0.5845 -0.1851 -0.1384
 5101TIP3    H136938   0.362   6.689   1.133  0.0357 -0.6504 -0.3083
 5101TIP3    H236939   0.227   6.640   1.085 -0.6243  0.5286  0.2978
 5102TIP3   OH236940   3.599   3.735   8.285  0.8793 -0.0907  0.1712
 5102TIP3    H136941   3.651   3.761   8.361 -0.2329  0.2087  0.8388
 5102TIP3    H236942   3.512   3.717   8.320  1.2551 -3.7332 -0.3807
 5103TIP3   OH236943   3.668   5.212   6.823  0.0814  0.0561  0.4455
 5103TIP3    H136944   3.760   5.186   6.818 -0.3074 -1.2317 -0.9231
 5103TIP3    H236945   3.625   5.140   6.869 -0.3491  0.3232  0.4672
 5104TIP3   OH236946   4.805   2.936   7.132 -0.1674  0.1948 -0.2209
 5104TIP3    H136947   4.764   2.870   7.077  1.0026 -0.3611 -0.4572
 5104TIP3    H236948   4.782   3.020   7.091  0.2940 -0.1847 -1.2980
 5105TIP3   OH236949   5.286   2.361   1.827 -0.2914  0.3402 -0.0431
 5105TIP3    H136950   5.210   2.413   1.852 -0.2290  0.1384  0.5790
 5105TIP3    H236951   5.251   2.272   1.817 -0.2754  0.3797 -0.4787
 5106TIP3   OH236952   6.059   5.502   1.561  0.3702  0.3567  0.3025
 5106TIP3    H136953   6.018   5.440   1.500  2.9835 -0.3577 -0.8535
 5106TIP3    H236954   5.989   5.565   1.581 -1.3246 -0.8607 -1.3839
 5107TIP3   OH236955   3.428   0.822   1.100 -0.2526  0.6750 -0.4377
 5107TIP3    H136956   3.488   0.896   1.103  1.1537 -0.4331  2.8244
 5107TIP3    H236957   3.366   0.837   1.171 -1.9131  0.1756 -1.6952
 5108TIP3   OH236958   2.424   4.793   1.171  0.2431 -0.3752 -0.2598
 5108TIP3    H136959   2.486   4.833   1.232 -1.0495 -1.7241  2.0654
 5108TIP3    H236960   2.373   4.867   1.138 -1.7679  0.1860  3.5427
 5109TIP3   OH236961   6.219   6.121   1.309  0.2451  0.3753  0.0864
 5109TIP3    H136962   6.190   6.036   1.275  0.6083  0.1851  0.2524
 5109TIP3    H236963   6.200   6.182   1.238 -2.3655  0.6110  0.8822
 5110TIP3   OH236964   4.232   0.118   1.602  0.6973 -0.3063  0.1886
 5110TIP3    H136965   4.309   0.125   1.659  0.6671  1.4278  0.0728
 5110TIP3    H236966   4.260   0.156   1.519 -0.2018  0.0761  0.0492
 5111TIP3   OH236967   0.083   5.437   1.271 -0.0331 -0.0946  0.1836
 5111TIP3    H136968   0.046   5.364   1.222  0.1726 -0.6931  0.9215
 5111TIP3    H236969   0.137   5.483   1.207 -0.4061 -0.4008 -0.3618
 5112TIP3   OH236970   4.455   1.704   7.701  0.1051 -0.8172 -0.2641
 5112TIP3    H136971   4.534   1.649   7.701  0.1226 -0.8053  1.0385
 5112TIP3    H236972   4.483   1.786   7.660 -0.0349 -1.8832 -2.6766
 5113TIP3   OH236973   1.460   0.248   6.803 -0.9968  0.3838 -0.0012
 5113TIP3    H136974   1.546   0.262   6.842 -0.1486  0.1584 -1.6699
 5113TIP3    H236975   1.399   0.289   6.863  0.1612 -0.3853  1.7813
 5114TIP3   OH236976   2.094   5.547   1.379  0.7026 -0.1741  0.5157
 5114TIP3    H136977   2.168   5.488   1.394  0.7553 -0.4174 -0.5937
 5114TIP3    H236978   2.017   5.489   1.377  0.6897 -0.1387 -0.0466
 5115TIP3   OH236979   5.975   6.784   1.010  0.7335  0.0670  0.4719
 5115TIP3    H136980   5.948   6.868   1.047  0.1832 -0.0174  0.2593
 5115TIP3    H236981   5.904   6.758   0.952  0.1728 -1.2814  1.6961
 5116TIP3   OH236982   3.581   1.864   2.171  0.0247 -0.3482  0.1801
 5116TIP3    H136983   3.551   1.954   2.162 -0.3840 -0.6799 -2.3791
 5116TIP3    H236984   3.672   1.866   2.143  0.1066 -0.7042  0.4069
 5117TIP3   OH236985   6.553   2.678   7.945  0.0137  0.5631  0.7607
 5117TIP3    H136986   6.638   2.721   7.946 -0.0329  0.6603  0.5382
 5117TIP3    H236987   6.523   2.685   7.854  0.5771 -1.0693  0.4131
 5118TIP3   OH236988   5.865   4.569   8.540 -0.7015 -0.2206  0.3215
 5118TIP3    H136989   5.922   4.502   8.501 -0.4060 -1.1087  2.1578
 5118TIP3    H236990   5.845   4.628   8.468  1.3961 -0.6740 -0.7143
 5119TIP3   OH236991   0.549   5.856   0.683  0.4004  0.3521 -0.0415
 5119TIP3    H136992   0.489   5.929   0.698 -1.1455 -0.7263 -0.7404
 5119TIP3    H236993   0.634   5.898   0.668  0.2735  1.8662  2.6709
 5120TIP3   OH236994   0.157   0.648   7.652  0.3663  0.4881  0.6075
 5120TIP3    H136995   0.177   0.585   7.583  1.5281  0.5974  0.8300
 5120TIP3    H236996   0.143   0.594   7.730 -1.8401  0.2942  0.1402
 5121TIP3   OH236997   5.045   6.343   1.494 -0.2445  0.2259 -0.4234
 5121TIP3    H136998   5.067   6.360   1.402  1.4077  0.6596  0.0179
 5121TIP3    H236999   5.024   6.429   1.530 -0.7185  0.0815 -0.3559
 5122TIP3   OH237000   5.776   2.432   0.545 -0.1776 -0.1973  0.1101
 5122TIP3    H137001   5.718   2.493   0.590 -0.8501 -0.6145 -0.1835
 5122TIP3    H237002   5.746   2.346   0.571 -1.2446 -0.4993 -1.8695
 5123TIP3   OH237003   5.774   0.889   0.048 -0.1411  1.0556 -0.2145
 5123TIP3    H137004   5.787   0.801   0.011 -1.0153  0.2751  1.2235
 5123TIP3    H237005   5.862   0.919   0.071  0.2590  0.9571 -1.5431
 5124TIP3   OH237006   6.424   6.175   8.587 -0.3056 -0.0995  0.0628
 5124TIP3    H137007   6.428   6.249   8.648 -2.3451 -0.9023  1.2868
 5124TIP3    H237008   6.446   6.213   8.502 -0.6542  1.7855  0.7472
 5125TIP3   OH237009   3.327   3.933   6.316 -0.4443  0.1124  0.5678
 5125TIP3    H137010   3.320   3.993   6.242  1.4555 -0.9292 -0.5328
 5125TIP3    H237011   3.236   3.919   6.344 -1.0622  1.8658 -0.4482
 5126TIP3   OH237012   4.392   6.107   1.882  0.5057  0.2090 -0.2020
 5126TIP3    H137013   4.443   6.177   1.925 -1.1879  3.0975 -2.5022
 5126TIP3    H237014   4.444   6.084   1.806 -0.2514  1.1729 -1.0442
 5127TIP3   OH237015   0.529   4.716   7.865 -0.5560 -0.2615 -0.5797
 5127TIP3    H137016   0.436   4.722   7.886 -0.5540 -0.9701 -0.3614
 5127TIP3    H237017   0.568   4.793   7.907 -0.7399 -0.9983  1.0063
 5128TIP3   OH237018   2.950   2.886   0.326 -0.2016  0.0915 -0.0856
 5128TIP3    H137019   2.932   2.966   0.278  0.2126  1.1549  1.4520
 5128TIP3    H237020   2.897   2.819   0.283  0.2819  0.9270 -2.0984
 5129TIP3   OH237021   2.870   6.095   8.088  0.1457 -0.0606 -0.0416
 5129TIP3    H137022   2.781   6.101   8.124 -0.3907 -1.0565 -1.1355
 5129TIP3    H237023   2.919   6.163   8.135 -0.8657 -0.3281  1.4868
 5130TIP3   OH237024   1.530   0.624   6.991 -0.9897 -0.1802  0.2618
 5130TIP3    H137025   1.620   0.594   6.979  0.3254  3.0050  1.2270
 5130TIP3    H237026   1.486   0.599   6.909  1.6709  1.0504 -1.6931
 5131TIP3   OH237027   0.187   4.746   7.471  0.3903  0.6091  0.5006
 5131TIP3    H137028   0.264   4.737   7.415  0.8347  0.4485  1.1188
 5131TIP3    H237029   0.222   4.778   7.554 -0.1308 -0.0483  0.9816
 5132TIP3   OH237030   3.077   4.920   8.299  0.7551 -0.1077  0.2290
 5132TIP3    H137031   3.065   4.833   8.336 -0.6498 -1.5333 -3.2015
 5132TIP3    H237032   3.168   4.921   8.269  0.5823 -0.6566 -0.3241
 5133TIP3   OH237033   6.033   3.847   7.913 -0.7346  0.0602 -0.4638
 5133TIP3    H137034   6.073   3.851   7.999 -0.2596 -0.2708 -0.6657
 5133TIP3    H237035   6.008   3.937   7.893  0.7820  0.4402 -0.7376
 5134TIP3   OH237036   3.451   3.168   0.710  0.3870  0.2135  0.0083
 5134TIP3    H137037   3.486   3.256   0.694 -1.1448  0.7820 -0.3698
 5134TIP3    H237038   3.529   3.112   0.716  1.5006  1.8465  2.0221
 5135TIP3   OH237039   1.960   2.319   8.084  0.2221  0.2568 -0.7387
 5135TIP3    H137040   2.055   2.308   8.084  0.2328  0.1736  0.3619
 5135TIP3    H237041   1.926   2.229   8.090  0.1154  0.3568  0.2815
 5136TIP3   OH237042   4.438   1.506   8.031  0.3150 -0.7577  0.3405
 5136TIP3    H137043   4.435   1.423   8.078  0.4483 -1.1235 -0.2874
 5136TIP3    H237044   4.354   1.513   7.986 -0.1179 -0.0459  1.2243
 5137TIP3   OH237045   6.260   5.306   8.057 -0.0848  0.1020 -0.3563
 5137TIP3    H137046   6.320   5.359   8.003  0.7921 -0.5274 -0.0239
 5137TIP3    H237047   6.212   5.370   8.109  0.8256  0.5986 -0.0972
 5138TIP3   OH237048   4.466   1.950   7.591  0.3318 -0.2085 -0.3128
 5138TIP3    H137049   4.397   1.942   7.657  0.4989  0.7395 -0.0080
 5138TIP3    H237050   4.435   2.019   7.533  0.2926 -0.8838 -1.1061
 5139TIP3   OH237051   2.047   4.366   8.412  0.0390  0.2132 -0.2846
 5139TIP3    H137052   1.967   4.327   8.449  1.2181 -1.2179  0.9155
 5139TIP3    H237053   2.041   4.459   8.433 -1.6112  0.2625 -0.8212
 5140TIP3   OH237054   1.440   6.246   7.963 -0.3436 -0.0674  0.1626
 5140TIP3    H137055   1.460   6.281   7.876 -1.3025 -0.0269 -0.0573
 5140TIP3    H237056   1.467   6.314   8.024 -0.3783  0.2284 -0.1512
 5141TIP3   OH237057   4.189   5.826   8.794 -0.8357 -0.2610  0.1915
 5141TIP3    H137058   4.120   5.890   8.808 -3.4253 -2.5355 -1.2511
 5141TIP3    H237059   4.145   5.741   8.801  1.1753 -1.8258 -3.4433
 5142TIP3   OH237060   5.065   4.597   2.055 -0.1542 -0.4724  0.3761
 5142TIP3    H137061   5.068   4.575   2.148  0.2296 -0.2891  0.4084
 5142TIP3    H237062   4.987   4.652   2.046  1.9281  2.9213  1.3619
 5143TIP3   OH237063   6.403   1.701   0.444 -0.1330  0.4106 -0.6026
 5143TIP3    H137064   6.313   1.720   0.420  0.5485  3.7450 -0.9261
 5143TIP3    H237065   6.429   1.631   0.384 -1.6469  1.3962 -2.5336
 5144TIP3   OH237066   2.992   6.497   6.984 -0.4011 -0.5434 -0.5482
 5144TIP3    H137067   3.080   6.492   6.945 -0.4666 -1.9347 -0.5750
 5144TIP3    H237068   3.008   6.523   7.075  0.0523 -0.9030 -0.5195
 5145TIP3   OH237069   3.422   2.974   8.588  0.1506 -0.1445  0.2175
 5145TIP3    H137070   3.449   2.969   8.497  0.4737 -0.0726  0.3082
 5145TIP3    H237071   3.385   2.887   8.607 -0.6280  0.0882 -0.1974
 5146TIP3   OH237072   6.107   1.181   0.432  0.2583  0.2886 -0.1136
 5146TIP3    H137073   6.196   1.184   0.396  0.8038 -3.1702  0.5708
 5146TIP3    H237074   6.119   1.200   0.525  0.2554  0.0574 -0.0655
 5147TIP3   OH237075   5.624   2.890   8.634 -0.1156 -0.2987 -0.7904
 5147TIP3    H137076   5.611   2.833   8.559  1.7487 -2.6145  0.4968
 5147TIP3    H237077   5.716   2.917   8.629 -0.2072  0.2568  0.1563
 5148TIP3   OH237078   0.123   3.325   0.881 -0.2060 -0.2209 -0.1552
 5148TIP3    H137079   0.100   3.237   0.911 -1.6445  0.1424 -0.1247
 5148TIP3    H237080   0.201   3.347   0.932 -0.8090 -0.8229  1.1022
 5149TIP3   OH237081   5.881   5.413   8.292 -0.5082 -0.2412 -0.0157
 5149TIP3    H137082   5.973   5.432   8.312 -0.5592 -1.5295  1.6512
 5149TIP3    H237083   5.884   5.345   8.225 -0.2357 -0.6381  0.3973
 5150TIP3   OH237084   3.149   4.075   7.401 -0.1607 -0.3442  0.0172
 5150TIP3    H137085   3.125   4.144   7.339  1.0030  0.7086  0.6975
 5150TIP3    H237086   3.088   4.085   7.474 -0.7042 -0.7595 -0.3737
 5151TIP3   OH237087   0.508   4.533   1.164 -0.0084  0.3833 -0.2019
 5151TIP3    H137088   0.451   4.461   1.190  1.2034 -1.6921 -2.7707
 5151TIP3    H237089   0.567   4.544   1.239 -1.5488  0.2092  1.0921
 5152TIP3   OH237090   1.229   2.899   7.282 -0.7341 -0.1237  0.0736
 5152TIP3    H137091   1.288   2.828   7.307  0.1663  0.2128 -0.9699
 5152TIP3    H237092   1.287   2.973   7.263 -1.2612 -0.3021 -2.7775
 5153TIP3   OH237093   4.797   5.879   8.154 -0.0494 -0.3922 -0.3575
 5153TIP3    H137094   4.821   5.933   8.078  0.9186  0.6461  0.6508
 5153TIP3    H237095   4.792   5.790   8.119  1.7873 -0.1387 -1.3637
 5154TIP3   OH237096   3.212   2.102   7.020 -0.2337 -0.3820 -0.1989
 5154TIP3    H137097   3.157   2.171   6.983 -2.0801 -0.4744  2.1511
 5154TIP3    H237098   3.280   2.148   7.069 -0.4586 -0.2466 -0.0161
 5155TIP3   OH237099   4.206   1.367   0.114 -0.1166 -0.0027 -0.0990
 5155TIP3    H137100   4.287   1.320   0.136 -0.1524 -0.7192 -1.3839
 5155TIP3    H237101   4.237   1.450   0.076 -0.0145  0.2303  0.4871
 5156TIP3   OH237102   5.863   0.451   7.857  0.2974  0.2585  0.0541
 5156TIP3    H137103   5.942   0.399   7.869  0.6188  0.7461  0.0760
 5156TIP3    H237104   5.807   0.427   7.930 -1.1703 -2.9150 -1.8856
 5157TIP3   OH237105   1.716   0.775   7.118 -0.1945  0.2681 -0.2314
 5157TIP3    H137106   1.666   0.854   7.141 -0.0537  0.1144  0.6473
 5157TIP3    H237107   1.661   0.729   7.054 -0.6287  0.6913 -0.1685
 5158TIP3   OH237108   0.595   3.117   2.252  0.3498  0.1514 -0.2027
 5158TIP3    H137109   0.511   3.096   2.291  0.3654  0.5149  0.0259
 5158TIP3    H237110   0.640   3.172   2.316  1.0297 -0.5699 -0.0382
 5159TIP3   OH237111   4.962   0.868   7.819 -0.7317  0.2668  0.1716
 5159TIP3    H137112   5.048   0.897   7.790 -2.3913  3.5851 -2.0478
 5159TIP3    H237113   4.970   0.857   7.914  1.8831  1.3043  0.1297
 5160TIP3   OH237114   6.822   3.500   0.209 -0.3542  0.0800 -0.1552
 5160TIP3    H137115   6.774   3.472   0.131 -0.5134  2.3482 -0.9697
 5160TIP3    H237116   6.848   3.590   0.189  3.2673 -0.6379  0.7150
 5161TIP3   OH237117   3.684   0.648   7.851 -0.5072  0.0512 -0.1058
 5161TIP3    H137118   3.670   0.554   7.864 -0.2379  0.3173  3.0290
 5161TIP3    H237119   3.630   0.690   7.918  1.4571  1.9404  0.4363
 5162TIP3   OH237120   1.930   1.058   6.989 -0.5634 -0.4092 -0.1028
 5162TIP3    H137121   1.936   1.140   6.939  3.1454 -0.6361 -0.3464
 5162TIP3    H237122   1.887   0.997   6.929  1.9230 -0.1138 -2.3602
 5163TIP3   OH237123   5.008   5.221   7.577  0.4302  0.1588  0.1744
 5163TIP3    H137124   5.008   5.242   7.484 -1.1285  0.4995  0.2263
 5163TIP3    H237125   4.924   5.177   7.592  0.8710 -0.3432  1.3297
 5164TIP3   OH237126   3.862   6.455   0.010  0.4555  0.4442  0.1759
 5164TIP3    H137127   3.811   6.484   0.086 -0.0580  2.4980 -0.8904
 5164TIP3    H237128   3.843   6.361   0.004 -0.6078  0.5101  1.7385
 5165TIP3   OH237129   1.394   5.927   1.955 -0.1225 -0.1513  0.4246
 5165TIP3    H137130   1.339   5.991   1.911  0.6084  1.0847  1.2696
 5165TIP3    H237131   1.385   5.946   2.048  1.7361  0.1110  0.5862
 5166TIP3   OH237132   4.286   6.616   0.802 -0.1727  0.1969  0.2606
 5166TIP3    H137133   4.257   6.644   0.715  0.6861  0.1963 -0.0364
 5166TIP3    H237134   4.212   6.636   0.860 -0.5643  0.6530 -0.3859
 5167TIP3   OH237135   5.785   5.678   7.329  0.0603  0.0478 -0.1085
 5167TIP3    H137136   5.784   5.595   7.281  0.7354  0.1676 -0.3341
 5167TIP3    H237137   5.842   5.662   7.403 -2.0131 -0.5549  1.4508
 5168TIP3   OH237138   3.879   3.607   8.730 -1.2951  0.1937 -0.6010
 5168TIP3    H137139   3.801   3.573   8.774 -0.7124  0.0284  0.3397
 5168TIP3    H237140   3.951   3.584   8.789 -0.5002  0.1074 -1.5815
 5169TIP3   OH237141   1.727   1.497   0.593 -0.3130  0.4504 -0.2976
 5169TIP3    H137142   1.804   1.439   0.589  0.1084  0.8785  1.1775
 5169TIP3    H237143   1.656   1.444   0.555  0.1948 -0.8299  0.4616
 5170TIP3   OH237144   3.488   2.160   8.666  0.1396 -0.1041  0.1990
 5170TIP3    H137145   3.502   2.187   8.576  2.6447 -2.2152 -0.1544
 5170TIP3    H237146   3.468   2.241   8.713 -1.3103  1.0338 -2.1906
 5171TIP3   OH237147   0.872   1.874   6.854 -1.0633 -0.6383  0.0860
 5171TIP3    H137148   0.810   1.943   6.876 -1.0307 -0.4861 -0.2982
 5171TIP3    H237149   0.840   1.838   6.771 -0.3725 -0.2424 -0.3609
 5172TIP3   OH237150   0.979   6.723   1.405 -0.1019  0.2819  0.0992
 5172TIP3    H137151   1.033   6.739   1.482  0.5967 -0.0482 -0.3078
 5172TIP3    H237152   0.891   6.710   1.439  0.0534  0.9641  0.7627
 5173TIP3   OH237153   2.233   5.143   6.795  0.9465  0.3357  0.3528
 5173TIP3    H137154   2.237   5.203   6.869  0.8471  0.7122  0.0568
 5173TIP3    H237155   2.277   5.063   6.825 -1.2293 -0.4316  1.6759
 5174TIP3   OH237156   1.985   5.528   0.725  0.6602  0.7492  1.0338
 5174TIP3    H137157   1.916   5.543   0.789 -0.6883 -1.0669  0.1007
 5174TIP3    H237158   1.997   5.433   0.724  2.3257  0.9212  0.2766
 5175TIP3   OH237159   1.499   3.281   1.321 -0.3410  0.1883  0.1442
 5175TIP3    H137160   1.420   3.297   1.372 -0.0493  1.0590  0.3447
 5175TIP3    H237161   1.468   3.261   1.233 -0.9123 -2.3831  0.8326
 5176TIP3   OH237162   1.499   0.836   6.636  0.0822 -0.2322 -0.2635
 5176TIP3    H137163   1.532   0.751   6.609  0.9372  0.3346 -1.0640
 5176TIP3    H237164   1.543   0.899   6.578 -0.4219  0.7653  0.3985
 5177TIP3   OH237165   2.492   6.779   0.867  0.1486  0.0237 -0.2937
 5177TIP3    H137166   2.550   6.836   0.917  2.0087 -2.1048  0.1178
 5177TIP3    H237167   2.550   6.714   0.828 -1.9295 -2.2487  0.1763
 5178TIP3   OH237168   2.146   0.442   1.828  0.1369 -0.4273 -0.3092
 5178TIP3    H137169   2.197   0.490   1.763 -0.1658 -2.0595 -1.8120
 5178TIP3    H237170   2.064   0.492   1.836  0.8748  0.7568  0.1829
 5179TIP3   OH237171   2.824   0.410   1.176 -0.4273 -0.2286 -0.1564
 5179TIP3    H137172   2.812   0.479   1.240 -1.6430 -0.2236 -0.3583
 5179TIP3    H237173   2.742   0.408   1.127 -0.8405 -2.4843  0.5193
 5180TIP3   OH237174   2.555   2.240   0.439 -0.2893 -0.5306  0.6346
 5180TIP3    H137175   2.512   2.243   0.524 -1.1211 -0.7603  0.2379
 5180TIP3    H237176   2.601   2.323   0.432 -1.9796  0.4329  0.4211
 5181TIP3   OH237177   2.258   3.373   1.586 -0.0067 -0.5258 -0.0695
 5181TIP3    H137178   2.256   3.446   1.525 -0.8798  0.4625  1.0958
 5181TIP3    H237179   2.233   3.297   1.534  2.2247 -0.3037 -1.6310
 5182TIP3   OH237180   1.608   2.358   8.171 -0.0084  0.1893 -0.4922
 5182TIP3    H137181   1.643   2.446   8.188 -0.9095  0.2562  1.1636
 5182TIP3    H237182   1.667   2.300   8.219 -1.5227  0.2244  1.5020
 5183TIP3   OH237183   2.512   1.683   6.643 -0.2119 -0.7767 -0.2629
 5183TIP3    H137184   2.429   1.649   6.610 -0.4708  0.4775 -0.9618
 5183TIP3    H237185   2.492   1.718   6.729 -0.8498  1.0909 -1.1078
 5184TIP3   OH237186   5.843   1.897   1.827  0.1510 -0.4422 -0.0929
 5184TIP3    H137187   5.773   1.895   1.892  1.2682  1.1462  1.2280
 5184TIP3    H237188   5.826   1.821   1.772 -1.9959 -0.7003  0.8164
 5185TIP3   OH237189   2.286   0.769   7.090 -0.7614 -0.0766  0.5743
 5185TIP3    H137190   2.288   0.864   7.101 -0.1820  0.4303 -2.8482
 5185TIP3    H237191   2.194   0.749   7.071 -1.0839 -0.4097  2.3464
 5186TIP3   OH237192   5.562   0.894   7.811  0.7630  0.0914  0.0118
 5186TIP3    H137193   5.511   0.837   7.753  0.0807  0.7604 -0.0561
 5186TIP3    H237194   5.570   0.977   7.764 -0.5718  0.9428  1.2173
 5187TIP3   OH237195   5.730   1.856   6.898  0.2090 -0.1877 -0.2161
 5187TIP3    H137196   5.726   1.896   6.811  0.3732 -1.7850 -0.9891
 5187TIP3    H237197   5.639   1.855   6.928 -0.0202 -0.6991 -0.8919
 5188TIP3   OH237198   1.390   6.751   2.064 -0.1326 -0.1066  0.1791
 5188TIP3    H137199   1.325   6.743   2.134 -0.9864  0.7509 -0.4958
 5188TIP3    H237200   1.429   6.837   2.076  1.2670 -0.7878  0.8616
 5189TIP3   OH237201   6.301   3.488   1.025 -0.9313 -0.1743  0.4655
 5189TIP3    H137202   6.306   3.550   0.953 -0.4444 -1.6161 -0.7983
 5189TIP3    H237203   6.303   3.542   1.104  0.7397  1.3509 -0.5498
 5190TIP3   OH237204   3.647   1.737   8.530  0.4775  0.4692  0.8148
 5190TIP3    H137205   3.708   1.664   8.545 -1.0293 -1.0771 -0.1916
 5190TIP3    H237206   3.655   1.791   8.608  3.9277  1.0077  0.2869
 5191TIP3   OH237207   2.898   2.070   6.998  0.0705 -0.0433  0.5337
 5191TIP3    H137208   2.856   2.134   6.940  2.4434  1.1102 -0.0369
 5191TIP3    H237209   2.911   2.118   7.080 -0.0437 -0.4868  0.8126
 5192TIP3   OH237210   6.082   5.006   8.096 -0.4801  0.2422 -0.5702
 5192TIP3    H137211   6.096   5.019   8.190 -0.5982  0.4526 -0.5793
 5192TIP3    H237212   6.157   4.953   8.068 -0.6389 -0.1337 -0.2885
 5193TIP3   OH237213   0.354   2.742   0.066 -0.5837 -0.0632  0.1689
 5193TIP3    H137214   0.447   2.763   0.057 -0.6586  0.4469  0.5257
 5193TIP3    H237215   0.351   2.671   0.129 -0.2605 -1.7899 -1.6791
 5194TIP3   OH237216   2.961   0.618   6.720 -0.3416  0.1237 -0.1044
 5194TIP3    H137217   2.866   0.625   6.710 -0.4392 -1.2272 -0.3071
 5194TIP3    H237218   2.993   0.598   6.632 -0.0365 -0.8676  0.2181
 5195TIP3   OH237219   0.251   5.868   1.263 -0.6563 -0.1491  0.4545
 5195TIP3    H137220   0.208   5.852   1.178  1.7053 -1.3961 -0.6084
 5195TIP3    H237221   0.268   5.962   1.263 -2.1322  0.1442  0.3151
 5196TIP3   OH237222   4.194   1.809   1.750  0.1130  0.1988  0.8910
 5196TIP3    H137223   4.252   1.803   1.826  1.0463  1.1825  0.2806
 5196TIP3    H237224   4.212   1.729   1.700  1.2847  0.6989  0.4864
 5197TIP3   OH237225   0.984   5.463   2.077  0.0218 -0.0111 -0.9022
 5197TIP3    H137226   0.900   5.501   2.052 -0.0954  0.3888  0.0571
 5197TIP3    H237227   0.973   5.440   2.169  0.6778 -0.7612 -1.0006
 5198TIP3   OH237228   5.245   1.446   0.267  0.0216  0.4448 -0.3734
 5198TIP3    H137229   5.170   1.495   0.301 -0.2396  0.7666 -1.4035
 5198TIP3    H237230   5.309   1.449   0.339 -0.9963  0.0074  0.5910
 5199TIP3   OH237231   1.328   6.386   1.915 -1.1932 -0.1299  0.1556
 5199TIP3    H137232   1.339   6.451   1.846 -2.4633  0.6471  0.6530
 5199TIP3    H237233   1.236   6.395   1.942 -0.7182 -0.3825  1.9645
 5200TIP3   OH237234   2.743   6.159   0.208 -0.4380 -0.4038 -0.3756
 5200TIP3    H137235   2.754   6.149   0.114 -3.6402  1.2051 -1.0593
 5200TIP3    H237236   2.783   6.244   0.228  1.2844 -1.2731 -0.0181
 5201TIP3   OH237237   1.577   3.259   1.869 -0.0915  0.8081  0.9638
 5201TIP3    H137238   1.549   3.351   1.862  0.5535  0.9139 -0.5757
 5201TIP3    H237239   1.495   3.209   1.860 -0.6859  1.2063  3.4088
 5202TIP3   OH237240   1.151   0.293   7.966  0.4281  0.1646 -0.1995
 5202TIP3    H137241   1.064   0.303   8.005  0.4613  1.8286 -0.4784
 5202TIP3    H237242   1.134   0.283   7.872  0.5557  1.4251 -0.3705
 5203TIP3   OH237243   0.211   0.742   8.610  0.2261 -0.0237 -1.0165
 5203TIP3    H137244   0.217   0.705   8.698  0.5412 -0.5122 -1.2423
 5203TIP3    H237245   0.181   0.670   8.555  2.8660 -0.6169 -1.8469
 5204TIP3   OH237246   6.514   3.027   8.746 -0.5348 -0.2018  0.1578
 5204TIP3    H137247   6.560   2.971   8.808 -2.2291  0.1232  1.7670
 5204TIP3    H237248   6.493   2.968   8.673  1.3804 -0.6100 -0.1437
 5205TIP3   OH237249   1.165   5.806   2.562 -0.0855  0.1201 -0.0545
 5205TIP3    H137250   1.217   5.882   2.585 -0.2347  0.7142 -1.5478
 5205TIP3    H237251   1.096   5.803   2.628  1.0833  0.0803  1.1847
 5206TIP3   OH237252   0.738   0.500   0.930 -0.0255  0.6914  0.6051
 5206TIP3    H137253   0.801   0.430   0.952  0.7225  0.6343 -1.5029
 5206TIP3    H237254   0.781   0.580   0.959 -0.0668  0.4618  1.3412
 5207TIP3   OH237255   2.185   0.055   8.417 -0.4958 -0.0967  0.1598
 5207TIP3    H137256   2.190   0.102   8.334  0.8157 -0.1735  0.1827
 5207TIP3    H237257   2.249  -0.015   8.410 -0.8137 -0.4901  1.0000
 5208TIP3   OH237258   5.479   6.114   0.192 -0.4401 -0.4571 -0.3247
 5208TIP3    H137259   5.539   6.103   0.118  1.8421 -2.0410  1.6049
 5208TIP3    H237260   5.536   6.109   0.269 -2.8846 -0.2811  1.5931
 5209TIP3   OH237261   5.942   6.464   2.384 -0.0546 -0.1129  0.2015
 5209TIP3    H137262   5.889   6.535   2.420  0.6736  1.3082 -1.4159
 5209TIP3    H237263   6.000   6.439   2.456 -0.5770  0.6565  0.9119
 5210TIP3   OH237264   3.233   3.190   7.830 -0.0294  0.6802 -0.3335
 5210TIP3    H137265   3.223   3.234   7.914 -0.4991 -0.1586  0.0604
 5210TIP3    H237266   3.271   3.256   7.773  1.1726  0.9923  0.7742
 5211TIP3   OH237267   3.292   2.870   0.368  0.0354  0.4002  0.1616
 5211TIP3    H137268   3.335   2.937   0.314  0.8777 -2.2011 -2.6491
 5211TIP3    H237269   3.293   2.791   0.314 -2.4179 -1.5151  2.6391
 5212TIP3   OH237270   3.489   6.742   0.268 -0.2216 -0.6110  0.3165
 5212TIP3    H137271   3.575   6.783   0.277 -0.1826 -0.5586 -0.2752
 5212TIP3    H237272   3.427   6.815   0.276 -0.1191 -0.2299 -1.8262
 5213TIP3   OH237273   0.672   6.748   1.335 -0.2346 -0.2701 -0.6937
 5213TIP3    H137274   0.610   6.679   1.310 -2.7202  0.6446  2.3581
 5213TIP3    H237275   0.712   6.716   1.416  2.0381  0.0090 -1.6116
 5214TIP3   OH237276   1.742   4.949   8.764 -0.2702 -0.1160  0.2917
 5214TIP3    H137277   1.781   4.870   8.801  0.0808 -0.0581  0.0419
 5214TIP3    H237278   1.677   4.916   8.701 -0.5568 -0.2092  0.6313
 5215TIP3   OH237279   3.399   6.647   7.567 -0.1347 -0.0924 -0.1790
 5215TIP3    H137280   3.451   6.693   7.633  1.2632 -1.3482 -0.3433
 5215TIP3    H237281   3.388   6.709   7.496  0.0661  0.6100  0.3948
 5216TIP3   OH237282   6.697   3.825   0.076 -0.1865  0.2994  0.3083
 5216TIP3    H137283   6.779   3.874   0.070 -0.3498  0.4577 -1.0993
 5216TIP3    H237284   6.699   3.786   0.163  1.2719  0.4908  0.3963
 5217TIP3   OH237285   4.660   3.286   8.015  0.4205  0.2998 -0.0571
 5217TIP3    H137286   4.628   3.209   8.060  0.3185  0.2569 -0.2028
 5217TIP3    H237287   4.651   3.265   7.922 -1.3994  1.2114 -0.1358
 5218TIP3   OH237288   4.784   4.678   0.396  0.2787  0.0551  0.3147
 5218TIP3    H137289   4.744   4.756   0.357 -0.8250 -0.6852 -0.0997
 5218TIP3    H237290   4.736   4.666   0.479  1.3515  0.5643  1.0241
 5219TIP3   OH237291   4.295   1.149   1.480 -0.1421 -0.4975  0.0197
 5219TIP3    H137292   4.347   1.228   1.472 -0.6939 -0.0952  0.3374
 5219TIP3    H237293   4.319   1.096   1.403  0.5560 -0.2269  0.0463
 5220TIP3   OH237294   4.520   3.659   0.803 -0.1513 -0.0486 -0.2926
 5220TIP3    H137295   4.536   3.566   0.816 -1.2718 -0.2298 -0.1242
 5220TIP3    H237296   4.582   3.703   0.861  0.0249 -0.6981  0.0093
 5221TIP3   OH237297   3.801   4.456   0.360 -0.3530 -0.1090  0.3806
 5221TIP3    H137298   3.796   4.375   0.309 -0.2516  0.3536 -0.3847
 5221TIP3    H237299   3.737   4.445   0.430  0.5858 -1.3930  1.0920
 5222TIP3   OH237300   0.795   6.343   2.541 -0.2316 -0.2701 -0.4734
 5222TIP3    H137301   0.787   6.253   2.572 -1.9329 -0.2675 -0.8236
 5222TIP3    H237302   0.705   6.377   2.541  0.2156  1.0177 -1.5620
 5223TIP3   OH237303   1.308   5.168   0.722 -0.5291  0.0004 -0.4049
 5223TIP3    H137304   1.229   5.156   0.775  0.3557  1.2117  1.2788
 5223TIP3    H237305   1.287   5.126   0.638 -2.2708 -1.3213  0.6199
 5224TIP3   OH237306   0.359   4.512   8.747  0.0543 -0.5049  0.0562
 5224TIP3    H137307   0.307   4.443   8.791  0.3728  0.0717  1.3768
 5224TIP3    H237308   0.378   4.475   8.661  1.0947 -2.5463  1.0634
 5225TIP3   OH237309   2.804   5.726   7.318  0.0878  0.3639 -0.0179
 5225TIP3    H137310   2.811   5.643   7.366 -0.8556 -0.3104 -1.0104
 5225TIP3    H237311   2.862   5.785   7.366  2.1225 -1.3133 -0.2378
 5226TIP3   OH237312   5.740   2.875   7.798  0.3456 -0.4747 -0.4256
 5226TIP3    H137313   5.809   2.863   7.863  1.7577 -1.7084 -2.0375
 5226TIP3    H237314   5.703   2.788   7.787 -2.0466  0.3000  0.9398
 5227TIP3   OH237315   1.825   4.720   1.657 -0.3959 -0.5361  0.4599
 5227TIP3    H137316   1.796   4.703   1.746  3.4330  4.9616  3.3478
 5227TIP3    H237317   1.914   4.686   1.654  0.7274  2.1842  0.1200
 5228TIP3   OH237318   0.359   1.498   0.213  0.0708 -0.6503 -0.4831
 5228TIP3    H137319   0.326   1.505   0.124  0.1667 -0.4068 -0.5014
 5228TIP3    H237320   0.362   1.404   0.231  0.4629 -0.7158 -0.8875
 5229TIP3   OH237321   4.237   3.035   1.003  0.3313 -0.2480 -0.2359
 5229TIP3    H137322   4.317   2.992   0.971 -0.3863  0.1083 -2.7352
 5229TIP3    H237323   4.259   3.128   1.006  0.3283 -0.2579  0.1249
 5230TIP3   OH237324   0.501   3.747   7.299 -0.7491 -0.2311  0.4051
 5230TIP3    H137325   0.464   3.700   7.224  2.6390 -1.6535 -0.5729
 5230TIP3    H237326   0.535   3.828   7.261 -0.4288 -0.2218  0.7110
 5231TIP3   OH237327   1.346   1.475   8.612  0.1432  0.2975  0.1720
 5231TIP3    H137328   1.384   1.398   8.654 -1.2671 -1.3594 -1.4553
 5231TIP3    H237329   1.353   1.459   8.518 -0.9114  1.7712 -0.2103
 5232TIP3   OH237330   4.548   4.465   2.228 -0.2686 -0.8946  0.1567
 5232TIP3    H137331   4.608   4.494   2.297 -1.5169 -1.4376  1.5200
 5232TIP3    H237332   4.471   4.434   2.275 -1.3231 -0.9237 -1.5165
 5233TIP3   OH237333   1.666   3.180   6.749  0.0569  0.1443  0.2756
 5233TIP3    H137334   1.721   3.110   6.783 -0.9883 -1.9948 -2.1152
 5233TIP3    H237335   1.711   3.211   6.670 -0.4824  0.7776  0.1999
 5234TIP3   OH237336   1.011   6.570   0.217 -0.4818  0.0057  0.5102
 5234TIP3    H137337   0.975   6.638   0.160 -1.7640 -0.2498  0.9877
 5234TIP3    H237338   0.946   6.499   0.214  0.4744 -0.8913  0.6083
 5235TIP3   OH237339   1.143   5.424   0.671 -0.8606  0.7277 -0.4820
 5235TIP3    H137340   1.160   5.426   0.577  0.9856 -0.0720 -0.2027
 5235TIP3    H237341   1.207   5.362   0.706 -1.2540  1.2959  1.3582
 5236TIP3   OH237342   5.055   4.164   0.161 -0.0263 -0.0645  0.2706
 5236TIP3    H137343   4.980   4.158   0.220 -0.9946 -2.2714 -1.0249
 5236TIP3    H237344   5.106   4.085   0.180 -0.5587 -1.0379 -1.9838
 5237TIP3   OH237345   2.491   1.083   8.382  0.3134  0.4642  0.1454
 5237TIP3    H137346   2.479   1.168   8.340 -1.3053 -0.7680 -2.0909
 5237TIP3    H237347   2.478   1.019   8.312  3.5936 -1.6653  1.2310
 5238TIP3   OH237348   3.369   0.095   7.020 -0.1514  0.1909  0.3229
 5238TIP3    H137349   3.297   0.032   7.017 -0.1499  0.1995  0.1415
 5238TIP3    H237350   3.404   0.087   7.109  1.0044 -1.3462 -0.2302
 5239TIP3   OH237351   2.437   1.147   6.569  0.3021 -0.1095 -0.3840
 5239TIP3    H137352   2.446   1.056   6.596  1.3060  0.3819  1.0608
 5239TIP3    H237353   2.418   1.194   6.650  0.5319  1.0627 -0.9930
 5240TIP3   OH237354   3.125   1.970   0.041  0.3670 -0.4921  0.0703
 5240TIP3    H137355   3.159   2.050   0.081  0.0999 -0.4278  0.1704
 5240TIP3    H237356   3.176   1.960  -0.040 -2.2469  2.0063 -2.1097
 5241TIP3   OH237357   0.320   6.200   1.403  0.1837 -0.0416  0.2214
 5241TIP3    H137358   0.285   6.285   1.380 -0.1883 -0.9329 -2.9186
 5241TIP3    H237359   0.410   6.218   1.431 -0.4104  1.4966  1.2496
 5242TIP3   OH237360   3.295   0.391   1.527  0.3040 -0.3675  0.3732
 5242TIP3    H137361   3.365   0.332   1.554 -0.2694 -0.7689  1.0190
 5242TIP3    H237362   3.235   0.336   1.476  0.5425  0.0147 -0.3395
 5243TIP3   OH237363   0.446   3.830   6.621 -0.0351  0.5262 -0.0119
 5243TIP3    H137364   0.439   3.793   6.709  1.7266 -1.4856 -0.6320
 5243TIP3    H237365   0.472   3.921   6.635  0.5899  0.1323  1.5432
 5244TIP3   OH237366   3.368   5.898   0.285 -0.4228 -0.1959  0.2159
 5244TIP3    H137367   3.405   5.880   0.199  0.5169  0.0573  0.5566
 5244TIP3    H237368   3.398   5.986   0.307  0.4259 -0.7281  1.3306
 5245TIP3   OH237369   4.179   6.038   0.248 -0.5464 -0.5039 -0.0088
 5245TIP3    H137370   4.208   5.952   0.217  0.3164 -0.2839  0.1929
 5245TIP3    H237371   4.107   6.061   0.188 -0.4975 -1.1638 -0.3358
 5246TIP3   OH237372   6.497   5.679   7.206 -0.2113  0.0501  0.0183
 5246TIP3    H137373   6.590   5.667   7.226 -0.4275 -2.5618 -0.1531
 5246TIP3    H237374   6.484   5.633   7.123 -1.8508 -0.6490  0.6200
 5247TIP3   OH237375   4.136   4.605   2.228 -0.0135  0.4199  0.7852
 5247TIP3    H137376   4.191   4.537   2.268 -0.2925  0.6805  1.6351
 5247TIP3    H237377   4.058   4.558   2.197  0.5145  0.1070 -0.1006
 5248TIP3   OH237378   4.322   3.398   7.003 -0.5046 -0.1764 -0.1570
 5248TIP3    H137379   4.325   3.431   6.913 -0.1725  1.3618  0.3923
 5248TIP3    H237380   4.412   3.372   7.022 -0.4305  0.1529 -0.0464
 5249TIP3   OH237381   2.086   3.068   0.366 -0.4211 -0.7770  0.2966
 5249TIP3    H137382   1.994   3.054   0.344 -0.0853 -0.7196 -1.3043
 5249TIP3    H237383   2.092   3.048   0.459 -2.3400  0.7562  0.8043
 5250TIP3   OH237384   1.225   0.209   1.187 -0.4468  0.1226 -0.1310
 5250TIP3    H137385   1.145   0.240   1.146 -0.6144 -0.8024 -0.5286
 5250TIP3    H237386   1.254   0.135   1.132  0.1018 -0.2214  0.5926
 5251TIP3   OH237387   4.318   5.253   0.573  0.0325 -0.0235  0.4609
 5251TIP3    H137388   4.373   5.332   0.574  0.5469 -0.3842  0.9474
 5251TIP3    H237389   4.283   5.247   0.662  1.4660 -1.3603  0.9735
 5252TIP3   OH237390   3.567   5.058   0.331 -0.1012 -0.2401  0.5672
 5252TIP3    H137391   3.548   5.039   0.239 -1.0567  0.0125  0.7076
 5252TIP3    H237392   3.658   5.029   0.343 -0.2086 -0.9574 -0.2623
 5253TIP3   OH237393   5.058   3.566   2.125  0.3392  0.0958  0.2768
 5253TIP3    H137394   5.011   3.647   2.148 -0.2896  0.4173 -1.8413
 5253TIP3    H237395   5.150   3.593   2.121  0.1535  0.6907 -0.2634
 5254TIP3   OH237396   6.073   3.727   1.069  0.1653 -0.1894  0.4580
 5254TIP3    H137397   6.060   3.816   1.100  1.2133 -0.6483  2.3375
 5254TIP3    H237398   5.987   3.700   1.035 -0.1332  1.5266 -0.2353
 5255TIP3   OH237399   3.860   5.511   0.427 -0.6055 -0.3317  0.1037
 5255TIP3    H137400   3.886   5.602   0.413  0.1051 -0.6197 -0.5793
 5255TIP3    H237401   3.937   5.460   0.401 -1.3394 -1.1651 -0.5165
 5256TIP3   OH237402   1.417   5.570   7.752  0.4391  0.9370  0.3591
 5256TIP3    H137403   1.327   5.555   7.724  0.2714 -1.6842  1.9674
 5256TIP3    H237404   1.435   5.661   7.728 -2.4227  1.3665 -0.5063
 5257TIP3   OH237405   6.829   3.516   1.187 -0.3209 -0.2461  0.5467
 5257TIP3    H137406   6.792   3.430   1.209 -2.5053 -0.1085 -2.1208
 5257TIP3    H237407   6.900   3.496   1.126  0.7163 -0.2136  1.6973
 5258TIP3   OH237408   6.327   2.709   1.493 -0.0651 -0.1358  0.1225
 5258TIP3    H137409   6.368   2.733   1.576  1.8999  0.5810 -0.9798
 5258TIP3    H237410   6.272   2.785   1.471  1.0526  0.5959 -0.2174
 5259TIP3   OH237411   5.424   1.637   8.515  0.2656 -0.1067  0.4615
 5259TIP3    H137412   5.497   1.661   8.458 -1.6579 -0.2851 -2.2918
 5259TIP3    H237413   5.414   1.543   8.501  0.1321 -0.2809  1.6446
 5260TIP3   OH237414   2.062   5.406   8.736 -0.0069 -0.2740 -0.5594
 5260TIP3    H137415   1.977   5.393   8.695 -0.0568 -1.2640 -0.1796
 5260TIP3    H237416   2.126   5.382   8.668 -0.0630 -0.7953 -0.4297
 5261TIP3   OH237417   6.643   2.356   7.471 -0.4312 -0.0475 -0.2137
 5261TIP3    H137418   6.690   2.331   7.391 -0.5178 -1.1639  0.0591
 5261TIP3    H237419   6.561   2.394   7.440  1.0429  3.0331 -0.7449
 5262TIP3   OH237420   5.230   2.951   0.171  0.0509 -0.1822  0.1610
 5262TIP3    H137421   5.309   2.996   0.142  0.0293  0.1807  0.6450
 5262TIP3    H237422   5.205   2.996   0.252 -0.6440 -0.2932  0.0192
 5263TIP3   OH237423   0.081   2.419   0.293 -0.0277 -0.2757  0.1332
 5263TIP3    H137424   0.008   2.462   0.249  0.6799 -0.1122 -0.9492
 5263TIP3    H237425   0.064   2.430   0.386 -0.6837  0.9621 -0.1100
 5264TIP3   OH237426   1.821   6.302   7.909  0.3891 -0.1461  0.3311
 5264TIP3    H137427   1.738   6.344   7.931 -0.4607 -2.1494  1.2333
 5264TIP3    H237428   1.808   6.271   7.819  0.5329  0.3733  0.1281
 5265TIP3   OH237429   0.561   6.623   0.859  0.0763  0.0870  0.3590
 5265TIP3    H137430   0.616   6.596   0.933 -2.4114 -0.6883  2.0728
 5265TIP3    H237431   0.569   6.718   0.857  1.8866 -0.0403  0.1717
 5266TIP3   OH237432   5.526   0.443   2.528 -0.0994 -0.0742  0.0455
 5266TIP3    H137433   5.497   0.430   2.438 -2.1252  0.5017  0.5755
 5266TIP3    H237434   5.562   0.532   2.529 -1.9625  0.7156  0.2232
 5267TIP3   OH237435   4.235   3.818   1.804 -0.0613 -0.3105 -0.5240
 5267TIP3    H137436   4.328   3.827   1.823 -0.2462  0.5860  0.0257
 5267TIP3    H237437   4.228   3.738   1.751  0.7980 -1.4866  1.0554
 5268TIP3   OH237438   4.160   1.737   0.144 -0.5610  0.1425 -0.0498
 5268TIP3    H137439   4.157   1.659   0.089 -2.3738  1.1822 -1.5524
 5268TIP3    H237440   4.246   1.775   0.127 -0.2287 -0.7571 -0.4341
 5269TIP3   OH237441   2.937   0.229   0.541  0.1296 -0.6309 -0.1135
 5269TIP3    H137442   2.898   0.316   0.549 -0.7370 -0.8582 -1.4887
 5269TIP3    H237443   2.976   0.212   0.626 -2.1403 -0.0520  1.1092
 5270TIP3   OH237444   3.285   2.049   1.673 -0.1913 -0.3709 -0.7691
 5270TIP3    H137445   3.204   2.070   1.719  0.7396  3.2040 -0.5003
 5270TIP3    H237446   3.310   1.963   1.707 -2.8478 -0.7233  0.5484
 5271TIP3   OH237447   1.228   4.109   7.474  0.1563  0.3288  0.0588
 5271TIP3    H137448   1.274   4.041   7.524  0.7963 -0.2830 -1.3183
 5271TIP3    H237449   1.286   4.186   7.481 -1.0626  1.1396  2.4965
 5272TIP3   OH237450   6.490   6.834   1.708  0.2946  0.1498 -0.0895
 5272TIP3    H137451   6.538   6.909   1.674  1.6492 -0.4015  0.5687
 5272TIP3    H237452   6.507   6.834   1.802  0.3942 -1.0298 -0.0898
 5273TIP3   OH237453   3.302   2.487   1.352  0.3798 -0.1702  0.1153
 5273TIP3    H137454   3.289   2.577   1.323 -1.8006 -0.6791 -0.7415
 5273TIP3    H237455   3.230   2.472   1.414  0.0493 -1.6109 -0.5740
 5274TIP3   OH237456   3.624   1.329   2.070  0.2478 -0.7462 -0.0743
 5274TIP3    H137457   3.711   1.305   2.102  0.0374 -0.1032  1.0526
 5274TIP3    H237458   3.627   1.313   1.976  0.8998 -2.7514  0.2410
 5275TIP3   OH237459   3.682   1.532   0.344  0.0599  0.4929  0.1369
 5275TIP3    H137460   3.765   1.485   0.358  0.2847  0.8981  0.1870
 5275TIP3    H237461   3.705   1.624   0.354 -0.4979  0.5824  0.6296
 5276TIP3   OH237462   1.612   4.002   0.347  0.5388 -0.3735  0.2862
 5276TIP3    H137463   1.580   3.919   0.311 -1.5261  1.0531 -1.4566
 5276TIP3    H237464   1.551   4.022   0.418  0.7110 -0.1036  0.3581
 5277TIP3   OH237465   1.193   0.010   0.087  0.4805 -0.4119  0.3676
 5277TIP3    H137466   1.135  -0.066   0.079  0.4137 -0.3988  0.7213
 5277TIP3    H237467   1.207   0.039  -0.004  0.1186 -0.5561  0.2631
 5278TIP3   OH237468   4.755   6.505   1.167  0.1880 -0.3657  0.0440
 5278TIP3    H137469   4.834   6.521   1.114 -0.4156  2.0458 -0.2293
 5278TIP3    H237470   4.683   6.507   1.104 -0.1857 -2.0330  0.3709
 5279TIP3   OH237471   2.794   3.747   8.634 -0.4094  0.1307  0.6208
 5279TIP3    H137472   2.826   3.658   8.617 -0.6379  0.3364 -1.0530
 5279TIP3    H237473   2.741   3.769   8.557  0.6463  2.1860  0.4102
 5280TIP3   OH237474   3.247   6.448   0.054 -0.9393  0.1933  0.0030
 5280TIP3    H137475   3.162   6.447   0.010 -0.8810  1.9979 -0.2256
 5280TIP3    H237476   3.273   6.541   0.054  0.6110 -0.2075  0.8683
 5281TIP3   OH237477   5.877   0.701   0.448 -0.1805  0.2002  0.2948
 5281TIP3    H137478   5.969   0.680   0.429 -0.5236  1.0287 -2.8288
 5281TIP3    H237479   5.875   0.797   0.455 -1.0310  0.3828 -1.6935
 5282TIP3   OH237480   1.803   5.258   2.552  0.0536 -0.1623 -0.0784
 5282TIP3    H137481   1.713   5.282   2.575  0.4050  0.1944  1.0142
 5282TIP3    H237482   1.797   5.226   2.462 -1.0734  0.3719 -0.2178
 5283TIP3   OH237483   3.961   3.890   1.768 -0.3384  0.6493  0.1431
 5283TIP3    H137484   4.053   3.867   1.753 -0.3051 -0.0596  1.3339
 5283TIP3    H237485   3.958   3.920   1.859 -0.9906  2.3306 -0.3956
 5284TIP3   OH237486   3.319   3.327   8.110  0.6221  0.1282 -0.0979
 5284TIP3    H137487   3.294   3.419   8.108  0.9251  0.5950  4.9081
 5284TIP3    H237488   3.413   3.327   8.089  0.8578  1.1318  0.8705
 5285TIP3   OH237489   2.458   4.763   2.322  0.3001  0.1867 -0.0530
 5285TIP3    H137490   2.479   4.687   2.377  2.2018  0.7883  0.1330
 5285TIP3    H237491   2.495   4.838   2.369 -0.1804  1.0220 -0.9800
 5286TIP3   OH237492   3.777   1.132   0.126  0.9374 -0.4810  0.5098
 5286TIP3    H137493   3.828   1.058   0.093 -2.4912 -1.9713 -2.2146
 5286TIP3    H237494   3.710   1.092   0.181  0.6193  0.9609  1.2187
 5287TIP3   OH237495   1.487   4.868   7.704  0.5758 -0.4040  0.4992
 5287TIP3    H137496   1.544   4.897   7.775  0.1683 -2.6197  1.8351
 5287TIP3    H237497   1.402   4.857   7.745  0.3373 -1.7604 -0.3004
 5288TIP3   OH237498   5.659   6.074   8.335 -0.4317 -0.3824  0.0831
 5288TIP3    H137499   5.631   6.066   8.244 -0.0730 -0.0576 -0.0571
 5288TIP3    H237500   5.579   6.063   8.386 -0.7480  0.1671 -0.2965
 5289TIP3   OH237501   1.568   0.900   1.315  0.0578  0.0669  0.0731
 5289TIP3    H137502   1.621   0.849   1.253 -0.8446 -1.6230  0.6243
 5289TIP3    H237503   1.486   0.917   1.268  0.1445  0.5623  0.0938
 5290TIP3   OH237504   3.859   0.949   7.546  0.2832  0.2962 -0.6179
 5290TIP3    H137505   3.877   0.936   7.453  3.4254 -0.9463  0.0538
 5290TIP3    H237506   3.920   0.891   7.591 -1.0879  0.8921  2.2759
 5291TIP3   OH237507   6.417   2.003   7.754 -0.3292  0.4416  0.0611
 5291TIP3    H137508   6.358   2.075   7.734  0.3994  1.0461  0.0235
 5291TIP3    H237509   6.495   2.045   7.790  0.3587 -0.2720 -0.5360
 5292TIP3   OH237510   3.707   5.817   0.425  0.3201  0.0715 -0.8201
 5292TIP3    H137511   3.779   5.801   0.486 -0.5056  2.6819  1.0082
 5292TIP3    H237512   3.636   5.850   0.479 -1.0791  0.8679 -2.9825
 5293TIP3   OH237513   5.275   0.442   1.309 -0.1620 -0.2993  0.0201
 5293TIP3    H137514   5.342   0.457   1.376  0.1561 -1.5669  0.0126
 5293TIP3    H237515   5.245   0.352   1.326 -2.1892  0.3892  0.3079
 5294TIP3   OH237516   6.588   6.751   1.294 -0.1422  0.2016 -0.0894
 5294TIP3    H137517   6.618   6.722   1.380  0.6959  2.7188  0.5579
 5294TIP3    H237518   6.586   6.847   1.300 -0.9713  0.4228 -2.5856
 5295TIP3   OH237519   1.774   1.990   0.453  0.6960 -0.5844  0.0958
 5295TIP3    H137520   1.706   1.922   0.456  0.0886  0.0378  1.9448
 5295TIP3    H237521   1.856   1.942   0.448  0.5350 -1.7615  4.6843
 5296TIP3   OH237522   2.309   4.495   0.867  0.4778 -0.4606 -0.4624
 5296TIP3    H137523   2.368   4.570   0.856  0.5497 -0.5321 -0.5723
 5296TIP3    H237524   2.367   4.419   0.863  0.4987 -0.4974  0.3572
 5297TIP3   OH237525   4.910   0.658   6.719  0.0718  0.0077  0.0310
 5297TIP3    H137526   4.986   0.616   6.759 -0.7208 -0.4237  1.1538
 5297TIP3    H237527   4.835   0.618   6.763 -0.7793  1.0306 -0.4380
 5298TIP3   OH237528   4.765   5.300   7.382 -0.3331 -0.1847  0.6155
 5298TIP3    H137529   4.775   5.224   7.439  1.0644  0.6407  1.5298
 5298TIP3    H237530   4.851   5.310   7.340 -0.7409  0.4244 -0.1037
 5299TIP3   OH237531   0.979   1.379   1.051  0.8350 -0.2455 -0.3498
 5299TIP3    H137532   0.976   1.427   0.968 -1.3610 -0.3915 -0.4071
 5299TIP3    H237533   0.960   1.288   1.026 -0.1618 -0.2371  0.3172
 5300TIP3   OH237534   2.375   4.549   8.566  0.5548  0.2480  0.1667
 5300TIP3    H137535   2.337   4.475   8.613  0.7291  0.6449  0.9378
 5300TIP3    H237536   2.458   4.515   8.532  0.9478  0.2728  1.0780
 5301TIP3   OH237537   4.623   5.854   7.515 -0.4102 -0.1832  0.1489
 5301TIP3    H137538   4.537   5.873   7.553  0.1471  1.1133  0.8286
 5301TIP3    H237539   4.630   5.758   7.519 -2.2629 -0.4141 -0.9526
 5302TIP3   OH237540   1.983   0.228   0.308  0.6107  0.0189 -0.5789
 5302TIP3    H137541   2.022   0.183   0.383  0.0032  1.7236  0.8450
 5302TIP3    H237542   1.927   0.162   0.267  1.3481 -1.1021  0.1702
 5303TIP3   OH237543   6.017   3.467   0.230 -0.2878  0.8181  0.3269
 5303TIP3    H137544   6.046   3.559   0.236 -0.5317  0.8781  0.5908
 5303TIP3    H237545   6.006   3.440   0.321 -2.3247  1.1868  0.2290
 5304TIP3   OH237546   3.984   6.233   7.171  0.1205  0.6054  0.3303
 5304TIP3    H137547   4.023   6.197   7.091 -1.3516  0.8844 -0.5452
 5304TIP3    H237548   4.002   6.167   7.237 -0.0743 -0.4316 -0.6121
 5305TIP3   OH237549   6.579   4.750   8.093 -0.5585 -0.0225 -0.3699
 5305TIP3    H137550   6.631   4.829   8.110 -2.0591  1.0742 -0.7319
 5305TIP3    H237551   6.631   4.700   8.031  0.4122  0.6797 -0.1461
 5306TIP3   OH237552   3.741   1.586   6.974 -0.0257  0.4960 -0.0232
 5306TIP3    H137553   3.684   1.553   6.904  1.6207 -1.1580 -0.6510
 5306TIP3    H237554   3.692   1.569   7.054 -1.6573  1.8258 -0.6710
 5307TIP3   OH237555   2.910   1.203   1.422  0.0869 -0.6477  0.0866
 5307TIP3    H137556   2.819   1.228   1.436  0.7852  1.0152  2.1663
 5307TIP3    H237557   2.905   1.124   1.368 -2.5657 -0.7004  0.2819
 5308TIP3   OH237558   3.164   3.125   7.118 -0.0087 -0.3444  0.0900
 5308TIP3    H137559   3.114   3.162   7.191 -0.0646 -0.7021  0.2323
 5308TIP3    H237560   3.104   3.126   7.045 -0.3700 -1.1703  0.3661
 5309TIP3   OH237561   5.504   3.446   7.358  0.2878  0.5734  0.5272
 5309TIP3    H137562   5.410   3.443   7.343  0.2201 -1.6887  1.0571
 5309TIP3    H237563   5.541   3.478   7.276 -0.8300 -0.2664 -0.3227
 5310TIP3   OH237564   3.447   5.962   7.980  0.5687  0.5341  0.0429
 5310TIP3    H137565   3.408   6.044   7.951  1.0752  0.9058  0.3935
 5310TIP3    H237566   3.525   5.988   8.029 -0.2116 -0.0755  1.6631
 5311TIP3   OH237567   5.699   0.055   8.753  0.3052  0.0047 -0.5308
 5311TIP3    H137568   5.750  -0.018   8.787  0.9046 -0.6778 -2.7468
 5311TIP3    H237569   5.617   0.053   8.803  0.3690 -2.0779 -0.4272
 5312TIP3   OH237570   3.023   3.825   8.350 -0.5370 -0.4198  0.2458
 5312TIP3    H137571   2.972   3.798   8.274  1.9543 -0.1573 -1.6705
 5312TIP3    H237572   3.022   3.921   8.347  0.0080 -0.4125  0.2151
 5313TIP3   OH237573   0.240   5.994   7.226  0.2767  0.4108 -0.3956
 5313TIP3    H137574   0.283   5.912   7.250  0.6628  0.3560 -1.2329
 5313TIP3    H237575   0.197   6.023   7.306  3.9062  1.7805  1.2617
 5314TIP3   OH237576   0.170   4.103   8.499 -0.2392  0.2086  0.0937
 5314TIP3    H137577   0.160   4.107   8.404 -1.0864  1.1474  0.2073
 5314TIP3    H237578   0.082   4.122   8.533  0.3389  1.1738  1.0793
 5315TIP3   OH237579   1.759   0.370   6.427 -0.0797  0.2454  0.0288
 5315TIP3    H137580   1.814   0.354   6.503 -0.5504  0.1207  0.3520
 5315TIP3    H237581   1.669   0.358   6.459 -0.2369 -2.0478 -1.0569
 5316TIP3   OH237582   5.785   6.593   7.253  0.0355  0.3116  0.8119
 5316TIP3    H137583   5.814   6.610   7.342 -0.4267  1.9949  0.6715
 5316TIP3    H237584   5.777   6.679   7.213 -0.9698 -0.3371 -0.4780
 5317TIP3   OH237585   6.500   0.561   1.563 -0.6822 -0.6342  0.5908
 5317TIP3    H137586   6.436   0.540   1.495 -1.2849 -2.0890  1.5565
 5317TIP3    H237587   6.447   0.579   1.641  0.0478 -0.6729  1.1008
 5318TIP3   OH237588   6.517   0.169   1.316 -0.4703  0.5624 -0.5217
 5318TIP3    H137589   6.606   0.200   1.301  0.4539 -2.0375 -0.9838
 5318TIP3    H237590   6.464   0.214   1.251  1.0761 -0.0902 -2.3244
 5319TIP3   OH237591   2.564   0.411   6.518  0.4682  1.1732 -0.5163
 5319TIP3    H137592   2.608   0.387   6.436 -0.2852 -0.5849 -0.4569
 5319TIP3    H237593   2.499   0.342   6.531  0.2956  1.6354  1.3620
 5320TIP3   OH237594   5.837   4.717   1.396  0.4855 -0.2696 -0.5987
 5320TIP3    H137595   5.870   4.697   1.308 -0.5118 -0.3481 -0.9679
 5320TIP3    H237596   5.743   4.730   1.384  0.7432  2.9246 -0.1158
 5321TIP3   OH237597   0.043   6.680   1.406 -0.1631 -0.0480 -0.0755
 5321TIP3    H137598  -0.009   6.701   1.484  0.0383  0.6599 -0.1235
 5321TIP3    H237599  -0.018   6.635   1.348 -0.4077 -0.2726  0.3493
 5322TIP3   OH237600   0.274   3.625   1.760  0.1973  0.5941 -0.0044
 5322TIP3    H137601   0.308   3.701   1.713  0.1582  1.4903  1.3396
 5322TIP3    H237602   0.181   3.644   1.773 -0.6208 -1.1999 -2.4337
 5323TIP3   OH237603   1.123   5.683   1.206  0.3348 -0.1326  0.2839
 5323TIP3    H137604   1.155   5.611   1.151 -2.0590 -2.1726  1.3252
 5323TIP3    H237605   1.188   5.691   1.276  1.4977 -0.0662 -0.7669
 5324TIP3   OH237606   6.173   5.557   8.243 -0.4851 -0.4702  0.4079
 5324TIP3    H137607   6.186   5.644   8.207  2.3143 -1.3291 -0.9707
 5324TIP3    H237608   6.221   5.558   8.326  0.4686 -0.9833 -0.1288
 5325TIP3   OH237609   0.054   4.674   2.116  0.3289  0.2577 -0.4448
 5325TIP3    H137610   0.045   4.624   2.197  0.2925  0.3559 -0.3880
 5325TIP3    H237611   0.136   4.723   2.128  0.4169  0.1367 -0.5415
 5326TIP3   OH237612   2.655   3.398   2.404  0.2123 -0.2934 -0.8039
 5326TIP3    H137613   2.696   3.484   2.407  0.5265 -0.3610 -2.2566
 5326TIP3    H237614   2.701   3.352   2.333 -2.0460 -0.5384 -2.2129
 5327TIP3   OH237615   6.494   6.786   0.924  0.3462 -0.2393 -0.4247
 5327TIP3    H137616   6.426   6.853   0.917 -1.6131 -1.8724  1.3964
 5327TIP3    H237617   6.479   6.728   0.850  0.8867  0.3339 -0.9905
 5328TIP3   OH237618   1.370   5.691   8.757 -0.3297  0.1526  0.2668
 5328TIP3    H137619   1.383   5.678   8.851 -2.2275  0.4015  0.6134
 5328TIP3    H237620   1.300   5.756   8.752 -0.2658  0.1342 -1.3333
 5329TIP3   OH237621   3.284   3.727   8.366 -0.2665 -0.2721 -0.3698
 5329TIP3    H137622   3.286   3.701   8.274 -1.9967 -1.4916 -0.1047
 5329TIP3    H237623   3.201   3.774   8.376  0.3974  0.7856  0.3634
 5330TIP3   OH237624   0.117   5.040   0.772 -0.3117 -0.2268  0.0820
 5330TIP3    H137625   0.028   5.010   0.756 -0.1372  0.0477 -1.5501
 5330TIP3    H237626   0.134   5.105   0.704  0.1180  1.9761  2.1224
 5331TIP3   OH237627   2.360   1.987   6.670  0.2233  0.0238  0.0988
 5331TIP3    H137628   2.401   1.932   6.603 -0.8921 -0.3049 -0.3329
 5331TIP3    H237629   2.275   2.012   6.632 -0.4498 -0.1988  1.4005
 5332TIP3   OH237630   5.250   2.079   1.246 -0.2200  0.1055 -0.8057
 5332TIP3    H137631   5.207   2.164   1.253 -1.1757 -0.4547  0.2398
 5332TIP3    H237632   5.337   2.093   1.284 -0.9585  0.2220  0.9037
 5333TIP3   OH237633   3.167   6.713   8.338 -0.1275 -0.3569  0.2882
 5333TIP3    H137634   3.236   6.749   8.394  0.1105 -0.3188 -0.0341
 5333TIP3    H237635   3.120   6.651   8.395 -1.4033  1.4281  1.2964
 5334TIP3   OH237636   1.965   4.054   8.219 -0.2040 -0.3118  0.0941
 5334TIP3    H137637   1.895   4.117   8.231 -0.1673 -0.0350 -1.0242
 5334TIP3    H237638   1.926   3.970   8.242 -0.7395 -0.0928 -0.0082
 5335TIP3   OH237639   2.591   1.476   7.697  0.1340  0.0352  0.2903
 5335TIP3    H137640   2.538   1.436   7.767 -0.5319  1.2587  0.5060
 5335TIP3    H237641   2.650   1.406   7.669 -0.6152 -0.9243  1.0464
 5336TIP3   OH237642   0.376   1.685   7.867 -0.5478  0.3456 -0.0364
 5336TIP3    H137643   0.425   1.626   7.924 -0.8111  0.5956  0.4467
 5336TIP3    H237644   0.290   1.644   7.858 -0.6443  0.5269  0.0825
 5337TIP3   OH237645   5.579   5.351   1.049 -0.6193 -0.0274  0.5211
 5337TIP3    H137646   5.658   5.355   1.102  0.5120 -1.5381 -0.9256
 5337TIP3    H237647   5.530   5.430   1.072  2.5572  2.4490 -0.4613
 5338TIP3   OH237648   5.637   2.540   1.429  0.2548  0.2514 -0.4144
 5338TIP3    H137649   5.641   2.467   1.367 -0.2712 -0.0222 -0.1387
 5338TIP3    H237650   5.560   2.521   1.483  0.3184  0.8311 -0.1115
 5339TIP3   OH237651   3.752   0.696   8.338  0.3509 -0.0668  0.0104
 5339TIP3    H137652   3.701   0.657   8.267 -1.1767  0.6169  0.6884
 5339TIP3    H237653   3.695   0.690   8.414  2.0753 -1.0638  1.2824
 5340TIP3   OH237654   3.821   1.663   6.564  0.1989 -0.1355  0.1442
 5340TIP3    H137655   3.881   1.733   6.587  0.7720  0.1868 -2.0557
 5340TIP3    H237656   3.868   1.583   6.587  1.1822  0.1371 -0.8011
 5341TIP3   OH237657   3.002   0.725   7.015  0.3884  0.7529  0.2097
 5341TIP3    H137658   2.943   0.727   7.090  0.9369  0.1408  0.6685
 5341TIP3    H237659   2.946   0.744   6.939 -0.3560  0.3338  0.6507
 5342TIP3   OH237660   4.701   6.448   1.610  0.0008 -0.0806  0.5948
 5342TIP3    H137661   4.792   6.476   1.624 -0.6216  1.3472  2.2630
 5342TIP3    H237662   4.669   6.505   1.541  0.3731 -0.6059 -0.0178
 5343TIP3   OH237663   4.991   3.793   1.921 -0.0038  0.8201  0.3965
 5343TIP3    H137664   5.050   3.725   1.887  0.4927  1.8181 -0.8121
 5343TIP3    H237665   4.903   3.760   1.899  0.0365 -0.6899  2.2434
 5344TIP3   OH237666   1.316   0.048   8.192  0.4661 -0.3289 -0.2178
 5344TIP3    H137667   1.293   0.102   8.267  0.1711  0.4278 -0.8390
 5344TIP3    H237668   1.390   0.094   8.151  0.7723 -0.8539 -0.2554
 5345TIP3   OH237669   6.504   3.007   0.714  0.5178 -0.1797 -0.7153
 5345TIP3    H137670   6.599   3.013   0.730  0.4036  2.8029 -0.4575
 5345TIP3    H237671   6.490   3.060   0.636 -0.9406 -0.6560 -0.8055
 5346TIP3   OH237672   3.029   0.179   2.585 -0.4431  0.5961  0.3080
 5346TIP3    H137673   2.993   0.189   2.673  1.2960  0.6309  1.0421
 5346TIP3    H237674   3.106   0.235   2.583  2.1661 -2.6727  0.2942
 5347TIP3   OH237675   4.257   3.929   6.714  1.0597  0.1673 -0.6392
 5347TIP3    H137676   4.330   3.867   6.708  1.1234  0.0900  0.6456
 5347TIP3    H237677   4.246   3.944   6.808 -0.8797 -0.1654 -0.7717
 5348TIP3   OH237678   2.257   2.238   8.010 -0.3359  0.5672  0.0651
 5348TIP3    H137679   2.266   2.233   7.915  0.1162  1.5413  0.0404
 5348TIP3    H237680   2.293   2.155   8.042  1.2287  0.9701 -0.5294
 5349TIP3   OH237681   0.157   6.343   6.704 -0.1240 -0.2463 -0.1017
 5349TIP3    H137682   0.126   6.379   6.787  1.7416  1.8704 -0.2065
 5349TIP3    H237683   0.083   6.292   6.670 -2.2734  1.8790  1.0807
 5350TIP3   OH237684   3.700   6.783   8.688 -0.3999  0.1113  0.0178
 5350TIP3    H137685   3.779   6.785   8.742 -0.0855  1.4331 -0.4630
 5350TIP3    H237686   3.682   6.689   8.677  0.6566 -0.2032  0.7607
 5351TIP3   OH237687   4.540   5.012   0.034  0.0529  0.0521 -0.2809
 5351TIP3    H137688   4.531   5.010   0.129 -0.2450 -0.4727 -0.3154
 5351TIP3    H237689   4.634   5.022   0.019  0.0234  0.8973  0.0689
 5352TIP3   OH237690   5.230   2.754   2.113 -0.2077 -0.2498  0.8595
 5352TIP3    H137691   5.158   2.816   2.125 -0.6272 -0.2195 -1.3827
 5352TIP3    H237692   5.290   2.774   2.184 -1.3975  1.1895  1.5295
 5353TIP3   OH237693   3.887   3.158   8.437 -0.4359 -0.2086  0.4873
 5353TIP3    H137694   3.833   3.152   8.516  0.5629  1.0753  1.3190
 5353TIP3    H237695   3.974   3.180   8.470 -0.1610  1.0872 -1.0093
 5354TIP3   OH237696   6.324   0.815   8.246  0.2380  0.6769 -0.4258
 5354TIP3    H137697   6.324   0.736   8.300 -0.2746  1.2512  0.4276
 5354TIP3    H237698   6.409   0.814   8.202  0.1794 -0.4237 -0.5411
 5355TIP3   OH237699   6.145   2.528   1.317  0.2364 -0.0205 -0.8656
 5355TIP3    H137700   6.217   2.558   1.373 -1.2204  1.7377  0.1610
 5355TIP3    H237701   6.161   2.571   1.233  0.6327  0.0022 -0.7792
 5356TIP3   OH237702   2.717   6.632   0.743  0.2932  0.4488 -0.6063
 5356TIP3    H137703   2.796   6.588   0.711  0.9109  1.5996 -0.6983
 5356TIP3    H237704   2.722   6.720   0.706 -1.6513  0.1888 -1.6288
 5357TIP3   OH237705   2.008   2.267   2.315 -0.0890 -1.2969  0.2941
 5357TIP3    H137706   2.100   2.278   2.290 -0.3615 -0.6484 -0.4993
 5357TIP3    H237707   1.982   2.185   2.274 -0.1783 -0.8801 -0.5062
 5358TIP3   OH237708   2.274   1.568   6.601  0.9989 -0.4316 -0.1613
 5358TIP3    H137709   2.215   1.539   6.670  2.3904  0.7111  1.6120
 5358TIP3    H237710   2.217   1.597   6.530 -0.4908 -1.0515  0.7366
 5359TIP3   OH237711   0.299   2.273   7.453  0.6525  0.2005  0.2593
 5359TIP3    H137712   0.216   2.233   7.482  0.5922 -0.4984 -0.8382
 5359TIP3    H237713   0.350   2.281   7.533  0.4345 -1.5637  0.6192
 5360TIP3   OH237714   2.077   1.331   6.642 -0.3819  0.0946  0.2596
 5360TIP3    H137715   2.067   1.236   6.646  0.5414 -0.0035  0.3758
 5360TIP3    H237716   2.094   1.350   6.549  1.7770 -0.1245  0.5556
 5361TIP3   OH237717   2.426   0.878   7.382  0.0809  0.2916 -0.4571
 5361TIP3    H137718   2.360   0.809   7.373  0.6964 -0.3263 -0.3070
 5361TIP3    H237719   2.506   0.832   7.405  0.3002  1.1400  0.5588
 5362TIP3   OH237720   1.048   3.691   7.370  0.6425  0.0163 -0.0135
 5362TIP3    H137721   1.132   3.697   7.326  1.6971  0.4505  1.9542
 5362TIP3    H237722   1.037   3.776   7.413 -1.6732  0.6577 -1.6234
 5363TIP3   OH237723   0.216   4.778   0.770  0.7619  0.2664 -0.0000
 5363TIP3    H137724   0.221   4.744   0.860 -0.2720 -1.7168 -0.6452
 5363TIP3    H237725   0.199   4.872   0.781  1.0119  0.1302  1.8650
 5364TIP3   OH237726   5.352   4.957   1.513 -0.0734 -0.0228  0.7908
 5364TIP3    H137727   5.328   5.006   1.435  1.8919 -1.4070 -0.7757
 5364TIP3    H237728   5.301   4.876   1.507  1.4142 -0.9278 -0.0753
 5365TIP3   OH237729   5.874   0.552   7.340 -0.0162  0.7149 -0.0004
 5365TIP3    H137730   5.872   0.623   7.403  2.0066  0.1483  0.7899
 5365TIP3    H237731   5.907   0.591   7.260  0.0531  0.8765  0.1081
 5366TIP3   OH237732   1.754   4.070   8.371 -0.2729 -1.1256  0.1432
 5366TIP3    H137733   1.749   4.090   8.465 -0.7358  0.4349 -0.1884
 5366TIP3    H237734   1.781   3.978   8.368  2.6628 -0.4545  1.8059
 5367TIP3   OH237735   4.781   1.273   0.626  0.5144 -0.3275 -0.1556
 5367TIP3    H137736   4.722   1.213   0.581  1.2087 -2.5778  1.7437
 5367TIP3    H237737   4.868   1.237   0.611  0.9431  0.1227  1.0786
 5368TIP3   OH237738   4.511   0.431   7.563 -0.4096 -0.3305  0.0403
 5368TIP3    H137739   4.484   0.363   7.625  2.1866  1.4731  3.5683
 5368TIP3    H237740   4.588   0.394   7.520 -0.8643 -0.7516 -0.4212
 5369TIP3   OH237741   0.752   3.345   2.094  0.0394  0.0979  0.1970
 5369TIP3    H137742   0.731   3.334   2.186  0.4432  0.0065  0.2810
 5369TIP3    H237743   0.845   3.323   2.088 -0.0439 -0.1437 -0.2726
 5370TIP3   OH237744   1.912   4.897   0.449 -0.6849  0.6457 -0.2698
 5370TIP3    H137745   1.969   4.967   0.481  1.8718  0.1275 -3.2004
 5370TIP3    H237746   1.971   4.833   0.410 -3.1840 -0.5419 -2.5020
 5371TIP3   OH237747   1.571   0.622   0.524 -0.2712  0.4482 -0.1805
 5371TIP3    H137748   1.517   0.587   0.595  1.2270  1.4105  1.4910
 5371TIP3    H237749   1.510   0.631   0.450 -2.1970  0.7086  1.3665
 5372TIP3   OH237750   4.289   0.138   7.410 -0.1975 -0.0104 -0.5626
 5372TIP3    H137751   4.207   0.139   7.360 -1.2732  1.0039  1.1323
 5372TIP3    H237752   4.274   0.074   7.480 -1.2388  3.0815  2.2853
 5373TIP3   OH237753   6.164   2.078   7.969  0.6642  0.3423  0.2849
 5373TIP3    H137754   6.200   2.140   8.033  0.9777  0.2192  0.2294
 5373TIP3    H237755   6.189   2.115   7.884 -2.2736  2.1084  0.0721
 5374TIP3   OH237756   3.170   3.218   0.389  0.1671 -0.5595 -0.3440
 5374TIP3    H137757   3.201   3.304   0.360 -0.0064 -0.6739 -0.8999
 5374TIP3    H237758   3.182   3.218   0.484 -1.1815  0.6368 -0.1444
 5375TIP3   OH237759   6.281   6.712   7.894  0.4510 -0.2141 -0.4127
 5375TIP3    H137760   6.295   6.800   7.929  0.8947  0.0695 -1.2642
 5375TIP3    H237761   6.251   6.727   7.804  2.0983 -0.9358 -1.1243
 5376TIP3   OH237762   3.362   0.896   1.547 -0.4126  0.0823 -0.2578
 5376TIP3    H137763   3.305   0.853   1.610  0.3244 -0.6646 -0.0742
 5376TIP3    H237764   3.424   0.828   1.521 -0.3707  0.5229 -1.3901
 5377TIP3   OH237765   5.132   2.834   8.438  0.1492 -0.1617 -0.1270
 5377TIP3    H137766   5.060   2.896   8.452  1.0053  0.9169 -0.4093
 5377TIP3    H237767   5.190   2.848   8.512 -0.0924 -1.2904  0.2910
 5378TIP3   OH237768   4.761   3.207   1.532 -0.6783 -0.6296  0.6920
 5378TIP3    H137769   4.760   3.285   1.588  0.7398  0.8407 -1.1843
 5378TIP3    H237770   4.669   3.193   1.509 -0.9082  0.8634  0.6066
 5379TIP3   OH237771   5.344   1.950   6.755  0.4971  0.3529 -0.0064
 5379TIP3    H137772   5.404   2.013   6.796 -0.0951  0.3180  0.9489
 5379TIP3    H237773   5.273   1.940   6.818  0.5125 -1.1958 -0.1925
 5380TIP3   OH237774   3.332   4.141   1.467  0.3037  0.4800 -0.1052
 5380TIP3    H137775   3.378   4.175   1.544 -0.0048  0.5181  0.0644
 5380TIP3    H237776   3.402   4.112   1.408  0.5298  0.0844  0.3531
 5381TIP3   OH237777   6.328   4.540   1.360 -0.5030  0.0102  0.1535
 5381TIP3    H137778   6.283   4.469   1.315  0.6729 -0.4973 -0.2596
 5381TIP3    H237779   6.360   4.596   1.290 -1.0331  0.7130  0.4644
 5382TIP3   OH237780   6.667   6.688   1.940  0.2667  0.2270 -0.2341
 5382TIP3    H137781   6.606   6.638   1.884  0.4205  0.5650 -0.7164
 5382TIP3    H237782   6.622   6.696   2.024  0.9257 -2.1331  0.4061
 5383TIP3   OH237783   2.935   2.397   0.322 -0.0521 -0.2974 -0.2948
 5383TIP3    H137784   2.979   2.339   0.384 -0.1128 -0.5856 -0.5156
 5383TIP3    H237785   2.988   2.476   0.320 -1.9525  1.2567  2.9032
 5384TIP3   OH237786   0.080   1.243   1.161  0.0709  0.1726  0.0167
 5384TIP3    H137787  -0.001   1.231   1.111  0.5507 -1.3616 -0.4346
 5384TIP3    H237788   0.058   1.309   1.227 -1.8464 -0.9547  0.5731
 5385TIP3   OH237789   3.888   2.362   0.658  0.3634 -0.5413  0.2079
 5385TIP3    H137790   3.832   2.439   0.662  0.9657  0.0006 -1.2040
 5385TIP3    H237791   3.835   2.294   0.617  1.1143  0.3801 -2.4410
 5386TIP3   OH237792   0.300   1.057   7.863  0.2246  0.2065 -0.0155
 5386TIP3    H137793   0.313   1.131   7.921  0.7566  0.7760 -0.8486
 5386TIP3    H237794   0.348   1.079   7.784 -1.3806 -0.0630 -1.1121
 5387TIP3   OH237795   5.216   3.469   7.844 -0.1714  0.5251  0.5124
 5387TIP3    H137796   5.214   3.547   7.900  0.1737  0.5450  0.5001
 5387TIP3    H237797   5.124   3.446   7.831 -0.3575  1.8691 -0.7993
 5388TIP3   OH237798   1.045   5.655   8.352 -0.2577 -0.6086  0.0462
 5388TIP3    H137799   1.052   5.743   8.317 -1.0150 -0.1338  1.0626
 5388TIP3    H237800   1.121   5.646   8.409 -0.5482 -0.3633  0.4746
 5389TIP3   OH237801   5.542   1.893   8.330  0.0242 -0.5447 -0.2018
 5389TIP3    H137802   5.593   1.814   8.348  0.3358  0.0459  1.7705
 5389TIP3    H237803   5.553   1.908   8.236  1.4767 -1.8061 -0.2698
 5390TIP3   OH237804   2.255   3.141   7.805 -0.0233  0.2702 -0.0194
 5390TIP3    H137805   2.201   3.080   7.754  1.0289 -0.9823  0.3161
 5390TIP3    H237806   2.211   3.147   7.890  0.6871 -1.2767  0.4851
 5391TIP3   OH237807   5.355   0.630   0.312  0.7134 -0.1785 -0.4162
 5391TIP3    H137808   5.262   0.648   0.327  0.3133  0.6451 -3.1900
 5391TIP3    H237809   5.381   0.574   0.385 -1.7026  0.3410  0.9523
 5392TIP3   OH237810   6.450   2.459   0.364  0.2765  0.3228  0.2121
 5392TIP3    H137811   6.490   2.545   0.373  0.6152  0.1706  0.1988
 5392TIP3    H237812   6.507   2.401   0.415 -1.7826  0.6298  3.1134
 5393TIP3   OH237813   4.290   5.419   0.060 -0.6677 -0.1806 -0.2395
 5393TIP3    H137814   4.385   5.404   0.051 -0.5484  0.8914 -0.8852
 5393TIP3    H237815   4.267   5.375   0.142  0.2674 -0.9813 -0.3742
 5394TIP3   OH237816   5.746   1.122   0.612 -0.7161 -0.4575  0.2553
 5394TIP3    H137817   5.789   1.127   0.698 -1.1359 -0.2488  0.4548
 5394TIP3    H237818   5.652   1.121   0.632 -0.8198 -0.1583 -0.2137
 5395TIP3   OH237819   0.151   0.849   0.346 -0.3126  0.8177 -0.3179
 5395TIP3    H137820   0.178   0.757   0.357  0.7124  1.0625 -0.7248
 5395TIP3    H237821   0.214   0.885   0.284 -1.9894  1.2510 -1.8543
 5396TIP3   OH237822   6.177   4.655   8.302 -0.3387 -0.0034  0.1937
 5396TIP3    H137823   6.106   4.598   8.274 -0.5822  0.4656 -0.1649
 5396TIP3    H237824   6.206   4.699   8.222  1.3674 -1.2790  0.0626
 5397TIP3   OH237825   2.165   0.356   6.758 -1.5039  0.1509  0.7902
 5397TIP3    H137826   2.201   0.345   6.670 -2.1593  2.3992  0.1886
 5397TIP3    H237827   2.239   0.341   6.816 -0.7637 -0.1381 -0.1956
 5398TIP3   OH237828   5.869   1.791   7.150  0.7116  0.7560  0.1975
 5398TIP3    H137829   5.870   1.792   7.054  2.3948  1.9148  0.1941
 5398TIP3    H237830   5.804   1.857   7.173  0.1182  0.2996 -0.1267
 5399TIP3   OH237831   3.803   2.646   0.168  0.3188 -0.7651 -0.2719
 5399TIP3    H137832   3.870   2.696   0.121  1.0304 -1.7045 -0.2781
 5399TIP3    H237833   3.852   2.581   0.218 -0.2987  0.6708  2.4463
 5400TIP3   OH237834   5.071   4.261   1.311 -0.4653  0.2753  0.0055
 5400TIP3    H137835   5.038   4.231   1.396  0.3343 -0.3641  0.1111
 5400TIP3    H237836   5.167   4.252   1.319 -0.4110 -0.2741 -1.1241
 5401TIP3   OH237837   0.643   1.203   7.839 -0.2095  0.6008 -0.0920
 5401TIP3    H137838   0.594   1.252   7.773  1.9729  0.8287 -1.6198
 5401TIP3    H237839   0.610   1.113   7.832 -1.4920  1.0412  0.0333
 5402TIP3   OH237840   3.434   2.393   0.022  0.6634 -0.2005 -0.0316
 5402TIP3    H137841   3.506   2.417   0.080  0.5500 -0.1765  0.0967
 5402TIP3    H237842   3.471   2.404  -0.066  1.0227 -0.8034  0.0354
 5403TIP3   OH237843   1.454   6.497   7.749 -0.0519 -0.0817  0.5956
 5403TIP3    H137844   1.420   6.560   7.812  1.0937 -0.0567  1.2192
 5403TIP3    H237845   1.548   6.491   7.769  0.1846 -0.6706 -0.5920
 5404TIP3   OH237846   2.337   2.723   7.601 -0.0331  0.2740 -0.2614
 5404TIP3    H137847   2.292   2.645   7.635  0.7106 -0.1444 -0.2178
 5404TIP3    H237848   2.269   2.791   7.600 -0.5230 -0.1904  0.3433
 5405TIP3   OH237849   6.017   1.439   1.037  0.2829 -1.0174  0.1633
 5405TIP3    H137850   5.994   1.346   1.049 -0.8702 -0.8997 -0.9470
 5405TIP3    H237851   5.936   1.480   1.009  0.6396  0.4734  1.2084
 5406TIP3   OH237852   6.607   5.139   7.648 -0.2479 -0.3488 -0.1589
 5406TIP3    H137853   6.610   5.097   7.734  0.6388 -2.3389 -1.1130
 5406TIP3    H237854   6.518   5.122   7.617  0.1239 -1.6890 -0.5707
 5407TIP3   OH237855   3.433   4.991   1.847 -0.4374  0.1963 -0.1364
 5407TIP3    H137856   3.455   4.922   1.909  0.6521 -0.8253 -1.6057
 5407TIP3    H237857   3.487   4.974   1.770 -2.9548  0.3394 -2.1057
 5408TIP3   OH237858   1.190   4.928   1.349  0.6116  0.2180 -0.1218
 5408TIP3    H137859   1.135   5.002   1.377 -2.3913 -2.3999  1.6063
 5408TIP3    H237860   1.167   4.915   1.257 -0.9027 -0.0945  0.2636
 5409TIP3   OH237861   1.412   6.632   8.351 -0.0885  0.3549 -0.8087
 5409TIP3    H137862   1.479   6.644   8.418 -0.8437 -1.4181  0.3206
 5409TIP3    H237863   1.339   6.591   8.396 -1.5308  1.2033 -2.2572
 5410TIP3   OH237864   0.403   4.098   7.283  0.3685  0.5284 -0.5377
 5410TIP3    H137865   0.488   4.082   7.242  0.5365 -0.0350  0.0114
 5410TIP3    H237866   0.400   4.036   7.357  0.1989  1.7084  0.4694
 5411TIP3   OH237867   2.550   4.860   7.676 -0.2435 -0.1748 -0.2824
 5411TIP3    H137868   2.473   4.915   7.687  0.6766  1.1664 -0.2323
 5411TIP3    H237869   2.554   4.844   7.582 -1.0937 -1.0428 -0.1802
 5412TIP3   OH237870   6.209   5.120   2.295 -0.6053 -0.0922  0.0283
 5412TIP3    H137871   6.126   5.167   2.306 -0.6392 -0.2734  0.5576
 5412TIP3    H237872   6.200   5.042   2.349  0.1652  0.2192  0.6235
 5413TIP3   OH237873   4.835   2.014   7.687 -0.2775  0.4276 -0.2096
 5413TIP3    H137874   4.882   1.931   7.698 -0.0670  0.5673 -0.0298
 5413TIP3    H237875   4.771   2.014   7.758 -0.5168  0.2610 -0.4225
 5414TIP3   OH237876   6.808   1.614   1.953 -0.4432 -0.4353  0.2925
 5414TIP3    H137877   6.828   1.697   1.911 -0.9036 -0.0608  0.8094
 5414TIP3    H237878   6.891   1.565   1.950 -0.1742  0.0339 -0.0089
 5415TIP3   OH237879   0.791   2.016   7.371 -0.1288  0.2263  0.2812
 5415TIP3    H137880   0.783   1.988   7.463  0.7769  0.1375  0.3371
 5415TIP3    H237881   0.830   1.941   7.327 -1.7917 -0.2513 -0.4700
 5416TIP3   OH237882   5.173   5.513   0.273  0.3048  0.2982  0.4434
 5416TIP3    H137883   5.265   5.525   0.249  0.0530 -1.4594 -1.6926
 5416TIP3    H237884   5.176   5.488   0.365  1.9208  0.7483  0.5572
 5417TIP3   OH237885   5.871   0.048   7.597 -0.2455  0.2679 -0.1599
 5417TIP3    H137886   5.882   0.129   7.547  0.4229  0.9338  1.0244
 5417TIP3    H237887   5.802   0.068   7.660 -0.8627 -0.4608 -0.5839
 5418TIP3   OH237888   5.640   6.043   8.060 -0.0169 -0.2585 -0.3901
 5418TIP3    H137889   5.605   6.086   7.982 -1.5788 -0.0804  0.3816
 5418TIP3    H237890   5.702   5.978   8.026 -0.0375  0.3926 -1.7250
 5419TIP3   OH237891   6.390   0.832   7.736  1.1161 -0.1996  0.1418
 5419TIP3    H137892   6.301   0.867   7.730  0.7210 -1.2072  0.0547
 5419TIP3    H237893   6.445   0.902   7.702  0.2506 -0.0197 -0.9305
 5420TIP3   OH237894   6.553   2.677   0.603 -0.0790 -0.1325 -0.2316
 5420TIP3    H137895   6.464   2.661   0.637 -0.0285  0.5060  0.2320
 5420TIP3    H237896   6.589   2.742   0.663  0.2851  0.4731 -1.0996
 5421TIP3   OH237897   1.983   3.828   0.284 -0.1882 -0.2852 -0.1519
 5421TIP3    H137898   2.002   3.856   0.373 -0.3341 -0.3764 -0.0911
 5421TIP3    H237899   2.068   3.816   0.243 -0.0820  2.3294 -0.8466
 5422TIP3   OH237900   6.047   5.460   7.970  0.0860  0.0735  0.3761
 5422TIP3    H137901   6.044   5.519   8.046 -0.3159  1.2615 -0.5158
 5422TIP3    H237902   5.994   5.385   7.996 -0.0146  0.4411  1.2885
 5423TIP3   OH237903   2.680   3.143   1.198  0.1921 -0.2445 -0.2736
 5423TIP3    H137904   2.611   3.195   1.156 -0.4766 -1.3618 -0.5827
 5423TIP3    H237905   2.739   3.119   1.128  3.1414  3.8098  0.4085
 5424TIP3   OH237906   0.877   4.193   2.115 -0.3474  0.4377  0.4677
 5424TIP3    H137907   0.935   4.249   2.064 -1.4271  0.1988 -1.0710
 5424TIP3    H237908   0.789   4.218   2.088 -0.9033 -0.7633  1.0996
 5425TIP3   OH237909   2.326   6.312   0.464  0.4020 -0.3602 -0.0604
 5425TIP3    H137910   2.371   6.276   0.387 -0.3276 -1.4432 -0.0001
 5425TIP3    H237911   2.362   6.262   0.538  0.5536  0.1651  0.2303
 5426TIP3   OH237912   1.278   0.582   0.395  0.5083 -0.5251 -0.4297
 5426TIP3    H137913   1.223   0.507   0.372 -1.3305  0.9704 -1.1845
 5426TIP3    H237914   1.245   0.611   0.480  1.4937 -0.7853  0.0604
 5427TIP3   OH237915   5.259   2.075   2.283 -0.1127  0.2158  0.1964
 5427TIP3    H137916   5.182   2.133   2.283 -0.1698  0.1800 -1.2180
 5427TIP3    H237917   5.226   1.991   2.251  0.1952 -0.2908  1.1868
 5428TIP3   OH237918   3.062   2.326   6.926 -0.1940 -0.3347  0.0825
 5428TIP3    H137919   3.103   2.325   6.839 -0.4812 -1.4486 -0.0653
 5428TIP3    H237920   3.000   2.399   6.922 -1.0828 -1.0956 -1.1077
 5429TIP3   OH237921   5.816   6.184   7.793  0.4572 -0.2385  0.3241
 5429TIP3    H137922   5.824   6.247   7.721  0.1015 -1.9308 -1.2748
 5429TIP3    H237923   5.722   6.173   7.804  0.5180 -1.1120  0.0060
 5430TIP3   OH237924   3.857   0.103   1.575 -0.0783 -0.2968  0.2340
 5430TIP3    H137925   3.904   0.022   1.555 -1.3973 -0.2068 -4.0508
 5430TIP3    H237926   3.766   0.077   1.584 -0.7763  0.7101 -2.7323
 5431TIP3   OH237927   5.026   1.876   8.134 -0.4750 -0.4439  0.0972
 5431TIP3    H137928   5.027   1.970   8.117 -2.4764 -0.4605 -0.3827
 5431TIP3    H237929   5.117   1.848   8.123 -0.1248  1.1528 -1.4678
 5432TIP3   OH237930   4.398   5.395   0.958 -0.0393  0.1991  0.0133
 5432TIP3    H137931   4.412   5.424   0.867 -1.5507 -1.9566 -1.0023
 5432TIP3    H237932   4.345   5.316   0.949  0.1151 -0.2933  2.8007
 5433TIP3   OH237933   1.371   2.822   7.564  0.0478  0.4885 -0.6586
 5433TIP3    H137934   1.461   2.807   7.594  0.1667 -1.4217 -1.7738
 5433TIP3    H237935   1.362   2.764   7.489 -1.9344  1.1322 -0.9581
 5434TIP3   OH237936   3.011   1.117   2.529 -0.6976 -0.4611  0.0123
 5434TIP3    H137937   2.948   1.189   2.522 -0.8955 -0.6299  0.0611
 5434TIP3    H237938   3.037   1.100   2.438 -1.1638 -0.7803 -0.0665
 5435TIP3   OH237939   5.430   2.175   0.734 -0.2214 -0.7592 -0.4480
 5435TIP3    H137940   5.371   2.145   0.665  0.0975  2.6112 -2.3997
 5435TIP3    H237941   5.372   2.200   0.806 -0.7942 -1.6631 -0.5909
 5436TIP3   OH237942   3.943   3.650   8.461 -0.0771  0.2150  0.9835
 5436TIP3    H137943   4.034   3.621   8.468 -0.0121 -0.1348 -0.8065
 5436TIP3    H237944   3.896   3.600   8.528  0.8000 -0.7692  0.8883
 5437TIP3   OH237945   4.072   0.270   7.840 -0.4683 -0.1324 -0.0511
 5437TIP3    H137946   3.989   0.257   7.885 -0.3912  1.6942  0.7148
 5437TIP3    H237947   4.138   0.230   7.896 -0.5452  0.8076  0.7267
 5438TIP3   OH237948   3.254   3.745   0.497 -0.1844  0.4297  0.2432
 5438TIP3    H137949   3.234   3.653   0.516  0.9016 -0.0706 -0.9326
 5438TIP3    H237950   3.201   3.794   0.560 -2.2562 -0.9219 -0.3524
 5439TIP3   OH237951   3.675   5.283   8.406  0.2665 -0.0521  0.2129
 5439TIP3    H137952   3.583   5.260   8.422  0.6219 -2.4346 -0.8398
 5439TIP3    H237953   3.714   5.285   8.493 -0.0011 -2.8286  0.4755
 5440TIP3   OH237954   3.661   4.335   8.797  0.2815  0.5543  0.1969
 5440TIP3    H137955   3.636   4.259   8.849 -2.0340  1.4282  0.4850
 5440TIP3    H237956   3.756   4.340   8.805  0.1097  0.6221  4.3597
 5441TIP3   OH237957   0.521   1.181   1.300 -0.4990 -0.1376  0.2023
 5441TIP3    H137958   0.460   1.167   1.227 -0.9939 -1.1273  0.7804
 5441TIP3    H237959   0.588   1.114   1.289  0.0695  0.4526  0.0103
 5442TIP3   OH237960   6.101   2.644   7.309  0.4070 -0.2493  0.0708
 5442TIP3    H137961   6.177   2.702   7.311 -0.2886  0.7147 -0.5538
 5442TIP3    H237962   6.113   2.592   7.229  1.0656 -1.0375  0.6665
 5443TIP3   OH237963   5.068   0.611   0.761  0.2833 -0.5686  0.0931
 5443TIP3    H137964   5.101   0.649   0.843 -0.1089 -1.3712  0.6337
 5443TIP3    H237965   5.142   0.559   0.728  1.2175  1.4559 -1.2209
 5444TIP3   OH237966   5.729   5.489   0.055  0.5231  0.1814  0.0926
 5444TIP3    H137967   5.790   5.479   0.128  2.3646 -0.8419 -1.5155
 5444TIP3    H237968   5.650   5.526   0.095  1.4426 -0.3796  2.5860
 5445TIP3   OH237969   6.837   3.646   1.837 -0.2337 -0.3350  0.5059
 5445TIP3    H137970   6.802   3.645   1.926 -2.2066  0.2036 -0.2288
 5445TIP3    H237971   6.807   3.564   1.798  0.1684 -0.3192  0.1514
 5446TIP3   OH237972   0.510   4.795   0.137  0.1977 -0.5540  0.4110
 5446TIP3    H137973   0.470   4.768   0.220 -0.7761  2.0981  0.8869
 5446TIP3    H237974   0.591   4.839   0.163  0.0984 -0.0814 -0.0671
 5447TIP3   OH237975   2.123   3.905   0.641 -1.0602  0.1900 -0.2799
 5447TIP3    H137976   2.037   3.864   0.629 -1.0300 -0.6456  1.8558
 5447TIP3    H237977   2.185   3.832   0.641 -0.3347  0.7777 -1.6826
 5448TIP3   OH237978   3.478   2.329   0.548  0.1520  0.6044  0.4139
 5448TIP3    H137979   3.440   2.282   0.622 -1.9132  0.5020 -0.6299
 5448TIP3    H237980   3.417   2.401   0.532  0.0286  0.0834 -1.7401
 5449TIP3   OH237981   0.929   4.265   1.832  0.6767 -0.0184  0.1707
 5449TIP3    H137982   1.006   4.277   1.777 -0.1894  0.9439 -0.8701
 5449TIP3    H237983   0.864   4.325   1.797 -0.0750  0.2854  1.9544
 5450TIP3   OH237984   4.158   2.632   0.062 -0.4884 -0.6099  0.4008
 5450TIP3    H137985   4.238   2.681   0.044 -0.8140  0.0519  0.7258
 5450TIP3    H237986   4.120   2.615  -0.024 -0.4960 -0.0764  0.2953
 5451TIP3   OH237987   4.243   4.048   1.547  0.5955 -0.2256  0.3859
 5451TIP3    H137988   4.194   4.005   1.617 -1.3100  2.1872  0.6358
 5451TIP3    H237989   4.311   4.098   1.593 -0.2888  0.8934  0.5065
 5452TIP3   OH237990   1.645   2.259   1.121  0.0835  0.1001  0.3275
 5452TIP3    H137991   1.616   2.282   1.209  1.4588 -0.2974  0.9219
 5452TIP3    H237992   1.721   2.202   1.136  0.2464 -0.0908 -1.1191
 5453TIP3   OH237993   3.217   2.084   7.556  0.1917  0.2362  0.4513
 5453TIP3    H137994   3.169   2.116   7.633  2.8892  2.2371  1.4322
 5453TIP3    H237995   3.261   2.161   7.521  1.7781 -1.2592 -1.0428
 5454TIP3   OH237996   0.655   0.563   8.425 -0.0206 -0.4816 -0.3813
 5454TIP3    H137997   0.672   0.485   8.371 -0.3403 -1.2625  0.6122
 5454TIP3    H237998   0.742   0.602   8.438  0.6099 -2.3309  1.5313
 5455TIP3   OH237999   3.219   3.036   2.389 -0.1884 -0.3213 -0.4001
 5455TIP3    H138000   3.202   2.945   2.414 -0.7053 -0.0080  0.4517
 5455TIP3    H238001   3.160   3.087   2.446  0.6163  0.5800 -0.3622
 5456TIP3   OH238002   1.961   5.113   0.003  0.1290  0.2880 -0.0836
 5456TIP3    H138003   1.869   5.104  -0.022 -0.1194 -1.4865  1.2991
 5456TIP3    H238004   1.960   5.180   0.072 -0.1534  0.1237  0.0735
 5457TIP3   OH238005   0.369   5.336   7.811 -0.2312 -0.0931  0.1423
 5457TIP3    H138006   0.426   5.404   7.845 -0.3905 -0.0085  0.2392
 5457TIP3    H238007   0.335   5.292   7.889 -2.7525  1.8311  0.2461
 5458TIP3   OH238008   5.724   4.137   0.026  0.8390  0.5221 -0.0669
 5458TIP3    H138009   5.770   4.156   0.108  0.3544  0.8372  0.1388
 5458TIP3    H238010   5.702   4.044   0.031 -0.7671  0.9062  0.9962
 5459TIP3   OH238011   1.041   4.608   1.577  0.0711 -0.0743 -0.4616
 5459TIP3    H138012   1.067   4.599   1.486 -2.1536 -2.3980 -0.9996
 5459TIP3    H238013   1.033   4.518   1.608 -0.3939  0.6448  1.6783
 5460TIP3   OH238014   0.310   5.077   0.484 -0.6588  0.5266 -0.7646
 5460TIP3    H138015   0.317   5.162   0.528 -0.1751 -0.0014  0.1808
 5460TIP3    H238016   0.382   5.026   0.518 -1.3157 -0.4911 -0.8604
 5461TIP3   OH238017   6.044   2.822   1.540  0.0566 -0.0928 -0.2298
 5461TIP3    H138018   5.988   2.885   1.492  1.2652  0.4501 -0.9791
 5461TIP3    H238019   5.983   2.756   1.572 -1.0856  0.7403 -0.5953
 5462TIP3   OH238020   2.429   2.455   0.642  0.3277 -0.1876  0.5776
 5462TIP3    H138021   2.359   2.489   0.698  0.5548 -1.4138  1.6388
 5462TIP3    H238022   2.475   2.392   0.696  3.4080  1.8121  0.5257
 5463TIP3   OH238023   3.324   1.663   7.653 -0.1247 -0.1726  0.3149
 5463TIP3    H138024   3.332   1.758   7.667 -1.9320  0.3593 -1.6942
 5463TIP3    H238025   3.278   1.632   7.730  0.7911  0.4961  1.1634
 5464TIP3   OH238026   2.081   5.688   1.158  0.3297  0.3125  0.0291
 5464TIP3    H138027   2.069   5.654   1.246  1.1023  1.6056  0.6680
 5464TIP3    H238028   2.045   5.777   1.161  0.0551  0.2571 -1.0604
 5465TIP3   OH238029   2.402   5.634   6.664  0.5725  0.6865  0.1681
 5465TIP3    H138030   2.443   5.559   6.709 -0.8083 -0.5958 -0.6020
 5465TIP3    H238031   2.476   5.689   6.639  1.4978  0.7204  2.6467
 5466TIP3   OH238032   0.364   4.704   2.125 -0.3431 -0.6350 -0.0977
 5466TIP3    H138033   0.371   4.799   2.132 -2.0693 -0.5194  0.7063
 5466TIP3    H238034   0.391   4.672   2.211 -1.1518 -0.7622  0.1113
 5467TIP3   OH238035   3.008   6.233   7.728  0.0304  0.2818  0.2440
 5467TIP3    H138036   2.997   6.328   7.736 -1.8120  0.0628  0.7683
 5467TIP3    H238037   3.034   6.205   7.816  1.4392  0.3736 -0.1204
 5468TIP3   OH238038   0.095   5.766   7.987 -0.4699  0.0289 -0.9137
 5468TIP3    H138039   0.124   5.674   7.990 -0.2149  0.1298 -0.0505
 5468TIP3    H238040   0.037   5.775   8.062  1.5926  1.2516  0.6348
 5469TIP3   OH238041   4.830   1.650   6.935 -0.4966  0.2348 -0.2684
 5469TIP3    H138042   4.913   1.690   6.908  0.8477 -2.1902  0.0085
 5469TIP3    H238043   4.816   1.579   6.872 -2.7016  0.9099 -0.6339
 5470TIP3   OH238044   4.944   3.839   0.259 -0.3180 -0.3315  0.1304
 5470TIP3    H138045   4.878   3.790   0.308 -1.9974  1.6818 -0.0169
 5470TIP3    H238046   5.014   3.855   0.323  0.3917 -2.9627  0.1345
 5471TIP3   OH238047   3.846   4.936   6.909 -0.2366 -0.1902 -0.9375
 5471TIP3    H138048   3.786   4.982   6.969  2.3157  1.6000  0.4479
 5471TIP3    H238049   3.848   4.846   6.942 -0.0712  0.3982  0.7862
 5472TIP3   OH238050   4.166   1.996   0.837  0.4114 -0.6544 -0.0223
 5472TIP3    H138051   4.229   2.028   0.901  1.8997 -2.0563 -0.7051
 5472TIP3    H238052   4.087   2.047   0.853  1.6778  1.1098  0.9265
 5473TIP3   OH238053   6.435   6.430   8.717 -0.7085  0.4537 -0.3273
 5473TIP3    H138054   6.488   6.465   8.787  0.3750  1.1034 -1.4338
 5473TIP3    H238055   6.398   6.507   8.673 -0.2345  0.1431 -1.3140
 5474TIP3   OH238056   5.944   3.565   0.511 -0.1438  0.5302 -0.2917
 5474TIP3    H138057   5.950   3.530   0.600 -0.7266 -2.0248 -1.1872
 5474TIP3    H238058   5.851   3.585   0.499 -0.5335 -1.5739 -1.1330
 5475TIP3   OH238059   0.023   0.272   8.441 -0.2850 -0.2832 -0.2191
 5475TIP3    H138060   0.111   0.306   8.456 -0.6284  0.5036  0.0350
 5475TIP3    H238061   0.035   0.177   8.432  0.6724 -0.1080 -0.9019
 5476TIP3   OH238062   1.647   0.305   7.845 -0.4355  0.1069 -0.8580
 5476TIP3    H138063   1.722   0.246   7.835 -0.5462  0.1290 -2.0062
 5476TIP3    H238064   1.577   0.262   7.796 -0.4749  1.2474 -1.8558
 5477TIP3   OH238065   2.787   5.981   6.946  0.1577  0.3091 -0.1502
 5477TIP3    H138066   2.765   6.031   6.867 -0.0182  0.1603 -0.1964
 5477TIP3    H238067   2.873   5.944   6.927  1.1043  2.0375  0.5841
 5478TIP3   OH238068   2.682   6.246   1.439  0.0557 -0.1652  0.1904
 5478TIP3    H138069   2.661   6.164   1.484  1.3748 -0.7143 -0.1585
 5478TIP3    H238070   2.628   6.243   1.360  0.0422 -0.6748  0.2117
 5479TIP3   OH238071   1.918   5.796   8.142  0.5478  0.3292 -0.1178
 5479TIP3    H138072   1.879   5.877   8.176 -1.4415  0.4785 -2.4834
 5479TIP3    H238073   1.991   5.825   8.088  0.8676  0.4069  0.3485
 5480TIP3   OH238074   2.601   5.131   0.554 -0.3035  0.7442 -0.1287
 5480TIP3    H138075   2.691   5.110   0.529  0.2140 -0.1633  2.2274
 5480TIP3    H238076   2.605   5.143   0.649 -2.6089  1.0129 -0.0157
 5481TIP3   OH238077   4.625   0.675   7.816  0.1136  0.4491 -0.0445
 5481TIP3    H138078   4.699   0.681   7.878 -1.4183  1.3453  1.8052
 5481TIP3    H238079   4.577   0.597   7.844  0.0087  0.2146 -0.8586
 5482TIP3   OH238080   4.881   2.659   2.479 -0.1151  0.1237 -0.0714
 5482TIP3    H138081   4.789   2.650   2.453 -0.5087  0.0174  1.2593
 5482TIP3    H238082   4.909   2.742   2.440 -1.0433  0.5862  0.2045
 5483TIP3   OH238083   1.961   1.596   0.368  0.5085  0.0367  0.2448
 5483TIP3    H138084   1.965   1.511   0.324  0.8158 -0.5027  1.2982
 5483TIP3    H238085   1.874   1.598   0.408  0.9355 -0.3140  1.2309
 5484TIP3   OH238086   3.378   2.464   0.869  0.3100 -0.5776  0.5029
 5484TIP3    H138087   3.395   2.498   0.956 -1.4897  0.4287  0.4905
 5484TIP3    H238088   3.367   2.541   0.814 -0.0155 -1.1912 -0.3219
 5485TIP3   OH238089   1.639   2.460   1.668  0.1493  0.2499 -0.5497
 5485TIP3    H138090   1.654   2.553   1.650 -2.9480  0.8557 -0.6131
 5485TIP3    H238091   1.693   2.442   1.745  3.1976  1.1951 -2.2841
 5486TIP3   OH238092   1.511   0.248   7.134 -0.2206  0.1407  0.3066
 5486TIP3    H138093   1.424   0.259   7.097 -0.7016 -0.3273  1.2534
 5486TIP3    H238094   1.571   0.259   7.060 -1.0297  1.3420 -0.1892
 5487TIP3   OH238095   5.661   2.750   0.075  0.7838  0.9730 -0.1578
 5487TIP3    H138096   5.744   2.797   0.062  1.1715  0.2440 -0.3882
 5487TIP3    H238097   5.661   2.683   0.007  0.7276 -0.0233  0.8032
 5488TIP3   OH238098   1.291   6.327   0.594 -0.2353 -0.1245  0.0565
 5488TIP3    H138099   1.252   6.365   0.514  0.1349  1.0308  0.4095
 5488TIP3    H238100   1.248   6.242   0.602 -0.2673 -0.2816 -1.3917
 5489TIP3   OH238101   1.762   4.035   7.888 -0.5700 -0.0716 -0.1722
 5489TIP3    H138102   1.752   4.108   7.949  1.4999  0.1229 -0.0029
 5489TIP3    H238103   1.673   4.018   7.857 -1.7467 -0.2762  2.9518
 5490TIP3   OH238104   0.922   1.340   7.001 -0.1165  0.4847  0.2850
 5490TIP3    H138105   0.983   1.379   7.063 -0.1367  1.0927 -0.0589
 5490TIP3    H238106   0.945   1.380   6.917 -2.5846  2.7425  0.5306
 5491TIP3   OH238107   2.561   3.872   0.795  0.7988 -0.1736  0.2117
 5491TIP3    H138108   2.569   3.961   0.829 -0.5137  0.2608 -0.5425
 5491TIP3    H238109   2.567   3.816   0.873 -3.1424  0.8225  1.4679
 5492TIP3   OH238110   3.150   2.466   7.776 -0.5475  0.1416  0.0794
 5492TIP3    H138111   3.126   2.375   7.756  0.1740 -1.0479  3.7435
 5492TIP3    H238112   3.088   2.492   7.843  0.8792  1.3604  0.9908
 5493TIP3   OH238113   0.325   5.178   1.569 -0.8152 -0.0280  0.3576
 5493TIP3    H138114   0.292   5.261   1.535 -0.9187  0.4450  1.5670
 5493TIP3    H238115   0.247   5.131   1.599 -0.6029  0.1840  1.2624
 5494TIP3   OH238116   1.475   1.453   1.032  0.3432  0.5299 -0.1086
 5494TIP3    H138117   1.457   1.443   1.126 -0.4207 -0.0711 -0.3067
 5494TIP3    H238118   1.460   1.366   0.996  0.4906  0.7939 -0.8137
 5495TIP3   OH238119   4.631   2.732   1.628  0.1707 -0.0521 -0.0287
 5495TIP3    H138120   4.703   2.670   1.618 -0.8173 -1.1894 -0.4377
 5495TIP3    H238121   4.610   2.759   1.539  0.4982  0.7742  0.1370
 5496TIP3   OH238122   5.302   6.549   0.987 -0.5763  0.2701 -0.3573
 5496TIP3    H138123   5.309   6.630   0.936 -1.3930  1.3385  1.1470
 5496TIP3    H238124   5.221   6.510   0.957 -0.6271  0.4535 -0.4665
 5497TIP3   OH238125   0.558   2.365   8.546 -0.2451 -0.6407  0.3768
 5497TIP3    H138126   0.524   2.432   8.606 -0.3859  0.8005 -1.2380
 5497TIP3    H238127   0.480   2.316   8.519 -0.6965  0.7812 -1.0564
 5498TIP3   OH238128   6.544   6.787   0.437  0.3973  0.2193 -0.0856
 5498TIP3    H138129   6.581   6.699   0.430 -0.7079 -0.1786 -1.3436
 5498TIP3    H238130   6.455   6.773   0.468 -0.4135  0.7066 -2.0298
 5499TIP3   OH238131   0.211   5.561   8.610 -0.8690 -0.2665 -0.2456
 5499TIP3    H138132   0.172   5.476   8.592 -1.7677  0.4785 -2.1250
 5499TIP3    H238133   0.242   5.555   8.700 -2.5998 -1.9374  0.2966
 5500TIP3   OH238134   2.119   0.987   0.572  0.3546 -0.3551 -0.4727
 5500TIP3    H138135   2.187   1.041   0.532  0.1917  0.2460  0.0397
 5500TIP3    H238136   2.110   0.912   0.514  0.9115 -0.0539 -0.9546
 5501TIP3   OH238137   2.868   2.227   8.647  0.2107  0.1422 -0.2381
 5501TIP3    H138138   2.789   2.274   8.621  0.4174  0.3154 -0.5625
 5501TIP3    H238139   2.837   2.158   8.706 -0.0247  1.1113  0.8098
 5502TIP3   OH238140   1.829   1.850   0.785 -0.3185  0.5158 -0.5586
 5502TIP3    H138141   1.760   1.837   0.851  0.7301 -1.3804  0.2488
 5502TIP3    H238142   1.891   1.909   0.828  0.9571 -1.6415  0.7201
 5503TIP3   OH238143   6.200   1.855   0.375 -0.1934  0.1002  0.1352
 5503TIP3    H138144   6.202   1.924   0.308 -0.2927  0.0513  0.0828
 5503TIP3    H238145   6.120   1.806   0.357  0.5944 -0.9294 -0.7314
 5504TIP3   OH238146   4.164   3.724   0.180 -0.0811 -0.0584  0.3800
 5504TIP3    H138147   4.117   3.752   0.101 -0.6958  1.4254  1.2128
 5504TIP3    H238148   4.223   3.797   0.199 -1.2881  0.5063  2.2982
 5505TIP3   OH238149   5.337   1.461   0.965  0.2451  0.2794  0.0889
 5505TIP3    H138150   5.382   1.427   0.888 -0.3695  0.9993 -0.6013
 5505TIP3    H238151   5.247   1.475   0.936 -0.5208 -1.3473  1.5090
 5506TIP3   OH238152   3.004   4.613   6.613  0.1087  0.4985  0.0196
 5506TIP3    H138153   3.085   4.578   6.577 -0.6291 -1.0568 -0.1927
 5506TIP3    H238154   2.953   4.536   6.640 -0.9070  1.4650  1.0247
 5507TIP3   OH238155   2.187   5.833   8.034 -0.1093  0.3138 -0.1866
 5507TIP3    H138156   2.253   5.765   8.015 -0.0947 -0.0160  0.9751
 5507TIP3    H238157   2.225   5.883   8.106 -0.3428  1.2739 -0.7106
 5508TIP3   OH238158   2.440   5.610   7.098  0.1249  0.7007 -0.1992
 5508TIP3    H138159   2.448   5.656   7.182 -1.2174  0.2971  0.1811
 5508TIP3    H238160   2.504   5.652   7.041 -0.8221  2.8293  0.2170
 5509TIP3   OH238161   1.387   1.816   0.522 -0.0974  1.0488 -0.0009
 5509TIP3    H138162   1.326   1.798   0.594  0.3374  1.0239  0.3606
 5509TIP3    H238163   1.474   1.810   0.562  0.2931 -1.7153 -1.0907
 5510TIP3   OH238164   3.384   6.063   8.809  1.2060  0.0791  0.2201
 5510TIP3    H138165   3.429   5.979   8.800 -1.1875 -1.1645 -1.2454
 5510TIP3    H238166   3.431   6.108   8.878  2.0660 -2.8332  1.7075
 5511TIP3   OH238167   4.095   3.496   0.026  0.6229  0.2544  0.1205
 5511TIP3    H138168   4.105   3.447   0.107  1.3765  0.8452  0.4053
 5511TIP3    H238169   4.173   3.552   0.022 -1.0209  2.7534  0.7535
 5512TIP3   OH238170   5.027   5.977   0.634  0.0666  0.0248  0.0041
 5512TIP3    H138171   4.943   6.008   0.599 -0.0965  0.4413  0.7360
 5512TIP3    H238172   5.091   6.039   0.599  0.4964 -1.8011 -2.7486
 5513TIP3   OH238173   3.419   1.446   1.325 -0.2842  0.0110  0.0008
 5513TIP3    H138174   3.412   1.442   1.420 -0.1798 -3.2902  0.0092
 5513TIP3    H238175   3.514   1.450   1.308 -0.3228  1.1884  0.0052
 5514TIP3   OH238176   4.063   4.635   1.763 -0.0374 -0.2500 -0.4270
 5514TIP3    H138177   4.014   4.676   1.835 -1.2355 -0.4081 -1.1269
 5514TIP3    H238178   4.045   4.541   1.772 -1.6789 -0.1156 -1.9747
 5515TIP3   OH238179   6.471   1.437   8.795  0.4276 -0.4510 -0.6014
 5515TIP3    H138180   6.423   1.363   8.758 -0.0110 -0.3071 -0.3260
 5515TIP3    H238181   6.542   1.453   8.733 -0.1391 -0.3790 -1.2429
 5516TIP3   OH238182   3.777   6.673   8.362  0.0047  0.4200  0.7425
 5516TIP3    H138183   3.785   6.757   8.407 -1.6789  0.6732  0.6527
 5516TIP3    H238184   3.683   6.655   8.363  0.2196 -0.8788 -0.2995
 5517TIP3   OH238185   1.216   6.814   1.347 -0.4999 -0.1326  0.1287
 5517TIP3    H138186   1.223   6.891   1.291  2.6285 -1.1757 -1.1393
 5517TIP3    H238187   1.129   6.778   1.329 -1.1828  1.8975 -0.8598
 5518TIP3   OH238188   0.814   2.341   0.546  0.9425 -0.8795 -0.4564
 5518TIP3    H138189   0.814   2.398   0.623 -1.1802  0.1952 -1.1635
 5518TIP3    H238190   0.737   2.286   0.557  0.8872 -1.0395 -1.5710
 5519TIP3   OH238191   5.826   2.154   8.407 -0.4045 -0.2767 -0.3547
 5519TIP3    H138192   5.920   2.169   8.403 -0.2966  0.0080  1.9571
 5519TIP3    H238193   5.805   2.111   8.324  1.2508  2.1349 -2.1777
 5520TIP3   OH238194   4.611   4.908   2.207  0.5273  0.4924 -0.2491
 5520TIP3    H138195   4.672   4.965   2.159  1.3867 -0.3909 -0.2478
 5520TIP3    H238196   4.607   4.828   2.155  1.5850 -0.5433  1.1643
 5521TIP3   OH238197   6.264   1.606   7.708  0.2145  0.8396  0.4071
 5521TIP3    H138198   6.217   1.652   7.639 -1.0654  2.3616  2.1674
 5521TIP3    H238199   6.353   1.639   7.703 -0.1400  1.8099  0.1610
 5522TIP3   OH238200   1.396   2.650   7.344 -0.3965  0.6191  0.1080
 5522TIP3    H138201   1.437   2.689   7.266  0.1321  1.3554  0.7430
 5522TIP3    H238202   1.454   2.578   7.368 -0.2523  0.7513  0.1563
 5523TIP3   OH238203   4.727   5.313   0.797  0.0360  0.2233 -0.4122
 5523TIP3    H138204   4.710   5.291   0.889 -0.4097  0.2292 -0.4953
 5523TIP3    H238205   4.693   5.238   0.748 -3.5498  1.9889 -0.8749
 5524TIP3   OH238206   6.357   1.674   0.037  0.0703  0.4009 -0.1973
 5524TIP3    H138207   6.441   1.716   0.057 -0.2676  0.6397  0.7571
 5524TIP3    H238208   6.381   1.591  -0.004  0.7555  1.1443 -1.3824
 5525TIP3   OH238209   1.815   3.983   7.599 -0.1883 -0.1506 -0.6395
 5525TIP3    H138210   1.849   4.073   7.600 -2.5354  0.8068  0.3970
 5525TIP3    H238211   1.751   3.981   7.670 -1.8130 -1.9939 -2.0478
 5526TIP3   OH238212   2.923   0.272   0.833  0.1272 -0.3130  0.2022
 5526TIP3    H138213   2.959   0.357   0.860  0.7765 -0.9055  1.2610
 5526TIP3    H238214   2.834   0.293   0.804  0.6316  0.8785 -0.5780
 5527TIP3   OH238215   0.576   5.761   7.729 -0.2222 -0.1938  0.0282
 5527TIP3    H138216   0.503   5.781   7.671  0.1529  2.6158  0.3618
 5527TIP3    H238217   0.653   5.765   7.672 -0.2542 -3.8362 -0.4679
 5528TIP3   OH238218   2.816   6.029   1.768 -0.4027 -0.2331  0.3811
 5528TIP3    H138219   2.879   6.101   1.763 -0.2067 -0.4633 -0.6625
 5528TIP3    H238220   2.813   6.007   1.862  2.8573 -1.7174  0.2896
 5529TIP3   OH238221   6.283   3.246   1.761 -0.1982 -0.1077  0.2411
 5529TIP3    H138222   6.200   3.202   1.746  0.3972 -1.5494  0.9955
 5529TIP3    H238223   6.302   3.290   1.678 -2.1940  1.1292  0.3972
 5530TIP3   OH238224   6.288   4.300   7.872  0.7762  0.1115  0.5494
 5530TIP3    H138225   6.240   4.340   7.944  0.9600  1.5660 -0.0863
 5530TIP3    H238226   6.367   4.264   7.913 -0.6762 -2.1121  1.5663
 5531TIP3   OH238227   0.001   0.122   1.822 -0.4899 -0.7461 -0.2632
 5531TIP3    H138228  -0.085   0.137   1.862 -0.0151 -1.0086  0.8839
 5531TIP3    H238229  -0.018   0.111   1.728 -1.6826 -0.6324 -0.0500
 5532TIP3   OH238230   1.960   1.223   7.841  0.1769  0.5874  0.0263
 5532TIP3    H138231   1.899   1.269   7.784 -0.4620  0.7929  0.8650
 5532TIP3    H238232   1.936   1.131   7.833 -1.6443  0.8198  1.9008
 5533TIP3   OH238233   6.043   4.343   8.451 -0.7668  0.1067  0.3357
 5533TIP3    H138234   5.973   4.308   8.395 -0.4917 -1.7956  1.0992
 5533TIP3    H238235   6.122   4.337   8.398 -0.4926 -1.7705  0.8960
 5534TIP3   OH238236   1.649   6.760   7.233 -0.4013 -0.3451  0.3546
 5534TIP3    H138237   1.677   6.784   7.322  2.5715 -3.2914  0.3969
 5534TIP3    H238238   1.731   6.742   7.187 -1.9770 -0.8044 -2.4289
 5535TIP3   OH238239   1.963   2.081   0.928  0.5476  0.1763  0.6599
 5535TIP3    H138240   1.992   2.010   0.985  1.1407 -0.2856 -0.1877
 5535TIP3    H238241   2.023   2.077   0.853 -0.8963  0.0421 -0.5268
 5536TIP3   OH238242   0.042   4.548   0.700 -0.2051 -0.0663  0.5606
 5536TIP3    H138243   0.068   4.598   0.622  1.6524  0.2854  1.3558
 5536TIP3    H238244  -0.017   4.480   0.666  0.5798  0.0588 -1.1547
 5537TIP3   OH238245   6.242   2.778   2.282  0.2993  0.2752 -0.7368
 5537TIP3    H138246   6.287   2.720   2.221  0.3949  0.8565 -1.2184
 5537TIP3    H238247   6.311   2.831   2.321  0.7715 -2.3704  2.4791
 5538TIP3   OH238248   4.464   0.466   7.883 -0.2465 -0.1721  0.0649
 5538TIP3    H138249   4.490   0.398   7.820  2.4674  0.3901  0.4766
 5538TIP3    H238250   4.468   0.423   7.968 -1.5714 -0.2847  0.0884
 5539TIP3   OH238251   1.963   3.247   8.335  0.4123  0.9899  0.1186
 5539TIP3    H138252   1.903   3.192   8.285  1.6935 -1.0304  0.6748
 5539TIP3    H238253   1.920   3.259   8.420  0.5676 -0.0884  0.3666
 5540TIP3   OH238254   3.099   3.959   0.665  0.3802 -0.1823  0.0295
 5540TIP3    H138255   3.022   4.001   0.701 -0.2797  0.4513 -1.9922
 5540TIP3    H238256   3.146   3.924   0.742 -1.7805 -0.4237  1.3158
 5541TIP3   OH238257   5.792   3.370   1.866 -0.1425  0.8676  0.5002
 5541TIP3    H138258   5.720   3.309   1.882  0.2938  0.6036  1.5776
 5541TIP3    H238259   5.862   3.339   1.923  0.9535  0.9154 -0.7798
 5542TIP3   OH238260   0.905   1.754   1.145 -0.0479 -0.0181 -0.2614
 5542TIP3    H138261   0.963   1.705   1.086  1.5180  2.0750 -0.5716
 5542TIP3    H238262   0.959   1.770   1.223 -0.3704  1.5183 -0.3355
 5543TIP3   OH238263   6.734   6.500   0.918 -0.0716 -0.2714 -0.3872
 5543TIP3    H138264   6.684   6.534   0.843  0.0129  1.0680  0.1418
 5543TIP3    H238265   6.714   6.407   0.919 -1.9000  0.0820 -0.7087
 5544TIP3   OH238266   0.073   4.419   1.904  0.1745 -0.1424  0.1518
 5544TIP3    H138267   0.069   4.478   1.979  0.5143 -0.9498  0.8222
 5544TIP3    H238268   0.069   4.476   1.828  0.6391  0.7515  0.7864
 5545TIP3   OH238269   2.244   3.854   8.581 -0.1440  0.2139  0.3523
 5545TIP3    H138270   2.307   3.782   8.586  1.2957  1.4574  0.7998
 5545TIP3    H238271   2.225   3.862   8.487 -0.4568 -0.8084  0.3038
 5546TIP3   OH238272   6.037   6.386   8.499 -0.2579 -0.2087 -0.0852
 5546TIP3    H138273   6.017   6.412   8.589 -0.8385  1.6898 -0.7011
 5546TIP3    H238274   5.955   6.352   8.465  0.2295 -1.9377  0.3892
 5547TIP3   OH238275   0.624   5.565   1.232 -0.5320 -0.1356 -0.4892
 5547TIP3    H138276   0.684   5.637   1.253  0.6936 -1.4882  0.9215
 5547TIP3    H238277   0.668   5.517   1.161  0.1610 -1.1912  0.6182
 5548TIP3   OH238278   6.563   0.699   8.163 -0.0484 -0.0978 -0.1875
 5548TIP3    H138279   6.614   0.630   8.203  0.7783  1.5034  1.6880
 5548TIP3    H238280   6.623   0.774   8.159 -1.3190  0.9259 -0.8303
 5549TIP3   OH238281   4.303   6.375   0.558 -0.1141 -0.3620  0.2981
 5549TIP3    H138282   4.367   6.383   0.628  0.2816 -1.4371  0.0697
 5549TIP3    H238283   4.276   6.283   0.559 -2.2990  0.2302  0.9340
 5550TIP3   OH238284   4.571   5.493   2.024  0.6207 -0.9546  0.3296
 5550TIP3    H138285   4.629   5.422   2.051  1.4147 -0.4541  0.0065
 5550TIP3    H238286   4.490   5.450   1.999  1.2523 -1.7999 -0.3280
 5551TIP3   OH238287   6.172   2.825   2.586  0.0328 -0.4099  0.2530
 5551TIP3    H138288   6.188   2.919   2.595  0.0313 -0.4209  0.3758
 5551TIP3    H238289   6.221   2.799   2.508 -0.5992 -0.1571 -0.2369
 5552TIP3   OH238290   2.715   1.590   0.226 -0.7220 -0.3606  0.3719
 5552TIP3    H138291   2.641   1.545   0.186  0.3636  0.1948 -2.5072
 5552TIP3    H238292   2.792   1.542   0.195  0.3371  1.9168 -0.7809
 5553TIP3   OH238293   3.142   1.867   0.840 -0.2078  0.2888  0.1893
 5553TIP3    H138294   3.234   1.865   0.867 -0.4790 -0.5547  1.1314
 5553TIP3    H238295   3.126   1.959   0.817  0.8830  0.4326 -0.0708
 5554TIP3   OH238296   3.566   6.325   8.306  0.2330 -0.2436  0.7540
 5554TIP3    H138297   3.574   6.343   8.400  0.3414 -0.5989  0.8141
 5554TIP3    H238298   3.503   6.253   8.301  0.3214 -0.3070  0.5589
 5555TIP3   OH238299   1.778   1.226   1.936  0.3816 -0.1916 -0.4506
 5555TIP3    H138300   1.775   1.194   2.026  1.9448  1.0062  0.0833
 5555TIP3    H238301   1.807   1.151   1.885  0.5864 -0.5857  0.2331
 5556TIP3   OH238302   1.942   5.345   7.815  0.6613  0.9122  0.1072
 5556TIP3    H138303   1.929   5.401   7.892 -0.5319  1.8754 -0.7575
 5556TIP3    H238304   1.855   5.308   7.797  1.0963  0.0564 -0.3174
 5557TIP3   OH238305   5.758   5.668   2.831  0.2058  0.1266 -0.5337
 5557TIP3    H138306   5.788   5.738   2.774 -1.3138  0.0740 -1.4236
 5557TIP3    H238307   5.839   5.634   2.871  1.2988  0.3371 -2.4340
 5558TIP3   OH238308   2.129   6.191   8.182  0.5847 -0.4219 -0.0534
 5558TIP3    H138309   2.178   6.143   8.248  0.4467 -0.0804  0.2998
 5558TIP3    H238310   2.133   6.282   8.210 -0.6209 -0.4411  0.2159
 5559TIP3   OH238311   0.604   3.791   0.257  0.1230  0.5101 -0.0545
 5559TIP3    H138312   0.569   3.857   0.316  0.9053  1.0534 -0.1845
 5559TIP3    H238313   0.695   3.779   0.284  0.7267  1.3142 -1.5836
 5560TIP3   OH238314   2.978   4.400   1.833  0.3522 -0.1024 -0.3766
 5560TIP3    H138315   2.906   4.459   1.813 -0.0940 -0.7452 -0.6961
 5560TIP3    H238316   3.055   4.443   1.796 -0.0037  0.1539 -0.8300
 5561TIP3   OH238317   2.043   4.026   6.919 -0.1326 -0.6949  0.6695
 5561TIP3    H138318   2.087   4.054   6.999  1.0996  2.9196 -1.0160
 5561TIP3    H238319   2.112   3.984   6.867  0.8479  2.2627 -0.7172
 5562TIP3   OH238320   4.548   1.389   7.589  0.4222 -0.0466  0.3180
 5562TIP3    H138321   4.556   1.388   7.494 -1.9225 -3.3178 -0.0019
 5562TIP3    H238322   4.592   1.309   7.618 -3.3167 -1.9282  1.3351
 5563TIP3   OH238323   1.726   1.198   7.665  0.2172 -0.7781 -0.0471
 5563TIP3    H138324   1.707   1.121   7.611 -0.4836  0.4063 -1.5823
 5563TIP3    H238325   1.760   1.262   7.603  1.1048  0.0651  1.2582
 5564TIP3   OH238326   6.295   4.783   8.088 -0.0326 -0.2245  0.2600
 5564TIP3    H138327   6.291   4.709   8.028  2.3472  1.1498 -1.8213
 5564TIP3    H238328   6.388   4.794   8.107 -0.3584  1.8281  0.9597
 5565TIP3   OH238329   0.268   3.256   6.554 -0.2083  0.2304 -0.1791
 5565TIP3    H138330   0.188   3.204   6.546 -1.0701  1.4497  0.3976
 5565TIP3    H238331   0.279   3.296   6.467 -0.5998  0.6027 -0.0573
 5566TIP3   OH238332   5.144   6.401   1.948 -0.1199  0.4540 -0.1503
 5566TIP3    H138333   5.207   6.463   1.912  0.7216 -1.6715 -2.6669
 5566TIP3    H238334   5.127   6.433   2.037  2.7906  2.3422 -0.1363
 5567TIP3   OH238335   0.873   0.626   1.630 -0.2719  0.3412 -0.2253
 5567TIP3    H138336   0.903   0.534   1.628  0.0653  0.4256  0.6143
 5567TIP3    H238337   0.804   0.628   1.696  1.0877  1.0671  1.2415
 5568TIP3   OH238338   1.612   3.254   7.322 -0.2642  0.4506 -0.0192
 5568TIP3    H138339   1.684   3.245   7.385  0.7614  1.9705 -0.9204
 5568TIP3    H238340   1.652   3.294   7.245 -1.6847 -0.5161 -1.3163
 5569TIP3   OH238341   1.513   6.163   0.872  0.1684 -0.4347  0.3852
 5569TIP3    H138342   1.519   6.256   0.896 -0.4952 -0.0176 -0.9801
 5569TIP3    H238343   1.604   6.137   0.854  0.6050 -0.5709  2.4809
 5570TIP3   OH238344   4.894   1.753   7.748  0.3740  0.0440 -0.3170
 5570TIP3    H138345   4.939   1.681   7.792 -2.2676 -1.4412  0.1394
 5570TIP3    H238346   4.822   1.712   7.701 -1.4125  2.3805  0.2017
 5571TIP3   OH238347   5.836   2.888   8.264  0.1363  0.2592  0.1535
 5571TIP3    H138348   5.753   2.919   8.226 -0.0746 -0.3584  0.1000
 5571TIP3    H238349   5.809   2.825   8.331  0.5185  1.0381  1.0662
 5572TIP3   OH238350   6.800   3.928   7.599 -0.1991  0.1275  0.6669
 5572TIP3    H138351   6.881   3.923   7.549 -0.2866  1.4637  0.3433
 5572TIP3    H238352   6.827   3.943   7.689 -0.0822  0.0213  0.6494
 5573TIP3   OH238353   4.110   3.048   0.040 -0.0187 -0.6329  1.0771
 5573TIP3    H138354   4.198   3.040   0.002  0.0347 -2.3945  1.4671
 5573TIP3    H238355   4.080   3.134   0.013  0.7350 -1.0645 -1.4060
 5574TIP3   OH238356   6.678   5.216   7.408 -0.0740  0.4690  0.3098
 5574TIP3    H138357   6.755   5.266   7.436  0.5299 -0.5911  0.5860
 5574TIP3    H238358   6.624   5.208   7.486  1.0589 -1.4877  0.9617
 5575TIP3   OH238359   6.119   1.445   0.160  0.0849  0.6497  0.3506
 5575TIP3    H138360   6.197   1.470   0.111 -0.8885 -0.1548 -1.7821
 5575TIP3    H238361   6.084   1.370   0.111 -1.6331  0.5471  1.6444
 5576TIP3   OH238362   2.765   4.551   1.729 -0.2059 -0.2910  0.0864
 5576TIP3    H138363   2.775   4.637   1.771  2.2487 -0.9394  1.0249
 5576TIP3    H238364   2.771   4.570   1.635  0.4097  0.5575  0.2816
 5577TIP3   OH238365   0.877   1.921   0.350  0.3196  0.1823  0.4195
 5577TIP3    H138366   0.807   1.962   0.300  1.1941  0.6584 -0.4532
 5577TIP3    H238367   0.837   1.898   0.434 -1.1920 -0.6471 -0.4780
 5578TIP3   OH238368   1.299   3.092   2.061  0.3810  0.4647 -0.2966
 5578TIP3    H138369   1.249   3.138   2.129 -0.6392  1.1394 -1.4519
 5578TIP3    H238370   1.277   3.000   2.074 -0.2435  0.6415 -0.0284
 5579TIP3   OH238371   3.731   3.600   7.199 -0.4410 -0.3896 -0.2553
 5579TIP3    H138372   3.678   3.679   7.212 -0.7704 -0.6436 -0.0592
 5579TIP3    H238373   3.693   3.558   7.122 -1.2649 -1.1721  0.5523
 5580TIP3   OH238374   4.031   2.380   6.504 -0.2392  0.5891 -0.2570
 5580TIP3    H138375   4.103   2.322   6.478 -2.0326 -1.4197 -1.0644
 5580TIP3    H238376   4.021   2.441   6.432  0.5352  0.7625 -0.2187
 5581TIP3   OH238377   1.170   4.281   1.694 -0.3444 -0.2761  0.2817
 5581TIP3    H138378   1.223   4.356   1.721 -0.4795 -0.5313  1.3026
 5581TIP3    H238379   1.212   4.249   1.615  1.4888 -0.9237  1.4504
 5582TIP3   OH238380   2.418   4.153   1.520  0.5927  0.1987 -0.2876
 5582TIP3    H138381   2.511   4.167   1.501  0.7332  2.6771  1.8276
 5582TIP3    H238382   2.373   4.209   1.457  0.5965  0.2557 -0.2394
 5583TIP3   OH238383   6.509   5.512   1.224  0.2465  0.3928 -0.4835
 5583TIP3    H138384   6.433   5.481   1.273  0.3569  0.6143 -0.1729
 5583TIP3    H238385   6.510   5.458   1.145  1.0085 -1.1023  0.4956
 5584TIP3   OH238386   5.854   4.204   8.322  0.2676 -0.1911 -0.2466
 5584TIP3    H138387   5.777   4.204   8.378 -0.7624  0.3199 -1.5981
 5584TIP3    H238388   5.819   4.189   8.234  1.8194 -0.9826 -0.7676
 5585TIP3   OH238389   1.301   2.616   8.050 -0.0180 -0.6222  0.1285
 5585TIP3    H138390   1.343   2.701   8.036 -0.3306 -0.5856 -0.6167
 5585TIP3    H238391   1.323   2.593   8.140  1.1505 -0.3466 -0.0724
 5586TIP3   OH238392   0.220   2.745   7.500  0.4724 -0.2452 -0.3544
 5586TIP3    H138393   0.219   2.749   7.404  0.2831  1.6468 -0.3018
 5586TIP3    H238394   0.297   2.691   7.520  1.2549  0.3721 -1.5524
 5587TIP3   OH238395   2.780   1.313   6.969  0.2224 -0.0808  0.2215
 5587TIP3    H138396   2.870   1.346   6.970  0.7716 -1.5097  0.3052
 5587TIP3    H238397   2.739   1.353   7.046  0.9561  0.1282  0.5100
 5588TIP3   OH238398   3.988   5.053   7.915 -0.0471  0.2421  0.6716
 5588TIP3    H138399   3.945   5.137   7.900 -0.5474  0.0213  0.8550
 5588TIP3    H238400   4.071   5.075   7.956  0.4160  0.7341 -0.4746
 5589TIP3   OH238401   0.006   6.110   1.765 -0.5256  0.2266 -0.0289
 5589TIP3    H138402   0.062   6.084   1.838 -1.2455  2.5951  1.4960
 5589TIP3    H238403   0.054   6.083   1.687  1.7731  0.3173  1.2469
 5590TIP3   OH238404   4.007   2.720   8.661 -0.7659 -0.2177 -0.4287
 5590TIP3    H138405   3.952   2.784   8.707  0.1833 -0.9459  1.8556
 5590TIP3    H238406   4.065   2.773   8.607 -0.5204  0.8334  0.8261
 5591TIP3   OH238407   6.756   6.592   1.186 -0.2960  0.1128  0.4938
 5591TIP3    H138408   6.689   6.659   1.198 -0.4872  0.2881 -1.2095
 5591TIP3    H238409   6.749   6.568   1.093  0.2201 -1.7862  0.8978
 5592TIP3   OH238410   5.924   0.964   1.329  0.2126 -0.1778 -0.6019
 5592TIP3    H138411   5.873   1.037   1.364  0.3847 -1.6223  3.1304
 5592TIP3    H238412   5.864   0.889   1.330  1.2472 -1.0371  0.0030
 5593TIP3   OH238413   4.538   2.276   7.667 -0.7680 -0.0838  0.0853
 5593TIP3    H138414   4.612   2.336   7.663 -0.8592  0.0124 -0.1784
 5593TIP3    H238415   4.521   2.265   7.761 -0.3662 -0.1755  0.1498
 5594TIP3   OH238416   0.222   3.800   7.031  0.2939  0.2205  0.0355
 5594TIP3    H138417   0.150   3.830   6.976  0.7711  1.5695  0.1159
 5594TIP3    H238418   0.298   3.847   6.998  1.3173 -1.7193 -0.5403
 5595TIP3   OH238419   3.543   6.599   1.967 -0.6112  0.0954  0.0568
 5595TIP3    H138420   3.498   6.677   1.999  2.2615  1.1577  1.9703
 5595TIP3    H238421   3.563   6.549   2.046  2.4212  0.2941 -0.4574
 5596TIP3   OH238422   1.280   3.991   8.052  0.8005 -0.1697 -0.1998
 5596TIP3    H138423   1.250   3.945   8.130  0.3946  0.8361  0.2544
 5596TIP3    H238424   1.207   3.983   7.991  0.9046 -0.4933 -0.2860
 5597TIP3   OH238425   6.698   1.994   7.532 -0.0010 -0.2150 -0.0097
 5597TIP3    H138426   6.686   1.904   7.563 -0.8752 -0.6640 -1.5689
 5597TIP3    H238427   6.689   2.048   7.611 -0.9430 -1.3807  0.7168
 5598TIP3   OH238428   2.211   4.835   8.313  0.1955 -0.7044 -0.1555
 5598TIP3    H138429   2.303   4.859   8.324  0.1582  0.2930 -1.7116
 5598TIP3    H238430   2.209   4.784   8.232 -0.5356 -1.3204  0.2391
 5599TIP3   OH238431   3.719   1.398   2.393 -0.0982 -0.1108 -0.0923
 5599TIP3    H138432   3.752   1.369   2.308 -0.2178 -2.0266  0.4577
 5599TIP3    H238433   3.785   1.460   2.424  0.2678  0.1347 -1.2962
 5600TIP3   OH238434   2.692   6.661   7.396 -0.1567  0.0908  0.2136
 5600TIP3    H138435   2.686   6.666   7.300  0.3849  0.8810  0.2161
 5600TIP3    H238436   2.765   6.602   7.412  0.9294  1.3656  0.1148
 5601TIP3   OH238437   4.022   0.877   0.781 -0.7371 -0.0619  0.0243
 5601TIP3    H138438   4.111   0.876   0.746 -1.1107 -1.4992 -0.9843
 5601TIP3    H238439   4.032   0.853   0.873 -0.0353  0.3712  0.0663
 5602TIP3   OH238440   2.848   0.584   2.482 -0.2551  0.6726 -0.0547
 5602TIP3    H138441   2.796   0.563   2.560 -1.1315  0.0381 -0.7941
 5602TIP3    H238442   2.898   0.661   2.508 -0.3387  0.3271  1.2238
 5603TIP3   OH238443   4.173   6.448   8.367 -0.2649 -0.1119  0.1375
 5603TIP3    H138444   4.202   6.441   8.458  2.0283  0.1718 -0.4898
 5603TIP3    H238445   4.220   6.378   8.322 -0.6928  0.3000 -0.9651
 5604TIP3   OH238446   3.705   6.095   7.285 -0.1950  0.1822  0.4299
 5604TIP3    H138447   3.733   6.113   7.196  1.2866  1.6723  1.1339
 5604TIP3    H238448   3.671   6.179   7.317  0.8525  0.1325  1.7726
 5605TIP3   OH238449   0.486   0.253   0.949 -0.5560  0.2767  0.2190
 5605TIP3    H138450   0.550   0.278   1.017 -2.0483  0.5359  1.5769
 5605TIP3    H238451   0.526   0.178   0.906  0.4639  0.1230  1.3695
 5606TIP3   OH238452   1.346   5.533   1.388 -0.8786  0.0379  0.0111
 5606TIP3    H138453   1.313   5.445   1.366 -1.7011  0.6868 -1.5305
 5606TIP3    H238454   1.439   5.529   1.366 -0.6505 -0.7704  1.0421
 5607TIP3   OH238455   1.882   3.574   0.278 -0.3418  0.0888 -0.1735
 5607TIP3    H138456   1.923   3.658   0.298  2.5662 -1.3082  0.3222
 5607TIP3    H238457   1.862   3.536   0.364 -0.8947 -0.0702 -0.3691
 5608TIP3   OH238458   2.250   1.997   0.483 -0.0359 -0.2001 -0.1967
 5608TIP3    H138459   2.269   2.020   0.392 -0.6537 -2.7912 -1.0605
 5608TIP3    H238460   2.323   1.942   0.511  1.4576  2.5802  1.8226
 5609TIP3   OH238461   4.894   0.738   1.288 -0.2693  0.4851 -0.0066
 5609TIP3    H138462   4.945   0.659   1.269 -0.8362  0.0052  0.4409
 5609TIP3    H238463   4.830   0.743   1.216 -0.3282  0.4562  0.0436
 5610TIP3   OH238464   3.919   4.006   7.679 -0.3203 -0.3304  0.0523
 5610TIP3    H138465   3.877   4.066   7.740 -0.9221  0.6125 -1.2434
 5610TIP3    H238466   3.850   3.980   7.618  0.6356  0.2049 -1.3342
 5611TIP3   OH238467   1.718   6.553   7.688 -0.4974  0.2435  0.2950
 5611TIP3    H138468   1.802   6.543   7.643  0.0662 -1.6896  1.6360
 5611TIP3    H238469   1.739   6.595   7.771 -0.6757 -0.9979  1.0000
 5612TIP3   OH238470   3.817   3.038   1.122  0.0856  0.4260  0.5778
 5612TIP3    H138471   3.846   3.006   1.207 -1.9357 -0.4412  1.0084
 5612TIP3    H238472   3.788   2.960   1.075  0.5394  0.9717 -0.6695
 5613TIP3   OH238473   5.584   0.234   1.553  0.2319 -0.2629 -0.1802
 5613TIP3    H138474   5.595   0.165   1.619  0.0026  1.4780  1.8136
 5613TIP3    H238475   5.673   0.265   1.536  0.2426 -0.2924 -0.1782
 5614TIP3   OH238476   1.434   2.190   1.716 -0.2782 -0.2371  0.4266
 5614TIP3    H138477   1.428   2.230   1.802 -0.7678 -0.1748  0.3652
 5614TIP3    H238478   1.528   2.183   1.699 -0.1869  0.4167  0.6510
 5615TIP3   OH238479   2.477   6.192   0.275  0.1980  0.2602  0.1386
 5615TIP3    H138480   2.442   6.123   0.220  1.2003 -0.4052  0.3188
 5615TIP3    H238481   2.571   6.176   0.278  0.7266  2.5930 -1.1586
 5616TIP3   OH238482   0.861   4.754   1.701  0.0406 -0.4643  0.4749
 5616TIP3    H138483   0.787   4.709   1.660 -0.3198  0.7811 -0.2985
 5616TIP3    H238484   0.938   4.706   1.672 -0.3593 -0.8052 -0.0301
 5617TIP3   OH238485   0.546   6.351   7.196  0.0923  0.4380  0.3715
 5617TIP3    H138486   0.503   6.427   7.157 -1.5751  1.4806  3.8763
 5617TIP3    H238487   0.475   6.290   7.216  1.0102 -0.5708  0.6811
 5618TIP3   OH238488   4.259   6.090   0.515 -0.7884  0.0363  0.5982
 5618TIP3    H138489   4.328   6.027   0.494  0.8349  1.8431  0.2334
 5618TIP3    H238490   4.206   6.094   0.436 -0.9472 -0.9120  0.6505
 5619TIP3   OH238491   2.395   2.486   1.566  0.6719 -0.2356 -0.2930
 5619TIP3    H138492   2.456   2.508   1.495 -0.8237 -3.2067 -2.7283
 5619TIP3    H238493   2.308   2.494   1.527 -0.2357 -1.6614  1.2791
 5620TIP3   OH238494   2.783   2.879   8.049 -0.4156 -0.4938 -0.4954
 5620TIP3    H138495   2.693   2.846   8.040 -0.2950 -0.2915 -3.3203
 5620TIP3    H238496   2.781   2.966   8.010  0.8339 -0.0733  0.3160
 5621TIP3   OH238497   2.397   1.019   0.010 -0.6624 -0.2631 -0.0591
 5621TIP3    H138498   2.433   1.080  -0.054 -0.4794 -1.1224 -0.8122
 5621TIP3    H238499   2.319   0.983  -0.033 -0.8319 -0.4760  0.4168
 5622TIP3   OH238500   6.209   0.076   0.909 -0.1811  0.1813 -0.6672
 5622TIP3    H138501   6.152  -0.000   0.921 -0.7131  0.8732  1.5609
 5622TIP3    H238502   6.149   0.150   0.905  0.4786  0.8437  0.9523
 5623TIP3   OH238503   6.396   1.178   7.390  0.6717  0.0453 -0.0760
 5623TIP3    H138504   6.356   1.109   7.443 -2.0856  0.5914 -1.2479
 5623TIP3    H238505   6.356   1.167   7.303 -0.3747  3.3974 -0.1603
 5624TIP3   OH238506   3.281   3.498   0.008 -0.1200 -0.4481  0.8452
 5624TIP3    H138507   3.212   3.559   0.032  1.7749  1.2399  2.4546
 5624TIP3    H238508   3.334   3.546  -0.056  0.2814 -1.1743  0.6263
 5625TIP3   OH238509   4.543   5.033   7.994 -0.5551  0.0718 -0.1150
 5625TIP3    H138510   4.604   5.105   7.983  0.6424 -0.8562  0.2393
 5625TIP3    H238511   4.456   5.072   7.981  0.1680  1.0088 -2.8141
 5626TIP3   OH238512   1.708   5.886   0.531 -0.2962 -0.0789 -0.0634
 5626TIP3    H138513   1.629   5.884   0.585 -0.5404  0.3391 -0.4053
 5626TIP3    H238514   1.715   5.977   0.501  0.0261 -0.2291 -0.4580
 5627TIP3   OH238515   5.103   4.974   2.065 -1.1457 -0.4715  0.3245
 5627TIP3    H138516   5.170   4.941   2.127 -1.5687 -0.3145  0.8737
 5627TIP3    H238517   5.137   5.058   2.036 -1.1260 -0.3682  0.6428
 5628TIP3   OH238518   2.100   2.016   8.295 -0.3108  0.5708  0.2736
 5628TIP3    H138519   2.009   2.022   8.266 -0.9349 -0.9084  1.7464
 5628TIP3    H238520   2.146   1.979   8.220 -1.4252 -0.9401  0.2732
 5629TIP3   OH238521   5.883   6.365   1.782  0.2043 -0.3016 -0.1672
 5629TIP3    H138522   5.961   6.341   1.830 -0.1139 -0.9697  0.0312
 5629TIP3    H238523   5.909   6.361   1.690  0.5144 -0.1058 -0.0871
 5630TIP3   OH238524   2.921   4.743   0.098  0.4866  0.4519  0.7098
 5630TIP3    H138525   2.897   4.651   0.102 -0.0139  0.6125  1.4471
 5630TIP3    H238526   3.015   4.744   0.116 -0.0343  0.3357  3.9332
 5631TIP3   OH238527   1.605   2.755   1.657  0.0945  0.1988  0.1311
 5631TIP3    H138528   1.691   2.785   1.684  0.0621 -0.4204  0.9591
 5631TIP3    H238529   1.561   2.833   1.623 -0.4854  1.4532  3.4410
 5632TIP3   OH238530   6.745   0.942   0.354 -0.1671  0.0425 -0.0721
 5632TIP3    H138531   6.837   0.918   0.365 -0.2483 -0.6608 -0.7990
 5632TIP3    H238532   6.720   0.900   0.272 -0.9469  0.8145 -0.2397
 5633TIP3   OH238533   2.839   1.778   7.956  0.3704 -0.2027  0.1261
 5633TIP3    H138534   2.902   1.792   8.027  1.9489  2.3704 -1.5782
 5633TIP3    H238535   2.894   1.750   7.882 -0.8380 -0.1471 -0.8095
 5634TIP3   OH238536   3.225   2.520   0.580  0.1713  0.6873 -0.6775
 5634TIP3    H138537   3.271   2.583   0.635  1.8304  0.0294 -1.2514
 5634TIP3    H238538   3.186   2.573   0.510 -0.7155  1.3477  0.2773
 5635TIP3   OH238539   0.267   2.315   2.506 -0.3663  0.8409 -0.0693
 5635TIP3    H138540   0.362   2.325   2.519 -0.6468  1.1032  2.0454
 5635TIP3    H238541   0.231   2.400   2.531 -1.1494  0.9081 -1.3473
 5636TIP3   OH238542   4.223   1.448   7.268 -0.9166  0.3742 -0.0607
 5636TIP3    H138543   4.217   1.361   7.306  1.8819 -0.0910 -0.4499
 5636TIP3    H238544   4.138   1.488   7.287 -2.4488 -2.5199 -0.2118
 5637TIP3   OH238545   2.033   2.699   0.192  0.1267  0.5988  0.2980
 5637TIP3    H138546   2.057   2.724   0.281  1.7202  0.6394 -0.1137
 5637TIP3    H238547   2.098   2.632   0.169  0.5315  1.4959 -1.2694
 5638TIP3   OH238548   1.094   6.280   7.820 -0.2857 -0.3555 -0.0042
 5638TIP3    H138549   1.181   6.243   7.813 -0.4461 -0.4335 -2.0641
 5638TIP3    H238550   1.043   6.214   7.867  0.0692 -1.6015 -1.3406
 5639TIP3   OH238551   6.481   0.345   8.493 -0.3074 -0.6342  0.0271
 5639TIP3    H138552   6.392   0.322   8.520 -2.1405  2.4682 -2.5808
 5639TIP3    H238553   6.505   0.278   8.430 -1.1040 -1.1088  0.2101
 5640TIP3   OH238554   2.114   0.737   0.373 -0.5067  0.5063  0.0684
 5640TIP3    H138555   2.133   0.811   0.316 -2.3256  2.6375  2.0102
 5640TIP3    H238556   2.102   0.663   0.313 -0.0576  2.0751 -2.0885
 5641TIP3   OH238557   2.468   4.805   1.767 -0.0525 -0.3707  0.3095
 5641TIP3    H138558   2.531   4.775   1.832  0.7889  1.4486  0.4004
 5641TIP3    H238559   2.407   4.860   1.817 -0.3408 -0.2521 -0.1699
 5642TIP3   OH238560   6.777   4.842   8.637  0.0912 -0.3013  0.2175
 5642TIP3    H138561   6.765   4.805   8.550 -2.0242 -2.1214  1.2006
 5642TIP3    H238562   6.868   4.821   8.659  0.3058 -0.8583 -1.0647
 5643TIP3   OH238563   6.532   1.949   1.070  0.2488 -0.0911  0.1158
 5643TIP3    H138564   6.626   1.955   1.055 -0.0124  2.9986 -1.0751
 5643TIP3    H238565   6.493   1.952   0.982 -0.9578  0.6540  0.6325
 5644TIP3   OH238566   0.164   3.649   6.795 -0.1843  0.4532  0.3931
 5644TIP3    H138567   0.185   3.681   6.883 -2.8507 -1.2576  1.7748
 5644TIP3    H238568   0.084   3.695   6.771 -0.3738 -0.2748 -0.4376
 5645TIP3   OH238569   2.606   0.745   7.577 -0.0975  0.1462 -0.4982
 5645TIP3    H138570   2.521   0.772   7.612  1.0607  1.0074  1.8772
 5645TIP3    H238571   2.630   0.668   7.630  0.9120  0.3610 -0.6186
 5646TIP3   OH238572   3.072   4.868   7.206  0.2829  0.1977  0.2738
 5646TIP3    H138573   3.073   4.931   7.135 -1.8069  2.0852  1.8014
 5646TIP3    H238574   3.011   4.800   7.177 -0.7631  1.0914  0.3165
 5647TIP3   OH238575   6.780   0.315   7.074 -0.0780 -0.1340 -0.4118
 5647TIP3    H138576   6.804   0.381   7.140  1.8862 -0.0513 -1.1281
 5647TIP3    H238577   6.823   0.235   7.104 -0.4192 -0.4741 -0.8241
 5648TIP3   OH238578   2.898   5.275   7.743 -0.7702  0.2653 -0.2442
 5648TIP3    H138579   2.812   5.309   7.768 -1.4949 -1.3693 -0.3632
 5648TIP3    H238580   2.887   5.180   7.746  1.0285  0.0296 -0.3231
 5649TIP3   OH238581   0.569   2.680   7.397  0.2381  0.0788 -0.4186
 5649TIP3    H138582   0.589   2.704   7.307  2.5825 -1.7170 -0.4596
 5649TIP3    H238583   0.526   2.595   7.390  0.9488 -0.3361  0.1745
 5650TIP3   OH238584   5.803   4.244   0.729 -0.2399  0.3523  0.1499
 5650TIP3    H138585   5.835   4.279   0.646 -1.4023 -0.8597 -0.8653
 5650TIP3    H238586   5.713   4.216   0.710  0.6565 -3.4468  0.6761
 5651TIP3   OH238587   0.039   1.881   7.901 -1.0398  0.1826  0.0695
 5651TIP3    H138588   0.033   1.853   7.993 -0.5005  0.5282  0.2108
 5651TIP3    H238589   0.081   1.967   7.904 -1.8956  0.6259 -0.4366
 5652TIP3   OH238590   4.165   1.333   1.072  0.1082  0.6082  0.2625
 5652TIP3    H138591   4.165   1.238   1.063  0.9844  0.1316  3.8427
 5652TIP3    H238592   4.109   1.350   1.148 -0.0947  3.0148 -0.3232
 5653TIP3   OH238593   5.992   1.736   1.605  0.3984  0.0910  0.4681
 5653TIP3    H138594   6.000   1.666   1.669 -0.9358  1.0907  1.7978
 5653TIP3    H238595   6.049   1.805   1.638 -1.0299  0.9810  1.1460
 5654TIP3   OH238596   0.463   0.523   8.626  0.0981 -0.4833 -0.6312
 5654TIP3    H138597   0.517   0.574   8.565 -1.1392  1.0286 -0.5214
 5654TIP3    H238598   0.520   0.509   8.702  0.3092  1.3159 -0.4079
 5655TIP3   OH238599   4.789   0.432   8.736  0.3649  0.5126 -0.0639
 5655TIP3    H138600   4.750   0.450   8.821 -0.3888 -1.7882  0.1543
 5655TIP3    H238601   4.722   0.459   8.673 -0.1693 -0.1703  0.1945
 5656TIP3   OH238602   0.023   5.143   0.035 -0.1082  0.3713 -0.4962
 5656TIP3    H138603   0.009   5.084   0.109  0.9411  0.4430 -0.2241
 5656TIP3    H238604   0.028   5.230   0.074  0.8068  0.3743 -0.5850
 5657TIP3   OH238605   3.721   0.405   0.483 -0.2062  0.3420  0.1264
 5657TIP3    H138606   3.673   0.351   0.420 -1.0239  0.2548  0.8118
 5657TIP3    H238607   3.658   0.471   0.511  0.0149  0.1282  1.1684
 5658TIP3   OH238608   1.945   2.777   7.585  0.0484 -0.1440  0.2428
 5658TIP3    H138609   1.965   2.728   7.665  0.0914 -0.6455 -0.0672
 5658TIP3    H238610   1.895   2.715   7.531 -1.4802  0.7524  0.5741
 5659TIP3   OH238611   4.741   1.930   8.300  0.1788  0.1231  0.4292
 5659TIP3    H138612   4.686   1.997   8.260  1.5839 -0.2290 -2.3295
 5659TIP3    H238613   4.813   1.978   8.340 -0.0854  0.3770  0.6013
 5660TIP3   OH238614   4.391   3.368   1.293 -0.4522  0.0029 -0.2056
 5660TIP3    H138615   4.348   3.315   1.360 -3.5077  0.3520 -1.6979
 5660TIP3    H238616   4.466   3.315   1.265  0.5510 -0.4399  2.8741
 5661TIP3   OH238617   6.170   0.223   8.262 -0.2186  0.1985 -0.0121
 5661TIP3    H138618   6.212   0.296   8.217  0.8930  0.3452  1.2140
 5661TIP3    H238619   6.205   0.145   8.219 -0.9844  0.3507 -0.9512
 5662TIP3   OH238620   3.035   0.608   8.017 -0.1391 -0.4916 -0.0177
 5662TIP3    H138621   3.017   0.564   8.101 -0.4616  0.7811  0.6046
 5662TIP3    H238622   2.949   0.620   7.977  0.0996 -2.1443 -1.1145
 5663TIP3   OH238623   3.343   0.127   2.492 -0.1519  0.2941  0.2321
 5663TIP3    H138624   3.286   0.204   2.497  0.4719  0.6710  2.6270
 5663TIP3    H238625   3.300   0.069   2.428 -2.2574  1.3216  0.6455
 5664TIP3   OH238626   5.627   5.866   7.722  0.4724  0.3270 -0.1219
 5664TIP3    H138627   5.703   5.901   7.770 -0.0210 -0.4633  1.2829
 5664TIP3    H238628   5.638   5.771   7.727  0.1231  0.2284 -1.1359
 5665TIP3   OH238629   2.803   0.985   0.357  0.3944 -0.3746 -0.3897
 5665TIP3    H138630   2.822   0.961   0.266 -1.6789  0.1836 -1.0182
 5665TIP3    H238631   2.785   1.079   0.354  1.2636 -0.1514  0.7912
 5666TIP3   OH238632   6.276   6.395   0.459 -0.4338  0.5086  0.0763
 5666TIP3    H138633   6.210   6.361   0.398 -1.1812 -0.1107  1.1885
 5666TIP3    H238634   6.349   6.420   0.403 -1.2792  0.4213 -1.1208
 5667TIP3   OH238635   3.651   5.554   7.926 -0.5669  0.9701  1.0109
 5667TIP3    H138636   3.625   5.502   7.851  1.1409 -0.1152  1.1188
 5667TIP3    H238637   3.571   5.601   7.952 -0.9787  2.1413 -2.0200
 5668TIP3   OH238638   1.754   4.876   1.463 -0.1931  0.0966  0.4358
 5668TIP3    H138639   1.803   4.849   1.540 -1.5477 -3.2757  0.2746
 5668TIP3    H238640   1.757   4.800   1.405 -2.9512  0.8787 -0.8957
 5669TIP3   OH238641   1.586   0.613   6.541 -0.0491  0.6857  0.4082
 5669TIP3    H138642   1.652   0.593   6.607 -0.9128 -0.0694  1.0678
 5669TIP3    H238643   1.636   0.640   6.464  1.0040  0.5939  1.0454
 5670TIP3   OH238644   2.874   4.609   0.839 -0.1802 -0.5021 -0.3884
 5670TIP3    H138645   2.848   4.686   0.789 -2.7660 -2.4882 -2.3558
 5670TIP3    H238646   2.935   4.562   0.782  2.0824  0.3793  1.1540
 5671TIP3   OH238647   4.390   2.240   2.732  0.3573  0.2539  0.2483
 5671TIP3    H138648   4.412   2.328   2.701 -0.4503  0.6027  0.6171
 5671TIP3    H238649   4.324   2.255   2.800 -0.0413 -0.6527  0.0773
 5672TIP3   OH238650   5.112   2.439   0.206 -0.3163 -0.1468  0.7937
 5672TIP3    H138651   5.029   2.410   0.243 -0.3533  0.5449  1.2763
 5672TIP3    H238652   5.147   2.499   0.271  0.2310  0.1032  0.2753
 5673TIP3   OH238653   4.276   0.094   1.000 -0.5453 -0.2383  0.2626
 5673TIP3    H138654   4.278   0.182   0.963 -0.7024 -0.9096 -1.4356
 5673TIP3    H238655   4.357   0.053   0.969 -0.4623 -0.6949  1.0595
 5674TIP3   OH238656   2.797   1.452   7.428 -0.1214 -0.0937  0.3261
 5674TIP3    H138657   2.827   1.366   7.458 -0.9366 -1.0528 -1.4016
 5674TIP3    H238658   2.878   1.500   7.408  0.4340  0.4860  3.5411
 5675TIP3   OH238659   2.005   4.090   8.713 -0.2428 -0.5373  0.2264
 5675TIP3    H138660   2.026   3.998   8.725  1.5276 -0.4074 -1.4395
 5675TIP3    H238661   2.059   4.118   8.639 -2.3200  1.3079 -0.7127
 5676TIP3   OH238662   0.033   3.092   0.988 -0.1745  0.6341  0.3422
 5676TIP3    H138663   0.006   3.120   1.076 -0.8062 -0.9276  0.6688
 5676TIP3    H238664   0.057   3.000   0.999 -2.6999 -0.3472 -1.5907
 5677TIP3   OH238665   3.429   1.674   7.070 -0.2604  0.2906  0.4726
 5677TIP3    H138666   3.471   1.752   7.035  0.6030 -0.3621  0.0004
 5677TIP3    H238667   3.488   1.643   7.139  0.6759 -1.2376 -0.9125
 5678TIP3   OH238668   2.334   5.107   2.679 -0.4033 -0.1749  0.3215
 5678TIP3    H138669   2.277   5.092   2.755 -0.6728 -1.9189 -0.1745
 5678TIP3    H238670   2.363   5.019   2.654  0.8860  0.5034 -0.6928
 5679TIP3   OH238671   1.381   2.276   1.958 -0.1700 -0.6007 -0.2083
 5679TIP3    H138672   1.352   2.272   2.050  0.6856  0.0373  0.0966
 5679TIP3    H238673   1.363   2.366   1.931  1.2573 -0.2560 -0.0891
 5680TIP3   OH238674   3.709   5.773   1.374  0.7013  0.1819 -0.0313
 5680TIP3    H138675   3.792   5.737   1.405  1.1302 -1.5246 -2.8021
 5680TIP3    H238676   3.729   5.813   1.289 -0.8777  2.0416  0.3845
 5681TIP3   OH238677   0.641   3.145   8.636  0.0032  0.0302 -0.3629
 5681TIP3    H138678   0.621   3.232   8.670  1.7131  0.3371 -0.0357
 5681TIP3    H238679   0.615   3.147   8.544 -0.5046  0.6931 -0.2022
 5682TIP3   OH238680   3.623   2.576   1.099 -0.1566  0.0605 -0.1494
 5682TIP3    H138681   3.570   2.641   1.145  0.8672  1.0069 -0.2649
 5682TIP3    H238682   3.582   2.492   1.121 -0.6485  0.6142  1.1762
 5683TIP3   OH238683   4.392   5.850   0.498  0.0151 -0.1098  0.5377
 5683TIP3    H138684   4.361   5.809   0.417 -0.4982  0.5446  0.3939
 5683TIP3    H238685   4.467   5.797   0.524 -1.2612 -1.8150  0.9648
 5684TIP3   OH238686   0.220   5.324   7.205 -0.0592 -0.3587 -0.1389
 5684TIP3    H138687   0.139   5.273   7.206 -0.8971  0.9143 -0.4221
 5684TIP3    H238688   0.245   5.329   7.112  0.2435 -0.5894 -0.0716
 5685TIP3   OH238689   0.270   5.878   0.264 -0.2906  0.6829  0.0006
 5685TIP3    H138690   0.294   5.796   0.308  2.0278  0.3615 -1.7100
 5685TIP3    H238691   0.341   5.939   0.285 -0.7579  1.4962 -0.7178
 5686TIP3   OH238692   1.520   1.728   1.258 -0.2597  0.3575  0.3966
 5686TIP3    H138693   1.497   1.801   1.316 -2.1427  0.0709  0.0756
 5686TIP3    H238694   1.454   1.661   1.276  1.6441 -1.4784  0.9727
 5687TIP3   OH238695   3.067   1.101   0.454  0.6088  0.0275  0.0891
 5687TIP3    H138696   2.977   1.134   0.454  1.0695  1.3109 -0.0169
 5687TIP3    H238697   3.112   1.155   0.389  0.2580 -4.0363 -4.1057
 5688TIP3   OH238698   5.988   4.710   6.810  0.0366 -0.1198 -0.9456
 5688TIP3    H138699   5.934   4.654   6.754  0.9836  0.5397 -2.6036
 5688TIP3    H238700   5.959   4.799   6.790  0.5018  0.1417 -0.4863
 5689TIP3   OH238701   3.700   2.544   0.713  0.1192 -0.2131 -0.0289
 5689TIP3    H138702   3.611   2.509   0.711  0.0095  0.0476  0.1995
 5689TIP3    H238703   3.717   2.561   0.806  0.5427 -0.6070 -0.0312
 5690TIP3   OH238704   2.931   1.059   8.671 -0.1948  0.2653 -0.1270
 5690TIP3    H138705   2.916   1.152   8.657 -1.3014  0.2433  0.7453
 5690TIP3    H238706   2.923   1.047   8.765  0.8718 -0.5710 -0.1183
 5691TIP3   OH238707   0.057   3.456   7.949 -0.3820 -0.1053 -0.3505
 5691TIP3    H138708   0.023   3.371   7.978 -1.0467  0.2892  0.0380
 5691TIP3    H238709   0.129   3.474   8.010 -1.6091  0.6028  0.9556
 5692TIP3   OH238710   5.384   2.672   0.054  0.5580  0.2364  0.1568
 5692TIP3    H138711   5.447   2.718   0.110 -1.6027 -0.2584  3.2431
 5692TIP3    H238712   5.319   2.739   0.031  0.2471 -0.0731  0.1297
 5693TIP3   OH238713   2.839   1.950   6.728 -0.1661  0.3813 -0.4434
 5693TIP3    H138714   2.838   1.923   6.636 -1.1526 -0.8478 -0.0982
 5693TIP3    H238715   2.831   2.046   6.725  0.5036  0.4189 -1.6377
 5694TIP3   OH238716   6.378   0.952   2.158  0.7352  0.2844  0.2954
 5694TIP3    H138717   6.449   1.014   2.148  0.8698  0.0236 -0.4872
 5694TIP3    H238718   6.298   1.005   2.150  0.8461  0.3320 -0.6946
 5695TIP3   OH238719   0.102   1.762   0.265  0.0596  0.2222  0.1931
 5695TIP3    H138720   0.061   1.838   0.306  1.1107 -0.3832  2.5462
 5695TIP3    H238721   0.190   1.792   0.242  0.7051 -0.3702  1.7139
 5696TIP3   OH238722   4.669   4.496   7.161  0.0078 -0.9318 -0.3548
 5696TIP3    H138723   4.578   4.485   7.133 -0.5421  0.7162  0.6479
 5696TIP3    H238724   4.668   4.473   7.254  0.1084  1.2270  0.2237
 5697TIP3   OH238725   4.625   1.708   1.947 -0.2159  0.0693 -0.2344
 5697TIP3    H138726   4.680   1.777   1.909 -1.5141  0.6866 -1.0642
 5697TIP3    H238727   4.537   1.747   1.951 -0.7484 -1.1421  0.3858
 5698TIP3   OH238728   4.046   6.771   1.673 -0.2663  0.1573  0.3096
 5698TIP3    H138729   4.082   6.838   1.615 -0.6927 -0.8471 -1.1792
 5698TIP3    H238730   4.121   6.717   1.697 -0.4536 -0.9195 -1.3992
 5699TIP3   OH238731   1.935   5.224   7.434 -0.2132  0.2964  0.0803
 5699TIP3    H138732   2.025   5.252   7.414 -0.2468  1.3307  1.2391
 5699TIP3    H238733   1.886   5.243   7.354  0.7731 -1.2201 -0.9316
 5700TIP3   OH238734   0.603   0.872   2.137 -0.3691  0.1524 -0.0350
 5700TIP3    H138735   0.644   0.954   2.164  0.4884 -0.2266 -0.1633
 5700TIP3    H238736   0.530   0.899   2.081 -0.5466  0.8459  0.5181
 5701TIP3   OH238737   4.236   5.830   7.897 -0.6009 -0.2624 -0.2371
 5701TIP3    H138738   4.177   5.754   7.894 -0.2501 -0.5631  0.2225
 5701TIP3    H238739   4.278   5.823   7.983  0.8324 -0.6100 -0.9341
 5702TIP3   OH238740   1.452   5.837   7.677 -0.1109  0.1518  0.1812
 5702TIP3    H138741   1.495   5.899   7.735  0.8071  0.7032 -1.0563
 5702TIP3    H238742   1.365   5.874   7.662 -0.1029  0.3582  0.6299
 5703TIP3   OH238743   3.679   0.816   0.384  0.1838 -0.4744  0.9355
 5703TIP3    H138744   3.753   0.814   0.445  0.1479  3.1167  1.2978
 5703TIP3    H238745   3.652   0.908   0.382 -1.3877 -0.8516 -2.6630
 5704TIP3   OH238746   1.345   3.094   1.766  0.7254  0.4383 -0.4071
 5704TIP3    H138747   1.289   3.093   1.844  0.6717  0.2931 -0.4454
 5704TIP3    H238748   1.287   3.066   1.695  1.4910 -2.5402  0.0062
 5705TIP3   OH238749   1.653   5.855   0.101  0.0100 -0.3072  0.1710
 5705TIP3    H138750   1.659   5.766   0.135  0.1382 -0.3409  0.0572
 5705TIP3    H238751   1.667   5.846   0.007  1.3153 -0.0155  0.3169
 5706TIP3   OH238752   1.335   0.819   8.825 -0.3970  0.5536 -0.1347
 5706TIP3    H138753   1.383   0.899   8.848 -0.8501  0.0086  3.1117
 5706TIP3    H238754   1.244   0.848   8.817 -0.1995  0.8043 -1.8808
 5707TIP3   OH238755   2.701   0.974   1.128 -0.1496 -0.1463  0.0498
 5707TIP3    H138756   2.642   0.978   1.202  0.9222 -0.4929  0.9509
 5707TIP3    H238757   2.749   1.057   1.131  0.0386 -0.2460 -0.1405
 5708TIP3   OH238758   6.081   4.037   8.439 -0.1524 -0.4938  0.1461
 5708TIP3    H138759   6.013   4.102   8.424 -0.1909 -0.9059 -1.5803
 5708TIP3    H238760   6.033   3.956   8.456 -0.2723 -1.4438 -3.7717
 5709TIP3   OH238761   6.003   6.002   8.538  0.0314 -0.2661 -0.6144
 5709TIP3    H138762   6.073   5.976   8.598  0.7428  1.8336 -0.4360
 5709TIP3    H238763   5.935   6.040   8.595  0.3654  1.0107 -1.0246
 5710TIP3   OH238764   2.607   5.101   6.804  0.1017  0.7564 -0.4973
 5710TIP3    H138765   2.550   5.088   6.880  0.6062  2.9981  0.3336
 5710TIP3    H238766   2.557   5.066   6.730 -1.9858  1.8353  0.3355
 5711TIP3   OH238767   2.746   3.548   1.613 -0.0738  0.1607 -0.5226
 5711TIP3    H138768   2.760   3.464   1.568 -1.7130 -0.8834  0.7784
 5711TIP3    H238769   2.676   3.590   1.563 -1.7899 -0.9326  0.8347
 5712TIP3   OH238770   0.474   5.765   8.289  0.2481 -0.7087 -0.5775
 5712TIP3    H138771   0.467   5.844   8.342  2.0669 -0.9712  0.1232
 5712TIP3    H238772   0.443   5.695   8.346  1.6293 -0.9073 -0.0394
 5713TIP3   OH238773   0.135   2.027   2.035  0.2128 -0.0844 -0.2891
 5713TIP3    H138774   0.143   1.951   2.093  0.7749  0.3705  0.2465
 5713TIP3    H238775   0.073   2.085   2.080  0.4541  0.1577 -0.2643
 5714TIP3   OH238776   3.758   5.413   7.351  0.0274 -0.2375 -0.1426
 5714TIP3    H138777   3.747   5.331   7.303 -0.4245  0.1338 -0.6861
 5714TIP3    H238778   3.669   5.447   7.362  0.2428  0.4137 -0.3392
 5715TIP3   OH238779   4.196   3.800   6.381 -0.0892  0.5555 -0.3199
 5715TIP3    H138780   4.193   3.858   6.456  2.0267  2.2855 -1.4692
 5715TIP3    H238781   4.265   3.737   6.401 -1.1725 -0.5463  0.1516
 5716TIP3   OH238782   1.957   6.133   8.554  0.0153  0.0065  0.3349
 5716TIP3    H138783   2.040   6.092   8.579  0.0467  0.1473  0.4612
 5716TIP3    H238784   1.978   6.225   8.540  0.5792 -0.5244 -2.9972
 5717TIP3   OH238785   2.039   4.647   8.464 -0.3393 -0.3578 -0.2652
 5717TIP3    H138786   2.086   4.714   8.416  2.4380 -1.0492  1.2676
 5717TIP3    H238787   2.022   4.686   8.550  0.9671 -1.3963  0.5136
 5718TIP3   OH238788   2.271   0.884   1.864 -0.6512 -0.0737  0.0495
 5718TIP3    H138789   2.319   0.834   1.930 -0.7853  1.3918  1.3124
 5718TIP3    H238790   2.340   0.921   1.808 -0.5556 -1.6802 -0.9666
 5719TIP3   OH238791   5.873   5.199   7.427 -0.4127  0.1402  0.6763
 5719TIP3    H138792   5.948   5.150   7.393  0.6504  0.1411  2.8487
 5719TIP3    H238793   5.818   5.132   7.468 -0.9371  0.3053  0.2480
 5720TIP3   OH238794   2.252   4.075   1.753  0.4570  0.2143  0.4194
 5720TIP3    H138795   2.315   4.078   1.825  1.2017 -1.7608 -0.0729
 5720TIP3    H238796   2.300   4.109   1.678  0.3641  0.3504  0.4223
 5721TIP3   OH238797   2.352   3.576   1.263 -0.3162 -0.0300 -1.0752
 5721TIP3    H138798   2.372   3.492   1.222 -0.2155  0.1225 -1.3451
 5721TIP3    H238799   2.373   3.641   1.195 -0.2608  0.2185 -0.8226
 5722TIP3   OH238800   2.926   3.895   0.006 -0.1153  0.2029  0.1714
 5722TIP3    H138801   2.866   3.936   0.069  0.3483  1.3929 -0.1324
 5722TIP3    H238802   2.869   3.848  -0.054 -0.7014  0.7316  0.3026
 5723TIP3   OH238803   4.901   1.863   0.461  0.1719  0.7659 -0.3016
 5723TIP3    H138804   4.818   1.874   0.508 -0.2764 -1.0646 -0.6018
 5723TIP3    H238805   4.885   1.901   0.375 -0.6182 -0.2290 -0.6100
 5724TIP3   OH238806   0.284   5.554   7.508 -0.7264  0.8356 -0.2468
 5724TIP3    H138807   0.368   5.578   7.467 -0.2260  1.2806  0.9759
 5724TIP3    H238808   0.307   5.484   7.569 -1.6530 -0.6055 -1.4967
 5725TIP3   OH238809   0.392   0.776   7.029  0.5035 -0.1916  0.2585
 5725TIP3    H138810   0.331   0.722   7.080  0.1429 -1.1602 -1.1543
 5725TIP3    H238811   0.459   0.714   6.999  1.6862  0.6849  0.9922
 5726TIP3   OH238812   1.450   0.240   7.680  0.2604 -0.6746 -0.3807
 5726TIP3    H138813   1.385   0.309   7.687  0.9343 -0.1658  1.5547
 5726TIP3    H238814   1.486   0.248   7.592  0.7040  1.8235 -0.0367
 5727TIP3   OH238815   4.795   1.442   1.539  0.0825 -0.9791  0.4732
 5727TIP3    H138816   4.813   1.508   1.606 -0.3930 -2.7346  2.4138
 5727TIP3    H238817   4.875   1.439   1.486  0.4576  0.4670  0.9261
 5728TIP3   OH238818   3.245   2.061   8.383 -0.1301 -0.3762 -0.4260
 5728TIP3    H138819   3.312   2.112   8.339  2.2684  0.0125  3.1913
 5728TIP3    H238820   3.209   2.120   8.449 -2.6259 -1.2379 -0.9122
 5729TIP3   OH238821   2.456   4.319   7.606 -0.0079  0.5397  0.3845
 5729TIP3    H138822   2.365   4.334   7.632  0.3316  0.9270  1.3829
 5729TIP3    H238823   2.483   4.402   7.566 -0.8660 -0.3838 -2.3818
 5730TIP3   OH238824   1.674   3.169   0.995  0.0757 -0.1706 -0.3481
 5730TIP3    H138825   1.746   3.167   1.058 -0.1430  1.3150 -0.0078
 5730TIP3    H238826   1.663   3.078   0.968  0.1189 -0.8614  1.8017
 5731TIP3   OH238827   2.312   6.025   0.982 -0.5664  0.7242  0.2469
 5731TIP3    H138828   2.400   5.993   0.964 -1.1215 -0.2904 -0.7901
 5731TIP3    H238829   2.324   6.090   1.050  0.9592  0.4310  0.2960
 5732TIP3   OH238830   3.637   6.589   6.429  0.4173 -0.0064  0.2000
 5732TIP3    H138831   3.656   6.678   6.399  0.6982 -0.2328 -0.3187
 5732TIP3    H238832   3.688   6.579   6.509  0.0159  0.4574  0.5165
 5733TIP3   OH238833   2.345   1.056   7.081  0.4342  0.3424 -0.1332
 5733TIP3    H138834   2.327   1.147   7.058  0.4714  0.2057 -0.7174
 5733TIP3    H238835   2.423   1.061   7.137 -0.5060  0.8040  1.1864
 5734TIP3   OH238836   3.834   6.608   7.344  0.1957 -0.4840  0.1646
 5734TIP3    H138837   3.805   6.676   7.405  2.3883  0.6229  0.0632
 5734TIP3    H238838   3.824   6.527   7.393 -0.9604  0.0405  0.8667
 5735TIP3   OH238839   4.375   1.256   8.668  0.6361  0.2986 -0.0330
 5735TIP3    H138840   4.422   1.336   8.643  3.6634 -0.8952  1.3309
 5735TIP3    H238841   4.376   1.202   8.589 -1.5996  1.5718 -1.0237
 5736TIP3   OH238842   1.400   3.922   7.610 -0.3078 -0.7024 -0.6075
 5736TIP3    H138843   1.393   3.932   7.705  1.6061 -1.4068 -0.3518
 5736TIP3    H238844   1.453   3.996   7.581  0.8968 -1.6190 -0.8104
 5737TIP3   OH238845   3.562   1.982   1.168 -0.2023 -0.0948 -0.2831
 5737TIP3    H138846   3.544   1.889   1.180 -0.2001 -0.1458 -0.6580
 5737TIP3    H238847   3.610   2.008   1.247  1.4924 -0.8721 -1.0052
 5738TIP3   OH238848   5.894   6.722   8.804  0.3981 -0.8362  0.3464
 5738TIP3    H138849   5.950   6.789   8.764  0.2310 -0.5605  0.5718
 5738TIP3    H238850   5.941   6.695   8.883  0.4940 -1.0260  0.2232
 5739TIP3   OH238851   2.356   6.688   8.331  0.2424  0.5117 -0.1963
 5739TIP3    H138852   2.390   6.608   8.291 -2.2351 -0.6305 -0.1781
 5739TIP3    H238853   2.414   6.704   8.406  1.1277 -0.9315 -0.5463
 5740TIP3   OH238854   4.549   0.243   8.756  0.1230 -0.0945  0.4277
 5740TIP3    H138855   4.514   0.171   8.808  0.6757  0.4725  1.6232
 5740TIP3    H238856   4.615   0.202   8.700  0.4539 -0.5214  1.1205
 5741TIP3   OH238857   0.825   4.639   0.890  0.3627 -0.0457  0.0252
 5741TIP3    H138858   0.836   4.561   0.836 -2.2156 -2.0309  2.1540
 5741TIP3    H238859   0.877   4.622   0.968 -2.6178 -1.2013  1.9062
 5742TIP3   OH238860   2.291   3.807   7.030  0.0887  0.0947  0.5234
 5742TIP3    H138861   2.312   3.798   6.937 -0.2512 -0.8891  0.5367
 5742TIP3    H238862   2.356   3.754   7.075  0.3564  0.7036  0.8756
 5743TIP3   OH238863   3.411   0.527   7.559  0.9647  0.2582  0.8912
 5743TIP3    H138864   3.335   0.565   7.516  1.1237  2.4822  2.4294
 5743TIP3    H238865   3.375   0.465   7.622  0.6415 -1.2991 -0.7484
 5744TIP3   OH238866   5.658   4.274   7.867 -0.3769  0.1979  0.2024
 5744TIP3    H138867   5.671   4.184   7.894 -0.9384  0.2018  0.5040
 5744TIP3    H238868   5.609   4.268   7.785  0.8686  0.1991 -0.5650
 5745TIP3   OH238869   1.478   4.093   1.999  0.7046  0.4136 -0.1453
 5745TIP3    H138870   1.557   4.135   2.033  0.5327  0.7484 -0.1571
 5745TIP3    H238871   1.419   4.166   1.979  0.9588  0.2591 -1.5557
 5746TIP3   OH238872   3.664   3.906   0.185 -0.2174 -0.1045 -0.5496
 5746TIP3    H138873   3.626   3.989   0.156 -2.0194 -1.2123 -1.4694
 5746TIP3    H238874   3.662   3.850   0.108  0.0931 -1.3300  0.3073
 5747TIP3   OH238875   1.906   0.391   1.013 -0.2491  0.3813 -0.2775
 5747TIP3    H138876   1.905   0.296   1.010  0.9349  0.3669 -2.7705
 5747TIP3    H238877   1.849   0.418   0.940 -3.0676  1.7172  2.1717
 5748TIP3   OH238878   5.154   3.129   8.616 -0.3636 -0.4165  0.1378
 5748TIP3    H138879   5.077   3.072   8.619 -0.7665  0.0965 -0.2898
 5748TIP3    H238880   5.124   3.212   8.653  0.0494 -0.2816  0.1758
 5749TIP3   OH238881   0.840   0.361   1.710  0.5093 -0.2809 -0.2873
 5749TIP3    H138882   0.897   0.286   1.726 -0.0170 -1.0507 -1.8075
 5749TIP3    H238883   0.778   0.361   1.783  1.5026 -0.3341  0.5827
 5750TIP3   OH238884   6.611   0.006   6.602 -0.0181  0.3909 -0.6928
 5750TIP3    H138885   6.552  -0.057   6.561  0.5478 -0.3417 -0.4109
 5750TIP3    H238886   6.695  -0.041   6.608  0.8731  1.7177 -1.9686
 5751TIP3   OH238887   6.148   3.585   8.581  0.8608  0.9315 -0.0051
 5751TIP3    H138888   6.208   3.645   8.536 -0.8739  2.5688 -0.2572
 5751TIP3    H238889   6.133   3.514   8.519  0.6240  1.7843 -0.9416
 5752TIP3   OH238890   4.729   1.086   0.837  0.1873  0.6882  0.2798
 5752TIP3    H138891   4.800   1.113   0.779 -0.3392  0.1976 -0.6091
 5752TIP3    H238892   4.672   1.163   0.842 -0.4886  0.2996 -0.9920
 5753TIP3   OH238893   0.227   4.631   0.176 -0.3397  0.9192  0.1244
 5753TIP3    H138894   0.274   4.594   0.101  0.1550 -0.2383  0.9802
 5753TIP3    H238895   0.294   4.649   0.241 -0.7731  1.8725  0.3246
 5754TIP3   OH238896   3.866   6.304   7.847 -0.3392  0.3025 -0.2665
 5754TIP3    H138897   3.825   6.303   7.933  0.5566 -0.2054  0.1649
 5754TIP3    H238898   3.792   6.312   7.786 -0.9487  1.1376  0.5485
 5755TIP3   OH238899   5.324   6.762   0.822  0.5129 -0.2718 -0.7935
 5755TIP3    H138900   5.338   6.854   0.797  0.5648 -0.3202 -0.9415
 5755TIP3    H238901   5.230   6.747   0.809  0.7786 -0.7327 -2.4264
 5756TIP3   OH238902   4.350   3.224   0.826  0.1752  0.0659  0.0517
 5756TIP3    H138903   4.437   3.190   0.846  0.1015  0.3119  0.8193
 5756TIP3    H238904   4.310   3.158   0.770  1.1040  0.2662 -0.8702
 5757TIP3   OH238905   4.135   2.355   6.811 -0.2133 -0.0248 -0.3523
 5757TIP3    H138906   4.150   2.340   6.718  1.5951  0.4478 -0.1803
 5757TIP3    H238907   4.181   2.438   6.830  0.0508 -0.4655  1.0825
 5758TIP3   OH238908   4.078   6.646   0.968 -0.2390  0.2161  0.0797
 5758TIP3    H138909   4.017   6.715   0.944  0.6980  1.6831  1.6716
 5758TIP3    H238910   4.092   6.658   1.062  2.2429 -0.2287 -0.1492
 5759TIP3   OH238911   2.928   5.742   0.805 -0.7963  0.5973 -0.0321
 5759TIP3    H138912   2.939   5.809   0.873  0.1291 -0.1373  0.5752
 5759TIP3    H238913   3.017   5.726   0.774 -0.8953 -0.8844  0.3802
 5760TIP3   OH238914   5.211   3.157   1.045 -0.6656  0.0713  0.1906
 5760TIP3    H138915   5.246   3.211   0.974 -1.7411 -1.1640 -1.3336
 5760TIP3    H238916   5.280   3.093   1.062 -0.4926  0.2364  0.1218
 5761TIP3   OH238917   6.048   6.571   7.722  0.1546 -0.1453  0.1569
 5761TIP3    H138918   6.037   6.498   7.783  0.6942  1.1882  1.9336
 5761TIP3    H238919   6.008   6.645   7.766  0.2431  0.8019 -1.3011
 5762TIP3   OH238920   0.433   5.473   7.300  0.0538 -0.1516  0.0622
 5762TIP3    H138921   0.356   5.439   7.254 -1.4523  0.6931  1.8232
 5762TIP3    H238922   0.473   5.397   7.341 -0.3484 -0.4793 -0.1504
 5763TIP3   OH238923   2.732   4.879   6.951 -0.1769 -0.4549  0.4275
 5763TIP3    H138924   2.675   4.922   7.015 -1.7165  0.0645 -1.1830
 5763TIP3    H238925   2.674   4.860   6.877  1.5922 -0.6315 -0.9882
 5764TIP3   OH238926   2.735   4.276   0.683  0.2778  0.3263 -0.0367
 5764TIP3    H138927   2.694   4.358   0.658  1.4638  1.0935  0.4554
 5764TIP3    H238928   2.829   4.295   0.683  0.6431 -1.2744 -0.8080
 5765TIP3   OH238929   4.669   5.002   0.916  0.2022 -0.1699  0.3772
 5765TIP3    H138930   4.754   5.044   0.927  0.3942 -0.8362  1.7813
 5765TIP3    H238931   4.690   4.910   0.899 -0.2102 -0.4275  1.1861
 5766TIP3   OH238932   1.527   6.357   7.339  0.0655  0.2358 -0.1126
 5766TIP3    H138933   1.467   6.430   7.324  0.7660  0.5633 -1.5026
 5766TIP3    H238934   1.497   6.289   7.280  1.2811  0.5522 -1.1275
 5767TIP3   OH238935   2.878   5.048   0.887  0.4224 -0.3166 -0.3309
 5767TIP3    H138936   2.938   5.116   0.858  1.9231 -0.8980  1.2380
 5767TIP3    H238937   2.878   5.055   0.982  1.5406 -3.2061 -0.0214
 5768TIP3   OH238938   4.773   2.624   0.307 -0.1443 -0.2294 -0.4065
 5768TIP3    H138939   4.828   2.684   0.257 -1.1790 -0.2278 -1.5937
 5768TIP3    H238940   4.823   2.542   0.311  0.3525  0.0625 -0.6391
 5769TIP3   OH238941   3.742   5.722   7.459  0.3825  0.0407 -0.3976
 5769TIP3    H138942   3.655   5.751   7.485  0.2341  0.3229 -1.1867
 5769TIP3    H238943   3.795   5.801   7.459  0.6268 -0.1164 -0.0132
 5770TIP3   OH238944   0.214   0.430   8.274 -0.2583  0.4769 -0.1443
 5770TIP3    H138945   0.266   0.361   8.315 -1.0113  0.2619  0.4683
 5770TIP3    H238946   0.277   0.478   8.219  0.3947 -0.3097 -0.1027
 5771TIP3   OH238947   5.609   1.219   7.368  0.3695 -0.4522  0.4140
 5771TIP3    H138948   5.536   1.281   7.369 -0.8877 -1.8893  1.5316
 5771TIP3    H238949   5.661   1.241   7.446  0.2770 -0.4235  0.4668
 5772TIP3   OH238950   6.401   2.812   0.894  0.2569 -0.2676  0.4011
 5772TIP3    H138951   6.403   2.830   0.988 -0.8237  0.0375  0.3796
 5772TIP3    H238952   6.435   2.892   0.854  1.5652 -0.7218  0.5461
 5773TIP3   OH238953   6.417   5.745   2.063  0.9264 -0.0027  1.0574
 5773TIP3    H138954   6.352   5.763   2.131 -1.4261 -0.4334 -0.9516
 5773TIP3    H238955   6.446   5.832   2.035  0.6886  0.2196  1.4838
 5774TIP3   OH238956   1.623   1.013   8.152  0.2972  0.1954  0.3538
 5774TIP3    H138957   1.662   1.055   8.076 -0.6880  1.1507  0.3481
 5774TIP3    H238958   1.557   1.075   8.182 -2.6186 -2.0786 -0.7999
 5775TIP3   OH238959   3.837   3.747   6.988  0.1598 -0.2223 -0.5888
 5775TIP3    H138960   3.743   3.762   6.979  0.1057  0.2393  0.5429
 5775TIP3    H238961   3.848   3.718   7.079  1.4431  3.0772  0.4861
 5776TIP3   OH238962   5.357   3.297   1.668  0.0255 -0.3176  0.0876
 5776TIP3    H138963   5.392   3.208   1.660  0.7379 -0.0509  0.1940
 5776TIP3    H238964   5.301   3.294   1.745 -0.9832 -1.0000 -0.6451
 5777TIP3   OH238965   6.813   0.127   0.105 -0.2594 -0.6089 -0.6519
 5777TIP3    H138966   6.756   0.088   0.172  0.9080 -0.9940  0.1379
 5777TIP3    H238967   6.753   0.178   0.050 -1.4082 -1.2196 -0.0098
 5778TIP3   OH238968   6.493   5.538   8.202 -0.0393  0.3402 -0.0065
 5778TIP3    H138969   6.453   5.480   8.266 -2.4678  0.4024 -1.3420
 5778TIP3    H238970   6.557   5.483   8.156 -0.1525 -0.4209  0.7311
 5779TIP3   OH238971   3.469   6.641   8.360 -0.4949  0.8455 -0.3845
 5779TIP3    H138972   3.419   6.692   8.424 -1.8147 -1.9883  1.0156
 5779TIP3    H238973   3.425   6.556   8.357  2.3704 -0.7279 -1.5316
 5780TIP3   OH238974   5.619   4.176   1.987 -0.2540  0.6716  0.7369
 5780TIP3    H138975   5.543   4.163   2.045 -0.2270  1.7438  1.0294
 5780TIP3    H238976   5.694   4.159   2.043 -0.2593  0.3083  0.6354
 5781TIP3   OH238977   4.170   4.775   7.525  0.5554 -0.5759  0.2159
 5781TIP3    H138978   4.189   4.682   7.519 -0.7702 -0.9518  1.3182
 5781TIP3    H238979   4.120   4.794   7.445  0.1787 -0.9777  0.3555
 5782TIP3   OH238980   5.142   0.688   7.659 -0.2356 -0.6475 -0.4523
 5782TIP3    H138981   5.057   0.648   7.638  0.1258 -0.7518 -1.8238
 5782TIP3    H238982   5.177   0.716   7.574 -0.5333  2.7788  0.3850
 5783TIP3   OH238983   2.408   3.275   8.653  0.3322 -0.7066 -0.2630
 5783TIP3    H138984   2.356   3.250   8.576 -0.0923  0.3699 -0.3435
 5783TIP3    H238985   2.346   3.323   8.709  1.4864  1.7718 -0.9506
 5784TIP3   OH238986   2.166   5.570   6.487  0.0854  0.2500  0.2136
 5784TIP3    H138987   2.151   5.482   6.522 -0.3100  0.3962  0.4290
 5784TIP3    H238988   2.254   5.593   6.517 -0.2575  0.3843  1.1539
 5785TIP3   OH238989   5.926   1.005   8.285 -0.4058  0.0436 -0.3422
 5785TIP3    H138990   5.854   0.950   8.318  0.3734  0.1903  1.7767
 5785TIP3    H238991   6.000   0.983   8.341  0.4869  1.7793 -0.7662
 5786TIP3   OH238992   0.341   4.316   2.807  0.4196 -0.4379 -0.1117
 5786TIP3    H138993   0.324   4.338   2.899 -0.1648 -1.4697  0.0426
 5786TIP3    H238994   0.436   4.313   2.801  0.4702 -0.1417  0.4072
 5787TIP3   OH238995   1.155   2.138   2.091 -0.3219  0.0434 -0.2689
 5787TIP3    H138996   1.229   2.092   2.051  0.3867  1.0394 -0.1363
 5787TIP3    H238997   1.195   2.210   2.140 -1.4301  1.0611 -0.8142
 5788TIP3   OH238998   3.529   6.385   1.779  0.1540 -0.1674 -0.5582
 5788TIP3    H138999   3.507   6.301   1.819  0.0495  0.0943 -0.0612
 5788TIP3    H239000   3.539   6.445   1.853  1.6527 -0.0592 -0.8279
 5789TIP3   OH239001   5.140   4.801   1.846 -1.1322 -0.4576 -0.1196
 5789TIP3    H139002   5.116   4.872   1.905  0.4684  0.7999 -0.9020
 5789TIP3    H239003   5.114   4.721   1.892  1.2292  0.3367  2.9272
 5790TIP3   OH239004   5.715   6.472   0.260  0.2370 -0.3862 -0.1493
 5790TIP3    H139005   5.670   6.440   0.338 -0.9719  0.2221 -0.5684
 5790TIP3    H239006   5.740   6.393   0.212  0.1941 -0.7461  0.4120
 5791TIP3   OH239007   4.239   6.720   0.254  0.5679 -0.2104 -0.0287
 5791TIP3    H139008   4.211   6.741   0.343 -1.3814 -2.4194 -0.0147
 5791TIP3    H239009   4.195   6.637   0.234 -1.8879  1.8001 -4.3097
 5792TIP3   OH239010   1.310   0.535   6.808  0.0865 -0.0702  0.0984
 5792TIP3    H139011   1.266   0.547   6.724  0.4412 -0.8513 -0.2170
 5792TIP3    H239012   1.261   0.465   6.851  0.3550 -0.1862  0.2186
 5793TIP3   OH239013   1.098   5.019   2.250 -0.2796  0.4527 -0.2760
 5793TIP3    H139014   1.143   4.951   2.299  1.4267  2.3101  0.8652
 5793TIP3    H239015   1.068   4.975   2.170  2.9735 -1.1025 -0.8044
 5794TIP3   OH239016   4.547   3.922   0.131  0.6495 -0.4720 -0.4027
 5794TIP3    H139017   4.554   3.827   0.132 -0.8610 -0.6099 -0.7117
 5794TIP3    H239018   4.463   3.940   0.174  1.5855  0.8051  0.9768
 5795TIP3   OH239019   0.226   4.575   8.267 -0.4315 -0.0516  0.0199
 5795TIP3    H139020   0.241   4.640   8.336 -1.6024  0.7696 -0.4669
 5795TIP3    H239021   0.233   4.625   8.186  1.0465 -1.0289 -0.5021
 5796TIP3   OH239022   4.498   6.578   0.982 -0.0743 -0.3771  0.5715
 5796TIP3    H139023   4.435   6.610   0.917 -0.4611 -0.4988  0.8849
 5796TIP3    H239024   4.476   6.626   1.062  0.8051  0.2414  0.4613
 5797TIP3   OH239025   3.286   1.452   6.945 -0.0581 -0.4323 -0.9918
 5797TIP3    H139026   3.327   1.527   6.989 -1.1980  1.0515 -2.3494
 5797TIP3    H239027   3.327   1.450   6.858 -0.8307 -0.6899 -1.3584
 5798TIP3   OH239028   5.727   5.002   1.121 -0.0340 -0.5431  0.1167
 5798TIP3    H139029   5.704   5.066   1.189 -0.6426  1.5222 -1.8978
 5798TIP3    H239030   5.816   4.976   1.142 -0.2775 -0.1276  1.8095
 5799TIP3   OH239031   0.409   2.000   6.861 -0.0870  0.3952  0.2477
 5799TIP3    H139032   0.501   1.998   6.836  0.1380  0.9977  1.0013
 5799TIP3    H239033   0.370   2.067   6.804 -0.2040 -0.2841 -0.4966
 5800TIP3   OH239034   1.279   3.997   0.458  0.3606 -0.1581 -0.2505
 5800TIP3    H139035   1.319   4.053   0.524  0.8299  0.4423 -1.0337
 5800TIP3    H239036   1.208   3.952   0.505  1.3357 -0.5313  0.9071
 5801TIP3   OH239037   4.765   6.812   8.346 -0.6302 -0.6690  0.0788
 5801TIP3    H139038   4.802   6.744   8.402  2.3067  0.2328 -0.5936
 5801TIP3    H239039   4.760   6.889   8.402  2.0908  0.1712 -0.6831
 5802TIP3   OH239040   0.732   4.378   8.632 -0.3481 -0.1002 -0.1126
 5802TIP3    H139041   0.652   4.384   8.580  0.0282  0.8808 -0.5962
 5802TIP3    H239042   0.711   4.427   8.712  0.4103  1.9937 -1.1099
 5803TIP3   OH239043   5.295   1.956   7.292  0.3643 -0.2074  0.2950
 5803TIP3    H139044   5.276   2.001   7.210  0.7204  0.2044  0.4363
 5803TIP3    H239045   5.249   1.872   7.284  0.7276 -0.3468 -0.4960
 5804TIP3   OH239046   5.429   3.000   7.958 -0.0195 -0.5994  0.0849
 5804TIP3    H139047   5.373   3.006   8.035  0.6309  2.6189  0.4266
 5804TIP3    H239048   5.395   3.066   7.898  0.5958 -1.8029 -1.6810
 5805TIP3   OH239049   5.115   2.919   7.995  0.6266 -0.4707  0.6959
 5805TIP3    H139050   5.038   2.975   7.984  0.9429 -0.2310 -0.4571
 5805TIP3    H239051   5.181   2.976   8.033  0.1343 -0.7859  2.1008
 5806TIP3   OH239052   0.504   2.559   8.036  0.1061 -0.3388  0.2974
 5806TIP3    H139053   0.494   2.623   7.965  0.2114  0.6001  1.1169
 5806TIP3    H239054   0.574   2.594   8.091 -1.5991  0.2580  2.2239
 5807TIP3   OH239055   2.200   4.768   0.517  0.2591  0.0685 -0.0457
 5807TIP3    H139056   2.252   4.849   0.519 -0.7294  0.7416  2.2663
 5807TIP3    H239057   2.170   4.757   0.607 -2.2468 -1.1737 -0.9425
 5808TIP3   OH239058   5.248   4.352   0.736 -0.2923  0.3697  0.0866
 5808TIP3    H139059   5.318   4.359   0.800 -1.0860 -2.0227  1.3259
 5808TIP3    H239060   5.168   4.344   0.788 -1.0168 -1.1464 -1.1707
 5809TIP3   OH239061   4.696   6.461   7.909 -0.2797  0.0131 -0.6454
 5809TIP3    H139062   4.744   6.460   7.993  0.3462  0.1339 -0.9955
 5809TIP3    H239063   4.762   6.437   7.844 -0.6589  0.3738 -1.1611
 5810TIP3   OH239064   3.972   5.764   0.514  0.1583  0.3205 -0.1288
 5810TIP3    H139065   3.951   5.845   0.562 -1.0807  0.0656 -0.1951
 5810TIP3    H239066   4.057   5.738   0.548  0.5184  1.5829 -0.0005
 5811TIP3   OH239067   2.212   3.243   2.006 -0.7930 -0.1230 -0.4001
 5811TIP3    H139068   2.291   3.235   1.953 -0.5632 -2.3789  0.1545
 5811TIP3    H239069   2.211   3.334   2.034  1.0982  0.1974 -1.1960
 5812TIP3   OH239070   3.914   5.333   0.173  0.3036  0.2626 -0.6122
 5812TIP3    H139071   3.977   5.383   0.225  2.8702 -3.4133  0.1516
 5812TIP3    H239072   3.831   5.379   0.186  2.1850  3.6613  0.7476
 5813TIP3   OH239073   4.766   2.479   8.602 -0.6321  0.0309 -0.1417
 5813TIP3    H139074   4.774   2.526   8.519 -0.2120 -0.2641 -0.2725
 5813TIP3    H239075   4.800   2.539   8.667 -2.8334  1.0979  0.1395
 5814TIP3   OH239076   1.173   5.169   6.842  0.2607 -0.1622 -0.0928
 5814TIP3    H139077   1.132   5.091   6.877  2.2821 -1.5347 -0.5759
 5814TIP3    H239078   1.267   5.150   6.845  0.7115  1.1515 -2.6651
 5815TIP3   OH239079   0.874   5.370   7.397 -0.1295 -0.0683 -0.4894
 5815TIP3    H139080   0.844   5.374   7.306  1.0423  1.2046 -0.8538
 5815TIP3    H239081   0.907   5.458   7.415  0.0334 -0.4250  1.0408
 5816TIP3   OH239082   1.014   4.317   2.614  0.1525  0.1404 -0.2596
 5816TIP3    H139083   1.053   4.404   2.615  0.0529  0.2123 -1.2253
 5816TIP3    H239084   0.920   4.332   2.606 -0.3613  0.0075  3.6910
 5817TIP3   OH239085   1.706   0.853   8.707  0.4862 -0.4338  0.1003
 5817TIP3    H139086   1.759   0.879   8.782 -0.9947 -2.3409  1.9471
 5817TIP3    H239087   1.630   0.911   8.710  0.7959  0.0093 -0.4355
 5818TIP3   OH239088   6.443   1.897   7.406  0.2179  0.3125  0.1227
 5818TIP3    H139089   6.422   1.898   7.312  0.2795  1.5001  0.1004
 5818TIP3    H239090   6.445   1.990   7.430  0.9422  0.0429  1.1338
 5819TIP3   OH239091   6.811   4.285   8.514 -0.2880  0.1885  0.2328
 5819TIP3    H139092   6.778   4.204   8.552 -0.3407 -0.0424 -0.2976
 5819TIP3    H239093   6.770   4.354   8.566 -0.7559 -0.1130  0.2708
 5820TIP3   OH239094   2.032   0.159   8.056  0.4601 -0.7144  0.5668
 5820TIP3    H139095   2.012   0.082   8.108  1.2803 -0.3690  1.4457
 5820TIP3    H239096   2.128   0.166   8.060  0.4534 -0.0784 -0.1154
 5821TIP3   OH239097   4.846   1.425   0.847  0.7848 -0.2625 -0.2671
 5821TIP3    H139098   4.827   1.518   0.860  2.0694 -0.1479  1.1161
 5821TIP3    H239099   4.795   1.400   0.770 -0.4413  1.3103 -0.0054
 5822TIP3   OH239100   4.087   5.345   0.744 -0.1988  0.2997  0.1208
 5822TIP3    H139101   4.078   5.425   0.693 -0.1553  0.0556 -0.2761
 5822TIP3    H239102   4.006   5.340   0.796 -1.0444 -0.3285 -1.1953
 5823TIP3   OH239103   4.912   4.893   8.587  0.4383  0.3077  0.2354
 5823TIP3    H139104   4.819   4.880   8.573  0.2064  1.1343  0.9311
 5823TIP3    H239105   4.953   4.815   8.549 -0.3791  0.7390 -1.6366
 5824TIP3   OH239106   4.952   0.405   7.904  0.1169 -0.3103 -0.1879
 5824TIP3    H139107   4.887   0.419   7.972  0.9921 -1.2813  0.8900
 5824TIP3    H239108   4.952   0.310   7.891  0.0408 -0.1514 -1.4849
 5825TIP3   OH239109   3.278   0.834   6.496  0.8194  0.2431 -0.0612
 5825TIP3    H139110   3.322   0.789   6.567 -1.6155 -2.1948  0.0879
 5825TIP3    H239111   3.209   0.885   6.539  2.5371  3.0011 -0.3696
 5826TIP3   OH239112   1.761   1.206   0.129  0.2800 -0.0963  0.4356
 5826TIP3    H139113   1.744   1.270   0.197  1.4089 -0.5224  1.1381
 5826TIP3    H239114   1.735   1.122   0.168  1.3662 -0.4006  0.5212
 5827TIP3   OH239115   0.256   1.867   8.601  0.5511  0.5073 -0.5202
 5827TIP3    H139116   0.187   1.804   8.621 -0.4521  1.6532 -0.2629
 5827TIP3    H239117   0.222   1.917   8.527  2.1519 -0.4750 -1.9852
 5828TIP3   OH239118   3.918   3.492   2.518 -0.0929 -0.2081 -0.0372
 5828TIP3    H139119   3.943   3.584   2.514  0.0173 -0.2545 -0.4107
 5828TIP3    H239120   3.862   3.479   2.442 -0.6012 -0.3030  0.3459
 5829TIP3   OH239121   5.651   5.037   0.848  0.1565 -0.0605 -0.0449
 5829TIP3    H139122   5.710   4.989   0.790  0.5917  0.0888  0.2744
 5829TIP3    H239123   5.692   5.033   0.934 -1.6394 -2.3127  0.7986
 5830TIP3   OH239124   2.917   2.648   8.183 -0.3245  0.6339  0.2029
 5830TIP3    H139125   2.862   2.725   8.169 -0.7259  0.2116 -0.6433
 5830TIP3    H239126   2.922   2.638   8.278 -4.0466 -0.9331  0.4040
 5831TIP3   OH239127   1.839   1.735   8.519  0.0804  0.4382  0.1963
 5831TIP3    H139128   1.778   1.784   8.574 -0.1789  0.0964  0.2190
 5831TIP3    H239129   1.925   1.772   8.539  0.1836 -0.6153  1.9034
 5832TIP3   OH239130   2.962   5.510   1.441 -0.6581  0.2261 -0.6150
 5832TIP3    H139131   2.983   5.525   1.533 -0.2003  1.6914 -0.9285
 5832TIP3    H239132   3.015   5.574   1.393 -1.6739  0.2230 -1.8193
 5833TIP3   OH239133   3.953   1.397   1.301  0.0760 -0.2638  0.2986
 5833TIP3    H139134   3.982   1.487   1.312  1.6231 -0.7808  0.8566
 5833TIP3    H239135   3.969   1.356   1.386 -0.2712 -1.1420 -0.0468
 5834TIP3   OH239136   0.782   0.748   6.853 -0.6787 -0.4857  0.1676
 5834TIP3    H139137   0.866   0.791   6.868 -0.1780 -1.3769 -0.0157
 5834TIP3    H239138   0.775   0.740   6.758 -0.5312 -1.2376  0.2092
 5835TIP3   OH239139   2.459   3.504   2.216  0.3394 -0.5923  0.1122
 5835TIP3    H139140   2.535   3.508   2.275  0.9772 -0.0140 -0.7274
 5835TIP3    H239141   2.493   3.464   2.136 -0.8244 -2.6196  0.5531
 5836TIP3   OH239142   6.760   3.027   7.831  0.0976  0.3050  1.0097
 5836TIP3    H139143   6.820   3.007   7.759 -1.8409  0.8010 -0.8210
 5836TIP3    H239144   6.751   2.945   7.878  1.1937 -0.1047  0.5430
 5837TIP3   OH239145   3.079   3.177   2.171  0.0608 -0.4508  0.1261
 5837TIP3    H139146   3.080   3.146   2.080  0.5330 -1.9364  0.6025
 5837TIP3    H239147   3.044   3.103   2.221 -1.5964  0.8825  1.0010
 5838TIP3   OH239148   5.397   1.078   6.836  0.2702  0.4180 -0.2826
 5838TIP3    H139149   5.360   1.037   6.915  1.9366  1.2881  1.0178
 5838TIP3    H239150   5.421   1.004   6.781  0.6650 -0.2817  0.7914
 5839TIP3   OH239151   0.953   4.000   1.905 -0.0584 -0.0434  0.0577
 5839TIP3    H139152   0.940   4.094   1.901 -0.7751 -0.0729  1.3190
 5839TIP3    H239153   0.906   3.966   1.829  0.3787  0.6152 -0.5227
 5840TIP3   OH239154   2.569   2.153   6.656  0.2025  0.0768  0.8456
 5840TIP3    H139155   2.585   2.119   6.567 -0.3176 -0.0078  0.7829
 5840TIP3    H239156   2.506   2.092   6.694  0.7983 -0.1763  1.4596
 5841TIP3   OH239157   5.609   2.902   1.868 -0.3182  0.3937  0.0885
 5841TIP3    H139158   5.522   2.871   1.843  0.5452 -0.1252 -2.5358
 5841TIP3    H239159   5.607   2.996   1.849 -0.1172  0.2651 -0.5825
 5842TIP3   OH239160   1.848   4.965   1.822 -0.0015 -0.0853 -0.2578
 5842TIP3    H139161   1.841   4.891   1.882 -2.5983  0.1874 -0.1227
 5842TIP3    H239162   1.766   4.964   1.774  1.5415  0.3550 -3.1196
 5843TIP3   OH239163   3.569   2.312   0.282  0.2519  0.1240  0.4289
 5843TIP3    H139164   3.598   2.403   0.274 -1.9887  0.8313 -0.3319
 5843TIP3    H239165   3.521   2.309   0.365  2.5504 -1.1044  1.8284
 5844TIP3   OH239166   3.332   0.039   1.071  0.2460 -0.2076  0.5796
 5844TIP3    H139167   3.408   0.004   1.025 -0.3854  2.0908 -2.5506
 5844TIP3    H239168   3.264   0.045   1.004 -2.1065 -0.2497  2.7866
 5845TIP3   OH239169   1.342   5.801   2.250 -0.0844  0.4068  0.1794
 5845TIP3    H139170   1.299   5.778   2.168  0.0585  1.8199 -0.3007
 5845TIP3    H239171   1.420   5.745   2.253 -0.7878 -0.6017  0.0115
 5846TIP3   OH239172   1.589   2.104   2.003 -0.4349 -0.0987 -0.1366
 5846TIP3    H139173   1.563   2.067   2.087 -1.6980  1.9801  0.4897
 5846TIP3    H239174   1.517   2.163   1.980  1.2062  1.5946 -1.2336
 5847TIP3   OH239175   2.081   5.333   8.304  0.1083  0.1187 -0.1398
 5847TIP3    H139176   2.089   5.428   8.306  3.2221 -0.0723  0.2861
 5847TIP3    H239177   2.112   5.304   8.389 -0.6656 -1.3321 -0.3179
 5848TIP3   OH239178   4.219   5.012   7.126 -0.6097 -0.3805 -0.1072
 5848TIP3    H139179   4.207   4.984   7.035 -1.8168 -0.6091  0.1156
 5848TIP3    H239180   4.167   4.950   7.177  1.2180 -1.1639  0.8940
 5849TIP3   OH239181   5.136   0.505   6.788  0.5516  0.4737 -0.3075
 5849TIP3    H139182   5.205   0.568   6.767  0.4504  0.7623  0.1970
 5849TIP3    H239183   5.163   0.424   6.744  1.3322  0.5152  0.0784
 5850TIP3   OH239184   5.594   0.516   8.495 -0.1435  0.1538  0.7916
 5850TIP3    H139185   5.684   0.545   8.482 -0.6039  0.9649 -0.8079
 5850TIP3    H239186   5.602   0.442   8.556  1.8884 -1.4857 -1.2922
 5851TIP3   OH239187   0.558   6.449   2.508 -0.1405  0.7438 -0.5319
 5851TIP3    H139188   0.464   6.440   2.494 -0.1255  0.0028 -0.2167
 5851TIP3    H239189   0.567   6.522   2.569 -0.5203  0.7096 -0.4338
 5852TIP3   OH239190   0.710   1.540   8.378 -0.3862  0.3531  0.1009
 5852TIP3    H139191   0.667   1.469   8.329 -1.2818  1.4450 -0.7373
 5852TIP3    H239192   0.796   1.504   8.401 -0.7663 -0.9567 -0.4192
 5853TIP3   OH239193   6.845   4.652   0.989  0.3126  0.3324  0.2425
 5853TIP3    H139194   6.935   4.646   1.021  0.2877 -0.5954  0.1773
 5853TIP3    H239195   6.853   4.651   0.893  0.2310  0.0594  0.2361
 5854TIP3   OH239196   1.156   3.440   7.517  0.2658  0.9006 -0.5045
 5854TIP3    H139197   1.091   3.502   7.483 -0.2719 -0.0224 -1.2164
 5854TIP3    H239198   1.239   3.468   7.477 -0.0343  0.9661 -1.0918
 5855TIP3   OH239199   4.419   1.539   8.539 -0.1277 -0.0761  0.2407
 5855TIP3    H139200   4.426   1.633   8.524 -0.7590  0.2361  1.7193
 5855TIP3    H239201   4.502   1.514   8.579  0.1230 -0.2034 -0.3440
 5856TIP3   OH239202   4.751   1.694   0.772  0.5544 -0.2799 -0.3553
 5856TIP3    H139203   4.655   1.692   0.776  0.4691 -2.3933 -1.7677
 5856TIP3    H239204   4.771   1.753   0.699  0.3252 -0.1050 -0.2780
 5857TIP3   OH239205   4.468   6.236   1.355  0.0981 -0.0011 -0.5027
 5857TIP3    H139206   4.558   6.230   1.326  0.8779  0.3418  1.6638
 5857TIP3    H239207   4.464   6.180   1.433 -1.7382 -0.5422 -0.9164
 5858TIP3   OH239208   6.524   5.145   2.938  0.2865  0.3392 -0.1869
 5858TIP3    H139209   6.613   5.173   2.956 -0.1788  0.5459  2.0240
 5858TIP3    H239210   6.529   5.050   2.932  0.3784  0.1831  1.9179
 5859TIP3   OH239211   6.648   4.481   0.370  0.1181 -0.5744  0.9630
 5859TIP3    H139212   6.608   4.465   0.456 -0.7952 -0.0751  0.6437
 5859TIP3    H239213   6.664   4.575   0.368 -0.6804 -0.4389  0.2573
 5860TIP3   OH239214   3.088   0.933   0.245  0.0114 -0.4910  0.2258
 5860TIP3    H139215   3.007   0.911   0.199 -1.1136  2.6675  0.4878
 5860TIP3    H239216   3.060   0.975   0.326  1.9456 -0.7536  1.0904
 5861TIP3   OH239217   2.527   3.499   7.677 -0.6285  0.4931 -0.1004
 5861TIP3    H139218   2.541   3.594   7.674 -2.1557  0.7801  0.8088
 5861TIP3    H239219   2.579   3.470   7.752  0.9045  0.3672 -1.1609
 5862TIP3   OH239220   4.971   1.184   8.219  0.3008 -0.1356 -0.3317
 5862TIP3    H139221   4.932   1.105   8.256 -2.5727  0.9967 -0.6893
 5862TIP3    H239222   4.960   1.174   8.124  0.2429  0.5118 -0.3997
 5863TIP3   OH239223   2.197   3.492   2.161  0.1677 -0.2222  0.5938
 5863TIP3    H139224   2.161   3.578   2.143  0.5857  0.1126  1.3323
 5863TIP3    H239225   2.275   3.508   2.214  0.8460 -0.9967 -0.1432
 5864TIP3   OH239226   0.141   0.936   7.655  0.0484 -0.3805 -0.5569
 5864TIP3    H139227   0.178   0.949   7.742 -0.5257 -0.9988 -0.2103
 5864TIP3    H239228   0.137   0.841   7.644 -0.9648 -0.3285 -0.7825
 5865TIP3   OH239229   6.836   5.199   1.183 -0.3946 -0.1519  0.5492
 5865TIP3    H139230   6.919   5.200   1.134 -0.0128  0.5838  1.1932
 5865TIP3    H239231   6.842   5.122   1.238 -0.8333 -0.9993 -0.5572
 5866TIP3   OH239232   3.410   4.139   0.819  0.1649  0.1232  0.1779
 5866TIP3    H139233   3.349   4.115   0.889 -0.0576 -0.2536 -0.1408
 5866TIP3    H239234   3.418   4.059   0.766  0.0187  0.5255 -0.4558
 5867TIP3   OH239235   1.787   1.288   7.171  0.5002  0.9272  0.0936
 5867TIP3    H139236   1.852   1.225   7.141 -1.5402 -0.2289 -2.2046
 5867TIP3    H239237   1.718   1.285   7.105 -1.7711  2.3100  2.2417
 5868TIP3   OH239238   4.670   3.199   0.709 -0.1708 -0.1261  0.1137
 5868TIP3    H139239   4.673   3.106   0.686 -0.0093  0.0820 -0.7252
 5868TIP3    H239240   4.619   3.240   0.640  1.3148  0.6926 -0.5457
 5869TIP3   OH239241   4.265   6.550   7.837 -0.6541 -0.4447 -0.2368
 5869TIP3    H139242   4.320   6.628   7.828  1.8559 -1.8950  1.3408
 5869TIP3    H239243   4.228   6.556   7.926 -0.3997 -1.0668 -0.0847
 5870TIP3   OH239244   4.614   1.240   1.564 -0.3800 -0.8859  0.2832
 5870TIP3    H139245   4.552   1.295   1.515  1.3629  0.2656 -0.7398
 5870TIP3    H239246   4.686   1.299   1.586 -0.1676 -1.9044  2.4958
 5871TIP3   OH239247   5.020   3.273   1.454 -0.3789  0.2181 -0.1933
 5871TIP3    H139248   5.015   3.247   1.362  0.9165 -2.6335  0.4201
 5871TIP3    H239249   4.931   3.265   1.487 -0.3547 -1.9777 -0.5074
 5872TIP3   OH239250   2.859   0.353   1.605 -0.1260 -0.0835  0.1018
 5872TIP3    H139251   2.872   0.299   1.528 -0.8043  2.2801 -1.8064
 5872TIP3    H239252   2.944   0.396   1.619  0.1670 -0.9453  1.0766
 5873TIP3   OH239253   1.738   0.285   7.268 -0.4508  0.2797 -0.1932
 5873TIP3    H139254   1.678   0.261   7.197  1.1344 -1.8849 -0.8933
 5873TIP3    H239255   1.816   0.317   7.224  0.0288  0.2485  0.6186
 5874TIP3   OH239256   1.998   4.729   7.559 -0.5415 -0.5997  0.1648
 5874TIP3    H139257   1.908   4.733   7.524 -0.1099  1.5525 -0.8298
 5874TIP3    H239258   1.991   4.764   7.647 -0.6639 -0.3654  0.0623
 5875TIP3   OH239259   3.562   5.032   1.152  0.0839 -0.1663  0.1073
 5875TIP3    H139260   3.633   5.007   1.211 -0.3475 -2.0304 -0.1073
 5875TIP3    H239261   3.535   4.950   1.111 -0.2552  0.9468 -2.0175
 5876TIP3   OH239262   6.465   1.039   8.512 -0.3202  0.0406  0.3308
 5876TIP3    H139263   6.436   1.083   8.432  2.3782  2.4486  0.5227
 5876TIP3    H239264   6.497   0.954   8.483 -1.7507 -0.1815 -0.7058
 5877TIP3   OH239265   3.501   6.227   7.588 -0.1070  0.0581  0.0809
 5877TIP3    H139266   3.526   6.242   7.497  2.1942 -1.9979  0.2485
 5877TIP3    H239267   3.419   6.178   7.583 -0.5924  0.9318 -0.8123
 5878TIP3   OH239268   2.686   1.645   8.378 -0.1040 -0.1656  0.1669
 5878TIP3    H139269   2.775   1.634   8.411 -0.4650  0.5060  1.4280
 5878TIP3    H239270   2.688   1.730   8.335  0.0398 -0.4766 -0.4532
 5879TIP3   OH239271   0.969   3.177   7.249  0.0955 -0.1296  0.1430
 5879TIP3    H139272   0.972   3.088   7.284  0.7623 -0.6622 -1.1932
 5879TIP3    H239273   0.888   3.214   7.285  0.3347 -0.9068  1.5387
 5880TIP3   OH239274   2.738   5.870   8.347 -0.2342 -0.0320 -0.0748
 5880TIP3    H139275   2.676   5.931   8.386 -0.6430 -0.2357 -0.3960
 5880TIP3    H239276   2.769   5.817   8.420  1.6984  1.8694  0.5894
 5881TIP3   OH239277   1.351   1.676   0.279  0.0137 -0.2254 -0.1461
 5881TIP3    H139278   1.347   1.702   0.371  1.6610  0.2248 -0.1797
 5881TIP3    H239279   1.286   1.732   0.236  2.1474  2.6803  0.0969
 5882TIP3   OH239280   0.465   1.715   8.769  0.3533  0.3088 -0.3241
 5882TIP3    H139281   0.537   1.736   8.710 -0.1927  1.3458 -0.6458
 5882TIP3    H239282   0.388   1.756   8.729  0.1272  1.8928  1.5670
 5883TIP3   OH239283   3.855   0.200   8.005 -0.2094 -0.1094  0.6025
 5883TIP3    H139284   3.789   0.139   8.037  0.2934 -0.6590  0.6027
 5883TIP3    H239285   3.891   0.239   8.084 -0.9312  0.6319  0.5836
 5884TIP3   OH239286   2.423   3.634   8.622  0.0473 -0.1138 -0.5841
 5884TIP3    H139287   2.501   3.593   8.585 -1.3336 -2.4134 -1.1821
 5884TIP3    H239288   2.404   3.583   8.701 -1.0213  0.1782 -0.6375
 5885TIP3   OH239289   5.553   6.749   8.556 -0.5133 -0.0987  0.0033
 5885TIP3    H139290   5.630   6.695   8.570  0.1858  0.8642 -0.0377
 5885TIP3    H239291   5.567   6.827   8.610 -1.2727  0.2638 -0.2935
 5886TIP3   OH239292   0.485   4.827   8.689  0.2855 -0.3038 -0.2979
 5886TIP3    H139293   0.517   4.829   8.779  1.5453 -1.8753 -0.6726
 5886TIP3    H239294   0.529   4.900   8.646 -0.8967  0.9289  0.4929
 5887TIP3   OH239295   4.085   5.575   8.751  0.3452  0.6329 -0.4074
 5887TIP3    H139296   4.028   5.499   8.738  0.7792  0.5893 -2.2330
 5887TIP3    H239297   4.152   5.544   8.811  0.4412 -0.3935 -1.0317
 5888TIP3   OH239298   3.847   4.715   2.455 -0.2255 -0.4231  0.1224
 5888TIP3    H139299   3.875   4.662   2.530  0.9687 -0.2889 -0.2044
 5888TIP3    H239300   3.777   4.664   2.415  1.1429 -1.9660 -0.4037
 5889TIP3   OH239301   6.644   0.297   8.763 -0.1891  0.2688 -0.1373
 5889TIP3    H139302   6.685   0.361   8.821 -0.1784  0.7962 -0.7094
 5889TIP3    H239303   6.565   0.341   8.731 -1.0545 -0.6141  0.7011
 5890TIP3   OH239304   3.344   4.995   2.237  0.4403  0.3087 -0.4331
 5890TIP3    H139305   3.366   4.967   2.326 -0.4946 -1.6547 -0.7707
 5890TIP3    H239306   3.248   5.003   2.238  0.5343  1.8889 -0.8556
 5891TIP3   OH239307   4.246   1.735   0.969 -0.1817  0.4493  0.0103
 5891TIP3    H139308   4.165   1.689   0.991 -1.4300  2.2110 -0.6577
 5891TIP3    H239309   4.217   1.812   0.919  1.9646  0.7290 -0.9113
 5892TIP3   OH239310   1.429   0.165   2.010  0.6412 -0.3434 -0.3433
 5892TIP3    H139311   1.425   0.216   1.929  1.0522  0.6620  0.2615
 5892TIP3    H239312   1.404   0.226   2.079 -0.2529 -1.3337  0.2536
 5893TIP3   OH239313   2.620   6.146   8.396  0.4191  0.6534 -0.4865
 5893TIP3    H139314   2.627   6.230   8.440 -0.7962  0.6475 -0.2460
 5893TIP3    H239315   2.577   6.089   8.460  1.2215 -0.1523 -0.6479
 5894TIP3   OH239316   1.942   4.050   1.902 -0.1547  0.3927  0.0881
 5894TIP3    H139317   1.858   4.097   1.905 -0.5110 -0.2581  1.0293
 5894TIP3    H239318   1.977   4.058   1.991  0.3242 -0.1499 -0.0433
 5895TIP3   OH239319   1.103   0.890   8.681  0.4557 -0.2618  0.2215
 5895TIP3    H139320   1.011   0.864   8.668  0.2639 -0.4396  1.7723
 5895TIP3    H239321   1.100   0.985   8.689  0.2273 -0.3539  1.4346
 5896TIP3   OH239322   5.177   3.475   1.533 -0.1122 -0.2544 -0.2899
 5896TIP3    H139323   5.244   3.425   1.581 -0.3431 -2.0159 -1.6965
 5896TIP3    H239324   5.133   3.410   1.479  0.0740  1.5878 -2.8264
 5897TIP3   OH239325   0.808   0.277   0.332 -0.9539 -0.0666  0.3564
 5897TIP3    H139326   0.859   0.252   0.255 -2.1056 -0.7029 -0.2190
 5897TIP3    H239327   0.789   0.195   0.377  0.4480  0.3586  1.8499
 5898TIP3   OH239328   6.334   3.515   8.193 -0.3298 -0.5483 -0.8342
 5898TIP3    H139329   6.428   3.512   8.208 -0.3841  0.2289 -0.3159
 5898TIP3    H239330   6.325   3.531   8.099  0.0385 -1.3307 -1.0145
 5899TIP3   OH239331   0.610   5.178   0.853 -0.4526 -0.0393 -0.1148
 5899TIP3    H139332   0.537   5.231   0.821  0.8138  0.5983 -2.1213
 5899TIP3    H239333   0.602   5.095   0.807  0.5138  0.3298 -0.9924
 5900TIP3   OH239334   6.377   5.189   7.251 -0.5027 -0.0847 -0.8731
 5900TIP3    H139335   6.393   5.123   7.318 -0.9232  0.1741 -0.5145
 5900TIP3    H239336   6.304   5.154   7.200 -1.4725  0.5868 -0.0042
 5901TIP3   OH239337   0.732   5.650   0.598  0.4285  0.6452 -0.0568
 5901TIP3    H139338   0.714   5.712   0.528 -2.1054 -0.3184 -0.3425
 5901TIP3    H239339   0.791   5.697   0.657 -1.6858  3.4930 -0.0448
 5902TIP3   OH239340   2.084   1.892   8.552 -0.3757 -0.3292  0.1075
 5902TIP3    H139341   2.163   1.838   8.548 -1.0680 -1.3061 -2.9519
 5902TIP3    H239342   2.070   1.921   8.462 -3.5208 -0.2329  0.5013
 5903TIP3   OH239343   2.934   3.743   1.299 -0.3499 -0.1320  0.2273
 5903TIP3    H139344   2.946   3.780   1.386  0.7933  2.3663 -0.8869
 5903TIP3    H239345   2.839   3.737   1.289 -0.5018 -0.0201  1.4731
 5904TIP3   OH239346   2.166   4.127   8.502 -0.1014  0.0191 -0.5583
 5904TIP3    H139347   2.144   4.208   8.457  0.2775 -0.0270 -0.8343
 5904TIP3    H239348   2.176   4.063   8.431  0.2730 -0.1070 -0.3938
 5905TIP3   OH239349   5.847   0.311   0.051 -0.0034 -0.5901  0.4462
 5905TIP3    H139350   5.867   0.233   0.103  0.6335 -0.6418  0.1229
 5905TIP3    H239351   5.752   0.307   0.037  0.1801 -1.8895 -0.5091
 5906TIP3   OH239352   2.640   6.538   7.097 -0.4693  0.4025 -0.2811
 5906TIP3    H139353   2.629   6.574   7.009  0.2660  0.8970 -0.1848
 5906TIP3    H239354   2.557   6.556   7.141 -0.7815  0.2997 -0.8239
 5907TIP3   OH239355   1.618   2.189   0.025  0.5147 -0.0663 -0.2636
 5907TIP3    H139356   1.683   2.220   0.088  0.5592 -0.5043 -0.0908
 5907TIP3    H239357   1.569   2.122   0.073  0.4186 -0.2576 -0.6309
 5908TIP3   OH239358   0.785   6.610   1.578  0.4638 -0.3118  0.1912
 5908TIP3    H139359   0.836   6.532   1.556  2.1380  0.6542  0.4459
 5908TIP3    H239360   0.774   6.604   1.673  0.5299 -0.2868  0.2010
 5909TIP3   OH239361   3.214   0.930   6.233  0.3056  0.2018  0.1258
 5909TIP3    H139362   3.297   0.959   6.195  0.1065  1.6021  0.6948
 5909TIP3    H239363   3.237   0.901   6.321  0.0270  1.9311  0.8091
 5910TIP3   OH239364   2.200   1.453   1.463 -0.4246  0.3624  0.6798
 5910TIP3    H139365   2.165   1.541   1.454  0.5238  0.7121  0.2333
 5910TIP3    H239366   2.206   1.438   1.557  1.8966  1.8340  0.8389
 5911TIP3   OH239367   4.906   0.194   8.516 -0.3856 -0.3826  0.2109
 5911TIP3    H139368   4.979   0.213   8.457 -1.7481 -1.5614 -1.9912
 5911TIP3    H239369   4.828   0.222   8.468 -1.4453  0.7037  2.4405
 5912TIP3   OH239370   1.957   1.598   0.773  0.3001  0.0815 -0.0766
 5912TIP3    H139371   1.872   1.577   0.811 -0.7926 -0.1739 -2.4977
 5912TIP3    H239372   1.946   1.685   0.734  0.2201 -0.9983 -2.7087
 5913TIP3   OH239373   4.322   3.522   0.379  0.0376  0.4905  0.5330
 5913TIP3    H139374   4.254   3.564   0.432  1.4597  1.2887  1.8396
 5913TIP3    H239375   4.275   3.475   0.311 -1.8509  0.1568  1.9971
 5914TIP3   OH239376   4.138   2.555   2.481  0.4397 -0.4504  0.1674
 5914TIP3    H139377   4.219   2.508   2.461 -0.4963 -1.9495 -0.2274
 5914TIP3    H239378   4.074   2.519   2.420 -0.9134 -0.4449  1.5527
 5915TIP3   OH239379   6.358   0.539   8.337  0.4317 -0.0600  0.0100
 5915TIP3    H139380   6.326   0.478   8.270 -2.3784 -0.3302  1.4434
 5915TIP3    H239381   6.417   0.487   8.392 -0.9893 -1.2186  0.4957
 5916TIP3   OH239382   4.762   6.696   6.877  0.4606  0.0226  0.3773
 5916TIP3    H139383   4.779   6.622   6.934 -1.4253 -0.7335  0.0576
 5916TIP3    H239384   4.824   6.686   6.804  1.5181 -0.1191  1.2759
 5917TIP3   OH239385   5.812   0.832   7.463 -0.1970 -0.1846 -0.3974
 5917TIP3    H139386   5.874   0.870   7.524 -0.0649 -1.0334  0.0081
 5917TIP3    H239387   5.819   0.886   7.384  0.7185 -0.0059 -0.1952
 5918TIP3   OH239388   0.800   6.554   7.162  0.2433  0.0960 -0.4557
 5918TIP3    H139389   0.758   6.638   7.141 -0.4193 -0.3358 -0.9050
 5918TIP3    H239390   0.861   6.575   7.233  0.5049  1.0665 -0.9519
 5919TIP3   OH239391   4.596   2.447   1.069  0.5109 -0.3127 -0.0813
 5919TIP3    H139392   4.668   2.423   1.011 -1.6275 -3.8016 -1.5577
 5919TIP3    H239393   4.569   2.365   1.110 -1.3386  1.2219  2.0150
 5920TIP3   OH239394   6.792   4.561   6.729  0.2176  0.0404 -0.5303
 5920TIP3    H139395   6.809   4.613   6.808 -2.9870  0.2578  0.1554
 5920TIP3    H239396   6.829   4.475   6.749  1.0360  0.5980  0.4482
 5921TIP3   OH239397   6.612   5.032   6.678 -0.4756 -0.0360 -0.3971
 5921TIP3    H139398   6.556   5.108   6.661 -0.5239  0.0302  0.0459
 5921TIP3    H239399   6.665   5.023   6.599 -1.1190 -0.1042 -0.8275
 5922TIP3   OH239400   0.795   2.216   8.150 -0.4068  0.9777 -0.0138
 5922TIP3    H139401   0.824   2.231   8.060  0.8388  1.1928  0.4080
 5922TIP3    H239402   0.872   2.180   8.195 -0.8305  1.4057  1.0997
 5923TIP3   OH239403   2.313   2.573   8.144  0.4928  0.4128 -0.4798
 5923TIP3    H139404   2.326   2.481   8.166  0.4909  0.6635  0.6210
 5923TIP3    H239405   2.226   2.594   8.177  1.6591  1.5962  2.2245
 5924TIP3   OH239406   6.752   0.201   0.811 -0.5513  1.1188 -0.4673
 5924TIP3    H139407   6.725   0.158   0.730  1.0759  1.7409 -1.3866
 5924TIP3    H239408   6.846   0.216   0.800  0.9312 -3.0556  3.4822
 5925TIP3   OH239409   2.764   0.914   7.791 -0.4495 -0.1608  0.0124
 5925TIP3    H139410   2.702   0.966   7.739  0.3092  0.7985  0.0305
 5925TIP3    H239411   2.744   0.938   7.882 -1.1838 -1.1624  0.1298
 5926TIP3   OH239412   1.316   0.245   8.392  0.0128 -0.3431 -0.2244
 5926TIP3    H139413   1.392   0.303   8.400 -0.6373  0.2998  1.8691
 5926TIP3    H239414   1.257   0.273   8.462 -1.7932 -1.3964 -1.2584
 5927TIP3   OH239415   2.362   5.717   1.532 -0.6110 -0.9838  0.1470
 5927TIP3    H139416   2.434   5.750   1.586 -2.3223 -1.3323  2.7997
 5927TIP3    H239417   2.383   5.624   1.519  0.2606 -0.6982 -0.6381
 5928TIP3   OH239418   4.656   1.848   0.567  0.2324  0.9536 -0.1765
 5928TIP3    H139419   4.637   1.791   0.492  0.3108 -2.3632  2.1294
 5928TIP3    H239420   4.572   1.859   0.611  0.8173 -0.6325  1.4466
 5929TIP3   OH239421   6.222   6.026   8.029 -0.1263 -0.2823 -0.0032
 5929TIP3    H139422   6.137   6.067   8.042 -0.3162 -0.3054 -1.0249
 5929TIP3    H239423   6.233   6.023   7.933  0.4566 -1.4167  0.0774
 5930TIP3   OH239424   3.654   4.473   0.603  0.4854 -0.1572  0.7600
 5930TIP3    H139425   3.638   4.410   0.673  1.0697  0.3597  1.3688
 5930TIP3    H239426   3.713   4.538   0.641  0.7202  0.1999 -0.1744
 5931TIP3   OH239427   3.016   2.472   1.607  0.1465  0.1446 -0.0174
 5931TIP3    H139428   2.925   2.491   1.586 -0.1151 -1.2137 -0.1756
 5931TIP3    H239429   3.066   2.541   1.562 -0.8771  2.0352  1.6157
 5932TIP3   OH239430   0.181   1.396   0.821 -0.8515 -0.7884  0.5445
 5932TIP3    H139431   0.243   1.355   0.881 -3.3263 -2.7964  1.9508
 5932TIP3    H239432   0.096   1.357   0.844 -2.7797  2.2489 -0.8075
 5933TIP3   OH239433   2.019   1.831   1.056  0.0743  0.2564  1.0706
 5933TIP3    H139434   2.059   1.744   1.056  2.3440  1.1247 -2.0326
 5933TIP3    H239435   1.937   1.820   1.104 -0.8480 -4.1498 -1.0020
 5934TIP3   OH239436   5.406   2.095   2.587 -0.2374 -0.2480 -0.6859
 5934TIP3    H139437   5.489   2.082   2.543  0.3151 -1.8851  0.7339
 5934TIP3    H239438   5.340   2.070   2.522  0.4851 -1.2223 -1.0644
 5935TIP3   OH239439   4.984   3.691   7.781  0.3366 -0.1745  0.1271
 5935TIP3    H139440   4.894   3.658   7.778 -0.3875  1.7200 -1.0142
 5935TIP3    H239441   4.986   3.745   7.860  0.8090 -1.0054  0.7014
 5936TIP3   OH239442   3.085   3.668   0.085 -0.7175 -0.4859  0.6891
 5936TIP3    H139443   3.033   3.747   0.068 -0.1764 -0.4646 -1.0899
 5936TIP3    H239444   3.142   3.692   0.158 -1.2533  0.4287  0.8203
 5937TIP3   OH239445   5.145   0.815   7.097  0.0467 -0.2859  0.3121
 5937TIP3    H139446   5.235   0.848   7.095 -0.3427  0.9103  1.1636
 5937TIP3    H239447   5.154   0.720   7.096  1.3591 -0.1882  1.0405
 5938TIP3   OH239448   2.696   2.335   6.796 -0.4635  0.0777  0.0934
 5938TIP3    H139449   2.632   2.372   6.857 -0.7982  0.0627 -0.2469
 5938TIP3    H239450   2.644   2.276   6.741  0.2547 -1.9908  1.5128
 5939TIP3   OH239451   1.636   5.965   1.803  0.0224  0.1540  0.5616
 5939TIP3    H139452   1.544   5.941   1.805 -0.6710  2.4669 -0.0299
 5939TIP3    H239453   1.664   5.963   1.895 -0.9662  0.5918  0.8784
 5940TIP3   OH239454   3.110   4.764   0.898 -0.2393  0.3524  0.6107
 5940TIP3    H139455   3.070   4.721   0.974  0.0767  1.6838  1.5738
 5940TIP3    H239456   3.062   4.729   0.823 -0.4204 -1.1572  1.3981
 5941TIP3   OH239457   1.790   5.751   7.612  0.1649  0.6258 -0.4010
 5941TIP3    H139458   1.759   5.803   7.686 -1.4432 -2.0038  0.9028
 5941TIP3    H239459   1.714   5.743   7.555  0.2985 -0.4723 -0.4410
 5942TIP3   OH239460   2.771   2.374   0.837 -0.1143 -0.6323 -0.0074
 5942TIP3    H139461   2.690   2.407   0.876 -0.2040  0.2179 -0.8915
 5942TIP3    H239462   2.780   2.286   0.874 -0.6952 -0.2249  1.1808
 5943TIP3   OH239463   0.706   0.650   1.381 -0.2281  0.0624  0.2909
 5943TIP3    H139464   0.731   0.566   1.343 -1.2722 -0.1121 -0.0318
 5943TIP3    H239465   0.772   0.666   1.448  1.0708 -0.1060 -0.8907
 5944TIP3   OH239466   2.705   0.355   7.603  0.8168  0.1693 -0.0440
 5944TIP3    H139467   2.669   0.438   7.635 -0.7760 -0.9174  1.1794
 5944TIP3    H239468   2.662   0.342   7.518 -0.1136 -0.1047  0.4548
 5945TIP3   OH239469   6.325   1.314   2.466 -0.3909  0.2447  0.3844
 5945TIP3    H139470   6.266   1.307   2.541 -0.5254  1.0988  0.3625
 5945TIP3    H239471   6.393   1.249   2.484 -1.2661 -0.6724  0.4669
 5946TIP3   OH239472   4.936   1.852   7.418 -0.0960 -0.1396  0.2257
 5946TIP3    H139473   4.876   1.813   7.481  1.3534 -1.1388  1.0596
 5946TIP3    H239474   4.905   1.941   7.407 -0.8835 -0.1881  1.7406
 5947TIP3   OH239475   1.433   3.658   7.657 -0.1024 -0.0322  0.1656
 5947TIP3    H139476   1.454   3.747   7.631 -0.7419  0.5364  1.4866
 5947TIP3    H239477   1.451   3.605   7.579 -0.3452  1.3324 -0.8566
 5948TIP3   OH239478   3.266   3.584   1.047  0.0738 -0.5941  0.0604
 5948TIP3    H139479   3.286   3.553   0.959  1.0272 -0.2806  0.1536
 5948TIP3    H239480   3.170   3.580   1.053  0.0658 -1.8806 -0.5247
 5949TIP3   OH239481   4.853   5.325   2.080 -0.4477 -0.3125  0.1634
 5949TIP3    H139482   4.932   5.272   2.070 -0.2806 -0.2730  1.1976
 5949TIP3    H239483   4.854   5.353   2.171 -1.0165  0.7183 -0.1346
 5950TIP3   OH239484   2.193   3.143   1.416 -0.6175  0.4665  0.1133
 5950TIP3    H139485   2.218   3.051   1.428  2.0668  0.9600 -1.1064
 5950TIP3    H239486   2.100   3.139   1.393 -0.6280 -1.9077  0.2974
 5951TIP3   OH239487   5.697   2.290   0.154  0.1285 -0.1205 -0.1835
 5951TIP3    H139488   5.737   2.213   0.193  0.2213 -0.7062 -1.3966
 5951TIP3    H239489   5.669   2.262   0.067 -1.2697  0.7815 -0.0598
 5952TIP3   OH239490   6.762   2.153   2.224  0.2209  0.0267 -0.0369
 5952TIP3    H139491   6.848   2.137   2.263  0.2310 -2.6670 -0.9535
 5952TIP3    H239492   6.700   2.133   2.294  0.3150  0.8485  0.2849
 5953TIP3   OH239493   3.066   1.049   1.674 -0.0132  0.3811  0.0110
 5953TIP3    H139494   3.122   0.980   1.712  1.0017  0.0509 -1.9583
 5953TIP3    H239495   3.103   1.131   1.708  1.2917  0.1259 -0.7309
 5954TIP3   OH239496   5.114   2.680   1.466 -0.6528 -0.0051 -0.2288
 5954TIP3    H139497   5.092   2.753   1.407  0.7184  0.6901  0.0785
 5954TIP3    H239498   5.104   2.717   1.554  0.9764  0.1233 -0.0790
 5955TIP3   OH239499   6.225   0.306   0.500 -0.0577 -0.3334 -0.8088
 5955TIP3    H139500   6.204   0.234   0.560  2.1002 -1.9786 -1.8665
 5955TIP3    H239501   6.296   0.353   0.543  0.2521 -0.4006 -1.2448
 5956TIP3   OH239502   5.724   4.043   8.122 -1.0684 -0.2589  0.4350
 5956TIP3    H139503   5.797   3.982   8.118 -1.5246 -0.8086  0.2617
 5956TIP3    H239504   5.648   3.990   8.097 -1.1707  0.8688 -1.9368
 5957TIP3   OH239505   4.479   2.154   8.483 -0.1502  0.0062  0.0043
 5957TIP3    H139506   4.386   2.132   8.477 -0.0481 -1.1019  1.7621
 5957TIP3    H239507   4.511   2.103   8.557  1.6795  1.0193 -0.0282
 5958TIP3   OH239508   4.084   2.184   1.751  0.5997 -0.2969  0.2416
 5958TIP3    H139509   4.152   2.245   1.781  0.7480  0.2240 -1.1031
 5958TIP3    H239510   4.127   2.129   1.686 -0.1531 -0.2352 -0.3251
 5959TIP3   OH239511   2.429   5.471   1.496  0.1377 -0.5700 -0.1708
 5959TIP3    H139512   2.523   5.467   1.476 -0.0674  0.0900 -1.3837
 5959TIP3    H239513   2.391   5.397   1.447 -0.0608 -0.4234 -0.2398
 5960TIP3   OH239514   4.379   5.983   0.779  0.7282 -0.2631 -0.0199
 5960TIP3    H139515   4.352   5.938   0.699  0.1599  0.3498 -0.1912
 5960TIP3    H239516   4.431   5.919   0.827  0.0261 -1.0649 -0.2974
 5961TIP3   OH239517   0.370   6.426   8.285  0.2494 -0.0121 -0.1421
 5961TIP3    H139518   0.390   6.444   8.193 -1.4568  2.2548 -0.1504
 5961TIP3    H239519   0.455   6.411   8.325  1.1819  0.6413 -1.7748
 5962TIP3   OH239520   0.840   1.107   6.863 -0.4026  0.3925 -0.3595
 5962TIP3    H139521   0.832   1.191   6.907 -0.6723  0.2626 -0.1589
 5962TIP3    H239522   0.752   1.087   6.833 -0.3150  0.2414 -0.5191
 5963TIP3   OH239523   3.366   6.607   6.467  0.1990  0.6045 -0.2802
 5963TIP3    H139524   3.440   6.552   6.442  0.5741  1.0801 -0.2306
 5963TIP3    H239525   3.292   6.547   6.472  0.3572  0.2983 -1.4017
 5964TIP3   OH239526   5.206   5.925   2.262  0.4927 -0.5625 -0.5539
 5964TIP3    H139527   5.245   6.008   2.290  0.5166 -1.0830  1.0153
 5964TIP3    H239528   5.136   5.908   2.325  0.5021 -1.7546 -0.8394
 5965TIP3   OH239529   4.032   5.929   7.197  0.1760  0.9655  0.1132
 5965TIP3    H139530   3.983   5.931   7.115 -0.0626  0.1972  0.2361
 5965TIP3    H239531   4.124   5.936   7.171  0.1125  0.5180 -0.2306
 5966TIP3   OH239532   2.752   6.234   8.770 -0.0165 -0.3192  0.1872
 5966TIP3    H139533   2.728   6.142   8.755  0.5098 -0.7366  1.7329
 5966TIP3    H239534   2.676   6.284   8.740 -0.9141 -1.3518  0.6540
 5967TIP3   OH239535   1.593   0.986   0.276  0.1623  0.2065  0.6651
 5967TIP3    H139536   1.618   0.894   0.269 -0.7972 -0.0906  1.0091
 5967TIP3    H239537   1.498   0.987   0.261  0.2199  1.1924  0.2580
 5968TIP3   OH239538   6.652   6.783   8.319 -0.2600  0.2264 -0.1438
 5968TIP3    H139539   6.667   6.721   8.248 -0.3703 -1.1767  1.0151
 5968TIP3    H239540   6.558   6.797   8.319 -0.2978 -0.0347 -0.0511
 5969TIP3   OH239541   0.225   6.453   0.455 -0.0778 -0.1662 -0.1011
 5969TIP3    H139542   0.290   6.523   0.453 -1.1177  0.8673  0.5520
 5969TIP3    H239543   0.177   6.468   0.537 -1.5851 -0.4597 -0.8930
 5970TIP3   OH239544   5.037   3.365   0.383 -0.1680 -0.0131 -0.3492
 5970TIP3    H139545   4.942   3.371   0.371 -0.3820  0.9306  1.4095
 5970TIP3    H239546   5.050   3.382   0.476  1.5759 -2.2240 -0.1021
 5971TIP3   OH239547   2.422   6.002   8.586  0.1949 -0.6431  0.6558
 5971TIP3    H139548   2.404   5.915   8.620  1.2743 -0.7358  1.0303
 5971TIP3    H239549   2.385   6.062   8.651 -1.5301 -0.7823 -0.1345
 5972TIP3   OH239550   4.744   0.378   1.258  0.3091  1.0698 -0.0655
 5972TIP3    H139551   4.798   0.354   1.183 -0.0934  0.0446 -0.0463
 5972TIP3    H239552   4.807   0.400   1.327  0.7326 -0.2158 -0.0079
 5973TIP3   OH239553   3.498   0.211   7.254  0.5061  0.3038  0.5475
 5973TIP3    H139554   3.584   0.210   7.212  0.8107  0.5723  1.1437
 5973TIP3    H239555   3.458   0.292   7.223  0.2031 -0.1432 -0.2406
 5974TIP3   OH239556   2.572   5.818   2.268 -0.1893  0.1646 -0.2978
 5974TIP3    H139557   2.482   5.838   2.289  0.2334  2.1205 -0.2042
 5974TIP3    H239558   2.612   5.791   2.351 -0.2283  1.1529  0.0494
 5975TIP3   OH239559   3.376   2.158   0.744 -0.3192  0.8642  0.5779
 5975TIP3    H139560   3.459   2.149   0.791 -0.6711 -1.2930  0.8943
 5975TIP3    H239561   3.315   2.192   0.809 -0.4898 -0.8927  1.4244
 5976TIP3   OH239562   3.534   5.015   7.716 -0.3488  0.4933  0.3114
 5976TIP3    H139563   3.625   4.989   7.733 -0.6610 -1.0031 -0.1468
 5976TIP3    H239564   3.536   5.058   7.631 -0.4058 -1.8228 -0.9329
 5977TIP3   OH239565   1.246   6.110   2.143 -0.5251 -0.7291 -0.2281
 5977TIP3    H139566   1.160   6.068   2.154 -1.6614  1.2641 -0.9104
 5977TIP3    H239567   1.241   6.153   2.058  1.1851 -0.5690 -0.2771
 5978TIP3   OH239568   1.193   1.799   7.576  0.1704 -0.6222 -0.1178
 5978TIP3    H139569   1.172   1.875   7.630 -0.8270 -0.8701 -0.1369
 5978TIP3    H239570   1.239   1.740   7.634  2.3284  0.6064 -0.4789
 5979TIP3   OH239571   0.555   5.442   0.298 -0.0425  0.1910  0.1037
 5979TIP3    H139572   0.492   5.383   0.255  0.5249 -0.0434 -0.4105
 5979TIP3    H239573   0.525   5.530   0.274 -0.8770  0.1253  0.8504
 5980TIP3   OH239574   6.281   0.424   8.095  0.1826 -0.1950 -0.1919
 5980TIP3    H139575   6.248   0.496   8.041 -0.5770 -0.1046  0.3789
 5980TIP3    H239576   6.294   0.352   8.033  2.8537  0.9723 -1.1433
 5981TIP3   OH239577   4.531   6.159   0.609  0.3747  0.9565 -0.0473
 5981TIP3    H139578   4.549   6.198   0.694  0.6970  0.1993  0.2420
 5981TIP3    H239579   4.451   6.109   0.622  0.7184  0.3976 -0.0337
 5982TIP3   OH239580   2.126   3.528   1.401  0.2772 -0.0715 -0.1926
 5982TIP3    H139581   2.194   3.536   1.335 -0.3836  1.6996 -0.7246
 5982TIP3    H239582   2.054   3.483   1.356  0.2727  0.0582 -0.3149
 5983TIP3   OH239583   1.065   2.647   7.370  0.1699  0.4931 -0.2728
 5983TIP3    H139584   0.974   2.661   7.343  0.7522  3.6557 -1.0662
 5983TIP3    H239585   1.113   2.645   7.288  0.7546 -2.9346  0.0264
 5984TIP3   OH239586   6.650   5.004   1.389 -0.3317  0.1815  0.1980
 5984TIP3    H139587   6.661   5.078   1.448  0.0748  0.3539 -0.0913
 5984TIP3    H239588   6.739   4.984   1.359 -0.1623 -1.5695  1.6619
 5985TIP3   OH239589   0.743   1.373   1.203 -0.3061  0.3750  0.0449
 5985TIP3    H139590   0.822   1.419   1.175  0.4691 -0.3083  1.0441
 5985TIP3    H239591   0.678   1.442   1.216  0.3470  1.0154 -0.0739
 5986TIP3   OH239592   4.042   3.415   0.612  0.2447  0.9040 -0.1324
 5986TIP3    H139593   3.997   3.477   0.555  1.0392  1.2507 -0.4068
 5986TIP3    H239594   4.129   3.454   0.624  1.1998 -0.7579 -1.3153
 5987TIP3   OH239595   3.619   4.569   8.656  0.0539  0.0494 -0.0974
 5987TIP3    H139596   3.646   4.567   8.564 -0.4730 -2.5931 -0.2463
 5987TIP3    H239597   3.661   4.493   8.696 -0.6584  0.4862  1.5825
 5988TIP3   OH239598   1.867   2.110   7.587 -0.5431  0.0777 -0.1472
 5988TIP3    H139599   1.865   2.015   7.578  0.8770 -0.1521  1.4441
 5988TIP3    H239600   1.835   2.143   7.503 -0.5431 -1.8057 -0.9242
 5989TIP3   OH239601   1.755   4.997   2.391 -0.3378  0.2461 -0.2982
 5989TIP3    H139602   1.801   5.047   2.324  1.4907  0.9008  1.3522
 5989TIP3    H239603   1.807   4.916   2.401 -2.5074 -1.4645 -1.9985
 5990TIP3   OH239604   4.153   6.469   1.739 -0.9732 -0.1977  0.4631
 5990TIP3    H139605   4.118   6.462   1.650 -1.1474  2.7025  0.2314
 5990TIP3    H239606   4.093   6.416   1.792 -2.2867 -0.0206 -0.7937
 5991TIP3   OH239607   1.092   2.643   0.499  0.2743 -0.4229 -0.0116
 5991TIP3    H139608   1.152   2.692   0.443  2.4603 -0.8261  1.8245
 5991TIP3    H239609   1.130   2.556   0.505  1.0759  0.0025  3.2273
 5992TIP3   OH239610   0.783   4.975   0.345  0.2336  0.6117  0.4637
 5992TIP3    H139611   0.822   5.051   0.303  0.1651  0.3224 -0.1213
 5992TIP3    H239612   0.854   4.937   0.397  0.7409  0.0847 -0.5967
 5993TIP3   OH239613   0.472   6.093   0.974 -0.2807  0.2381 -0.7176
 5993TIP3    H139614   0.393   6.071   1.025 -0.7600  1.3494 -0.9427
 5993TIP3    H239615   0.446   6.170   0.924  1.3100  1.3367  0.0676
 5994TIP3   OH239616   3.422   2.980   0.968 -0.0236 -0.1054 -0.5993
 5994TIP3    H139617   3.474   2.925   0.910  1.2682  0.3648  0.0657
 5994TIP3    H239618   3.442   3.070   0.942 -0.3568  0.0904 -0.2089
 5995TIP3   OH239619   2.598   6.746   0.271  0.0553  0.5654  0.4143
 5995TIP3    H139620   2.686   6.776   0.251  1.0868 -2.6578 -0.5607
 5995TIP3    H239621   2.591   6.751   0.366  2.1397 -1.0290  0.7135
 5996TIP3   OH239622   1.807   3.101   1.820  0.5141  0.4446  0.3687
 5996TIP3    H139623   1.739   3.166   1.837 -0.2792 -0.8680  2.6260
 5996TIP3    H239624   1.858   3.098   1.902  1.4917 -0.6519 -0.2551
 5997TIP3   OH239625   6.625   3.873   6.949  0.1659 -0.2413 -0.1301
 5997TIP3    H139626   6.544   3.899   6.906  0.2946  0.9194  0.2995
 5997TIP3    H239627   6.602   3.797   7.002 -0.2775 -0.9010 -1.2297
 5998TIP3   OH239628   3.064   0.312   7.413 -0.0361  0.0767  0.0347
 5998TIP3    H139629   3.112   0.329   7.493  1.5144  1.1994 -1.0811
 5998TIP3    H239630   3.111   0.239   7.371 -2.5118 -2.5353  1.4094
 5999TIP3   OH239631   6.354   4.764   0.476 -0.4011  0.3008  0.2264
 5999TIP3    H139632   6.372   4.680   0.433 -0.4464 -0.5183  1.7319
 5999TIP3    H239633   6.387   4.753   0.565 -1.2533  1.5553  0.7284
 6000TIP3   OH239634   1.037   1.498   8.311  0.1972  0.1822  0.2189
 6000TIP3    H139635   1.028   1.592   8.327 -1.4102  0.0127  0.4481
 6000TIP3    H239636   1.067   1.461   8.394  0.6083  0.4447  0.1917
 6001TIP3   OH239637   3.478   4.594   0.139 -0.1996 -0.0322  0.4895
 6001TIP3    H139638   3.443   4.551   0.061 -0.6006 -0.7860  1.0672
 6001TIP3    H239639   3.569   4.612   0.118 -0.0144 -1.1857  0.2223
 6002TIP3   OH239640   5.568   1.344   1.471 -0.0663  0.1025 -0.6357
 6002TIP3    H139641   5.519   1.312   1.396 -0.1848 -0.1967 -0.4302
 6002TIP3    H239642   5.568   1.439   1.459 -2.5399  0.3318  0.4484
 6003TIP3   OH239643   0.789   5.763   7.534 -0.2899 -0.6002 -0.1024
 6003TIP3    H139644   0.854   5.818   7.490  0.0192 -0.0922  0.9554
 6003TIP3    H239645   0.841   5.704   7.589 -0.7211  0.6200  1.6870
 6004TIP3   OH239646   2.796   1.023   1.738 -0.0350 -0.0542  0.4102
 6004TIP3    H139647   2.791   1.108   1.782 -3.3457 -0.4694  1.1029
 6004TIP3    H239648   2.889   1.010   1.722  0.8842  2.3213  2.9973
 6005TIP3   OH239649   2.808   5.697   0.024 -0.0951 -0.0941  0.2205
 6005TIP3    H139650   2.737   5.635   0.038 -0.8380  0.8415  0.7636
 6005TIP3    H239651   2.884   5.656   0.065 -0.6096 -0.5818  0.7019
 6006TIP3   OH239652   3.291   6.439   8.445 -0.3455  0.1827 -0.2298
 6006TIP3    H139653   3.353   6.391   8.501 -0.2562 -1.2075 -1.4552
 6006TIP3    H239654   3.214   6.451   8.500  0.7487  1.4020  1.1233
 6007TIP3   OH239655   1.065   4.036   8.697 -0.2587 -0.5633 -0.0874
 6007TIP3    H139656   1.093   4.124   8.671 -1.1572  0.4878  2.2507
 6007TIP3    H239657   0.972   4.045   8.717 -0.2879 -1.9684  0.5170
 6008TIP3   OH239658   1.219   6.545   1.689 -0.9041  0.0925  0.4574
 6008TIP3    H139659   1.219   6.525   1.596  1.0312 -0.0087  0.4339
 6008TIP3    H239660   1.182   6.633   1.695 -0.0375  0.5423 -0.5341
 6009TIP3   OH239661   3.455   1.468   1.598  0.0134  0.1880 -0.3022
 6009TIP3    H139662   3.390   1.535   1.619 -0.6896 -0.8964  1.1510
 6009TIP3    H239663   3.436   1.396   1.658  2.4401 -0.2442  0.0673
 6010TIP3   OH239664   6.129   6.495   8.008 -0.4943  0.2721 -0.0127
 6010TIP3    H139665   6.138   6.437   7.933 -3.1432 -0.0769 -0.1751
 6010TIP3    H239666   6.183   6.571   7.987  1.5891 -1.3151 -0.6253
 6011TIP3   OH239667   1.940   3.596   7.246  0.9339 -0.4149 -0.4257
 6011TIP3    H139668   1.879   3.648   7.299  0.9833 -1.6414  0.8869
 6011TIP3    H239669   1.966   3.656   7.176  2.8342  2.2219  2.2739
 6012TIP3   OH239670   2.880   0.179   6.876  0.2788 -0.1703  0.1241
 6012TIP3    H139671   2.863   0.090   6.908 -0.5277  0.5247  1.7712
 6012TIP3    H239672   2.802   0.228   6.902  1.4457  1.3955  0.8067
 6013TIP3   OH239673   1.336   2.968   6.560  0.2626  0.8446 -0.3092
 6013TIP3    H139674   1.326   2.888   6.510  1.5740  0.0458  0.6440
 6013TIP3    H239675   1.307   3.038   6.501 -0.8691 -0.3003 -1.1617
 6014TIP3   OH239676   1.857   6.369   1.877  0.6799  0.0193 -0.3909
 6014TIP3    H139677   1.764   6.346   1.871  0.5009  0.5441  0.2708
 6014TIP3    H239678   1.867   6.408   1.964  1.7313 -0.9529 -0.0463
 6015TIP3   OH239679   4.352   4.845   0.769 -0.1337 -0.2311  0.6334
 6015TIP3    H139680   4.363   4.760   0.811  0.5439 -1.0164 -1.0597
 6015TIP3    H239681   4.280   4.887   0.817  0.5459 -1.0983  2.4751
 6016TIP3   OH239682   3.088   4.073   8.310 -0.3242 -0.4284  0.0029
 6016TIP3    H139683   3.167   4.062   8.363 -0.5913  1.7953  0.9877
 6016TIP3    H239684   3.046   4.152   8.345 -3.9638 -2.4620  0.7339
 6017TIP3   OH239685   4.121   5.254   8.204 -0.0286 -0.5385 -0.1816
 6017TIP3    H139686   4.112   5.242   8.299 -1.0536  1.9281  0.1014
 6017TIP3    H239687   4.039   5.221   8.168  0.2419 -1.2092 -0.1931
 6018TIP3   OH239688   3.094   4.380   8.713 -0.0110 -0.5836  0.3063
 6018TIP3    H139689   3.026   4.342   8.657  1.7412 -1.4871 -1.3305
 6018TIP3    H239690   3.065   4.361   8.802 -2.4157  0.0406 -0.2618
 6019TIP3   OH239691   4.379   0.685   6.717  0.1119  0.0068  0.8151
 6019TIP3    H139692   4.374   0.592   6.694  1.2658  0.1886 -0.3022
 6019TIP3    H239693   4.291   0.707   6.748 -0.1500 -1.4727  1.2162
 6020TIP3   OH239694   2.034   5.992   0.861 -0.3395 -0.1432 -0.6908
 6020TIP3    H139695   2.047   6.086   0.848  0.8203 -0.5493 -3.1314
 6020TIP3    H239696   2.107   5.966   0.917 -0.7010  0.4050  0.0522
 6021TIP3   OH239697   6.387   4.629   7.770  0.7856 -0.3834  0.9371
 6021TIP3    H139698   6.334   4.589   7.839  1.0059 -1.6036  0.4087
 6021TIP3    H239699   6.384   4.567   7.698  3.7598 -1.0072  1.2249
 6022TIP3   OH239700   2.585   4.671   0.121 -0.2569  0.0354  0.2646
 6022TIP3    H139701   2.590   4.584   0.161  1.0223 -0.1801 -0.3142
 6022TIP3    H239702   2.625   4.660   0.035 -0.9208  1.0004 -0.1924
 6023TIP3   OH239703   6.032   6.118   0.995  0.3449 -0.1220  0.0087
 6023TIP3    H139704   6.076   6.196   1.029  1.0232  0.0612 -1.2403
 6023TIP3    H239705   5.961   6.153   0.940 -1.6895 -0.4028  2.2707
 6024TIP3   OH239706   5.086   0.816   0.512 -0.2572 -0.1022 -0.4114
 6024TIP3    H139707   5.068   0.733   0.556  1.3897 -0.5605 -0.5493
 6024TIP3    H239708   5.094   0.793   0.420  0.5382  0.1404 -0.4104
 6025TIP3   OH239709   1.098   0.923   8.114 -0.0461  0.0636  0.0011
 6025TIP3    H139710   1.148   0.846   8.088 -1.7598 -0.1014 -3.2935
 6025TIP3    H239711   1.154   0.997   8.089  0.2260 -0.0966  0.1300
 6026TIP3   OH239712   2.440   2.606   6.615  0.3528  0.4520  0.5487
 6026TIP3    H139713   2.370   2.630   6.675 -0.0029  1.5758 -0.2715
 6026TIP3    H239714   2.517   2.654   6.648  0.7509 -0.7378  1.4166
 6027TIP3   OH239715   4.541   0.635   1.502  0.3687 -0.5073 -0.0471
 6027TIP3    H139716   4.476   0.565   1.504  0.1917 -0.3312  0.6829
 6027TIP3    H239717   4.500   0.708   1.550  1.1469 -0.4431  0.5502
 6028TIP3   OH239718   3.020   5.372   7.265  0.2119 -0.6411 -0.4496
 6028TIP3    H139719   2.947   5.317   7.236 -0.7881  0.4960 -0.1873
 6028TIP3    H239720   3.044   5.337   7.351 -0.3975 -0.6788 -0.2927
 6029TIP3   OH239721   5.276   5.357   2.327 -0.1542  0.0924 -0.0505
 6029TIP3    H139722   5.311   5.285   2.379 -0.8351 -0.5435 -0.4422
 6029TIP3    H239723   5.204   5.392   2.379  0.9602  1.3381  0.7132
 6030TIP3   OH239724   6.625   0.989   7.648  0.6648  0.3593  0.0753
 6030TIP3    H139725   6.651   0.900   7.671  1.1548  0.7401  1.0489
 6030TIP3    H239726   6.592   1.026   7.730 -2.3458  0.1486 -0.9109
 6031TIP3   OH239727   6.579   6.619   0.059 -0.0377 -0.5267 -0.0899
 6031TIP3    H139728   6.670   6.600   0.080  0.1007  0.9611  0.8058
 6031TIP3    H239729   6.583   6.692  -0.003 -0.6253 -0.0197  0.4519
 6032TIP3   OH239730   0.030   2.365   8.471 -0.2460  0.0847 -0.4443
 6032TIP3    H139731  -0.060   2.331   8.469  0.1060 -0.9585  0.2502
 6032TIP3    H239732   0.035   2.412   8.554 -1.3362  3.7566 -2.2606
 6033TIP3   OH239733   3.108   4.533   8.487 -0.0871 -0.4620 -0.8757
 6033TIP3    H139734   3.179   4.597   8.484 -0.9820  0.6695  0.7182
 6033TIP3    H239735   3.125   4.482   8.567 -0.7469 -0.5678 -0.7959
 6034TIP3   OH239736   5.958   4.455   7.347  0.0284 -0.3714  0.4681
 6034TIP3    H139737   6.006   4.467   7.429 -0.7234  0.6978  0.7689
 6034TIP3    H239738   6.005   4.384   7.302  0.9032 -0.4531  1.4734
 6035TIP3   OH239739   1.039   0.930   7.607 -0.0443 -0.1051 -0.4760
 6035TIP3    H139740   0.990   1.008   7.633  0.2674 -0.4776  1.3747
 6035TIP3    H239741   0.974   0.859   7.610 -0.2866  0.0206 -1.9836
 6036TIP3   OH239742   3.042   0.357   8.728  0.0297 -0.2276  0.4063
 6036TIP3    H139743   3.087   0.429   8.684 -1.1859  0.0263 -0.4742
 6036TIP3    H239744   3.113   0.298   8.756  1.0047  0.9906  0.6192
 6037TIP3   OH239745   0.297   5.955   2.446  0.1979  0.0623  0.4447
 6037TIP3    H139746   0.332   6.022   2.504  1.4014  1.2345 -1.5129
 6037TIP3    H239747   0.374   5.909   2.413 -0.5114 -1.1513  0.4307
 6038TIP3   OH239748   1.793   4.346   8.534 -0.3132 -0.4792  0.1741
 6038TIP3    H139749   1.780   4.269   8.588 -0.8044  0.3720  1.3173
 6038TIP3    H239750   1.748   4.416   8.581 -1.3326  0.1721 -1.6690
 6039TIP3   OH239751   3.992   5.721   0.222 -0.3286  0.1902  0.2546
 6039TIP3    H139752   4.012   5.736   0.315 -1.7362 -1.2434  0.8528
 6039TIP3    H239753   4.004   5.806   0.181 -0.2313  1.0092  1.8813
 6040TIP3   OH239754   0.031   6.714   0.369  0.0781 -0.6932  0.1903
 6040TIP3    H139755  -0.037   6.739   0.431  0.7896  2.1535 -0.0331
 6040TIP3    H239756   0.105   6.771   0.390  2.0991 -3.0233 -0.1895
 6041TIP3   OH239757   3.670   2.844   7.861 -0.0875 -0.0373 -0.1437
 6041TIP3    H139758   3.606   2.913   7.880 -1.3376 -0.5788 -2.0941
 6041TIP3    H239759   3.706   2.868   7.775  0.0857 -1.3429 -0.4564
 6042TIP3   OH239760   1.491   3.121   0.389 -0.4125  0.0532  0.4932
 6042TIP3    H139761   1.403   3.127   0.354 -0.4446 -2.1407  0.0694
 6042TIP3    H239762   1.479   3.087   0.478 -0.0012 -0.7656  0.2491
 6043TIP3   OH239763   4.332   4.444   1.997  0.0714 -0.3570  0.3695
 6043TIP3    H139764   4.296   4.391   2.069 -1.8796  0.3781  0.0022
 6043TIP3    H239765   4.257   4.461   1.940  1.4902 -0.5361 -1.6267
 6044TIP3   OH239766   0.467   2.529   6.920 -0.4773  0.3441  0.5990
 6044TIP3    H139767   0.519   2.449   6.908  0.5088  0.8444  1.3150
 6044TIP3    H239768   0.378   2.503   6.898 -0.0471 -0.7394  0.0177
 6045TIP3   OH239769   4.365   6.400   1.169  0.1095  0.8018 -0.2622
 6045TIP3    H139770   4.373   6.333   1.237 -1.4831 -0.6526 -1.4030
 6045TIP3    H239771   4.442   6.387   1.114  2.0313  2.7319  1.7467
 6046TIP3   OH239772   1.893   6.002   0.087  0.1313 -0.3707 -0.0013
 6046TIP3    H139773   1.801   5.975   0.093 -0.2095  0.7046 -0.1761
 6046TIP3    H239774   1.897   6.084   0.137  1.2005 -0.8982  0.8088
 6047TIP3   OH239775   5.666   1.781   0.198 -0.9510  0.5115  0.4279
 6047TIP3    H139776   5.580   1.791   0.157 -1.2542 -1.1026  0.6249
 6047TIP3    H239777   5.723   1.751   0.127 -0.5666  1.3762  0.3467
 6048TIP3   OH239778   2.536   2.710   0.635 -0.0987  0.3495 -0.4141
 6048TIP3    H139779   2.629   2.730   0.624 -0.0985  0.9670  0.5265
 6048TIP3    H239780   2.533   2.616   0.652  0.4073  0.4142  0.0532
 6049TIP3   OH239781   0.812   2.542   0.135  0.5148  0.4814 -0.1138
 6049TIP3    H139782   0.901   2.547   0.100  0.5445  0.3256 -0.0619
 6049TIP3    H239783   0.811   2.462   0.187  0.1358  0.0990 -0.7019
 6050TIP3   OH239784   5.580   2.908   0.292 -0.6068  0.1170 -0.2239
 6050TIP3    H139785   5.641   2.848   0.250  1.3380  0.3516  2.0596
 6050TIP3    H239786   5.618   2.925   0.379 -4.1716 -0.0747  1.5593
 6051TIP3   OH239787   5.860   2.489   8.307  0.4775  0.4258  0.2517
 6051TIP3    H139788   5.924   2.422   8.332  0.3698  0.0270 -0.5146
 6051TIP3    H239789   5.871   2.499   8.212 -2.1842 -1.3955 -0.3815
 6052TIP3   OH239790   0.910   3.123   1.761  0.7415  0.2115  0.6470
 6052TIP3    H139791   0.903   3.124   1.665 -4.1194 -2.2200  0.6563
 6052TIP3    H239792   0.912   3.216   1.785 -1.0187  1.0009 -1.8051
 6053TIP3   OH239793   1.837   5.946   7.154  0.5432  0.5546  0.1285
 6053TIP3    H139794   1.750   5.927   7.121 -0.2730  1.5933  1.5568
 6053TIP3    H239795   1.879   5.996   7.084  0.0774 -0.1358 -0.6519
 6054TIP3   OH239796   4.302   3.335   7.873 -0.1866  0.3619 -0.1175
 6054TIP3    H139797   4.376   3.378   7.918 -0.3837  0.5128  0.0638
 6054TIP3    H239798   4.235   3.403   7.866 -0.7896 -0.1083  0.8388
 6055TIP3   OH239799   2.085   2.693   0.460  0.3070  0.2524 -0.1445
 6055TIP3    H139800   2.054   2.748   0.532  0.6446  1.6001 -0.9960
 6055TIP3    H239801   2.069   2.603   0.490 -0.5772  0.8070  1.1393
 6056TIP3   OH239802   2.002   0.294   0.688  0.3329  0.2805 -0.1742
 6056TIP3    H139803   2.073   0.309   0.751 -0.1864  0.5520  0.3621
 6056TIP3    H239804   2.033   0.222   0.633  0.7680 -0.0232  0.4522
 6057TIP3   OH239805   6.621   0.430   0.169  0.4068 -0.1217  0.8805
 6057TIP3    H139806   6.541   0.400   0.211  0.8967  0.2493  2.1182
 6057TIP3    H239807   6.593   0.501   0.111 -0.3635 -1.0691  0.0504
 6058TIP3   OH239808   1.518   0.491   8.394 -0.3887 -0.9562 -0.1227
 6058TIP3    H139809   1.578   0.556   8.356 -0.7172 -0.9395 -0.6287
 6058TIP3    H239810   1.463   0.542   8.454  1.1455 -1.2418  1.6103
 6059TIP3   OH239811   4.790   2.646   6.443 -0.1536 -0.2627 -0.0766
 6059TIP3    H139812   4.788   2.705   6.518 -1.4142 -0.2424 -0.0982
 6059TIP3    H239813   4.881   2.618   6.436  0.0741  0.1280  1.1516
 6060TIP3   OH239814   1.376   4.682   7.055  0.0376 -0.1234  0.5910
 6060TIP3    H139815   1.410   4.609   7.107  0.4040 -1.8549 -1.8908
 6060TIP3    H239816   1.281   4.679   7.068  0.1067 -0.5915  1.0340
 6061TIP3   OH239817   0.422   6.342   6.678  0.0249 -0.1625 -0.1398
 6061TIP3    H139818   0.327   6.328   6.688 -0.2517 -0.0750 -2.2115
 6061TIP3    H239819   0.445   6.290   6.602  1.4176  0.8223 -0.4181
 6062TIP3   OH239820   3.700   2.040   6.270  0.0389  0.5560 -0.3572
 6062TIP3    H139821   3.777   2.044   6.214  3.2054  0.3021  3.4918
 6062TIP3    H239822   3.711   2.114   6.331 -0.5698 -1.6403  2.6752
 6063TIP3   OH239823   2.873   5.270   0.389  0.2465 -0.2126  0.0064
 6063TIP3    H139824   2.875   5.214   0.466 -2.0673 -0.3060  0.0677
 6063TIP3    H239825   2.831   5.351   0.419 -1.8800 -0.7203 -1.3623
 6064TIP3   OH239826   2.027   2.808   2.329  0.0655 -0.3942 -0.0851
 6064TIP3    H139827   2.013   2.834   2.238 -0.3066  0.2009  0.1326
 6064TIP3    H239828   2.000   2.884   2.380 -0.0623 -0.8471  0.5392
 6065TIP3   OH239829   2.665   6.248   6.472  0.3124  0.2082 -0.0670
 6065TIP3    H139830   2.597   6.306   6.507 -1.0581 -3.2653  3.7321
 6065TIP3    H239831   2.618   6.187   6.416  0.3889 -1.5017  1.6506
 6066TIP3   OH239832   1.537   2.793   1.255 -0.3411 -0.8940 -0.2341
 6066TIP3    H139833   1.582   2.854   1.313 -1.0965 -2.1650  1.8315
 6066TIP3    H239834   1.598   2.777   1.183  2.7855 -2.8008  2.5429
 6067TIP3   OH239835   6.072   2.786   0.554 -0.0875 -0.1849  0.1584
 6067TIP3    H139836   6.110   2.870   0.579  2.1414 -1.1290  0.1237
 6067TIP3    H239837   6.110   2.767   0.468 -0.1433 -1.4679  0.3961
 6068TIP3   OH239838   6.800   2.974   1.526 -0.4425 -0.2796 -0.1426
 6068TIP3    H139839   6.786   2.995   1.619  0.0979 -1.6200  0.2695
 6068TIP3    H239840   6.764   2.886   1.517  2.0358 -1.3233 -0.5096
 6069TIP3   OH239841   4.403   2.065   7.001 -0.2255 -0.1167 -0.3286
 6069TIP3    H139842   4.398   2.160   7.012 -1.5109 -0.4345  3.2011
 6069TIP3    H239843   4.316   2.039   6.971 -0.5804 -0.2991  0.7920
 6070TIP3   OH239844   3.327   0.739   6.934 -0.3348  0.1047 -0.6349
 6070TIP3    H139845   3.286   0.822   6.908  0.3030  0.5182 -0.3276
 6070TIP3    H239846   3.257   0.675   6.923 -1.6842  1.0636  1.6444
 6071TIP3   OH239847   3.401   1.534   8.090 -0.1902  0.2871 -0.0142
 6071TIP3    H139848   3.434   1.606   8.036  0.8554  0.7026  1.1203
 6071TIP3    H239849   3.436   1.455   8.050 -1.5779  0.3418 -1.4412
 6072TIP3   OH239850   3.781   1.756   0.063  0.2842 -0.1018  0.2141
 6072TIP3    H139851   3.847   1.709   0.012 -1.2533 -0.6785 -1.2971
 6072TIP3    H239852   3.831   1.824   0.109  2.0867 -1.2211  0.0068
 6073TIP3   OH239853   2.111   3.531   8.710  0.0396  0.4830  0.1322
 6073TIP3    H139854   2.106   3.554   8.617  1.2681  1.4177  0.2697
 6073TIP3    H239855   2.037   3.577   8.750 -0.2974  0.3511 -0.3335
 6074TIP3   OH239856   4.628   3.425   6.958 -0.0746  0.3994  0.2107
 6074TIP3    H139857   4.657   3.504   6.913  0.2737  0.4332  0.4880
 6074TIP3    H239858   4.706   3.394   7.004  0.1217 -0.7809 -0.8574
 6075TIP3   OH239859   2.642   6.205   7.858  0.3954 -0.3243 -0.2481
 6075TIP3    H139860   2.628   6.217   7.952  2.3364  1.8596 -0.1498
 6075TIP3    H239861   2.698   6.127   7.851 -0.8922 -1.3311  0.2448
 6076TIP3   OH239862   6.140   5.177   7.605 -0.2192  0.5464  0.0825
 6076TIP3    H139863   6.200   5.116   7.561  1.0434  0.8611  1.3341
 6076TIP3    H239864   6.166   5.263   7.574 -1.4552  0.5535 -1.0255
 6077TIP3   OH239865   3.427   1.259   8.609  1.0681  0.3311 -0.5369
 6077TIP3    H139866   3.388   1.203   8.543 -0.3804  1.4713 -0.6993
 6077TIP3    H239867   3.417   1.211   8.691  2.5148 -0.9109 -1.0418
 6078TIP3   OH239868   4.546   6.217   0.350  0.0879  0.3417 -0.8344
 6078TIP3    H139869   4.545   6.184   0.439 -2.4611 -0.5351 -1.1070
 6078TIP3    H239870   4.639   6.216   0.324  0.6483 -1.4523  1.0286
 6079TIP3   OH239871   4.647   5.532   7.739 -0.1552 -0.5186 -0.2302
 6079TIP3    H139872   4.611   5.444   7.726 -3.2900 -0.0449  3.4113
 6079TIP3    H239873   4.734   5.516   7.775 -1.1745 -2.3199  1.6830
 6080TIP3   OH239874   4.432   6.786   8.016 -0.0854 -0.2725 -0.2138
 6080TIP3    H139875   4.436   6.706   8.069  1.6391  0.9357  1.6372
 6080TIP3    H239876   4.478   6.764   7.935 -1.3487 -1.6979 -0.5767
 6081TIP3   OH239877   5.981   2.449   8.706 -0.1977  0.5470 -0.0977
 6081TIP3    H139878   5.954   2.523   8.651 -0.4326  0.0634 -0.6484
 6081TIP3    H239879   5.913   2.442   8.772 -1.3758 -0.5553 -1.3736
 6082TIP3   OH239880   4.368   2.884   7.935 -0.6312  0.0831  0.1558
 6082TIP3    H139881   4.383   2.802   7.888 -0.1875 -0.6664  1.5800
 6082TIP3    H239882   4.314   2.935   7.875  0.1451 -0.7270 -1.2939
 6083TIP3   OH239883   5.660   3.205   1.194 -0.1978  0.2925  0.6135
 6083TIP3    H139884   5.628   3.252   1.116  0.0311 -0.2757  0.1711
 6083TIP3    H239885   5.583   3.197   1.250 -0.7672 -0.7331 -0.2814
 6084TIP3   OH239886   6.851   0.954   1.391 -0.2402  0.4770  0.0033
 6084TIP3    H139887   6.791   0.997   1.329  0.5622  0.9522 -0.4624
 6084TIP3    H239888   6.797   0.889   1.436 -1.2697  1.3717  0.0918
 6085TIP3   OH239889   2.369   2.839   1.972  0.1158  0.2528 -0.3983
 6085TIP3    H139890   2.403   2.787   2.044  0.7200 -0.4257 -1.1492
 6085TIP3    H239891   2.369   2.779   1.897  0.5498  1.2402 -1.2117
 6086TIP3   OH239892   2.736   3.119   0.489 -0.2679  0.3149  0.1375
 6086TIP3    H139893   2.734   3.207   0.526  0.1538  2.0154 -3.4528
 6086TIP3    H239894   2.646   3.088   0.496 -0.2159  0.4868  2.3906
 6087TIP3   OH239895   5.465   5.550   1.225 -0.5233 -0.7467 -0.1868
 6087TIP3    H139896   5.381   5.557   1.180 -0.6349 -2.1301 -0.2263
 6087TIP3    H239897   5.451   5.483   1.292  0.4194 -0.6547  0.1155
 6088TIP3   OH239898   3.865   3.386   7.828  0.0783 -0.6869  0.4168
 6088TIP3    H139899   3.872   3.472   7.787  1.5634 -1.4175 -0.9322
 6088TIP3    H239900   3.866   3.405   7.922 -0.9265  0.8390  0.1541
 6089TIP3   OH239901   5.506   1.818   1.194 -0.6318 -0.5023  0.0507
 6089TIP3    H139902   5.564   1.893   1.189 -1.2084  0.0047  0.6979
 6089TIP3    H239903   5.464   1.826   1.280 -1.7665 -0.7572 -0.4563
 6090TIP3   OH239904   3.299   0.084   0.208  0.2111 -0.0942  0.1226
 6090TIP3    H139905   3.228   0.147   0.198 -0.4344 -0.8710 -0.3269
 6090TIP3    H239906   3.372   0.135   0.241 -0.6439  0.6758  0.8984
 6091TIP3   OH239907   1.676   4.368   7.364  0.4618 -0.1617 -0.1087
 6091TIP3    H139908   1.754   4.319   7.338  0.3310 -0.0470 -0.7323
 6091TIP3    H239909   1.629   4.384   7.282 -1.0715 -1.6719  0.4390
 6092TIP3   OH239910   3.066   5.956   0.523 -0.4470  0.5251 -0.3903
 6092TIP3    H139911   3.089   5.882   0.578  0.8863  0.6519 -0.7578
 6092TIP3    H239912   3.068   5.922   0.433  0.8153  1.1394 -0.6120
 6093TIP3   OH239913   6.310   2.227   8.393 -0.1790 -0.9103  0.4278
 6093TIP3    H139914   6.350   2.242   8.308  1.7781  1.5102  1.6450
 6093TIP3    H239915   6.383   2.219   8.454 -1.3771  2.2157  2.5451
 6094TIP3   OH239916   4.633   0.287   0.270 -0.0431 -0.1877  0.1677
 6094TIP3    H139917   4.596   0.355   0.214  0.8643  1.1430  1.1217
 6094TIP3    H239918   4.583   0.209   0.249 -1.6523  0.9460 -0.4109
 6095TIP3   OH239919   3.316   1.986   2.462  0.3443  0.2628  0.1755
 6095TIP3    H139920   3.307   1.945   2.376  0.2915 -0.0044  0.3072
 6095TIP3    H239921   3.242   1.952   2.512  1.1658 -0.6795  0.7655
 6096TIP3   OH239922   6.690   1.654   8.436  0.4081 -0.2733  0.9696
 6096TIP3    H139923   6.690   1.563   8.405  1.0463  0.3318 -0.9698
 6096TIP3    H239924   6.598   1.675   8.449  0.1425 -0.7311 -0.0869
 6097TIP3   OH239925   6.646   2.014   0.790 -0.6001  0.0833  0.2632
 6097TIP3    H139926   6.600   2.073   0.850  0.9364  2.4527 -0.7168
 6097TIP3    H239927   6.613   2.037   0.703 -0.8154 -1.3585 -0.0562
 6098TIP3   OH239928   2.119   1.482   7.654 -0.2818  0.2985  0.3191
 6098TIP3    H139929   2.185   1.523   7.710 -0.3886  0.6292  0.2033
 6098TIP3    H239930   2.138   1.388   7.660  0.7024  0.4400 -0.3312
 6099TIP3   OH239931   1.680   3.480   8.078  0.1247  0.5908  0.2431
 6099TIP3    H139932   1.619   3.553   8.093  0.8572  1.3147 -0.2736
 6099TIP3    H239933   1.666   3.422   8.153 -1.0724  0.8314  0.2294
 6100TIP3   OH239934   0.188   6.081   6.555  0.3012  0.1799 -0.3758
 6100TIP3    H139935   0.230   6.028   6.623  0.4634  1.1769  0.3164
 6100TIP3    H239936   0.095   6.079   6.579  0.4809  1.3890  0.5058
 6101TIP3   OH239937   5.141   5.267   1.572  0.2016 -0.1511  0.4279
 6101TIP3    H139938   5.131   5.206   1.500  0.3743  1.6867 -1.2443
 6101TIP3    H239939   5.052   5.301   1.588  0.2739 -0.0351  0.5930
 6102TIP3   OH239940   1.866   1.671   7.659 -0.0019  0.5332  0.0853
 6102TIP3    H139941   1.951   1.640   7.692 -0.9483  0.0594  2.2864
 6102TIP3    H239942   1.886   1.751   7.610  1.6748  0.6125  0.8424
 6103TIP3   OH239943   0.117   5.100   8.365  0.1732  0.0247 -0.0989
 6103TIP3    H139944   0.177   5.118   8.437  1.6243  0.5338 -1.3729
 6103TIP3    H239945   0.144   5.160   8.295 -2.3634  0.8439 -0.4802
 6104TIP3   OH239946   5.799   0.887   7.072 -0.3717  0.2263  0.2668
 6104TIP3    H139947   5.782   0.852   6.984  1.0097 -0.1074  0.1180
 6104TIP3    H239948   5.714   0.922   7.100 -0.7030  0.9186 -1.4553
 6105TIP3   OH239949   3.352   1.760   1.187  0.0780 -0.0033 -0.7285
 6105TIP3    H139950   3.315   1.696   1.126 -0.7730  0.1497 -0.3885
 6105TIP3    H239951   3.280   1.821   1.204  0.6930  0.6889 -0.5612
 6106TIP3   OH239952   1.662   6.248   1.172  0.3718  0.5733 -0.5240
 6106TIP3    H139953   1.568   6.259   1.189  0.3610 -0.1958 -0.0173
 6106TIP3    H239954   1.703   6.323   1.214  0.1883 -0.4208  1.5835
 6107TIP3   OH239955   1.438   6.004   0.285 -0.0659 -0.0231  0.1011
 6107TIP3    H139956   1.516   5.963   0.248  0.6278  0.8794  0.5089
 6107TIP3    H239957   1.459   6.016   0.378  0.4863  2.7163 -0.2716
 6108TIP3   OH239958   3.907   1.949   1.845 -0.1135 -0.3294  0.5283
 6108TIP3    H139959   4.001   1.935   1.857  0.3263  1.6593 -0.2381
 6108TIP3    H239960   3.866   1.885   1.903  1.6999 -1.2271  0.9059
 6109TIP3   OH239961   2.305   0.650   6.836  0.4359  0.1480 -0.1857
 6109TIP3    H139962   2.385   0.600   6.848  0.9724  1.2578  1.0691
 6109TIP3    H239963   2.284   0.684   6.923 -1.1809  0.2098 -0.5664
 6110TIP3   OH239964   5.044   1.475   6.705  0.4364 -0.4331 -0.1305
 6110TIP3    H139965   4.951   1.449   6.703  0.1002  0.7607 -1.7339
 6110TIP3    H239966   5.054   1.521   6.789 -0.2307 -1.1769  0.3773
 6111TIP3   OH239967   2.724   3.553   0.005 -0.4626 -0.5509  0.2054
 6111TIP3    H139968   2.720   3.647  -0.015  1.7663 -0.6305 -0.9573
 6111TIP3    H239969   2.683   3.545   0.091  0.0549  1.6326  0.7167
 6112TIP3   OH239970   2.485   0.573   1.329 -0.2190  0.4647 -0.6147
 6112TIP3    H139971   2.444   0.499   1.284 -2.1688  0.5783  0.8773
 6112TIP3    H239972   2.433   0.649   1.303 -0.7013  0.6870  0.9421
 6113TIP3   OH239973   5.036   2.649   7.647  0.4861  0.1356  0.5849
 6113TIP3    H139974   5.012   2.647   7.740 -1.6636  1.2170  0.1218
 6113TIP3    H239975   5.058   2.558   7.626 -0.0249 -0.3206  1.8957
 6114TIP3   OH239976   6.648   3.385   6.919  0.0440  0.2554  0.0260
 6114TIP3    H139977   6.628   3.440   6.843 -0.1977 -0.4695 -0.4382
 6114TIP3    H239978   6.705   3.316   6.885 -1.5013 -1.1142  0.1010
 6115TIP3   OH239979   2.869   1.872   6.481 -0.3022 -0.9105 -0.0935
 6115TIP3    H139980   2.953   1.872   6.435  0.0530 -2.4513  0.4867
 6115TIP3    H239981   2.804   1.868   6.412  0.1061 -0.3464 -0.5274
 6116TIP3   OH239982   1.597   3.282   7.905 -0.0287 -0.4170  0.1007
 6116TIP3    H139983   1.631   3.361   7.948 -0.8117  1.0376 -1.8174
 6116TIP3    H239984   1.511   3.268   7.946  0.6990 -1.1571  1.4419
 6117TIP3   OH239985   2.818   4.005   2.273 -0.8798  0.4362 -0.0901
 6117TIP3    H139986   2.820   4.055   2.191 -0.9500 -0.2805 -0.5379
 6117TIP3    H239987   2.871   4.056   2.333 -1.9450  1.6781 -0.1718
 6118TIP3   OH239988   6.095   4.838   0.005 -0.0604 -0.4030 -0.3058
 6118TIP3    H139989   6.111   4.761   0.060  0.4780  0.1310  0.3001
 6118TIP3    H239990   6.009   4.822  -0.035 -1.1561 -0.1295  1.8290
 6119TIP3   OH239991   0.866   1.323   8.819  0.3632  0.3115  0.5129
 6119TIP3    H139992   0.912   1.317   8.903  0.6642 -0.1479  0.3215
 6119TIP3    H239993   0.784   1.368   8.839 -0.7536 -1.9863  1.5743
 6120TIP3   OH239994   5.274   0.270   6.652 -0.1640  0.3904 -0.4255
 6120TIP3    H139995   5.300   0.180   6.668  0.0029  0.4340 -0.4449
 6120TIP3    H239996   5.336   0.302   6.586 -0.5675  0.3494 -0.8355
 6121TIP3   OH239997   3.529   0.120   8.797  0.2660  0.4051  0.2251
 6121TIP3    H139998   3.582   0.152   8.870  0.2466 -0.8348  0.8285
 6121TIP3    H239999   3.575   0.041   8.768 -0.4204  0.1786 -0.2592
 6122TIP3   OH240000   3.798   2.512   7.984  0.3122 -0.4010 -0.3667
 6122TIP3    H140001   3.879   2.461   7.991  0.0777 -0.6842  0.4545
 6122TIP3    H240002   3.813   2.590   8.037 -0.1386 -0.7218  0.2532
 6123TIP3   OH240003   4.945   5.552   7.296 -0.0712 -0.0493  0.5555
 6123TIP3    H140004   4.884   5.576   7.226 -0.5049 -1.4597  0.4028
 6123TIP3    H240005   5.029   5.543   7.252  0.2950  1.9825  0.7800
 6124TIP3   OH240006   5.080   3.422   0.997 -0.0596  0.2355 -0.0405
 6124TIP3    H140007   5.058   3.503   0.952 -2.3239 -0.6191 -0.6375
 6124TIP3    H240008   5.154   3.386   0.947  2.7796  3.0391  1.7743
 6125TIP3   OH240009   6.667   5.607   0.288 -0.5121 -0.2789 -0.4723
 6125TIP3    H140010   6.678   5.702   0.294 -0.8277 -0.2960  0.4647
 6125TIP3    H240011   6.621   5.582   0.368 -0.9353 -1.1516 -0.9676
 6126TIP3   OH240012   1.709   6.273   2.240 -0.4770 -0.1062 -0.1956
 6126TIP3    H140013   1.772   6.338   2.210 -0.0100 -0.2854  0.3779
 6126TIP3    H240014   1.625   6.319   2.240 -0.7221 -0.4274 -2.8876
 6127TIP3   OH240015   4.080   3.661   6.828  0.8517 -0.0366  0.0912
 6127TIP3    H140016   4.153   3.605   6.799  1.5001  0.4383  0.7781
 6127TIP3    H240017   4.096   3.674   6.921  1.9065  2.9960 -0.4158
 6128TIP3   OH240018   4.210   3.786   1.361  0.5789 -0.1667  0.1382
 6128TIP3    H140019   4.161   3.842   1.421  0.5256  0.2196 -0.2570
 6128TIP3    H240020   4.267   3.734   1.418  0.1103 -0.2245  0.5587
 6129TIP3   OH240021   0.769   3.416   7.314 -0.3984  0.0114 -0.5673
 6129TIP3    H140022   0.791   3.442   7.403  0.6809  0.4135 -0.9399
 6129TIP3    H240023   0.714   3.338   7.325  1.6523 -1.4056  0.4342
 6130TIP3   OH240024   3.400   5.606   1.249 -0.6742  0.0129 -0.1227
 6130TIP3    H140025   3.472   5.670   1.256 -0.5390 -0.2778  1.4275
 6130TIP3    H240026   3.423   5.553   1.173  1.5111 -0.9409  1.1009
 6131TIP3   OH240027   4.140   5.571   7.923 -0.0653 -0.6721 -0.5466
 6131TIP3    H140028   4.062   5.533   7.964  0.4324 -1.9146 -0.7222
 6131TIP3    H240029   4.212   5.546   7.981  0.5873 -2.0362 -1.9007
 6132TIP3   OH240030   3.101   0.235   7.026 -0.5961 -0.1503  0.7445
 6132TIP3    H140031   3.098   0.326   6.997 -1.2326  0.2198  1.9146
 6132TIP3    H240032   3.034   0.190   6.973 -0.7795  0.2140  0.6667
 6133TIP3   OH240033   4.450   1.712   8.239 -0.0256  0.1174 -0.6846
 6133TIP3    H140034   4.448   1.804   8.213  0.0738 -0.2781 -2.1353
 6133TIP3    H240035   4.432   1.664   8.159 -1.4040 -1.1092  0.3077
 6134TIP3   OH240036   5.124   1.892   0.640  0.3803 -0.1628 -0.3512
 6134TIP3    H140037   5.062   1.860   0.575 -0.1769  0.5530 -0.1902
 6134TIP3    H240038   5.124   1.825   0.708  2.1535 -1.6981 -1.7717
 6135TIP3   OH240039   6.400   5.430   0.450  0.1550 -0.2706 -0.2597
 6135TIP3    H140040   6.437   5.513   0.480  0.2263 -0.1513 -0.6715
 6135TIP3    H240041   6.450   5.363   0.497 -1.2290 -0.0741  1.6153
 6136TIP3   OH240042   0.286   1.546   1.534  0.2763 -0.8804 -0.1484
 6136TIP3    H140043   0.218   1.610   1.511 -0.1663 -0.7676  1.3667
 6136TIP3    H240044   0.362   1.599   1.557  0.0528 -0.8844  0.6530
 6137TIP3   OH240045   4.936   4.633   8.298 -0.0552  0.7064  0.0684
 6137TIP3    H140046   4.995   4.709   8.291  1.8648 -0.5639  1.2761
 6137TIP3    H240047   4.991   4.564   8.335 -1.8539 -1.1688 -0.5738
 6138TIP3   OH240048   5.051   2.734   7.064  0.1912  0.1868  0.6689
 6138TIP3    H140049   5.035   2.800   6.997 -1.9866  0.4694  1.3857
 6138TIP3    H240050   5.042   2.651   7.018  1.6320  0.3488  0.0414
 6139TIP3   OH240051   0.907   4.554   7.846  0.2128 -0.2175 -0.1377
 6139TIP3    H140052   0.908   4.459   7.839 -0.6180 -0.2388 -0.0695
 6139TIP3    H240053   0.999   4.578   7.861  0.4319 -1.0009 -0.1880
 6140TIP3   OH240054   5.881   5.156   8.591  0.0446 -0.0993  0.0076
 6140TIP3    H140055   5.856   5.098   8.664  2.2336  0.2136  1.1045
 6140TIP3    H240056   5.977   5.154   8.592  0.1288  0.9282 -2.0889
 6141TIP3   OH240057   4.682   1.579   8.289 -0.1837  0.0589  0.3478
 6141TIP3    H140058   4.600   1.613   8.254  1.2396  2.3776 -1.0328
 6141TIP3    H240059   4.672   1.484   8.287 -3.3480  0.2615  1.6993
 6142TIP3   OH240060   5.076   2.691   2.675  0.3414  0.4396  0.4525
 6142TIP3    H140061   5.162   2.680   2.634  0.1430  1.0523 -0.1693
 6142TIP3    H240062   5.015   2.695   2.601 -0.1537  0.5689  0.8609
 6143TIP3   OH240063   6.334   2.599   8.323 -0.3325 -0.0785  0.1774
 6143TIP3    H140064   6.278   2.596   8.246 -1.1483  2.2083  0.6052
 6143TIP3    H240065   6.278   2.636   8.392  1.2747  0.9060  1.0076
 6144TIP3   OH240066   1.569   4.918   8.519 -0.3733  0.6229  0.1429
 6144TIP3    H140067   1.552   4.909   8.426  1.5845 -0.2172 -0.2024
 6144TIP3    H240068   1.595   5.009   8.530 -1.0628  0.8436 -0.0433
 6145TIP3   OH240069   2.180   6.270   1.091  0.0612  0.0746  0.0471
 6145TIP3    H140070   2.161   6.335   1.159 -0.1927 -1.1402  1.1707
 6145TIP3    H240071   2.095   6.247   1.055  0.0750 -0.1710  0.1680
 6146TIP3   OH240072   4.885   0.415   7.129  0.3629  0.2193  0.1639
 6146TIP3    H140073   4.807   0.369   7.099  0.7680 -2.1348  2.3074
 6146TIP3    H240074   4.900   0.483   7.064 -3.7181  1.1289 -0.0707
 6147TIP3   OH240075   3.260   4.922   1.067 -0.2978  0.6391  0.1383
 6147TIP3    H140076   3.185   4.883   1.021 -0.1879  0.7329 -0.1213
 6147TIP3    H240077   3.336   4.873   1.034 -0.0969  1.4406 -0.6062
 6148TIP3   OH240078   1.240   6.516   7.567  0.2516  0.5465  0.5247
 6148TIP3    H140079   1.240   6.565   7.650 -0.8860  0.1610  0.7632
 6148TIP3    H240080   1.324   6.469   7.567  1.4475  2.5311  0.2385
 6149TIP3   OH240081   3.244   4.144   1.070  0.2123 -0.1140  0.3370
 6149TIP3    H140082   3.184   4.093   1.124  0.0500 -1.4168 -1.0183
 6149TIP3    H240083   3.187   4.192   1.010  0.4350  0.6434  0.7135
 6150TIP3   OH240084   2.489   1.694   7.993  0.6133  0.0876 -0.3214
 6150TIP3    H140085   2.549   1.760   8.027  1.1391  0.1524 -1.3417
 6150TIP3    H240086   2.520   1.612   8.031  1.2860  0.1357 -0.7493
 6151TIP3   OH240087   4.544   1.100   8.002 -0.6100 -0.0426 -0.4215
 6151TIP3    H140088   4.532   1.026   8.061  2.5598 -1.1503 -0.9444
 6151TIP3    H240089   4.497   1.076   7.923 -0.5213 -1.0071 -0.1875
 6152TIP3   OH240090   0.488   0.668   7.281  0.2137 -0.0876  0.3498
 6152TIP3    H140091   0.507   0.612   7.205  0.3997  0.4082  0.0249
 6152TIP3    H240092   0.504   0.757   7.250  1.0099  0.0792  1.1777
 6153TIP3   OH240093   3.574   1.679   1.957  0.2660  0.1692 -0.1035
 6153TIP3    H140094   3.656   1.635   1.977 -1.3646 -2.4021  1.4809
 6153TIP3    H240095   3.560   1.739   2.030  0.2430 -0.1471  0.1513
 6154TIP3   OH240096   1.066   1.526   7.188 -0.2079  0.0219 -0.2458
 6154TIP3    H140097   1.156   1.496   7.186  0.0341  0.7017  0.1952
 6154TIP3    H240098   1.027   1.483   7.265 -0.6038 -1.1845 -1.0844
 6155TIP3   OH240099   2.656   6.818   7.160 -0.1377  0.4274  0.4167
 6155TIP3    H140100   2.571   6.861   7.167 -1.2076 -1.3168 -1.0516
 6155TIP3    H240101   2.645   6.753   7.091  2.1562 -0.4371  0.7683
 6156TIP3   OH240102   0.922   3.877   7.574  0.0411 -0.1622  0.0751
 6156TIP3    H140103   0.909   3.962   7.533  1.4356  0.7210  1.3490
 6156TIP3    H240104   0.839   3.857   7.616 -0.7078 -0.0734 -1.3135
 6157TIP3   OH240105   2.111   3.469   0.960 -0.2604 -0.0741  0.0298
 6157TIP3    H140106   2.107   3.564   0.970 -0.9577  0.1840 -2.1050
 6157TIP3    H240107   2.020   3.441   0.965 -0.0246 -0.7122  1.0550
 6158TIP3   OH240108   6.836   4.285   0.354  0.0148 -0.3526 -0.1207
 6158TIP3    H140109   6.755   4.337   0.358 -0.8847 -1.7568  0.8762
 6158TIP3    H240110   6.899   4.334   0.407  0.1355  1.2140 -1.6228
 6159TIP3   OH240111   5.935   5.643   7.793 -0.3747 -0.5020  0.0024
 6159TIP3    H140112   5.951   5.626   7.700  0.9855 -1.1874  0.3410
 6159TIP3    H240113   5.974   5.569   7.839  0.1678  0.4639  1.1819
 6160TIP3   OH240114   1.057   5.799   7.751 -0.5317 -0.3769  0.2838
 6160TIP3    H140115   0.990   5.803   7.819  0.8693 -1.6354  1.8471
 6160TIP3    H240116   1.140   5.792   7.799  0.6814  0.4150 -1.5633
 6161TIP3   OH240117   1.610   5.912   1.444 -0.2623  0.4094  0.4569
 6161TIP3    H140118   1.664   5.861   1.504 -0.5480  0.1372  0.4879
 6161TIP3    H240119   1.553   5.964   1.501 -1.4845 -0.8616  0.4455
 6162TIP3   OH240120   3.007   6.170   7.274 -0.4195  0.6479 -0.0368
 6162TIP3    H140121   2.956   6.221   7.211 -0.5897 -0.5269 -0.8800
 6162TIP3    H240122   3.003   6.081   7.241  1.0404  0.3062  0.6480
 6163TIP3   OH240123   4.934   0.075   0.841 -0.3803  0.3320 -0.3759
 6163TIP3    H140124   4.992   0.010   0.802  1.5981  1.3317  0.7228
 6163TIP3    H240125   4.847   0.037   0.834  0.5921 -2.0840 -0.4617
 6164TIP3   OH240126   3.044   5.199   8.772  0.4173  0.2463 -0.2949
 6164TIP3    H140127   2.976   5.171   8.834 -0.3318  1.2237 -0.6524
 6164TIP3    H240128   3.098   5.260   8.821 -0.9528  2.0561 -0.9110
 6165TIP3   OH240129   6.143   6.506   2.226  0.1028  0.1303 -0.0138
 6165TIP3    H140130   6.062   6.480   2.271 -0.4249 -0.8487 -1.4456
 6165TIP3    H240131   6.212   6.454   2.268 -0.5844 -1.8479 -1.1598
 6166TIP3   OH240132   6.111   6.621   1.168 -0.3188  0.0294 -0.0682
 6166TIP3    H140133   6.052   6.690   1.137 -0.9319 -0.7765 -0.7588
 6166TIP3    H240134   6.179   6.615   1.101  0.4389  0.8008  0.6145
 6167TIP3   OH240135   1.000   4.159   0.773  0.6688  0.4957 -0.4039
 6167TIP3    H140136   1.068   4.226   0.768  0.7603  0.4644  0.3167
 6167TIP3    H240137   1.045   4.081   0.803  0.2355  0.6085  0.5887
 6168TIP3   OH240138   3.174   5.955   7.364  0.1153 -0.1355 -0.2476
 6168TIP3    H140139   3.228   6.011   7.422  0.0916 -0.6242  0.2502
 6168TIP3    H240140   3.093   5.943   7.412  0.2305 -0.8352 -0.2286
 6169TIP3   OH240141   5.905   2.131   0.532  0.1582  0.3752  0.0082
 6169TIP3    H140142   5.844   2.171   0.595 -0.1731 -0.3057  0.1323
 6169TIP3    H240143   5.875   2.041   0.525  2.0884 -0.4034  1.2315
 6170TIP3   OH240144   3.491   4.242   1.704  0.0028 -0.7566  0.8905
 6170TIP3    H140145   3.506   4.188   1.781  1.4255  0.1233  1.2630
 6170TIP3    H240146   3.578   4.268   1.675 -0.4043 -1.9558 -1.7070
 6171TIP3   OH240147   0.823   1.138   1.321  0.8617  0.0572 -0.3801
 6171TIP3    H140148   0.786   1.219   1.287 -4.1166 -1.1303  1.3392
 6171TIP3    H240149   0.886   1.167   1.387  0.0986  2.5322 -0.6345
 6172TIP3   OH240150   0.510   6.466   2.239  0.5820  0.2975  0.3493
 6172TIP3    H140151   0.542   6.452   2.328 -0.2371 -0.1106  0.5841
 6172TIP3    H240152   0.423   6.427   2.238  1.0306 -0.7573 -0.9497
 6173TIP3   OH240153   1.330   6.556   7.297 -0.5648  0.0595 -0.6592
 6173TIP3    H140154   1.284   6.629   7.255  1.2060  2.6247  1.4707
 6173TIP3    H240155   1.291   6.551   7.384 -0.0438 -0.9370 -0.4733
 6174TIP3   OH240156   1.998   2.150   7.831 -0.3029 -0.2874 -0.1747
 6174TIP3    H140157   1.978   2.164   7.739  1.2330 -0.9839 -0.6491
 6174TIP3    H240158   2.059   2.076   7.832  2.0563  1.5129  1.0895
 6175TIP3   OH240159   3.118   5.541   0.717  0.0630  0.4630  0.0451
 6175TIP3    H140160   3.184   5.510   0.655 -1.0675  1.1308 -1.5575
 6175TIP3    H240161   3.152   5.626   0.747  1.5225 -0.6738  1.8727
 6176TIP3   OH240162   3.240   2.642   7.997  0.2775  0.2677 -0.8949
 6176TIP3    H140163   3.239   2.583   8.072  0.9941  0.2244 -0.9149
 6176TIP3    H240164   3.234   2.585   7.921  1.2151  0.1848 -0.9239
 6177TIP3   OH240165   2.046   6.567   7.408  0.0928  0.0930  0.3799
 6177TIP3    H140166   2.036   6.584   7.502 -0.7969  3.2514 -0.1561
 6177TIP3    H240167   1.973   6.508   7.387 -1.1249  1.1707  1.3329
 6178TIP3   OH240168   3.509   5.873   2.014  0.1758 -0.3940 -0.0417
 6178TIP3    H140169   3.562   5.826   2.078  0.6384  1.4000  0.9444
 6178TIP3    H240170   3.458   5.935   2.066 -0.9759 -0.3018 -1.2316
 6179TIP3   OH240171   3.459   1.294   0.704  0.2627  0.3598 -0.5111
 6179TIP3    H140172   3.413   1.210   0.705 -2.1392  1.5434 -1.6934
 6179TIP3    H240173   3.466   1.316   0.611 -0.4078  2.0768 -0.1904
 6180TIP3   OH240174   1.325   5.236   8.076 -0.1640 -0.2645 -0.1819
 6180TIP3    H140175   1.355   5.319   8.039  0.1846 -1.3641 -2.5131
 6180TIP3    H240176   1.232   5.231   8.053 -1.2857  1.1146  3.2647
 6181TIP3   OH240177   2.752   0.781   6.883 -0.5969 -0.4430  0.0815
 6181TIP3    H140178   2.720   0.853   6.937 -0.0884  2.1575 -2.8151
 6181TIP3    H240179   2.744   0.813   6.793  4.4016 -1.8956 -1.1998
 6182TIP3   OH240180   5.186   5.640   8.408 -0.2468  0.5970 -0.0507
 6182TIP3    H140181   5.274   5.621   8.377 -0.1502  0.3172  0.3800
 6182TIP3    H240182   5.139   5.671   8.331  0.1585  0.5028 -0.3359
 6183TIP3   OH240183   2.895   6.353   2.499 -0.5145  0.1576 -0.0989
 6183TIP3    H140184   2.946   6.329   2.422 -0.7657  0.5390 -0.3843
 6183TIP3    H240185   2.945   6.423   2.541 -0.6639  0.3393 -0.2250
 6184TIP3   OH240186   0.000   0.339   0.484 -0.7308 -0.5344  0.2988
 6184TIP3    H140187   0.090   0.361   0.507 -1.3067  0.6141  1.6039
 6184TIP3    H240188  -0.004   0.244   0.493  0.3951 -0.6275  0.0008
 6185TIP3   OH240189   2.024   3.566   7.958 -0.0712  1.2138  0.0524
 6185TIP3    H140190   2.006   3.524   8.042  0.0739 -0.2159 -0.5914
 6185TIP3    H240191   1.950   3.626   7.945 -0.1188  1.4203  1.1608
 6186TIP3   OH240192   2.873   6.401   0.617 -0.8310 -0.5728 -0.2926
 6186TIP3    H140193   2.910   6.340   0.553  0.0978 -1.0479  0.6530
 6186TIP3    H240194   2.865   6.349   0.697 -4.4297 -0.7438 -0.6392
 6187TIP3   OH240195   6.542   3.189   7.605 -0.4533  0.4302 -0.2876
 6187TIP3    H140196   6.618   3.228   7.649  1.0890  1.6426 -3.6986
 6187TIP3    H240197   6.482   3.263   7.593 -0.0692  0.5377 -1.6795
 6188TIP3   OH240198   1.508   4.928   8.249  0.9006 -0.1890 -0.4756
 6188TIP3    H140199   1.416   4.903   8.240  0.8884  0.2817 -1.9564
 6188TIP3    H240200   1.518   5.005   8.192  2.2119 -0.2252 -0.3377
 6189TIP3   OH240201   5.891   0.492   1.287  0.1485 -0.7186  0.0231
 6189TIP3    H140202   5.929   0.513   1.372 -0.5888  0.6366  0.0491
 6189TIP3    H240203   5.966   0.465   1.233  0.7426 -0.7499  0.8446
 6190TIP3   OH240204   5.497   1.429   0.130 -0.3447 -0.2912 -0.4659
 6190TIP3    H140205   5.418   1.453   0.178 -0.3680 -1.0430 -0.1262
 6190TIP3    H240206   5.505   1.497   0.063 -1.5707 -0.4967 -0.8423
 6191TIP3   OH240207   4.578   3.856   1.420 -0.0959 -0.3299 -0.3695
 6191TIP3    H140208   4.499   3.882   1.374  0.7664  0.4608 -1.4432
 6191TIP3    H240209   4.606   3.935   1.466  0.3855 -0.4482 -0.4576
 6192TIP3   OH240210   5.667   2.363   8.464 -0.4416  0.3595 -0.2160
 6192TIP3    H140211   5.730   2.291   8.455  0.5227  1.0695  0.6322
 6192TIP3    H240212   5.707   2.436   8.417  0.2741  1.3626  1.8714
 6193TIP3   OH240213   2.889   3.045   0.095 -0.2738 -0.4987  0.4988
 6193TIP3    H140214   2.845   3.009   0.018 -0.0141  0.1521  0.0408
 6193TIP3    H240215   2.833   3.117   0.123 -0.4583 -0.8424  1.0334
 6194TIP3   OH240216   1.253   1.964   1.251 -0.4127 -0.3231  0.4304
 6194TIP3    H140217   1.321   1.936   1.189 -0.2723 -0.9832  0.8710
 6194TIP3    H240218   1.261   1.903   1.324  0.6901  1.5886  1.9958
 6195TIP3   OH240219   2.920   2.050   7.944  0.4718  0.7870  0.0897
 6195TIP3    H140220   2.869   1.973   7.919  3.1809 -1.6261  1.3590
 6195TIP3    H240221   2.858   2.107   7.989 -1.4486 -1.0854 -0.0239
 6196TIP3   OH240222   0.635   0.439   2.180 -0.5967  0.2266  0.2622
 6196TIP3    H140223   0.586   0.404   2.255 -2.5663 -0.2052 -1.1393
 6196TIP3    H240224   0.673   0.521   2.213  0.0086 -0.7628  2.1858
 6197TIP3   OH240225   6.526   1.521   0.264  0.1564 -0.2686 -0.1208
 6197TIP3    H140226   6.541   1.516   0.170  1.0279  1.0606 -0.0836
 6197TIP3    H240227   6.614   1.535   0.301 -0.1310 -1.0940  0.9167
 6198TIP3   OH240228   6.771   2.572   2.211  0.2223  0.1020  1.1349
 6198TIP3    H140229   6.750   2.555   2.303 -0.4760  1.6093  1.2831
 6198TIP3    H240230   6.834   2.644   2.213  1.9533 -1.3070  0.4815
 6199TIP3   OH240231   0.420   2.938   7.238  0.6132 -0.3581  0.4617
 6199TIP3    H140232   0.407   2.997   7.164  0.5087 -1.5178 -0.4558
 6199TIP3    H240233   0.490   2.880   7.211  0.8790 -0.5293  1.4558
 6200TIP3   OH240234   2.842   5.567   6.729  0.3531  0.0087  0.4135
 6200TIP3    H140235   2.930   5.578   6.763  0.7425 -2.5515  0.4255
 6200TIP3    H240236   2.798   5.511   6.793 -0.9268  0.3187 -0.1614
 6201TIP3   OH240237   5.412   2.595   1.988  0.0031  0.2659  0.1378
 6201TIP3    H140238   5.327   2.612   2.027  0.1699  1.2815  0.0664
 6201TIP3    H240239   5.400   2.513   1.940 -0.4578 -0.5131  1.5152
 6202TIP3   OH240240   1.013   6.458   1.250  0.1790 -0.1067 -0.5564
 6202TIP3    H140241   1.041   6.495   1.166  0.8233  0.4191 -0.1239
 6202TIP3    H240242   0.981   6.533   1.299  1.9068 -0.0024  0.4971
 6203TIP3   OH240243   0.999   2.947   1.116 -0.1603 -0.1850  0.2321
 6203TIP3    H140244   1.059   2.879   1.147 -0.5106  0.1268  1.6545
 6203TIP3    H240245   0.927   2.947   1.180 -2.2875 -1.3020 -1.9840
 6204TIP3   OH240246   4.578   3.433   2.439 -0.1556 -0.4673  0.0055
 6204TIP3    H140247   4.514   3.365   2.421  0.0284 -1.0957  1.5813
 6204TIP3    H240248   4.606   3.417   2.529  2.0403 -0.0737 -0.5424
 6205TIP3   OH240249   5.021   2.910   8.819 -0.4315  0.2140 -0.1483
 6205TIP3    H140250   4.965   2.986   8.839 -0.5052 -0.3132  1.8590
 6205TIP3    H240251   5.086   2.910   8.889 -1.3147 -2.3916  0.7712
 6206TIP3   OH240252   2.834   1.941   1.838 -0.1641 -0.6289  0.3746
 6206TIP3    H140253   2.870   1.974   1.920  1.0655  0.1887 -0.4605
 6206TIP3    H240254   2.781   2.014   1.804 -0.9288 -1.0772  0.5793
 6207TIP3   OH240255   0.321   3.970   1.388 -0.2194  0.1329 -0.5297
 6207TIP3    H140256   0.245   4.019   1.357 -1.2697 -1.4356 -0.5447
 6207TIP3    H240257   0.377   3.961   1.311 -0.9593 -0.3881 -1.0100
 6208TIP3   OH240258   1.757   5.821   0.972  0.5049 -0.2292 -0.0213
 6208TIP3    H140259   1.757   5.746   1.031 -0.9796  0.3424  0.7716
 6208TIP3    H240260   1.732   5.895   1.028 -0.7384  0.3767 -1.3214
 6209TIP3   OH240261   2.413   3.872   1.538 -0.2716  0.4303 -0.5620
 6209TIP3    H140262   2.466   3.876   1.618  0.2953  1.1998 -0.9701
 6209TIP3    H240263   2.396   3.964   1.516 -2.7946  0.2263  0.2155
 6210TIP3   OH240264   5.050   1.152   2.519 -0.5498 -0.1881  0.1826
 6210TIP3    H140265   5.119   1.099   2.481 -0.4212 -1.0787  1.5893
 6210TIP3    H240266   4.969   1.120   2.479 -0.3578 -0.6589  0.1742
 6211TIP3   OH240267   5.389   1.819   2.356 -0.0900  0.3734  0.1510
 6211TIP3    H140268   5.482   1.804   2.368 -0.3063  0.0993  1.7865
 6211TIP3    H240269   5.379   1.839   2.263  1.5659  0.2802 -0.0729
 6212TIP3   OH240270   5.122   1.699   6.887  0.2765  0.2569 -0.8212
 6212TIP3    H140271   5.201   1.646   6.898 -0.0311  0.1785  1.4812
 6212TIP3    H240272   5.141   1.781   6.932 -1.8928 -0.8998  2.6504
 6213TIP3   OH240273   1.662   6.673   1.596  0.0760  0.3743  0.1252
 6213TIP3    H140274   1.628   6.623   1.671 -0.7775  1.3715  0.4244
 6213TIP3    H240275   1.593   6.667   1.530  0.7289 -0.3024 -0.5106
 6214TIP3   OH240276   5.577   0.315   0.063  0.2653  0.1625  0.1226
 6214TIP3    H140277   5.512   0.245   0.071 -0.5962  0.6589 -1.8639
 6214TIP3    H240278   5.525   0.396   0.058  1.2097  0.9268  1.6842
 6215TIP3   OH240279   4.103   1.180   8.726 -0.2053 -0.3824 -0.1127
 6215TIP3    H140280   4.153   1.253   8.763  2.1019 -2.0575  0.2786
 6215TIP3    H240281   4.082   1.209   8.637 -1.6896  1.7706  0.8334
 6216TIP3   OH240282   3.121   5.825   7.997 -0.5441  0.1940  0.0838
 6216TIP3    H140283   3.135   5.910   8.039  2.4734 -0.4259  0.5212
 6216TIP3    H240284   3.112   5.764   8.070  1.9408 -0.4700 -0.0762
 6217TIP3   OH240285   2.314   3.445   7.375  0.0399 -0.5223  0.0190
 6217TIP3    H140286   2.284   3.405   7.456  0.1592 -1.0002 -0.1724
 6217TIP3    H240287   2.276   3.533   7.377 -2.0865 -1.3656 -0.6322
 6218TIP3   OH240288   3.581   3.328   8.062 -0.1424  0.1934  0.0064
 6218TIP3    H140289   3.639   3.269   8.111 -0.2436  0.0412 -0.0556
 6218TIP3    H240290   3.623   3.413   8.068  0.9615 -0.1990 -1.4048
 6219TIP3   OH240291   6.320   2.347   6.868 -0.1175  0.3624 -0.0939
 6219TIP3    H140292   6.345   2.333   6.959  2.7060 -1.5056 -1.0426
 6219TIP3    H240293   6.224   2.351   6.870 -0.1347  0.9808  2.9671
 6220TIP3   OH240294   0.828   1.279   8.456  0.2491 -0.4262  0.5212
 6220TIP3    H140295   0.905   1.329   8.484 -1.0502  1.7487  0.3600
 6220TIP3    H240296   0.860   1.228   8.381  0.9445  2.6226 -1.4375
 6221TIP3   OH240297   5.286   0.294   7.234 -0.2804 -0.2171  0.4582
 6221TIP3    H140298   5.209   0.326   7.282 -0.6351 -1.6858  0.9368
 6221TIP3    H240299   5.250   0.228   7.174  0.2234  1.2357 -1.5429
 6222TIP3   OH240300   2.207   5.797   7.285  0.1204  0.0487 -0.4156
 6222TIP3    H140301   2.258   5.786   7.365 -0.3134  0.1515 -0.1191
 6222TIP3    H240302   2.116   5.780   7.312 -0.0601  0.3381 -0.8267
 6223TIP3   OH240303   6.670   4.674   7.832 -0.2639  0.6633  0.3142
 6223TIP3    H140304   6.600   4.610   7.841  0.1362  0.0763 -0.5581
 6223TIP3    H240305   6.625   4.756   7.812 -0.7100  0.2863 -0.2542
 6224TIP3   OH240306   0.093   5.097   2.068  0.0402 -0.4149  0.4600
 6224TIP3    H140307   0.062   5.186   2.049 -0.5422 -0.7354 -0.1463
 6224TIP3    H240308   0.034   5.066   2.137  0.2697 -0.3171  0.7007
 6225TIP3   OH240309   6.029   3.148   1.752  0.2935  0.0351 -0.3249
 6225TIP3    H140310   6.000   3.194   1.830  0.9966  0.3314 -0.2324
 6225TIP3    H240311   6.026   3.055   1.777  0.2623  0.1113 -0.0378
 6226TIP3   OH240312   1.745   4.859   7.476 -0.6451 -0.1886 -0.0906
 6226TIP3    H140313   1.709   4.770   7.476 -3.0183  0.6512 -1.8737
 6226TIP3    H240314   1.762   4.878   7.568 -1.6310 -1.9233  0.4997
 6227TIP3   OH240315   0.734   4.150   1.555  0.2396 -0.0073 -0.0297
 6227TIP3    H140316   0.692   4.104   1.482  0.6305  1.4768 -1.2421
 6227TIP3    H240317   0.828   4.138   1.540  0.3409 -1.7161  1.6191
 6228TIP3   OH240318   2.349   1.756   8.570 -0.2378  0.5555 -0.5532
 6228TIP3    H140319   2.345   1.698   8.646 -1.6578  0.7973 -0.4261
 6228TIP3    H240320   2.438   1.791   8.572  0.5729 -1.3670 -0.4563
 6229TIP3   OH240321   2.683   1.839   0.134  0.7667 -0.1365 -0.2173
 6229TIP3    H140322   2.718   1.755   0.164 -1.9623 -0.6869  1.7012
 6229TIP3    H240323   2.677   1.892   0.213 -3.9595 -0.6384  0.0413
 6230TIP3   OH240324   1.784   4.141   2.259 -0.1732  0.5462 -0.0950
 6230TIP3    H140325   1.865   4.091   2.266 -0.8632 -0.5884  0.1093
 6230TIP3    H240326   1.755   4.152   2.350 -0.7309  0.0913 -0.2096
 6231TIP3   OH240327   4.183   1.775   6.504 -0.3500 -0.3946 -0.2313
 6231TIP3    H140328   4.262   1.818   6.535  0.7697 -2.1846 -0.4749
 6231TIP3    H240329   4.168   1.704   6.567 -1.4981 -0.3908 -0.4654
 6232TIP3   OH240330   4.075   1.848   7.917 -0.1847  0.3592 -0.1433
 6232TIP3    H140331   3.986   1.864   7.886 -0.2074 -0.0498 -0.2970
 6232TIP3    H240332   4.073   1.869   8.010 -0.3302  0.7826 -0.2428
 6233TIP3   OH240333   2.696   5.430   6.956 -0.1252 -0.3361  0.1337
 6233TIP3    H140334   2.722   5.516   6.988 -1.0268  0.1403 -0.3867
 6233TIP3    H240335   2.630   5.401   7.018  0.2855 -0.7330  0.3952
 6234TIP3   OH240336   5.188   1.356   8.277  0.5212  0.2263  0.2701
 6234TIP3    H140337   5.190   1.411   8.199  1.3244  0.1768  0.2491
 6234TIP3    H240338   5.113   1.298   8.264  0.5546  0.3259 -0.3835
 6235TIP3   OH240339   4.035   3.913   2.045 -0.0680  0.2830  0.4300
 6235TIP3    H140340   4.034   3.820   2.026  0.3651  0.5120 -0.7900
 6235TIP3    H240341   4.099   3.923   2.115  0.7356 -0.1991 -0.2300
 6236TIP3   OH240342   5.569   0.725   0.621 -0.1449 -0.2001 -0.3482
 6236TIP3    H140343   5.652   0.736   0.574  2.2550  2.5579  3.9035
 6236TIP3    H240344   5.520   0.805   0.603  0.8001  0.8855  1.6343
 6237TIP3   OH240345   5.316   4.680   8.265  0.1810  0.1675 -0.0295
 6237TIP3    H140346   5.289   4.635   8.185 -3.4971  2.8454 -0.5874
 6237TIP3    H240347   5.324   4.611   8.331 -1.5684 -1.6665 -1.6114
 6238TIP3   OH240348   4.387   2.599   1.684 -0.2769 -0.2043  0.7533
 6238TIP3    H140349   4.352   2.538   1.619 -0.3326  0.5090  0.0990
 6238TIP3    H240350   4.464   2.637   1.642  0.2373 -0.4176  1.4768
 6239TIP3   OH240351   3.455   4.703   1.985 -0.2156 -0.1272 -1.1254
 6239TIP3    H140352   3.452   4.673   2.076  0.9052  0.1849 -0.9651
 6239TIP3    H240353   3.443   4.624   1.933 -1.2149 -0.2575 -0.7151
 6240TIP3   OH240354   5.969   3.966   1.636  0.1980 -0.3807 -0.1251
 6240TIP3    H140355   5.975   4.059   1.614  1.2666 -0.6876 -1.2884
 6240TIP3    H240356   5.996   3.962   1.728 -0.3429  0.5067  0.0856
 6241TIP3   OH240357   3.827   0.879   7.879 -0.5885 -0.2100 -0.0012
 6241TIP3    H140358   3.760   0.812   7.893 -0.2292 -0.3010  1.4851
 6241TIP3    H240359   3.907   0.828   7.863 -0.4501 -0.1314  0.4358
 6242TIP3   OH240360   2.298   0.534   8.243 -0.0564 -0.4838 -0.5901
 6242TIP3    H140361   2.253   0.618   8.251  0.6974  0.1107 -2.1153
 6242TIP3    H240362   2.353   0.529   8.321 -2.2080 -0.9391  0.9832
 6243TIP3   OH240363   0.087   0.633   0.657 -0.1555 -0.5973 -0.2587
 6243TIP3    H140364   0.000   0.626   0.617 -0.3645 -0.5022  0.1742
 6243TIP3    H240365   0.141   0.572   0.607 -0.3844 -0.3949 -0.7626
 6244TIP3   OH240366   5.853   0.079   1.761 -0.2220 -0.0422  0.4313
 6244TIP3    H140367   5.941   0.091   1.799  0.1511 -0.3034 -0.3402
 6244TIP3    H240368   5.868   0.076   1.667 -1.0380 -0.3421  0.3068
 6245TIP3   OH240369   6.668   6.770   7.119  0.4391 -0.7730  0.3568
 6245TIP3    H140370   6.633   6.689   7.083  1.6923 -0.1618 -2.4984
 6245TIP3    H240371   6.762   6.763   7.107  0.5624  1.1411 -0.0992
 6246TIP3   OH240372   1.387   1.281   8.401 -0.8872  0.4744 -0.2497
 6246TIP3    H140373   1.415   1.193   8.428 -2.2863 -0.3678 -1.4108
 6246TIP3    H240374   1.293   1.273   8.389 -1.4042  2.7089  1.6617
 6247TIP3   OH240375   5.155   5.689   8.070  0.2365  0.7864  0.3383
 6247TIP3    H140376   5.071   5.647   8.087  1.4292 -2.8115 -1.5647
 6247TIP3    H240377   5.134   5.764   8.014 -1.6950 -0.0859 -0.1858
 6248TIP3   OH240378   6.702   5.203   8.672  0.1820  0.3352 -0.0662
 6248TIP3    H140379   6.777   5.172   8.722 -0.5042 -1.5965 -0.1703
 6248TIP3    H240380   6.640   5.130   8.673 -0.2456  0.5573 -2.9328
 6249TIP3   OH240381   2.880   6.091   2.083  0.4210 -0.3329 -0.5354
 6249TIP3    H140382   2.970   6.094   2.116  1.0094  0.2769 -2.1167
 6249TIP3    H240383   2.838   6.167   2.124  1.1422  0.4139 -1.1274
 6250TIP3   OH240384   5.202   6.848   0.366  0.8313 -0.4015 -0.9267
 6250TIP3    H140385   5.127   6.838   0.307  1.0330 -1.3519 -1.0397
 6250TIP3    H240386   5.233   6.759   0.381  2.0924 -0.0110 -1.0760
 6251TIP3   OH240387   3.179   0.424   0.670 -0.3754  0.8622  0.7374
 6251TIP3    H140388   3.132   0.454   0.748 -2.9400 -2.0715  0.5117
 6251TIP3    H240389   3.121   0.446   0.597 -0.6143 -1.1501  0.2566
 6252TIP3   OH240390   5.413   5.134   1.233 -0.3502 -0.6719 -0.9711
 6252TIP3    H140391   5.362   5.205   1.274 -4.2785 -3.2614 -0.8732
 6252TIP3    H240392   5.421   5.160   1.141 -1.7276 -0.0535 -0.9381
 6253TIP3   OH240393   1.336   5.622   8.403  0.0409  0.5747  0.3099
 6253TIP3    H140394   1.309   5.543   8.355 -1.7870  0.6147  1.1989
 6253TIP3    H240395   1.391   5.590   8.474 -1.1396  0.0160  0.9936
 6254TIP3   OH240396   0.883   0.925   7.940 -0.3879 -0.4088 -0.2609
 6254TIP3    H140397   0.965   0.952   7.982  0.3609 -1.6024 -0.8830
 6254TIP3    H240398   0.867   0.992   7.874 -0.2448  0.1580  0.2725
 6255TIP3   OH240399   0.862   1.489   0.400  0.5381 -0.3518  0.2380
 6255TIP3    H140400   0.767   1.483   0.393  0.5738 -0.3294 -0.3289
 6255TIP3    H240401   0.895   1.422   0.341  0.8783 -1.0119  1.1519
 6256TIP3   OH240402   3.650   4.877   2.883 -0.0707 -0.4133 -0.3528
 6256TIP3    H140403   3.734   4.831   2.883 -0.4848 -1.2066  0.1742
 6256TIP3    H240404   3.597   4.830   2.819 -1.1418 -1.9829  1.5414
 6257TIP3   OH240405   1.886   6.582   7.052 -0.5121  0.7616  0.4796
 6257TIP3    H140406   1.878   6.611   6.961  0.0904  0.1890  0.2338
 6257TIP3    H240407   1.799   6.548   7.074 -0.2742 -0.5055 -0.3974
 6258TIP3   OH240408   2.594   2.708   8.528  0.1479 -0.1616 -0.5181
 6258TIP3    H140409   2.575   2.719   8.622  1.5147 -0.6043 -0.1657
 6258TIP3    H240410   2.662   2.773   8.510  0.0897 -0.2729 -1.1424
 6259TIP3   OH240411   3.726   5.663   1.918 -0.3217 -0.8410 -0.1140
 6259TIP3    H140412   3.642   5.616   1.922 -1.3726  0.8000 -1.5215
 6259TIP3    H240413   3.739   5.694   2.008 -0.8608 -1.7029  0.2796
 6260TIP3   OH240414   5.087   2.845   1.676  0.2686 -0.4406  0.0850
 6260TIP3    H140415   5.149   2.827   1.747  0.1582 -1.1004  0.0262
 6260TIP3    H240416   5.082   2.940   1.672 -0.3474 -0.3788  1.5150
 6261TIP3   OH240417   1.002   4.120   7.986 -0.3482  0.0937  0.3471
 6261TIP3    H140418   1.024   4.063   7.911 -0.0338  0.7250 -0.0522
 6261TIP3    H240419   0.943   4.068   8.039  1.9274 -1.6508  1.3647
 6262TIP3   OH240420   3.084   1.172   0.727 -0.1478  0.8452  0.1057
 6262TIP3    H140421   3.173   1.138   0.730 -0.2018  0.7585  1.3885
 6262TIP3    H240422   3.057   1.163   0.636  0.8950  0.1927 -0.1453
 6263TIP3   OH240423   3.427   1.608   6.387 -0.2072  0.0842  0.5363
 6263TIP3    H140424   3.477   1.527   6.370  0.0051  0.6196 -1.7767
 6263TIP3    H240425   3.487   1.678   6.363 -2.0404  0.7489 -2.6606
 6264TIP3   OH240426   4.714   1.100   8.355 -0.7533  0.3609 -0.3119
 6264TIP3    H140427   4.733   1.170   8.418 -2.2496 -0.4897  1.1724
 6264TIP3    H240428   4.620   1.107   8.339 -1.0989 -1.7405  0.4794
 6265TIP3   OH240429   0.860   0.736   8.180 -0.0858 -0.1695 -0.4093
 6265TIP3    H140430   0.917   0.669   8.218 -1.2506 -0.9999 -0.0497
 6265TIP3    H240431   0.913   0.778   8.113  0.8103 -1.1917 -0.3688
 6266TIP3   OH240432   2.375   2.674   1.138 -0.3148 -1.1860  0.0278
 6266TIP3    H140433   2.349   2.697   1.227  0.3166  0.3857 -0.1533
 6266TIP3    H240434   2.311   2.720   1.082  0.5019 -0.4780 -0.3440
 6267TIP3   OH240435   6.744   3.060   7.424  0.5286  0.2576  0.3470
 6267TIP3    H140436   6.663   3.064   7.475  0.5689 -0.7780  0.5277
 6267TIP3    H240437   6.789   3.142   7.443  0.3486  0.0793  1.6630
 6268TIP3   OH240438   4.992   6.589   0.224  0.1920 -0.4772 -0.2498
 6268TIP3    H140439   4.898   6.582   0.212  0.4056 -1.4769 -1.4913
 6268TIP3    H240440   5.013   6.679   0.198 -0.3121 -0.4974 -0.7251
 6269TIP3   OH240441   1.703   1.152   0.452  0.0982  0.0528 -0.6985
 6269TIP3    H140442   1.665   1.224   0.402 -2.7048 -1.1424 -0.4715
 6269TIP3    H240443   1.667   1.073   0.412  1.7472 -1.1659  0.1138
 6270TIP3   OH240444   3.037   5.634   7.829  0.8652  0.1831  0.4500
 6270TIP3    H140445   2.963   5.663   7.777  1.0566  0.5106  0.3564
 6270TIP3    H240446   3.048   5.702   7.896  1.0805  0.1386  0.4614
 6271TIP3   OH240447   2.366   1.977   1.081 -0.3285 -0.0156 -0.0825
 6271TIP3    H140448   2.451   1.976   1.125 -0.3118  1.3969 -0.0333
 6271TIP3    H240449   2.304   1.954   1.150 -0.0112 -0.9988 -0.1041
 6272TIP3   OH240450   5.062   6.235   0.198  0.0594  0.0050  0.0380
 6272TIP3    H140451   5.111   6.208   0.275  0.2740  0.9414  0.2433
 6272TIP3    H240452   5.108   6.195   0.124 -0.3394 -1.1731  0.3976
 6273TIP3   OH240453   4.860   2.738   1.036  0.0733  0.8217 -0.0377
 6273TIP3    H140454   4.772   2.729   1.000 -0.4484  1.6132  1.0022
 6273TIP3    H240455   4.918   2.717   0.962 -0.9730  0.4983 -0.7901
 6274TIP3   OH240456   2.977   4.974   7.665 -0.5822  0.0077 -0.3300
 6274TIP3    H140457   3.068   4.987   7.640 -1.1085 -0.8871 -3.0552
 6274TIP3    H240458   2.927   4.993   7.585 -2.6982 -0.6540  0.7524
 6275TIP3   OH240459   4.320   1.848   7.319 -0.7021 -0.0340  0.0124
 6275TIP3    H140460   4.249   1.875   7.377 -0.0504 -1.2569  1.4270
 6275TIP3    H240461   4.304   1.755   7.304  0.1513 -0.1266 -0.3308
 6276TIP3   OH240462   1.424   0.161   0.905 -0.2856  0.3630  0.6819
 6276TIP3    H140463   1.488   0.207   0.958 -0.5569 -0.3868  1.7079
 6276TIP3    H240464   1.444   0.068   0.918  0.6695  0.1407 -1.8527
 6277TIP3   OH240465   2.560   0.675   7.110 -0.2862  0.3323  0.6719
 6277TIP3    H140466   2.493   0.742   7.104 -1.9834 -1.0613  2.7487
 6277TIP3    H240467   2.521   0.606   7.164  1.4417 -2.2406 -1.1363
 6278TIP3   OH240468   2.573   2.324   2.313 -0.0401  0.2689 -0.6863
 6278TIP3    H140469   2.660   2.359   2.294 -0.1777  0.6344 -0.6544
 6278TIP3    H240470   2.550   2.360   2.398 -0.6042  0.9237 -1.1033
 6279TIP3   OH240471   6.639   6.656   1.561  0.3797  0.1712 -0.5951
 6279TIP3    H140472   6.602   6.722   1.619 -0.3950  0.0438 -0.9362
 6279TIP3    H240473   6.651   6.579   1.618 -0.0769  0.1469 -0.5279
 6280TIP3   OH240474   0.291   1.952   7.599  0.3906  0.2673  0.1215
 6280TIP3    H140475   0.342   1.965   7.519  0.4781 -0.4421  0.0534
 6280TIP3    H240476   0.337   2.002   7.666  1.7831 -1.1578  0.2934
 6281TIP3   OH240477   3.411   4.549   0.426 -0.1259 -0.2744  0.1112
 6281TIP3    H140478   3.410   4.537   0.331 -1.6806 -2.3082  0.3047
 6281TIP3    H240479   3.495   4.513   0.455  0.2210  0.0702 -0.4564
 6282TIP3   OH240480   3.768   0.518   0.235 -0.4685  0.8606 -0.1919
 6282TIP3    H140481   3.762   0.498   0.329 -0.5392 -0.0642 -0.3843
 6282TIP3    H240482   3.849   0.569   0.227 -0.7868  1.4902  0.4541
 6283TIP3   OH240483   6.128   2.931   1.888  0.0380  0.3230  0.4236
 6283TIP3    H140484   6.072   2.866   1.930  2.6744 -2.1217  0.4609
 6283TIP3    H240485   6.123   3.008   1.945 -1.6319 -0.5382  1.5047
 6284TIP3   OH240486   1.754   6.402   8.272  0.0768 -0.1454  0.3284
 6284TIP3    H140487   1.711   6.451   8.342  0.6573 -0.5340  0.9759
 6284TIP3    H240488   1.768   6.315   8.309  1.7664  0.0766  0.2954
 6285TIP3   OH240489   5.612   3.193   8.316 -0.8093 -0.4016  0.1278
 6285TIP3    H140490   5.519   3.213   8.327 -0.6128  0.5873  0.1345
 6285TIP3    H240491   5.633   3.225   8.228 -0.8080 -2.0106 -0.4907
 6286TIP3   OH240492   5.690   3.819   1.869 -0.4341 -0.0414 -0.4118
 6286TIP3    H140493   5.601   3.845   1.893  0.3775  1.4795  1.2446
 6286TIP3    H240494   5.743   3.896   1.890  1.3105 -1.0277 -1.0473
 6287TIP3   OH240495   0.609   1.264   0.177 -0.0060 -0.0860  0.1290
 6287TIP3    H140496   0.573   1.188   0.130 -0.5190  0.8825 -1.1115
 6287TIP3    H240497   0.637   1.229   0.262 -1.5214 -1.3912  0.1367
 6288TIP3   OH240498   0.433   1.062   0.045  0.0484 -0.4501 -0.1534
 6288TIP3    H140499   0.446   0.978   0.088  0.1743 -0.3312  0.0490
 6288TIP3    H240500   0.497   1.063  -0.026 -0.2210 -0.6843 -0.3954
 6289TIP3   OH240501   4.828   3.180   8.310 -0.6350  0.0151  0.3897
 6289TIP3    H140502   4.822   3.251   8.246  2.1514  1.5070  1.5797
 6289TIP3    H240503   4.892   3.120   8.272 -1.7626 -1.0307  0.1256
 6290TIP3   OH240504   1.507   3.821   0.179 -0.1679  0.9108  0.2153
 6290TIP3    H140505   1.582   3.775   0.139 -0.6425  1.6468 -1.5993
 6290TIP3    H240506   1.470   3.757   0.240 -0.3510 -0.9033 -1.6747
 6291TIP3   OH240507   2.433   5.527   2.143  0.2391  0.0915 -0.1753
 6291TIP3    H140508   2.362   5.591   2.145 -0.4240 -0.4846 -2.7066
 6291TIP3    H240509   2.479   5.541   2.226 -1.0239  2.5101  0.2166
 6292TIP3   OH240510   4.239   6.599   6.483  0.0915  0.5236 -0.6220
 6292TIP3    H140511   4.219   6.690   6.506 -1.7229  0.1721 -0.6863
 6292TIP3    H240512   4.328   6.586   6.515 -0.1786  1.8491  0.8001
 6293TIP3   OH240513   5.836   6.236   0.175  0.3340 -0.5055  0.0699
 6293TIP3    H140514   5.773   6.191   0.231 -0.9566  2.4110  1.1552
 6293TIP3    H240515   5.916   6.241   0.227 -0.0856  0.0076  0.6842
 6294TIP3   OH240516   0.811   2.530   6.963  0.0450  0.0680  0.0406
 6294TIP3    H140517   0.828   2.446   6.921 -3.2847 -1.4308  1.3512
 6294TIP3    H240518   0.782   2.587   6.891  1.8195  0.0133 -0.7753
 6295TIP3   OH240519   4.812   0.893   1.028 -0.3532 -0.5677  0.5463
 6295TIP3    H140520   4.800   0.973   0.977  0.1380 -1.4139 -0.9886
 6295TIP3    H240521   4.727   0.877   1.068 -1.3926 -0.8934 -1.6211
 6296TIP3   OH240522   0.086   4.883   6.590  0.1641  0.2527 -0.3187
 6296TIP3    H140523   0.014   4.928   6.545 -0.4271 -0.8128 -0.4894
 6296TIP3    H240524   0.161   4.895   6.533  0.0636  1.1403 -0.2826
 6297TIP3   OH240525   3.899   4.949   8.755  0.7915 -0.9835  0.2302
 6297TIP3    H140526   3.932   4.950   8.665 -2.2206  2.5214 -1.1210
 6297TIP3    H240527   3.946   5.021   8.798  1.0174 -1.5583  0.9624
 6298TIP3   OH240528   3.479   6.168   6.838  0.3753  0.2442  0.0878
 6298TIP3    H140529   3.525   6.151   6.757 -0.0362 -2.2002  0.2848
 6298TIP3    H240530   3.542   6.147   6.907 -0.2807 -1.0161  0.3485
 6299TIP3   OH240531   4.100   5.828   8.339  0.3435  0.0008 -0.5041
 6299TIP3    H140532   4.158   5.824   8.415  3.9147 -0.9767 -3.0444
 6299TIP3    H240533   4.042   5.752   8.348  0.7679 -0.1531  1.1411
 6300TIP3   OH240534   0.654   0.285   1.941  0.0426  0.0052 -0.0140
 6300TIP3    H140535   0.572   0.303   1.896 -0.2275 -0.3796  0.3068
 6300TIP3    H240536   0.659   0.351   2.011 -0.3483 -0.4002  0.4068
 6301TIP3   OH240537   2.640   5.351   1.081  0.1158  0.2079 -0.5741
 6301TIP3    H140538   2.560   5.404   1.079 -0.9090 -1.1879  0.6708
 6301TIP3    H240539   2.709   5.410   1.052 -0.9347  2.2729  0.8931
 6302TIP3   OH240540   6.268   2.939   1.643  0.0933 -0.8010 -0.2335
 6302TIP3    H140541   6.181   2.938   1.602 -0.2079 -0.1025  0.3704
 6302TIP3    H240542   6.252   2.910   1.733  0.4848 -0.6475 -0.1120
 6303TIP3   OH240543   0.603   0.171   8.118 -0.4709 -0.2015  0.2067
 6303TIP3    H140544   0.674   0.124   8.073 -2.1877 -4.5800  1.4668
 6303TIP3    H240545   0.542   0.195   8.049  0.4356  0.1585 -0.4939
 6304TIP3   OH240546   6.126   5.975   0.782 -0.6531  0.3739 -0.5417
 6304TIP3    H140547   6.110   6.033   0.857  0.6656  1.4668 -1.0569
 6304TIP3    H240548   6.211   5.935   0.801 -0.5282  0.3008 -1.2359
 6305TIP3   OH240549   5.052   3.554   7.030  0.0571  0.7390 -0.1398
 6305TIP3    H140550   4.968   3.568   7.074  0.1333 -0.2172  0.3221
 6305TIP3    H240551   5.103   3.632   7.053  0.0549  0.3272  1.4031
 6306TIP3   OH240552   4.722   4.151   1.815  0.3078  0.4213  0.0944
 6306TIP3    H140553   4.719   4.078   1.876 -0.4503 -0.3928 -0.8891
 6306TIP3    H240554   4.724   4.229   1.871 -1.1139 -0.2746  1.1576
 6307TIP3   OH240555   6.670   5.647   8.407  0.7717  0.2714 -0.1256
 6307TIP3    H140556   6.592   5.616   8.362  0.5547 -0.7751  0.9417
 6307TIP3    H240557   6.701   5.572   8.458  1.0199  1.3799  1.4493
 6308TIP3   OH240558   5.776   6.386   7.592  0.5833  0.4864 -0.5477
 6308TIP3    H140559   5.734   6.472   7.586 -0.5360  0.0898  0.9171
 6308TIP3    H240560   5.715   6.326   7.550 -1.2263 -0.3334  2.9163
 6309TIP3   OH240561   3.401   3.017   7.261 -0.0384 -0.4569  0.2595
 6309TIP3    H140562   3.470   3.074   7.227 -0.0038  0.4298  1.6835
 6309TIP3    H240563   3.320   3.064   7.243 -0.2206 -1.0930 -0.6462
 6310TIP3   OH240564   4.385   5.098   1.852 -0.4470 -0.5241  0.2525
 6310TIP3    H140565   4.357   5.074   1.764  0.3272  0.7003 -0.3623
 6310TIP3    H240566   4.303   5.106   1.902 -1.2266  2.0385 -1.2424
 6311TIP3   OH240567   2.582   0.527   6.875  0.0276 -0.4186 -0.5470
 6311TIP3    H140568   2.611   0.578   6.950 -1.8541  1.5745 -1.0729
 6311TIP3    H240569   2.628   0.565   6.800  0.5112 -1.1918 -0.6596
 6312TIP3   OH240570   0.367   4.558   0.640 -0.2910  0.6919  0.0607
 6312TIP3    H140571   0.426   4.536   0.712  0.1522  1.2723 -0.1133
 6312TIP3    H240572   0.288   4.591   0.682 -0.8780 -0.9438  0.3214
 6313TIP3   OH240573   3.390   4.035   6.679  0.3928 -0.1499  0.1193
 6313TIP3    H140574   3.448   4.060   6.751  1.2000 -0.7592 -0.3044
 6313TIP3    H240575   3.448   4.027   6.603 -0.0587 -1.8298 -0.0799
 6314TIP3   OH240576   3.982   0.216   1.002  0.2068  0.7712 -0.2018
 6314TIP3    H140577   3.936   0.149   1.053  0.0306 -0.0540 -1.4059
 6314TIP3    H240578   4.074   0.194   1.011  0.2003  0.8467  0.0561
 6315TIP3   OH240579   4.895   6.720   6.631  0.2841 -0.6027  0.2523
 6315TIP3    H140580   4.950   6.650   6.595 -0.4905 -1.1750  0.1724
 6315TIP3    H240581   4.850   6.757   6.555  2.2246  1.3999 -0.0254
 6316TIP3   OH240582   3.508   3.589   1.440  0.0317 -0.0710  0.1009
 6316TIP3    H140583   3.442   3.652   1.414 -0.6718 -0.2488  1.3998
 6316TIP3    H240584   3.578   3.599   1.375 -1.5894 -0.4447 -1.7704
 6317TIP3   OH240585   3.522   0.257   1.557 -0.9044 -0.1830  0.0838
 6317TIP3    H140586   3.557   0.168   1.558 -2.2631 -0.7538  0.3991
 6317TIP3    H240587   3.579   0.306   1.616 -1.2764 -1.3440  1.4662
 6318TIP3   OH240588   0.710   1.487   0.848 -0.4161  0.1019  0.0502
 6318TIP3    H140589   0.768   1.413   0.826 -0.3432  0.5205 -1.2423
 6318TIP3    H240590   0.701   1.535   0.766  1.8152  3.1532  1.4080
 6319TIP3   OH240591   1.565   2.239   1.385  0.2141  0.1325  0.4548
 6319TIP3    H140592   1.486   2.186   1.390  0.6293 -0.5402  0.0899
 6319TIP3    H240593   1.562   2.294   1.463  0.0235 -0.8016  1.1304
 6320TIP3   OH240594   2.751   6.465   1.101 -0.9053 -0.2925  0.6098
 6320TIP3    H140595   2.709   6.400   1.044 -0.1670 -1.5269  1.4160
 6320TIP3    H240596   2.684   6.487   1.166 -1.1438 -0.2933  0.3641
 6321TIP3   OH240597   0.820   4.790   7.656 -0.2247 -0.5125 -0.5622
 6321TIP3    H140598   0.857   4.752   7.736  1.1437  0.7163 -0.5590
 6321TIP3    H240599   0.777   4.870   7.685  0.7296  0.2152 -1.0982
 6322TIP3   OH240600   5.571   0.184   0.977 -0.1307 -0.1250 -0.0237
 6322TIP3    H140601   5.583   0.253   1.042 -0.9474  0.1032 -0.1091
 6322TIP3    H240602   5.660   0.165   0.946  0.1883  0.2723  0.6283
 6323TIP3   OH240603   4.907   5.651   0.069 -0.5456 -0.0886  0.1490
 6323TIP3    H140604   4.930   5.665   0.161 -0.8601  0.5752  0.1296
 6323TIP3    H240605   4.985   5.679   0.020  0.0752 -1.5277  0.2431
 6324TIP3   OH240606   1.737   2.768   1.061 -0.2496 -0.5514 -0.2251
 6324TIP3    H140607   1.725   2.678   1.032  1.3788 -0.3741 -1.5890
 6324TIP3    H240608   1.732   2.820   0.981 -2.2062  0.7305  0.6574
 6325TIP3   OH240609   4.109   2.229   2.836 -0.8809 -0.5041  0.1353
 6325TIP3    H140610   4.125   2.150   2.888  1.2109 -0.7871 -0.8207
 6325TIP3    H240611   4.113   2.301   2.899 -0.2538 -0.9715  0.6417
 6326TIP3   OH240612   3.980   5.378   1.325 -0.4821 -0.1622 -0.3725
 6326TIP3    H140613   4.023   5.296   1.298  1.5980  0.6283  0.3272
 6326TIP3    H240614   3.996   5.438   1.253  0.2695  0.3425  0.1920
 6327TIP3   OH240615   3.471   6.395   1.240  0.0003  0.0916 -0.1782
 6327TIP3    H140616   3.451   6.302   1.250  0.4248 -0.4912 -3.4713
 6327TIP3    H240617   3.385   6.437   1.239 -0.1846 -0.1604  1.6373
 6328TIP3   OH240618   0.368   1.237   8.314  0.1426 -0.2420 -0.7297
 6328TIP3    H140619   0.361   1.142   8.309  0.6455 -0.2865 -0.6120
 6328TIP3    H240620   0.462   1.255   8.313  0.0504  0.2642 -0.9231
 6329TIP3   OH240621   4.772   3.990   7.141  0.1320  0.4632  0.0214
 6329TIP3    H140622   4.782   4.018   7.050  0.1901 -0.3861 -0.2394
 6329TIP3    H240623   4.685   4.022   7.167  0.4765  1.4755 -0.0420
 6330TIP3   OH240624   1.265   5.158   1.080 -0.1370 -0.2695  0.0477
 6330TIP3    H140625   1.350   5.127   1.110  0.2621 -0.2081 -0.9782
 6330TIP3    H240626   1.219   5.079   1.051 -0.5925 -0.3523  0.9452
 6331TIP3   OH240627   5.875   0.409   0.326  0.1911 -0.5195  0.0756
 6331TIP3    H140628   5.901   0.369   0.243 -1.4261 -0.0599 -0.7057
 6331TIP3    H240629   5.870   0.503   0.306 -1.0808 -0.4928  0.4145
 6332TIP3   OH240630   2.166   0.749   7.386 -0.0500 -0.4902 -0.3596
 6332TIP3    H140631   2.092   0.689   7.380 -0.9261  0.5128  0.0976
 6332TIP3    H240632   2.142   0.823   7.330  0.2998  0.1455  0.3085
 6333TIP3   OH240633   3.649   3.643   1.703 -0.1233  0.4060  0.3059
 6333TIP3    H140634   3.610   3.630   1.789  0.6483  2.8440  1.0970
 6333TIP3    H240635   3.575   3.640   1.643 -0.9642  0.7958  1.2909
 6334TIP3   OH240636   5.054   1.709   0.830  0.0443 -0.2372  0.2022
 6334TIP3    H140637   4.964   1.690   0.805  0.0671  0.7296 -0.7267
 6334TIP3    H240638   5.051   1.725   0.924 -0.6269 -0.8447  0.2915
 6335TIP3   OH240639   1.708   6.167   8.685  0.2941 -0.1514 -0.0997
 6335TIP3    H140640   1.690   6.077   8.662  0.0845 -0.7128  2.0048
 6335TIP3    H240641   1.785   6.191   8.633  0.2630 -1.4878 -0.7796
 6336TIP3   OH240642   2.210   2.007   1.571  0.0151  0.0853 -0.3328
 6336TIP3    H140643   2.130   2.034   1.616 -0.1268  1.4347 -1.2975
 6336TIP3    H240644   2.275   2.073   1.597  0.4873 -0.3243 -0.4639
 6337TIP3   OH240645   1.900   1.581   2.399  0.3538 -0.5111 -0.3720
 6337TIP3    H140646   1.874   1.648   2.335  0.9624 -0.0661 -0.1545
 6337TIP3    H240647   1.981   1.614   2.437 -1.1483  0.3762  2.3001
 6338TIP3   OH240648   5.527   0.218   7.504  0.0127  0.0542 -0.0574
 6338TIP3    H140649   5.566   0.271   7.574  1.7636 -0.3036 -0.7115
 6338TIP3    H240650   5.519   0.278   7.430 -1.1989  0.2552  0.2210
 6339TIP3   OH240651   3.854   5.958   7.474 -0.1642  0.3475  0.1184
 6339TIP3    H140652   3.942   5.958   7.437 -0.2511  0.0502 -0.1014
 6339TIP3    H240653   3.807   6.024   7.424 -0.7346 -1.1628 -1.4662
 6340TIP3   OH240654   0.901   1.221   7.903 -0.4253  0.6884 -0.2063
 6340TIP3    H140655   0.915   1.313   7.926 -0.7393  0.6426  0.1717
 6340TIP3    H240656   0.806   1.213   7.895 -0.7136 -0.3629  3.0174
 6341TIP3   OH240657   3.607   6.148   2.283 -0.7124 -1.1244 -0.7107
 6341TIP3    H140658   3.597   6.155   2.378 -0.5618  1.3518 -0.8164
 6341TIP3    H240659   3.528   6.102   2.253 -1.7643 -0.1165  0.4246
 6342TIP3   OH240660   6.425   3.017   1.420 -0.3464  0.1489  0.3270
 6342TIP3    H140661   6.485   3.085   1.450  0.3584 -1.0148  1.6524
 6342TIP3    H240662   6.376   2.991   1.498 -0.9843 -0.4872 -0.2693
 6343TIP3   OH240663   1.674   2.902   0.831 -0.9574  0.3808 -0.0676
 6343TIP3    H140664   1.697   2.877   0.742 -0.7782  1.1357 -0.2435
 6343TIP3    H240665   1.578   2.911   0.829 -0.9455  0.4852 -0.2096
 6344TIP3   OH240666   3.203   5.162   0.612 -0.0094  0.0444 -0.3385
 6344TIP3    H140667   3.297   5.156   0.597 -0.0988 -0.2959 -0.7739
 6344TIP3    H240668   3.174   5.233   0.555 -0.0594 -0.0386 -0.4174
 6345TIP3   OH240669   6.436   1.975   1.335 -0.4433 -0.6821 -0.5791
 6345TIP3    H140670   6.511   1.935   1.380  0.0284 -0.6738 -1.3401
 6345TIP3    H240671   6.450   1.955   1.242 -1.1136 -0.2302 -0.7860
 6346TIP3   OH240672   6.768   1.562   0.349  0.2684  0.5710 -0.0430
 6346TIP3    H140673   6.838   1.622   0.321  0.8683  1.9479  3.8278
 6346TIP3    H240674   6.809   1.475   0.346  2.0757  1.2904  1.6621
 6347TIP3   OH240675   3.745   2.039   8.667 -0.1776  0.1779  0.0489
 6347TIP3    H140676   3.653   2.061   8.684 -0.6198 -1.3637 -0.1713
 6347TIP3    H240677   3.789   2.055   8.750 -1.0088 -0.7529  0.6972
 6348TIP3   OH240678   4.507   5.310   7.665 -0.0592  0.0188  0.4748
 6348TIP3    H140679   4.469   5.373   7.603  0.6872  0.4405  0.4301
 6348TIP3    H240680   4.432   5.275   7.712 -0.9846 -2.3384 -2.4550
 6349TIP3   OH240681   3.687   6.845   8.122 -0.5338  0.0250 -0.4200
 6349TIP3    H140682   3.629   6.789   8.070 -2.1058  0.8546  0.3657
 6349TIP3    H240683   3.769   6.796   8.127 -0.5151 -0.3829 -3.1047
 6350TIP3   OH240684   0.043   2.238   8.225  0.1925 -0.5255 -0.1264
 6350TIP3    H140685   0.041   2.300   8.298 -0.2875 -0.2675 -0.3530
 6350TIP3    H240686  -0.049   2.211   8.214  0.3377 -0.9602 -0.2965
 6351TIP3   OH240687   2.821   1.398   1.679 -0.0020 -0.0649  0.1075
 6351TIP3    H140688   2.792   1.338   1.748  1.7463 -1.3077 -0.1984
 6351TIP3    H240689   2.910   1.371   1.658  0.7851  2.4832 -0.2472
 6352TIP3   OH240690   4.220   3.669   0.932  0.0770 -0.5743  0.2846
 6352TIP3    H140691   4.157   3.704   0.994  0.3049  1.2740 -0.4561
 6352TIP3    H240692   4.304   3.672   0.978 -0.0149 -0.8193  0.4682
 6353TIP3   OH240693   4.432   0.893   8.586  0.5084 -0.0426 -0.0817
 6353TIP3    H140694   4.355   0.901   8.643 -0.6091  0.0285 -1.5327
 6353TIP3    H240695   4.507   0.900   8.646 -0.5988 -1.1528  1.5244
 6354TIP3   OH240696   2.150   1.701   7.179 -0.4517  0.0092  0.1838
 6354TIP3    H140697   2.146   1.656   7.264  1.9738 -0.2820  0.2100
 6354TIP3    H240698   2.159   1.630   7.115  0.4928  0.2999 -0.0308
 6355TIP3   OH240699   0.817   3.055   7.750 -0.0810  0.1761  0.6016
 6355TIP3    H140700   0.896   3.031   7.702 -1.5373 -0.8782 -1.4542
 6355TIP3    H240701   0.848   3.102   7.827  2.5334 -0.5546  0.0790
 6356TIP3   OH240702   3.968   4.425   2.093  0.7549  0.3612  0.3706
 6356TIP3    H140703   3.933   4.372   2.021  1.8337 -0.1736  0.2214
 6356TIP3    H240704   4.049   4.380   2.119  1.8006  2.0194  0.1212
 6357TIP3   OH240705   1.872   0.134   7.831  0.0355  0.1709 -0.0415
 6357TIP3    H140706   1.947   0.131   7.891 -0.0215  0.7243  0.0635
 6357TIP3    H240707   1.828   0.050   7.844  1.0128 -0.4503 -0.5928
 6358TIP3   OH240708   0.933   0.033   7.270  0.5732 -0.0527 -0.0188
 6358TIP3    H140709   0.975   0.109   7.231  0.0364  0.1975 -0.1144
 6358TIP3    H240710   0.880   0.068   7.341  0.6845 -0.3908  0.2369
 6359TIP3   OH240711   6.288   4.188   1.709  0.6630  0.6067 -0.8897
 6359TIP3    H140712   6.299   4.264   1.766  4.4983 -0.8543  0.6330
 6359TIP3    H240713   6.276   4.114   1.769  1.9961 -0.6126 -2.0484
 6360TIP3   OH240714   3.308   3.200   7.468 -0.3438  0.6152  0.6563
 6360TIP3    H140715   3.232   3.143   7.480 -0.1291  0.0981 -0.2842
 6360TIP3    H240716   3.381   3.150   7.505  0.1228 -0.4842 -1.5555
 6361TIP3   OH240717   6.749   4.520   7.394 -0.3876  0.1806 -0.6288
 6361TIP3    H140718   6.759   4.613   7.411  0.0363 -0.0451  0.4784
 6361TIP3    H240719   6.743   4.480   7.482  0.4854 -0.9273 -1.0410
 6362TIP3   OH240720   4.513   4.006   0.479  0.1978 -0.1455  0.3578
 6362TIP3    H140721   4.514   3.911   0.492 -0.6197 -0.2346 -0.1364
 6362TIP3    H240722   4.563   4.041   0.553 -0.2960 -0.9056  1.0678
 6363TIP3   OH240723   1.011   1.743   8.134 -0.0121 -0.1367 -0.2363
 6363TIP3    H140724   0.923   1.778   8.116  0.0348 -0.3359 -0.8728
 6363TIP3    H240725   1.070   1.813   8.107  0.0041  0.8944  2.2094
 6364TIP3   OH240726   0.228   5.754   0.688 -0.0021  0.5307 -0.4578
 6364TIP3    H140727   0.275   5.823   0.641 -1.2211  2.3853  0.8932
 6364TIP3    H240728   0.144   5.794   0.710 -0.3759 -1.0680  1.2145
 6365TIP3   OH240729   0.307   1.112   1.141  0.5347  0.5408 -0.1262
 6365TIP3    H140730   0.226   1.162   1.146  1.1915  1.5878  0.4174
 6365TIP3    H240731   0.279   1.021   1.128 -0.7164  0.8692  0.1765
 6366TIP3   OH240732   4.540   0.011   6.531 -0.2895  0.3939 -0.4666
 6366TIP3    H140733   4.495   0.089   6.499 -0.7791 -0.0877 -0.9852
 6366TIP3    H240734   4.485  -0.020   6.604 -0.1801  0.4431 -0.3627
 6367TIP3   OH240735   4.719   6.454   8.415  0.2223 -0.4068 -0.0936
 6367TIP3    H140736   4.772   6.520   8.459  0.3547 -0.2001 -0.5488
 6367TIP3    H240737   4.731   6.374   8.466 -0.8674  0.1931  1.1587
 6368TIP3   OH240738   3.325   3.426   1.297 -0.2163 -0.2690  0.3588
 6368TIP3    H140739   3.389   3.477   1.346 -0.5674  0.4267  0.1045
 6368TIP3    H240740   3.345   3.443   1.205  0.7407 -1.9427  0.2120
 6369TIP3   OH240741   0.403   2.118   1.944  0.1314  0.6041 -0.1784
 6369TIP3    H140742   0.471   2.052   1.936 -0.2550  0.1565  0.1823
 6369TIP3    H240743   0.342   2.083   2.009 -0.8435  0.6435 -1.0328
 6370TIP3   OH240744   1.705   0.547   8.702  0.2608  0.3206 -0.0544
 6370TIP3    H140745   1.688   0.640   8.686 -1.2333 -0.1359 -1.3684
 6370TIP3    H240746   1.784   0.528   8.651  0.5601  0.8583  0.2013
 6371TIP3   OH240747   6.481   4.821   7.372 -0.2469 -0.7374 -0.1945
 6371TIP3    H140748   6.508   4.835   7.281  0.5206 -0.0893  0.1190
 6371TIP3    H240749   6.468   4.726   7.379 -0.1280 -0.8105 -0.9346
 6372TIP3   OH240750   5.513   0.964   8.798 -0.3248  0.4556 -0.2749
 6372TIP3    H140751   5.597   0.958   8.843 -0.3382  1.8633 -0.0234
 6372TIP3    H240752   5.495   1.058   8.793 -2.5874  0.1578  0.9705
 6373TIP3   OH240753   5.590   6.411   8.488  1.0510 -0.7226 -0.1657
 6373TIP3    H140754   5.602   6.386   8.397  2.7596 -0.6893  0.0154
 6373TIP3    H240755   5.660   6.474   8.505 -1.8600  2.8392 -0.0503
 6374TIP3   OH240756   6.129   4.281   8.126 -0.2279 -0.5332 -0.0262
 6374TIP3    H140757   6.037   4.281   8.101 -0.1507 -0.4908 -0.3042
 6374TIP3    H240758   6.150   4.188   8.141 -0.3391 -0.5340  0.1316
 6375TIP3   OH240759   6.823   0.416   1.813  0.2977 -0.1527 -0.0990
 6375TIP3    H140760   6.805   0.438   1.904 -0.6945  2.6346 -0.8661
 6375TIP3    H240761   6.751   0.359   1.787  0.8232 -1.3301  0.9369
 6376TIP3   OH240762   4.488   5.463   0.634 -0.2877 -0.0829  0.2640
 6376TIP3    H140763   4.570   5.463   0.683  0.6432 -1.0836 -1.2097
 6376TIP3    H240764   4.510   5.504   0.550 -1.5284  0.4922  0.2031
 6377TIP3   OH240765   3.174   4.558   1.749 -0.1673  0.3697  0.1127
 6377TIP3    H140766   3.148   4.637   1.796  0.3086 -0.1366  1.2687
 6377TIP3    H240767   3.257   4.532   1.789  1.4840  1.1701 -2.5368
 6378TIP3   OH240768   1.960   0.973   6.369 -0.2376  0.6140 -0.0497
 6378TIP3    H140769   1.977   1.058   6.329  0.9822  0.4743  0.1155
 6378TIP3    H240770   1.940   0.915   6.296 -0.5402  0.9299 -0.2144
 6379TIP3   OH240771   4.228   0.968   7.427 -0.3002  0.2346  0.1328
 6379TIP3    H140772   4.257   0.932   7.511  0.7320  1.2813  0.2620
 6379TIP3    H240773   4.206   0.892   7.374  2.8035 -0.7368  0.0353
 6380TIP3   OH240774   1.978   0.097   6.895 -0.5098  0.4028 -0.3104
 6380TIP3    H140775   1.884   0.113   6.896 -0.8996 -1.5456 -0.7612
 6380TIP3    H240776   1.989   0.012   6.939  0.7948 -0.3089 -1.8599
 6381TIP3   OH240777   2.168   6.835   7.786  0.2147  0.0045 -0.4525
 6381TIP3    H140778   2.180   6.930   7.783 -1.0519  0.1842 -0.3329
 6381TIP3    H240779   2.198   6.810   7.874 -0.3583  0.4398 -0.1272
 6382TIP3   OH240780   6.212   4.932   0.790 -0.5242  0.8214  0.6058
 6382TIP3    H140781   6.151   4.995   0.752 -0.8007 -0.7210 -1.7587
 6382TIP3    H240782   6.187   4.848   0.751  2.1217 -0.1296  0.7289
 6383TIP3   OH240783   3.277   3.863   0.854  0.6040  0.2929 -0.2357
 6383TIP3    H140784   3.317   3.780   0.881 -1.5755 -0.7041  0.1757
 6383TIP3    H240785   3.220   3.887   0.927  0.9830  2.0304 -0.4727
 6384TIP3   OH240786   4.442   0.344   8.257 -0.1948  0.3604  0.9608
 6384TIP3    H140787   4.477   0.276   8.200 -0.8886 -0.4480  1.4694
 6384TIP3    H240788   4.404   0.409   8.197 -0.0517  0.0105  0.4861
 6385TIP3   OH240789   6.181   5.356   2.613  0.3982  0.1214  0.1886
 6385TIP3    H140790   6.233   5.416   2.560  1.5673  0.6477  1.8512
 6385TIP3    H240791   6.243   5.317   2.674 -0.5788 -1.7989  0.0476
 6386TIP3   OH240792   6.473   1.838   8.439 -0.6098 -0.1425  0.3266
 6386TIP3    H140793   6.420   1.855   8.517  0.7433 -2.1076  1.7928
 6386TIP3    H240794   6.556   1.883   8.455  0.1383 -1.5827  0.6548
 6387TIP3   OH240795   2.838   6.410   0.273  0.1889 -0.1983  0.1346
 6387TIP3    H140796   2.774   6.425   0.343 -1.0706  1.1427 -1.2107
 6387TIP3    H240797   2.919   6.449   0.306 -0.4555  0.6736  0.7318
 6388TIP3   OH240798   3.438   5.286   7.096  0.6647 -0.7606  0.1905
 6388TIP3    H140799   3.350   5.320   7.109  1.3940  1.4757 -0.3663
 6388TIP3    H240800   3.432   5.235   7.015  0.6433  2.6715 -2.1561
 6389TIP3   OH240801   3.234   4.251   0.617 -0.4999 -0.3312  0.1097
 6389TIP3    H140802   3.223   4.167   0.572 -0.0332 -0.1607 -0.3332
 6389TIP3    H240803   3.297   4.233   0.686 -0.1322 -0.2665 -0.2068
 6390TIP3   OH240804   5.559   5.966   0.547 -0.9877  0.5333  0.1348
 6390TIP3    H140805   5.579   5.907   0.620 -0.2236 -0.3501 -0.7460
 6390TIP3    H240806   5.469   5.944   0.523 -0.4477 -0.9175 -0.7092
 6391TIP3   OH240807   0.043   4.051   0.645 -0.1571  0.1063  0.4430
 6391TIP3    H140808   0.136   4.071   0.656  0.2650 -1.0641 -0.6556
 6391TIP3    H240809  -0.002   4.111   0.703  1.4717 -1.5104  3.6520
 6392TIP3   OH240810   0.092   2.740   1.802  0.2741  0.8620  0.6339
 6392TIP3    H140811  -0.004   2.737   1.811  0.2129  1.1361  0.0946
 6392TIP3    H240812   0.107   2.725   1.709  0.7068  1.9955  0.5157
 6393TIP3   OH240813   6.645   0.697   0.762 -0.3326 -0.2409 -0.3116
 6393TIP3    H140814   6.553   0.680   0.784 -0.4457 -0.4858 -0.9564
 6393TIP3    H240815   6.663   0.639   0.688  0.3439 -0.1918 -0.1874
 6394TIP3   OH240816   2.419   1.633   1.899  0.1360  0.3495  0.9428
 6394TIP3    H140817   2.333   1.675   1.896 -0.4024 -0.7502 -0.3489
 6394TIP3    H240818   2.457   1.651   1.813  1.0505  0.5319  1.3816
 6395TIP3   OH240819   4.024   2.549   0.963  0.2596 -0.3637 -0.2166
 6395TIP3    H140820   4.076   2.615   1.009  1.6492 -1.3503 -0.3246
 6395TIP3    H240821   4.048   2.466   1.004 -1.5698 -0.8400  0.0207
 6396TIP3   OH240822   1.151   3.746   8.740 -0.9741 -0.4387  0.0027
 6396TIP3    H140823   1.086   3.684   8.771 -2.3939  0.5457 -0.8476
 6396TIP3    H240824   1.102   3.828   8.728 -0.1176 -0.2196 -2.7775
 6397TIP3   OH240825   5.980   1.520   8.180 -0.1842 -0.1878 -0.1176
 6397TIP3    H140826   5.889   1.526   8.151 -0.2352 -0.6445 -0.0517
 6397TIP3    H240827   5.995   1.427   8.196  0.6454 -0.2888 -1.2902
 6398TIP3   OH240828   0.465   3.420   2.316  0.1500 -0.1596  0.3418
 6398TIP3    H140829   0.553   3.389   2.335  0.4648 -1.5641 -2.7250
 6398TIP3    H240830   0.408   3.351   2.348  0.0916  0.7924  2.4115
 6399TIP3   OH240831   1.846   0.896   1.883 -0.3987  0.3796  0.3556
 6399TIP3    H140832   1.755   0.870   1.900 -0.6023 -0.0672 -1.2966
 6399TIP3    H240833   1.861   0.875   1.791  1.1161  1.2651  0.3632
 6400TIP3   OH240834   5.230   1.854   2.579 -0.3288  0.2195  0.2445
 6400TIP3    H140835   5.290   1.844   2.505  1.4625  1.9375  1.3427
 6400TIP3    H240836   5.249   1.780   2.636  0.4898  0.5044  0.3667
 6401TIP3   OH240837   4.314   0.539   8.121  0.0641  0.2311  0.1496
 6401TIP3    H140838   4.325   0.591   8.042 -0.3618 -0.2767 -0.2478
 6401TIP3    H240839   4.271   0.599   8.183 -3.0185 -0.3958 -1.1950
 6402TIP3   OH240840   1.515   0.797   7.900  0.1248 -0.0934  0.0125
 6402TIP3    H140841   1.514   0.754   7.985 -0.5960  1.1997  0.6808
 6402TIP3    H240842   1.426   0.789   7.867  0.2333  0.0019 -0.3168
 6403TIP3   OH240843   6.624   6.505   7.093 -0.0449 -0.2691  0.0222
 6403TIP3    H140844   6.674   6.454   7.157 -0.4288 -0.0892  0.4730
 6403TIP3    H240845   6.545   6.453   7.077 -0.2991  0.0395  0.2601
 6404TIP3   OH240846   0.724   1.584   6.333 -0.1226 -0.6385  0.0550
 6404TIP3    H140847   0.657   1.652   6.337  0.0551 -0.4558 -0.0165
 6404TIP3    H240848   0.807   1.632   6.339  0.0532 -0.6974 -1.3870
 6405TIP3   OH240849   3.458   5.462   0.955 -0.3210 -0.1766  0.4108
 6405TIP3    H140850   3.368   5.494   0.963 -0.0888  0.4519  0.5974
 6405TIP3    H240851   3.453   5.369   0.976 -1.3588 -0.7938 -2.1812
 6406TIP3   OH240852   5.766   2.443   2.101  0.6756 -0.3412 -0.5814
 6406TIP3    H140853   5.744   2.534   2.120 -2.3332 -1.0874  0.1087
 6406TIP3    H240854   5.759   2.435   2.006  1.0298  0.1565 -0.6499
 6407TIP3   OH240855   2.425   5.964   7.537  0.0454  0.6203  0.5803
 6407TIP3    H140856   2.469   6.046   7.558 -0.1887  1.3441 -1.5226
 6407TIP3    H240857   2.398   5.929   7.622  1.7737  1.7722  1.6664
 6408TIP3   OH240858   0.576   4.443   7.785 -0.0678  0.4915 -0.7176
 6408TIP3    H140859   0.622   4.388   7.722  2.6470 -0.0647  1.5316
 6408TIP3    H240860   0.583   4.532   7.749 -0.5149 -0.0467 -2.1957
 6409TIP3   OH240861   1.930   6.812   0.214  0.3829 -0.2362 -0.6275
 6409TIP3    H140862   1.842   6.832   0.247  0.7388 -0.2339  0.3344
 6409TIP3    H240863   1.914   6.766   0.131 -0.5242 -0.1544 -0.5097
 6410TIP3   OH240864   3.589   5.437   0.495 -0.1479  0.5430  0.6617
 6410TIP3    H140865   3.592   5.471   0.584  1.2182  0.1280  0.7858
 6410TIP3    H240866   3.677   5.451   0.461  0.4281 -2.6228  0.6373
 6411TIP3   OH240867   6.712   5.132   8.300 -0.0019 -0.6545  0.6303
 6411TIP3    H140868   6.801   5.118   8.335  0.3367 -2.1194 -0.7256
 6411TIP3    H240869   6.656   5.078   8.356 -0.8825  3.5270  4.3916
 6412TIP3   OH240870   4.976   6.024   1.497 -0.1312  0.1173  0.7911
 6412TIP3    H140871   4.939   6.093   1.551  0.7443  0.4983  0.9204
 6412TIP3    H240872   4.914   5.951   1.506 -1.4687  1.1106  0.0385
 6413TIP3   OH240873   0.258   4.959   2.568  0.6869 -0.3509  0.6046
 6413TIP3    H140874   0.271   4.867   2.592  1.0652 -1.1188 -2.1884
 6413TIP3    H240875   0.344   4.986   2.534 -0.1737  0.0842 -1.3280
 6414TIP3   OH240876   6.089   2.582   2.608 -0.0924  0.3389 -0.4853
 6414TIP3    H140877   6.126   2.551   2.691  0.5728 -1.1360 -1.2870
 6414TIP3    H240878   6.119   2.673   2.601  2.1102 -0.3096 -0.3316
 6415TIP3   OH240879   6.249   1.289   1.229 -0.2387 -0.2646 -0.1531
 6415TIP3    H140880   6.267   1.335   1.147 -0.8539 -0.1674 -0.2387
 6415TIP3    H240881   6.165   1.247   1.215 -0.7630  0.4485  0.7191
 6416TIP3   OH240882   1.006   1.968   2.254  0.7662  0.2116 -0.3992
 6416TIP3    H140883   1.080   2.010   2.209 -0.2472  2.2502 -0.2718
 6416TIP3    H240884   0.974   2.034   2.315 -2.3942  0.2075 -1.8416
 6417TIP3   OH240885   1.300   0.721   1.315  0.6166 -0.0180 -0.6987
 6417TIP3    H140886   1.361   0.683   1.378  0.9007  1.1441 -0.2621
 6417TIP3    H240887   1.339   0.702   1.229  0.7974 -0.6061 -0.4930
 6418TIP3   OH240888   3.367   5.772   1.764  0.0425 -0.2227 -0.2730
 6418TIP3    H140889   3.412   5.824   1.697 -1.3804  1.4880  0.0149
 6418TIP3    H240890   3.405   5.800   1.847 -0.8423  0.4989 -0.1031
 6419TIP3   OH240891   4.309   4.223   2.970  0.1207  0.0139  0.0581
 6419TIP3    H140892   4.382   4.284   2.957 -1.1172  1.3357 -1.0591
 6419TIP3    H240893   4.248   4.271   3.025 -1.4167  0.3283 -1.8123
 6420TIP3   OH240894   0.488   6.568   0.364  0.4444  0.0990  0.1272
 6420TIP3    H140895   0.518   6.487   0.322  1.2732 -0.1656  1.2000
 6420TIP3    H240896   0.505   6.636   0.298  2.1943 -0.2364  0.1822
 6421TIP3   OH240897   0.665   2.507   1.465  0.2498  0.1932 -0.1554
 6421TIP3    H140898   0.654   2.592   1.423 -0.7987 -0.0164 -0.3257
 6421TIP3    H240899   0.671   2.445   1.393 -0.3004 -0.0235 -0.0161
 6422TIP3   OH240900   6.835   1.276   0.349  0.2645  0.3975  0.0298
 6422TIP3    H140901   6.785   1.269   0.267  2.4295  0.7318 -1.4193
 6422TIP3    H240902   6.826   1.190   0.390  0.2756 -0.2618 -1.2970
 6423TIP3   OH240903   5.993   4.167   7.557 -0.0026 -0.1655 -0.1093
 6423TIP3    H140904   6.025   4.196   7.472  0.8285  1.0008  0.5611
 6423TIP3    H240905   6.068   4.123   7.597 -0.6828 -1.5749 -0.3474
 6424TIP3   OH240906   1.794   1.280   8.115  0.1261  0.5611  0.6315
 6424TIP3    H140907   1.888   1.285   8.097 -0.2185 -0.2800 -1.6052
 6424TIP3    H240908   1.767   1.372   8.123  1.1195  0.8140  1.3647
 6425TIP3   OH240909   1.979   1.878   7.533  0.1612  0.6505  0.4746
 6425TIP3    H140910   2.074   1.874   7.526  0.1714  0.5028  0.6884
 6425TIP3    H240911   1.951   1.919   7.451  0.3010 -0.5392 -0.1909
 6426TIP3   OH240912   5.938   6.333   1.513  0.2853  0.5798  0.5464
 6426TIP3    H140913   5.969   6.410   1.466 -0.2296  0.5713  0.1817
 6426TIP3    H240914   5.853   6.313   1.473  1.9561 -2.3799 -1.9660
 6427TIP3   OH240915   0.882   0.506   1.192  0.1121  0.3244  0.6996
 6427TIP3    H140916   0.841   0.562   1.127 -0.4256 -0.0316  0.7275
 6427TIP3    H240917   0.975   0.506   1.168  0.0277  0.7657  0.3648
 6428TIP3   OH240918   2.322   1.279   1.289 -0.1099 -0.2133  0.1193
 6428TIP3    H140919   2.267   1.336   1.343  1.2304  0.1248  1.1803
 6428TIP3    H240920   2.384   1.339   1.247 -0.3536 -0.6158 -0.8511
 6429TIP3   OH240921   5.208   2.006   7.782 -0.1684 -0.8445 -0.1053
 6429TIP3    H140922   5.253   1.922   7.776  2.2866  0.4355 -0.8823
 6429TIP3    H240923   5.194   2.033   7.692  0.4955  0.2700  0.1022
 6430TIP3   OH240924   4.599   2.300   1.834 -0.4849  0.2996 -0.0785
 6430TIP3    H140925   4.512   2.289   1.873 -0.9026  2.2701 -0.3266
 6430TIP3    H240926   4.647   2.221   1.859 -1.7381  0.0416  1.7052
 6431TIP3   OH240927   4.403   2.523   0.242  0.3691 -0.0334 -0.0564
 6431TIP3    H140928   4.488   2.539   0.201 -0.3447 -1.1659 -2.1260
 6431TIP3    H240929   4.341   2.573   0.188 -0.6440 -1.8346 -0.6278
 6432TIP3   OH240930   1.390   3.496   7.101  0.0778  0.1553 -0.7032
 6432TIP3    H140931   1.368   3.518   7.010 -1.0038 -4.0594 -1.6700
 6432TIP3    H240932   1.485   3.504   7.105  0.1425  0.4112 -2.1800
 6433TIP3   OH240933   2.685   3.448   7.138  0.1583 -0.1092 -0.4141
 6433TIP3    H140934   2.729   3.477   7.057 -0.5999 -0.2906 -0.8988
 6433TIP3    H240935   2.696   3.353   7.138  0.8558 -0.0377  0.1215
 6434TIP3   OH240936   1.384   1.768   8.764 -0.0523 -0.5514 -0.0022
 6434TIP3    H140937   1.450   1.752   8.696 -0.2226 -1.1556 -0.0230
 6434TIP3    H240938   1.314   1.815   8.719  0.7266  0.8654  0.1980
 6435TIP3   OH240939   2.662   2.175   1.784  0.2830  0.4325  0.0314
 6435TIP3    H140940   2.658   2.152   1.691 -0.3803 -1.2424  0.4500
 6435TIP3    H240941   2.620   2.261   1.789 -3.0222 -0.9924 -0.7714
 6436TIP3   OH240942   6.638   6.753   8.618 -0.3947  0.4012 -0.3608
 6436TIP3    H140943   6.594   6.838   8.614 -0.7404  0.2362 -0.0648
 6436TIP3    H240944   6.655   6.730   8.526  0.4841  1.1929 -0.4161
 6437TIP3   OH240945   0.718   6.153   0.470 -0.3001  0.4786 -0.0349
 6437TIP3    H140946   0.760   6.237   0.453 -0.8302  1.0374  1.3006
 6437TIP3    H240947   0.653   6.144   0.399 -0.1113  1.0921 -0.2908
 6438TIP3   OH240948   5.729   3.200   1.503  0.4291 -0.4407  0.1040
 6438TIP3    H140949   5.778   3.119   1.490  0.7014 -0.3518  0.5423
 6438TIP3    H240950   5.783   3.267   1.462  0.3598 -0.4366  0.0203
 6439TIP3   OH240951   0.421   2.731   7.788 -0.4350 -0.3686  0.3139
 6439TIP3    H140952   0.331   2.757   7.809 -0.9842 -0.3745 -1.7907
 6439TIP3    H240953   0.461   2.810   7.752  0.4380 -0.3441  1.3253
 6440TIP3   OH240954   2.139   2.809   8.006 -0.3543 -0.2313 -0.1371
 6440TIP3    H140955   2.213   2.809   7.946 -0.1510 -2.3723  0.0558
 6440TIP3    H240956   2.177   2.801   8.093 -0.7650 -1.5943 -0.0509
 6441TIP3   OH240957   4.017   5.773   1.425  0.3190 -0.4731 -0.4181
 6441TIP3    H140958   4.057   5.723   1.354  0.7271 -1.0362  0.1963
 6441TIP3    H240959   4.086   5.831   1.456 -0.2812  0.7965 -1.4101
 6442TIP3   OH240960   3.761   3.697   2.130  0.0625  0.0817  0.3846
 6442TIP3    H140961   3.734   3.606   2.114 -1.7132  0.7858 -1.0095
 6442TIP3    H240962   3.730   3.716   2.219  1.1510 -0.8812  0.9984
 6443TIP3   OH240963   1.376   2.586   2.472 -0.1193 -0.6272  0.0567
 6443TIP3    H140964   1.330   2.513   2.514  0.5895 -1.6526 -0.8746
 6443TIP3    H240965   1.337   2.665   2.510 -0.1185 -1.4972  1.9351
 6444TIP3   OH240966   3.052   0.560   1.286 -0.2634 -0.4319  0.1776
 6444TIP3    H140967   3.035   0.600   1.201  0.9767  0.4220  0.3071
 6444TIP3    H240968   2.965   0.552   1.326 -1.0013 -1.7834 -1.5383
 6445TIP3   OH240969   5.700   2.957   1.095  0.1504 -0.2726  0.1235
 6445TIP3    H140970   5.700   3.047   1.128  0.2469 -0.5512  0.9099
 6445TIP3    H240971   5.612   2.924   1.114 -0.4073  0.1331 -1.5627
 6446TIP3   OH240972   5.052   4.867   7.756 -0.7444 -0.6035  0.5158
 6446TIP3    H140973   5.075   4.943   7.809  0.1066 -1.6144  1.6540
 6446TIP3    H240974   5.027   4.903   7.671  1.1962  0.8446  0.5071
 6447TIP3   OH240975   4.267   5.882   8.539  0.6305 -0.3663 -0.6386
 6447TIP3    H140976   4.356   5.849   8.550  0.6427  0.1459  1.1773
 6447TIP3    H240977   4.224   5.862   8.623 -0.9174 -0.4506 -1.4110
 6448TIP3   OH240978   0.236   2.814   7.982 -0.3866  0.0888  0.8030
 6448TIP3    H140979   0.184   2.893   7.997 -0.5238  0.8065 -2.5249
 6448TIP3    H240980   0.173   2.742   7.990 -1.1361  0.6605  0.2863
 6449TIP3   OH240981   4.782   4.047   1.554 -0.0060  0.1591 -0.1480
 6449TIP3    H140982   4.764   4.055   1.647 -1.1385 -0.1942 -0.3275
 6449TIP3    H240983   4.876   4.066   1.546  0.5590 -1.7260  1.3035
 6450TIP3   OH240984   2.981   5.353   1.056 -0.0696  0.4163 -0.4081
 6450TIP3    H140985   2.970   5.353   0.961 -0.2492 -0.3331 -0.3889
 6450TIP3    H240986   2.951   5.440   1.084 -0.8216  0.3279 -0.9423
 6451TIP3   OH240987   0.807   6.603   6.691 -0.1815 -0.1946  0.4058
 6451TIP3    H140988   0.882   6.544   6.699  0.2443  0.4226  1.0726
 6451TIP3    H240989   0.839   6.676   6.637  0.2843  0.9475  2.1421
 6452TIP3   OH240990   6.283   0.567   0.967 -0.3568  0.2052  0.2315
 6452TIP3    H140991   6.342   0.630   1.006 -2.9093  2.1279  1.2606
 6452TIP3    H240992   6.273   0.596   0.876 -0.2840  0.3292  0.2632
 6453TIP3   OH240993   1.901   1.594   1.815 -0.2200 -0.7848  0.1253
 6453TIP3    H140994   1.856   1.581   1.899  0.0315 -1.4057  0.1706
 6453TIP3    H240995   1.873   1.681   1.786 -2.6323 -1.7100 -0.5516
 6454TIP3   OH240996   4.212   2.363   8.774  0.1051  0.7021  0.1912
 6454TIP3    H140997   4.146   2.388   8.709 -0.8661  0.0891  0.9042
 6454TIP3    H240998   4.295   2.396   8.738 -0.7726  2.8961  0.0316
 6455TIP3   OH240999   4.002   2.394   0.198 -0.1518 -0.2943 -0.2840
 6455TIP3    H141000   3.993   2.464   0.263  1.0189 -1.2126  0.9075
 6455TIP3    H241001   4.075   2.422   0.143  0.6370 -0.7790  0.4934
 6456TIP3   OH241002   1.585   1.783   1.628 -0.2817  0.2000 -0.0344
 6456TIP3    H141003   1.501   1.764   1.586  0.1966 -1.1364 -0.4292
 6456TIP3    H241004   1.578   1.743   1.715  0.6792 -1.8386 -0.8220
 6457TIP3   OH241005   4.168   4.657   8.738  0.2621 -0.1645  0.3545
 6457TIP3    H141006   4.111   4.712   8.792  0.0325  0.3671 -0.4211
 6457TIP3    H241007   4.252   4.657   8.785 -0.0167  0.0553  0.8599
 6458TIP3   OH241008   0.399   6.147   7.632 -0.4058 -0.7442  0.2517
 6458TIP3    H141009   0.473   6.160   7.572 -0.0402  1.2786  1.0650
 6458TIP3    H241010   0.439   6.143   7.719 -1.1448 -1.1011  0.5839
 6459TIP3   OH241011   4.420   3.473   7.585  0.1358  0.3329  0.1425
 6459TIP3    H141012   4.427   3.539   7.516 -1.0868  0.8170  0.4670
 6459TIP3    H241013   4.359   3.510   7.648 -0.1768 -0.8884  0.5811
 6460TIP3   OH241014   0.555   0.454   0.476  0.1480  0.3997 -0.0278
 6460TIP3    H141015   0.626   0.441   0.413 -0.7707  1.4608 -1.3583
 6460TIP3    H241016   0.586   0.521   0.535 -0.0842  1.6169 -1.2320
 6461TIP3   OH241017   1.054   3.328   8.368 -0.4289 -0.7881  0.0897
 6461TIP3    H141018   1.064   3.387   8.442 -0.8775 -1.8511  1.0332
 6461TIP3    H241019   1.010   3.381   8.301 -1.9673 -0.3621  1.3517
 6462TIP3   OH241020   2.449   4.525   1.297 -0.0098  0.2432 -0.0333
 6462TIP3    H141021   2.430   4.514   1.390 -0.5893  0.0883 -0.1617
 6462TIP3    H241022   2.409   4.609   1.274 -1.1051 -0.3693 -0.4440
 6463TIP3   OH241023   5.826   6.654   8.533 -0.2183  0.6850 -0.2437
 6463TIP3    H141024   5.908   6.646   8.484  0.0112  1.3638  0.0243
 6463TIP3    H241025   5.852   6.657   8.625 -0.6303 -0.2546 -0.0921
 6464TIP3   OH241026   1.519   2.435   0.771 -0.0338  0.1149 -0.2111
 6464TIP3    H141027   1.561   2.512   0.809  0.7853  0.3436 -1.5273
 6464TIP3    H241028   1.547   2.435   0.680  0.9062 -2.3594  0.0055
 6465TIP3   OH241029   5.235   3.705   8.704  0.6615  0.7086  0.0808
 6465TIP3    H141030   5.165   3.685   8.765 -1.1284  3.0690 -1.0293
 6465TIP3    H241031   5.313   3.662   8.740 -0.9474 -0.4629  2.3393
 6466TIP3   OH241032   4.484   2.257   1.248  0.2880 -0.3888 -0.0462
 6466TIP3    H141033   4.427   2.290   1.319  0.4716  1.8198 -0.8432
 6466TIP3    H241034   4.565   2.231   1.293  0.1288  0.2830  0.6631
 6467TIP3   OH241035   3.231   4.630   6.924  0.0133 -0.1998  0.5090
 6467TIP3    H141036   3.279   4.557   6.886  1.5448 -0.4478  2.7345
 6467TIP3    H241037   3.299   4.689   6.957 -1.1957  1.8971 -0.5145
 6468TIP3   OH241038   1.734   3.336   1.471  0.3363 -0.0336  0.4962
 6468TIP3    H141039   1.657   3.307   1.423  1.3513 -1.9013 -0.1162
 6468TIP3    H241040   1.700   3.394   1.539 -1.2125  2.1427 -1.9706
 6469TIP3   OH241041   5.766   1.552   1.876 -0.2264 -0.5219  0.0755
 6469TIP3    H141042   5.859   1.549   1.902 -0.3104 -0.4889  0.3882
 6469TIP3    H241043   5.721   1.583   1.955 -0.2353  1.6888 -0.7191
 6470TIP3   OH241044   1.690   1.292   6.119  0.3118  0.1752 -0.2907
 6470TIP3    H141045   1.696   1.230   6.047  0.2067  0.0879 -0.2226
 6470TIP3    H241046   1.776   1.336   6.120  0.4052 -0.0091 -0.2984
 6471TIP3   OH241047   0.133   6.579   8.330 -0.0441  0.1531  0.4330
 6471TIP3    H141048   0.221   6.552   8.304 -0.8899 -2.6288  0.0906
 6471TIP3    H241049   0.120   6.540   8.416 -0.1653  2.5360  1.5697
 6472TIP3   OH241050   6.673   4.796   0.049  0.4822  0.3150 -0.7700
 6472TIP3    H141051   6.691   4.837  -0.035 -0.1558 -0.2845 -1.2124
 6472TIP3    H241052   6.603   4.733   0.031  1.3424 -0.8913 -0.0915
 6473TIP3   OH241053   5.315   3.666   8.024  0.4018 -0.1847 -0.2473
 6473TIP3    H141054   5.352   3.635   8.106 -0.7324 -0.7357  0.0863
 6473TIP3    H241055   5.390   3.696   7.972  1.3427 -1.6767  0.2013
 6474TIP3   OH241056   0.370   6.852   2.045  0.4915 -0.3945  0.1579
 6474TIP3    H141057   0.462   6.840   2.069  1.4227  1.5465 -2.0980
 6474TIP3    H241058   0.357   6.947   2.047 -0.2852 -0.3153 -3.2710
 6475TIP3   OH241059   2.080   3.368   0.650  0.4559  0.1051 -0.4582
 6475TIP3    H141060   2.156   3.314   0.673 -0.6104 -1.2598 -0.0487
 6475TIP3    H241061   2.065   3.423   0.727  0.5298 -0.2129 -0.2154
 6476TIP3   OH241062   1.100   4.966   7.173 -0.1456 -0.2197  0.1954
 6476TIP3    H141063   1.075   4.898   7.234 -2.5664  1.2935  1.0048
 6476TIP3    H241064   1.054   4.944   7.092 -0.5195  0.1743  0.2997
 6477TIP3   OH241065   3.911   0.386   1.505 -0.1746  0.4784 -0.6496
 6477TIP3    H141066   3.875   0.298   1.517 -0.4806  0.5915 -0.7306
 6477TIP3    H241067   3.993   0.385   1.554 -0.1500  0.1304 -0.6948
 6478TIP3   OH241068   1.060   5.041   8.276 -0.1864 -0.3403  0.5146
 6478TIP3    H141069   1.011   4.959   8.265 -1.4688  0.0818  2.4510
 6478TIP3    H241070   1.063   5.079   8.189  0.0419 -2.2199 -0.3448
 6479TIP3   OH241071   4.619   6.711   7.822  0.1183 -0.6358 -0.0965
 6479TIP3    H141072   4.692   6.733   7.764 -1.3879  0.6547 -1.6052
 6479TIP3    H241073   4.656   6.649   7.885  3.6186  3.0934  1.9033
 6480TIP3   OH241074   0.171   3.708   1.415 -0.1229  0.3809 -0.1113
 6480TIP3    H141075   0.211   3.790   1.387 -0.5101  0.4878 -0.3691
 6480TIP3    H241076   0.242   3.644   1.411  0.4782  0.9217  1.2287
 6481TIP3   OH241077   2.567   1.887   8.604 -0.3762 -0.2412 -0.1092
 6481TIP3    H141078   2.620   1.906   8.527  0.7431 -1.6756  0.2529
 6481TIP3    H241079   2.579   1.963   8.661  0.0975  0.1169 -0.6829
 6482TIP3   OH241080   5.602   4.731   8.131  0.2387  0.1112  0.1273
 6482TIP3    H141081   5.572   4.795   8.067 -1.4602 -0.2895  0.4873
 6482TIP3    H241082   5.608   4.649   8.082  2.9930  0.5854 -0.4821
 6483TIP3   OH241083   5.846   5.862   7.914  0.3689  0.0054 -0.4527
 6483TIP3    H141084   5.882   5.780   7.882  0.3964 -1.2271  2.4564
 6483TIP3    H241085   5.916   5.902   7.964 -0.1805  0.9670 -0.4221
 6484TIP3   OH241086   0.969   5.255   0.503  0.4005 -0.6544  0.4283
 6484TIP3    H141087   0.879   5.280   0.484  0.6816 -1.0292 -1.5894
 6484TIP3    H241088   0.977   5.263   0.599 -1.2421  1.0388  0.4661
 6485TIP3   OH241089   5.233   1.135   1.979 -0.6470  0.4919 -0.1757
 6485TIP3    H141090   5.152   1.121   2.027 -0.7508  0.4776 -0.3551
 6485TIP3    H241091   5.231   1.069   1.910 -0.1346 -0.0009  0.2675
 6486TIP3   OH241092   0.858   5.122   7.569  0.4096 -0.1663  0.4311
 6486TIP3    H141093   0.948   5.090   7.571  0.1277 -1.1338 -0.7487
 6486TIP3    H241094   0.860   5.194   7.505  0.2813 -0.4384  0.1174
 6487TIP3   OH241095   0.482   3.442   1.726 -0.0200 -0.2694  0.1003
 6487TIP3    H141096   0.463   3.352   1.701  1.2246 -0.2814 -0.9173
 6487TIP3    H241097   0.397   3.486   1.727 -0.3323 -0.5961 -2.9498
 6488TIP3   OH241098   2.818   2.957   7.262  0.0874  0.4077 -0.8617
 6488TIP3    H141099   2.881   2.903   7.310  0.0161  1.3780  0.3485
 6488TIP3    H241100   2.766   2.893   7.212  1.1389 -0.5030 -0.8394
 6489TIP3   OH241101   4.723   3.015   0.288 -0.2057  0.3042 -0.3514
 6489TIP3    H141102   4.712   2.959   0.211  0.7576 -0.3973  0.0110
 6489TIP3    H241103   4.641   3.005   0.336 -0.4274 -0.0125 -0.7829
 6490TIP3   OH241104   2.900   1.783   7.172 -0.4860  0.9837  0.3169
 6490TIP3    H141105   2.891   1.795   7.267 -1.1322  1.2080  0.2302
 6490TIP3    H241106   2.981   1.732   7.162 -1.6626 -1.1979  1.1661
 6491TIP3   OH241107   4.246   1.017   7.134 -0.6064  0.0110 -0.0420
 6491TIP3    H141108   4.206   1.092   7.091  1.7649  1.0932 -0.5344
 6491TIP3    H241109   4.237   1.035   7.228 -2.1881 -0.3321 -0.1070
 6492TIP3   OH241110   2.838   6.853   0.212  0.3829  0.3816 -0.1406
 6492TIP3    H141111   2.871   6.844   0.122 -0.2101 -1.7847 -0.1927
 6492TIP3    H241112   2.894   6.797   0.264  0.2560  1.0507  0.7332
 6493TIP3   OH241113   4.650   3.426   0.874 -0.7926 -0.0145  0.5603
 6493TIP3    H141114   4.680   3.426   0.965  0.6876  0.5761  0.1095
 6493TIP3    H241115   4.700   3.355   0.833 -0.4782  0.5613 -0.0675
 6494TIP3   OH241116   4.521   2.818   1.350 -1.1661  0.2125  0.2481
 6494TIP3    H141117   4.521   2.765   1.270  1.2655  1.1571 -0.4546
 6494TIP3    H241118   4.431   2.851   1.356 -1.2269  0.8882 -2.6412
 6495TIP3   OH241119   2.846   3.323   2.198  0.1166  0.1181 -0.2307
 6495TIP3    H141120   2.922   3.266   2.207  0.4023  0.1089 -2.1908
 6495TIP3    H241121   2.869   3.401   2.249  1.1449 -0.1607 -0.2374
 6496TIP3   OH241122   2.297   6.259   0.771 -0.4266  0.2463  0.3207
 6496TIP3    H141123   2.281   6.277   0.864 -0.1675  1.7703  0.0951
 6496TIP3    H241124   2.385   6.222   0.768 -1.1808 -1.6932  0.8615
 6497TIP3   OH241125   5.941   2.796   0.316  0.2644 -0.0294  0.4215
 6497TIP3    H141126   5.935   2.786   0.411  0.9699 -0.7104  0.3985
 6497TIP3    H241127   6.008   2.733   0.288 -1.6357 -1.5877 -0.8341
 6498TIP3   OH241128   4.132   4.651   7.896  0.5345  0.0217  0.1574
 6498TIP3    H141129   4.067   4.582   7.908  1.2438 -0.5023  1.1111
 6498TIP3    H241130   4.087   4.717   7.842  0.0347 -1.4078 -1.2485
 6499TIP3   OH241131   6.351   4.105   8.436 -0.0276 -0.4610  0.0047
 6499TIP3    H141132   6.263   4.072   8.422 -0.2188  0.1298 -0.2128
 6499TIP3    H241133   6.346   4.198   8.414  0.4756 -0.2597  0.6880
 6500TIP3   OH241134   5.402   0.249   7.892  0.4179 -0.6264 -0.3217
 6500TIP3    H141135   5.425   0.170   7.844 -1.0781 -1.8251  0.8181
 6500TIP3    H241136   5.353   0.302   7.828  2.5153  0.0309 -1.4710
 6501TIP3   OH241137   2.711   5.057   7.904 -0.1433 -0.0384 -0.6722
 6501TIP3    H141138   2.688   5.004   7.828 -0.3050  0.8165 -1.2472
 6501TIP3    H241139   2.665   5.140   7.890 -0.8787 -0.1558  0.8016
 6502TIP3   OH241140   1.062   6.813   7.542  0.6140 -0.0038 -0.5382
 6502TIP3    H141141   1.153   6.829   7.568  0.8235 -0.3442 -1.0464
 6502TIP3    H241142   1.049   6.864   7.463  0.7595 -0.9500 -1.1864
 6503TIP3   OH241143   1.870   4.701   6.649 -0.5811 -0.2621 -0.1877
 6503TIP3    H141144   1.813   4.755   6.595 -0.0282 -1.7184 -2.3871
 6503TIP3    H241145   1.942   4.759   6.674 -0.8355  0.4545 -1.0733
 6504TIP3   OH241146   5.191   5.008   0.694 -0.0844  0.1078  0.7450
 6504TIP3    H141147   5.258   5.059   0.650  0.9855 -1.8087  0.0183
 6504TIP3    H241148   5.124   4.993   0.627 -0.3283  0.4275  0.9148
 6505TIP3   OH241149   6.086   3.040   7.335 -0.4361 -0.0647  0.3144
 6505TIP3    H141150   6.149   2.969   7.347 -0.2010 -0.1204 -1.0797
 6505TIP3    H241151   6.110   3.079   7.251 -1.4684  0.7356  0.3761
 6506TIP3   OH241152   4.893   6.647   8.523 -0.0607  0.1561 -0.3687
 6506TIP3    H141153   4.936   6.606   8.598 -0.3727 -0.4158 -0.4916
 6506TIP3    H241154   4.961   6.700   8.481  0.1613  0.3266  0.2086
 6507TIP3   OH241155   4.769   6.494   2.040  0.2406  0.0912  0.0753
 6507TIP3    H141156   4.775   6.401   2.063  1.0644  0.4717  1.5463
 6507TIP3    H241157   4.808   6.540   2.115 -2.4076  1.7816  0.5449
 6508TIP3   OH241158   3.453   2.800   6.692  1.0282 -0.0358  0.5263
 6508TIP3    H141159   3.453   2.772   6.600 -1.5489  0.1662  0.3994
 6508TIP3    H241160   3.451   2.718   6.742 -0.2334 -0.1447  0.3170
 6509TIP3   OH241161   5.397   0.715   8.740  0.1076 -0.2788 -0.1551
 6509TIP3    H141162   5.438   0.706   8.654 -0.4675  1.0097 -0.5942
 6509TIP3    H241163   5.423   0.802   8.770  0.1497 -0.6398  0.9009
 6510TIP3   OH241164   0.972   0.177   1.443  0.0544  0.0655 -0.1518
 6510TIP3    H141165   0.974   0.107   1.378  0.5132 -0.3199  0.2665
 6510TIP3    H241166   0.980   0.132   1.527 -0.9665  0.5243  0.2026
 6511TIP3   OH241167   0.439   1.987   7.359 -0.0746  0.0806  0.9601
 6511TIP3    H141168   0.476   2.073   7.337  0.2726  0.0696  1.4730
 6511TIP3    H241169   0.466   1.930   7.287  0.3683  0.2259  1.0045
 6512TIP3   OH241170   3.447   5.205   0.544  0.5167 -0.3743 -0.0121
 6512TIP3    H141171   3.521   5.265   0.532 -0.4954  0.4918 -2.5998
 6512TIP3    H241172   3.466   5.131   0.485 -0.2134 -0.6119  0.0398
 6513TIP3   OH241173   2.417   0.065   1.166  0.3716 -0.6520  0.3554
 6513TIP3    H141174   2.437   0.034   1.254 -2.3139 -0.8624  0.9959
 6513TIP3    H241175   2.419  -0.014   1.111 -0.2120 -0.9236  0.7127
 6514TIP3   OH241176   0.802   3.714   0.666 -0.3924  0.1005 -0.0234
 6514TIP3    H141177   0.765   3.749   0.585 -1.5703  3.0300  1.6365
 6514TIP3    H241178   0.888   3.756   0.674 -0.5908  0.3959  0.6064
 6515TIP3   OH241179   0.732   5.546   2.034 -0.1398  0.4821  0.0116
 6515TIP3    H141180   0.709   5.611   2.100  0.8006  1.7663 -0.8708
 6515TIP3    H241181   0.664   5.555   1.966  1.0052  1.9144 -1.0009
 6516TIP3   OH241182   3.327   4.062   0.338 -0.6750  0.6020 -0.0666
 6516TIP3    H141183   3.236   4.031   0.346 -0.0714 -1.2183  0.4194
 6516TIP3    H241184   3.363   4.051   0.427  0.1838  0.6807 -0.3977
 6517TIP3   OH241185   5.831   4.541   1.761 -0.2994  0.3726  0.0083
 6517TIP3    H141186   5.812   4.573   1.849  1.9014  2.9506 -0.3349
 6517TIP3    H241187   5.907   4.484   1.772 -1.3539 -1.0985 -0.0092
 6518TIP3   OH241188   1.283   4.475   8.405 -0.0163 -0.0448 -0.2274
 6518TIP3    H141189   1.248   4.463   8.494  0.1829  0.5576 -0.0663
 6518TIP3    H241190   1.336   4.554   8.410  1.9878 -1.3197 -0.2948
 6519TIP3   OH241191   5.380   0.024   1.521  0.0267 -0.2201  0.1195
 6519TIP3    H141192   5.410  -0.053   1.474  0.9412  0.8084 -1.0411
 6519TIP3    H241193   5.452   0.087   1.512 -1.1723  1.1799  0.0381
 6520TIP3   OH241194   2.420   0.163   0.348  0.3068  0.2958  0.0284
 6520TIP3    H141195   2.335   0.198   0.322  0.2336 -0.8210 -1.3663
 6520TIP3    H241196   2.473   0.240   0.366 -0.2193  1.1308 -1.7271
 6521TIP3   OH241197   5.981   3.493   7.882 -0.5104 -0.4089 -0.2118
 6521TIP3    H141198   5.955   3.443   7.960 -0.8583  0.7152  0.4054
 6521TIP3    H241199   5.941   3.579   7.894  2.9248  1.2430  0.5168
 6522TIP3   OH241200   5.290   4.909   2.279 -0.3054 -0.4981  0.0897
 6522TIP3    H141201   5.322   4.983   2.330  1.4969 -1.5521  0.5537
 6522TIP3    H241202   5.284   4.837   2.342 -1.1870 -1.0005 -0.5370
 6523TIP3   OH241203   5.167   0.160   1.541  0.1797  0.4600 -0.0059
 6523TIP3    H141204   5.153   0.174   1.447  1.2569  1.0934 -0.0846
 6523TIP3    H241205   5.252   0.117   1.546  1.3127  2.6602  0.7860
 6524TIP3   OH241206   2.749   5.268   8.319 -0.5600 -0.0929 -0.1791
 6524TIP3    H141207   2.700   5.187   8.334  0.5978 -0.6063  1.0470
 6524TIP3    H241208   2.825   5.241   8.268 -0.1597  0.2023  0.2465
 6525TIP3   OH241209   5.408   3.283   6.521  0.1794  0.3200 -0.2407
 6525TIP3    H141210   5.410   3.370   6.481  0.5389  0.4782  0.1128
 6525TIP3    H241211   5.470   3.289   6.594 -1.2203  0.3749  0.9965
 6526TIP3   OH241212   3.562   2.154   2.194  0.2176  0.5630  0.2342
 6526TIP3    H141213   3.625   2.137   2.264  1.0664  0.3635 -0.5694
 6526TIP3    H241214   3.563   2.250   2.184 -0.6329  0.6888  1.1361
 6527TIP3   OH241215   0.554   5.267   1.698  0.2935 -0.3108 -0.1512
 6527TIP3    H141216   0.545   5.360   1.677 -0.3562 -0.0918  1.0434
 6527TIP3    H241217   0.472   5.227   1.668  0.5891 -0.5180 -0.7025
 6528TIP3   OH241218   1.420   6.112   1.567 -0.1978 -0.2768 -0.2514
 6528TIP3    H141219   1.353   6.133   1.633 -0.5220  0.6366 -0.8460
 6528TIP3    H241220   1.463   6.196   1.549  1.1195 -0.8534  0.1153
 6529TIP3   OH241221   6.296   4.855   1.695  0.1322  0.4469 -0.0094
 6529TIP3    H141222   6.370   4.915   1.694  0.7829 -0.3407 -0.8545
 6529TIP3    H241223   6.305   4.804   1.615 -0.2653 -0.9358  0.7876
 6530TIP3   OH241224   1.431   2.464   7.016 -0.2727 -0.0845 -0.0553
 6530TIP3    H141225   1.411   2.394   6.953  0.0856 -1.5256  1.3779
 6530TIP3    H241226   1.359   2.526   7.006 -0.4847 -0.5240 -1.5258
 6531TIP3   OH241227   3.834   4.660   0.668 -0.9245 -0.1104  0.0427
 6531TIP3    H141228   3.901   4.600   0.635 -1.4513 -0.1031 -1.0966
 6531TIP3    H241229   3.883   4.725   0.719 -0.0535 -0.0791 -0.8085
 6532TIP3   OH241230   2.193   2.239   0.145 -0.7388  0.1788  0.5795
 6532TIP3    H141231   2.164   2.171   0.084 -1.2465  0.9651 -0.0557
 6532TIP3    H241232   2.280   2.209   0.173 -0.5568 -0.2666 -0.4094
 6533TIP3   OH241233   2.902   4.344   7.356  0.6594  0.0467  0.5179
 6533TIP3    H141234   2.818   4.379   7.325  0.3349 -0.2572  1.0360
 6533TIP3    H241235   2.924   4.399   7.432  0.1116 -0.8847  1.3819
 6534TIP3   OH241236   2.736   1.619   6.883  0.2592 -0.1727 -0.1693
 6534TIP3    H141237   2.719   1.699   6.933 -0.2210  0.5625 -1.4605
 6534TIP3    H241238   2.739   1.550   6.949 -0.6355  0.7236  0.8532
 6535TIP3   OH241239   2.728   1.613   2.474  0.0152 -0.4939 -0.1299
 6535TIP3    H141240   2.659   1.619   2.539  0.1941 -0.0591  0.0195
 6535TIP3    H241241   2.690   1.560   2.404 -0.3170 -0.6185  0.1407
 6536TIP3   OH241242   5.394   1.755   0.390 -0.2187 -0.2423  0.1752
 6536TIP3    H141243   5.313   1.787   0.350 -0.4218  0.1836  0.8935
 6536TIP3    H241244   5.364   1.703   0.465  0.1221 -1.8854 -0.7986
 6537TIP3   OH241245   5.954   1.697   0.894 -0.3698  0.0111  0.0757
 6537TIP3    H141246   5.930   1.668   0.806 -2.8734 -0.3613  0.8025
 6537TIP3    H241247   6.043   1.731   0.885 -0.5449 -0.0556 -2.5796
 6538TIP3   OH241248   0.717   3.532   1.109  0.3217 -0.3198  0.2259
 6538TIP3    H141249   0.745   3.506   1.021 -0.6502 -0.9226  0.0725
 6538TIP3    H241250   0.779   3.490   1.168  0.5231 -0.5448 -0.1462
 6539TIP3   OH241251   3.428   5.750   7.688 -0.5694 -0.4207  0.0304
 6539TIP3    H141252   3.477   5.779   7.765 -1.7651  0.7689  0.3766
 6539TIP3    H241253   3.374   5.678   7.720 -1.5297  0.4756  0.4965
 6540TIP3   OH241254   2.090   6.134   7.721  0.0578 -0.3165 -0.4406
 6540TIP3    H141255   2.038   6.089   7.655 -1.2115  0.9194 -0.3227
 6540TIP3    H241256   2.048   6.110   7.804 -0.4081  0.7607 -0.3513
 6541TIP3   OH241257   2.123   1.436   1.722 -0.2557  0.0291  0.2206
 6541TIP3    H141258   2.053   1.498   1.742  0.2495  0.5825  0.3054
 6541TIP3    H241259   2.156   1.407   1.807  2.0606  2.5749  0.3330
 6542TIP3   OH241260   4.562   2.242   0.511  0.7007  0.2843 -0.0884
 6542TIP3    H141261   4.575   2.276   0.422  0.0917  1.7552  0.3696
 6542TIP3    H241262   4.631   2.283   0.563 -0.3358  1.2505  0.5702
 6543TIP3   OH241263   2.264   6.437   1.513  0.7549  0.8058 -0.3216
 6543TIP3    H141264   2.352   6.446   1.549  0.7592  1.5504 -0.5083
 6543TIP3    H241265   2.234   6.527   1.497  0.2582  0.5404 -0.9697
 6544TIP3   OH241266   4.068   2.156   0.323 -0.4266  0.2613 -0.3772
 6544TIP3    H141267   4.155   2.148   0.284  0.5897  1.7314  1.4391
 6544TIP3    H241268   4.045   2.248   0.310 -1.2849  0.1080  0.0493
 6545TIP3   OH241269   5.587   1.810   7.441  0.3385  0.0006  0.0468
 6545TIP3    H141270   5.607   1.869   7.369 -0.7157  0.8421  0.4164
 6545TIP3    H241271   5.670   1.799   7.487  0.5150  1.3718  0.0914
 6546TIP3   OH241272   4.182   2.943   2.896  0.4523  0.0460 -0.4446
 6546TIP3    H141273   4.192   3.031   2.860 -1.2298  0.3572 -0.1948
 6546TIP3    H241274   4.272   2.911   2.904  1.1406  1.9381 -0.0373
 6547TIP3   OH241275   4.348   6.139   7.753  0.1818  0.2647  0.4483
 6547TIP3    H141276   4.363   6.226   7.789 -0.5106 -0.2385  2.0727
 6547TIP3    H241277   4.253   6.126   7.761  0.2873 -0.6495  0.2757
 6548TIP3   OH241278   0.063   6.495   0.682  0.5726  0.1272 -0.3975
 6548TIP3    H141279  -0.016   6.510   0.734  0.0018  0.7722 -1.4261
 6548TIP3    H241280   0.107   6.422   0.726 -0.2990  0.1357  0.5200
 6549TIP3   OH241281   0.861   2.770   7.853  1.0847  0.5263 -0.0502
 6549TIP3    H141282   0.843   2.855   7.813 -1.7792  1.2838  2.4515
 6549TIP3    H241283   0.818   2.707   7.796  0.6680  1.1122 -0.3942
 6550TIP3   OH241284   0.331   4.132   0.583  0.2090 -0.2679  0.0114
 6550TIP3    H141285   0.373   4.052   0.550  0.9837 -0.3864  1.2225
 6550TIP3    H241286   0.397   4.171   0.640 -0.4184  0.8893 -0.0334
 6551TIP3   OH241287   5.454   2.219   0.323 -0.0896 -0.8258  0.4658
 6551TIP3    H141288   5.460   2.128   0.352  1.3576 -0.8345  0.2098
 6551TIP3    H241289   5.510   2.224   0.246  0.3147  0.3945  0.8085
 6552TIP3   OH241290   1.442   6.675   1.433 -0.3412 -0.2555 -0.0152
 6552TIP3    H141291   1.381   6.746   1.414 -0.8193 -0.5997  0.2133
 6552TIP3    H241292   1.390   6.609   1.479  0.1708 -0.6127  0.0741
 6553TIP3   OH241293   4.959   3.395   7.870  0.2395  0.2514 -0.1096
 6553TIP3    H141294   4.935   3.405   7.962 -0.8285  1.8908 -0.5222
 6553TIP3    H241295   4.876   3.406   7.823  0.6252 -1.3611 -1.2474
 6554TIP3   OH241296   2.404   1.774   2.555 -0.0666  0.3506 -0.2023
 6554TIP3    H141297   2.332   1.756   2.495  0.7093 -0.5593 -0.8836
 6554TIP3    H241298   2.461   1.698   2.548  0.1486  0.3084  1.5547
 6555TIP3   OH241299   2.670   2.752   0.977 -0.1644 -0.7866  0.0315
 6555TIP3    H141300   2.633   2.667   0.950 -3.5262  0.4615  0.1807
 6555TIP3    H241301   2.716   2.784   0.899 -1.5338 -1.4340 -1.0940
 6556TIP3   OH241302   2.733   3.323   7.753 -0.2359  0.4693 -1.0314
 6556TIP3    H141303   2.780   3.322   7.670 -0.6030  1.9200 -1.2957
 6556TIP3    H241304   2.762   3.404   7.796 -1.4375  0.7015 -0.5977
 6557TIP3   OH241305   1.147   2.958   7.785 -0.1132  0.1066  0.3173
 6557TIP3    H141306   1.100   3.020   7.841  0.2293 -0.4828  1.2723
 6557TIP3    H241307   1.158   3.004   7.702 -0.7566  0.9389  0.6838
 6558TIP3   OH241308   6.104   5.987   0.193 -0.4340  0.6817 -0.5053
 6558TIP3    H141309   6.180   6.045   0.187  0.8392 -0.9046 -0.5213
 6558TIP3    H241310   6.119   5.935   0.272 -2.3101  1.3692  0.3573
 6559TIP3   OH241311   6.101   0.120   1.830  0.2974 -0.0661  0.1562
 6559TIP3    H141312   6.120   0.147   1.920 -1.8432  1.0264  0.3427
 6559TIP3    H241313   6.141   0.188   1.776 -0.1617  0.3828  0.3791
 6560TIP3   OH241314   3.989   3.302   1.213 -0.7752 -0.1799  0.3963
 6560TIP3    H141315   3.913   3.296   1.155 -1.0288 -1.1251  0.8162
 6560TIP3    H241316   4.064   3.302   1.153 -1.0622 -0.4044  0.0319
 6561TIP3   OH241317   1.892   3.119   0.645  0.0198 -0.6419  0.1156
 6561TIP3    H141318   1.878   3.202   0.691  0.2765 -0.7317  0.3571
 6561TIP3    H241319   1.986   3.103   0.652  0.0101 -0.8237 -0.1558
 6562TIP3   OH241320   3.601   4.208   2.013  0.2574 -0.1333 -0.4570
 6562TIP3    H141321   3.522   4.241   2.057  0.2674 -1.1850  0.3898
 6562TIP3    H241322   3.603   4.115   2.034  2.2032  0.0258  0.2609
 6563TIP3   OH241323   3.161   4.928   0.365  0.5652 -0.2737  0.1297
 6563TIP3    H141324   3.117   4.908   0.448 -1.9696  3.2748 -0.1318
 6563TIP3    H241325   3.135   4.858   0.306  0.5063 -1.6067  1.6811
 6564TIP3   OH241326   4.617   5.692   6.899  0.5800 -0.7986  0.0119
 6564TIP3    H141327   4.685   5.730   6.843  0.8527 -2.7421 -1.0696
 6564TIP3    H241328   4.538   5.693   6.844  0.3050 -0.7290  0.4052
 6565TIP3   OH241329   5.168   4.634   7.593  0.1009 -0.2434 -0.0207
 6565TIP3    H141330   5.170   4.711   7.651  2.6051 -1.0139  1.0919
 6565TIP3    H241331   5.174   4.671   7.505 -0.3866  0.8868  0.3935
 6566TIP3   OH241332   3.610   6.599   1.106  0.3919 -1.0856  0.1613
 6566TIP3    H141333   3.565   6.514   1.103 -1.3435 -0.2881  1.4258
 6566TIP3    H241334   3.691   6.582   1.153  0.3788 -2.1486 -0.1685
 6567TIP3   OH241335   5.632   5.799   8.801  0.7066 -0.0298 -0.1012
 6567TIP3    H141336   5.711   5.791   8.855  0.5683 -0.0703  0.0942
 6567TIP3    H241337   5.666   5.819   8.713  0.9643 -0.7475 -0.1701
 6568TIP3   OH241338   5.187   3.733   6.670  0.5221  0.5935  0.1366
 6568TIP3    H141339   5.144   3.799   6.725 -0.5046 -1.0400  1.3654
 6568TIP3    H241340   5.273   3.721   6.712  1.0356  1.6609 -0.5496
 6569TIP3   OH241341   3.512   1.323   8.277 -0.3153 -0.3121 -0.0989
 6569TIP3    H141342   3.517   1.400   8.334  0.8425 -0.7221  0.3916
 6569TIP3    H241343   3.445   1.268   8.318  0.6380 -0.6875  1.0033
 6570TIP3   OH241344   1.355   4.687   0.022  0.4908  0.1516 -0.0373
 6570TIP3    H141345   1.352   4.667  -0.071  1.2834 -0.0203 -0.0380
 6570TIP3    H241346   1.435   4.644   0.053  0.4803  0.5912  0.6225
 6571TIP3   OH241347   3.737   6.421   1.317 -0.0899 -0.4164  0.0784
 6571TIP3    H141348   3.732   6.325   1.316 -0.0895 -0.4298 -1.2267
 6571TIP3    H241349   3.646   6.450   1.313 -0.1092 -0.3521  0.9250
 6572TIP3   OH241350   0.935   5.722   1.738  0.1619 -0.2634 -0.1308
 6572TIP3    H141351   0.907   5.779   1.810  2.2836 -0.9675  1.3675
 6572TIP3    H241352   1.014   5.765   1.704  0.5455 -1.1759 -0.4245
 6573TIP3   OH241353   0.317   1.282   8.044  0.7842 -0.5523 -0.3414
 6573TIP3    H141354   0.294   1.254   8.133  1.7609 -0.4525 -0.0385
 6573TIP3    H241355   0.399   1.331   8.056  0.2180  0.6186 -1.1274
 6574TIP3   OH241356   1.454   5.216   7.662  0.0851  0.0267  0.2723
 6574TIP3    H141357   1.478   5.137   7.615  0.3937 -0.1310  0.6875
 6574TIP3    H241358   1.361   5.204   7.684 -0.1827  0.2934 -0.6596
 6575TIP3   OH241359   4.885   3.748   8.424 -0.1452  0.0045  0.2012
 6575TIP3    H141360   4.907   3.732   8.516 -0.8648 -1.4433  0.1364
 6575TIP3    H241361   4.968   3.740   8.378  0.1710  0.4462  0.6823
 6576TIP3   OH241362   1.093   0.607   8.699  0.4217 -0.6831 -0.6320
 6576TIP3    H141363   1.107   0.701   8.704  2.8495 -1.0342  0.4023
 6576TIP3    H241364   1.086   0.579   8.790  0.2175 -1.5824 -0.9116
 6577TIP3   OH241365   6.748   1.920   8.665 -0.1634 -0.1576  0.5363
 6577TIP3    H141366   6.707   2.007   8.659 -1.9606 -0.7732  2.4870
 6577TIP3    H241367   6.819   1.932   8.728  0.6980  0.2235 -0.4743
 6578TIP3   OH241368   3.657   0.964   7.285 -0.1043 -0.2775 -0.0744
 6578TIP3    H141369   3.601   0.897   7.326 -0.0223  0.1875  0.8293
 6578TIP3    H241370   3.739   0.918   7.266  0.1536 -0.3184  1.0507
 6579TIP3   OH241371   1.520   5.238   2.115 -0.2930  0.1405 -0.1233
 6579TIP3    H141372   1.578   5.291   2.170 -0.8556  1.2165 -0.5339
 6579TIP3    H241373   1.577   5.203   2.046 -0.1364  1.3235 -0.6231
 6580TIP3   OH241374   4.938   1.596   0.138  0.3242 -0.4044  0.8048
 6580TIP3    H141375   4.938   1.612   0.232 -0.8156  2.3537  0.4203
 6580TIP3    H241376   5.010   1.649   0.104 -0.8775  0.7113 -0.1093
 6581TIP3   OH241377   5.253   1.720   8.090  0.1997 -0.5413  0.2648
 6581TIP3    H141378   5.244   1.728   7.995  0.2233 -0.4433  0.2704
 6581TIP3    H241379   5.344   1.692   8.103  0.7007  0.9739  0.3319
 6582TIP3   OH241380   3.441   3.274   8.709  0.1353 -0.1051  0.3790
 6582TIP3    H141381   3.366   3.332   8.700 -0.9204 -1.6550 -1.4189
 6582TIP3    H241382   3.409   3.188   8.683  1.8250 -1.4174  2.2550
 6583TIP3   OH241383   4.008   3.287   8.693 -0.7706 -0.1294  0.1027
 6583TIP3    H141384   4.051   3.367   8.725 -0.1753 -0.4936  0.2149
 6583TIP3    H241385   3.918   3.294   8.726 -0.0550 -0.7345  2.3404
 6584TIP3   OH241386   4.866   0.516   7.632  0.3362  0.5359  0.1270
 6584TIP3    H141387   4.822   0.442   7.589  0.4234  0.2036  0.6041
 6584TIP3    H241388   4.869   0.492   7.724  0.8830  0.8832  0.2020
 6585TIP3   OH241389   5.323   5.247   0.010  0.0412  0.2880  0.5908
 6585TIP3    H141390   5.375   5.278  -0.064 -0.9586 -0.7140 -0.5755
 6585TIP3    H241391   5.239   5.294   0.001 -0.5141 -0.7266  0.3694
 6586TIP3   OH241392   4.807   0.511   8.250  0.1919  0.1190 -0.6009
 6586TIP3    H141393   4.893   0.490   8.286  0.0859 -1.8017 -1.3740
 6586TIP3    H241394   4.745   0.479   8.316  0.0324  0.9196 -0.3437
 6587TIP3   OH241395   2.125   2.088   6.840 -0.6548  0.4999 -0.1604
 6587TIP3    H141396   2.071   2.146   6.786 -0.9622  1.6376  1.2932
 6587TIP3    H241397   2.215   2.121   6.827 -0.8576  1.5283  0.8682
 6588TIP3   OH241398   2.635   4.154   8.275  0.8072  0.1147 -0.2689
 6588TIP3    H141399   2.621   4.084   8.212  0.7945  0.6389 -0.8554
 6588TIP3    H241400   2.567   4.141   8.341 -0.2524  0.5539 -1.2436
 6589TIP3   OH241401   3.748   2.511   8.303  0.0754 -0.2659  0.3729
 6589TIP3    H141402   3.738   2.416   8.306  2.2922 -0.5461  0.4893
 6589TIP3    H241403   3.672   2.542   8.254  0.0571 -2.2327 -0.9217
 6590TIP3   OH241404   3.857   2.900   7.353 -0.1595 -0.6721 -0.0144
 6590TIP3    H141405   3.845   2.844   7.276  1.5272  1.3944 -1.9424
 6590TIP3    H241406   3.850   2.989   7.319 -0.2041  0.3419  2.4345
 6591TIP3   OH241407   4.474   0.169   1.338  0.3600 -0.8606 -0.2414
 6591TIP3    H141408   4.523   0.219   1.403 -1.3357 -0.2484  0.6532
 6591TIP3    H241409   4.498   0.208   1.254  0.1028  0.5968  0.3193
 6592TIP3   OH241410   2.005   4.959   6.774  0.2994  0.6131 -0.4736
 6592TIP3    H141411   1.982   4.944   6.866  0.2745 -0.6414 -0.6560
 6592TIP3    H241412   2.063   5.035   6.776  1.1430 -0.0126  0.7183
 6593TIP3   OH241413   0.097   5.183   2.587  0.4368  0.1654 -0.2341
 6593TIP3    H141414   0.160   5.111   2.589  2.7748  1.9605 -2.4497
 6593TIP3    H241415   0.129   5.245   2.653  0.1804  0.4909 -0.4134
 6594TIP3   OH241416   2.676   4.382   1.909 -0.5108 -0.6205 -0.2401
 6594TIP3    H141417   2.693   4.424   1.994 -2.2669 -0.7454  0.2285
 6594TIP3    H241418   2.722   4.436   1.845 -0.2231  0.2364  0.6671
 6595TIP3   OH241419   0.881   0.324   8.091 -0.2815 -0.0221  0.1393
 6595TIP3    H141420   0.829   0.245   8.103 -0.7403 -0.2064 -2.4680
 6595TIP3    H241421   0.821   0.387   8.051  0.3909  1.2662  1.0735
 6596TIP3   OH241422   2.724   6.156   2.377  0.2640 -0.6012  0.0737
 6596TIP3    H141423   2.810   6.120   2.397 -0.1928 -1.1255  1.2463
 6596TIP3    H241424   2.713   6.227   2.441 -0.2965 -0.7659  0.1668
 6597TIP3   OH241425   3.157   3.850   8.687 -0.1515 -0.8995  1.1051
 6597TIP3    H141426   3.110   3.897   8.756  0.8250  0.7822  0.6762
 6597TIP3    H241427   3.103   3.861   8.609 -0.8509 -2.1272  1.3759
 6598TIP3   OH241428   6.187   2.261   0.498 -0.3844  0.2638 -0.1777
 6598TIP3    H141429   6.108   2.221   0.464 -2.0518  0.9643  2.5394
 6598TIP3    H241430   6.158   2.346   0.532  2.3479  2.3875 -2.6547
 6599TIP3   OH241431   2.780   2.504   7.189  0.0884  0.4371  0.2781
 6599TIP3    H141432   2.875   2.516   7.180  0.2015  0.6950  1.6659
 6599TIP3    H241433   2.755   2.457   7.109  1.3463  0.5375 -0.2065
 6600TIP3   OH241434   1.297   0.714   8.046 -0.3784  0.4247  0.2980
 6600TIP3    H141435   1.319   0.692   8.136 -1.5476 -1.6188  0.1464
 6600TIP3    H241436   1.240   0.643   8.017 -0.6094  1.3941 -1.8353
 6601TIP3   OH241437   5.156   5.652   2.421 -0.9325  0.2198 -0.1062
 6601TIP3    H141438   5.198   5.636   2.337 -0.7006 -0.0923  0.0686
 6601TIP3    H241439   5.142   5.565   2.458  0.2859  0.3805  0.8169
 6602TIP3   OH241440   1.186   0.438   7.649 -0.3008  0.3820 -0.7600
 6602TIP3    H141441   1.107   0.441   7.704 -0.4607  0.5061 -0.9969
 6602TIP3    H241442   1.163   0.378   7.578  0.1511 -0.3469 -0.3148
 6603TIP3   OH241443   0.824   6.835   8.393 -0.7050 -0.1187  0.1798
 6603TIP3    H141444   0.876   6.818   8.471 -1.3016 -2.5034  0.1356
 6603TIP3    H241445   0.882   6.815   8.319 -0.4867  1.0689  0.0048
 6604TIP3   OH241446   5.225   1.634   1.604  0.3215 -0.1800 -0.1202
 6604TIP3    H141447   5.214   1.700   1.536 -1.9331 -0.1118  0.2424
 6604TIP3    H241448   5.318   1.639   1.628  0.2905  2.6244 -0.3265
 6605TIP3   OH241449   5.896   4.279   2.443  0.1864  0.5312 -0.2877
 6605TIP3    H141450   5.872   4.371   2.435 -1.4357  0.1643 -0.0703
 6605TIP3    H241451   5.947   4.274   2.523 -0.1273  1.1674 -0.0421
 6606TIP3   OH241452   1.511   4.362   0.570 -0.0894  0.2393  0.5909
 6606TIP3    H141453   1.570   4.309   0.517 -1.2221  0.2070 -0.6683
 6606TIP3    H241454   1.508   4.446   0.525 -2.1286 -0.2185 -0.2286
 6607TIP3   OH241455   2.048   4.226   1.555 -0.9839 -0.6727  0.2463
 6607TIP3    H141456   2.066   4.278   1.477  1.0602 -1.6875 -0.0258
 6607TIP3    H241457   2.114   4.252   1.618 -0.0675 -2.6641  0.2004
 6608TIP3   OH241458   4.935   4.104   8.258  0.5325 -0.1978 -0.3473
 6608TIP3    H141459   4.909   4.177   8.313  0.7551 -0.3371 -0.0548
 6608TIP3    H241460   4.856   4.049   8.252  0.3746  0.0457 -0.5446
 6609TIP3   OH241461   5.639   0.346   8.033 -0.2609  0.9734  0.1021
 6609TIP3    H141462   5.560   0.292   8.022 -0.6240  1.1439  1.5644
 6609TIP3    H241463   5.612   0.434   8.005  0.1273  0.5852 -1.6152
 6610TIP3   OH241464   5.566   0.325   7.208 -0.5978  0.1971  0.1045
 6610TIP3    H141465   5.585   0.347   7.117 -3.3327  0.5328 -0.4975
 6610TIP3    H241466   5.470   0.330   7.214 -0.5394 -0.2501  2.8985
 6611TIP3   OH241467   3.490   5.146   8.170  0.4633 -0.0428  0.3428
 6611TIP3    H141468   3.451   5.231   8.147 -0.2992 -0.1630  1.1154
 6611TIP3    H241469   3.579   5.150   8.136  0.7524  1.4549  1.1660
 6612TIP3   OH241470   5.559   4.455   1.833  0.2231  0.0895 -0.4282
 6612TIP3    H141471   5.649   4.424   1.843 -0.7745 -2.6039  1.4806
 6612TIP3    H241472   5.537   4.493   1.918 -0.7164 -0.0933 -0.5812
 6613TIP3   OH241473   6.166   4.722   7.366 -0.6959  0.1884 -0.1705
 6613TIP3    H141474   6.081   4.679   7.364 -0.9787  0.6667  0.9165
 6613TIP3    H241475   6.172   4.767   7.282 -0.7713 -1.2174 -0.9560
 6614TIP3   OH241476   0.081   2.957   6.966 -0.0267 -0.2755 -0.4103
 6614TIP3    H141477   0.094   3.042   7.008  0.9461 -0.4562 -0.3287
 6614TIP3    H241478   0.051   2.900   7.037 -0.3073 -0.0920 -0.3822
 6615TIP3   OH241479   4.498   4.520   7.504 -0.2492  0.4484 -0.2185
 6615TIP3    H141480   4.542   4.482   7.581  1.7102 -0.8421 -1.8738
 6615TIP3    H241481   4.411   4.480   7.504 -0.3380  0.5522  1.3400
 6616TIP3   OH241482   1.025   2.379   8.330 -0.0260 -0.0333 -0.0240
 6616TIP3    H141483   0.941   2.356   8.370 -0.6112  0.8960 -0.6824
 6616TIP3    H241484   1.091   2.334   8.384 -0.9459 -0.8933  0.4118
 6617TIP3   OH241485   0.184   6.439   1.390  0.1667  0.0473 -0.9422
 6617TIP3    H141486   0.133   6.503   1.340 -0.0095 -0.5672 -1.5819
 6617TIP3    H241487   0.140   6.433   1.474 -0.7063 -0.3042 -1.4045
 6618TIP3   OH241488   1.417   2.190   8.683 -0.8161  0.5293  1.1057
 6618TIP3    H141489   1.507   2.217   8.699  0.5183 -1.6960 -1.7649
 6618TIP3    H241490   1.402   2.116   8.743 -0.2265  0.0449  0.6632
 6619TIP3   OH241491   6.139   3.052   6.612  0.1922 -0.1307  0.2417
 6619TIP3    H141492   6.086   2.980   6.576  0.1462 -0.4969  1.0253
 6619TIP3    H241493   6.101   3.131   6.574 -0.7495 -0.4086  0.5899
 6620TIP3   OH241494   4.794   6.684   7.218 -0.2047 -0.1840  0.5148
 6620TIP3    H141495   4.886   6.704   7.199 -0.8404  0.4004 -2.5098
 6620TIP3    H241496   4.787   6.589   7.207 -0.2191 -0.0452 -0.9990
 6621TIP3   OH241497   6.345   0.578   1.331  0.1388 -0.0761  0.1508
 6621TIP3    H141498   6.266   0.633   1.328  0.0582 -0.2281 -0.6410
 6621TIP3    H241499   6.401   0.614   1.262  1.1331  0.5702  1.2557
 6622TIP3   OH241500   3.895   6.300   6.873 -0.4735 -0.3016 -0.0356
 6622TIP3    H141501   3.916   6.268   6.785  0.3056 -1.6428  0.6040
 6622TIP3    H241502   3.937   6.386   6.878  0.7795 -0.8622 -0.4700
 6623TIP3   OH241503   6.342   1.086   0.847  0.5186  0.4754  0.2528
 6623TIP3    H141504   6.424   1.037   0.840 -0.3462 -0.7647 -2.1233
 6623TIP3    H241505   6.313   1.098   0.757 -1.0555  2.4380  0.9417
 6624TIP3   OH241506   5.700   2.205   0.703 -0.3284  0.3495 -0.2631
 6624TIP3    H141507   5.734   2.201   0.792  1.1701  1.5580 -0.7435
 6624TIP3    H241508   5.609   2.177   0.711  0.2344 -1.1915  1.3665
 6625TIP3   OH241509   1.352   0.475   8.154  0.0544  0.3545 -0.2170
 6625TIP3    H141510   1.406   0.460   8.232  0.3934  0.3700 -0.4478
 6625TIP3    H241511   1.354   0.392   8.107 -0.0761  0.3736 -0.2571
 6626TIP3   OH241512   3.857   0.299   0.699  0.0319  0.5056  0.3097
 6626TIP3    H141513   3.826   0.352   0.625 -0.8209 -0.2033  0.1433
 6626TIP3    H241514   3.926   0.245   0.661  1.9485  2.4647  0.7995
 6627TIP3   OH241515   6.097   6.762   1.651 -0.0774 -0.7643  0.2155
 6627TIP3    H141516   6.112   6.831   1.714 -1.9242 -0.3350  0.2456
 6627TIP3    H241517   6.183   6.724   1.634  0.5975 -0.1433  2.1181
 6628TIP3   OH241518   3.376   4.959   7.932 -0.0737 -0.0717  0.1673
 6628TIP3    H141519   3.435   4.990   7.864 -0.8750  2.4367  0.5336
 6628TIP3    H241520   3.303   5.020   7.931 -0.6606 -0.6214  2.5163
 6629TIP3   OH241521   0.553   4.513   0.878 -0.0591  0.0650 -0.4155
 6629TIP3    H141522   0.526   4.513   0.970 -0.2601  0.3315 -0.4740
 6629TIP3    H241523   0.635   4.563   0.877 -1.9469  3.4377 -0.9223
 6630TIP3   OH241524   1.237   2.499   1.894 -0.4557  0.1400 -0.2917
 6630TIP3    H141525   1.145   2.524   1.885 -0.9548 -0.5262  2.1822
 6630TIP3    H241526   1.266   2.546   1.973  0.8365 -0.9839 -0.0728
 6631TIP3   OH241527   2.168   5.338   6.988  0.2505  0.1329  0.3234
 6631TIP3    H141528   2.079   5.305   6.980  0.5798 -0.7137  0.0058
 6631TIP3    H241529   2.169   5.418   6.936 -0.1568 -0.2125 -0.2258
 6632TIP3   OH241530   3.503   3.092   7.892 -0.6601 -0.2431  0.2963
 6632TIP3    H141531   3.521   3.173   7.939  0.1935 -0.1808 -0.1006
 6632TIP3    H241532   3.408   3.084   7.891 -0.7351  0.5598  0.6628
 6633TIP3   OH241533   3.029   0.945   0.926  0.1511  0.1436  0.6496
 6633TIP3    H141534   3.064   0.877   0.869 -1.2441 -1.2431  1.3746
 6633TIP3    H241535   3.051   1.027   0.881  1.3941 -0.7810 -0.5249
 6634TIP3   OH241536   2.016   3.099   8.819 -0.0369 -0.6194 -0.3415
 6634TIP3    H141537   1.953   3.149   8.871 -0.4954 -1.5842  0.0595
 6634TIP3    H241538   1.970   3.017   8.799  0.2967 -0.4641 -1.8932
 6635TIP3   OH241539   6.098   6.246   0.304 -0.1808  0.3447 -0.6802
 6635TIP3    H141540   6.084   6.157   0.336  1.7549  0.0864 -0.4619
 6635TIP3    H241541   6.171   6.239   0.243 -0.6557  1.6366 -1.4528
 6636TIP3   OH241542   0.349   2.120   1.638 -0.1948 -0.7136  0.1613
 6636TIP3    H141543   0.440   2.125   1.667 -0.3983 -0.9747  0.8456
 6636TIP3    H241544   0.300   2.093   1.715 -1.0206  0.5573  0.1161
 6637TIP3   OH241545   6.249   5.341   1.043  0.2752 -0.0598 -0.1184
 6637TIP3    H141546   6.335   5.325   1.006  0.2929  2.1509 -1.2310
 6637TIP3    H241547   6.231   5.433   1.023 -1.8252 -0.1166  1.1594
 6638TIP3   OH241548   5.624   1.073   0.908  0.1484 -0.3037 -0.1518
 6638TIP3    H141549   5.670   1.006   0.958  0.9578 -0.4148 -1.0290
 6638TIP3    H241550   5.531   1.051   0.918  0.0409  1.0486  3.2797
 6639TIP3   OH241551   6.579   6.475   8.459 -0.1463  0.0005 -0.4658
 6639TIP3    H141552   6.502   6.530   8.441 -0.5720 -0.2383  0.5150
 6639TIP3    H241553   6.560   6.436   8.545  0.3707 -1.2932 -0.9216
 6640TIP3   OH241554   6.054   3.260   0.435  0.0607  0.1419  0.1885
 6640TIP3    H141555   6.117   3.303   0.493  0.2776 -1.2606  1.0402
 6640TIP3    H241556   6.106   3.231   0.360  0.0771  0.5924  0.0242
 6641TIP3   OH241557   2.233   1.575   0.827 -0.0074 -0.2212 -0.0338
 6641TIP3    H141558   2.268   1.664   0.815  1.7691 -0.8195  0.3295
 6641TIP3    H241559   2.138   1.586   0.827  0.1653  1.5937 -0.6099
 6642TIP3   OH241560   5.016   4.372   0.874  0.7270  0.2198  0.0131
 6642TIP3    H141561   5.003   4.434   0.946  2.5812  0.3750  0.2703
 6642TIP3    H241562   4.932   4.369   0.829  0.0389  1.4591  1.1470
 6643TIP3   OH241563   5.492   4.099   8.304  0.1957  0.7058 -0.0041
 6643TIP3    H141564   5.553   4.094   8.377 -0.5547 -1.3406  0.5535
 6643TIP3    H241565   5.405   4.102   8.345 -0.2112  0.3879 -0.8081
 6644TIP3   OH241566   6.308   5.439   1.414 -0.1173  0.1202 -0.0300
 6644TIP3    H141567   6.216   5.418   1.428 -0.1818 -1.0315 -1.8783
 6644TIP3    H241568   6.312   5.535   1.419 -1.1021  0.1084  1.5850
 6645TIP3   OH241569   4.032   5.371   7.483 -0.3392  0.0362  0.3128
 6645TIP3    H141570   4.119   5.346   7.515  1.7141  2.2237 -2.9366
 6645TIP3    H241571   3.995   5.289   7.449  0.6127 -0.8585  1.3572
 6646TIP3   OH241572   6.330   6.260   8.132  0.2875 -0.1058  0.0050
 6646TIP3    H141573   6.316   6.268   8.226  1.7078 -0.5213  0.2834
 6646TIP3    H241574   6.293   6.174   8.109 -2.0332  0.8967 -0.2694
 6647TIP3   OH241575   4.440   4.007   8.472  0.3984  0.4916  0.1074
 6647TIP3    H141576   4.524   4.005   8.426  0.8811 -0.9854  1.0085
 6647TIP3    H241577   4.418   4.100   8.477  1.5907  0.8478 -0.8193
 6648TIP3   OH241578   4.034   3.971   2.614  0.1085 -0.0613 -0.0544
 6648TIP3    H141579   3.971   3.925   2.669  1.2936 -0.9440  0.6092
 6648TIP3    H241580   4.113   3.975   2.668  0.6451  0.9689 -0.8894
 6649TIP3   OH241581   5.881   6.407   8.132  0.1305  0.0253 -0.4116
 6649TIP3    H141582   5.832   6.489   8.127 -0.2215 -0.2187 -1.2953
 6649TIP3    H241583   5.960   6.423   8.080 -0.0502 -0.2617 -0.7815
 6650TIP3   OH241584   6.807   2.726   7.806  0.2393 -0.1132  0.0734
 6650TIP3    H141585   6.839   2.760   7.722 -0.3485 -0.8608 -0.4625
 6650TIP3    H241586   6.868   2.655   7.827 -0.0435 -0.4118 -0.0978
 6651TIP3   OH241587   1.286   4.692   8.016  0.3184  0.2275  0.9584
 6651TIP3    H141588   1.219   4.703   8.083 -0.0454 -1.7367  0.9896
 6651TIP3    H241589   1.368   4.686   8.065  0.4045  1.4506  1.0018
 6652TIP3   OH241590   0.909   3.517   8.160  0.2640 -0.8567 -0.3693
 6652TIP3    H141591   0.869   3.534   8.075 -0.3086 -1.4138 -0.2144
 6652TIP3    H241592   0.836   3.504   8.220  0.6110  0.8074  0.5089
 6653TIP3   OH241593   6.565   4.124   0.499 -0.1552  0.1734  0.2080
 6653TIP3    H141594   6.496   4.155   0.440  0.1492  0.6624  0.0964
 6653TIP3    H241595   6.609   4.055   0.450  0.4465  0.9556 -0.3716
 6654TIP3   OH241596   6.051   0.631   1.483  0.1629 -0.7925 -0.7237
 6654TIP3    H141597   6.110   0.577   1.535 -0.3213 -0.5567  0.0959
 6654TIP3    H241598   6.106   0.702   1.449  0.2300 -0.1707  0.6164
 6655TIP3   OH241599   6.501   5.337   7.870  0.6574 -0.0039 -0.0560
 6655TIP3    H141600   6.442   5.385   7.813 -1.1260  0.8490  2.3675
 6655TIP3    H241601   6.460   5.251   7.880 -0.5211  0.7292  1.9678
 6656TIP3   OH241602   0.936   6.158   2.031 -0.3445  0.0627  0.4853
 6656TIP3    H141603   0.917   6.210   2.109  0.1499  0.4741  0.3312
 6656TIP3    H241604   0.935   6.221   1.959 -4.4196 -0.7757 -0.4530
 6657TIP3   OH241605   0.019   5.136   7.198  0.1736  0.1506  0.0798
 6657TIP3    H141606  -0.061   5.142   7.250 -0.4695 -1.1452 -0.7178
 6657TIP3    H241607  -0.012   5.141   7.107  1.2842  2.6798 -0.2634
 6658TIP3   OH241608   2.564   4.146   0.884 -0.2559 -0.4266  0.5388
 6658TIP3    H141609   2.468   4.150   0.888 -0.1621  1.2143  1.6202
 6658TIP3    H241610   2.586   4.186   0.800 -0.5420 -2.5625 -0.6549
 6659TIP3   OH241611   1.072   3.495   2.050  0.3138 -0.3774  0.2034
 6659TIP3    H141612   1.063   3.495   2.146 -1.2586 -1.4147  0.1021
 6659TIP3    H241613   1.050   3.584   2.024  2.1959  0.3348  0.8775
 6660TIP3   OH241614   1.960   3.974   1.549  0.2881 -0.0955 -0.9467
 6660TIP3    H141615   1.876   3.961   1.503 -1.2654  0.4239  1.5821
 6660TIP3    H241616   1.963   4.067   1.568  2.0233  0.0934 -1.9337
 6661TIP3   OH241617   6.670   2.330   1.050 -0.8550  0.0763  0.0072
 6661TIP3    H141618   6.738   2.315   0.983 -1.6272  1.4386 -1.1558
 6661TIP3    H241619   6.595   2.279   1.020 -0.9597  0.0984  0.2316
 6662TIP3   OH241620   5.938   0.146   8.064  0.2382  0.3083  0.4910
 6662TIP3    H141621   5.964   0.222   8.117  0.0968 -0.5570  1.8533
 6662TIP3    H241622   5.945   0.072   8.124 -0.5619 -0.6290 -0.5390
 6663TIP3   OH241623   6.627   0.985   7.093 -0.5045 -0.2176  0.3632
 6663TIP3    H141624   6.650   1.000   7.185  0.4703  0.0974  0.0843
 6663TIP3    H241625   6.543   0.939   7.096 -1.1283  0.9193  1.3818
 6664TIP3   OH241626   3.405   4.049   7.269 -0.0647  0.5666  0.5907
 6664TIP3    H141627   3.343   4.045   7.342  0.0292 -0.7408  0.6102
 6664TIP3    H241628   3.446   3.963   7.267 -1.5342 -0.1872 -2.3011
 6665TIP3   OH241629   3.408   0.026   6.418  0.1493  0.2089 -0.0578
 6665TIP3    H141630   3.503   0.031   6.427  0.0870  1.5351 -0.0130
 6665TIP3    H241631   3.390  -0.067   6.405  1.2644 -0.3262  1.9765
 6666TIP3   OH241632   4.862   4.684   7.797  0.1495  0.2653  0.3583
 6666TIP3    H141633   4.921   4.759   7.805  1.7205 -0.6329 -1.7457
 6666TIP3    H241634   4.901   4.616   7.851 -0.0652  0.2920  0.5471
 6667TIP3   OH241635   0.450   5.046   1.107  0.2957 -0.0239  0.1791
 6667TIP3    H141636   0.474   5.137   1.092 -0.9203 -0.0704 -2.5174
 6667TIP3    H241637   0.524   4.995   1.072  1.8535 -0.2223  3.3220
 6668TIP3   OH241638   4.463   1.433   0.173  0.2790 -0.1303 -0.5526
 6668TIP3    H141639   4.549   1.393   0.167  1.1465  1.3136  1.1013
 6668TIP3    H241640   4.481   1.526   0.190 -1.6032  0.3399 -0.8870
 6669TIP3   OH241641   2.406   2.030   7.846  0.1850  0.3005 -0.3555
 6669TIP3    H141642   2.399   2.124   7.829  2.0179  0.6484  0.5962
 6669TIP3    H241643   2.477   2.001   7.788 -1.0166 -0.7134 -1.3608
 6670TIP3   OH241644   5.791   3.991   7.344 -0.4455 -0.0226  0.2412
 6670TIP3    H141645   5.850   4.042   7.399 -2.7246  1.2488  1.6304
 6670TIP3    H241646   5.745   4.056   7.291 -1.8221 -0.7991  0.4357
 6671TIP3   OH241647   5.427   6.592   7.164  0.3256  0.2018 -0.1738
 6671TIP3    H141648   5.386   6.678   7.160  1.1986  0.6133 -0.4132
 6671TIP3    H241649   5.513   6.604   7.124  1.4603 -0.1916  2.0038
 6672TIP3   OH241650   6.648   2.721   1.519 -0.1992 -0.2714  0.5256
 6672TIP3    H141651   6.650   2.626   1.515  0.6053 -0.2289 -2.2846
 6672TIP3    H241652   6.615   2.748   1.433  1.5149  2.0024  0.4856
 6673TIP3   OH241653   5.405   3.795   7.384  0.9506 -0.1167  0.0328
 6673TIP3    H141654   5.433   3.830   7.300  0.8777 -0.5395 -0.1701
 6673TIP3    H241655   5.348   3.722   7.362 -0.1306  0.5672  0.4369
 6674TIP3   OH241656   2.300   0.952   1.436 -0.3835  0.1242 -0.2713
 6674TIP3    H141657   2.369   0.898   1.397  0.6473  0.3730  1.1212
 6674TIP3    H241658   2.231   0.890   1.459 -0.8179 -0.0820 -2.0243
 6675TIP3   OH241659   4.381   5.182   1.353 -0.5854  0.0309 -0.1509
 6675TIP3    H141660   4.299   5.190   1.304 -0.4575 -3.0413 -1.0603
 6675TIP3    H241661   4.355   5.140   1.436  0.0882 -1.8399 -0.8320
 6676TIP3   OH241662   3.472   0.433   0.950 -0.3193  0.2399 -0.1658
 6676TIP3    H141663   3.469   0.343   0.916 -0.2236 -0.0836  0.6521
 6676TIP3    H241664   3.423   0.428   1.032  0.7831  0.6487  0.5294
 6677TIP3   OH241665   0.419   1.313   7.109  0.8897 -0.0275  0.2041
 6677TIP3    H141666   0.364   1.379   7.149  1.1158  0.8446 -0.8890
 6677TIP3    H241667   0.502   1.357   7.092  0.9012 -0.4466 -0.9339
 6678TIP3   OH241668   2.860   4.632   7.395  0.2775 -0.2126  0.2283
 6678TIP3    H141669   2.856   4.636   7.299  0.6140  0.0832  0.2210
 6678TIP3    H241670   2.954   4.627   7.415  0.1916 -0.6584  0.5326
 6679TIP3   OH241671   4.851   4.974   6.691  0.1814  0.1905 -0.2868
 6679TIP3    H141672   4.908   5.022   6.630  1.2550  1.5944  1.7026
 6679TIP3    H241673   4.789   5.040   6.722  0.9845  0.0772  1.6788
 6680TIP3   OH241674   2.300   3.550   0.523  0.3610 -0.8183 -0.4359
 6680TIP3    H141675   2.237   3.577   0.590 -0.9893 -1.9198 -1.2257
 6680TIP3    H241676   2.381   3.596   0.547 -0.8215  0.9464  0.3812
 6681TIP3   OH241677   0.964   5.565   8.678 -0.1427 -0.2504 -0.1291
 6681TIP3    H141678   1.024   5.639   8.682 -0.7507  0.3381 -1.1945
 6681TIP3    H241679   0.915   5.579   8.596 -1.3522 -0.9835  0.4433
 6682TIP3   OH241680   6.055   1.269   1.878 -0.2905 -0.6016 -0.7483
 6682TIP3    H141681   6.081   1.361   1.888  0.8057 -0.9708  0.1469
 6682TIP3    H241682   6.054   1.254   1.784  0.3367  0.1184 -0.8798
 6683TIP3   OH241683   0.778   6.018   1.296 -0.0527 -0.0849 -0.1616
 6683TIP3    H141684   0.705   6.036   1.355  0.7869  1.6844  0.4172
 6683TIP3    H241685   0.850   6.072   1.330  1.1408 -0.7980 -1.4551
 6684TIP3   OH241686   3.612   3.339   1.611 -0.0251  0.4354 -0.0092
 6684TIP3    H141687   3.637   3.421   1.567 -1.4774  1.4964  1.0776
 6684TIP3    H241688   3.669   3.335   1.688 -0.2414  0.6367  0.1611
 6685TIP3   OH241689   1.913   2.779   1.416  0.4703 -0.1865  0.5312
 6685TIP3    H141690   1.941   2.837   1.345  1.9497  0.1047  1.3183
 6685TIP3    H241691   1.849   2.720   1.375 -0.4340  1.4316 -0.4854
 6686TIP3   OH241692   3.987   4.200   0.688 -0.1090  0.2774 -0.3004
 6686TIP3    H141693   4.002   4.288   0.655  1.0322  0.6904  1.1880
 6686TIP3    H241694   3.972   4.211   0.782  0.1796 -1.1198 -0.0584
 6687TIP3   OH241695   5.579   4.837   1.425  0.1232 -0.1330  0.5747
 6687TIP3    H141696   5.632   4.915   1.410  0.4849 -0.5157 -0.1540
 6687TIP3    H241697   5.503   4.869   1.475  0.1011  0.7374  0.0001
 6688TIP3   OH241698   1.512   3.710   8.090 -0.5307  0.7071 -0.3217
 6688TIP3    H141699   1.505   3.791   8.141  0.0600  2.4788 -2.8597
 6688TIP3    H241700   1.426   3.699   8.051 -0.7078 -0.1229  0.2773
 6689TIP3   OH241701   5.236   6.105   1.366 -0.0229 -0.2527 -0.1424
 6689TIP3    H141702   5.299   6.122   1.436  0.6071  0.2977 -0.8340
 6689TIP3    H241703   5.166   6.056   1.409  0.6692 -0.5078  0.7326
 6690TIP3   OH241704   0.994   0.191   7.703  0.0545 -0.3142 -0.0311
 6690TIP3    H141705   1.088   0.184   7.688  0.8865  0.0023  3.8746
 6690TIP3    H241706   0.957   0.110   7.667  2.1838 -1.5654  0.4413
 6691TIP3   OH241707   5.589   2.205   1.686 -0.3223  0.7079 -0.1822
 6691TIP3    H141708   5.665   2.219   1.630  0.2484 -1.1955  0.0494
 6691TIP3    H241709   5.612   2.248   1.769  1.2156 -1.1467  0.4193
 6692TIP3   OH241710   3.709   0.559   7.302  0.0079 -0.0805  0.0525
 6692TIP3    H141711   3.626   0.579   7.260 -0.1519  0.8334  0.7691
 6692TIP3    H241712   3.715   0.622   7.375  0.9391 -0.6691  0.5038
 6693TIP3   OH241713   1.954   0.280   2.109 -0.0305  0.0261  0.0396
 6693TIP3    H141714   1.870   0.235   2.099 -0.2436  0.8590 -2.5414
 6693TIP3    H241715   1.932   0.373   2.106  0.8098  0.3146  1.5233
 6694TIP3   OH241716   2.192   2.112   7.149  0.4253 -0.8948  0.2250
 6694TIP3    H141717   2.214   2.205   7.143 -1.1614 -0.5182 -0.2007
 6694TIP3    H241718   2.209   2.078   7.061 -0.3436 -0.6755 -0.0155
 6695TIP3   OH241719   3.390   4.430   1.879  0.0129 -0.6245  0.4514
 6695TIP3    H141720   3.427   4.359   1.827 -0.3758 -0.3088 -0.2716
 6695TIP3    H241721   3.377   4.392   1.966  0.2402 -1.2991  0.1955
 6696TIP3   OH241722   3.518   6.340   7.305 -0.3036  0.3331 -0.2302
 6696TIP3    H141723   3.517   6.436   7.307 -0.7415  0.3261  0.6743
 6696TIP3    H241724   3.433   6.316   7.269 -0.8120  0.2828  0.9691
 6697TIP3   OH241725   2.440   3.594   7.096  0.2053  0.1414  0.5792
 6697TIP3    H141726   2.484   3.613   7.013 -1.6140 -0.4432 -0.5741
 6697TIP3    H241727   2.477   3.511   7.124  1.2533  0.6258  0.6796
 6698TIP3   OH241728   6.716   1.913   1.396  0.4789 -0.1546 -0.5885
 6698TIP3    H141729   6.781   1.961   1.447  0.3186 -0.1725 -0.3682
 6698TIP3    H241730   6.689   1.974   1.327 -1.0633  0.7476  0.7591
 6699TIP3   OH241731   6.572   2.043   0.531 -0.2668  0.0202 -0.0080
 6699TIP3    H141732   6.479   2.058   0.517  0.3842  3.6701 -1.4625
 6699TIP3    H241733   6.583   1.948   0.520 -3.4854 -0.2778 -1.7795
 6700TIP3   OH241734   2.312   5.847   0.604  0.0379 -0.5830 -0.4947
 6700TIP3    H141735   2.404   5.829   0.624  0.0800 -0.3997 -0.5230
 6700TIP3    H241736   2.313   5.934   0.564 -0.2485 -0.2041  0.3161
 6701TIP3   OH241737   2.656   3.448   1.357 -0.0322 -0.0459 -0.0722
 6701TIP3    H141738   2.715   3.375   1.377  1.4884  0.9552 -0.7837
 6701TIP3    H241739   2.596   3.412   1.291  0.5060 -0.7401 -0.1941
 6702TIP3   OH241740   1.031   2.928   8.532  0.1558 -0.0020  0.3895
 6702TIP3    H141741   1.116   2.959   8.564  0.1753 -0.6048  0.9518
 6702TIP3    H241742   1.036   2.833   8.540  0.2268 -0.2056 -1.6244
 6703TIP3   OH241743   0.848   1.523   7.717 -0.4397 -0.3068 -0.8315
 6703TIP3    H141744   0.838   1.603   7.665  1.1854  0.1919 -0.4372
 6703TIP3    H241745   0.761   1.483   7.717 -1.3394  1.5430 -0.8974
 6704TIP3   OH241746   3.193   1.812   0.401 -0.2858 -0.0903 -0.0486
 6704TIP3    H141747   3.278   1.801   0.359  0.8935  0.9597  1.9082
 6704TIP3    H241748   3.197   1.757   0.479 -0.7540  1.1799  0.9086
 6705TIP3   OH241749   1.776   6.080   0.810 -0.0568 -0.5261  0.7386
 6705TIP3    H141750   1.832   6.151   0.779 -1.5495  0.2550 -0.3347
 6705TIP3    H241751   1.827   6.000   0.797  0.8514  0.1680 -0.0531
 6706TIP3   OH241752   3.015   2.987   0.600 -0.1969 -0.1800  0.0096
 6706TIP3    H141753   2.970   2.905   0.618 -1.0177  0.3172  0.2585
 6706TIP3    H241754   3.037   2.984   0.507  0.3200 -0.9385  0.1511
 6707TIP3   OH241755   4.937   5.046   0.869 -0.2964  0.6369  0.2571
 6707TIP3    H141756   4.979   5.123   0.830 -0.3390  0.5249 -0.0139
 6707TIP3    H241757   4.934   4.982   0.798  1.8145 -0.4640  1.0536
 6708TIP3   OH241758   2.597   0.808   0.043  0.1422  0.0603  0.0517
 6708TIP3    H141759   2.535   0.878   0.025 -1.2813 -1.0125  0.5394
 6708TIP3    H241760   2.543   0.736   0.076  1.5268 -1.3184 -0.5512
 6709TIP3   OH241761   5.687   2.632   7.469 -0.1865  0.2428  0.0252
 6709TIP3    H141762   5.705   2.719   7.433 -0.3540  0.2975  0.0722
 6709TIP3    H241763   5.683   2.646   7.563 -2.2204  0.5707 -0.0681
 6710TIP3   OH241764   2.112   5.398   7.257 -0.5761  0.2309 -0.2160
 6710TIP3    H141765   2.125   5.369   7.167 -0.3716 -0.6873  0.1011
 6710TIP3    H241766   2.048   5.469   7.250  0.6740  1.2950 -1.2485
 6711TIP3   OH241767   4.568   2.883   7.608  0.4076  0.0964 -0.5087
 6711TIP3    H141768   4.473   2.871   7.599  0.0498 -0.0084  2.3408
 6711TIP3    H241769   4.600   2.797   7.636  1.0199  0.6004  0.3743
 6712TIP3   OH241770   1.441   5.197   6.855  0.1425 -0.5431  0.1607
 6712TIP3    H141771   1.452   5.109   6.891  0.6025 -1.4452 -2.0278
 6712TIP3    H241772   1.531   5.232   6.850  0.0145 -0.1539  0.5069
 6713TIP3   OH241773   6.522   6.144   0.540  0.0475  0.3580  0.0290
 6713TIP3    H141774   6.588   6.075   0.546  0.2431  0.6479  1.7309
 6713TIP3    H241775   6.570   6.225   0.556 -0.7608  0.5124  2.0581
 6714TIP3   OH241776   5.716   3.767   2.247  0.4883 -0.4469  0.5778
 6714TIP3    H141777   5.705   3.726   2.161 -0.2119 -0.5818  0.7245
 6714TIP3    H241778   5.807   3.749   2.271  0.4658 -1.0662  0.2060
 6715TIP3   OH241779   2.435   4.802   1.500  0.2800 -0.6035  0.2634
 6715TIP3    H141780   2.477   4.806   1.587  1.0828 -2.0910 -0.0244
 6715TIP3    H241781   2.505   4.826   1.439  0.3033 -1.5932 -0.1124
 6716TIP3   OH241782   2.245   3.150   8.105  0.2690 -0.8103  0.2281
 6716TIP3    H141783   2.296   3.110   8.175 -1.4776  0.6308  2.4532
 6716TIP3    H241784   2.294   3.230   8.082  1.1297 -1.5621 -0.6594
 6717TIP3   OH241785   4.959   6.588   1.592  0.1738 -0.5100 -0.3280
 6717TIP3    H141786   5.031   6.622   1.645 -0.1509  0.2253 -0.3405
 6717TIP3    H241787   4.973   6.627   1.506  0.0100 -0.7282 -0.4541
 6718TIP3   OH241788   4.632   2.211   8.276 -0.6970  0.0101  0.0343
 6718TIP3    H141789   4.578   2.194   8.353 -0.5882 -0.4899  0.0067
 6718TIP3    H241790   4.670   2.297   8.292 -0.2443 -0.3149  0.8001
 6719TIP3   OH241791   5.371   0.220   2.460 -0.1925  0.4083  0.2384
 6719TIP3    H141792   5.354   0.157   2.531  0.2464 -0.1334 -0.1209
 6719TIP3    H241793   5.427   0.286   2.500  0.4262 -0.1361  0.2937
 6720TIP3   OH241794   3.370   2.675   8.616 -0.3428  0.3431 -0.3850
 6720TIP3    H141795   3.348   2.590   8.577 -0.7393  0.8364 -1.2617
 6720TIP3    H241796   3.462   2.667   8.642 -0.1956 -0.1412 -1.0409
 6721TIP3   OH241797   3.161   5.702   1.357 -0.1775  0.1297 -0.0970
 6721TIP3    H141798   3.173   5.765   1.428  0.3361  1.0218 -0.9515
 6721TIP3    H241799   3.247   5.660   1.348  0.3875  1.4893 -1.5254
 6722TIP3   OH241800   1.823   2.364   2.512  0.0950  0.0114  0.0623
 6722TIP3    H141801   1.891   2.320   2.461  0.0460  2.5332 -2.3555
 6722TIP3    H241802   1.741   2.327   2.480  0.1593 -0.1182  0.0454
 6723TIP3   OH241803   4.793   3.944   7.491 -0.2740  0.0071  0.0391
 6723TIP3    H141804   4.739   3.966   7.415  1.2139  0.4651 -0.9396
 6723TIP3    H241805   4.748   3.871   7.533 -1.8962  0.6997 -0.4267
 6724TIP3   OH241806   5.252   0.102   7.540 -0.2623  0.0943 -0.6096
 6724TIP3    H141807   5.225   0.183   7.584  0.3149  0.6840 -1.3185
 6724TIP3    H241808   5.340   0.121   7.508  1.2611 -1.9022  1.9782
 6725TIP3   OH241809   2.824   4.803   7.809 -0.4514 -0.2905  0.3573
 6725TIP3    H141810   2.880   4.865   7.763 -1.1490  0.9751  1.1540
 6725TIP3    H241811   2.748   4.793   7.751 -0.8918  0.5639  0.7645
 6726TIP3   OH241812   0.875   5.030   1.804  0.1620  0.3424 -0.1855
 6726TIP3    H141813   0.861   4.939   1.777 -0.2963  0.5535 -0.6831
 6726TIP3    H241814   0.901   5.075   1.723  0.1087  0.7100 -0.0019
 6727TIP3   OH241815   6.019   6.097   7.243 -0.0512 -0.5838  0.3800
 6727TIP3    H141816   6.054   6.186   7.238 -2.0078  0.3279  1.4385
 6727TIP3    H241817   5.924   6.109   7.247 -0.3925 -2.7611  0.0449
 6728TIP3   OH241818   4.985   5.067   0.188 -0.1474 -0.4704  0.2076
 6728TIP3    H141819   5.056   5.050   0.127  0.5310 -1.2904  1.2009
 6728TIP3    H241820   5.024   5.121   0.256 -0.4052 -1.0879  0.8625
 6729TIP3   OH241821   6.398   1.702   1.530 -0.2174  0.1109  0.3073
 6729TIP3    H141822   6.417   1.609   1.540 -0.2023  0.2523  1.8563
 6729TIP3    H241823   6.342   1.707   1.453 -0.3256 -1.1981  0.2847
 6730TIP3   OH241824   3.529   0.400   8.485 -0.4954 -0.4222 -0.3575
 6730TIP3    H141825   3.567   0.434   8.566  2.3434 -0.1075 -1.7035
 6730TIP3    H241826   3.494   0.478   8.441  1.0748  0.0060 -0.9334
 6731TIP3   OH241827   1.904   4.420   0.851 -0.1831  0.0982 -0.0175
 6731TIP3    H141828   1.966   4.426   0.779 -0.3327 -0.6951 -0.2236
 6731TIP3    H241829   1.948   4.464   0.924  1.0155 -1.2070  0.0910
 6732TIP3   OH241830   0.049   2.035   0.631 -0.2802 -0.2653  0.5690
 6732TIP3    H141831   0.117   1.981   0.671  0.3369  0.7860  0.9711
 6732TIP3    H241832  -0.029   2.019   0.684  0.8453  2.1707  3.1984
 6733TIP3   OH241833   5.902   6.729   0.711  0.2381 -0.2459 -0.4199
 6733TIP3    H141834   5.815   6.703   0.682 -0.3796  0.0552  1.0864
 6733TIP3    H241835   5.933   6.654   0.763 -0.0881  0.5303  0.9519
 6734TIP3   OH241836   5.873   5.501   0.975 -0.9262 -0.3228 -0.1245
 6734TIP3    H141837   5.925   5.422   0.963  1.4382  1.0286  0.4891
 6734TIP3    H241838   5.858   5.533   0.886 -0.3561 -0.5382 -0.3055
 6735TIP3   OH241839   1.221   2.997   1.553  0.1993 -0.8745 -0.2199
 6735TIP3    H141840   1.141   3.003   1.502  0.6469  1.6923 -0.7658
 6735TIP3    H241841   1.290   2.982   1.489  0.4475 -0.3314 -0.0906
 6736TIP3   OH241842   6.712   1.217   8.105 -0.6094 -0.1354  0.4560
 6736TIP3    H141843   6.786   1.231   8.165  0.9769  2.8322 -1.9560
 6736TIP3    H241844   6.652   1.288   8.124 -2.0468 -1.4637  1.1053
 6737TIP3   OH241845   5.991   2.247   0.279 -0.1608  0.1047 -0.4554
 6737TIP3    H141846   5.953   2.330   0.251 -0.2772  0.3614  0.4445
 6737TIP3    H241847   5.941   2.222   0.357  1.2825  0.2976  0.5766
 6738TIP3   OH241848   3.307   4.689   8.492  0.2786  0.0727  0.0067
 6738TIP3    H141849   3.372   4.720   8.555 -0.6172  2.6487 -0.2158
 6738TIP3    H241850   3.354   4.687   8.409  0.8695 -1.1305  0.3586
 6739TIP3   OH241851   3.752   4.702   0.285  0.2678  0.1443  0.5713
 6739TIP3    H141852   3.742   4.767   0.354 -0.4693  0.3884  0.2368
 6739TIP3    H241853   3.787   4.625   0.330  0.8595  0.6659  1.0176
 6740TIP3   OH241854   2.675   5.771   1.198 -0.4181  0.4933 -0.1544
 6740TIP3    H141855   2.583   5.799   1.202 -0.5121  0.3418 -1.0062
 6740TIP3    H241856   2.709   5.786   1.286 -1.5668 -0.4981  0.4842
 6741TIP3   OH241857   2.764   4.910   8.771 -0.4306 -0.4207  0.2525
 6741TIP3    H141858   2.857   4.894   8.789 -0.6056 -0.4629  1.1803
 6741TIP3    H241859   2.727   4.823   8.756 -0.0631 -0.2997 -1.5086
 6742TIP3   OH241860   4.667   1.642   7.993 -0.2491 -0.2151 -0.1912
 6742TIP3    H141861   4.694   1.595   7.914  2.7474 -0.3920  0.8161
 6742TIP3    H241862   4.589   1.595   8.023  0.6219 -2.3953 -1.1093
 6743TIP3   OH241863   5.116   0.778   0.985 -0.2779 -0.5849 -0.3311
 6743TIP3    H141864   5.143   0.823   1.065  0.0115 -2.1578  0.5036
 6743TIP3    H241865   5.029   0.814   0.965 -1.2322 -1.5411  1.8289
 6744TIP3   OH241866   3.655   0.536   8.708 -0.3185  0.2643  0.5694
 6744TIP3    H141867   3.732   0.525   8.653 -0.5013  2.3084 -0.1860
 6744TIP3    H241868   3.629   0.627   8.695 -2.3233 -0.1127  1.5132
 6745TIP3   OH241869   0.082   3.380   6.831 -0.3394 -0.2710  0.3245
 6745TIP3    H141870   0.115   3.469   6.813 -0.5118 -0.1208  0.7497
 6745TIP3    H241871   0.146   3.344   6.892 -0.7076 -0.1521  0.7770
 6746TIP3   OH241872   3.120   6.465   6.471  0.3186 -0.1137 -0.0822
 6746TIP3    H141873   3.063   6.406   6.421  0.2968 -0.2448  0.0965
 6746TIP3    H241874   3.060   6.528   6.511  0.1896 -0.9549  1.0564
 6747TIP3   OH241875   3.477   0.826   7.973  0.3429  0.4630 -0.3861
 6747TIP3    H141876   3.411   0.778   7.923  0.4746 -0.2774  0.1278
 6747TIP3    H241877   3.478   0.914   7.935 -1.2128  0.6055 -0.1642
 6748TIP3   OH241878   5.534   1.382   0.796  0.1360 -0.0980  0.1944
 6748TIP3    H141879   5.514   1.306   0.742  2.5292  0.4184 -1.5969
 6748TIP3    H241880   5.605   1.353   0.854  0.7180  0.6104 -0.1514
 6749TIP3   OH241881   3.838   6.685   1.929 -0.1964  0.1379 -0.1357
 6749TIP3    H141882   3.844   6.641   1.845 -1.2941 -1.6087  0.6509
 6749TIP3    H241883   3.744   6.685   1.950  0.1960 -1.0017  1.8456
 6750TIP3   OH241884   2.289   4.269   7.893 -0.2520 -0.3009 -0.1870
 6750TIP3    H141885   2.293   4.201   7.825 -2.2948  0.3278 -1.0329
 6750TIP3    H241886   2.206   4.254   7.937  0.9709 -0.6061  2.1763
 6751TIP3   OH241887   0.943   3.665   8.487 -0.0526 -0.2478 -0.1797
 6751TIP3    H141888   0.883   3.739   8.496 -2.2278 -1.7382 -1.5938
 6751TIP3    H241889   0.902   3.594   8.537 -0.7074 -1.9481 -2.9076
 6752TIP3   OH241890   2.651   3.754   0.201 -0.5390 -0.3713  0.3783
 6752TIP3    H141891   2.626   3.839   0.164 -1.8586 -1.3958 -1.2082
 6752TIP3    H241892   2.570   3.719   0.238  0.0027 -0.9260  1.0588
 6753TIP3   OH241893   4.311   3.680   8.179  0.0951 -0.0668 -0.0380
 6753TIP3    H141894   4.352   3.629   8.249  1.0446 -0.5665 -0.9304
 6753TIP3    H241895   4.228   3.636   8.162 -0.4031  0.3776  1.1209
 6754TIP3   OH241896   1.428   6.046   2.363 -0.2926 -0.3174  0.1143
 6754TIP3    H141897   1.383   6.074   2.284 -1.1057  0.9379  0.9785
 6754TIP3    H241898   1.390   5.961   2.384 -1.1055 -0.0144 -0.0750
 6755TIP3   OH241899   6.743   2.904   0.050 -0.1839  0.3704 -0.4763
 6755TIP3    H141900   6.764   2.887  -0.042 -0.8517 -0.8140 -0.4273
 6755TIP3    H241901   6.743   2.818   0.091  0.4571  0.9209  0.7300
 6756TIP3   OH241902   6.157   5.095   8.651 -0.6716 -0.7303 -0.9328
 6756TIP3    H141903   6.176   5.056   8.736  1.6610 -0.3079 -1.1792
 6756TIP3    H241904   6.205   5.042   8.589 -1.0708 -0.0995 -1.8025
 6757TIP3   OH241905   5.879   1.299   7.529  0.1948  0.2366 -0.2267
 6757TIP3    H141906   5.969   1.294   7.561  0.0573  2.2266  0.5592
 6757TIP3    H241907   5.864   1.392   7.513 -1.2624 -0.2100 -1.7537
 6758TIP3   OH241908   4.456   2.350   7.234  0.2816 -0.0282 -0.1551
 6758TIP3    H141909   4.516   2.398   7.291  0.7896  0.4518 -1.0684
 6758TIP3    H241910   4.401   2.417   7.195 -0.7893 -0.4538  0.5710
 6759TIP3   OH241911   1.788   6.174   0.502  0.5434 -0.1601  0.3425
 6759TIP3    H141912   1.790   6.268   0.517 -1.7805  0.2988 -1.5469
 6759TIP3    H241913   1.871   6.155   0.458  0.1381  1.4542 -1.2484
 6760TIP3   OH241914   3.546   3.519   1.933 -0.0125 -0.2546  0.0245
 6760TIP3    H141915   3.490   3.513   2.011  0.0114  1.0420  0.1650
 6760TIP3    H241916   3.552   3.430   1.901 -3.8590 -0.2140 -1.2188
 6761TIP3   OH241917   6.133   2.537   7.066 -0.2932  0.0330 -0.4554
 6761TIP3    H141918   6.087   2.473   7.012  0.3770 -0.0643 -0.9317
 6761TIP3    H241919   6.152   2.609   7.006 -2.5289  1.4906  0.4521
 6762TIP3   OH241920   6.043   3.984   0.057 -0.3445 -0.3420  0.8870
 6762TIP3    H141921   6.030   3.911  -0.003 -2.0836  0.2492  0.4713
 6762TIP3    H241922   6.131   3.972   0.092  0.2365 -1.4022 -0.8220
 6763TIP3   OH241923   6.565   5.582   0.018  0.0060 -0.5807  0.2956
 6763TIP3    H141924   6.556   5.592   0.113  2.1146 -1.4816  0.6396
 6763TIP3    H241925   6.653   5.613  -0.001 -0.0247 -1.3458 -1.2348
 6764TIP3   OH241926   5.870   6.136   8.759 -0.7964 -0.2013  0.0437
 6764TIP3    H141927   5.938   6.184   8.712 -0.4147 -1.5593 -0.8494
 6764TIP3    H241928   5.853   6.188   8.837  0.3476  0.8201 -0.3637
 6765TIP3   OH241929   6.799   2.483   1.945 -0.3237  0.1755  0.5641
 6765TIP3    H141930   6.777   2.516   2.032 -0.4998 -0.3197  0.7089
 6765TIP3    H241931   6.766   2.393   1.944 -1.2635  0.5004 -0.3715
 6766TIP3   OH241932   5.346   3.996   7.733  0.0234 -0.4670 -0.0355
 6766TIP3    H141933   5.352   4.001   7.829 -0.2524 -0.0874 -0.0334
 6766TIP3    H241934   5.324   4.086   7.707 -1.2256 -0.8557 -0.3569
 6767TIP3   OH241935   6.086   4.707   0.698 -0.5993  0.2796 -0.0316
 6767TIP3    H141936   6.059   4.643   0.763 -1.6312 -0.1845 -0.8929
 6767TIP3    H241937   6.095   4.658   0.617 -1.1573  1.1567 -0.6498
 6768TIP3   OH241938   5.967   3.198   6.864  0.1190  0.3738  0.3727
 6768TIP3    H141939   5.913   3.140   6.917 -1.7132  0.8992 -0.8391
 6768TIP3    H241940   5.915   3.278   6.853  0.2370  0.1700 -2.4510
 6769TIP3   OH241941   4.635   1.443   8.697 -0.2131 -1.1772 -0.0215
 6769TIP3    H141942   4.679   1.460   8.781 -0.9373 -2.2684  0.6131
 6769TIP3    H241943   4.680   1.366   8.662  1.9603  0.8652 -2.0538
 6770TIP3   OH241944   2.691   1.726   7.678 -0.2403  0.1182  0.4043
 6770TIP3    H141945   2.731   1.749   7.762  0.5418 -0.2070  0.1225
 6770TIP3    H241946   2.642   1.646   7.695 -1.6755  1.0792  1.0058
 6771TIP3   OH241947   5.571   1.131   7.675  0.4445  0.4519  0.0151
 6771TIP3    H141948   5.485   1.137   7.633 -1.7721 -2.9922  3.4028
 6771TIP3    H241949   5.601   1.221   7.682 -3.2053  1.8976 -0.6941
 6772TIP3   OH241950   1.584   3.059   1.634  0.0649 -0.6482  0.2126
 6772TIP3    H141951   1.510   3.045   1.693  0.2924 -1.8406  0.2554
 6772TIP3    H241952   1.602   3.153   1.639 -0.6894 -0.5332  1.1021
 6773TIP3   OH241953   5.405   5.151   0.947 -0.2850 -0.1126  0.2977
 6773TIP3    H141954   5.443   5.066   0.925 -1.5298 -0.5933 -0.0787
 6773TIP3    H241955   5.478   5.213   0.942  0.3631 -0.9434 -0.7201
 6774TIP3   OH241956   6.193   4.464   2.267 -0.0645 -0.2540 -0.0204
 6774TIP3    H141957   6.215   4.555   2.288 -0.1896 -0.2084 -0.0830
 6774TIP3    H241958   6.112   4.471   2.216 -0.0952 -0.4037  0.0089
 6775TIP3   OH241959   3.365   1.922   8.698 -0.2377 -0.5800 -0.0458
 6775TIP3    H141960   3.400   2.007   8.672  0.9021 -0.8283  0.6036
 6775TIP3    H241961   3.413   1.900   8.778 -0.9769 -1.5372  0.1494
 6776TIP3   OH241962   3.481   5.493   1.639  0.6335  0.6012 -0.3821
 6776TIP3    H141963   3.476   5.493   1.543  1.0886  2.3762 -0.4385
 6776TIP3    H241964   3.416   5.557   1.667  0.6731  0.2765  0.4991
 6777TIP3   OH241965   4.724   0.814   8.328 -0.0687 -0.0993  0.2155
 6777TIP3    H141966   4.807   0.789   8.369 -0.3922  0.4547  1.2441
 6777TIP3    H241967   4.729   0.909   8.320 -0.6468 -0.0520  0.3806
 6778TIP3   OH241968   2.478   1.724   1.398  0.1712  0.4175 -0.2993
 6778TIP3    H141969   2.502   1.802   1.347 -2.0917  0.6518 -1.1197
 6778TIP3    H241970   2.427   1.671   1.337 -0.6323 -0.4148  1.0553
 6779TIP3   OH241971   5.388   3.280   0.047 -0.0186 -0.2347 -0.3049
 6779TIP3    H141972   5.294   3.301   0.050 -0.0642 -0.3959  3.1634
 6779TIP3    H241973   5.391   3.193   0.006 -1.4434 -0.4411 -0.0316
 6780TIP3   OH241974   4.536   2.540   7.027  0.0908  0.5977  0.2920
 6780TIP3    H141975   4.614   2.545   6.971 -0.6732  0.8052 -0.7981
 6780TIP3    H241976   4.487   2.620   7.006 -0.5572  0.3247  0.7253
 6781TIP3   OH241977   2.797   3.787   0.681 -0.3377 -0.2420 -0.1072
 6781TIP3    H141978   2.808   3.881   0.665 -0.3265 -0.6573 -2.8509
 6781TIP3    H241979   2.713   3.780   0.726  0.0109  1.0944  0.8292
 6782TIP3   OH241980   6.271   6.744   0.499 -0.4230  0.2415 -0.7687
 6782TIP3    H141981   6.226   6.823   0.530  2.1755  1.4065  0.2705
 6782TIP3    H241982   6.227   6.672   0.544  0.5702  1.5592  2.5534
 6783TIP3   OH241983   2.856   0.877   0.091 -0.5331 -0.6137  0.4531
 6783TIP3    H141984   2.763   0.879   0.070  0.1633  0.9664 -3.2435
 6783TIP3    H241985   2.887   0.794   0.055 -0.3206 -0.6779  0.7729
 6784TIP3   OH241986   6.099   0.108   7.245 -0.1813 -0.2314  0.5829
 6784TIP3    H141987   6.174   0.049   7.245  0.7245  0.8813  0.3520
 6784TIP3    H241988   6.090   0.136   7.336 -0.4921 -0.5721  0.6587
 6785TIP3   OH241989   4.977   0.883   8.092  0.7477  0.5267 -0.3709
 6785TIP3    H141990   4.991   0.873   8.186 -2.6342 -0.2444  0.1906
 6785TIP3    H241991   5.024   0.963   8.068  0.5431  1.5110  2.2680
 6786TIP3   OH241992   1.402   2.920   0.115  0.2840 -0.0961 -0.1726
 6786TIP3    H141993   1.397   2.830   0.084 -0.5315 -0.2516  0.3733
 6786TIP3    H241994   1.484   2.924   0.163  1.7226  0.2226 -2.4933
 6787TIP3   OH241995   0.109   6.533   7.221  0.3868 -0.0560  0.0902
 6787TIP3    H141996   0.179   6.517   7.157 -0.6389 -2.1291 -0.6066
 6787TIP3    H241997   0.075   6.620   7.197  2.6124  0.9935  0.4304
 6788TIP3   OH241998   0.581   1.874   1.889  0.0721  0.5045 -0.2020
 6788TIP3    H141999   0.645   1.821   1.937 -0.3448  0.1672 -0.0126
 6788TIP3    H242000   0.634   1.934   1.836  0.6262 -1.1857 -1.6724
 6789TIP3   OH242001   2.338   2.280   7.740  0.4201  0.1903  0.1940
 6789TIP3    H142002   2.247   2.278   7.710  0.2711 -3.0447  0.4688
 6789TIP3    H242003   2.389   2.276   7.659  0.2292 -0.1517  0.0850
 6790TIP3   OH242004   4.014   1.844   7.206 -0.1793  0.4512 -0.4087
 6790TIP3    H142005   4.039   1.935   7.222 -0.1064  0.2616  0.6363
 6790TIP3    H242006   4.047   1.825   7.119  0.3323  1.2426 -0.3990
 6791TIP3   OH242007   2.086   0.955   2.042 -0.2796 -0.1751  0.8584
 6791TIP3    H142008   2.161   0.936   1.986  0.3521  0.2290  1.5409
 6791TIP3    H242009   2.010   0.939   1.987  0.3193  1.9084 -0.6819
 6792TIP3   OH242010   1.545   6.350   1.496 -0.6026 -0.1066  0.3806
 6792TIP3    H142011   1.611   6.360   1.427 -0.2228 -0.5221  0.6760
 6792TIP3    H242012   1.584   6.395   1.572 -0.9732  0.2623  0.3562
 6793TIP3   OH242013   4.817   1.700   6.580 -0.8245  0.1875 -0.0774
 6793TIP3    H142014   4.863   1.617   6.595  0.1633  0.5050 -1.1617
 6793TIP3    H242015   4.728   1.675   6.555 -0.6851 -0.5252  0.1213
 6794TIP3   OH242016   1.051   3.800   2.613  0.3747 -0.5038  0.7024
 6794TIP3    H142017   1.118   3.758   2.559 -1.0063 -0.7056 -0.9302
 6794TIP3    H242018   1.046   3.745   2.691  0.6790 -1.6831 -0.0792
 6795TIP3   OH242019   0.243   4.389   0.866 -0.1204 -0.4106 -0.1865
 6795TIP3    H142020   0.160   4.401   0.819 -0.1183  0.2149 -0.0290
 6795TIP3    H242021   0.225   4.315   0.925 -0.7359  0.0643  0.2329
 6796TIP3   OH242022   2.921   6.266   1.722 -0.2697  0.0270 -0.1645
 6796TIP3    H142023   2.905   6.335   1.657  1.2223 -0.1033 -0.7106
 6796TIP3    H242024   3.006   6.288   1.760  0.6177 -1.9295 -0.9052
 6797TIP3   OH242025   5.991   2.855   7.947 -0.5749 -0.3275 -0.3346
 6797TIP3    H142026   6.060   2.831   7.885 -2.1744 -0.9186 -1.9583
 6797TIP3    H242027   6.038   2.870   8.029  1.7370  1.1585 -1.7932
 6798TIP3   OH242028   0.866   4.445   0.691  0.0735 -0.6752 -0.3933
 6798TIP3    H142029   0.941   4.470   0.636  0.9076 -1.0294  0.5513
 6798TIP3    H242030   0.814   4.387   0.635  0.0137  0.2850 -1.3704
 6799TIP3   OH242031   3.813   2.068   8.008 -0.3220  0.8856 -0.2342
 6799TIP3    H142032   3.797   1.995   7.948 -2.1907  1.2924 -0.2906
 6799TIP3    H242033   3.875   2.124   7.962 -1.1762  0.8290 -1.4772
 6800TIP3   OH242034   4.843   6.736   7.663  0.3626  0.2679 -0.1886
 6800TIP3    H142035   4.877   6.650   7.686  0.5051 -0.0339 -1.4818
 6800TIP3    H242036   4.903   6.770   7.597 -1.3815  0.0121 -2.0050
 6801TIP3   OH242037   5.405   0.898   7.057  0.5382 -0.1480 -0.1727
 6801TIP3    H142038   5.460   0.844   7.000  3.3027  1.5306  0.7369
 6801TIP3    H242039   5.465   0.961   7.097 -1.7557  0.6520  2.3464
 6802TIP3   OH242040   5.628   0.709   2.443 -0.1223 -0.2803 -0.6122
 6802TIP3    H142041   5.686   0.740   2.373 -0.8573  1.5922 -0.4424
 6802TIP3    H242042   5.634   0.776   2.511 -2.6923  0.1771 -0.7222
 6803TIP3   OH242043   1.929   1.323   1.402  0.1355  0.0235 -0.2376
 6803TIP3    H142044   2.001   1.366   1.448  1.2821  0.2542 -2.1497
 6803TIP3    H242045   1.850   1.350   1.451  0.9514  2.9275 -0.3322
 6804TIP3   OH242046   0.507   6.757   2.305  0.0616  0.1981 -0.2304
 6804TIP3    H142047   0.509   6.801   2.390 -1.0671  0.6677 -0.4261
 6804TIP3    H242048   0.423   6.710   2.304  0.4619 -0.5324 -0.7361
 6805TIP3   OH242049   5.293   1.093   1.628  0.7723  0.2870 -0.4110
 6805TIP3    H142050   5.291   1.000   1.650  0.8088  0.5929  1.0029
 6805TIP3    H242051   5.211   1.127   1.664  0.4137  0.6777 -1.5681
 6806TIP3   OH242052   4.498   2.064   0.280  0.2183  0.6455 -0.0228
 6806TIP3    H142053   4.428   2.125   0.258  0.3284  0.3941 -1.1508
 6806TIP3    H242054   4.460   2.007   0.347 -0.5496  0.7269 -0.3745
 6807TIP3   OH242055   3.595   3.556   1.158  0.0305 -1.1446  0.4380
 6807TIP3    H142056   3.670   3.537   1.102 -0.2376 -1.2905  0.1209
 6807TIP3    H242057   3.527   3.587   1.098  0.3628  0.5786  0.9143
 6808TIP3   OH242058   1.126   4.857   1.655 -0.5776 -0.3321  0.2243
 6808TIP3    H142059   1.087   4.942   1.637 -0.3809  0.1095  1.7012
 6808TIP3    H242060   1.078   4.796   1.599 -2.1791  0.4464  0.6844
 6809TIP3   OH242061   0.839   3.150   1.487 -0.4385 -0.1738  0.2612
 6809TIP3    H142062   0.908   3.155   1.421 -0.6981  0.2462  0.0178
 6809TIP3    H242063   0.796   3.236   1.485 -1.9047 -0.8861 -0.6143
 6810TIP3   OH242064   1.732   5.143   1.382  0.7052  0.2962  0.1467
 6810TIP3    H142065   1.717   5.049   1.392  1.2120  0.0343 -1.2978
 6810TIP3    H242066   1.645   5.181   1.371  0.5845 -0.2717 -1.0603
 6811TIP3   OH242067   3.781   2.436   7.367  0.0408 -0.2496  0.0120
 6811TIP3    H142068   3.837   2.492   7.313 -0.6042  1.5893  1.1590
 6811TIP3    H242069   3.842   2.385   7.420  0.6958  1.5024  1.0254
 6812TIP3   OH242070   4.971   2.311   7.895 -0.3043  0.1574 -0.0697
 6812TIP3    H142071   4.964   2.297   7.801  1.8518 -0.8902 -0.1528
 6812TIP3    H242072   4.894   2.268   7.932  0.1009 -1.6705 -1.2240
 6813TIP3   OH242073   2.527   3.739   7.911  0.3237  0.5759  0.0552
 6813TIP3    H142074   2.446   3.700   7.944 -0.1291  0.3190 -1.2892
 6813TIP3    H242075   2.498   3.798   7.841  1.3776 -1.0464 -1.8714
 6814TIP3   OH242076   3.624   4.351   0.865  0.3182  0.4137  0.2114
 6814TIP3    H142077   3.699   4.292   0.862 -0.0171 -0.0379  0.4751
 6814TIP3    H242078   3.548   4.293   0.855 -0.0323  0.7636  0.7866
 6815TIP3   OH242079   2.995   4.253   0.975 -0.1724  0.7486 -0.6119
 6815TIP3    H142080   2.934   4.309   1.023 -0.7499  0.2660 -0.7808
 6815TIP3    H242081   2.958   4.165   0.981 -1.0630  0.8646 -3.1676
 6816TIP3   OH242082   1.275   4.178   1.445 -0.2312 -0.2689 -0.3208
 6816TIP3    H142083   1.368   4.159   1.461 -0.3324  0.2228  0.9001
 6816TIP3    H242084   1.271   4.194   1.350  1.3304  1.7775 -0.1180
 6817TIP3   OH242085   4.365   4.277   8.450 -0.6564 -0.4097 -0.0841
 6817TIP3    H142086   4.426   4.334   8.497  0.0459 -1.4187  0.2553
 6817TIP3    H242087   4.288   4.332   8.435 -0.3735  0.3416  1.0655
 6818TIP3   OH242088   2.140   4.933   1.677  0.2800 -0.1964 -0.2391
 6818TIP3    H142089   2.051   4.937   1.711  0.4029  2.2038 -0.0209
 6818TIP3    H242090   2.192   4.897   1.749 -0.2075  0.2931  0.3642
 6819TIP3   OH242091   3.319   0.425   7.213  0.1126 -0.3966  0.7256
 6819TIP3    H142092   3.330   0.518   7.192 -1.2762 -0.0943  1.2405
 6819TIP3    H242093   3.241   0.422   7.267  0.6488 -1.7817  1.4646
 6820TIP3   OH242094   6.228   0.746   8.574  0.0934 -0.3318  0.1404
 6820TIP3    H142095   6.303   0.773   8.628 -0.8680  2.2498  0.3277
 6820TIP3    H242096   6.196   0.827   8.535 -1.7766 -1.5641 -1.0431
 6821TIP3   OH242097   1.343   0.079   2.309  0.3742 -0.6140 -0.5268
 6821TIP3    H142098   1.377   0.164   2.280  1.0485 -1.0365 -1.0081
 6821TIP3    H242099   1.421   0.024   2.315  0.3038 -0.5421  2.1800
 6822TIP3   OH242100   2.284   6.527   0.705  0.0952 -0.6133 -0.0512
 6822TIP3    H142101   2.311   6.435   0.707  0.7125 -0.4247  2.2345
 6822TIP3    H242102   2.306   6.556   0.616  0.3839 -2.5083 -0.6453
 6823TIP3   OH242103   4.655   5.566   7.386  0.4400  0.3098  0.2852
 6823TIP3    H142104   4.709   5.488   7.398 -0.4669 -0.7258 -1.8641
 6823TIP3    H242105   4.585   5.558   7.451  0.7108 -0.3256  0.5084
 6824TIP3   OH242106   1.166   5.050   0.503 -0.2733  0.4217  0.3599
 6824TIP3    H142107   1.109   5.124   0.488  0.5858  1.4156  1.7274
 6824TIP3    H242108   1.108   4.974   0.500 -1.1535  1.1164 -1.1406
 6825TIP3   OH242109   1.251   3.096   0.238  0.6970  0.3980 -0.6939
 6825TIP3    H142110   1.314   3.042   0.191  1.8544  1.5390 -0.5181
 6825TIP3    H242111   1.174   3.097   0.182  1.0293 -0.5584 -1.1997
 6826TIP3   OH242112   1.036   1.748   1.402 -0.2808  0.3540  0.1414
 6826TIP3    H142113   1.017   1.712   1.489 -0.5902 -0.2751 -0.1828
 6826TIP3    H242114   1.130   1.764   1.402 -0.2609  0.2404  0.5475
 6827TIP3   OH242115   1.978   0.620   8.040 -0.2744 -0.0800 -0.3967
 6827TIP3    H142116   1.960   0.692   8.100  2.6908 -0.0422  0.6453
 6827TIP3    H242117   1.953   0.541   8.088 -1.0087  0.1161 -0.4552
 6828TIP3   OH242118   0.391   1.013   1.572  0.6650  0.5003 -0.5091
 6828TIP3    H142119   0.332   0.943   1.600  0.3202  0.7886 -0.5199
 6828TIP3    H242120   0.451   0.970   1.511 -0.2989  0.4711 -1.4602
 6829TIP3   OH242121   6.478   4.147   1.109 -0.2027  0.0367 -0.8498
 6829TIP3    H142122   6.397   4.099   1.127  0.1376 -0.7164 -1.2571
 6829TIP3    H242123   6.492   4.199   1.188 -0.1789 -1.1337 -0.0378
 6830TIP3   OH242124   2.269   5.327   1.323 -0.0742  0.2095 -0.1187
 6830TIP3    H142125   2.268   5.239   1.361  1.7550 -0.2548 -1.0771
 6830TIP3    H242126   2.252   5.314   1.230 -0.4557  0.9575 -0.1658
 6831TIP3   OH242127   1.654   5.422   7.759 -0.0761 -0.1849  0.4254
 6831TIP3    H142128   1.668   5.496   7.818  0.8341 -0.8973  1.1342
 6831TIP3    H242129   1.559   5.412   7.755 -0.1871  0.6213  0.8139
 6832TIP3   OH242130   0.416   3.492   7.165 -0.4157 -0.0568 -0.4414
 6832TIP3    H142131   0.467   3.439   7.227 -1.9809 -0.6217  0.4235
 6832TIP3    H242132   0.378   3.428   7.105 -1.9091  0.0834  0.3071
 6833TIP3   OH242133   5.737   2.047   0.283  0.7945  0.3746  0.2341
 6833TIP3    H142134   5.696   2.028   0.367 -0.5741 -0.4480 -0.5975
 6833TIP3    H242135   5.727   1.967   0.232  3.1877  0.2221 -0.1398
 6834TIP3   OH242136   0.582   5.916   7.955  0.3099 -0.6271  0.2674
 6834TIP3    H142137   0.492   5.943   7.967  0.4802 -0.7116  2.0095
 6834TIP3    H242138   0.581   5.862   7.876 -1.3250 -1.2976  0.7052
 6835TIP3   OH242139   1.273   1.256   0.066  0.0151  0.1563 -0.0526
 6835TIP3    H142140   1.335   1.325   0.088 -0.3629  0.3264  0.4843
 6835TIP3    H242141   1.188   1.290   0.096 -0.3466 -0.0519 -0.8184
 6836TIP3   OH242142   2.071   6.523   0.170 -0.2300 -0.1354  0.3287
 6836TIP3    H142143   2.151   6.546   0.217  0.7397  1.4342 -1.8736
 6836TIP3    H242144   2.006   6.586   0.201  0.3889  0.8607 -0.3108
 6837TIP3   OH242145   5.475   0.424   2.271  0.0090 -0.0240 -0.0945
 6837TIP3    H142146   5.417   0.406   2.197  0.3308 -1.5402 -0.0156
 6837TIP3    H242147   5.562   0.405   2.239  0.3161  0.7516  0.2504
 6838TIP3   OH242148   6.752   2.986   0.351  0.1392 -0.1491  0.2397
 6838TIP3    H142149   6.773   2.984   0.258 -1.3403 -2.5397 -0.1312
 6838TIP3    H242150   6.722   3.075   0.367 -0.3819  0.0791 -1.7655
 6839TIP3   OH242151   5.619   0.138   1.852  0.5205 -0.1464  0.4395
 6839TIP3    H142152   5.635   0.180   1.936 -0.8242 -0.3982  0.8499
 6839TIP3    H242153   5.706   0.115   1.819  1.0324 -0.8333  2.1686
 6840TIP3   OH242154   6.531   6.405   1.702 -0.3113 -0.0786  0.5296
 6840TIP3    H142155   6.581   6.343   1.754 -0.2788 -0.7411 -0.2765
 6840TIP3    H242156   6.494   6.353   1.631  0.7436  1.0209 -0.8804
 6841TIP3   OH242157   1.495   1.649   7.868  0.3457 -0.3079 -0.2084
 6841TIP3    H142158   1.540   1.572   7.833  0.0948 -1.6135  2.1142
 6841TIP3    H242159   1.402   1.625   7.868 -0.2303  1.5066 -2.8785
 6842TIP3   OH242160   1.318   6.729   0.567  0.2139 -0.6884  0.0610
 6842TIP3    H142161   1.316   6.819   0.535 -0.3081 -0.3508  0.9875
 6842TIP3    H242162   1.317   6.675   0.489  2.2888  0.1106 -0.5791
 6843TIP3   OH242163   4.893   5.939   0.231 -0.0393 -0.2694 -0.1227
 6843TIP3    H142164   4.931   5.943   0.143  2.0107  0.1311  0.7287
 6843TIP3    H242165   4.932   5.862   0.271 -0.0463  0.1980  0.8183
 6844TIP3   OH242166   1.823   3.538   2.531 -0.6189  0.0956 -0.4446
 6844TIP3    H142167   1.815   3.446   2.554 -2.3213  0.3434  0.1345
 6844TIP3    H242168   1.816   3.584   2.614  1.4365  0.7519 -0.5673
 6845TIP3   OH242169   2.074   1.580   1.188  0.2561 -0.1436 -0.0609
 6845TIP3    H142170   2.055   1.601   1.280 -0.1810 -0.1870 -0.1425
 6845TIP3    H242171   2.057   1.487   1.181  0.6629 -0.2168 -0.0943
 6846TIP3   OH242172   0.781   3.128   6.536 -0.2227  0.1362  0.7186
 6846TIP3    H142173   0.706   3.081   6.570 -1.4276  0.7751 -0.9311
 6846TIP3    H242174   0.787   3.207   6.590 -0.8618  0.1790  0.7311
 6847TIP3   OH242175   1.679   0.068   6.665  0.0808  0.2180  0.6022
 6847TIP3    H142176   1.721   0.078   6.579  1.0458 -1.7601  0.7784
 6847TIP3    H242177   1.626   0.147   6.675  0.2577  0.6951 -1.6256
 6848TIP3   OH242178   1.015   0.995   2.017 -0.5130  0.3086 -0.2258
 6848TIP3    H142179   1.026   1.038   2.102 -1.6196 -1.2807  0.7689
 6848TIP3    H242180   1.085   1.031   1.963  0.1852  1.4034  1.3410
 6849TIP3   OH242181   1.707   2.140   8.335  0.0408 -1.0091 -0.1473
 6849TIP3    H142182   1.618   2.118   8.362 -0.2797 -0.4177 -0.6800
 6849TIP3    H242183   1.750   2.169   8.415  0.5089 -3.5403  0.6021
 6850TIP3   OH242184   4.249   0.837   0.657 -0.0851  0.0951 -0.0321
 6850TIP3    H142185   4.303   0.763   0.628  0.8858  0.6611  0.3004
 6850TIP3    H242186   4.295   0.914   0.624  0.6822  0.7258  2.3678
 6851TIP3   OH242187   3.183   0.610   0.360  0.0426 -0.6569  0.5982
 6851TIP3    H142188   3.099   0.582   0.324 -0.0700 -0.3821  0.6434
 6851TIP3    H242189   3.163   0.689   0.409  0.2580 -0.8243  0.9603
 6852TIP3   OH242190   4.844   0.210   0.582  0.2250  0.6606 -0.3281
 6852TIP3    H142191   4.879   0.147   0.645  2.1325  2.8802  0.9975
 6852TIP3    H242192   4.773   0.163   0.538  2.2459 -2.7563 -0.2904
 6853TIP3   OH242193   5.058   2.447   2.508  1.2510 -0.0501 -0.0792
 6853TIP3    H142194   5.005   2.521   2.479 -0.1140 -0.8416  0.3136
 6853TIP3    H242195   5.148   2.480   2.506  0.8509  1.0836 -1.5613
 6854TIP3   OH242196   0.092   6.079   7.771 -0.4045  0.2431 -0.5527
 6854TIP3    H142197   0.141   6.022   7.830 -2.0017 -0.3835  0.2375
 6854TIP3    H242198   0.111   6.046   7.684 -0.7782 -1.1128 -0.1488
 6855TIP3   OH242199   6.476   3.230   6.572 -0.3936 -0.2129  0.3849
 6855TIP3    H142200   6.569   3.227   6.594 -0.4985  1.9229  1.4158
 6855TIP3    H242201   6.474   3.269   6.484 -0.3290  2.2133  1.3777
 6856TIP3   OH242202   0.881   6.426   0.624  0.6558 -0.1462  0.1164
 6856TIP3    H142203   0.936   6.473   0.687  2.0026 -0.3599 -0.8457
 6856TIP3    H242204   0.943   6.393   0.558 -0.6870  0.0117 -1.2916
 6857TIP3   OH242205   0.094   3.697   0.698  0.4648 -0.6381  0.5263
 6857TIP3    H142206   0.077   3.607   0.672  2.7067 -0.9695 -0.0402
 6857TIP3    H242207   0.165   3.690   0.762  1.1517  0.7472 -0.0472
 6858TIP3   OH242208   5.840   4.316   6.936 -0.4038 -0.3621  0.1597
 6858TIP3    H142209   5.786   4.245   6.900  0.3228 -0.7400 -0.2009
 6858TIP3    H242210   5.928   4.280   6.937 -0.0954  0.3964  0.3781
 6859TIP3   OH242211   4.936   5.822   2.396 -0.3855  0.1513  0.9997
 6859TIP3    H142212   5.011   5.764   2.406 -1.3113 -0.7517  3.6944
 6859TIP3    H242213   4.964   5.905   2.436  0.7488  1.5766 -2.3696
 6860TIP3   OH242214   4.750   5.146   7.653  0.0974  0.0194  0.2848
 6860TIP3    H142215   4.663   5.186   7.653 -1.0535 -2.2817  0.9843
 6860TIP3    H242216   4.768   5.128   7.745  0.7388 -0.6568  0.0379
 6861TIP3   OH242217   4.444   6.794   7.621  0.1732 -0.0001 -0.3525
 6861TIP3    H142218   4.356   6.761   7.604  0.1280  1.0987 -2.6434
 6861TIP3    H242219   4.501   6.723   7.590  0.0890 -0.1342 -0.2019
 6862TIP3   OH242220   2.561   5.844   7.830  0.6489 -0.3901 -0.0390
 6862TIP3    H142221   2.488   5.905   7.814 -0.6951 -1.9946 -0.3418
 6862TIP3    H242222   2.639   5.892   7.803 -0.4209  1.0029 -0.7723
 6863TIP3   OH242223   3.000   3.360   8.362  0.1966  0.0467  0.3066
 6863TIP3    H142224   2.971   3.283   8.411  1.9324 -1.9773 -1.6404
 6863TIP3    H242225   3.075   3.393   8.410  1.1393 -1.1966 -0.2430
 6864TIP3   OH242226   6.217   2.081   0.919 -0.3476 -0.1040 -0.0002
 6864TIP3    H142227   6.151   2.012   0.910  0.0460 -0.3895 -0.8479
 6864TIP3    H242228   6.178   2.157   0.876 -0.9970  0.3807  1.3892
 6865TIP3   OH242229   1.667   1.405   0.324  0.4929 -0.3674  0.3669
 6865TIP3    H142230   1.687   1.499   0.327 -0.4184 -0.1904  1.7407
 6865TIP3    H242231   1.580   1.400   0.284  0.0260 -0.5175  1.3797
 6866TIP3   OH242232   4.793   0.994   0.365 -0.2308  0.0111 -0.2686
 6866TIP3    H142233   4.879   1.011   0.404 -0.3099 -1.4518  0.5943
 6866TIP3    H242234   4.788   0.899   0.358 -1.4194  0.1181 -1.1768
 6867TIP3   OH242235   4.238   3.310   1.076  0.0932 -0.4041 -0.1583
 6867TIP3    H142236   4.305   3.312   1.007 -0.9238  0.6181 -1.1589
 6867TIP3    H242237   4.281   3.350   1.152  0.3311  1.2225 -1.0935
 6868TIP3   OH242238   2.949   1.488   0.139 -0.3816  0.4243 -0.7221
 6868TIP3    H142239   2.983   1.570   0.102 -0.3593  0.2518 -1.0937
 6868TIP3    H242240   3.013   1.422   0.112  2.1783  0.8935  3.3948
 6869TIP3   OH242241   3.665   5.932   8.320  0.2404  0.0174  0.0733
 6869TIP3    H142242   3.664   5.840   8.295  2.8456  0.3431 -1.6096
 6869TIP3    H242243   3.578   5.964   8.297 -0.0799 -1.5784 -1.1204
 6870TIP3   OH242244   1.198   1.316   8.124  0.4412  0.4779  0.0333
 6870TIP3    H142245   1.250   1.395   8.108  0.7969  0.4348  0.9111
 6870TIP3    H242246   1.128   1.344   8.182 -0.8685  0.6493 -1.5789
 6871TIP3   OH242247   2.283   4.918   1.918  0.6008 -0.0298 -0.1136
 6871TIP3    H142248   2.227   4.899   1.994  0.2833  0.8016 -0.1348
 6871TIP3    H242249   2.308   5.009   1.929  0.1190  0.2609 -1.2815
 6872TIP3   OH242250   3.674   0.574   1.556 -0.7789 -0.5455 -0.1138
 6872TIP3    H142251   3.704   0.490   1.589  1.1195 -0.2178 -0.8465
 6872TIP3    H242252   3.684   0.568   1.461 -0.7598  0.4348 -0.1906
 6873TIP3   OH242253   5.817   3.696   0.122 -0.0188  0.3197  0.0560
 6873TIP3    H142254   5.776   3.613   0.148  1.1462  0.4947  2.7983
 6873TIP3    H242255   5.874   3.672   0.048  0.0127 -1.2697  0.5479
 6874TIP3   OH242256   4.193   4.479   7.363 -0.3323  0.0952  0.1777
 6874TIP3    H142257   4.121   4.432   7.320 -0.0671 -0.6910  0.5678
 6874TIP3    H242258   4.216   4.424   7.438  0.7287  0.2892  0.0135
 6875TIP3   OH242259   2.595   3.950   7.205 -0.0201 -0.6833 -0.3478
 6875TIP3    H142260   2.525   3.897   7.244  1.6429 -1.7275  1.4221
 6875TIP3    H242261   2.662   3.955   7.274 -0.0902  3.9460 -0.3207
 6876TIP3   OH242262   4.002   5.987   8.622 -0.2556  0.1460 -0.3157
 6876TIP3    H142263   4.083   6.012   8.576  0.6762 -1.4176  0.4172
 6876TIP3    H242264   3.936   6.047   8.586  0.6790 -0.1604 -2.7774
 6877TIP3   OH242265   1.025   5.929   8.366  0.1084  0.3912  0.4272
 6877TIP3    H142266   0.932   5.918   8.386  0.4561  0.0491  2.0103
 6877TIP3    H242267   1.040   6.024   8.371 -0.2232  0.4714 -0.1438
 6878TIP3   OH242268   5.827   0.127   0.862 -0.1886 -0.1986 -0.0042
 6878TIP3    H142269   5.862   0.208   0.824 -1.4128  0.6804  0.6901
 6878TIP3    H242270   5.874   0.057   0.816  1.0844  0.8958 -0.4345
 6879TIP3   OH242271   0.369   4.980   1.373  0.0855  0.4126  0.1699
 6879TIP3    H142272   0.394   5.038   1.446  1.6732 -0.3688  0.2924
 6879TIP3    H242273   0.416   5.016   1.298 -0.3158  0.3010 -0.1333
 6880TIP3   OH242274   2.410   4.272   1.913  0.3808 -0.0350  0.1870
 6880TIP3    H142275   2.504   4.263   1.896  0.2522 -0.1325 -0.5063
 6880TIP3    H242276   2.389   4.199   1.972  0.8574  0.3641  0.8686
 6881TIP3   OH242277   4.212   1.064   1.051  0.4458 -0.1674  0.1157
 6881TIP3    H142278   4.205   1.006   1.127  0.9470 -1.9627 -1.1387
 6881TIP3    H242279   4.306   1.067   1.031  0.1578 -1.5258 -1.7027
 6882TIP3   OH242280   1.175   0.363   8.596 -0.5837  0.3069  0.7773
 6882TIP3    H142281   1.153   0.439   8.651  0.1836  0.6961  0.5690
 6882TIP3    H242282   1.105   0.300   8.614 -1.0319  0.9104  1.2483
 6883TIP3   OH242283   4.722   4.684   1.802 -0.0821  0.1584 -0.1661
 6883TIP3    H142284   4.654   4.649   1.745 -0.9157  0.7281  0.4522
 6883TIP3    H242285   4.700   4.777   1.812  0.5354  0.2575  0.3984
 6884TIP3   OH242286   6.729   1.154   8.596  0.1157 -0.2815  0.0743
 6884TIP3    H142287   6.652   1.180   8.547 -0.3716  0.1968  1.0730
 6884TIP3    H242288   6.719   1.059   8.608  0.6652 -0.5585 -1.4470
 6885TIP3   OH242289   2.932   2.900   1.266  0.0552 -0.1908  0.9287
 6885TIP3    H142290   2.857   2.841   1.260  0.3615 -0.6836  1.7922
 6885TIP3    H242291   2.905   2.979   1.218  0.3085 -1.6955 -1.9114
 6886TIP3   OH242292   0.713   4.910   7.345 -0.0260  0.1010 -0.1966
 6886TIP3    H142293   0.636   4.954   7.311  0.2538 -0.3830 -1.5166
 6886TIP3    H242294   0.680   4.853   7.415 -0.3618  2.5185  1.7638
 6887TIP3   OH242295   3.554   4.689   7.976 -0.0138  0.1279  0.8590
 6887TIP3    H142296   3.475   4.721   7.934  0.4092  1.2800  0.9005
 6887TIP3    H242297   3.626   4.730   7.926  0.4996  1.2092  2.4106
 6888TIP3   OH242298   5.743   5.427   1.678  0.2171 -0.0186  0.4364
 6888TIP3    H142299   5.806   5.493   1.649  0.6054 -0.0755  1.1152
 6888TIP3    H242300   5.658   5.464   1.656  0.5056 -0.3750 -1.3817
 6889TIP3   OH242301   6.244   2.974   0.624 -0.3565 -0.0727  0.3125
 6889TIP3    H142302   6.308   2.971   0.695  2.6369  0.9317 -2.1064
 6889TIP3    H242303   6.286   3.029   0.557 -2.0980 -2.4750 -3.0222
 6890TIP3   OH242304   6.337   1.256   6.425  0.3704 -0.1034  0.4147
 6890TIP3    H142305   6.261   1.300   6.463  0.5530  0.1988  0.4308
 6890TIP3    H242306   6.341   1.288   6.335  0.7271  0.2068  0.5390
 6891TIP3   OH242307   3.199   5.507   1.056 -0.5256  0.5050  0.3056
 6891TIP3    H142308   3.211   5.519   1.150 -1.2181 -2.1818  0.8162
 6891TIP3    H242309   3.189   5.412   1.044 -3.5999  0.9327 -2.0483
 6892TIP3   OH242310   6.313   2.319   8.128  0.4219  0.2061  0.8960
 6892TIP3    H142311   6.298   2.406   8.165  1.9141  0.6558  0.5228
 6892TIP3    H242312   6.366   2.336   8.050  0.0078 -0.9810  0.3460
 6893TIP3   OH242313   4.300   3.274   2.188  0.8682 -0.0668  0.0354
 6893TIP3    H142314   4.237   3.346   2.197  0.5749 -0.4166  0.9120
 6893TIP3    H242315   4.331   3.259   2.277  0.1395 -1.7375  0.0385
 6894TIP3   OH242316   3.246   0.887   1.288 -0.3264 -0.7698  0.4054
 6894TIP3    H142317   3.154   0.906   1.306  0.2892  1.6593  1.3228
 6894TIP3    H242318   3.288   0.890   1.374  0.9073  0.0139 -0.2127
 6895TIP3   OH242319   3.539   1.662   7.468  0.5573  0.7588 -0.4080
 6895TIP3    H142320   3.500   1.675   7.555 -0.9734 -0.0198 -0.9514
 6895TIP3    H242321   3.505   1.578   7.438  2.5198  0.1340 -1.0332
 6896TIP3   OH242322   4.066   1.670   6.282  0.4471 -0.0071  0.2212
 6896TIP3    H142323   4.093   1.712   6.363  0.5463  1.9903 -0.7945
 6896TIP3    H242324   4.148   1.650   6.237  0.3702  0.0440  0.0588
 6897TIP3   OH242325   3.527   6.021   0.575  0.1386  0.0349 -0.2826
 6897TIP3    H142326   3.434   6.019   0.596  0.3949  1.2118  1.1639
 6897TIP3    H242327   3.532   6.056   0.486 -0.8087 -0.5332 -0.5652
 6898TIP3   OH242328   5.547   4.213   7.584 -0.2715  0.5088 -0.1500
 6898TIP3    H142329   5.518   4.127   7.614 -1.7205  1.0185 -0.0222
 6898TIP3    H242330   5.466   4.260   7.566  0.5243  1.3274 -1.7337
 6899TIP3   OH242331   2.639   0.905   8.557 -0.0360 -0.7115  0.2388
 6899TIP3    H142332   2.578   0.975   8.536  0.6113 -0.6778 -1.7472
 6899TIP3    H242333   2.703   0.945   8.615 -0.8989 -0.2887  0.9256
 6900TIP3   OH242334   4.192   3.399   1.891  0.4261 -0.0944  0.5893
 6900TIP3    H142335   4.103   3.368   1.910 -0.2318  2.1238  1.3474
 6900TIP3    H242336   4.236   3.399   1.976  0.5877  0.5175  0.5077
 6901TIP3   OH242337   1.929   2.068   1.656  0.5267  0.4936  0.5809
 6901TIP3    H142338   1.898   2.085   1.744  0.7347  1.8135  0.4338
 6901TIP3    H242339   1.905   2.147   1.607 -2.5762 -1.4955 -1.4213
 6902TIP3   OH242340   1.814   5.159   8.484  0.0903  0.1174  0.1264
 6902TIP3    H142341   1.802   5.125   8.395  1.2165  3.5800 -1.5326
 6902TIP3    H242342   1.904   5.136   8.506 -0.2120 -0.8078  0.4736
 6903TIP3   OH242343   2.735   0.006   1.280  0.3104 -0.2545 -0.5811
 6903TIP3    H142344   2.652  -0.035   1.300 -0.2746  0.5279 -1.3224
 6903TIP3    H242345   2.801  -0.051   1.320 -0.6182 -0.4122  0.7664
 6904TIP3   OH242346   3.285   0.876   7.676 -0.1473 -0.2474 -0.5530
 6904TIP3    H142347   3.191   0.892   7.692 -0.1509 -0.9703  0.2190
 6904TIP3    H242348   3.304   0.796   7.725  0.6365 -0.6973 -1.5740
 6905TIP3   OH242349   3.865   3.776   7.971  0.5263 -0.0506  0.3246
 6905TIP3    H142350   3.783   3.826   7.974  0.4041 -0.1924 -0.4560
 6905TIP3    H242351   3.903   3.787   8.058 -0.2829  0.0901  0.6691
 6906TIP3   OH242352   2.334   5.557   0.645  0.9201 -0.1011 -0.3991
 6906TIP3    H142353   2.423   5.590   0.656  1.1320 -0.3063 -1.3515
 6906TIP3    H242354   2.345   5.478   0.591  0.2761 -0.8458  0.5339
 6907TIP3   OH242355   1.613   5.505   8.155 -0.4631  0.4681 -0.2066
 6907TIP3    H142356   1.676   5.542   8.093 -0.4449  0.9056  0.0649
 6907TIP3    H242357   1.544   5.468   8.100 -0.2818  0.5582 -0.4931
 6908TIP3   OH242358   5.071   6.731   0.718 -0.0468  0.7455 -0.4273
 6908TIP3    H142359   5.037   6.658   0.770 -0.2291  1.3536  0.3263
 6908TIP3    H242360   5.021   6.726   0.636  2.5230 -2.2373 -2.0333
 6909TIP3   OH242361   6.652   4.489   2.145 -0.5091 -0.3920  1.1593
 6909TIP3    H142362   6.670   4.423   2.212 -1.2697 -0.1048  1.6555
 6909TIP3    H242363   6.664   4.573   2.190  0.2434 -0.1852  0.5901
 6910TIP3   OH242364   3.315   3.108   1.231 -0.2609  0.1090 -0.2957
 6910TIP3    H142365   3.231   3.152   1.225  0.7742  2.0408 -1.9267
 6910TIP3    H242366   3.332   3.074   1.144 -0.0313 -1.6876  0.4027
 6911TIP3   OH242367   0.025   0.653   8.812 -0.4079 -0.0664  0.4421
 6911TIP3    H142368   0.041   0.623   8.901  1.3742  1.0235  0.5372
 6911TIP3    H242369   0.043   0.576   8.758  0.2190 -0.2717  0.9254
 6912TIP3   OH242370   6.464   0.358   7.744 -0.0665  0.4835 -0.0022
 6912TIP3    H142371   6.479   0.433   7.802 -0.0481  0.6901 -0.2688
 6912TIP3    H242372   6.376   0.372   7.709  0.0800  0.5833 -0.3415
 6913TIP3   OH242373   0.147   0.879   1.111 -0.2705  0.2152  0.1907
 6913TIP3    H142374   0.091   0.909   1.183  0.0928 -2.4498  1.7387
 6913TIP3    H242375   0.087   0.830   1.054 -0.1796  0.5430 -0.1865
 6914TIP3   OH242376   6.052   1.992   1.224 -0.4085 -0.5030  0.2342
 6914TIP3    H142377   5.959   2.005   1.244  0.2743  1.6238  2.4333
 6914TIP3    H242378   6.085   2.080   1.206  1.5475 -0.9958  1.2347
 6915TIP3   OH242379   5.774   4.528   0.088  0.1017 -0.2850 -0.3730
 6915TIP3    H142380   5.773   4.453   0.147  1.0711  2.6774  3.8584
 6915TIP3    H242381   5.865   4.533   0.058  0.5316  0.2752  0.9675
 6916TIP3   OH242382   0.645   6.661   7.572 -0.0369 -0.1814 -0.1517
 6916TIP3    H142383   0.714   6.706   7.620  0.4247 -1.0411  0.0194
 6916TIP3    H242384   0.625   6.718   7.498 -1.1899  1.4695  1.3449
 6917TIP3   OH242385   6.225   3.580   1.631 -0.2769 -0.5968  0.5668
 6917TIP3    H142386   6.232   3.674   1.615 -0.1127 -0.6788  0.1637
 6917TIP3    H242387   6.142   3.571   1.678 -0.5884 -0.3214  0.0705
 6918TIP3   OH242388   2.896   4.198   8.675  0.2232 -0.5788 -0.3664
 6918TIP3    H142389   2.909   4.109   8.642  1.2022 -0.5332 -0.1456
 6918TIP3    H242390   2.934   4.196   8.763  4.1448  1.0607 -1.7958
 6919TIP3   OH242391   4.645   5.884   2.370 -0.5999  0.9009 -0.1909
 6919TIP3    H142392   4.631   5.931   2.287 -1.7919 -0.3045 -0.7039
 6919TIP3    H242393   4.735   5.852   2.364 -0.4592  1.3769 -0.7252
 6920TIP3   OH242394   1.838   6.387   1.550 -0.4796 -0.0876  0.2566
 6920TIP3    H142395   1.888   6.380   1.631 -0.8021  0.1346  0.4754
 6920TIP3    H242396   1.782   6.309   1.550  0.7439 -1.0012 -0.5969
 6921TIP3   OH242397   2.612   2.016   7.659 -0.5852  0.0911 -0.2358
 6921TIP3    H142398   2.553   2.030   7.585 -0.0136 -1.6489 -1.0581
 6921TIP3    H242399   2.653   1.932   7.642 -0.8697 -0.6525  2.3674
 6922TIP3   OH242400   4.819   6.801   8.071 -0.3295  0.5481  0.8229
 6922TIP3    H142401   4.902   6.753   8.074 -0.3535  0.4255 -0.1632
 6922TIP3    H242402   4.779   6.784   8.156  0.1664 -0.2827  0.9052
 6923TIP3   OH242403   2.722   2.741   1.245 -0.5342 -0.1137  0.7874
 6923TIP3    H142404   2.690   2.654   1.270 -2.6082  0.6620  1.0982
 6923TIP3    H242405   2.689   2.754   1.156  0.0616  0.2237  0.6092
 6924TIP3   OH242406   5.753   0.870   1.020 -0.4462  0.3221  0.3882
 6924TIP3    H142407   5.788   0.792   0.978 -0.0858  0.6878 -0.0017
 6924TIP3    H242408   5.810   0.886   1.095 -0.2845  0.4318  0.2428
 6925TIP3   OH242409   4.727   2.522   7.212  0.3189  0.7392 -0.1543
 6925TIP3    H142410   4.648   2.528   7.158  0.3111  1.5772 -0.0498
 6925TIP3    H242411   4.799   2.530   7.149  0.3141  1.1493 -0.1066
 6926TIP3   OH242412   4.289   3.955   7.448  0.7225 -0.1238  0.4270
 6926TIP3    H142413   4.286   3.901   7.526 -0.1402  0.8025  1.0594
 6926TIP3    H242414   4.228   4.027   7.466  2.7527  1.7681  0.1369
 6927TIP3   OH242415   1.822   6.681   6.798 -0.4415 -0.1610 -0.0044
 6927TIP3    H142416   1.781   6.747   6.743 -0.6185 -0.3526 -0.1022
 6927TIP3    H242417   1.824   6.602   6.744  0.0719 -0.1490 -0.0106
 6928TIP3   OH242418   5.136   0.341   1.741 -0.0400  0.2787 -0.1834
 6928TIP3    H142419   5.226   0.353   1.771 -0.1057  0.0570  0.1097
 6928TIP3    H242420   5.139   0.262   1.688  0.1079  0.7587 -0.9017
 6929TIP3   OH242421   4.436   5.411   1.632 -0.4967 -0.0710  0.5005
 6929TIP3    H142422   4.406   5.395   1.722 -0.6995 -0.4672  0.3665
 6929TIP3    H242423   4.358   5.444   1.587 -0.4143  0.0554  0.4500
 6930TIP3   OH242424   5.025   4.213   7.954 -0.3195 -0.6376  0.0952
 6930TIP3    H142425   4.967   4.265   7.898  1.6225  0.3361 -1.0920
 6930TIP3    H242426   5.064   4.149   7.895  0.4145 -0.7731  0.7173
 6931TIP3   OH242427   5.705   3.661   0.407 -0.0909  1.1893 -0.2479
 6931TIP3    H142428   5.626   3.633   0.454  0.1623  0.9532  0.0377
 6931TIP3    H242429   5.707   3.607   0.329  0.0742  0.8281  0.0066
 6932TIP3   OH242430   5.288   4.022   7.240  0.3611  0.4097  0.1486
 6932TIP3    H142431   5.305   4.062   7.326  0.6200  0.8785 -0.1136
 6932TIP3    H242432   5.193   4.016   7.235  0.3715 -1.5724  1.3385
 6933TIP3   OH242433   1.394   2.575   8.288 -0.1720  0.3591 -0.1408
 6933TIP3    H142434   1.449   2.653   8.295 -0.9295  0.8716  0.1946
 6933TIP3    H242435   1.351   2.568   8.373  1.9573 -2.0497  0.8981
 6934TIP3   OH242436   6.553   5.964   0.057 -0.1584  0.3831 -0.5143
 6934TIP3    H142437   6.586   5.913   0.131 -0.8833  0.7199  0.0504
 6934TIP3    H242438   6.592   6.051   0.069  0.0989  0.3057 -0.7904
 6935TIP3   OH242439   4.508   0.048   0.146 -0.7528  0.5015 -0.5591
 6935TIP3    H142440   4.540  -0.023   0.090  1.9365  1.9644 -1.0388
 6935TIP3    H242441   4.467   0.004   0.220  2.3587 -1.6636  0.0555
 6936TIP3   OH242442   6.799   6.586   7.490  0.2899 -0.2716 -0.1198
 6936TIP3    H142443   6.842   6.500   7.490  0.5663 -0.1336  0.0684
 6936TIP3    H242444   6.822   6.624   7.405  0.2224 -0.3552 -0.1759
 6937TIP3   OH242445   2.986   0.940   1.381  0.0630  0.0611 -0.2471
 6937TIP3    H142446   2.928   0.869   1.407 -1.7328  1.6750  0.3437
 6937TIP3    H242447   3.012   0.981   1.464  1.5217 -0.1839 -0.5444
 6938TIP3   OH242448   6.266   1.472   7.942 -0.2010  0.4381  0.0881
 6938TIP3    H142449   6.253   1.490   7.849 -2.6670  0.1317  0.3103
 6938TIP3    H242450   6.205   1.401   7.962  1.6824 -0.8877  1.5588
 6939TIP3   OH242451   2.808   4.634   1.469  0.4836  0.0689  0.7273
 6939TIP3    H142452   2.798   4.556   1.414 -1.6394  0.6269  0.2109
 6939TIP3    H242453   2.890   4.674   1.440 -0.3867  0.1607 -1.8890
 6940TIP3   OH242454   5.876   5.290   1.405 -0.1692  0.3541 -0.3273
 6940TIP3    H142455   5.801   5.232   1.395 -0.9327  1.2321  0.1121
 6940TIP3    H242456   5.855   5.365   1.350  0.5136  0.4852 -0.4089
 6941TIP3   OH242457   6.396   5.696   7.878 -0.4313 -0.1032 -0.5616
 6941TIP3    H142458   6.482   5.657   7.890 -0.0272  0.0686 -2.6118
 6941TIP3    H242459   6.379   5.743   7.960  1.5929  0.2232 -0.2910
 6942TIP3   OH242460   4.176   4.151   1.977 -0.3285  0.3199  0.3567
 6942TIP3    H142461   4.184   4.198   2.060 -2.2848  1.4096 -0.0276
 6942TIP3    H242462   4.102   4.093   1.989  2.0344 -2.8741  0.8268
 6943TIP3   OH242463   0.870   6.256   7.317 -0.3820 -0.0623 -0.8469
 6943TIP3    H142464   0.962   6.235   7.300 -0.8204 -0.5196 -2.8691
 6943TIP3    H242465   0.871   6.301   7.402  1.2310 -3.5184  1.1919
 6944TIP3   OH242466   5.936   3.867   8.189  0.0695  0.8250 -0.7681
 6944TIP3    H142467   5.969   3.777   8.185  2.8111  1.6782  0.1957
 6944TIP3    H242468   5.908   3.879   8.279 -0.8868  0.7683 -1.0503
 6945TIP3   OH242469   2.802   5.501   0.714 -0.2365  0.8844  0.3168
 6945TIP3    H142470   2.781   5.506   0.621 -1.0846  0.2388  0.4559
 6945TIP3    H242471   2.855   5.579   0.731 -1.5576  1.9733 -0.3335
 6946TIP3   OH242472   6.622   1.325   1.697  0.2653 -1.0419  0.2510
 6946TIP3    H142473   6.585   1.390   1.757 -0.0170 -1.4180  0.4962
 6946TIP3    H242474   6.713   1.351   1.686  0.3358 -0.9978  0.8962
 6947TIP3   OH242475   1.120   2.403   1.434 -0.3752 -0.3941 -0.2805
 6947TIP3    H142476   1.193   2.464   1.441 -1.3454  0.8527 -0.7601
 6947TIP3    H242477   1.062   2.427   1.506  0.0670 -1.9507  0.6417
 6948TIP3   OH242478   3.273   1.775   8.416 -0.4301 -0.1066  0.0441
 6948TIP3    H142479   3.271   1.870   8.422 -0.4486 -0.0808 -0.3207
 6948TIP3    H242480   3.259   1.745   8.506  1.5963  0.2388  0.5216
 6949TIP3   OH242481   6.500   4.567   7.275  0.9669 -0.1702  0.6668
 6949TIP3    H142482   6.448   4.487   7.275 -0.5717  0.7810  1.4186
 6949TIP3    H242483   6.586   4.540   7.308  0.0751 -1.2748  2.2235
 6950TIP3   OH242484   2.777   0.704   6.341  0.4888 -0.4276  0.2102
 6950TIP3    H142485   2.719   0.663   6.277 -0.6455  0.7375  0.4543
 6950TIP3    H242486   2.815   0.779   6.294 -2.3354  2.0435  1.5021
 6951TIP3   OH242487   4.494   6.509   0.327 -0.4370  0.0725 -1.1561
 6951TIP3    H142488   4.411   6.522   0.281 -1.2551  1.6504  0.6646
 6951TIP3    H242489   4.491   6.417   0.356 -1.2900 -0.0374 -1.5682
 6952TIP3   OH242490   6.109   5.792   0.386  0.4263  0.0072  0.7141
 6952TIP3    H142491   6.144   5.716   0.341 -0.4872 -0.9123  1.5134
 6952TIP3    H242492   6.079   5.759   0.471  1.4535  1.5505  1.7365
 6953TIP3   OH242493   6.351   1.128   1.921 -0.2921  0.5721  0.2798
 6953TIP3    H142494   6.297   1.200   1.955  1.2428  2.7323 -1.6193
 6953TIP3    H242495   6.436   1.140   1.962 -0.1860 -0.6227  0.4581
 6954TIP3   OH242496   3.662   6.022   8.635  0.2645  0.3754  0.0729
 6954TIP3    H142497   3.627   5.956   8.576  0.3687  0.6231 -0.2670
 6954TIP3    H242498   3.683   6.097   8.579  0.7409  0.4632  0.3617
 6955TIP3   OH242499   0.542   1.538   1.186  0.1824  0.2762 -0.4114
 6955TIP3    H142500   0.565   1.630   1.172 -0.6074  0.9301  2.0663
 6955TIP3    H242501   0.451   1.541   1.216  0.2805 -1.2935  0.1091
 6956TIP3   OH242502   2.847   1.268   0.369  0.1039 -0.5843  0.2497
 6956TIP3    H142503   2.919   1.329   0.356 -0.9974  0.9238  0.9240
 6956TIP3    H242504   2.787   1.314   0.428 -1.6754 -1.5526 -0.7300
 6957TIP3   OH242505   5.009   2.322   8.298 -0.8702  0.0268  0.7071
 6957TIP3    H142506   5.049   2.381   8.234 -1.1908  0.3624  0.8171
 6957TIP3    H242507   4.916   2.340   8.294 -1.0314 -0.8113  0.4048
 6958TIP3   OH242508   1.521   3.560   1.924  0.1033  0.2275  0.1771
 6958TIP3    H142509   1.511   3.655   1.919  0.5908  0.4091  2.0188
 6958TIP3    H242510   1.442   3.530   1.969  0.9539  0.0556  1.6431
 6959TIP3   OH242511   1.538   5.312   2.637 -0.1551 -0.3535 -0.0940
 6959TIP3    H142512   1.466   5.249   2.636  0.1161 -0.6784 -2.0753
 6959TIP3    H242513   1.506   5.387   2.586  0.2305  0.3246  0.6280
 6960TIP3   OH242514   6.537   0.517   1.896  0.5214  0.5453  0.2586
 6960TIP3    H142515   6.469   0.546   1.956  0.4876 -0.0013  0.4849
 6960TIP3    H242516   6.619   0.529   1.944  0.6105  1.3732 -0.0785
 6961TIP3   OH242517   4.917   0.976   1.418 -0.1698 -0.2455 -0.8963
 6961TIP3    H142518   4.944   1.023   1.339  0.8619 -2.0142 -1.6474
 6961TIP3    H242519   4.908   0.885   1.390 -0.9584 -0.7168  0.7730
 6962TIP3   OH242520   5.305   6.567   1.382 -0.4921 -0.2051  0.1487
 6962TIP3    H142521   5.376   6.629   1.365  0.3656 -1.3600 -0.6727
 6962TIP3    H242522   5.232   6.599   1.328 -0.0656  0.1124 -0.2477
 6963TIP3   OH242523   6.802   4.575   7.096  0.2263  0.2874  0.0631
 6963TIP3    H142524   6.858   4.498   7.081  1.6747  1.1706  0.7634
 6963TIP3    H242525   6.748   4.551   7.171  1.6412  0.4366  1.1598
 6964TIP3   OH242526   3.854   1.628   2.451 -0.3029 -0.5311 -0.0861
 6964TIP3    H142527   3.770   1.672   2.440 -0.6889 -1.3499 -0.6186
 6964TIP3    H242528   3.917   1.685   2.407 -0.6966 -0.2476 -0.2926
 6965TIP3   OH242529   2.867   6.795   2.087  0.3113 -0.2303  0.3180
 6965TIP3    H142530   2.915   6.809   2.168 -0.3111 -1.2619  0.8941
 6965TIP3    H242531   2.791   6.853   2.094 -0.0613 -0.7672  0.7578
 6966TIP3   OH242532   4.623   5.101   1.225  0.0922 -0.0995 -0.2165
 6966TIP3    H142533   4.562   5.047   1.174 -1.0738 -1.0816  2.0717
 6966TIP3    H242534   4.567   5.156   1.279  1.1864 -0.6457  1.5756
 6967TIP3   OH242535   0.312   0.820   6.743 -0.0775 -0.1412 -0.4776
 6967TIP3    H142536   0.234   0.874   6.738 -0.6375 -0.9562 -0.8715
 6967TIP3    H242537   0.329   0.810   6.836  0.9583  1.9667 -0.3849
 6968TIP3   OH242538   1.633   0.928   6.413  0.4095  0.0741 -0.0745
 6968TIP3    H142539   1.684   0.994   6.366  1.2325  0.2633  1.0301
 6968TIP3    H242540   1.688   0.850   6.411 -0.0349 -0.2364 -0.3574
 6969TIP3   OH242541   4.325   6.261   8.244 -0.3659  0.9105  0.1519
 6969TIP3    H142542   4.353   6.203   8.173 -1.2902  1.1148 -0.3894
 6969TIP3    H242543   4.323   6.205   8.322  0.0441  0.5369 -0.1055
 6970TIP3   OH242544   3.919   5.077   1.030  0.0075 -0.5033  0.0404
 6970TIP3    H142545   3.874   5.045   0.952 -1.9188 -2.1190  1.7004
 6970TIP3    H242546   3.871   5.155   1.056  0.6750  0.0593 -0.3731
 6971TIP3   OH242547   1.987   3.105   2.034  0.1512 -0.2457  0.0967
 6971TIP3    H142548   1.961   3.106   2.126 -0.1924  0.3136  0.0042
 6971TIP3    H242549   2.047   3.179   2.026 -1.0879  0.7463 -0.4580
 6972TIP3   OH242550   6.141   2.043   0.176  0.2206 -0.5250 -0.7687
 6972TIP3    H142551   6.143   2.062   0.082  1.7075  2.8296 -0.2237
 6972TIP3    H242552   6.087   2.113   0.213 -0.3821 -1.8111  0.9115
 6973TIP3   OH242553   3.392   4.168   7.609  0.0651  0.6421  0.0459
 6973TIP3    H142554   3.363   4.117   7.684 -0.9742 -0.2581 -0.9379
 6973TIP3    H242555   3.323   4.232   7.594  0.2594  0.8108 -0.1417
 6974TIP3   OH242556   0.354   5.259   0.248 -0.4520  0.3392 -0.2709
 6974TIP3    H142557   0.309   5.186   0.207 -0.5745  0.3615 -0.1772
 6974TIP3    H242558   0.410   5.219   0.315  0.6173  0.1981 -1.2147
 6975TIP3   OH242559   4.815   4.701   2.065  0.4346  0.2645  0.2197
 6975TIP3    H142560   4.798   4.796   2.066  1.8249  0.5729  2.8081
 6975TIP3    H242561   4.797   4.675   1.974 -0.2047  2.9461 -0.5304
 6976TIP3   OH242562   1.215   5.441   1.075 -0.0765  0.2109  0.0170
 6976TIP3    H142563   1.200   5.351   1.102  2.1613  0.0360  0.9085
 6976TIP3    H242564   1.238   5.436   0.983 -2.1307  0.1599 -0.5276
 6977TIP3   OH242565   2.107   2.873   2.043  0.5131 -0.0050 -0.0802
 6977TIP3    H142566   2.106   2.968   2.037  0.8752  0.3831  3.6375
 6977TIP3    H242567   2.198   2.849   2.026  0.7073  0.4522  0.3066
 6978TIP3   OH242568   2.246   3.704   8.011  0.2302  0.1854 -0.1007
 6978TIP3    H142569   2.184   3.777   8.010 -1.1177 -0.6566  3.6398
 6978TIP3    H242570   2.195   3.629   7.984  0.0414 -0.2299  1.3454
 6979TIP3   OH242571   2.850   3.408   7.507  0.0522 -0.3952 -0.6849
 6979TIP3    H142572   2.810   3.489   7.475  0.3131  0.8128  1.8005
 6979TIP3    H242573   2.894   3.371   7.431 -2.7292  0.0903 -2.6762
 6980TIP3   OH242574   3.327   6.845   8.156  0.3091  0.0629  0.5402
 6980TIP3    H142575   3.258   6.812   8.213  0.5344  0.2342  0.9172
 6980TIP3    H242576   3.396   6.779   8.161  0.1108 -0.1917  0.0313
 6981TIP3   OH242577   5.777   2.021   1.276  0.2828 -0.1830  0.1601
 6981TIP3    H142578   5.768   2.049   1.367  2.1533  1.7545 -0.1818
 6981TIP3    H242579   5.798   1.927   1.281  0.8931  0.0161  1.7571
 6982TIP3   OH242580   1.411   3.993   0.720  0.4942 -0.1774  0.1104
 6982TIP3    H142581   1.433   4.079   0.755 -2.2259  1.1041 -1.0149
 6982TIP3    H242582   1.403   3.937   0.797  1.3934  0.7994  0.9503
 6983TIP3   OH242583   3.230   1.581   1.033  0.5899  0.5410 -0.1543
 6983TIP3    H142584   3.223   1.548   0.943 -0.0791  1.1345 -0.3282
 6983TIP3    H242585   3.205   1.507   1.088 -1.4214  0.8863 -0.5559
 6984TIP3   OH242586   4.026   0.557   7.831  0.8643  0.3508 -0.2498
 6984TIP3    H142587   4.035   0.469   7.796 -0.7298  0.8201 -2.0000
 6984TIP3    H242588   3.965   0.548   7.904  1.0013 -0.0403 -0.1817
 6985TIP3   OH242589   1.079   2.902   1.850 -0.0310  0.0625  0.3222
 6985TIP3    H142590   1.018   2.862   1.912  0.3347  2.0641  2.0380
 6985TIP3    H242591   1.029   2.973   1.810  0.8380  1.0482  0.9654
 6986TIP3   OH242592   4.619   1.084   1.859 -0.4687 -0.4772 -0.2477
 6986TIP3    H142593   4.643   1.117   1.772 -1.1051  1.1662  0.1624
 6986TIP3    H242594   4.530   1.116   1.873 -0.3346 -0.6182  1.0665
 6987TIP3   OH242595   6.716   3.250   0.389 -0.3634  0.2269 -0.3192
 6987TIP3    H142596   6.736   3.329   0.338 -1.3420  0.0192 -1.0535
 6987TIP3    H242597   6.678   3.283   0.470 -0.0852  0.5278 -0.3100
 6988TIP3   OH242598   1.726   4.258   0.431  0.2629 -0.4334 -0.5540
 6988TIP3    H142599   1.739   4.182   0.375  1.2480  0.4370 -1.5595
 6988TIP3    H242600   1.810   4.271   0.474  0.1595  0.1829 -0.5245
 6989TIP3   OH242601   4.230   2.372   2.190  0.2010 -0.0154 -0.1046
 6989TIP3    H142602   4.159   2.325   2.234  2.2147 -2.1623  1.0791
 6989TIP3    H242603   4.300   2.377   2.255  1.3842  1.5152 -1.3930
 6990TIP3   OH242604   3.928   4.429   7.815  0.2985 -0.3194  0.6389
 6990TIP3    H142605   3.911   4.339   7.786  0.3712  0.1955 -1.1087
 6990TIP3    H242606   3.849   4.454   7.862 -2.0878  0.4313 -3.3324
 6991TIP3   OH242607   5.118   3.450   6.777 -0.2476  0.1264 -0.2802
 6991TIP3    H142608   5.098   3.511   6.848  1.3804  0.3182  0.0529
 6991TIP3    H242609   5.160   3.503   6.710 -1.6123 -0.0931 -1.3447
 6992TIP3   OH242610   4.040   4.713   1.170  0.4063 -0.0911  0.4174
 6992TIP3    H142611   4.080   4.668   1.095 -0.6399 -0.6606  0.1805
 6992TIP3    H242612   3.988   4.645   1.214 -1.8666  0.9929 -0.4130
 6993TIP3   OH242613   1.032   0.372   2.067  0.1613 -0.0452 -0.0942
 6993TIP3    H142614   1.082   0.330   1.998 -0.4682  0.9076 -1.1502
 6993TIP3    H242615   1.034   0.465   2.047 -1.8447  0.0466 -0.0695
 6994TIP3   OH242616   4.514   5.195   7.216  0.1504 -0.0574  0.5380
 6994TIP3    H142617   4.493   5.225   7.128  0.9759 -1.9273 -0.3568
 6994TIP3    H242618   4.608   5.205   7.224 -0.0814  1.5743  1.8487
 6995TIP3   OH242619   0.419   0.604   2.000 -0.0662 -0.1074  0.0543
 6995TIP3    H142620   0.347   0.664   2.019  1.1932  0.8524  2.2640
 6995TIP3    H242621   0.457   0.584   2.086  2.5794 -0.2021 -1.0319
 6996TIP3   OH242622   3.340   0.608   1.290  0.5825  0.3165  0.3597
 6996TIP3    H142623   3.257   0.653   1.278  0.1321 -0.4249  0.6408
 6996TIP3    H242624   3.361   0.619   1.383  1.7962  2.1717 -0.0838
 6997TIP3   OH242625   2.238   5.727   2.080  0.0724 -0.0808 -0.4958
 6997TIP3    H142626   2.143   5.724   2.089 -0.0789  1.1448 -1.4569
 6997TIP3    H242627   2.265   5.804   2.130  0.9518 -2.0160  2.2819
 6998TIP3   OH242628   3.169   1.940   1.246  0.1125 -0.4837  0.0866
 6998TIP3    H142629   3.183   1.996   1.322 -1.9620  1.5799 -0.9466
 6998TIP3    H242630   3.075   1.922   1.246 -0.0371  0.0290 -2.2732
 6999TIP3   OH242631   2.174   0.858   7.667  0.4441 -0.1172 -0.3039
 6999TIP3    H142632   2.159   0.838   7.574  1.4794  0.3230 -0.5811
 6999TIP3    H242633   2.270   0.862   7.675  0.3491  2.0290  0.3107
 7000TIP3   OH242634   2.753   2.278   0.136  1.1233  0.6119 -0.2251
 7000TIP3    H142635   2.823   2.330   0.177  1.6288 -1.6133  1.9436
 7000TIP3    H242636   2.712   2.231   0.209 -0.6893 -0.4349 -1.8283
 7001TIP3   OH242637   6.198   5.942   8.762 -0.1669  0.0483 -0.1878
 7001TIP3    H142638   6.131   5.943   8.831 -0.3974  0.1651 -0.4118
 7001TIP3    H242639   6.240   5.856   8.771 -1.4551 -0.7030 -1.1080
 7002TIP3   OH242640   1.464   1.961   8.125  0.4419 -0.9407  0.0242
 7002TIP3    H142641   1.483   2.018   8.199  0.1217 -1.3809  0.4549
 7002TIP3    H242642   1.536   1.976   8.063  0.5346 -0.3268  0.2743
 7003TIP3   OH242643   1.966   6.680   1.279  0.1518  0.0970  0.0103
 7003TIP3    H142644   1.997   6.719   1.360 -0.9701 -0.2103  0.5986
 7003TIP3    H242645   1.988   6.744   1.211  0.1077  0.8467  0.6981
 7004TIP3   OH242646   5.079   1.665   2.018  0.4314  0.2000 -0.0469
 7004TIP3    H142647   4.989   1.655   2.049  0.8551 -0.3120  1.0581
 7004TIP3    H242648   5.085   1.608   1.941 -0.3505  0.7146 -0.5015
 7005TIP3   OH242649   1.286   2.688   6.875 -0.1034  0.2249  0.1657
 7005TIP3    H142650   1.297   2.699   6.780  0.4809 -0.9483  0.0763
 7005TIP3    H242651   1.359   2.737   6.913 -1.5781  2.5857  0.1598
 7006TIP3   OH242652   5.469   0.303   0.719  0.1501  0.2255  0.3063
 7006TIP3    H142653   5.546   0.323   0.665  0.8052 -1.2143  0.6398
 7006TIP3    H242654   5.506   0.285   0.806 -0.6258  0.0608  0.6040
 7007TIP3   OH242655   2.968   6.358   8.265  0.4853 -0.0854  0.4624
 7007TIP3    H142656   3.053   6.397   8.245  0.4957 -0.2475  0.1895
 7007TIP3    H242657   2.907   6.432   8.269  0.3881 -0.0922 -0.6375
 7008TIP3   OH242658   0.391   2.518   7.623  0.6096  0.5279 -0.4922
 7008TIP3    H142659   0.411   2.581   7.693  2.3271  0.1756 -0.6292
 7008TIP3    H242660   0.473   2.471   7.609  0.4424  0.8455 -3.0110
 7009TIP3   OH242661   4.120   1.854   8.184 -0.2840 -0.4684 -1.0797
 7009TIP3    H142662   4.179   1.847   8.259  0.5692  0.2081 -1.6682
 7009TIP3    H242663   4.037   1.817   8.215 -0.0391  0.0656  0.2854
 7010TIP3   OH242664   6.781   4.026   8.608 -0.0697 -0.1538  0.7254
 7010TIP3    H142665   6.747   3.950   8.562  0.1819  0.6827 -0.8851
 7010TIP3    H242666   6.705   4.061   8.655  0.0117 -1.8958  2.2811
 7011TIP3   OH242667   0.581   1.898   6.628 -0.3847 -0.0582  0.0572
 7011TIP3    H142668   0.626   1.982   6.625  1.3049 -0.8545  1.0526
 7011TIP3    H242669   0.583   1.865   6.538 -2.5078  1.6196 -0.6750
 7012TIP3   OH242670   2.261   5.950   0.356 -0.1947 -0.7788 -0.0754
 7012TIP3    H142671   2.220   5.910   0.280 -0.2102  0.0140 -0.5033
 7012TIP3    H242672   2.355   5.937   0.343 -0.0849  0.7390 -1.0757
 7013TIP3   OH242673   3.673   1.241   1.538 -0.0160 -0.3838 -0.2410
 7013TIP3    H142674   3.730   1.226   1.463  0.0645 -2.9263  0.2468
 7013TIP3    H242675   3.585   1.219   1.506 -0.3574  0.8992 -0.2386
 7014TIP3   OH242676   2.276   3.343   7.622  0.4784 -0.1617 -0.0118
 7014TIP3    H142677   2.361   3.384   7.634  1.4706 -2.0001 -0.3311
 7014TIP3    H242678   2.274   3.272   7.687 -0.8521 -0.0816  0.0595
 7015TIP3   OH242679   4.154   2.779   1.118 -0.0566  1.0362  0.7555
 7015TIP3    H142680   4.088   2.808   1.182  1.8557  3.7204  1.6940
 7015TIP3    H242681   4.166   2.855   1.061 -0.6654 -0.8156 -2.0122
 7016TIP3   OH242682   3.263   3.717   1.292 -0.3329 -0.0370 -0.2405
 7016TIP3    H142683   3.236   3.647   1.232  1.2825 -0.6559 -0.3145
 7016TIP3    H242684   3.318   3.774   1.239  0.5603 -0.2193  0.4465
 7017TIP3   OH242685   6.275   0.920   1.060 -0.5057 -0.2875 -0.1862
 7017TIP3    H142686   6.302   0.997   1.009 -0.3666 -0.3819 -0.2539
 7017TIP3    H242687   6.348   0.859   1.053  0.0672  0.2076  1.2037
 7018TIP3   OH242688   5.658   2.248   8.703  0.6530  0.2156  0.0079
 7018TIP3    H142689   5.672   2.296   8.621 -2.0194  2.5757  0.7898
 7018TIP3    H242690   5.604   2.173   8.678 -1.2909  1.6508 -0.2924
 7019TIP3   OH242691   0.867   6.603   8.052  0.2591  0.4858  0.3638
 7019TIP3    H142692   0.791   6.627   8.105 -0.5892  1.8125 -1.3409
 7019TIP3    H242693   0.942   6.612   8.112 -0.9583 -2.4188  2.5520
 7020TIP3   OH242694   3.354   1.893   8.056  0.6154  0.0797  0.0771
 7020TIP3    H142695   3.389   1.952   8.122  0.5154  0.4136 -0.1618
 7020TIP3    H242696   3.426   1.833   8.036  0.5489 -0.2129  0.6996
 7021TIP3   OH242697   3.806   6.551   6.639  0.1905 -0.3785  0.0676
 7021TIP3    H142698   3.793   6.625   6.699  0.3364  0.9386 -1.4747
 7021TIP3    H242699   3.898   6.526   6.651  0.3007  0.0768  0.1796
 7022TIP3   OH242700   5.868   6.234   0.816  0.3659 -0.3464  0.0953
 7022TIP3    H142701   5.782   6.276   0.809  1.2033  2.0156  2.3080
 7022TIP3    H242702   5.900   6.230   0.726 -1.6341 -0.3354 -0.6563
 7023TIP3   OH242703   5.323   1.061   8.414 -0.0762 -1.0660  0.1528
 7023TIP3    H142704   5.392   0.999   8.436 -1.5457 -2.1775  1.9556
 7023TIP3    H242705   5.253   1.042   8.477 -2.4667 -0.7237 -2.2322
 7024TIP3   OH242706   6.497   2.525   1.384  0.4488 -0.4128  0.4513
 7024TIP3    H142707   6.498   2.517   1.289 -0.7502 -1.1316  0.4859
 7024TIP3    H242708   6.422   2.580   1.403  0.1442 -1.0128  1.0244
 7025TIP3   OH242709   0.760   5.877   8.389  0.2519 -0.0992 -0.6232
 7025TIP3    H142710   0.685   5.827   8.356  1.4172 -1.9321 -0.6070
 7025TIP3    H242711   0.727   5.967   8.395 -1.4562 -0.5565 -2.1184
 7026TIP3   OH242712   0.731   3.490   1.840  0.2203  0.1032 -0.4819
 7026TIP3    H142713   0.718   3.470   1.933  1.5840  0.7604 -0.1410
 7026TIP3    H242714   0.651   3.458   1.798 -0.0523 -0.9717  0.7961
 7027TIP3   OH242715   5.393   3.368   0.301 -0.0182 -0.2657 -0.3034
 7027TIP3    H142716   5.350   3.450   0.277  3.6201  1.7087 -0.7436
 7027TIP3    H242717   5.388   3.314   0.222 -0.8759  0.2550 -0.6174
 7028TIP3   OH242718   2.977   3.045   8.314  0.7333 -0.6118  0.1000
 7028TIP3    H142719   3.066   3.071   8.335  0.5917  0.3257 -0.3962
 7028TIP3    H242720   2.980   3.022   8.221  0.3676 -0.1182 -0.0395
 7029TIP3   OH242721   4.871   5.546   0.809  0.5534 -0.0488 -0.2174
 7029TIP3    H142722   4.875   5.565   0.903  1.4818 -0.5999 -0.1313
 7029TIP3    H242723   4.806   5.475   0.802  0.4719  0.0030  0.0069
 7030TIP3   OH242724   1.530   3.989   8.565  0.3069 -0.1749  0.3261
 7030TIP3    H142725   1.567   4.076   8.552 -2.4619  1.6847  3.3457
 7030TIP3    H242726   1.440   3.997   8.533  0.2632 -2.3082 -0.2453
 7031TIP3   OH242727   2.127   4.716   0.775  0.5131  0.7141 -0.0949
 7031TIP3    H142728   2.059   4.662   0.816 -0.4867  0.4903 -1.9230
 7031TIP3    H242729   2.203   4.708   0.833 -0.8570  0.5796  1.7475
 7032TIP3   OH242730   5.767   5.767   1.215  0.4622  0.4160  0.2022
 7032TIP3    H142731   5.769   5.843   1.274  1.7002  2.4368 -2.2402
 7032TIP3    H242732   5.823   5.792   1.141 -0.1170 -2.3896 -1.3403
 7033TIP3   OH242733   0.538   4.271   0.746  0.5425 -0.5648  0.2626
 7033TIP3    H142734   0.509   4.352   0.789 -0.3105 -1.6914  1.9099
 7033TIP3    H242735   0.585   4.301   0.668  0.0948  1.5056  0.7283
 7034TIP3   OH242736   5.987   5.592   7.485 -0.3060  0.4978 -0.0603
 7034TIP3    H142737   6.060   5.653   7.475 -0.6385  0.8138 -0.6044
 7034TIP3    H242738   6.021   5.508   7.453  0.0327  0.4842  0.3326
 7035TIP3   OH242739   2.483   6.727   1.967 -0.5000 -0.1537  0.0781
 7035TIP3    H142740   2.563   6.674   1.959 -1.8139 -2.6066  1.9359
 7035TIP3    H242741   2.491   6.768   2.053 -0.5199  0.9618 -0.4359
 7036TIP3   OH242742   4.635   6.787   2.268  0.4120  0.1769 -0.0339
 7036TIP3    H142743   4.709   6.727   2.282  0.3651 -0.1146 -0.9998
 7036TIP3    H242744   4.672   6.874   2.282  0.7709 -0.0046  0.1745
 7037TIP3   OH242745   0.777   1.705   6.644 -0.2381 -0.5880 -0.2992
 7037TIP3    H142746   0.682   1.720   6.644  0.0032  1.1923  0.9411
 7037TIP3    H242747   0.785   1.609   6.647 -2.1002 -0.7964  2.7195
 7038TIP3   OH242748   6.052   0.287   0.884  0.2333 -0.2077  0.2580
 7038TIP3    H142749   6.077   0.338   0.962  2.3611 -1.3899  0.4389
 7038TIP3    H242750   6.056   0.349   0.812  1.6735  0.1978  0.6421
 7039TIP3   OH242751   6.577   4.698   0.966 -0.4026 -0.3556 -0.4391
 7039TIP3    H142752   6.669   4.704   0.994 -0.6720  2.6465  0.1901
 7039TIP3    H242753   6.527   4.708   1.047 -1.2613  0.2743 -1.0366
 7040TIP3   OH242754   5.979   6.094   0.503 -0.2445  0.4227  0.0483
 7040TIP3    H142755   6.038   6.026   0.534  0.0432 -0.4107 -2.1561
 7040TIP3    H242756   5.894   6.051   0.496 -0.7041  1.0721  1.2607
 7041TIP3   OH242757   2.990   1.934   8.291  0.2395  0.4117 -0.5876
 7041TIP3    H142758   3.070   1.984   8.280  1.1836 -1.0542 -0.7008
 7041TIP3    H242759   3.009   1.849   8.251 -0.9135 -0.4089  0.5212
 7042TIP3   OH242760   1.751   0.684   6.325 -0.0698  0.4238 -0.2899
 7042TIP3    H142761   1.813   0.739   6.278  1.0075 -0.0724  0.5107
 7042TIP3    H242762   1.804   0.636   6.388 -1.0409 -1.1745 -0.6204
 7043TIP3   OH242763   6.686   5.007   2.553 -0.3261 -0.7489  0.4196
 7043TIP3    H142764   6.618   5.018   2.620  0.6750 -2.3682  1.7967
 7043TIP3    H242765   6.762   4.976   2.602  0.4036 -2.1409 -1.4829
 7044TIP3   OH242766   0.605   6.720   6.817 -0.0560  0.0611 -0.7076
 7044TIP3    H142767   0.521   6.674   6.810  1.0676 -2.1228 -0.5561
 7044TIP3    H242768   0.666   6.666   6.768  1.3445  1.4598 -0.5629
 7045TIP3   OH242769   3.383   5.502   8.675 -0.1633 -0.4711  0.1460
 7045TIP3    H142770   3.358   5.444   8.747  0.3240  1.2627  1.8163
 7045TIP3    H242771   3.472   5.531   8.698 -1.1199  2.4785  0.5266
 7046TIP3   OH242772   0.052   1.639   8.645 -0.2774 -0.2434 -0.6187
 7046TIP3    H142773  -0.002   1.564   8.670 -2.1832  1.2247 -0.1411
 7046TIP3    H242774  -0.010   1.708   8.623  1.4145  1.1686 -1.2388
 7047TIP3   OH242775   6.704   4.720   2.356  0.3688  0.2589  0.2360
 7047TIP3    H142776   6.619   4.764   2.356  0.5840  0.6916  0.6009
 7047TIP3    H242777   6.768   4.792   2.354  0.7253 -0.0414  0.5970
 7048TIP3   OH242778   2.828   4.509   0.411 -0.4072  0.0709 -0.3919
 7048TIP3    H142779   2.856   4.597   0.435  0.7463  0.2182 -2.1007
 7048TIP3    H242780   2.905   4.454   0.425 -0.5333 -0.3085 -1.1114
 7049TIP3   OH242781   0.517   3.919   0.478 -0.1644  0.2965 -0.2425
 7049TIP3    H142782   0.440   3.881   0.521  0.7124 -0.9996  0.2371
 7049TIP3    H242783   0.580   3.931   0.549 -0.2268  2.2346 -0.4694
 7050TIP3   OH242784   1.560   1.401   7.733  0.4096  0.1258 -0.6940
 7050TIP3    H142785   1.486   1.383   7.675  1.1027  2.5129 -2.4538
 7050TIP3    H242786   1.625   1.335   7.708 -0.5335 -1.0846 -0.1143
 7051TIP3   OH242787   1.955   6.446   0.525  0.3519  0.0270  0.5960
 7051TIP3    H142788   2.046   6.469   0.505  0.2837 -0.0179  0.2419
 7051TIP3    H242789   1.903   6.507   0.473  0.1715  1.3280  2.2182
 7052TIP3   OH242790   6.565   1.492   1.910 -0.0129  0.0840  0.1737
 7052TIP3    H142791   6.660   1.504   1.903  0.1438  0.2164  2.0055
 7052TIP3    H242792   6.549   1.482   2.004 -1.8355  0.1586 -0.0900
 7053TIP3   OH242793   0.835   2.356   8.520  0.4926  0.0262  0.3516
 7053TIP3    H142794   0.810   2.419   8.587 -0.5244 -0.4406  0.4155
 7053TIP3    H242795   0.755   2.309   8.500  1.3564 -1.6673  0.7399
 7054TIP3   OH242796   4.386   4.346   7.985  0.5231 -0.7052  0.3739
 7054TIP3    H142797   4.438   4.266   7.980  0.7719 -0.6664  1.8781
 7054TIP3    H242798   4.299   4.321   7.955  1.3281 -0.7877 -2.1478
 7055TIP3   OH242799   3.526   6.670   7.944 -0.2241 -0.2600 -0.2895
 7055TIP3    H142800   3.501   6.588   7.986 -1.3266  0.4498  0.4943
 7055TIP3    H242801   3.572   6.643   7.864 -1.1942 -1.6390 -0.4169
 7056TIP3   OH242802   1.349   6.648   8.050  0.2369  0.3546 -0.4704
 7056TIP3    H142803   1.327   6.708   8.121 -0.7559  0.4099 -0.8036
 7056TIP3    H242804   1.264   6.622   8.013  0.6778 -0.6827 -0.8049
 7057TIP3   OH242805   1.464   2.711   1.881  0.0525  0.7138  0.5637
 7057TIP3    H142806   1.512   2.788   1.912  0.3274  0.5774  0.4776
 7057TIP3    H242807   1.507   2.686   1.800  1.2989 -0.7667  1.6354
 7058TIP3   OH242808   2.368   3.454   8.268 -0.4482 -0.2959 -0.3607
 7058TIP3    H142809   2.333   3.389   8.328  0.3540 -1.0943 -0.7385
 7058TIP3    H242810   2.463   3.441   8.270 -0.2065  1.3110  0.0644
 7059TIP3   OH242811   3.021   0.665   0.014  0.6886 -0.3960  0.1081
 7059TIP3    H142812   3.115   0.671   0.031  0.7344 -1.6063  0.3791
 7059TIP3    H242813   2.990   0.596   0.073 -0.8379  1.6284  1.8188
 7060TIP3   OH242814   3.407   5.447   8.402  0.3726 -0.0017  0.2572
 7060TIP3    H142815   3.328   5.416   8.357  0.8921  0.2470 -0.8617
 7060TIP3    H242816   3.382   5.453   8.494 -0.2432 -2.1132  0.2658
 7061TIP3   OH242817   5.986   5.418   2.798  0.7160  0.2840  0.2773
 7061TIP3    H142818   6.033   5.434   2.717 -2.2948  0.2834 -1.6334
 7061TIP3    H242819   5.998   5.324   2.815  0.7303  0.1053 -0.6614
 7062TIP3   OH242820   0.070   5.109   8.008 -0.3940 -0.3520  0.2406
 7062TIP3    H142821  -0.004   5.170   8.004 -1.0274 -1.0752  0.6203
 7062TIP3    H242822   0.113   5.118   7.923  0.4192  1.6983  0.8033
 7063TIP3   OH242823   3.703   6.636   7.729 -0.5854 -0.2972 -0.0300
 7063TIP3    H142824   3.706   6.712   7.671  1.0171  0.7857  1.3758
 7063TIP3    H242825   3.794   6.607   7.734 -0.5222  0.1372  2.5178
 7064TIP3   OH242826   6.670   2.780   7.455  0.2307  0.0084  0.2516
 7064TIP3    H142827   6.719   2.711   7.409  1.5479 -0.3974  2.1313
 7064TIP3    H242828   6.688   2.860   7.406  2.5387 -0.2076  0.6331
 7065TIP3   OH242829   6.561   4.423   6.298  0.0580 -0.4079 -0.6929
 7065TIP3    H142830   6.499   4.354   6.275 -0.4559 -0.2656  0.2347
 7065TIP3    H242831   6.631   4.414   6.233 -1.0917 -0.3290 -1.9897
 7066TIP3   OH242832   4.035   5.536   2.396 -0.2376 -0.0568 -0.4583
 7066TIP3    H142833   3.977   5.460   2.398  1.7452 -1.7756 -2.3683
 7066TIP3    H242834   3.981   5.607   2.363 -1.9456 -0.8393  0.5725
 7067TIP3   OH242835   6.342   2.459   7.690 -0.3337 -0.6951  0.5894
 7067TIP3    H142836   6.411   2.521   7.667 -1.1524 -0.8050 -2.5543
 7067TIP3    H242837   6.268   2.515   7.716  0.3022 -0.5390  2.1727
 7068TIP3   OH242838   1.658   5.979   1.184 -0.1999 -0.2836 -0.0878
 7068TIP3    H142839   1.678   5.967   1.277  0.3475  1.5003  0.0499
 7068TIP3    H242840   1.675   6.071   1.167 -1.8510 -0.2045 -1.5992
 7069TIP3   OH242841   3.906   4.044   7.303 -0.3450 -0.3900  0.1635
 7069TIP3    H142842   3.819   4.049   7.264 -0.0675 -0.9042 -0.5437
 7069TIP3    H242843   3.965   4.081   7.237 -0.0509  0.1570  0.7258
 7070TIP3   OH242844   6.802   2.615   0.969 -0.0841  0.6747 -0.0381
 7070TIP3    H142845   6.757   2.660   1.040 -0.4230 -1.0154  0.8630
 7070TIP3    H242846   6.734   2.562   0.927  0.2207  1.2525 -1.3107
 7071TIP3   OH242847   3.265   5.162   0.262  0.0470 -0.0640  0.3117
 7071TIP3    H142848   3.340   5.126   0.309  1.0800  0.4502 -0.8814
 7071TIP3    H242849   3.201   5.091   0.261  0.4520 -0.4658  1.4759
 7072TIP3   OH242850   5.546   4.336   8.632  0.3475  0.0753  0.2893
 7072TIP3    H142851   5.610   4.406   8.642 -0.7888  0.9970  1.4790
 7072TIP3    H242852   5.504   4.330   8.718 -0.5321 -1.1200 -0.2035
 7073TIP3   OH242853   3.040   1.384   7.299 -0.3992 -0.0182  0.8491
 7073TIP3    H142854   3.085   1.459   7.339 -0.6414  0.9916 -0.7079
 7073TIP3    H242855   3.105   1.314   7.303  1.3650  1.3494 -1.1564
 7074TIP3   OH242856   5.272   6.220   1.134 -0.5964  0.1980 -0.1158
 7074TIP3    H142857   5.239   6.172   1.057 -1.8101  1.1860 -0.2520
 7074TIP3    H242858   5.253   6.162   1.208 -3.1806  0.8904 -0.1322
 7075TIP3   OH242859   2.911   0.003   8.137 -0.3110  0.3861  0.0997
 7075TIP3    H142860   2.856  -0.014   8.061 -1.3128  0.1302  0.8707
 7075TIP3    H242861   2.980   0.061   8.103 -1.0137  0.6725 -0.8893
 7076TIP3   OH242862   2.163   6.127   0.108  0.0783  0.1311 -0.2419
 7076TIP3    H142863   2.081   6.173   0.090 -0.1665 -0.1925  0.0318
 7076TIP3    H242864   2.164   6.115   0.203 -0.2966 -1.1851 -0.3689
 7077TIP3   OH242865   2.767   4.124   0.211  0.5411  0.2147  0.5317
 7077TIP3    H142866   2.700   4.088   0.153  0.8168  1.5196 -0.6542
 7077TIP3    H242867   2.720   4.149   0.291 -0.2074  0.2423  0.0850
 7078TIP3   OH242868   0.854   3.889   8.024  0.0786  0.0617 -0.7128
 7078TIP3    H142869   0.918   3.867   8.091  0.5139  1.5819 -0.5971
 7078TIP3    H242870   0.787   3.821   8.032  0.9468 -0.7273  0.1289
 7079TIP3   OH242871   1.840   3.890   0.638 -0.9878  0.0399 -0.1542
 7079TIP3    H142872   1.848   3.978   0.676 -1.7854 -0.4294  1.1706
 7079TIP3    H242873   1.748   3.883   0.612 -0.7934 -0.2001 -0.7957
 7080TIP3   OH242874   6.665   4.001   8.100 -0.0514 -0.1070  0.7452
 7080TIP3    H142875   6.658   4.066   8.170 -0.5470 -1.0713  1.6107
 7080TIP3    H242876   6.667   3.917   8.145  1.1294 -0.6853 -0.3382
 7081TIP3   OH242877   4.167   3.641   7.455  0.0376  0.1099  0.1029
 7081TIP3    H142878   4.109   3.716   7.466  1.5830  1.9371 -2.7840
 7081TIP3    H242879   4.253   3.680   7.437  1.7643 -2.4393  2.0855
 7082TIP3   OH242880   1.223   2.324   8.528 -0.0212 -0.5095 -0.1915
 7082TIP3    H142881   1.302   2.284   8.564  0.0511 -1.8192 -1.6943
 7082TIP3    H242882   1.234   2.418   8.545  1.1990 -0.8043  0.8182
 7083TIP3   OH242883   1.189   5.603   1.661 -0.6208 -0.1193  0.6841
 7083TIP3    H142884   1.096   5.581   1.656 -0.1440 -1.9951 -0.8793
 7083TIP3    H242885   1.204   5.661   1.586 -0.9267  2.1832  2.2623
 7084TIP3   OH242886   5.419   0.861   1.059  0.1661  0.2375 -0.4831
 7084TIP3    H142887   5.379   0.828   0.978 -0.3707  0.6363 -0.3850
 7084TIP3    H242888   5.497   0.806   1.071  0.4312  0.3763 -1.4406
 7085TIP3   OH242889   1.683   4.185   0.992 -0.0590  0.6872  0.1220
 7085TIP3    H142890   1.597   4.222   1.014  0.3140  1.1656  0.8209
 7085TIP3    H242891   1.735   4.198   1.072  0.6304  0.3130 -0.2650
 7086TIP3   OH242892   0.548   1.329   8.534  0.0279 -0.2982  0.4036
 7086TIP3    H142893   0.511   1.248   8.498  1.3322 -0.3820 -0.8435
 7086TIP3    H242894   0.642   1.320   8.521  0.1433  1.7982 -0.5430
 7087TIP3   OH242895   3.035   0.952   6.605 -0.0561 -0.1333  0.2543
 7087TIP3    H142896   3.007   0.939   6.695  0.9924 -0.9112  0.4873
 7087TIP3    H242897   2.973   1.015   6.569 -0.8444 -0.2730  1.3375
 7088TIP3   OH242898   4.616   3.710   7.555  0.2693  0.5233 -0.4736
 7088TIP3    H142899   4.541   3.721   7.614  0.5788  1.0261 -0.1634
 7088TIP3    H242900   4.577   3.698   7.469 -0.2035 -0.6336 -0.1184
 7089TIP3   OH242901   5.155   4.098   8.507  0.3914 -0.1395 -0.0915
 7089TIP3    H142902   5.065   4.099   8.476  0.4791 -1.4077 -0.4595
 7089TIP3    H242903   5.153   4.143   8.591 -0.7331 -0.7938  0.2477
 7090TIP3   OH242904   3.632   6.515   8.676  0.1579 -0.6969  0.5372
 7090TIP3    H142905   3.705   6.454   8.666  0.0240 -0.9271  0.9387
 7090TIP3    H242906   3.561   6.462   8.712  0.0124 -0.3260  0.8046
 7091TIP3   OH242907   0.826   1.232   0.616 -0.5441 -0.0051  0.0882
 7091TIP3    H142908   0.880   1.160   0.584 -2.5153 -2.2619  1.5270
 7091TIP3    H242909   0.746   1.228   0.564 -0.9178  0.7915  0.5752
 7092TIP3   OH242910   6.238   3.033   8.387 -0.3918  0.0873 -0.7742
 7092TIP3    H142911   6.318   3.082   8.370  0.0731 -0.5069 -0.3292
 7092TIP3    H242912   6.211   3.060   8.475 -0.5319  0.0855 -0.8157
 7093TIP3   OH242913   5.970   1.695   0.348  0.0111  0.0284  0.1044
 7093TIP3    H142914   5.949   1.612   0.390 -1.1023  0.3575  0.2480
 7093TIP3    H242915   5.972   1.675   0.254  0.0583 -0.2193  0.1573
 7094TIP3   OH242916   2.711   4.899   0.231  0.4934 -0.5164 -0.1669
 7094TIP3    H142917   2.767   4.837   0.185  1.0217  0.0869 -0.3504
 7094TIP3    H242918   2.635   4.911   0.174  0.7580 -0.3987 -0.4953
 7095TIP3   OH242919   5.875   5.859   2.658  0.2968 -0.1751 -0.4327
 7095TIP3    H142920   5.863   5.933   2.599 -2.2515 -0.9368 -0.9922
 7095TIP3    H242921   5.938   5.802   2.613 -1.0779 -0.4152 -2.1269
 7096TIP3   OH242922   6.036   3.377   8.385 -0.2897 -0.0856 -0.6263
 7096TIP3    H142923   5.971   3.326   8.434  1.2977 -2.4033 -0.7673
 7096TIP3    H242924   6.031   3.342   8.296 -1.2022  2.1459 -1.5084
 7097TIP3   OH242925   4.862   4.158   0.357 -0.1423 -0.6156 -0.4237
 7097TIP3    H142926   4.885   4.122   0.442 -0.2812  0.7590  0.2143
 7097TIP3    H242927   4.787   4.215   0.374 -0.5167 -0.7383 -1.5606
 7098TIP3   OH242928   2.522   2.443   7.009  0.2018 -0.3761  0.2064
 7098TIP3    H142929   2.510   2.535   6.984 -0.6128 -0.6941 -0.6163
 7098TIP3    H242930   2.520   2.445   7.105 -2.8865  0.1549  0.2380
 7099TIP3   OH242931   2.621   0.431   0.043 -0.0908 -0.6593  0.1302
 7099TIP3    H142932   2.638   0.354   0.098  2.2225 -0.1342  0.2452
 7099TIP3    H242933   2.559   0.483   0.094 -0.1480 -1.5058  0.9521
 7100TIP3   OH242934   5.245   2.304   2.712  0.5027  0.2273  0.5443
 7100TIP3    H142935   5.297   2.367   2.762 -0.5840  1.1363  0.5525
 7100TIP3    H242936   5.311   2.247   2.671  1.6238  2.3413 -0.7874
 7101TIP3   OH242937   2.393   1.790   1.648  0.6995  0.0611 -0.6448
 7101TIP3    H142938   2.316   1.847   1.642 -0.8160 -1.7606  0.4821
 7101TIP3    H242939   2.400   1.751   1.561  0.4714  0.3801 -0.8101
 7102TIP3   OH242940   1.978   3.360   1.905 -0.4789 -0.0575 -0.5665
 7102TIP3    H142941   2.048   3.317   1.857  0.3040  0.6409 -0.0956
 7102TIP3    H242942   2.014   3.446   1.928 -0.9323 -0.2314  0.9516
 7103TIP3   OH242943   3.894   2.981   0.372 -0.1066 -1.1397  0.5525
 7103TIP3    H142944   3.808   2.972   0.332 -0.6443 -1.6398  1.7773
 7103TIP3    H242945   3.933   2.893   0.366 -0.4172 -1.3587  1.6004
 7104TIP3   OH242946   1.513   2.416   7.409  0.0683 -0.0321  0.2668
 7104TIP3    H142947   1.438   2.369   7.443  0.2643 -0.3379  0.2768
 7104TIP3    H242948   1.551   2.357   7.343 -1.1327  1.1066 -1.5309
 7105TIP3   OH242949   4.465   1.706   0.147 -0.0431 -0.5381  0.4919
 7105TIP3    H142950   4.546   1.705   0.096  0.7750  0.1407  1.7199
 7105TIP3    H242951   4.486   1.759   0.224 -1.2382 -1.5024  1.5263
 7106TIP3   OH242952   2.256   5.235   8.112  0.3503  0.0855  0.1497
 7106TIP3    H142953   2.168   5.258   8.143  0.6017 -0.5306  1.3746
 7106TIP3    H242954   2.315   5.262   8.183  0.9698 -1.0871  0.1061
 7107TIP3   OH242955   5.495   3.710   0.024 -0.1410 -0.1516  0.2693
 7107TIP3    H142956   5.546   3.633   0.050 -1.8509 -1.2738  0.4674
 7107TIP3    H242957   5.533   3.782   0.075  1.7637 -0.7379 -0.2194
 7108TIP3   OH242958   1.802   2.046   1.290  0.4279 -0.4790 -0.4253
 7108TIP3    H142959   1.852   1.965   1.289 -0.0387 -0.7765  0.1048
 7108TIP3    H242960   1.711   2.019   1.299  0.0980  0.0331 -1.9060
 7109TIP3   OH242961   3.318   4.330   7.865 -0.6802  0.2666 -0.1813
 7109TIP3    H142962   3.329   4.240   7.896  3.1371  0.3473 -0.7039
 7109TIP3    H242963   3.302   4.382   7.944  0.1991 -0.5574  0.5624
 7110TIP3   OH242964   0.504   5.759   0.950 -0.1198  0.2143 -0.3667
 7110TIP3    H142965   0.567   5.815   0.996  2.5009 -2.7399  0.0994
 7110TIP3    H242966   0.529   5.765   0.858  0.2196 -0.1678 -0.3064
 7111TIP3   OH242967   2.827   2.305   1.242  0.3683  0.2269 -0.4362
 7111TIP3    H142968   2.818   2.230   1.184  1.0396 -0.4345  0.2953
 7111TIP3    H242969   2.915   2.298   1.278 -0.0317  0.5954  0.6774
 7112TIP3   OH242970   5.775   3.178   7.267 -0.2055  0.0348  0.0876
 7112TIP3    H142971   5.679   3.171   7.265 -0.1636 -0.5211 -0.6548
 7112TIP3    H242972   5.802   3.160   7.177  0.4670  2.7607 -0.3398
 7113TIP3   OH242973   4.220   0.487   8.459 -0.0118 -0.0382 -0.4899
 7113TIP3    H142974   4.295   0.436   8.490 -0.5632  0.2637  1.4611
 7113TIP3    H242975   4.149   0.423   8.453 -0.5318  0.3075  1.3220
 7114TIP3   OH242976   0.626   4.293   2.065 -0.4329 -0.0919 -0.3104
 7114TIP3    H142977   0.588   4.241   2.135 -0.1194 -0.9564 -0.7703
 7114TIP3    H242978   0.553   4.346   2.032 -0.5536  0.4048  0.7309
 7115TIP3   OH242979   0.410   3.798   1.605 -0.0585 -0.5163 -0.1016
 7115TIP3    H142980   0.431   3.710   1.574 -0.4364 -0.3429 -0.8599
 7115TIP3    H242981   0.430   3.855   1.531  2.1804  0.3106  1.0327
 7116TIP3   OH242982   2.673   4.288   1.097 -0.3932  0.4208  0.1450
 7116TIP3    H142983   2.669   4.375   1.057 -1.0142  1.1729  1.7699
 7116TIP3    H242984   2.622   4.232   1.037  1.7342  0.6454 -2.0289
 7117TIP3   OH242985   6.392   1.647   0.963  0.3610  0.0384  0.3710
 7117TIP3    H142986   6.343   1.696   1.029  0.2121  0.6900 -0.2121
 7117TIP3    H242987   6.363   1.684   0.879  0.0080 -1.2658 -0.0986
 7118TIP3   OH242988   1.334   2.311   1.251 -0.0483  0.2716  0.1586
 7118TIP3    H142989   1.344   2.321   1.156  0.3807  0.4652  0.2199
 7118TIP3    H242990   1.382   2.386   1.288 -1.2200  0.8730  0.4920
 7119TIP3   OH242991   0.240   4.228   1.994  0.0647  0.4721 -0.3196
 7119TIP3    H142992   0.313   4.289   1.986 -0.0231  0.6348  0.0961
 7119TIP3    H242993   0.164   4.284   2.010  0.2069  0.1868  1.4791
 7120TIP3   OH242994   2.035   1.605   6.760  0.4649 -0.3207  0.3473
 7120TIP3    H142995   2.027   1.699   6.776 -0.7845 -0.3757  0.1226
 7120TIP3    H242996   1.969   1.585   6.694  1.5053 -1.1637 -0.4864
 7121TIP3   OH242997   5.745   5.021   8.384 -0.1882 -0.2427 -0.6054
 7121TIP3    H142998   5.693   4.978   8.451 -1.1304  2.5463  0.6228
 7121TIP3    H242999   5.796   5.086   8.432  0.1390  0.9245 -2.4327
 7122TIP3   OH243000   5.627   5.171   0.410  0.0426  0.0813 -0.4248
 7122TIP3    H143001   5.720   5.148   0.407 -0.2852 -1.5128  0.4163
 7122TIP3    H243002   5.599   5.173   0.318  0.5697 -1.0073 -0.6261
 7123TIP3   OH243003   5.049   5.851   8.292  0.1710  0.5318  0.2128
 7123TIP3    H143004   5.087   5.929   8.253 -1.2959  1.6320  0.8695
 7123TIP3    H243005   4.957   5.853   8.265  0.2981 -1.4829 -0.5154
 7124TIP3   OH243006   3.514   5.400   6.700  0.1883 -0.1501  0.5422
 7124TIP3    H143007   3.435   5.347   6.695  0.8337 -1.0361 -2.7289
 7124TIP3    H243008   3.579   5.342   6.740  0.7678 -1.8999 -2.6020
 7125TIP3   OH243009   3.746   1.807   0.388 -0.6181  0.1973 -0.3146
 7125TIP3    H143010   3.812   1.847   0.331 -0.8133  0.4849 -0.3399
 7125TIP3    H243011   3.790   1.799   0.473 -0.8109  1.1186 -0.1250
 7126TIP3   OH243012   2.556   0.694   1.608  0.1035  0.4832 -0.3893
 7126TIP3    H143013   2.581   0.747   1.683  0.1685 -0.1653  0.0555
 7126TIP3    H243014   2.604   0.733   1.534  1.4882  0.0233  0.2262
 7127TIP3   OH243015   0.745   4.464   2.584  0.3154  0.8902  0.1058
 7127TIP3    H143016   0.680   4.532   2.571  0.5604  0.8904 -1.1871
 7127TIP3    H243017   0.804   4.471   2.509  1.5228  0.5629  0.9816
 7128TIP3   OH243018   5.401   4.801   0.557  0.9301 -0.5933 -0.2337
 7128TIP3    H143019   5.344   4.877   0.546  0.8853 -0.7980 -1.7241
 7128TIP3    H243020   5.341   4.726   0.550  1.2589 -0.7936 -1.0164
 7129TIP3   OH243021   0.658   1.714   6.974  0.1608 -0.1831 -0.3522
 7129TIP3    H143022   0.752   1.717   6.994  0.4589  1.7631 -1.8165
 7129TIP3    H243023   0.619   1.776   7.035  0.1354  0.6188 -1.1742
 7130TIP3   OH243024   2.920   1.855   0.385  0.3316 -0.5621  0.1171
 7130TIP3    H143025   3.011   1.831   0.368  0.1220 -1.4445  0.1903
 7130TIP3    H243026   2.874   1.772   0.390 -0.6173 -0.1098 -0.6482
 7131TIP3   OH243027   1.543   0.220   0.542 -0.3217  0.2113 -0.3809
 7131TIP3    H143028   1.589   0.225   0.458 -1.2362 -0.6492 -0.9649
 7131TIP3    H243029   1.455   0.252   0.523 -0.2694  0.8878  0.4769
 7132TIP3   OH243030   6.011   4.201   1.502  0.3045  0.1686  0.2698
 7132TIP3    H143031   6.092   4.249   1.516 -1.0827  2.1302  2.2050
 7132TIP3    H243032   6.003   4.195   1.407  1.0275  3.0192 -0.0642
 7133TIP3   OH243033   4.604   4.362   1.940 -0.1228 -0.1277  0.0000
 7133TIP3    H143034   4.642   4.411   2.013 -0.5354  0.9707 -0.4926
 7133TIP3    H243035   4.529   4.317   1.979 -0.0299  0.0209  0.3634
 7134TIP3   OH243036   0.768   5.410   2.298 -0.1174 -0.5741  0.0816
 7134TIP3    H143037   0.683   5.375   2.324  0.6520 -1.1777  2.0152
 7134TIP3    H243038   0.753   5.450   2.212 -3.0099  1.7890  1.4966
 7135TIP3   OH243039   2.820   4.491   0.096 -0.4039  0.7058 -0.3910
 7135TIP3    H143040   2.868   4.413   0.070 -0.6459  0.8460 -1.3066
 7135TIP3    H243041   2.790   4.473   0.185  1.0611  0.4957  0.0769
 7136TIP3   OH243042   1.569   3.520   0.000  0.2024 -0.2683  0.1715
 7136TIP3    H143043   1.572   3.498   0.093 -2.4873 -1.2316  0.1098
 7136TIP3    H243044   1.524   3.446  -0.041  0.4155  0.5904 -1.7428
 7137TIP3   OH243045   3.800   5.888   1.159 -0.1653  0.5279 -0.3120
 7137TIP3    H143046   3.894   5.894   1.142 -0.2508  2.7033 -0.2822
 7137TIP3    H243047   3.763   5.861   1.075  0.5956 -2.1057  0.1337
 7138TIP3   OH243048   5.682   2.631   0.724  0.2850 -0.1403  0.4305
 7138TIP3    H143049   5.696   2.580   0.803  0.1410  3.3717  2.9857
 7138TIP3    H243050   5.745   2.703   0.731 -2.0934  2.2369 -0.7710
 7139TIP3   OH243051   1.837   0.322   1.684 -0.1015 -0.3468 -0.3065
 7139TIP3    H143052   1.857   0.383   1.754  1.4842  2.0168 -2.6224
 7139TIP3    H243053   1.922   0.285   1.659 -0.8578 -2.5078  0.1043
 7140TIP3   OH243054   3.959   0.797   0.524  0.1149 -0.6652  0.0363
 7140TIP3    H143055   4.019   0.726   0.502  0.8492  0.2738 -1.1536
 7140TIP3    H243056   3.994   0.834   0.605  1.5850  0.2710 -0.9661
 7141TIP3   OH243057   4.295   1.557   1.190  0.0202  0.5144 -0.1439
 7141TIP3    H143058   4.282   1.609   1.111 -0.5777  0.7527  0.1090
 7141TIP3    H243059   4.265   1.469   1.165 -2.8272  1.1604  0.5926
 7142TIP3   OH243060   1.192   4.632   7.682  0.7065  0.2241  0.4123
 7142TIP3    H143061   1.227   4.596   7.600  0.0559  0.3395  0.0797
 7142TIP3    H243062   1.209   4.565   7.747  1.1899  0.1119  0.1754
 7143TIP3   OH243063   0.605   1.645   7.421 -0.1931  0.0461 -0.3239
 7143TIP3    H143064   0.606   1.559   7.379 -2.2394 -0.0022 -0.4060
 7143TIP3    H243065   0.659   1.701   7.366  0.1561 -0.9055 -0.9506
 7144TIP3   OH243066   0.143   2.635   1.550 -0.4602  1.0888 -0.6812
 7144TIP3    H143067   0.224   2.586   1.567  0.4210  3.2507  1.9180
 7144TIP3    H243068   0.073   2.571   1.564  0.6941 -0.2778 -0.8685
 7145TIP3   OH243069   6.626   5.674   7.620  0.6379 -0.4329 -0.4450
 7145TIP3    H143070   6.607   5.710   7.706  0.7458 -0.5214 -0.3849
 7145TIP3    H243071   6.722   5.673   7.615  1.0164 -5.6063  1.6657
 7146TIP3   OH243072   2.863   5.315   2.274  0.0221  0.0256  0.1219
 7146TIP3    H143073   2.958   5.304   2.271 -0.1235 -1.7438  0.8308
 7146TIP3    H243074   2.832   5.242   2.327 -1.8357 -0.0613 -0.9912
 7147TIP3   OH243075   6.137   3.159   7.072  0.7968 -0.3577  0.4129
 7147TIP3    H143076   6.204   3.220   7.041  0.2740 -0.3955 -0.8592
 7147TIP3    H243077   6.060   3.177   7.018 -0.1306 -0.5512  1.6049
 7148TIP3   OH243078   2.804   0.283   7.928  0.0487  0.1745 -0.2210
 7148TIP3    H143079   2.890   0.241   7.927 -0.5046 -1.0103 -0.9010
 7148TIP3    H243080   2.808   0.345   8.001  1.0853 -0.7004  0.5039
 7149TIP3   OH243081   4.659   2.099   8.699  0.1858 -0.1629  0.1885
 7149TIP3    H143082   4.627   2.183   8.732  0.2194 -0.1366  0.1538
 7149TIP3    H243083   4.749   2.117   8.671  0.4299 -0.3695  0.8166
 7150TIP3   OH243084   3.631   1.604   1.009 -0.0623  0.1116 -0.2100
 7150TIP3    H143085   3.620   1.616   1.103 -1.9734 -0.0881 -0.3815
 7150TIP3    H243086   3.635   1.509   0.996 -0.9931  0.0974 -0.4366
 7151TIP3   OH243087   1.240   6.432   1.410  0.0657  0.0009 -0.1199
 7151TIP3    H143088   1.173   6.438   1.341 -0.1140 -0.5361  0.0104
 7151TIP3    H243089   1.312   6.384   1.369 -0.3840 -1.0781  0.3295
 7152TIP3   OH243090   3.191   1.518   7.870 -0.0622  0.0010  0.2797
 7152TIP3    H143091   3.229   1.526   7.958  0.3524 -0.4801  0.1538
 7152TIP3    H243092   3.110   1.469   7.884  0.4151 -0.8095  0.3065
 7153TIP3   OH243093   2.530   2.692   6.933  0.0257 -0.5368 -0.1423
 7153TIP3    H143094   2.594   2.656   6.872  1.1194 -0.2188  0.7870
 7153TIP3    H243095   2.488   2.763   6.885  0.6701 -0.4688 -0.6251
 7154TIP3   OH243096   3.284   5.270   1.692  0.3347 -0.4049 -0.5936
 7154TIP3    H143097   3.365   5.291   1.646  0.2858  1.3109  0.0155
 7154TIP3    H243098   3.302   5.187   1.735  1.7279 -0.1357 -0.6063
 7155TIP3   OH243099   1.526   6.828   7.880 -0.1538  0.0534  0.2214
 7155TIP3    H143100   1.586   6.757   7.858 -0.0389 -0.3699  1.7938
 7155TIP3    H243101   1.526   6.883   7.802  0.0065 -1.4782 -0.9181
 7156TIP3   OH243102   0.126   0.532   1.017 -0.0268 -0.2292  0.0448
 7156TIP3    H143103   0.091   0.444   1.028  0.5520 -0.8260 -2.2672
 7156TIP3    H243104   0.216   0.518   0.988  0.5466  1.1822  1.0212
 7157TIP3   OH243105   6.179   6.347   1.807  0.2244 -0.2802 -0.0432
 7157TIP3    H143106   6.182   6.429   1.856  4.1591  0.3900 -1.0568
 7157TIP3    H243107   6.218   6.368   1.722  1.2358 -3.1394 -0.4073
 7158TIP3   OH243108   0.929   1.013   0.507 -0.0473  0.5521 -0.3173
 7158TIP3    H143109   0.994   1.039   0.442  0.9897 -0.3641  0.2944
 7158TIP3    H243110   0.913   0.920   0.489 -0.1526  0.4297  0.3721
 7159TIP3   OH243111   1.345   6.403   8.210  0.1810 -0.5077 -0.6520
 7159TIP3    H143112   1.375   6.341   8.277  0.1875 -1.1618 -1.2582
 7159TIP3    H243113   1.379   6.488   8.240  0.5354 -0.8590 -0.0371
 7160TIP3   OH243114   3.087   5.352   6.990 -0.2382 -0.0685 -0.1131
 7160TIP3    H143115   3.077   5.398   7.074 -2.0623  1.1141 -0.9007
 7160TIP3    H243116   3.074   5.421   6.924 -0.6069 -1.2774 -1.3443
 7161TIP3   OH243117   3.515   4.418   8.355 -0.0568  0.0986 -0.1691
 7161TIP3    H143118   3.482   4.498   8.315  0.5580  0.1413 -0.6153
 7161TIP3    H243119   3.603   4.441   8.386 -0.2894 -0.1096  0.6642
 7162TIP3   OH243120   4.889   3.648   7.233 -0.0278  0.2713 -0.2068
 7162TIP3    H143121   4.896   3.613   7.322  0.0883  0.4373 -0.1518
 7162TIP3    H243122   4.800   3.683   7.228  0.1373  0.7293  0.0116
 7163TIP3   OH243123   2.813   0.378   7.278  0.7201  0.1943 -0.0527
 7163TIP3    H143124   2.822   0.319   7.203  0.5055 -1.1477  0.9240
 7163TIP3    H243125   2.898   0.377   7.321  0.2116 -0.9641  1.0250
 7164TIP3   OH243126   3.935   6.349   7.461  0.5745 -0.6003 -0.1992
 7164TIP3    H143127   3.987   6.315   7.388  1.6064 -1.8886  1.0888
 7164TIP3    H243128   3.956   6.292   7.535 -3.8501 -2.2846  0.1052
 7165TIP3   OH243129   4.124   3.055   2.204  0.7742  0.0335  0.0512
 7165TIP3    H143130   4.159   3.137   2.169 -0.9887  0.9500  0.2916
 7165TIP3    H243131   4.171   3.042   2.286  1.4835  0.4822 -0.2724
 7166TIP3   OH243132   6.663   6.826   7.488 -0.6165  0.6370 -0.1388
 7166TIP3    H143133   6.729   6.871   7.542 -0.6318 -0.3816  0.7662
 7166TIP3    H243134   6.679   6.733   7.503 -0.4098  0.3002 -2.1898
 7167TIP3   OH243135   4.091   2.307   1.097  0.4875  0.5316  0.0091
 7167TIP3    H143136   4.082   2.274   1.186 -1.2059 -0.3523 -0.4549
 7167TIP3    H243137   4.182   2.287   1.073  1.1309  1.2540  1.6867
 7168TIP3   OH243138   6.538   1.510   8.026  0.1799 -0.4823  0.1140
 7168TIP3    H143139   6.456   1.487   7.983 -0.0879  1.0093 -0.1989
 7168TIP3    H243140   6.583   1.568   7.965  0.9585 -0.3805  0.7612
 7169TIP3   OH243141   1.032   1.391   6.759  0.6071  0.4226 -0.1424
 7169TIP3    H143142   1.100   1.448   6.724 -0.1193  1.0905 -0.5055
 7169TIP3    H243143   0.953   1.414   6.710  0.5041 -1.6586 -1.0802
 7170TIP3   OH243144   1.755   0.711   0.244  0.8209 -0.2676 -0.1358
 7170TIP3    H143145   1.664   0.685   0.254  0.7700  0.6634  2.6615
 7170TIP3    H243146   1.798   0.635   0.204 -1.0032 -0.9936 -0.8216
 7171TIP3   OH243147   4.072   5.838   1.090 -0.0093  0.4048  0.4516
 7171TIP3    H143148   4.057   5.881   1.006 -0.4171 -0.2722  0.1706
 7171TIP3    H243149   4.135   5.894   1.135 -1.2494  1.8425  0.4964
 7172TIP3   OH243150   6.015   5.877   1.665  0.5282 -0.2672 -0.8569
 7172TIP3    H143151   6.016   5.964   1.626  1.6429 -0.5471 -1.5241
 7172TIP3    H243152   6.102   5.866   1.703  0.9571 -1.6482 -2.1268
 7173TIP3   OH243153   5.688   4.221   1.591  0.1740  0.7305 -0.5403
 7173TIP3    H143154   5.604   4.232   1.547  0.5016 -0.0140 -1.3853
 7173TIP3    H243155   5.667   4.168   1.668 -0.0779  0.1841 -0.9720
 7174TIP3   OH243156   4.460   5.315   7.954 -0.7646  0.1117  0.1199
 7174TIP3    H143157   4.511   5.392   7.930 -1.9090  0.7462 -0.3397
 7174TIP3    H243158   4.468   5.310   8.049 -2.4373  2.1308  0.4523
 7175TIP3   OH243159   6.853   4.823   6.875 -0.7274 -0.1428  0.0727
 7175TIP3    H143160   6.857   4.845   6.782 -0.2311 -1.5389 -0.2521
 7175TIP3    H243161   6.941   4.793   6.898 -1.5023 -2.4921  0.2620
 7176TIP3   OH243162   3.697   5.678   0.195 -0.1652 -1.0221  0.5562
 7176TIP3    H143163   3.783   5.715   0.175 -1.0002  0.3907 -0.6466
 7176TIP3    H243164   3.681   5.704   0.286  0.8466 -1.6944  0.9507
 7177LIG     O143165   1.298   0.570   6.315  0.2809 -0.7014  0.4012
 7177LIG     O243166   1.630   0.378   6.055 -0.1610  0.1246  0.6425
 7177LIG     N143167   1.576   0.597   6.007  0.1596 -0.0666 -0.2633
 7177LIG     N243168   1.332   0.811   6.139  1.0548  0.0059 -0.2378
 7177LIG     N343169   1.451   0.467   6.163 -0.0554  0.0958 -0.0269
 7177LIG     N443170   1.495   0.821   5.991 -0.0818 -0.6866  0.1318
 7177LIG     C143171   1.394   0.691   6.143 -0.0811  0.4218  0.2517
 7177LIG     C243172   1.500   0.703   6.053  0.1479 -0.2477  0.1647
 7177LIG     C343173   1.374   0.575   6.218 -0.1380 -0.5276 -0.0199
 7177LIG     C443174   1.559   0.474   6.077  0.9529 -0.4752 -0.0375
 7177LIG     C543175   1.394   0.886   6.041  0.3337 -0.6824 -0.9290
 7177LIG     C643176   1.683   0.620   5.906  0.7699  0.4140 -0.5678
 7177LIG     C743177   1.212   0.847   6.221  0.0181 -0.4169 -0.0432
 7177LIG     C843178   1.422   0.337   6.225  0.8151 -0.2342  0.1227
 7177LIG     H143179   1.364   0.988   6.018  1.7270 -0.1265 -0.3381
 7177LIG     H243180   1.775   0.669   5.944  1.1814 -0.2756 -0.6562
 7177LIG     H343181   1.656   0.694   5.828  1.9923  1.6977  0.1702
 7177LIG     H443182   1.703   0.526   5.850 -1.3400 -0.8126  0.5699
 7177LIG     H543183   1.139   0.767   6.195 -3.6950  1.9254  2.1655
 7177LIG     H643184   1.170   0.947   6.196  0.5287 -0.3679 -0.7094
 7177LIG     H743185   1.235   0.843   6.330 -2.1548  2.2059  0.6352
 7177LIG     H843186   1.435   0.255   6.151  0.4266  0.1799 -0.4082
 7177LIG     H943187   1.322   0.319   6.270  0.8551  0.4043  0.4784
 7177LIG    H1043188   1.504   0.326   6.299  0.7677  0.3840  0.2730
   6.85398   6.85398   8.82836
