Title
43188
    1CHL1    C3    1   3.535   0.367   5.547  0.1933  0.5809 -0.0702
    1CHL1    H3    2   3.551   0.275   5.487 -2.0155  0.5032 -0.6360
    1CHL1    O3    3   3.553   0.343   5.681  0.1979  0.2927 -0.4128
    1CHL1   H3'    4   3.485   0.391   5.728  0.6476 -0.9290  1.6030
    1CHL1    C4    5   3.646   0.463   5.505 -0.0243  0.1108 -0.7314
    1CHL1   H4A    6   3.641   0.551   5.572  1.7503  0.5968 -1.1659
    1CHL1   H4B    7   3.747   0.418   5.520  0.2093  0.7008 -0.4675
    1CHL1    C5    8   3.631   0.498   5.361 -0.4373 -0.8133 -0.5200
    1CHL1    C6    9   3.735   0.493   5.276  0.4581 -0.1726 -0.3170
    1CHL1    H6   10   3.836   0.458   5.303  1.7089  3.1196 -0.3495
    1CHL1    C7   11   3.735   0.553   5.136 -0.2228 -0.2365 -0.3986
    1CHL1   H7A   12   3.827   0.611   5.116  2.7804 -3.9394  1.3943
    1CHL1   H7B   13   3.748   0.461   5.075 -0.2931  0.1103 -0.9371
    1CHL1    C8   14   3.609   0.636   5.096 -0.1303  0.4294  0.5276
    1CHL1    H8   15   3.625   0.738   5.137 -1.0383  0.8369 -0.0928
    1CHL1   C14   16   3.585   0.648   4.945 -0.2377 -0.0399  0.5067
    1CHL1   H14   17   3.556   0.547   4.911 -0.2812 -0.6176  2.2142
    1CHL1   C15   18   3.698   0.696   4.854 -0.1705 -0.4553 -0.4314
    1CHL1  H15A   19   3.737   0.793   4.890  2.7815 -1.5347 -0.4213
    1CHL1  H15B   20   3.777   0.617   4.849 -0.1881 -0.4710 -0.4642
    1CHL1   C16   21   3.621   0.715   4.724  0.4880 -0.2199 -0.1322
    1CHL1  H16A   22   3.643   0.815   4.679  1.4124 -0.3457  0.0125
    1CHL1  H16B   23   3.635   0.638   4.645 -0.5306 -0.4331 -0.1222
    1CHL1   C17   24   3.469   0.714   4.754  0.1390 -0.0006 -0.3395
    1CHL1   H17   25   3.436   0.609   4.737  0.9353 -0.2020 -0.7105
    1CHL1   C13   26   3.460   0.732   4.914 -0.4554 -0.3155 -0.2289
    1CHL1   C18   27   3.474   0.878   4.960  0.6241  0.1937 -0.1079
    1CHL1  H18A   28   3.499   0.879   5.068  2.4920 -3.7997 -0.3332
    1CHL1  H18B   29   3.562   0.915   4.902 -0.0653 -0.9636 -1.9547
    1CHL1  H18C   30   3.389   0.942   4.929  0.5176  0.3212  0.4394
    1CHL1   C12   31   3.330   0.666   4.972  0.2394  0.1018 -0.2320
    1CHL1  H12A   32   3.237   0.724   4.952  2.0685  2.6858 -1.9152
    1CHL1  H12B   33   3.314   0.567   4.924  0.1488  0.5218 -1.0763
    1CHL1   C11   34   3.343   0.643   5.118  0.2484 -0.6825 -0.5110
    1CHL1  H11A   35   3.352   0.743   5.166  3.4073 -0.9030 -0.4694
    1CHL1  H11B   36   3.253   0.599   5.166  1.4775 -1.9421  0.7433
    1CHL1    C9   37   3.480   0.576   5.157 -0.5316  0.3165 -0.5125
    1CHL1    H9   38   3.480   0.474   5.114  0.7705  0.6272 -1.3075
    1CHL1   C10   39   3.493   0.555   5.317  0.9023  0.0639 -0.4500
    1CHL1   C19   40   3.476   0.701   5.381  0.3016  0.2119  0.3830
    1CHL1  H19A   41   3.372   0.739   5.377  0.8609  1.7952 -0.1445
    1CHL1  H19B   42   3.515   0.712   5.484 -0.4415  0.1259  0.6801
    1CHL1  H19C   43   3.543   0.768   5.322 -1.1523  0.1992 -1.3417
    1CHL1    C1   44   3.378   0.462   5.373  0.2750  0.8498  0.3248
    1CHL1   H1A   45   3.275   0.489   5.344 -0.2772 -2.9774 -1.9610
    1CHL1   H1B   46   3.389   0.364   5.322 -2.2744  1.2067 -1.0597
    1CHL1    C2   47   3.393   0.429   5.517 -0.2793  0.3889 -0.5898
    1CHL1   H2A   48   3.313   0.365   5.561 -1.3588  0.8697 -1.8044
    1CHL1   H2B   49   3.380   0.520   5.580 -0.0276 -0.2377  0.3907
    1CHL1   C20   50   3.387   0.817   4.666  0.2571 -0.2562 -0.2560
    1CHL1   H20   51   3.418   0.920   4.694  1.8002 -0.7410 -0.0798
    1CHL1   C21   52   3.231   0.797   4.675 -0.3049  0.2025 -0.1716
    1CHL1  H21A   53   3.199   0.699   4.632 -0.2939  0.0432  0.1776
    1CHL1  H21B   54   3.171   0.872   4.620 -0.8947  0.0224  0.2235
    1CHL1  H21C   55   3.200   0.805   4.781 -0.1397  1.0527 -0.1839
    1CHL1   C22   56   3.427   0.803   4.513  0.4241  0.1327  0.1908
    1CHL1  H22A   57   3.376   0.889   4.466  1.4056 -0.3713 -1.9267
    1CHL1  H22B   58   3.537   0.814   4.503  0.4413  1.4049  1.4167
    1CHL1   C23   59   3.391   0.673   4.435  0.0684  0.1756 -0.7193
    1CHL1  H23A   60   3.455   0.591   4.474 -0.9425 -1.9594 -3.1967
    1CHL1  H23B   61   3.282   0.655   4.442  0.1607 -0.7357 -1.3830
    1CHL1   C24   62   3.412   0.682   4.284  0.2096 -0.2663 -0.4354
    1CHL1  H24A   63   3.337   0.750   4.238 -1.0234 -0.3215  1.3513
    1CHL1  H24B   64   3.505   0.738   4.264 -1.2527  2.8073  0.5696
    1CHL1   C25   65   3.406   0.548   4.204 -0.3937 -0.2107  0.5608
    1CHL1   H25   66   3.457   0.469   4.264  0.5757 -0.7277 -0.8776
    1CHL1   C26   67   3.263   0.499   4.179  0.2618 -0.0476  0.4601
    1CHL1  H26A   68   3.218   0.554   4.093  0.1879 -0.4855  0.2197
    1CHL1  H26B   69   3.257   0.389   4.167  1.4362 -0.0249 -0.5045
    1CHL1  H26C   70   3.201   0.542   4.261 -0.0079  3.3226 -1.2991
    1CHL1   C27   71   3.486   0.580   4.073  0.2518 -0.5178 -0.4198
    1CHL1  H27A   72   3.588   0.611   4.104 -0.3608  1.7154 -0.4179
    1CHL1  H27B   73   3.496   0.494   4.004 -1.2143 -0.1262 -1.1693
    1CHL1  H27C   74   3.440   0.663   4.016 -1.7162 -1.4076 -0.2120
    2CHL1    C3   75   4.105   5.865   5.863 -0.1373 -0.2429 -0.1332
    2CHL1    H3   76   4.161   5.775   5.894  0.3665 -0.0338 -0.4219
    2CHL1    O3   77   4.077   5.924   5.989 -0.1615 -0.0023  0.5593
    2CHL1   H3'   78   3.994   5.970   5.976  0.2778  0.5194 -0.4637
    2CHL1    C4   79   4.190   5.973   5.782 -0.1355  0.3404 -0.3126
    2CHL1   H4A   80   4.134   6.069   5.787 -2.2670 -0.8248 -0.6475
    2CHL1   H4B   81   4.287   5.978   5.837  0.0334  0.3185 -0.6056
    2CHL1    C5   82   4.228   5.946   5.635  0.7384 -0.4425 -0.7148
    2CHL1    C6   83   4.353   5.956   5.593  0.0506 -1.0108 -0.3627
    2CHL1    H6   84   4.423   5.977   5.675 -1.2894  0.7220  0.3899
    2CHL1    C7   85   4.391   5.943   5.452  0.9462  0.3004 -0.4650
    2CHL1   H7A   86   4.439   6.038   5.418 -0.5539  1.1207 -0.3993
    2CHL1   H7B   87   4.473   5.870   5.438  1.4317  1.2084 -2.7442
    2CHL1    C8   88   4.272   5.926   5.355 -0.2323 -0.5416 -0.3009
    2CHL1    H8   89   4.239   6.031   5.340 -0.2030 -0.3251  1.0470
    2CHL1   C14   90   4.313   5.878   5.215  0.6686 -0.0403 -0.1349
    2CHL1   H14   91   4.352   5.774   5.224 -0.0482 -0.3291 -0.2959
    2CHL1   C15   92   4.422   5.955   5.140  0.1319  0.1029 -0.0084
    2CHL1  H15A   93   4.399   6.063   5.125  1.8564  0.1225 -3.9575
    2CHL1  H15B   94   4.528   5.947   5.173  0.1130 -0.2281 -0.0218
    2CHL1   C16   95   4.418   5.877   5.012 -0.0683  0.5400  0.6760
    2CHL1  H16A   96   4.444   5.950   4.932  2.3313  0.0148  0.9003
    2CHL1  H16B   97   4.489   5.792   5.002  0.1877  0.6714  1.3277
    2CHL1   C17   98   4.270   5.822   4.991 -0.6102 -0.0746  0.8197
    2CHL1   H17   99   4.282   5.712   5.004  2.3645  0.0054 -0.3300
    2CHL1   C13  100   4.196   5.863   5.122 -0.7815  1.1804  0.2311
    2CHL1   C18  101   4.137   6.002   5.110  0.0095  0.6795 -0.1090
    2CHL1  H18A  102   4.101   6.051   5.203 -2.1303 -1.6410  0.3903
    2CHL1  H18B  103   4.204   6.060   5.042  2.2242 -2.4026 -0.7931
    2CHL1  H18C  104   4.046   5.996   5.046  1.6009  0.9657 -2.5668
    2CHL1   C12  105   4.104   5.763   5.178 -0.1231 -0.4485 -0.3140
    2CHL1  H12A  106   4.022   5.753   5.104  1.0968 -1.4824 -1.5795
    2CHL1  H12B  107   4.154   5.665   5.196  0.4305 -0.2816 -0.9043
    2CHL1   C11  108   4.049   5.803   5.317  0.4735  0.2102  0.6535
    2CHL1  H11A  109   3.984   5.892   5.299 -0.3296 -0.6828 -1.1606
    2CHL1  H11B  110   3.983   5.723   5.358 -0.3732  0.0803 -0.8693
    2CHL1    C9  111   4.163   5.839   5.417  0.1498 -0.0478 -0.5989
    2CHL1    H9  112   4.204   5.739   5.441  0.2576  0.5215  1.8015
    2CHL1   C10  113   4.103   5.894   5.549  0.1358  0.7830 -0.3898
    2CHL1   C19  114   4.011   6.019   5.519  0.1009 -0.9354 -0.6707
    2CHL1  H19A  115   4.069   6.077   5.443 -0.0683 -1.5604 -1.2850
    2CHL1  H19B  116   3.909   5.988   5.487 -0.9427  1.7861 -0.2464
    2CHL1  H19C  117   4.000   6.081   5.610 -1.4337  0.3996 -1.7042
    2CHL1    C1  118   4.017   5.787   5.628  0.1883 -0.0231 -0.8811
    2CHL1   H1A  119   3.917   5.773   5.583 -1.3298  0.8583  1.9655
    2CHL1   H1B  120   4.069   5.689   5.631 -2.6642 -1.6550 -1.1094
    2CHL1    C2  121   3.983   5.828   5.782  0.6245 -0.8017 -0.4964
    2CHL1   H2A  122   3.929   5.742   5.827  0.3008 -0.0737  0.5480
    2CHL1   H2B  123   3.920   5.917   5.761  1.7454 -0.5692 -3.3712
    2CHL1   C20  124   4.215   5.861   4.857  0.3492 -0.1181  0.6299
    2CHL1   H20  125   4.220   5.972   4.848 -1.1599 -0.0490  0.3165
    2CHL1   C21  126   4.070   5.813   4.838  0.5154  0.1375  0.0971
    2CHL1  H21A  127   4.010   5.839   4.927  1.1061 -0.6771  0.7487
    2CHL1  H21B  128   4.062   5.702   4.835 -1.3398  0.2533 -0.5882
    2CHL1  H21C  129   4.025   5.856   4.746  0.2319  0.8675  0.5708
    2CHL1   C22  130   4.296   5.815   4.735 -0.3157  0.2768  0.5016
    2CHL1  H22A  131   4.239   5.841   4.643  0.9467  1.1648 -0.0558
    2CHL1  H22B  132   4.390   5.872   4.723  0.9660 -2.0090 -0.9265
    2CHL1   C23  133   4.325   5.656   4.723 -0.1516 -0.7509 -0.6806
    2CHL1  H23A  134   4.389   5.618   4.805  0.4810 -1.3280 -1.4293
    2CHL1  H23B  135   4.229   5.604   4.738  0.1717 -1.0905  0.2587
    2CHL1   C24  136   4.395   5.614   4.593 -0.5808  0.2154  0.0962
    2CHL1  H24A  137   4.309   5.584   4.530 -1.1837  0.4891  0.7719
    2CHL1  H24B  138   4.460   5.699   4.563  0.8595 -0.1469  1.9851
    2CHL1   C25  139   4.482   5.489   4.590  0.3645  0.9490  0.1787
    2CHL1   H25  140   4.434   5.397   4.628  0.1801  0.3452 -1.4070
    2CHL1   C26  141   4.512   5.443   4.450  0.1580 -0.3605  0.0151
    2CHL1  H26A  142   4.556   5.517   4.380  0.0279 -1.5400 -1.3632
    2CHL1  H26B  143   4.573   5.350   4.456 -0.5679 -0.7883  1.0807
    2CHL1  H26C  144   4.424   5.417   4.387  0.9194  0.5668 -1.5025
    2CHL1   C27  145   4.607   5.505   4.683  0.4754 -0.1602 -0.1146
    2CHL1  H27A  146   4.683   5.577   4.648  1.4144 -1.6196 -1.1792
    2CHL1  H27B  147   4.573   5.523   4.787 -1.0212  0.2095 -0.6437
    2CHL1  H27C  148   4.666   5.411   4.681  1.9292  0.7187  0.3278
    3CHL1    C3  149   2.128   5.933   5.782 -0.0096  0.2579 -0.4306
    3CHL1    H3  150   2.093   5.851   5.716  0.5354 -0.8460  0.6145
    3CHL1    O3  151   2.158   5.888   5.906 -0.3272  0.0507  0.0145
    3CHL1   H3'  152   2.201   5.962   5.949 -2.9713  1.1115  1.0275
    3CHL1    C4  153   2.260   5.984   5.716 -0.4182 -0.2002  0.3357
    3CHL1   H4A  154   2.314   6.062   5.774 -0.1581  1.6057 -2.1725
    3CHL1   H4B  155   2.325   5.894   5.711 -0.4302 -0.1870 -0.1678
    3CHL1    C5  156   2.239   6.044   5.575 -0.2505 -1.1484 -1.4102
    3CHL1    C6  157   2.314   5.989   5.481  0.0883 -0.4773  0.6562
    3CHL1    H6  158   2.387   5.911   5.506 -1.1446 -2.5146 -1.6703
    3CHL1    C7  159   2.303   6.025   5.333 -0.3105 -0.1623 -0.6918
    3CHL1   H7A  160   2.397   6.039   5.276 -0.5192 -0.5155 -1.1312
    3CHL1   H7B  161   2.244   5.942   5.290  0.8279 -1.5614  0.3377
    3CHL1    C8  162   2.216   6.153   5.315  0.1352 -0.4738 -0.7400
    3CHL1    H8  163   2.278   6.243   5.338  2.1531 -1.2919 -2.6330
    3CHL1   C14  164   2.176   6.160   5.172  0.5704 -0.1242 -0.0929
    3CHL1   H14  165   2.105   6.076   5.150  1.3440 -0.2942 -2.1487
    3CHL1   C15  166   2.281   6.154   5.063  0.2650 -0.3319  0.1341
    3CHL1  H15A  167   2.366   6.220   5.089  1.6273 -0.4007 -3.6026
    3CHL1  H15B  168   2.312   6.049   5.044 -2.4792 -1.2658  0.3172
    3CHL1   C16  169   2.214   6.217   4.935  0.3625  0.0192  0.0632
    3CHL1  H16A  170   2.298   6.282   4.902 -1.0904  0.9381 -2.0540
    3CHL1  H16B  171   2.189   6.145   4.854 -2.2386  1.2753 -0.3585
    3CHL1   C17  172   2.084   6.282   4.984 -0.6475  0.0261  0.1300
    3CHL1   H17  173   2.013   6.197   4.971  0.7314 -1.3056  1.0604
    3CHL1   C13  174   2.092   6.288   5.134  0.1457  0.2403 -0.3263
    3CHL1   C18  175   2.181   6.413   5.171 -0.2892  0.2224  0.2752
    3CHL1  H18A  176   2.208   6.426   5.278  2.2019  1.4542 -0.4210
    3CHL1  H18B  177   2.277   6.421   5.115  0.3645  2.2853  1.5716
    3CHL1  H18C  178   2.118   6.501   5.145  1.5511  0.9086 -2.2380
    3CHL1   C12  179   1.958   6.288   5.220 -0.2708  0.3829 -0.7844
    3CHL1  H12A  180   1.894   6.379   5.210 -1.4151 -0.2813  0.3088
    3CHL1  H12B  181   1.908   6.196   5.183  0.2024  0.1877 -0.9413
    3CHL1   C11  182   1.990   6.277   5.369 -0.4213 -0.6817  0.0027
    3CHL1  H11A  183   2.025   6.378   5.402  1.3395 -1.1373 -0.3416
    3CHL1  H11B  184   1.899   6.253   5.427 -1.3173  0.1863 -1.0095
    3CHL1    C9  185   2.090   6.160   5.407  0.0930  0.5883  0.6655
    3CHL1    H9  186   2.040   6.065   5.376  2.9937 -0.6427 -0.6187
    3CHL1   C10  187   2.128   6.151   5.556 -0.3195  0.3671 -0.5254
    3CHL1   C19  188   2.176   6.287   5.614  0.1934  0.4227  0.2621
    3CHL1  H19A  189   2.278   6.308   5.575  0.4697 -1.8580 -0.4340
    3CHL1  H19B  190   2.120   6.375   5.576  0.9433 -0.2530 -2.7575
    3CHL1  H19C  191   2.173   6.275   5.724  0.4487  2.8705  0.5865
    3CHL1    C1  192   2.008   6.109   5.644 -0.1921  0.3053 -0.2948
    3CHL1   H1A  193   1.939   6.196   5.648 -0.9869 -0.3471  0.7473
    3CHL1   H1B  194   1.954   6.032   5.585 -0.9835  0.7521 -0.1603
    3CHL1    C2  195   2.034   6.050   5.785 -0.4600 -0.4063  0.2314
    3CHL1   H2A  196   1.934   6.021   5.824  1.2816 -2.8229  3.4476
    3CHL1   H2B  197   2.072   6.133   5.849 -0.1437  0.3504 -0.9001
    3CHL1   C20  198   2.048   6.415   4.907 -0.1198 -0.1827 -0.8131
    3CHL1   H20  199   2.119   6.497   4.933  0.2080 -1.5111  3.1797
    3CHL1   C21  200   1.908   6.463   4.950  0.3674  0.2560 -0.3895
    3CHL1  H21A  201   1.833   6.382   4.949 -0.2132  0.7826 -0.3458
    3CHL1  H21B  202   1.872   6.553   4.895  1.7837  1.2256  0.2147
    3CHL1  H21C  203   1.900   6.501   5.055 -2.1498 -3.1267  0.8485
    3CHL1   C22  204   2.058   6.391   4.755  0.5573  0.9010  0.0675
    3CHL1  H22A  205   2.028   6.490   4.716 -1.8864  1.0594  2.1272
    3CHL1  H22B  206   2.163   6.369   4.723  0.1340 -1.7747  0.2804
    3CHL1   C23  207   1.978   6.274   4.686  0.2022 -0.1843 -0.1628
    3CHL1  H23A  208   2.013   6.177   4.729  1.3141  0.8982  1.5124
    3CHL1  H23B  209   1.870   6.289   4.707 -0.1338 -1.3787 -0.9260
    3CHL1   C24  210   2.007   6.281   4.531 -0.2130  0.1474 -0.3460
    3CHL1  H24A  211   1.965   6.377   4.492  0.5530 -0.1787 -2.0578
    3CHL1  H24B  212   2.117   6.275   4.514 -0.6766 -2.3214 -3.2287
    3CHL1   C25  213   1.947   6.174   4.438 -0.5923 -0.0236  0.5684
    3CHL1   H25  214   1.959   6.195   4.330 -0.9587  1.4232  0.7787
    3CHL1   C26  215   2.003   6.036   4.464  0.0261 -0.3001 -0.4660
    3CHL1  H26A  216   2.017   6.026   4.574 -0.1092  2.0720 -0.1736
    3CHL1  H26B  217   1.935   5.956   4.428 -1.1590  0.3717  0.2344
    3CHL1  H26C  218   2.101   6.031   4.411  0.6507  0.2477  0.6127
    3CHL1   C27  219   1.798   6.170   4.461 -0.1696 -0.6216  0.4376
    3CHL1  H27A  220   1.759   6.165   4.565 -3.1486 -0.9440 -0.5989
    3CHL1  H27B  221   1.756   6.270   4.434 -2.4705 -1.4365  0.7956
    3CHL1  H27C  222   1.747   6.095   4.397 -0.6700  0.1226 -0.0606
    4CHL1    C3  223   4.407   6.404   5.551  0.0382 -0.4176 -0.3000
    4CHL1    H3  224   4.502   6.346   5.553  1.2025  1.4161  1.8451
    4CHL1    O3  225   4.379   6.437   5.690 -0.0086  0.1876  0.0898
    4CHL1   H3'  226   4.286   6.461   5.697  0.4682  1.7896  1.5226
    4CHL1    C4  227   4.419   6.542   5.475  0.5508 -0.1047  0.5252
    4CHL1   H4A  228   4.340   6.611   5.512  0.3325  0.0395 -0.1939
    4CHL1   H4B  229   4.507   6.602   5.509 -0.3485  2.4657 -1.3817
    4CHL1    C5  230   4.403   6.534   5.325 -0.2000 -0.6784  0.3530
    4CHL1    C6  231   4.495   6.596   5.242  0.4935  0.1908  0.7254
    4CHL1    H6  232   4.590   6.637   5.279  1.2374 -2.3159  1.8204
    4CHL1    C7  233   4.477   6.592   5.093 -0.3656  0.4299  0.3051
    4CHL1   H7A  234   4.520   6.688   5.058 -0.3040  0.0978 -0.5593
    4CHL1   H7B  235   4.553   6.529   5.042 -0.9409  0.2633 -0.3606
    4CHL1    C8  236   4.343   6.545   5.042  0.1636  0.1684 -0.1715
    4CHL1    H8  237   4.269   6.626   5.060 -1.2477 -0.5591 -2.2328
    4CHL1   C14  238   4.344   6.505   4.897 -0.8934  0.1139  0.1487
    4CHL1   H14  239   4.411   6.416   4.896  0.7897  1.3252  0.1753
    4CHL1   C15  240   4.411   6.609   4.803 -0.3654 -0.2268 -0.1864
    4CHL1  H15A  241   4.387   6.713   4.834  0.1692  0.4093 -1.8276
    4CHL1  H15B  242   4.521   6.593   4.802  0.1959  2.7132  1.5797
    4CHL1   C16  243   4.368   6.569   4.660  0.9358  0.1130  0.1289
    4CHL1  H16A  244   4.315   6.649   4.603 -2.1048 -0.8968  1.3296
    4CHL1  H16B  245   4.460   6.528   4.613  0.8484  1.2791 -1.1364
    4CHL1   C17  246   4.258   6.461   4.678  0.0861  0.0474 -0.2941
    4CHL1   H17  247   4.309   6.362   4.678 -0.6613 -0.3582  0.5334
    4CHL1   C13  248   4.207   6.471   4.830 -0.6844 -0.8586  0.5183
    4CHL1   C18  249   4.108   6.595   4.839  0.2587  0.0001  0.2463
    4CHL1  H18A  250   4.155   6.693   4.817  1.0886 -0.5488 -0.5061
    4CHL1  H18B  251   4.015   6.584   4.780 -1.7893  2.2703  2.7455
    4CHL1  H18C  252   4.071   6.606   4.943  1.4365 -0.5125  0.7394
    4CHL1   C12  253   4.158   6.351   4.907 -0.0244  0.8744  0.2343
    4CHL1  H12A  254   4.055   6.335   4.867  0.8297  0.0117 -1.7564
    4CHL1  H12B  255   4.215   6.263   4.871 -1.3025  0.0832  0.0530
    4CHL1   C11  256   4.163   6.367   5.059  0.3514  0.2358 -0.3986
    4CHL1  H11A  257   4.083   6.440   5.083 -1.3447 -1.8509  0.5519
    4CHL1  H11B  258   4.127   6.276   5.110 -1.3563  0.0973 -1.7819
    4CHL1    C9  259   4.290   6.423   5.118  0.0655  0.0723 -0.3231
    4CHL1    H9  260   4.370   6.349   5.096  0.2857  0.3307 -0.4102
    4CHL1   C10  261   4.285   6.453   5.270  0.3171 -0.1299 -0.2696
    4CHL1   C19  262   4.152   6.531   5.306 -0.1927 -0.2548 -0.2260
    4CHL1  H19A  263   4.134   6.619   5.240 -0.0454  0.1394  0.2513
    4CHL1  H19B  264   4.066   6.462   5.289 -0.0324 -1.1322  2.1288
    4CHL1  H19C  265   4.147   6.559   5.413 -2.0320 -0.1730 -0.2949
    4CHL1    C1  266   4.292   6.319   5.348 -0.1365 -0.1668  0.3217
    4CHL1   H1A  267   4.212   6.255   5.305 -1.2554 -0.4349  2.6304
    4CHL1   H1B  268   4.390   6.279   5.316 -0.7512 -0.1831 -1.6276
    4CHL1    C2  269   4.287   6.326   5.502  0.1083 -0.7067 -0.2925
    4CHL1   H2A  270   4.291   6.223   5.544 -2.9761 -0.9013 -0.2806
    4CHL1   H2B  271   4.192   6.372   5.536 -0.0565 -0.1167 -1.5004
    4CHL1   C20  272   4.151   6.454   4.572 -0.4574  0.1171  0.6023
    4CHL1   H20  273   4.096   6.550   4.565  1.0526  1.2588  2.9080
    4CHL1   C21  274   4.061   6.336   4.594 -0.4383  0.1643 -1.0728
    4CHL1  H21A  275   4.117   6.241   4.612 -0.4472  0.2893 -0.3476
    4CHL1  H21B  276   3.985   6.321   4.515 -0.6362 -2.7176 -0.4747
    4CHL1  H21C  277   3.993   6.358   4.679 -0.5904  1.3934 -1.5024
    4CHL1   C22  278   4.224   6.444   4.435  0.0600 -0.4306  0.9253
    4CHL1  H22A  279   4.265   6.543   4.409 -0.0600 -0.4964  0.4792
    4CHL1  H22B  280   4.317   6.383   4.441 -0.0482 -0.8074 -0.7513
    4CHL1   C23  281   4.136   6.417   4.312 -0.1602 -0.1188 -0.0101
    4CHL1  H23A  282   4.098   6.313   4.320  3.2044 -1.3946  1.4673
    4CHL1  H23B  283   4.049   6.486   4.312 -1.6968 -1.9700  0.5747
    4CHL1   C24  284   4.200   6.427   4.177 -0.5293 -0.0951 -0.4513
    4CHL1  H24A  285   4.253   6.522   4.160 -1.0203 -0.1646 -2.6045
    4CHL1  H24B  286   4.274   6.344   4.178 -1.7076 -1.3593  3.4776
    4CHL1   C25  287   4.104   6.422   4.051  0.4820 -0.7174  0.0645
    4CHL1   H25  288   4.163   6.425   3.957 -1.5714 -0.9860 -1.3169
    4CHL1   C26  289   4.024   6.288   4.033  0.9810 -0.8806  0.3176
    4CHL1  H26A  290   4.081   6.197   4.061  2.5973  0.4079  1.4156
    4CHL1  H26B  291   3.936   6.290   4.100 -1.2369  0.1340 -2.4417
    4CHL1  H26C  292   3.995   6.285   3.926  1.5377 -0.8791  0.1604
    4CHL1   C27  293   4.013   6.548   4.029  0.1507  0.7690  0.3461
    4CHL1  H27A  294   3.940   6.538   4.112  0.2467  1.5418  0.5301
    4CHL1  H27B  295   4.075   6.639   4.041  2.8064 -0.9675  0.7304
    4CHL1  H27C  296   3.955   6.550   3.934  0.8990 -1.9879 -0.2758
    5CHL1    C3  297   3.725   6.232   5.591  0.2490  0.1684  0.4705
    5CHL1    H3  298   3.717   6.127   5.557 -0.5407  0.4461 -0.2584
    5CHL1    O3  299   3.782   6.237   5.722  0.6663  0.3198 -0.0112
    5CHL1   H3'  300   3.759   6.328   5.742  1.1027  0.0194  2.1251
    5CHL1    C4  301   3.815   6.310   5.490  0.5647  0.7656 -0.4444
    5CHL1   H4A  302   3.839   6.410   5.533  0.7840  0.5525 -0.0676
    5CHL1   H4B  303   3.914   6.260   5.483 -1.9893 -4.7111 -3.3206
    5CHL1    C5  304   3.751   6.324   5.355  0.4913 -0.6970 -0.2491
    5CHL1    C6  305   3.814   6.291   5.235  0.2252 -0.4218  0.9274
    5CHL1    H6  306   3.919   6.258   5.241 -0.1395 -1.5240  1.4620
    5CHL1    C7  307   3.758   6.321   5.102 -0.2960 -0.1987 -0.2048
    5CHL1   H7A  308   3.827   6.394   5.054 -1.2209  1.2930  0.6631
    5CHL1   H7B  309   3.743   6.229   5.041 -1.4526  0.5211 -1.0709
    5CHL1    C8  310   3.624   6.403   5.103 -0.1594  0.1280  1.2216
    5CHL1    H8  311   3.650   6.511   5.111 -1.9010  0.7384 -0.6580
    5CHL1   C14  312   3.552   6.377   4.970  0.1189  0.1751  0.3611
    5CHL1   H14  313   3.519   6.272   4.983  0.1007  0.1675  0.2515
    5CHL1   C15  314   3.630   6.385   4.840  0.3084 -0.1952 -0.1381
    5CHL1  H15A  315   3.703   6.469   4.837 -0.3591  0.5246  2.0468
    5CHL1  H15B  316   3.682   6.287   4.835 -0.7904 -1.0495  2.8779
    5CHL1   C16  317   3.515   6.413   4.734 -0.5831 -0.0857 -0.3021
    5CHL1  H16A  318   3.529   6.513   4.687 -2.1585  1.2433  1.8824
    5CHL1  H16B  319   3.508   6.330   4.660 -2.8784 -0.6286  0.4450
    5CHL1   C17  320   3.386   6.406   4.816  0.5429  0.2045  0.0318
    5CHL1   H17  321   3.368   6.298   4.836  0.9183  0.2347  0.5317
    5CHL1   C13  322   3.421   6.456   4.951 -0.7274  0.3294  0.5592
    5CHL1   C18  323   3.454   6.605   4.943  0.6691  0.3727 -0.0994
    5CHL1  H18A  324   3.497   6.635   5.041  0.3943  0.9387 -0.1459
    5CHL1  H18B  325   3.522   6.638   4.862 -0.6880  1.9102 -0.6614
    5CHL1  H18C  326   3.357   6.659   4.936  0.5450  0.3550  1.1201
    5CHL1   C12  327   3.331   6.423   5.068 -0.1940 -0.5538  0.0708
    5CHL1  H12A  328   3.232   6.474   5.066 -0.5695 -1.2439  0.5622
    5CHL1  H12B  329   3.299   6.317   5.054  1.2752 -1.0111 -0.0041
    5CHL1   C11  330   3.397   6.440   5.204  0.5502 -0.2546  0.6384
    5CHL1  H11A  331   3.415   6.548   5.224  0.7146 -0.3460  0.9945
    5CHL1  H11B  332   3.327   6.404   5.282  1.0786  1.3716  1.9333
    5CHL1    C9  333   3.531   6.367   5.217 -0.4803  0.4337 -0.0973
    5CHL1    H9  334   3.516   6.258   5.209  0.1970  0.3220  0.0779
    5CHL1   C10  335   3.604   6.371   5.355  0.7270 -0.4472 -0.3460
    5CHL1   C19  336   3.599   6.520   5.392 -0.8639 -0.0122  0.2931
    5CHL1  H19A  337   3.673   6.543   5.472  0.8035  1.3187 -1.5522
    5CHL1  H19B  338   3.635   6.584   5.309  2.7735  0.3654  1.9593
    5CHL1  H19C  339   3.498   6.550   5.428 -1.8547 -0.1866 -2.1509
    5CHL1    C1  340   3.516   6.295   5.462 -0.2518 -0.9899 -0.3385
    5CHL1   H1A  341   3.422   6.352   5.478 -0.2942 -1.4687  1.2988
    5CHL1   H1B  342   3.501   6.189   5.433 -2.6397 -0.1584 -2.5393
    5CHL1    C2  343   3.586   6.299   5.603  0.0776 -0.0222 -0.3996
    5CHL1   H2A  344   3.535   6.247   5.687  2.3025  0.2121  1.1656
    5CHL1   H2B  345   3.606   6.405   5.628  2.4762 -0.3934 -0.5610
    5CHL1   C20  346   3.266   6.464   4.740  0.2957  0.0068  0.6612
    5CHL1   H20  347   3.284   6.574   4.739  0.3936 -0.0069 -0.5203
    5CHL1   C21  348   3.136   6.435   4.807  0.7017  0.0800  0.4690
    5CHL1  H21A  349   3.133   6.329   4.842 -0.0554  0.0019  0.2114
    5CHL1  H21B  350   3.051   6.452   4.737  0.4694 -1.5031  0.3151
    5CHL1  H21C  351   3.103   6.484   4.901 -0.2219  1.1920 -0.3997
    5CHL1   C22  352   3.258   6.431   4.584 -0.6353 -0.8782 -1.2143
    5CHL1  H22A  353   3.174   6.493   4.545  1.6238  2.4244 -1.2468
    5CHL1  H22B  354   3.347   6.464   4.527  0.0315  1.8091  1.1413
    5CHL1   C23  355   3.228   6.287   4.549  0.1988  0.1685 -0.0392
    5CHL1  H23A  356   3.305   6.220   4.593 -0.2615 -0.3728 -0.0465
    5CHL1  H23B  357   3.137   6.248   4.599  0.5978  0.0613  0.6046
    5CHL1   C24  358   3.216   6.258   4.402  1.2483  0.2451 -0.2880
    5CHL1  H24A  359   3.124   6.314   4.372  1.7253  1.2000 -0.0115
    5CHL1  H24B  360   3.299   6.296   4.339  1.6067  0.5816  0.3797
    5CHL1   C25  361   3.201   6.107   4.366  0.4999 -0.0883  0.6030
    5CHL1   H25  362   3.295   6.053   4.391  1.4341  1.7922  1.3689
    5CHL1   C26  363   3.085   6.047   4.444  0.1776  0.7956 -0.3918
    5CHL1  H26A  364   3.046   5.957   4.392 -1.2677  0.6595  0.8800
    5CHL1  H26B  365   3.106   6.038   4.552 -1.3836  2.8610  0.1307
    5CHL1  H26C  366   2.995   6.111   4.451 -2.7169 -2.4137 -3.8530
    5CHL1   C27  367   3.171   6.091   4.215 -0.1018  0.1807 -0.5231
    5CHL1  H27A  368   3.074   6.135   4.186 -0.7239 -0.5634  0.3735
    5CHL1  H27B  369   3.247   6.135   4.146 -0.4055 -0.7696 -1.4801
    5CHL1  H27C  370   3.149   5.983   4.201 -0.8163  0.3515 -0.7384
    6CHL1    C3  371   1.285   6.794   5.668  0.3527  0.2707  0.4709
    6CHL1    H3  372   1.287   6.707   5.599  1.1822 -0.9660  1.9838
    6CHL1    O3  373   1.359   6.765   5.783 -0.3242  0.6682 -0.1694
    6CHL1   H3'  374   1.332   6.827   5.851 -1.1050 -0.5349  0.6472
    6CHL1    C4  375   1.354   6.913   5.591 -0.0356 -0.7493  0.6187
    6CHL1   H4A  376   1.351   6.991   5.670  0.1282 -2.4521  2.3913
    6CHL1   H4B  377   1.459   6.881   5.574 -0.2692 -0.3220 -2.1728
    6CHL1    C5  378   1.282   6.954   5.464 -0.5232  0.2251 -0.4847
    6CHL1    C6  379   1.340   6.941   5.344  0.2471  0.0972  0.6884
    6CHL1    H6  380   1.442   6.900   5.337 -0.6990 -2.2619 -0.4964
    6CHL1    C7  381   1.256   6.972   5.215 -0.0883  0.4728 -0.2899
    6CHL1   H7A  382   1.328   7.020   5.144  1.5867  0.0211  1.0323
    6CHL1   H7B  383   1.226   6.876   5.168  2.2610 -0.7503  0.5352
    6CHL1    C8  384   1.133   7.061   5.238  0.1806 -0.1233  0.3277
    6CHL1    H8  385   1.182   7.158   5.262  0.5821 -0.2814  0.1473
    6CHL1   C14  386   1.044   7.076   5.111  0.0244  0.3447  0.2989
    6CHL1   H14  387   1.019   6.974   5.075  1.4444 -0.1754  0.7238
    6CHL1   C15  388   1.119   7.142   4.994 -0.3108 -0.4660 -0.3390
    6CHL1  H15A  389   1.183   7.225   5.030 -0.2824  0.3261 -2.0848
    6CHL1  H15B  390   1.178   7.059   4.949  0.6193 -0.0536  0.0857
    6CHL1   C16  391   1.000   7.184   4.907  0.5848 -0.3175  0.3570
    6CHL1  H16A  392   1.012   7.287   4.869  1.9297 -0.2027  1.0477
    6CHL1  H16B  393   0.991   7.113   4.821  0.0726 -0.4102  0.4803
    6CHL1   C17  394   0.866   7.160   4.993  0.0124 -0.0326 -0.1895
    6CHL1   H17  395   0.834   7.057   4.967  0.7801 -0.5075  0.6579
    6CHL1   C13  396   0.919   7.152   5.138  0.1541 -0.7739  0.6471
    6CHL1   C18  397   0.948   7.291   5.196 -0.1730  0.0515 -0.1663
    6CHL1  H18A  398   0.858   7.336   5.243 -0.4702 -0.9852  0.2876
    6CHL1  H18B  399   1.024   7.299   5.276 -0.1246 -1.1624 -0.0753
    6CHL1  H18C  400   0.995   7.360   5.122 -0.4131  0.7428  0.3138
    6CHL1   C12  401   0.833   7.066   5.239  0.3838 -0.2327  0.2263
    6CHL1  H12A  402   0.732   7.111   5.243  1.3989  2.1745  0.7118
    6CHL1  H12B  403   0.825   6.965   5.195  0.0809  0.1769 -0.6788
    6CHL1   C11  404   0.903   7.060   5.374 -0.3136  0.1434  0.2832
    6CHL1  H11A  405   0.912   7.164   5.411  0.2374 -0.1767  1.0628
    6CHL1  H11B  406   0.843   7.000   5.445 -1.8886  0.6073 -0.6037
    6CHL1    C9  407   1.049   6.996   5.358 -0.4651  0.6941 -0.2151
    6CHL1    H9  408   1.024   6.893   5.323  0.1957  0.9707 -1.5951
    6CHL1   C10  409   1.132   6.988   5.489 -0.7739  0.1747 -0.2569
    6CHL1   C19  410   1.119   7.122   5.554  0.0141  0.1390  0.3349
    6CHL1  H19A  411   1.017   7.136   5.595 -0.2979  0.3919 -0.5178
    6CHL1  H19B  412   1.192   7.135   5.638 -0.5330  1.2681  0.6545
    6CHL1  H19C  413   1.140   7.206   5.484 -1.1781 -1.4585 -2.0510
    6CHL1    C1  414   1.073   6.879   5.576  1.7365 -0.1071  0.1157
    6CHL1   H1A  415   0.970   6.908   5.607  0.7443 -1.8651 -1.2943
    6CHL1   H1B  416   1.050   6.786   5.519 -0.1735 -0.3437  1.1883
    6CHL1    C2  417   1.148   6.838   5.705 -0.7046  0.1100  0.3265
    6CHL1   H2A  418   1.091   6.757   5.755  0.4308 -1.3405 -0.6266
    6CHL1   H2B  419   1.156   6.918   5.782 -2.4251 -1.0275  1.7514
    6CHL1   C20  420   0.759   7.266   4.965 -0.1459 -0.2796  0.0388
    6CHL1   H20  421   0.811   7.362   4.985  2.1039 -1.3901 -0.2330
    6CHL1   C21  422   0.630   7.259   5.055 -0.0944  0.5707  0.4891
    6CHL1  H21A  423   0.653   7.287   5.160  2.3872  0.0674  0.1407
    6CHL1  H21B  424   0.588   7.156   5.050 -1.4250  0.9958  2.2296
    6CHL1  H21C  425   0.553   7.322   5.006  0.5567 -0.0061 -1.3469
    6CHL1   C22  426   0.726   7.271   4.814  0.2361  0.4930  0.2180
    6CHL1  H22A  427   0.815   7.287   4.749 -0.8933  1.4858 -1.1280
    6CHL1  H22B  428   0.681   7.174   4.783  0.5420  0.9921 -1.9762
    6CHL1   C23  429   0.634   7.378   4.763 -0.4553 -0.6598 -0.9502
    6CHL1  H23A  430   0.534   7.331   4.762 -0.4031 -0.8464 -2.9733
    6CHL1  H23B  431   0.648   7.458   4.839  0.2145 -3.0530  1.5859
    6CHL1   C24  432   0.647   7.424   4.616  0.3743 -0.1249 -0.2586
    6CHL1  H24A  433   0.751   7.457   4.600  0.9704 -2.4320 -1.5143
    6CHL1  H24B  434   0.630   7.337   4.550 -0.1545 -0.1291 -0.1264
    6CHL1   C25  435   0.545   7.536   4.581  0.0091 -0.5910  1.2973
    6CHL1   H25  436   0.445   7.496   4.608 -0.7071 -0.1554 -0.6104
    6CHL1   C26  437   0.560   7.678   4.645 -0.1114 -0.5544 -0.4641
    6CHL1  H26A  438   0.659   7.719   4.618  1.2538 -2.1101  1.8793
    6CHL1  H26B  439   0.484   7.753   4.612 -0.2357 -0.6744 -0.4507
    6CHL1  H26C  440   0.567   7.668   4.755  0.9446  0.5028 -0.4130
    6CHL1   C27  441   0.570   7.558   4.424  0.3300 -0.0116  0.1226
    6CHL1  H27A  442   0.519   7.650   4.390 -0.0421 -0.6388 -1.0539
    6CHL1  H27B  443   0.678   7.581   4.408  0.2186 -0.1778 -0.9310
    6CHL1  H27C  444   0.531   7.470   4.368  1.1568 -0.6412  0.4947
    7CHL1    C3  445   4.769   4.381   6.049 -0.7530  0.0174 -0.5516
    7CHL1    H3  446   4.677   4.444   6.049 -2.2884 -2.1248  0.4635
    7CHL1    O3  447   4.830   4.392   6.178 -0.1342  0.2488  0.1144
    7CHL1   H3'  448   4.882   4.472   6.178  0.2993 -0.0126  1.2245
    7CHL1    C4  449   4.739   4.234   6.032 -1.1878 -0.5071 -0.2659
    7CHL1   H4A  450   4.833   4.179   6.049 -1.1485 -0.8733 -1.5633
    7CHL1   H4B  451   4.680   4.198   6.119 -0.2263  0.7919  0.9673
    7CHL1    C5  452   4.673   4.212   5.896  0.5478 -0.6224  0.3373
    7CHL1    C6  453   4.554   4.156   5.885  0.2768 -0.1829 -0.2579
    7CHL1    H6  454   4.494   4.137   5.975  0.4993  0.4725  0.0369
    7CHL1    C7  455   4.492   4.128   5.748 -0.3618  0.5407 -0.3988
    7CHL1   H7A  456   4.454   4.024   5.755 -0.8824  0.8191  2.3823
    7CHL1   H7B  457   4.402   4.191   5.734 -1.1300 -0.1842  1.0059
    7CHL1    C8  458   4.594   4.141   5.632 -0.0778  0.3818  0.2459
    7CHL1    H8  459   4.647   4.044   5.633  0.7094  0.8026 -0.0822
    7CHL1   C14  460   4.539   4.142   5.494  0.2710  0.4681  0.2349
    7CHL1   H14  461   4.474   4.232   5.491 -0.8509 -0.2350  1.7296
    7CHL1   C15  462   4.442   4.023   5.463 -0.2546 -0.5650 -0.4363
    7CHL1  H15A  463   4.486   3.931   5.507 -0.9187 -0.0013  1.5186
    7CHL1  H15B  464   4.342   4.045   5.506  0.5381 -0.5821  1.5086
    7CHL1   C16  465   4.440   4.020   5.310 -0.1054 -0.1892  0.4390
    7CHL1  H16A  466   4.460   3.918   5.270 -2.5217 -1.0818  1.2983
    7CHL1  H16B  467   4.336   4.037   5.273 -0.2362 -1.6053  0.0699
    7CHL1   C17  468   4.539   4.125   5.264 -0.1605 -0.3151 -0.2118
    7CHL1   H17  469   4.484   4.221   5.267  0.9702  0.3424  0.0463
    7CHL1   C13  470   4.638   4.141   5.380 -0.3444  0.3038 -0.9147
    7CHL1   C18  471   4.741   4.025   5.389 -0.1160  0.5153  0.0436
    7CHL1  H18A  472   4.817   4.030   5.308  1.1520  0.1105  1.1671
    7CHL1  H18B  473   4.798   4.034   5.483  0.8470  2.8714 -0.7039
    7CHL1  H18C  474   4.692   3.925   5.380  0.6089  0.2350 -1.0194
    7CHL1   C12  475   4.712   4.272   5.387 -0.6305 -0.1935  0.0473
    7CHL1  H12A  476   4.793   4.266   5.312  0.9480  0.9838  1.5869
    7CHL1  H12B  477   4.644   4.356   5.361  0.5361  0.7701  0.0394
    7CHL1   C11  478   4.781   4.293   5.525 -0.0183 -0.0166 -0.2275
    7CHL1  H11A  479   4.872   4.232   5.544 -0.7591 -0.8761  0.6685
    7CHL1  H11B  480   4.808   4.400   5.530  1.3220 -0.3900  1.7288
    7CHL1    C9  481   4.688   4.271   5.651  0.9665  0.6921 -0.0292
    7CHL1    H9  482   4.610   4.350   5.650  0.8546  0.6145  0.9260
    7CHL1   C10  483   4.759   4.264   5.781 -0.0579  0.2084  0.1065
    7CHL1   C19  484   4.884   4.174   5.775 -0.2546 -0.6495 -0.0652
    7CHL1  H19A  485   4.868   4.076   5.724  1.2533 -1.4012  0.8288
    7CHL1  H19B  486   4.965   4.230   5.724  0.8334 -2.3690 -0.3426
    7CHL1  H19C  487   4.926   4.147   5.874  0.3407 -0.7331 -0.3364
    7CHL1    C1  488   4.807   4.410   5.813 -0.4387  0.1875  0.1267
    7CHL1   H1A  489   4.877   4.447   5.735 -2.5377  1.3903 -1.2928
    7CHL1   H1B  490   4.723   4.482   5.818 -2.0157 -1.5226 -0.3954
    7CHL1    C2  491   4.876   4.422   5.946 -0.3223  1.0795  0.1902
    7CHL1   H2A  492   4.902   4.527   5.967 -2.1540  1.3243  1.4225
    7CHL1   H2B  493   4.972   4.366   5.949  0.3780  2.1106 -1.5790
    7CHL1   C20  494   4.605   4.113   5.125 -0.3522  0.1275 -0.1587
    7CHL1   H20  495   4.702   4.167   5.125  0.9558 -1.9943  1.9728
    7CHL1   C21  496   4.511   4.195   5.033  0.1102 -0.0883  0.1311
    7CHL1  H21A  497   4.547   4.217   4.930 -0.0667 -0.4946 -0.0195
    7CHL1  H21B  498   4.497   4.297   5.074 -4.8086  0.3355 -1.9899
    7CHL1  H21C  499   4.414   4.142   5.021 -0.8618  1.8613 -1.1957
    7CHL1   C22  500   4.634   3.969   5.067  0.2622 -0.8763 -0.1489
    7CHL1  H22A  501   4.702   3.909   5.131 -0.6821  0.4626  2.2748
    7CHL1  H22B  502   4.544   3.904   5.058  0.6688 -1.4629 -0.0342
    7CHL1   C23  503   4.693   3.980   4.926  0.3881  0.2358  0.3285
    7CHL1  H23A  504   4.705   3.876   4.889  0.8020  0.0331  1.0169
    7CHL1  H23B  505   4.613   4.032   4.869 -1.5168 -2.6441  0.1684
    7CHL1   C24  506   4.824   4.058   4.902  0.0321  0.4827 -0.2520
    7CHL1  H24A  507   4.829   4.164   4.935  0.0703  1.3621 -2.8842
    7CHL1  H24B  508   4.903   4.008   4.963 -1.6467 -1.2138  0.6127
    7CHL1   C25  509   4.872   4.071   4.747 -0.1503  0.2767 -0.7655
    7CHL1   H25  510   4.876   3.966   4.712 -3.7863  0.4248 -1.9893
    7CHL1   C26  511   4.767   4.130   4.650  0.1861 -0.0144  0.2409
    7CHL1  H26A  512   4.809   4.148   4.549 -0.3018 -1.1292 -0.1798
    7CHL1  H26B  513   4.680   4.062   4.641  0.5445 -0.2862 -1.5760
    7CHL1  H26C  514   4.729   4.230   4.680  1.5661  0.5372  0.1971
    7CHL1   C27  515   4.998   4.157   4.741  0.1694  0.5502 -0.7416
    7CHL1  H27A  516   5.033   4.166   4.636 -0.3675 -3.6883 -1.4597
    7CHL1  H27B  517   4.967   4.259   4.773 -1.0280 -0.4154  1.4304
    7CHL1  H27C  518   5.079   4.125   4.810  0.6671 -0.1360 -1.6293
    8CHL1    C3  519   0.691   5.515   6.078 -0.9697  0.1162 -0.0941
    8CHL1    H3  520   0.797   5.486   6.060 -0.4996  2.0759 -0.7372
    8CHL1    O3  521   0.651   5.487   6.211 -0.0417 -0.0704  0.2162
    8CHL1   H3'  522   0.588   5.552   6.244 -2.4268 -1.5180 -1.2064
    8CHL1    C4  523   0.671   5.665   6.043  0.0786 -0.1460 -0.6745
    8CHL1   H4A  524   0.576   5.711   6.075 -0.5571 -1.8740  0.0606
    8CHL1   H4B  525   0.739   5.710   6.119 -0.9012 -3.1474  2.2520
    8CHL1    C5  526   0.698   5.684   5.891  0.2320 -0.5491 -0.1521
    8CHL1    C6  527   0.797   5.774   5.851  0.2401 -0.2784  0.8485
    8CHL1    H6  528   0.850   5.822   5.934  0.0860  0.6478  0.4246
    8CHL1    C7  529   0.832   5.811   5.707  0.3690  0.1434  0.4575
    8CHL1   H7A  530   0.839   5.922   5.697  1.3442  0.0075 -0.5200
    8CHL1   H7B  531   0.936   5.784   5.679  0.6692 -0.2887  1.9427
    8CHL1    C8  532   0.733   5.754   5.599 -0.3350  0.3136  0.0547
    8CHL1    H8  533   0.647   5.825   5.604  0.2035  0.9047  1.4857
    8CHL1   C14  534   0.791   5.745   5.457 -0.0916  0.0318  0.3474
    8CHL1   H14  535   0.874   5.670   5.462 -0.2567 -0.3392 -1.6847
    8CHL1   C15  536   0.838   5.879   5.396  0.7224  0.0448 -0.0603
    8CHL1  H15A  537   0.763   5.959   5.409  1.8953  1.4197 -1.3300
    8CHL1  H15B  538   0.945   5.902   5.419  0.4427  0.1934  1.1121
    8CHL1   C16  539   0.843   5.846   5.241  0.3343  0.4157  0.1994
    8CHL1  H16A  540   0.780   5.916   5.182 -0.0939  1.1020  1.4202
    8CHL1  H16B  541   0.946   5.849   5.199  0.1456 -0.1384 -0.3128
    8CHL1   C17  542   0.791   5.701   5.222 -0.5843  0.2409  0.6334
    8CHL1   H17  543   0.879   5.638   5.246 -0.4427 -0.4280 -1.4601
    8CHL1   C13  544   0.702   5.680   5.353  0.0052  0.6448 -0.2370
    8CHL1   C18  545   0.568   5.767   5.338  0.4901 -0.9245 -0.7739
    8CHL1  H18A  546   0.501   5.731   5.256 -2.0536 -0.7072  1.0867
    8CHL1  H18B  547   0.500   5.778   5.426  0.3243  2.4929 -1.1956
    8CHL1  H18C  548   0.594   5.868   5.301  1.2068 -1.6681 -2.4234
    8CHL1   C12  549   0.663   5.541   5.396  0.2661 -0.5406  0.4873
    8CHL1  H12A  550   0.596   5.483   5.329  1.2366  0.1651 -1.1442
    8CHL1  H12B  551   0.765   5.498   5.398  0.8402  0.7130 -0.5850
    8CHL1   C11  552   0.598   5.539   5.538 -0.0983  0.2126 -0.8647
    8CHL1  H11A  553   0.507   5.603   5.534  0.0357  0.5017  0.3296
    8CHL1  H11B  554   0.590   5.431   5.565  0.7545 -0.1756 -2.0784
    8CHL1    C9  555   0.694   5.609   5.642  0.7829  0.1789 -0.9137
    8CHL1    H9  556   0.787   5.549   5.650  0.1873 -0.6840 -0.2040
    8CHL1   C10  557   0.623   5.601   5.788  0.3366  0.3258  1.0192
    8CHL1   C19  558   0.484   5.654   5.790  0.3657  0.2071  0.0298
    8CHL1  H19A  559   0.469   5.747   5.732 -0.1559 -0.2964 -0.6677
    8CHL1  H19B  560   0.413   5.578   5.748  0.4099 -0.9514  1.9529
    8CHL1  H19C  561   0.450   5.667   5.895  0.0528 -0.8639  0.0805
    8CHL1    C1  562   0.626   5.447   5.836  0.7461  0.0980 -0.8844
    8CHL1   H1A  563   0.542   5.395   5.785 -0.7088 -1.3623  2.6205
    8CHL1   H1B  564   0.724   5.404   5.809  1.0571  0.6803 -0.6992
    8CHL1    C2  565   0.605   5.429   5.992 -0.2592 -0.3965 -0.2704
    8CHL1   H2A  566   0.613   5.322   6.019 -0.1494 -0.7581 -1.6245
    8CHL1   H2B  567   0.500   5.455   6.017 -0.5499 -2.4658  0.9137
    8CHL1   C20  568   0.740   5.670   5.083  0.4845 -0.0519 -0.2119
    8CHL1   H20  569   0.660   5.743   5.054  1.5845  0.8604 -1.0516
    8CHL1   C21  570   0.687   5.528   5.074 -0.4170 -0.2013  0.1029
    8CHL1  H21A  571   0.653   5.505   4.971 -1.1842 -0.1367  0.3343
    8CHL1  H21B  572   0.595   5.525   5.136 -0.8243  1.5472 -0.3480
    8CHL1  H21C  573   0.764   5.453   5.101  0.3284  0.5593  0.1400
    8CHL1   C22  574   0.868   5.681   4.984  0.1454 -0.3244 -0.9513
    8CHL1  H22A  575   0.930   5.769   5.010 -0.5200 -0.9170  3.5293
    8CHL1  H22B  576   0.927   5.595   5.022  1.2926  0.3584 -1.1469
    8CHL1   C23  577   0.822   5.682   4.838 -0.0637 -0.4446 -0.5498
    8CHL1  H23A  578   0.900   5.622   4.786 -0.1603 -0.6579 -0.4508
    8CHL1  H23B  579   0.716   5.654   4.819 -0.1560 -0.6027  0.1590
    8CHL1   C24  580   0.830   5.826   4.781  0.4929  0.1068  0.1524
    8CHL1  H24A  581   0.765   5.889   4.845 -1.3514 -1.6034  0.0488
    8CHL1  H24B  582   0.935   5.859   4.791 -0.4378  3.7799 -0.6710
    8CHL1   C25  583   0.779   5.836   4.636  0.4534  0.2670  0.5317
    8CHL1   H25  584   0.791   5.945   4.614 -1.1400  0.6814  1.5192
    8CHL1   C26  585   0.866   5.765   4.538 -0.3706 -0.1864  0.0033
    8CHL1  H26A  586   0.828   5.804   4.441 -1.1629  0.5742  0.5998
    8CHL1  H26B  587   0.973   5.791   4.552 -0.4748 -0.3697  1.2048
    8CHL1  H26C  588   0.860   5.654   4.536  2.1561 -0.4003  0.9662
    8CHL1   C27  589   0.635   5.800   4.612  0.7584 -0.0062  0.2890
    8CHL1  H27A  590   0.620   5.691   4.627  0.1143  0.1787  1.0899
    8CHL1  H27B  591   0.572   5.853   4.686  0.9246  0.7318 -0.0871
    8CHL1  H27C  592   0.600   5.828   4.511  0.7706  2.9099  0.9931
    9CHL1    C3  593   3.783   6.895   5.512  0.3845  0.1155  0.2005
    9CHL1    H3  594   3.680   6.903   5.472  0.4090  0.3850  0.1895
    9CHL1    O3  595   3.769   6.847   5.645  0.1385 -0.1885 -0.1701
    9CHL1   H3'  596   3.850   6.798   5.658 -0.8831 -2.1206 -0.6668
    9CHL1    C4  597   3.859   6.806   5.423 -1.1827 -0.1871  0.0857
    9CHL1   H4A  598   3.956   6.784   5.472 -0.8292 -1.8272 -1.2534
    9CHL1   H4B  599   3.809   6.709   5.403  1.2137 -0.7621 -4.4982
    9CHL1    C5  600   3.867   6.865   5.277 -0.0614  0.1113  0.2505
    9CHL1    C6  601   3.814   6.795   5.177 -0.4237  0.2226 -0.1996
    9CHL1    H6  602   3.771   6.696   5.200  2.0991 -0.6024  1.3121
    9CHL1    C7  603   3.828   6.840   5.034 -0.1934 -0.5598 -0.1471
    9CHL1   H7A  604   3.860   6.752   4.975  2.9222 -0.6777  1.4918
    9CHL1   H7B  605   3.728   6.869   4.995  0.7203  0.5062 -1.8260
    9CHL1    C8  606   3.917   6.969   5.010  0.2227  0.5667 -0.2406
    9CHL1    H8  607   4.017   6.922   5.014  0.7334  1.6875  2.1248
    9CHL1   C14  608   3.885   7.045   4.882  0.6232  0.1833  0.4160
    9CHL1   H14  609   3.784   7.084   4.907 -1.1054 -4.8024  2.6711
    9CHL1   C15  610   3.868   6.969   4.746  0.3359  0.3777  0.6912
    9CHL1  H15A  611   3.942   6.887   4.757 -1.6777 -1.2836  3.0089
    9CHL1  H15B  612   3.764   6.929   4.742  0.4802  0.0359 -2.7330
    9CHL1   C16  613   3.880   7.083   4.642 -0.3320  0.1196 -0.2951
    9CHL1  H16A  614   3.966   7.048   4.581  0.3727  2.3545 -0.6961
    9CHL1  H16B  615   3.797   7.095   4.570 -0.9826  0.7388  0.5349
    9CHL1   C17  616   3.929   7.209   4.719  0.4374  0.4600  0.9957
    9CHL1   H17  617   3.839   7.269   4.746 -0.6893 -1.2277  1.1909
    9CHL1   C13  618   3.988   7.155   4.853  0.0456 -0.7408  0.2533
    9CHL1   C18  619   4.136   7.095   4.827 -0.1641 -0.3175 -0.0770
    9CHL1  H18A  620   4.164   7.043   4.920  0.4847 -2.3220 -1.3469
    9CHL1  H18B  621   4.127   7.011   4.755 -1.3061  1.2046 -1.8189
    9CHL1  H18C  622   4.210   7.172   4.795  0.4231  0.3291  2.6102
    9CHL1   C12  623   3.987   7.256   4.971 -0.0098 -0.1614  0.2621
    9CHL1  H12A  624   4.079   7.317   4.973  0.4516 -0.8176 -0.5307
    9CHL1  H12B  625   3.901   7.324   4.956  2.2270  2.6886 -0.4507
    9CHL1   C11  626   4.006   7.192   5.107 -0.4375  0.2926 -0.2459
    9CHL1  H11A  627   4.113   7.163   5.113 -0.0225  1.1347 -2.4062
    9CHL1  H11B  628   3.988   7.270   5.183  0.5146  0.1168  0.1768
    9CHL1    C9  629   3.909   7.070   5.129  0.0876 -0.0187  0.0280
    9CHL1    H9  630   3.808   7.114   5.119  0.6537  0.9994 -1.6239
    9CHL1   C10  631   3.929   7.003   5.272 -0.2164 -0.4053  0.6052
    9CHL1   C19  632   4.083   6.980   5.299 -0.0060  0.2298  0.5304
    9CHL1  H19A  633   4.115   6.921   5.387  0.0614  2.2315  1.9325
    9CHL1  H19B  634   4.126   6.929   5.210  0.1609  2.7010 -0.9033
    9CHL1  H19C  635   4.130   7.081   5.294 -0.6078  0.4798 -2.8305
    9CHL1    C1  636   3.857   7.094   5.378  0.2663 -0.1004 -0.0431
    9CHL1   H1A  637   3.913   7.190   5.380 -0.7093  0.4685  0.5534
    9CHL1   H1B  638   3.749   7.106   5.354 -0.4509 -1.2942  2.2870
    9CHL1    C2  639   3.852   7.034   5.520 -0.4988  0.6341  0.7519
    9CHL1   H2A  640   3.789   7.094   5.590 -0.9478  0.5635  0.4157
    9CHL1   H2B  641   3.952   7.027   5.568  0.9078 -0.1916 -2.0443
    9CHL1   C20  642   4.007   7.306   4.628  0.6075  0.2321 -0.2139
    9CHL1   H20  643   4.105   7.262   4.599  0.8815  1.8565 -2.0281
    9CHL1   C21  644   4.037   7.440   4.703  0.6089  0.1020 -0.4212
    9CHL1  H21A  645   4.076   7.516   4.631  1.6567 -1.1866 -1.2491
    9CHL1  H21B  646   4.101   7.428   4.793  0.4399  0.4961 -0.2440
    9CHL1  H21C  647   3.938   7.481   4.734 -0.7829 -1.2028 -2.8894
    9CHL1   C22  648   3.917   7.354   4.509  0.3128 -0.5198 -0.1909
    9CHL1  H22A  649   3.892   7.266   4.445  0.7711 -0.2665 -0.7243
    9CHL1  H22B  650   3.821   7.386   4.555 -0.9079  2.1078 -4.0576
    9CHL1   C23  651   3.968   7.464   4.412  0.1054 -0.2476  0.5853
    9CHL1  H23A  652   3.965   7.560   4.467 -0.4603  0.6587 -0.9696
    9CHL1  H23B  653   4.076   7.448   4.388 -0.3577 -2.0526 -0.5272
    9CHL1   C24  654   3.895   7.473   4.272 -0.1330  0.6515 -0.3484
    9CHL1  H24A  655   3.926   7.388   4.208  1.2791  1.3675 -0.6652
    9CHL1  H24B  656   3.785   7.459   4.285 -0.1064  1.2898  0.7140
    9CHL1   C25  657   3.921   7.596   4.192  0.1161 -0.4967 -0.3640
    9CHL1   H25  658   4.023   7.639   4.205 -0.2292  0.3459 -0.3739
    9CHL1   C26  659   3.886   7.586   4.034 -0.8590 -0.1279 -0.5115
    9CHL1  H26A  660   3.779   7.616   4.022 -0.6033  0.6710 -0.8713
    9CHL1  H26B  661   3.951   7.665   3.990  1.2637 -1.2642  0.4513
    9CHL1  H26C  662   3.901   7.480   4.007 -0.0788  0.1165 -1.0658
    9CHL1   C27  663   3.837   7.713   4.253  0.8753  0.4293 -0.5250
    9CHL1  H27A  664   3.863   7.801   4.189  1.2703  0.3099 -0.5295
    9CHL1  H27B  665   3.731   7.680   4.250  1.4613 -1.5663 -0.7143
    9CHL1  H27C  666   3.863   7.732   4.359  0.9364  3.4632 -0.9860
   10CHL1    C3  667   3.985   2.752   6.301 -0.0700 -0.4802  0.1066
   10CHL1    H3  668   4.074   2.686   6.292  0.0388 -0.4378  0.8067
   10CHL1    O3  669   3.957   2.768   6.441 -0.2541  0.2263 -0.0982
   10CHL1   H3'  670   3.890   2.836   6.436 -0.1646  0.6674  2.9441
   10CHL1    C4  671   4.015   2.898   6.250 -0.4683  0.1406  0.4441
   10CHL1   H4A  672   3.924   2.960   6.257 -0.6340  0.4406 -2.8200
   10CHL1   H4B  673   4.094   2.941   6.316 -1.9561  0.6033  1.9786
   10CHL1    C5  674   4.041   2.900   6.103 -0.5276  0.3509  0.3944
   10CHL1    C6  675   4.159   2.945   6.061  0.0354  0.4066  0.1886
   10CHL1    H6  676   4.232   2.980   6.136  1.0630  0.5282 -0.8381
   10CHL1    C7  677   4.193   2.965   5.916  0.1847 -0.3743 -0.5118
   10CHL1   H7A  678   4.229   3.068   5.897 -0.3981 -0.1777 -0.5712
   10CHL1   H7B  679   4.262   2.886   5.879  0.3290 -1.0311  1.0712
   10CHL1    C8  680   4.068   2.956   5.825 -0.1796 -0.0508 -0.1825
   10CHL1    H8  681   4.003   3.045   5.838  0.2684  0.1362  0.8279
   10CHL1   C14  682   4.114   2.944   5.684  0.5579  0.4359  0.5646
   10CHL1   H14  683   4.175   2.851   5.681  1.2877  0.8946 -2.4760
   10CHL1   C15  684   4.220   3.049   5.630 -0.0368  0.3077 -0.0054
   10CHL1  H15A  685   4.198   3.157   5.646  0.1151  0.0508  2.3833
   10CHL1  H15B  686   4.322   3.042   5.673  0.4198  1.3614 -0.8605
   10CHL1   C16  687   4.211   3.025   5.484 -0.3128  0.3059  0.7727
   10CHL1  H16A  688   4.208   3.117   5.422  0.4837 -0.2798 -0.1624
   10CHL1  H16B  689   4.299   2.966   5.450 -0.5526  0.9024 -0.9904
   10CHL1   C17  690   4.087   2.930   5.442 -0.2982 -0.0913  0.0357
   10CHL1   H17  691   4.136   2.831   5.439 -1.1845 -0.5107 -1.5596
   10CHL1   C13  692   4.005   2.930   5.579 -0.2382  0.1135 -0.0555
   10CHL1   C18  693   3.915   3.057   5.574  0.3475 -0.1476  0.2103
   10CHL1  H18A  694   3.892   3.114   5.667 -0.6100 -1.0582  0.5597
   10CHL1  H18B  695   3.977   3.133   5.522 -0.8316  0.4252 -0.3907
   10CHL1  H18C  696   3.814   3.042   5.530 -0.1330  0.7502  0.9528
   10CHL1   C12  697   3.925   2.802   5.617 -1.2157 -0.4354  0.6153
   10CHL1  H12A  698   3.832   2.775   5.564 -0.8485  0.3148 -0.4437
   10CHL1  H12B  699   3.993   2.714   5.606 -0.2410  0.2801  0.7231
   10CHL1   C11  700   3.879   2.807   5.758 -0.5342  0.4232  0.5234
   10CHL1  H11A  701   3.811   2.894   5.769 -1.1010  0.0395  0.0938
   10CHL1  H11B  702   3.819   2.715   5.770 -0.8716  0.2017 -2.2212
   10CHL1    C9  703   3.990   2.829   5.864 -1.0187 -0.6165  0.3581
   10CHL1    H9  704   4.061   2.744   5.855  1.6405  1.5956 -0.8398
   10CHL1   C10  705   3.935   2.838   6.014  0.1049  0.4473 -0.3126
   10CHL1   C19  706   3.810   2.925   6.020  1.0082 -0.7879  0.0624
   10CHL1  H19A  707   3.832   3.031   5.997 -2.0045  0.1664  1.0579
   10CHL1  H19B  708   3.731   2.906   5.944  0.3303  0.8326  0.3150
   10CHL1  H19C  709   3.760   2.933   6.119  1.2093 -0.3021  0.1271
   10CHL1    C1  710   3.894   2.701   6.069 -0.2175  0.0697  0.1929
   10CHL1   H1A  711   3.802   2.662   6.019 -0.1173 -2.6557  1.9090
   10CHL1   H1B  712   3.983   2.637   6.055 -1.0058 -0.7000 -1.7372
   10CHL1    C2  713   3.863   2.695   6.224  0.1480 -0.5440 -0.4090
   10CHL1   H2A  714   3.846   2.590   6.258 -1.9569  0.0423  0.4837
   10CHL1   H2B  715   3.772   2.757   6.238 -0.5965 -1.4498 -1.1069
   10CHL1   C20  716   4.025   2.950   5.303  0.1647 -0.3454  0.5296
   10CHL1   H20  717   3.977   3.048   5.285  1.5233  0.1003 -0.9060
   10CHL1   C21  718   3.915   2.839   5.287 -0.0749 -0.2497  0.5494
   10CHL1  H21A  719   3.850   2.864   5.201 -0.2920  1.9265  1.2687
   10CHL1  H21B  720   3.848   2.849   5.375 -1.7761 -5.1715  0.1195
   10CHL1  H21C  721   3.962   2.738   5.291 -1.0931 -0.8779 -1.7077
   10CHL1   C22  722   4.133   2.948   5.194  0.2087  0.6929 -0.2338
   10CHL1  H22A  723   4.225   3.003   5.221 -0.4933  2.1412 -0.6998
   10CHL1  H22B  724   4.172   2.848   5.166 -2.9390 -0.5027 -0.8289
   10CHL1   C23  725   4.086   3.025   5.069 -0.6681  0.3620  0.0966
   10CHL1  H23A  726   3.989   2.988   5.029  0.1925  0.4039 -2.1844
   10CHL1  H23B  727   4.078   3.128   5.111 -0.6057  0.7898 -0.9032
   10CHL1   C24  728   4.194   3.029   4.959 -0.3899  0.0681 -0.1963
   10CHL1  H24A  729   4.287   3.076   4.998 -2.2529  1.6268  2.8025
   10CHL1  H24B  730   4.217   2.927   4.922  1.6213  0.1364  0.7395
   10CHL1   C25  731   4.151   3.120   4.841 -0.5730  0.4837  0.2331
   10CHL1   H25  732   4.117   3.218   4.879  1.2485  0.6812  1.5056
   10CHL1   C26  733   4.259   3.152   4.736 -0.1067  0.5410 -0.2685
   10CHL1  H26A  734   4.285   3.062   4.677 -1.2200 -1.2144  1.7605
   10CHL1  H26B  735   4.206   3.222   4.668 -0.6860  1.2763  0.9026
   10CHL1  H26C  736   4.349   3.191   4.790 -0.7603  0.7579  0.6837
   10CHL1   C27  737   4.026   3.064   4.778  0.3871 -0.5972  0.5208
   10CHL1  H27A  738   3.938   3.065   4.846  0.7538 -0.4650  0.9902
   10CHL1  H27B  739   4.009   3.110   4.678 -2.1252 -1.9121  0.2465
   10CHL1  H27C  740   4.056   2.959   4.756 -1.7133 -0.8280 -1.7675
   11CHL1    C3  741   1.222   5.482   5.715 -0.0262 -1.0866  0.0823
   11CHL1    H3  742   1.122   5.440   5.690  0.4463 -4.1473  2.7311
   11CHL1    O3  743   1.232   5.473   5.856 -0.0398  0.4919 -0.6560
   11CHL1   H3'  744   1.140   5.474   5.884 -1.2863  1.3334 -4.2877
   11CHL1    C4  745   1.336   5.398   5.654  0.0210  0.3913  0.0160
   11CHL1   H4A  746   1.430   5.441   5.695  1.0495 -0.2233 -1.6031
   11CHL1   H4B  747   1.336   5.295   5.696  1.6219  0.6720  0.7834
   11CHL1    C5  748   1.331   5.399   5.500  0.7434  0.4962  0.3013
   11CHL1    C6  749   1.306   5.285   5.435  0.8139  0.1257  0.4462
   11CHL1    H6  750   1.276   5.201   5.498  0.0831  0.8421  1.0801
   11CHL1    C7  751   1.284   5.274   5.293 -0.3576 -0.1893  0.3594
   11CHL1   H7A  752   1.358   5.202   5.251  0.0880  0.6467 -0.3290
   11CHL1   H7B  753   1.187   5.225   5.270  0.3950 -1.4337 -0.2842
   11CHL1    C8  754   1.329   5.401   5.210  0.1364  0.8532 -1.0744
   11CHL1    H8  755   1.439   5.395   5.194  0.6619 -0.1097  2.2313
   11CHL1   C14  756   1.264   5.400   5.070 -0.3192 -0.1272  0.4702
   11CHL1   H14  757   1.155   5.405   5.091 -0.8803  0.7088 -2.1768
   11CHL1   C15  758   1.279   5.277   4.980 -0.3938 -0.2314  0.9369
   11CHL1  H15A  759   1.387   5.247   4.981 -0.4434 -0.4923 -0.0033
   11CHL1  H15B  760   1.207   5.199   5.013 -0.3980 -0.6658 -0.0493
   11CHL1   C16  761   1.227   5.324   4.846 -0.1187  0.8542 -0.1358
   11CHL1  H16A  762   1.301   5.289   4.771  1.1830 -0.9525  1.8842
   11CHL1  H16B  763   1.133   5.273   4.817 -0.6971  1.2506  0.9671
   11CHL1   C17  764   1.214   5.479   4.848  0.7078 -0.7708 -0.1487
   11CHL1   H17  765   1.106   5.499   4.859  1.1507  1.3332  0.8150
   11CHL1   C13  766   1.287   5.518   4.980 -0.0805  0.0802  0.0653
   11CHL1   C18  767   1.436   5.533   4.953 -0.0456  0.4271  0.7072
   11CHL1  H18A  768   1.496   5.546   5.046 -1.1947  1.6237  1.3173
   11CHL1  H18B  769   1.482   5.445   4.905  1.7343  0.4636  2.2025
   11CHL1  H18C  770   1.456   5.614   4.880 -1.0110  0.1534  0.1407
   11CHL1   C12  771   1.247   5.644   5.057  0.1253 -0.4587 -0.0995
   11CHL1  H12A  772   1.285   5.737   5.009  0.9569 -0.2509  0.9400
   11CHL1  H12B  773   1.137   5.640   5.041  0.2760 -3.3985 -0.9163
   11CHL1   C11  774   1.294   5.662   5.197  0.3152 -0.8851 -0.3902
   11CHL1  H11A  775   1.403   5.685   5.189 -0.0390  1.8618  1.2401
   11CHL1  H11B  776   1.251   5.748   5.254  1.3926 -2.1425  2.5293
   11CHL1    C9  777   1.280   5.530   5.285 -0.2595  0.2218 -0.4452
   11CHL1    H9  778   1.169   5.526   5.289 -0.4505  1.7128 -2.5015
   11CHL1   C10  779   1.330   5.541   5.436  0.2072 -0.3754 -0.9646
   11CHL1   C19  780   1.476   5.594   5.442  0.3322 -0.0105 -0.0817
   11CHL1  H19A  781   1.540   5.514   5.399 -0.7963 -0.6737 -0.5811
   11CHL1  H19B  782   1.484   5.685   5.379  0.9919 -0.8560 -1.2613
   11CHL1  H19C  783   1.511   5.612   5.546 -0.3976  0.3563  0.1051
   11CHL1    C1  784   1.238   5.633   5.512 -0.7398  0.0315  0.6020
   11CHL1   H1A  785   1.239   5.739   5.477  0.5815 -0.1860 -0.0634
   11CHL1   H1B  786   1.136   5.599   5.484 -0.2076  0.2035 -1.7415
   11CHL1    C2  787   1.238   5.622   5.663 -0.4521 -0.5807  0.4120
   11CHL1   H2A  788   1.165   5.696   5.702 -1.0061  0.4818 -2.4281
   11CHL1   H2B  789   1.335   5.658   5.704  0.0414 -0.7049 -0.6188
   11CHL1   C20  790   1.250   5.545   4.714  0.3314  0.0950 -0.1349
   11CHL1   H20  791   1.359   5.543   4.692 -0.3043 -0.8336 -3.7239
   11CHL1   C21  792   1.212   5.691   4.712  0.1189 -0.8534  0.0668
   11CHL1  H21A  793   1.293   5.756   4.675 -0.0521  0.1324  1.3631
   11CHL1  H21B  794   1.199   5.731   4.815  2.1794  0.2120 -0.0453
   11CHL1  H21C  795   1.119   5.704   4.653  0.2538 -1.8109 -0.3819
   11CHL1   C22  796   1.186   5.482   4.594  0.9364 -0.0175 -0.4238
   11CHL1  H22A  797   1.194   5.372   4.594 -1.8771 -0.3232  1.3813
   11CHL1  H22B  798   1.077   5.502   4.586  1.2712  1.2653 -4.4002
   11CHL1   C23  799   1.250   5.522   4.459 -0.1201 -0.0713 -0.1579
   11CHL1  H23A  800   1.257   5.632   4.450 -0.3781 -0.0048  0.3899
   11CHL1  H23B  801   1.353   5.479   4.458  0.5694  1.4393  1.4193
   11CHL1   C24  802   1.172   5.456   4.344 -0.1864 -0.6809 -0.7055
   11CHL1  H24A  803   1.176   5.345   4.356  2.7845 -0.5023  0.5906
   11CHL1  H24B  804   1.070   5.499   4.340 -0.4029 -0.7240  2.2255
   11CHL1   C25  805   1.237   5.489   4.201  0.0066  0.2985 -0.0990
   11CHL1   H25  806   1.191   5.580   4.156  0.5071  0.3343 -0.5469
   11CHL1   C26  807   1.391   5.519   4.203  0.3483  0.0737 -0.4421
   11CHL1  H26A  808   1.418   5.608   4.265  0.5722  0.3518 -0.9288
   11CHL1  H26B  809   1.451   5.435   4.243 -0.3681 -0.1429  0.1876
   11CHL1  H26C  810   1.433   5.556   4.107  0.4973  2.0496  0.3236
   11CHL1   C27  811   1.216   5.367   4.103 -0.3737  0.3020  0.1026
   11CHL1  H27A  812   1.314   5.316   4.101  0.6437  2.1676 -0.6753
   11CHL1  H27B  813   1.131   5.308   4.145 -0.1948 -0.1957 -0.2251
   11CHL1  H27C  814   1.189   5.398   4.000 -0.1487  0.6253  0.1390
   12CHL1    C3  815   1.789   4.377   5.834 -0.0843 -0.3128  0.0746
   12CHL1    H3  816   1.845   4.282   5.848  0.1618 -0.1308  0.3393
   12CHL1    O3  817   1.748   4.421   5.963 -0.7335  0.4037 -0.6108
   12CHL1   H3'  818   1.720   4.343   6.010 -0.0336 -0.0451 -0.9154
   12CHL1    C4  819   1.894   4.485   5.779  0.6257 -0.3200  0.4229
   12CHL1   H4A  820   1.847   4.584   5.796 -0.6283 -0.1468 -3.2126
   12CHL1   H4B  821   1.986   4.482   5.840  1.4232  2.1867 -0.5373
   12CHL1    C5  822   1.927   4.475   5.629 -0.4639  0.1457 -0.1250
   12CHL1    C6  823   2.050   4.474   5.589 -0.8956 -0.5711 -0.1451
   12CHL1    H6  824   2.125   4.495   5.667 -0.0048  1.7667 -1.5305
   12CHL1    C7  825   2.103   4.445   5.457 -0.0685 -0.2081 -0.5069
   12CHL1   H7A  826   2.188   4.511   5.431  0.1388 -0.0966  0.4351
   12CHL1   H7B  827   2.135   4.339   5.459  0.0824 -0.1559 -0.1452
   12CHL1    C8  828   1.994   4.462   5.347 -0.8422  0.1312  0.2894
   12CHL1    H8  829   1.989   4.570   5.322 -0.3832  0.5718  1.9879
   12CHL1   C14  830   2.041   4.384   5.219 -0.1915 -0.1054  0.1799
   12CHL1   H14  831   2.029   4.277   5.247  1.7902 -0.3285  0.3347
   12CHL1   C15  832   2.190   4.383   5.171  0.0337  0.8688  0.5854
   12CHL1  H15A  833   2.233   4.485   5.167 -0.5097  1.1047  0.5327
   12CHL1  H15B  834   2.262   4.334   5.239  0.5216 -0.8958 -1.1238
   12CHL1   C16  835   2.177   4.316   5.030 -0.1671 -0.2725  0.0887
   12CHL1  H16A  836   2.223   4.373   4.947  0.2008 -1.2328 -0.3843
   12CHL1  H16B  837   2.223   4.215   5.021  1.9433  0.7967 -2.4701
   12CHL1   C17  838   2.027   4.308   4.995 -0.6377 -0.5942 -0.1763
   12CHL1   H17  839   1.999   4.203   5.020 -1.5416 -0.0782  1.0825
   12CHL1   C13  840   1.950   4.400   5.098  0.0762  0.5514 -0.3280
   12CHL1   C18  841   1.960   4.547   5.042  0.0494  0.4309 -0.4157
   12CHL1  H18A  842   1.915   4.626   5.105 -3.2711  0.3592 -2.4167
   12CHL1  H18B  843   2.063   4.579   5.017  0.0929  0.6262  0.0144
   12CHL1  H18C  844   1.898   4.555   4.949 -0.2420  3.4924 -0.0685
   12CHL1   C12  845   1.805   4.353   5.133 -0.1277 -0.7974  0.1592
   12CHL1  H12A  846   1.729   4.378   5.056 -2.8175 -0.2345  2.8046
   12CHL1  H12B  847   1.800   4.248   5.169  0.5993 -0.2469  1.9870
   12CHL1   C11  848   1.761   4.426   5.263  0.1758 -0.6998  0.1016
   12CHL1  H11A  849   1.765   4.535   5.239 -3.3710 -0.0046  1.9351
   12CHL1  H11B  850   1.654   4.409   5.289  0.3460 -2.8781 -0.4781
   12CHL1    C9  851   1.861   4.404   5.385 -0.1422  0.1594 -0.2905
   12CHL1    H9  852   1.875   4.294   5.392  0.5160  0.3424  1.9558
   12CHL1   C10  853   1.812   4.450   5.532  0.2189 -0.1511 -1.0444
   12CHL1   C19  854   1.727   4.585   5.527 -0.3774  0.7111  0.2741
   12CHL1  H19A  855   1.689   4.607   5.630  0.3317 -0.7468  0.8770
   12CHL1  H19B  856   1.793   4.664   5.486  0.7508 -0.5227 -0.3770
   12CHL1  H19C  857   1.641   4.572   5.458  0.4979  2.3455 -1.2007
   12CHL1    C1  858   1.722   4.341   5.590 -0.0509  0.0013 -0.0739
   12CHL1   H1A  859   1.630   4.337   5.528  0.3495  0.1940 -0.6890
   12CHL1   H1B  860   1.760   4.237   5.597 -0.1986 -0.0516 -0.0523
   12CHL1    C2  861   1.672   4.367   5.738  0.0045 -0.0668 -0.5516
   12CHL1   H2A  862   1.618   4.279   5.780 -1.5927  1.1393  0.0159
   12CHL1   H2B  863   1.602   4.453   5.745 -0.4800 -0.3023 -2.1496
   12CHL1   C20  864   1.991   4.325   4.844  0.7087 -0.3755  0.1815
   12CHL1   H20  865   2.001   4.431   4.813 -0.9046 -0.3708 -0.4355
   12CHL1   C21  866   1.846   4.293   4.822 -0.3146 -0.0029 -0.2013
   12CHL1  H21A  867   1.786   4.376   4.866 -0.6279 -0.0563 -0.5237
   12CHL1  H21B  868   1.819   4.200   4.876 -0.6496  0.2246  0.0221
   12CHL1  H21C  869   1.821   4.280   4.715 -1.0531 -0.2759  0.0024
   12CHL1   C22  870   2.089   4.244   4.753 -0.4193 -0.4090 -0.2766
   12CHL1  H22A  871   2.195   4.232   4.784  0.4531  1.1148 -2.4347
   12CHL1  H22B  872   2.061   4.136   4.747  0.6278 -0.8350  1.6152
   12CHL1   C23  873   2.092   4.299   4.611  0.4846  0.4058  0.8275
   12CHL1  H23A  874   2.160   4.227   4.560 -0.4707  1.1797 -1.7042
   12CHL1  H23B  875   1.991   4.290   4.566  1.2588 -0.3179 -0.8533
   12CHL1   C24  876   2.153   4.440   4.592 -0.0205  0.0874  0.0648
   12CHL1  H24A  877   2.098   4.509   4.659 -0.3303 -0.2139  0.1267
   12CHL1  H24B  878   2.261   4.429   4.611  0.3748  1.8075 -0.9377
   12CHL1   C25  879   2.149   4.486   4.442 -0.4069 -0.2378 -0.0920
   12CHL1   H25  880   2.042   4.490   4.414 -0.5394 -1.2425  0.2054
   12CHL1   C26  881   2.188   4.637   4.433  0.2610  0.1606  1.1551
   12CHL1  H26A  882   2.138   4.697   4.512 -1.6299  0.4932 -0.2073
   12CHL1  H26B  883   2.298   4.649   4.441  0.6262 -0.9747 -1.2949
   12CHL1  H26C  884   2.145   4.685   4.342 -0.9210  1.3528  2.3068
   12CHL1   C27  885   2.212   4.396   4.334 -0.4069 -0.0843 -0.4359
   12CHL1  H27A  886   2.168   4.295   4.343  0.8607 -0.5060  1.9385
   12CHL1  H27B  887   2.198   4.451   4.239 -0.6116  0.5099 -0.0668
   12CHL1  H27C  888   2.320   4.386   4.358 -0.4603  0.0333 -0.1387
   13CHL1    C3  889   0.078   5.199   6.004 -0.2712  0.0323 -0.0839
   13CHL1    H3  890   0.072   5.089   5.985 -3.3993 -0.2304  1.6611
   13CHL1    O3  891   0.070   5.220   6.144  0.6791  0.1213 -0.3506
   13CHL1   H3'  892   0.005   5.156   6.173 -0.9895  1.7865 -0.2638
   13CHL1    C4  893   0.215   5.249   5.951  0.1023 -0.6965  0.1353
   13CHL1   H4A  894   0.223   5.357   5.977 -0.0133 -1.2607  2.7849
   13CHL1   H4B  895   0.296   5.201   6.009 -0.4010  0.6056  2.0065
   13CHL1    C5  896   0.229   5.225   5.795  0.7617  0.6010  0.1741
   13CHL1    C6  897   0.329   5.150   5.743 -0.3083  0.0152 -0.3673
   13CHL1    H6  898   0.401   5.106   5.814  0.1744  1.0026 -0.2308
   13CHL1    C7  899   0.345   5.120   5.595  0.0242 -0.0729  0.2033
   13CHL1   H7A  900   0.451   5.133   5.566 -0.7684  1.5805 -2.1338
   13CHL1   H7B  901   0.314   5.014   5.578 -0.2416 -0.1566  1.1162
   13CHL1    C8  902   0.252   5.219   5.514  0.6479  0.3120 -1.0194
   13CHL1    H8  903   0.287   5.325   5.515  1.0969  0.1612 -0.4084
   13CHL1   C14  904   0.258   5.168   5.372  0.0585  0.0425  0.2547
   13CHL1   H14  905   0.242   5.059   5.385 -0.1803  0.0098 -0.2895
   13CHL1   C15  906   0.393   5.183   5.306  0.4310  0.1120  0.3632
   13CHL1  H15A  907   0.447   5.279   5.321  0.7048  0.2499 -1.2848
   13CHL1  H15B  908   0.468   5.110   5.344  0.5402 -0.3694 -0.7443
   13CHL1   C16  909   0.366   5.179   5.157  0.0334  0.8311  0.2368
   13CHL1  H16A  910   0.398   5.275   5.113 -2.2731  1.1979 -0.7990
   13CHL1  H16B  911   0.416   5.094   5.106  1.4466  1.5230  0.4246
   13CHL1   C17  912   0.212   5.169   5.135  0.2811  0.3332  0.4415
   13CHL1   H17  913   0.176   5.063   5.132 -0.6288  0.6220  0.8787
   13CHL1   C13  914   0.156   5.228   5.272  0.4158  0.3413  0.3665
   13CHL1   C18  915   0.182   5.386   5.260 -0.4798 -0.0556 -0.0965
   13CHL1  H18A  916   0.289   5.413   5.242 -1.2705  2.2832 -1.7323
   13CHL1  H18B  917   0.135   5.430   5.170 -1.2213  3.6610  1.9018
   13CHL1  H18C  918   0.152   5.445   5.350 -2.9695 -0.2761 -0.7189
   13CHL1   C12  919   0.018   5.195   5.324  0.1069  0.0335 -0.6202
   13CHL1  H12A  920  -0.064   5.241   5.264 -1.5786 -1.0360  0.7790
   13CHL1  H12B  921  -0.008   5.089   5.306  0.5281  0.0788 -1.5866
   13CHL1   C11  922  -0.003   5.240   5.475  0.1309  0.6944  0.2240
   13CHL1  H11A  923  -0.018   5.350   5.473  1.6008  0.9620  1.6434
   13CHL1  H11B  924  -0.102   5.203   5.510  0.5382 -1.7886 -1.0145
   13CHL1    C9  925   0.115   5.204   5.570 -0.2948 -0.3593 -0.0671
   13CHL1    H9  926   0.103   5.094   5.582  2.5651 -0.8057 -0.5177
   13CHL1   C10  927   0.108   5.267   5.711  0.3086 -0.6830 -0.6711
   13CHL1   C19  928   0.115   5.425   5.702 -0.2270  0.6147  0.1529
   13CHL1  H19A  929   0.041   5.448   5.623 -0.2190  2.9526  0.7592
   13CHL1  H19B  930   0.083   5.475   5.795  2.6847 -0.1807  1.7148
   13CHL1  H19C  931   0.217   5.458   5.671 -0.3242 -0.9099 -2.0345
   13CHL1    C1  932  -0.027   5.226   5.771 -1.0357 -0.0964 -0.7000
   13CHL1   H1A  933  -0.106   5.280   5.715 -0.8272 -0.7787 -1.6810
   13CHL1   H1B  934  -0.034   5.115   5.769  1.0829 -0.4463  2.6434
   13CHL1    C2  935  -0.031   5.262   5.922  0.4164  0.5352  0.3639
   13CHL1   H2A  936  -0.128   5.231   5.967  0.8617 -0.1296  0.8977
   13CHL1   H2B  937  -0.034   5.372   5.934  1.2241  0.4279  1.8106
   13CHL1   C20  938   0.166   5.225   4.995  0.6388 -0.5356 -0.3659
   13CHL1   H20  939   0.194   5.332   4.985 -0.4692 -0.2869 -0.9049
   13CHL1   C21  940   0.012   5.221   4.991 -0.0819 -0.4463  0.1011
   13CHL1  H21A  941  -0.019   5.115   5.001  2.2786 -1.1763  0.1752
   13CHL1  H21B  942  -0.023   5.261   4.892 -0.1416 -2.0072 -0.5307
   13CHL1  H21C  943  -0.027   5.300   5.059 -0.0021 -1.1953  1.0311
   13CHL1   C22  944   0.234   5.140   4.885  0.1768 -0.6317 -0.0259
   13CHL1  H22A  945   0.345   5.149   4.893  0.0962 -0.5884  1.2153
   13CHL1  H22B  946   0.212   5.032   4.895 -2.5039  0.0194  2.4395
   13CHL1   C23  947   0.205   5.176   4.740  0.3293  0.0141 -0.3324
   13CHL1  H23A  948   0.101   5.140   4.727  0.1633  0.6575 -0.8155
   13CHL1  H23B  949   0.219   5.285   4.724 -1.3262 -0.0495 -2.7574
   13CHL1   C24  950   0.292   5.094   4.640  0.4658 -0.2150 -0.2451
   13CHL1  H24A  951   0.395   5.127   4.666 -0.0028  1.6428 -0.6023
   13CHL1  H24B  952   0.278   4.988   4.671 -0.8335  0.6665  2.5441
   13CHL1   C25  953   0.250   5.117   4.491  0.1101 -0.6903 -0.7593
   13CHL1   H25  954   0.140   5.098   4.488  0.0398 -0.7426  1.0517
   13CHL1   C26  955   0.274   5.263   4.443  0.5374  0.7996 -0.7468
   13CHL1  H26A  956   0.379   5.296   4.459 -0.2083  1.8852  2.8386
   13CHL1  H26B  957   0.236   5.286   4.341 -0.3038 -0.1241 -0.6504
   13CHL1  H26C  958   0.215   5.329   4.510 -0.6174  1.3043 -2.2097
   13CHL1   C27  959   0.331   5.023   4.397  0.0223  0.3535  0.6582
   13CHL1  H27A  960   0.441   5.040   4.402  0.4556 -1.8873  0.0862
   13CHL1  H27B  961   0.315   4.915   4.415 -0.8495  0.6391  1.6622
   13CHL1  H27C  962   0.303   5.030   4.290 -1.4797  0.5865  1.0481
   14CHL1    C3  963   0.792   2.566   5.914 -0.5788 -0.1879  0.8295
   14CHL1    H3  964   0.725   2.501   5.854  0.2264  1.1914 -1.7620
   14CHL1    O3  965   0.822   2.503   6.039  0.1074 -0.8142  0.3021
   14CHL1   H3'  966   0.903   2.549   6.060  0.0483 -0.0848 -0.9286
   14CHL1    C4  967   0.922   2.581   5.841  0.2291 -0.5139 -0.0705
   14CHL1   H4A  968   0.997   2.646   5.891  1.7171 -2.6975  0.6804
   14CHL1   H4B  969   0.982   2.488   5.831 -0.6539 -1.0048 -1.0457
   14CHL1    C5  970   0.894   2.639   5.704  0.4391  0.2712 -0.6629
   14CHL1    C6  971   0.924   2.566   5.594 -0.1230  0.7081 -0.7513
   14CHL1    H6  972   0.956   2.461   5.599 -1.2667  0.3474 -0.7543
   14CHL1    C7  973   0.918   2.609   5.455 -0.1915 -0.3195 -0.5053
   14CHL1   H7A  974   1.018   2.594   5.409  1.1515 -0.6054  2.3109
   14CHL1   H7B  975   0.840   2.556   5.396  0.8469 -0.1250 -2.1179
   14CHL1    C8  976   0.879   2.762   5.446 -0.5634  0.3638 -0.0738
   14CHL1    H8  977   0.969   2.824   5.465 -0.2816 -0.5985  2.0044
   14CHL1   C14  978   0.814   2.792   5.305 -0.8028  0.1677 -0.1815
   14CHL1   H14  979   0.732   2.718   5.296  1.5420 -2.5988 -0.1374
   14CHL1   C15  980   0.913   2.757   5.191  0.3807 -0.7372  0.0690
   14CHL1  H15A  981   1.019   2.787   5.208 -0.1793  0.4404  1.9227
   14CHL1  H15B  982   0.926   2.649   5.172  2.0689 -0.7994  1.3497
   14CHL1   C16  983   0.839   2.816   5.074  0.5377 -0.1237  0.4766
   14CHL1  H16A  984   0.900   2.888   5.015 -0.6165  0.5450  0.0617
   14CHL1  H16B  985   0.810   2.735   5.003  1.0309  0.6767 -0.6565
   14CHL1   C17  986   0.719   2.901   5.128  0.0478 -0.2331 -0.4492
   14CHL1   H17  987   0.634   2.833   5.149 -0.0376  0.2098  0.7298
   14CHL1   C13  988   0.767   2.933   5.274  0.4444 -0.2519  0.5710
   14CHL1   C18  989   0.878   3.038   5.279  0.3808 -0.2660  0.2678
   14CHL1  H18A  990   0.832   3.138   5.263  2.1228  0.2115 -2.5136
   14CHL1  H18B  991   0.927   3.053   5.377  0.8371  0.2454 -0.0326
   14CHL1  H18C  992   0.962   3.022   5.207  0.5217 -0.8085  0.5470
   14CHL1   C12  993   0.659   2.964   5.382  0.1211 -0.2315  0.4063
   14CHL1  H12A  994   0.640   3.074   5.379 -0.4170 -0.3409 -0.4271
   14CHL1  H12B  995   0.557   2.929   5.359 -0.0782  1.0219 -0.7570
   14CHL1   C11  996   0.715   2.941   5.524  0.2962 -0.6824  0.5201
   14CHL1  H11A  997   0.804   3.006   5.539 -0.4982  0.8802 -1.1425
   14CHL1  H11B  998   0.636   2.978   5.593  1.2343  0.9453  0.7708
   14CHL1    C9  999   0.772   2.802   5.556  0.4589  0.6025  0.4102
   14CHL1    H9 1000   0.690   2.729   5.539  2.2848 -1.9590  2.0047
   14CHL1   C10 1001   0.832   2.776   5.699  1.2565  0.6026 -0.4649
   14CHL1   C19 1002   0.941   2.882   5.731 -0.5822  0.7583 -0.0411
   14CHL1  H19A 1003   0.885   2.976   5.747 -1.4728  0.3944 -0.9809
   14CHL1  H19B 1004   0.986   2.857   5.830 -1.2677  0.7205  0.2671
   14CHL1  H19C 1005   1.022   2.886   5.656 -0.5686  2.0507  0.0188
   14CHL1    C1 1006   0.707   2.776   5.807 -1.1123  0.2206  0.5755
   14CHL1   H1A 1007   0.684   2.879   5.841 -1.9254 -0.1206  1.0881
   14CHL1   H1B 1008   0.620   2.735   5.751  0.1903 -1.2449 -0.4684
   14CHL1    C2 1009   0.734   2.702   5.941  0.1975 -0.8935 -0.4554
   14CHL1   H2A 1010   0.643   2.689   6.003 -0.6562  1.8460 -0.9889
   14CHL1   H2B 1011   0.809   2.765   5.995  0.3749  0.1732 -1.8787
   14CHL1   C20 1012   0.670   3.011   5.037 -0.2505 -0.4861 -0.0202
   14CHL1   H20 1013   0.756   3.082   5.030 -1.1591  0.5477 -0.9795
   14CHL1   C21 1014   0.562   3.103   5.109  0.0006  0.0675  0.2504
   14CHL1  H21A 1015   0.603   3.157   5.197  0.2760  0.6340 -0.2166
   14CHL1  H21B 1016   0.472   3.044   5.135 -0.0168 -0.8046 -1.5943
   14CHL1  H21C 1017   0.530   3.183   5.038 -2.7697 -1.3104 -0.1922
   14CHL1   C22 1018   0.627   2.954   4.898 -0.5667 -0.7109  0.3348
   14CHL1  H22A 1019   0.714   2.906   4.848  0.3232 -0.8297  1.9250
   14CHL1  H22B 1020   0.557   2.869   4.915 -0.5574 -0.6154  0.8925
   14CHL1   C23 1021   0.557   3.043   4.804  0.1544  0.2058 -0.6672
   14CHL1  H23A 1022   0.454   3.062   4.840  0.4844  0.8222 -0.0269
   14CHL1  H23B 1023   0.609   3.141   4.810 -0.7506  0.5936  2.2027
   14CHL1   C24 1024   0.565   2.988   4.660  0.0216 -0.7668 -0.3410
   14CHL1  H24A 1025   0.531   3.056   4.579 -1.5740 -2.4660 -1.1550
   14CHL1  H24B 1026   0.675   2.974   4.649  0.7968  3.4317  0.4674
   14CHL1   C25 1027   0.490   2.863   4.624 -0.0870  0.3411 -0.1726
   14CHL1   H25 1028   0.530   2.774   4.679  0.9941  0.5249 -0.6287
   14CHL1   C26 1029   0.337   2.870   4.649 -0.6165  0.7085  0.4432
   14CHL1  H26A 1030   0.313   2.857   4.756 -1.1742 -1.1023  0.1291
   14CHL1  H26B 1031   0.303   2.963   4.598  0.0942 -0.4554 -2.3687
   14CHL1  H26C 1032   0.299   2.785   4.589  1.8951  0.4314 -0.8541
   14CHL1   C27 1033   0.511   2.840   4.478 -0.5174 -0.1860  0.3097
   14CHL1  H27A 1034   0.454   2.753   4.439 -0.6178  0.3049 -0.6549
   14CHL1  H27B 1035   0.455   2.922   4.429 -1.2658 -1.0431 -0.3111
   14CHL1  H27C 1036   0.616   2.853   4.445 -1.2838 -1.7895 -3.1990
   15CHL1    C3 1037   6.701   6.259   5.989 -0.4465  0.0362  0.1948
   15CHL1    H3 1038   6.758   6.354   5.985 -0.5020  0.0248 -2.1826
   15CHL1    O3 1039   6.657   6.236   6.122 -0.0642  0.7306  0.0406
   15CHL1   H3' 1040   6.569   6.273   6.130 -0.3216  0.2904 -0.6262
   15CHL1    C4 1041   6.573   6.282   5.900  0.3463 -0.3296  1.2515
   15CHL1   H4A 1042   6.508   6.193   5.893  0.5997 -0.5214  1.3158
   15CHL1   H4B 1043   6.507   6.364   5.936  1.2710  0.9669  0.1057
   15CHL1    C5 1044   6.607   6.315   5.753  0.9350  0.3621 -0.0682
   15CHL1    C6 1045   6.568   6.426   5.687 -0.6995 -0.1393 -0.4834
   15CHL1    H6 1046   6.509   6.503   5.738 -1.6547 -0.3229 -1.2686
   15CHL1    C7 1047   6.598   6.449   5.542  0.2535  0.0824  0.2700
   15CHL1   H7A 1048   6.501   6.465   5.491 -0.2967  0.9775  1.5577
   15CHL1   H7B 1049   6.673   6.527   5.516  2.6275 -1.3623  2.2724
   15CHL1    C8 1050   6.647   6.323   5.473 -0.2159  0.9124  0.1830
   15CHL1    H8 1051   6.559   6.259   5.451  0.2102  0.6752 -0.8919
   15CHL1   C14 1052   6.706   6.350   5.331  0.0461  0.3106 -0.7603
   15CHL1   H14 1053   6.787   6.426   5.341  1.3197 -1.2974  2.7663
   15CHL1   C15 1054   6.608   6.413   5.229 -0.0892  0.1209  0.6246
   15CHL1  H15A 1055   6.503   6.377   5.227 -0.3560  0.8498 -1.7113
   15CHL1  H15B 1056   6.601   6.521   5.257 -0.5818  0.5663 -1.0846
   15CHL1   C16 1057   6.683   6.393   5.097 -0.2875 -0.2082 -0.3383
   15CHL1  H16A 1058   6.607   6.351   5.028 -0.8059 -3.0551  1.7837
   15CHL1  H16B 1059   6.724   6.488   5.054 -0.8804  0.1271 -0.1724
   15CHL1   C17 1060   6.788   6.283   5.117 -1.0394 -0.1224  0.5262
   15CHL1   H17 1061   6.883   6.339   5.135 -1.3237  0.4694  0.2229
   15CHL1   C13 1062   6.763   6.227   5.259  0.9848  1.0720 -0.8270
   15CHL1   C18 1063   6.650   6.120   5.243  0.5310  0.0645  0.3421
   15CHL1  H18A 1064   6.613   6.075   5.337 -1.4991  0.4287 -0.2487
   15CHL1  H18B 1065   6.558   6.169   5.205  1.0877 -0.2598 -1.5465
   15CHL1  H18C 1066   6.673   6.033   5.178 -0.7830  0.4148 -0.6315
   15CHL1   C12 1067   6.879   6.173   5.348  0.1034 -0.7151 -0.1948
   15CHL1  H12A 1068   6.928   6.083   5.306 -1.7800 -2.1746  0.5873
   15CHL1  H12B 1069   6.951   6.258   5.347 -1.3657  0.5935  0.2526
   15CHL1   C11 1070   6.827   6.135   5.487 -0.6683  0.7879 -0.2458
   15CHL1  H11A 1071   6.768   6.043   5.468  0.7173 -0.0508 -0.6483
   15CHL1  H11B 1072   6.911   6.094   5.546  0.6797  1.0868 -1.8699
   15CHL1    C9 1073   6.754   6.252   5.554 -0.6678  0.0052 -0.4535
   15CHL1    H9 1074   6.829   6.330   5.579 -2.2193  1.1905  0.6352
   15CHL1   C10 1075   6.700   6.209   5.693  0.3628 -0.1945 -0.0290
   15CHL1   C19 1076   6.625   6.066   5.673 -0.1403  0.4982 -0.3860
   15CHL1  H19A 1077   6.572   6.041   5.768 -1.2833 -0.2095 -1.1884
   15CHL1  H19B 1078   6.557   6.064   5.586 -0.0171  1.0569 -0.4993
   15CHL1  H19C 1079   6.698   5.983   5.670 -1.6898 -0.8842 -1.1664
   15CHL1    C1 1080   6.819   6.178   5.789  0.3217 -0.1085 -0.7218
   15CHL1   H1A 1081   6.880   6.092   5.754  2.1070  1.1971 -0.8998
   15CHL1   H1B 1082   6.882   6.268   5.804  0.7662 -0.4476 -0.5360
   15CHL1    C2 1083   6.783   6.148   5.938  0.0287  0.2558  0.3730
   15CHL1   H2A 1084   6.875   6.136   5.999 -0.5775 -0.9153  1.0922
   15CHL1   H2B 1085   6.726   6.054   5.949 -0.6885  0.9144  2.8675
   15CHL1   C20 1086   6.804   6.191   5.000  0.6013  0.2868  1.5144
   15CHL1   H20 1087   6.707   6.136   4.992  0.6183  0.4896 -0.8808
   15CHL1   C21 1088   6.923   6.100   5.015  0.2800  0.2142 -0.1013
   15CHL1  H21A 1089   7.024   6.148   5.019  0.8385 -0.6879 -1.9226
   15CHL1  H21B 1090   6.921   6.027   4.931 -1.1858  1.0562 -0.8509
   15CHL1  H21C 1091   6.912   6.040   5.107 -1.5355  1.4109  0.5124
   15CHL1   C22 1092   6.804   6.266   4.857 -0.3334 -0.0841 -0.4722
   15CHL1  H22A 1093   6.770   6.196   4.778 -3.6348  1.3580 -0.4823
   15CHL1  H22B 1094   6.737   6.354   4.851  0.9317  1.0660  1.0851
   15CHL1   C23 1095   6.941   6.338   4.821  0.0817 -0.5586  0.3855
   15CHL1  H23A 1096   6.961   6.394   4.915 -0.0841 -0.7935  0.5626
   15CHL1  H23B 1097   7.024   6.265   4.813  0.3991  0.0184 -3.0418
   15CHL1   C24 1098   6.935   6.431   4.705 -0.1865 -1.0148 -0.0922
   15CHL1  H24A 1099   6.902   6.383   4.611 -0.3004 -2.8350  0.8209
   15CHL1  H24B 1100   6.865   6.516   4.723  1.0832  0.5676 -2.1237
   15CHL1   C25 1101   7.068   6.499   4.675  0.8151  0.3068  0.2417
   15CHL1   H25 1102   7.092   6.554   4.768  1.4482  0.5793 -0.0761
   15CHL1   C26 1103   7.182   6.407   4.634 -0.1202  0.3454  0.2751
   15CHL1  H26A 1104   7.275   6.467   4.629 -0.8278  1.3932 -1.9216
   15CHL1  H26B 1105   7.196   6.323   4.705 -3.0302 -1.5110 -1.1099
   15CHL1  H26C 1106   7.176   6.348   4.540  3.6536  2.1511 -1.2805
   15CHL1   C27 1107   7.049   6.616   4.565 -0.0804  0.0184  0.5043
   15CHL1  H27A 1108   6.989   6.701   4.606  0.3782  0.5300  0.1205
   15CHL1  H27B 1109   7.141   6.669   4.535 -0.2923  2.2601  3.3298
   15CHL1  H27C 1110   7.002   6.583   4.470  2.1589 -0.9906 -0.3170
   16CHL1    C3 1111   4.446   5.397   5.942 -0.3547  0.3085  0.5976
   16CHL1    H3 1112   4.552   5.425   5.924 -0.2819 -0.8309 -1.0041
   16CHL1    O3 1113   4.422   5.438   6.077  0.4536  0.2838 -0.2952
   16CHL1   H3' 1114   4.469   5.521   6.083  2.7357 -1.0220  1.3598
   16CHL1    C4 1115   4.361   5.475   5.844  0.2691 -0.1648 -0.2485
   16CHL1   H4A 1116   4.263   5.433   5.874  0.6073 -0.9308 -0.1838
   16CHL1   H4B 1117   4.373   5.581   5.876  0.9645  0.7367 -3.1573
   16CHL1    C5 1118   4.388   5.438   5.702  0.5270 -0.1475 -0.6242
   16CHL1    C6 1119   4.426   5.527   5.615 -0.0587 -0.1381  0.0915
   16CHL1    H6 1120   4.420   5.634   5.638 -2.4624  0.7065 -3.7671
   16CHL1    C7 1121   4.467   5.505   5.469  0.6282 -0.4357  0.7205
   16CHL1   H7A 1122   4.411   5.571   5.399  1.1088  0.6166  1.2998
   16CHL1   H7B 1123   4.573   5.537   5.463  0.2668  0.7450  0.1133
   16CHL1    C8 1124   4.455   5.359   5.421 -0.2854  0.3270  0.6988
   16CHL1    H8 1125   4.349   5.333   5.397 -1.0311  3.4519  0.1800
   16CHL1   C14 1126   4.542   5.331   5.298 -0.1454  1.0711 -0.0878
   16CHL1   H14 1127   4.646   5.352   5.332  0.5473 -0.3244 -1.2324
   16CHL1   C15 1128   4.524   5.429   5.183 -0.4678  0.4443  0.0746
   16CHL1  H15A 1129   4.419   5.460   5.164 -0.9818 -1.4226 -0.3487
   16CHL1  H15B 1130   4.577   5.523   5.210  1.7735 -1.2783  2.1831
   16CHL1   C16 1131   4.596   5.356   5.068  0.0085  0.2436 -0.2307
   16CHL1  H16A 1132   4.521   5.333   4.989 -0.3664  0.6233  0.0080
   16CHL1  H16B 1133   4.678   5.411   5.018  0.7291  0.6170  1.3051
   16CHL1   C17 1134   4.641   5.225   5.125  0.8116  0.1541  0.6024
   16CHL1   H17 1135   4.739   5.259   5.165  1.3703  0.4907 -0.9524
   16CHL1   C13 1136   4.554   5.185   5.247 -0.6125  0.4527 -0.2352
   16CHL1   C18 1137   4.423   5.135   5.200  0.0593  0.1725 -0.7643
   16CHL1  H18A 1138   4.349   5.125   5.283  0.8856  4.0563  0.6185
   16CHL1  H18B 1139   4.364   5.192   5.124  1.0247  4.3921  1.3899
   16CHL1  H18C 1140   4.445   5.032   5.164  0.7978  0.2206 -0.4625
   16CHL1   C12 1141   4.608   5.100   5.366 -0.0831 -0.7672  0.3991
   16CHL1  H12A 1142   4.608   4.990   5.346 -0.3299 -0.5495 -0.9209
   16CHL1  H12B 1143   4.713   5.131   5.384 -0.6947  1.9402 -0.3599
   16CHL1   C11 1144   4.520   5.129   5.494 -0.2081 -0.0426  0.4878
   16CHL1  H11A 1145   4.419   5.087   5.473 -0.6443  1.2131  0.0087
   16CHL1  H11B 1146   4.560   5.060   5.572 -1.0643 -0.3449  0.6695
   16CHL1    C9 1147   4.501   5.271   5.538  0.0874 -0.5601 -0.4256
   16CHL1    H9 1148   4.603   5.305   5.569 -0.7908  1.0725  0.8610
   16CHL1   C10 1149   4.416   5.287   5.672  0.1854  0.2916  0.8174
   16CHL1   C19 1150   4.280   5.223   5.662  0.3573 -1.0702 -0.6753
   16CHL1  H19A 1151   4.215   5.272   5.587  0.6110 -1.5423 -1.2160
   16CHL1  H19B 1152   4.278   5.113   5.643  1.1012 -1.3658  0.7720
   16CHL1  H19C 1153   4.229   5.230   5.761  2.1093  0.2164  0.1817
   16CHL1    C1 1154   4.491   5.202   5.788  0.6320 -0.3704  0.5026
   16CHL1   H1A 1155   4.464   5.095   5.777  0.9981 -0.2956 -1.4036
   16CHL1   H1B 1156   4.600   5.221   5.786  0.6934 -0.5682  1.3920
   16CHL1    C2 1157   4.441   5.245   5.930 -0.3051  0.1162 -0.3739
   16CHL1   H2A 1158   4.509   5.220   6.014  0.6672  1.6339 -0.6720
   16CHL1   H2B 1159   4.337   5.218   5.959 -0.9002  0.9868 -1.6374
   16CHL1   C20 1160   4.665   5.107   5.024 -0.4998  0.0822 -0.4580
   16CHL1   H20 1161   4.567   5.072   4.984 -0.8660  0.4484  0.1031
   16CHL1   C21 1162   4.728   4.987   5.096 -0.1048  0.5005 -0.2261
   16CHL1  H21A 1163   4.805   5.015   5.172 -0.1204  1.1370 -0.4407
   16CHL1  H21B 1164   4.782   4.930   5.017 -0.8680 -1.7947  0.8277
   16CHL1  H21C 1165   4.653   4.917   5.139  0.4950  1.0016  1.7572
   16CHL1   C22 1166   4.758   5.156   4.908 -0.5290  0.0111  0.4147
   16CHL1  H22A 1167   4.725   5.254   4.865  0.7035  0.5169  0.5855
   16CHL1  H22B 1168   4.866   5.162   4.932 -0.8568 -0.1841  2.0196
   16CHL1   C23 1169   4.747   5.062   4.781  0.3046  0.6837 -0.1677
   16CHL1  H23A 1170   4.759   4.960   4.824  0.6765  1.7513  2.4351
   16CHL1  H23B 1171   4.643   5.073   4.745 -0.7104  2.9774  3.0094
   16CHL1   C24 1172   4.836   5.096   4.665 -0.7461  0.6128 -0.1406
   16CHL1  H24A 1173   4.830   5.205   4.643  1.3631  0.6583 -0.7988
   16CHL1  H24B 1174   4.942   5.077   4.695 -0.6015  0.1434 -0.9239
   16CHL1   C25 1175   4.817   5.001   4.550  1.1934  0.5570 -0.0804
   16CHL1   H25 1176   4.711   5.017   4.523  1.5039  1.6831 -0.6603
   16CHL1   C26 1177   4.899   5.048   4.430  0.6604  0.5352 -0.3181
   16CHL1  H26A 1178   5.003   5.079   4.455  0.1819  1.5761  0.4197
   16CHL1  H26B 1179   4.888   4.962   4.361  1.0193 -0.0269  0.3101
   16CHL1  H26C 1180   4.850   5.128   4.370  0.9013  0.1912 -0.9889
   16CHL1   C27 1181   4.866   4.855   4.591  0.3833 -0.3264 -0.0574
   16CHL1  H27A 1182   4.857   4.799   4.495 -2.2488  1.6486 -1.0926
   16CHL1  H27B 1183   4.969   4.862   4.632 -0.2072  2.0320  1.2356
   16CHL1  H27C 1184   4.793   4.811   4.662 -0.5305  3.6183  1.7433
   17CHL1    C3 1185   1.450   2.690   5.964  0.1081 -0.4883 -0.2112
   17CHL1    H3 1186   1.533   2.761   5.984 -0.5958 -0.4186  2.8139
   17CHL1    O3 1187   1.406   2.647   6.093  0.0010 -0.4173  0.4592
   17CHL1   H3' 1188   1.394   2.552   6.091 -1.1056 -0.3423  1.6868
   17CHL1    C4 1189   1.336   2.778   5.907  0.0300  0.0897  0.5692
   17CHL1   H4A 1190   1.249   2.709   5.904  0.1987 -0.1128 -2.1356
   17CHL1   H4B 1191   1.323   2.862   5.980 -1.9516  0.2183  0.1363
   17CHL1    C5 1192   1.361   2.834   5.768 -0.4332  0.1803  0.0260
   17CHL1    C6 1193   1.355   2.966   5.745 -0.3775 -0.4124  0.1995
   17CHL1    H6 1194   1.318   3.035   5.822 -2.2977 -0.8225 -0.2969
   17CHL1    C7 1195   1.398   3.031   5.618 -0.1444 -0.2953 -0.4010
   17CHL1   H7A 1196   1.323   3.109   5.589  0.7226  0.8876  0.4377
   17CHL1   H7B 1197   1.503   3.069   5.621 -1.1003  2.5404  1.7335
   17CHL1    C8 1198   1.391   2.922   5.505  0.1377  0.0031 -0.4277
   17CHL1    H8 1199   1.281   2.912   5.494  0.2178  0.8160 -2.3468
   17CHL1   C14 1200   1.444   2.987   5.376 -0.4357  0.0238  0.3456
   17CHL1   H14 1201   1.551   3.011   5.396 -0.4868 -1.1432  2.4311
   17CHL1   C15 1202   1.382   3.127   5.332 -1.0976  0.4175 -1.0733
   17CHL1  H15A 1203   1.272   3.131   5.351 -0.7411  0.2298  1.4621
   17CHL1  H15B 1204   1.422   3.220   5.378 -0.7904  0.1669 -0.8275
   17CHL1   C16 1205   1.402   3.120   5.183 -0.4490  0.2068 -0.1104
   17CHL1  H16A 1206   1.307   3.119   5.127 -0.6695 -1.0477  0.2561
   17CHL1  H16B 1207   1.454   3.214   5.153  1.5031 -1.2939 -1.6630
   17CHL1   C17 1208   1.475   2.988   5.146  0.1891 -0.1918 -1.3461
   17CHL1   H17 1209   1.583   3.015   5.151 -0.5806  3.2671  0.2046
   17CHL1   C13 1210   1.440   2.893   5.262 -0.1565  0.2382  0.6538
   17CHL1   C18 1211   1.291   2.844   5.237  0.3594  0.0096 -0.3097
   17CHL1  H18A 1212   1.291   2.755   5.169 -2.6725  0.0513 -0.5123
   17CHL1  H18B 1213   1.242   2.807   5.329  0.9354  1.6428  0.6825
   17CHL1  H18C 1214   1.228   2.923   5.191  1.9703  0.1292 -2.4729
   17CHL1   C12 1215   1.528   2.771   5.295 -0.1518 -0.2803 -0.1705
   17CHL1  H12A 1216   1.538   2.700   5.210  1.0237 -0.1888 -0.1346
   17CHL1  H12B 1217   1.629   2.813   5.314 -0.5263  0.6263 -0.1679
   17CHL1   C11 1218   1.483   2.698   5.426  0.1934 -0.4906  0.3446
   17CHL1  H11A 1219   1.389   2.642   5.403  0.6791 -1.2972  0.2838
   17CHL1  H11B 1220   1.562   2.624   5.449 -0.9425 -1.9115 -0.1586
   17CHL1    C9 1221   1.471   2.795   5.544  0.0308 -0.1072 -0.0496
   17CHL1    H9 1222   1.574   2.827   5.572  0.6661 -3.1530  1.6014
   17CHL1   C10 1223   1.409   2.729   5.675 -0.6087 -0.5164  0.0543
   17CHL1   C19 1224   1.286   2.647   5.630  0.6939  0.5748  0.3477
   17CHL1  H19A 1225   1.228   2.699   5.550  2.0856 -0.7887 -1.6420
   17CHL1  H19B 1226   1.305   2.551   5.577 -1.9484  0.6222 -0.8948
   17CHL1  H19C 1227   1.228   2.610   5.717 -0.1868 -3.2244 -1.6355
   17CHL1    C1 1228   1.515   2.636   5.734  0.5148  0.4851  0.2166
   17CHL1   H1A 1229   1.541   2.556   5.662 -0.5171 -0.4349  0.8271
   17CHL1   H1B 1230   1.616   2.679   5.748  1.1322 -1.5243  2.6801
   17CHL1    C2 1231   1.483   2.582   5.870 -0.2536  0.2019  0.3374
   17CHL1   H2A 1232   1.576   2.537   5.910  0.5854  1.1537 -0.5113
   17CHL1   H2B 1233   1.400   2.509   5.881  2.1946 -2.9309 -0.3823
   17CHL1   C20 1234   1.453   2.942   5.001  0.3763  0.0121  0.5392
   17CHL1   H20 1235   1.352   2.901   4.983  1.2101 -1.7130 -0.5125
   17CHL1   C21 1236   1.535   2.818   4.972  0.4102 -0.1771 -0.1144
   17CHL1  H21A 1237   1.510   2.798   4.866 -1.9021 -1.5170  0.6166
   17CHL1  H21B 1238   1.502   2.727   5.026  1.3666 -0.5078 -0.0657
   17CHL1  H21C 1239   1.641   2.841   4.998  0.3319 -2.4151  2.6928
   17CHL1   C22 1240   1.485   3.051   4.898 -0.9478 -0.1332  0.4987
   17CHL1  H22A 1241   1.469   3.002   4.799 -1.9221 -1.0138  1.0799
   17CHL1  H22B 1242   1.408   3.131   4.900  0.2816  1.0650  2.1893
   17CHL1   C23 1243   1.628   3.114   4.901  1.1157  0.4360  0.0216
   17CHL1  H23A 1244   1.600   3.202   4.963  0.6343  0.5342 -0.3211
   17CHL1  H23B 1245   1.708   3.043   4.930 -0.1418 -1.4815 -1.0090
   17CHL1   C24 1246   1.655   3.169   4.758  0.3308  0.1274  0.1563
   17CHL1  H24A 1247   1.644   3.093   4.678  0.5404  1.3875 -1.1109
   17CHL1  H24B 1248   1.579   3.247   4.734 -1.7470 -2.1300 -1.1070
   17CHL1   C25 1249   1.787   3.238   4.739 -1.1187 -1.4067 -0.0265
   17CHL1   H25 1250   1.814   3.295   4.831 -1.6238  1.8860 -1.7750
   17CHL1   C26 1251   1.910   3.149   4.728 -0.5274 -0.3045 -0.3544
   17CHL1  H26A 1252   2.005   3.206   4.737 -1.3460  1.3057 -1.5859
   17CHL1  H26B 1253   1.902   3.063   4.798 -0.2295  1.0952  1.4573
   17CHL1  H26C 1254   1.909   3.100   4.628  1.5837  1.2737 -1.2333
   17CHL1   C27 1255   1.781   3.339   4.617 -0.3162  0.5287  0.3173
   17CHL1  H27A 1256   1.735   3.300   4.524  1.4437 -0.7453 -0.0842
   17CHL1  H27B 1257   1.742   3.439   4.645 -1.7051 -0.1912  1.0223
   17CHL1  H27C 1258   1.888   3.357   4.592 -0.5838  0.3726 -1.0020
   18CHL1    C3 1259   1.452   5.938   5.576 -0.0041  0.0065  0.7789
   18CHL1    H3 1260   1.416   5.833   5.574  0.6211 -0.2547  2.1561
   18CHL1    O3 1261   1.498   5.959   5.707 -0.0266 -0.6147 -0.4261
   18CHL1   H3' 1262   1.436   5.943   5.778  2.0088  1.7003  2.1097
   18CHL1    C4 1263   1.564   5.961   5.475  0.0404 -0.2175 -0.5634
   18CHL1   H4A 1264   1.638   6.036   5.511  1.4808 -2.0658  0.5159
   18CHL1   H4B 1265   1.628   5.870   5.482  2.5966  1.4796 -0.4564
   18CHL1    C5 1266   1.530   5.986   5.334  0.3522  0.7698 -0.3529
   18CHL1    C6 1267   1.579   5.913   5.232  0.4092  0.6971 -0.5183
   18CHL1    H6 1268   1.643   5.826   5.252 -0.4796  0.3274  0.8635
   18CHL1    C7 1269   1.549   5.926   5.087  0.4388 -0.5378  0.3417
   18CHL1   H7A 1270   1.642   5.941   5.027 -0.1705 -1.2502 -0.8118
   18CHL1   H7B 1271   1.491   5.844   5.040  0.5208  0.1373 -0.9743
   18CHL1    C8 1272   1.472   6.056   5.062  0.0934  0.3111 -0.3849
   18CHL1    H8 1273   1.539   6.145   5.059  2.5128 -1.4448 -2.0845
   18CHL1   C14 1274   1.402   6.054   4.925 -0.7924  0.0893 -0.3108
   18CHL1   H14 1275   1.321   5.979   4.936 -0.4718 -0.1491  0.5667
   18CHL1   C15 1276   1.487   6.004   4.809 -0.2530 -0.1315  0.9279
   18CHL1  H15A 1277   1.590   6.046   4.815  0.2811 -0.5798 -2.6134
   18CHL1  H15B 1278   1.492   5.894   4.801  1.0455  0.0211 -1.4131
   18CHL1   C16 1279   1.417   6.065   4.689  0.3937  0.1377  0.3948
   18CHL1  H16A 1280   1.493   6.133   4.645 -0.3415  0.8942  0.2755
   18CHL1  H16B 1281   1.387   6.001   4.604  2.2347  1.6459 -1.4892
   18CHL1   C17 1282   1.294   6.145   4.747  0.5204  0.0916  0.3557
   18CHL1   H17 1283   1.214   6.070   4.765 -1.2724  1.5866 -0.8947
   18CHL1   C13 1284   1.335   6.194   4.884 -0.1066 -0.3684  0.0538
   18CHL1   C18 1285   1.438   6.311   4.871 -0.1012 -0.0886  0.1247
   18CHL1  H18A 1286   1.382   6.395   4.825 -1.0424 -0.2486  0.9421
   18CHL1  H18B 1287   1.479   6.335   4.971 -0.0623 -0.2015  0.1353
   18CHL1  H18C 1288   1.521   6.297   4.798 -0.7091  0.6612 -0.7433
   18CHL1   C12 1289   1.224   6.216   4.987 -0.0751 -0.1062  0.0691
   18CHL1  H12A 1290   1.165   6.309   4.977  1.5025  1.0596  1.1708
   18CHL1  H12B 1291   1.152   6.132   4.977  0.0694 -0.3097  0.6931
   18CHL1   C11 1292   1.283   6.207   5.136  0.1420  0.2241  0.3457
   18CHL1  H11A 1293   1.352   6.294   5.136  0.7327 -0.2042 -1.3218
   18CHL1  H11B 1294   1.201   6.224   5.209 -0.0136 -0.8195  0.4282
   18CHL1    C9 1295   1.365   6.082   5.167  0.0749  0.1111 -0.7003
   18CHL1    H9 1296   1.299   5.993   5.162  1.5093 -1.0076 -0.4047
   18CHL1   C10 1297   1.424   6.092   5.311 -0.1429  0.5273  0.3092
   18CHL1   C19 1298   1.486   6.225   5.341 -0.1069 -0.3416  0.1417
   18CHL1  H19A 1299   1.407   6.304   5.333 -0.3850 -0.6682 -0.4323
   18CHL1  H19B 1300   1.522   6.239   5.445 -0.1241  2.6913 -0.1550
   18CHL1  H19C 1301   1.564   6.256   5.269 -0.5528 -0.5016 -0.4168
   18CHL1    C1 1302   1.307   6.057   5.407  0.2626 -0.5007  0.2920
   18CHL1   H1A 1303   1.226   6.131   5.390 -0.9241 -1.9222 -0.4957
   18CHL1   H1B 1304   1.260   5.963   5.370  1.3667 -0.3241 -1.6912
   18CHL1    C2 1305   1.334   6.028   5.555  0.2587  0.0574  0.8309
   18CHL1   H2A 1306   1.239   5.997   5.603 -1.3732 -0.3276 -2.3744
   18CHL1   H2B 1307   1.353   6.124   5.607 -0.0010 -0.2237  1.4522
   18CHL1   C20 1308   1.223   6.245   4.652 -0.4047 -0.6915  0.6936
   18CHL1   H20 1309   1.279   6.340   4.669  2.2714 -1.9567 -0.4297
   18CHL1   C21 1310   1.083   6.272   4.702  0.5272  0.2751 -0.5316
   18CHL1  H21A 1311   1.031   6.187   4.751 -1.8429  0.9811 -1.6854
   18CHL1  H21B 1312   1.013   6.311   4.624  1.3393  0.3862 -1.2168
   18CHL1  H21C 1313   1.093   6.350   4.780  1.0719 -1.5051  1.2506
   18CHL1   C22 1314   1.240   6.219   4.499  0.8851 -0.2336  0.4065
   18CHL1  H22A 1315   1.337   6.178   4.463 -0.1300 -1.1339 -1.4754
   18CHL1  H22B 1316   1.162   6.142   4.479 -0.2433  0.9803  0.0160
   18CHL1   C23 1317   1.207   6.340   4.416 -0.2604  0.0286  0.3465
   18CHL1  H23A 1318   1.132   6.323   4.336 -0.5549 -1.1935  0.8572
   18CHL1  H23B 1319   1.173   6.420   4.486  1.2360 -0.6897  1.9934
   18CHL1   C24 1320   1.333   6.389   4.330  0.0147 -0.2132  0.4862
   18CHL1  H24A 1321   1.357   6.302   4.265  0.0692  0.6763 -0.7254
   18CHL1  H24B 1322   1.304   6.467   4.256  0.3997 -0.1495  0.4038
   18CHL1   C25 1323   1.463   6.435   4.402  0.2311 -0.2087 -0.6959
   18CHL1   H25 1324   1.513   6.350   4.453 -0.3257  1.0339  2.1035
   18CHL1   C26 1325   1.561   6.473   4.290 -0.4947  0.2993  0.2781
   18CHL1  H26A 1326   1.598   6.382   4.238 -0.3305 -0.5720  1.8467
   18CHL1  H26B 1327   1.511   6.542   4.219 -1.7013  0.4462  1.2394
   18CHL1  H26C 1328   1.647   6.523   4.339 -0.9984  1.7457 -0.2574
   18CHL1   C27 1329   1.433   6.552   4.500  0.7162  0.0286  0.4753
   18CHL1  H27A 1330   1.516   6.583   4.568  0.8307 -0.2553  0.4665
   18CHL1  H27B 1331   1.398   6.639   4.441  0.7686 -0.1428  0.1902
   18CHL1  H27C 1332   1.349   6.513   4.562  2.1500  0.5488  2.9104
   19CHL1    C3 1333   6.799   4.133   5.998  0.1305  0.3323  0.4637
   19CHL1    H3 1334   6.727   4.073   5.940 -1.1155  1.0897  1.1854
   19CHL1    O3 1335   6.768   4.113   6.138  0.0225  0.1918 -0.7358
   19CHL1   H3' 1336   6.681   4.152   6.149  0.4217  0.8470  0.2314
   19CHL1    C4 1337   6.939   4.068   5.972 -0.3710 -0.4574  0.3660
   19CHL1   H4A 1338   7.009   4.131   6.031 -0.4877 -1.0250  1.1289
   19CHL1   H4B 1339   6.940   3.970   6.025  2.0093 -0.2789  0.7559
   19CHL1    C5 1340   6.972   4.063   5.829 -0.7416  0.0911 -0.1815
   19CHL1    C6 1341   7.014   3.951   5.764  0.9040  0.1031  0.7448
   19CHL1    H6 1342   7.010   3.854   5.816 -2.8910  0.6239  1.7426
   19CHL1    C7 1343   7.063   3.948   5.627  1.4210 -0.7359 -0.4720
   19CHL1   H7A 1344   7.156   3.887   5.629  1.4503 -0.6861  0.6899
   19CHL1   H7B 1345   6.974   3.911   5.572  1.9385 -1.0702 -1.0916
   19CHL1    C8 1346   7.089   4.092   5.570 -0.1697  0.2520 -0.3164
   19CHL1    H8 1347   7.182   4.136   5.611 -0.5700  0.1576  0.7079
   19CHL1   C14 1348   7.109   4.084   5.410 -0.0647 -0.4465  0.0026
   19CHL1   H14 1349   7.010   4.046   5.375  1.1006 -3.0863 -0.6134
   19CHL1   C15 1350   7.213   3.997   5.336  0.1209 -0.3804  0.1049
   19CHL1  H15A 1351   7.311   4.017   5.385 -0.1641  1.7344 -0.0893
   19CHL1  H15B 1352   7.202   3.887   5.347 -0.0878 -0.6073 -1.9050
   19CHL1   C16 1353   7.212   4.050   5.196  0.3356  0.1280  0.5318
   19CHL1  H16A 1354   7.313   4.091   5.172 -0.1052  1.3386  0.6746
   19CHL1  H16B 1355   7.188   3.977   5.116  1.0981  0.5839 -0.1282
   19CHL1   C17 1356   7.119   4.176   5.191 -0.1784 -0.0678  0.4151
   19CHL1   H17 1357   7.020   4.133   5.162 -0.3552  0.6022  0.0094
   19CHL1   C13 1358   7.114   4.223   5.334 -0.0766 -0.2701 -0.2483
   19CHL1   C18 1359   7.245   4.292   5.378 -0.7052  0.6736 -0.3037
   19CHL1  H18A 1360   7.339   4.248   5.339 -0.6580  0.4527  0.0580
   19CHL1  H18B 1361   7.249   4.393   5.331  1.7051  0.5175 -0.5632
   19CHL1  H18C 1362   7.244   4.318   5.486  1.1809 -0.1434 -0.0426
   19CHL1   C12 1363   6.994   4.306   5.371  0.1816 -0.4114  0.5689
   19CHL1  H12A 1364   7.014   4.408   5.332  1.7078 -1.1536 -0.6925
   19CHL1  H12B 1365   6.903   4.272   5.317  0.1224 -1.6429  1.3890
   19CHL1   C11 1366   6.982   4.321   5.527 -0.0225 -0.4616  0.6700
   19CHL1  H11A 1367   7.062   4.393   5.552 -0.5347  0.2373  0.3217
   19CHL1  H11B 1368   6.886   4.373   5.544 -0.3218 -0.5381 -0.6344
   19CHL1    C9 1369   6.979   4.189   5.604  0.6852  0.4325 -0.6248
   19CHL1    H9 1370   6.880   4.149   5.574 -0.1672  2.6833 -1.0103
   19CHL1   C10 1371   6.970   4.201   5.755  0.3665  0.5197 -0.7365
   19CHL1   C19 1372   7.092   4.267   5.809 -0.5266  0.8784  0.7157
   19CHL1  H19A 1373   7.190   4.216   5.796 -0.0909  1.8813 -0.0902
   19CHL1  H19B 1374   7.101   4.370   5.769  0.7232  0.6160  0.2491
   19CHL1  H19C 1375   7.092   4.286   5.918  1.5930 -1.0290  1.1297
   19CHL1    C1 1376   6.843   4.276   5.798 -0.3128 -0.3820  0.9026
   19CHL1   H1A 1377   6.843   4.380   5.758  0.4272 -0.8391 -0.3106
   19CHL1   H1B 1378   6.757   4.232   5.743  1.3923  0.2274 -2.4956
   19CHL1    C2 1379   6.799   4.275   5.944 -0.4925 -0.1525 -0.1984
   19CHL1   H2A 1380   6.698   4.323   5.947 -0.5890 -0.3499 -0.2519
   19CHL1   H2B 1381   6.869   4.334   6.008 -2.7945  0.4104  2.0087
   19CHL1   C20 1382   7.159   4.275   5.080  0.1729 -0.1853  1.1897
   19CHL1   H20 1383   7.256   4.326   5.098 -0.2375  1.3284 -0.4766
   19CHL1   C21 1384   7.067   4.396   5.075 -0.6020  0.4564  0.7585
   19CHL1  H21A 1385   6.961   4.363   5.075 -0.6831  0.7113  1.4119
   19CHL1  H21B 1386   7.100   4.452   4.985  3.1095  0.7612  2.1275
   19CHL1  H21C 1387   7.075   4.473   5.154 -1.6892 -0.3717  1.7122
   19CHL1   C22 1388   7.158   4.196   4.939 -0.5742 -0.0166 -0.7088
   19CHL1  H22A 1389   7.207   4.097   4.945 -0.7314 -0.0969 -0.7594
   19CHL1  H22B 1390   7.049   4.178   4.924 -0.8608 -0.2538  1.3718
   19CHL1   C23 1391   7.229   4.279   4.836 -0.0492 -0.5229  0.1822
   19CHL1  H23A 1392   7.164   4.364   4.806  3.7832  2.8660  0.5789
   19CHL1  H23B 1393   7.309   4.334   4.890  0.7262 -0.6127 -0.8485
   19CHL1   C24 1394   7.265   4.201   4.706 -0.5296  0.6355 -0.5618
   19CHL1  H24A 1395   7.328   4.111   4.725 -0.5794  0.6496 -0.3354
   19CHL1  H24B 1396   7.174   4.159   4.658 -0.2308 -1.4874  0.5822
   19CHL1   C25 1397   7.339   4.288   4.591  0.8184  0.6619 -0.3582
   19CHL1   H25 1398   7.362   4.214   4.512  1.4502  0.3766  0.0789
   19CHL1   C26 1399   7.253   4.390   4.521 -0.2696  0.1863 -0.1181
   19CHL1  H26A 1400   7.152   4.344   4.518 -0.0396 -0.6703  2.7177
   19CHL1  H26B 1401   7.255   4.481   4.584 -1.5887  0.0385  0.1662
   19CHL1  H26C 1402   7.297   4.412   4.421  0.5016  0.3393  0.2445
   19CHL1   C27 1403   7.478   4.339   4.628 -0.6121  0.0216  0.1593
   19CHL1  H27A 1404   7.471   4.394   4.724 -2.0276 -0.2014  0.2038
   19CHL1  H27B 1405   7.541   4.249   4.645 -0.4830  0.3834  1.6866
   19CHL1  H27C 1406   7.533   4.416   4.570 -0.0987 -0.5246 -0.1000
   20CHL1    C3 1407   6.063   5.444   5.952  0.0898  0.2249 -0.4739
   20CHL1    H3 1408   6.063   5.552   5.979 -0.4541 -0.0327  0.6365
   20CHL1    O3 1409   6.064   5.379   6.081  0.6588  0.1682 -0.0334
   20CHL1   H3' 1410   6.046   5.287   6.061 -0.0258  0.2038  0.3879
   20CHL1    C4 1411   5.948   5.396   5.867 -0.1114  0.8380 -0.0358
   20CHL1   H4A 1412   5.946   5.286   5.881 -0.1987  0.9150  0.5706
   20CHL1   H4B 1413   5.850   5.428   5.909 -0.3481  0.5851 -0.3879
   20CHL1    C5 1414   5.964   5.424   5.720  1.0087 -0.4721  0.0162
   20CHL1    C6 1415   5.858   5.486   5.654 -0.0212  0.1450  0.3712
   20CHL1    H6 1416   5.759   5.503   5.700  1.5864  4.6620  2.8216
   20CHL1    C7 1417   5.879   5.512   5.509 -0.2282  0.3251 -0.0090
   20CHL1   H7A 1418   5.787   5.485   5.452  0.1676 -0.8619 -0.0960
   20CHL1   H7B 1419   5.890   5.622   5.496 -0.0046  0.4038  0.8303
   20CHL1    C8 1420   5.988   5.443   5.431  0.5508 -0.2817 -0.3739
   20CHL1    H8 1421   5.970   5.334   5.422 -0.8279 -0.3744  2.4779
   20CHL1   C14 1422   6.001   5.503   5.296  0.6976 -0.7624  0.3219
   20CHL1   H14 1423   6.014   5.613   5.311  0.4573 -0.7599  0.5041
   20CHL1   C15 1424   5.879   5.513   5.199  0.1240 -0.2859 -0.4250
   20CHL1  H15A 1425   5.829   5.413   5.196 -2.1145  0.6873  1.1761
   20CHL1  H15B 1426   5.806   5.581   5.249  0.7247 -0.4033  0.6411
   20CHL1   C16 1427   5.940   5.568   5.067 -0.8447  0.3948  0.3021
   20CHL1  H16A 1428   5.912   5.495   4.989 -1.1082 -0.1709  0.9180
   20CHL1  H16B 1429   5.909   5.670   5.036  0.0352 -0.4214 -3.8691
   20CHL1   C17 1430   6.103   5.554   5.091 -0.3756 -0.3587  0.1031
   20CHL1   H17 1431   6.126   5.659   5.120  0.8491 -0.1239 -1.5466
   20CHL1   C13 1432   6.123   5.460   5.209 -0.4205  0.7827  0.8883
   20CHL1   C18 1433   6.123   5.314   5.160  0.4171  0.6239 -0.5726
   20CHL1  H18A 1434   6.206   5.283   5.094  0.9720  2.9179 -1.0068
   20CHL1  H18B 1435   6.113   5.245   5.247 -0.5017 -2.4588 -2.9466
   20CHL1  H18C 1436   6.027   5.286   5.111  0.0179 -4.7507  2.3856
   20CHL1   C12 1437   6.250   5.481   5.297 -0.0808 -0.0888  0.2433
   20CHL1  H12A 1438   6.351   5.458   5.257  0.2565  1.1792  0.3137
   20CHL1  H12B 1439   6.251   5.590   5.316  0.8497  0.1603 -1.1029
   20CHL1   C11 1440   6.249   5.419   5.438 -0.5223  0.2598  0.4216
   20CHL1  H11A 1441   6.258   5.309   5.427  1.0565  0.3919  0.1519
   20CHL1  H11B 1442   6.341   5.452   5.492 -1.6707 -0.2234  2.8390
   20CHL1    C9 1443   6.123   5.460   5.511  0.2814 -0.1135 -0.6062
   20CHL1    H9 1444   6.134   5.568   5.536 -1.0123  0.0415 -0.6136
   20CHL1   C10 1445   6.097   5.397   5.653  0.0771  0.6807 -0.1892
   20CHL1   C19 1446   6.108   5.239   5.648 -0.0758 -0.1776  0.1276
   20CHL1  H19A 1447   6.211   5.214   5.613  0.9030  2.5636  0.7360
   20CHL1  H19B 1448   6.091   5.190   5.746  0.6639  0.2919  0.5034
   20CHL1  H19C 1449   6.030   5.200   5.579 -0.0254 -0.4627  0.2349
   20CHL1    C1 1450   6.210   5.458   5.747 -0.5260 -0.1284  0.8224
   20CHL1   H1A 1451   6.307   5.422   5.708 -0.0317  0.7310  1.2147
   20CHL1   H1B 1452   6.212   5.569   5.741  1.0227 -0.1386  0.7563
   20CHL1    C2 1453   6.198   5.411   5.891  1.2410 -0.6828  0.3075
   20CHL1   H2A 1454   6.281   5.457   5.949 -0.2632  1.9245  0.5569
   20CHL1   H2B 1455   6.222   5.302   5.897  1.5944 -0.5316  2.1469
   20CHL1   C20 1456   6.177   5.526   4.955  0.3552  0.3501 -0.0053
   20CHL1   H20 1457   6.145   5.423   4.928 -1.4896  0.9998 -0.4331
   20CHL1   C21 1458   6.332   5.525   4.967 -0.3580  0.5550 -0.1505
   20CHL1  H21A 1459   6.361   5.457   5.050 -0.7193  1.0323  0.3689
   20CHL1  H21B 1460   6.365   5.626   4.998  0.2177 -0.0307  1.2333
   20CHL1  H21C 1461   6.380   5.484   4.876  0.9594  0.7830  0.4137
   20CHL1   C22 1462   6.129   5.615   4.836  0.1494 -0.3258  0.1227
   20CHL1  H22A 1463   6.023   5.587   4.822 -0.3195  0.6958  1.3888
   20CHL1  H22B 1464   6.131   5.722   4.869  2.6589 -0.6505  1.2321
   20CHL1   C23 1465   6.189   5.599   4.701  0.3753 -0.3079  0.1329
   20CHL1  H23A 1466   6.128   5.662   4.633 -1.8961  0.0397  2.3482
   20CHL1  H23B 1467   6.290   5.646   4.708  0.5408 -0.7388  0.7402
   20CHL1   C24 1468   6.188   5.456   4.655  0.3063 -0.3882  0.2767
   20CHL1  H24A 1469   6.248   5.390   4.722  0.0742 -0.4930  0.3825
   20CHL1  H24B 1470   6.083   5.419   4.661 -0.2368  0.9859 -0.2552
   20CHL1   C25 1471   6.254   5.436   4.517 -0.6066 -0.1381  0.6908
   20CHL1   H25 1472   6.226   5.522   4.453 -2.2343 -1.1810 -0.0650
   20CHL1   C26 1473   6.410   5.435   4.523  0.5277 -0.5404 -0.7218
   20CHL1  H26A 1474   6.446   5.356   4.592  1.2540  0.0413 -0.4179
   20CHL1  H26B 1475   6.452   5.408   4.423 -2.3322 -0.0657 -2.1582
   20CHL1  H26C 1476   6.452   5.533   4.554 -1.3286 -0.2142  0.9617
   20CHL1   C27 1477   6.203   5.312   4.441 -0.7554  0.1613 -0.1735
   20CHL1  H27A 1478   6.237   5.221   4.496  0.7545  1.6667  1.4878
   20CHL1  H27B 1479   6.093   5.327   4.433 -0.6303  1.6431  0.6415
   20CHL1  H27C 1480   6.247   5.304   4.340  1.5220 -0.4500  0.8027
   21CHL1    C3 1481   5.364   5.498   5.829 -0.1976  0.1775 -0.8880
   21CHL1    H3 1482   5.274   5.433   5.823 -0.8614  0.9287  0.5350
   21CHL1    O3 1483   5.414   5.485   5.962  0.0456  0.5351 -0.3337
   21CHL1   H3' 1484   5.351   5.516   6.028  1.7817  1.8484  0.7682
   21CHL1    C4 1485   5.470   5.430   5.732 -0.5252 -0.2605 -1.0107
   21CHL1   H4A 1486   5.570   5.469   5.762  0.1725 -1.3072 -1.8579
   21CHL1   H4B 1487   5.485   5.321   5.753  3.9915  0.3762  0.2028
   21CHL1    C5 1488   5.443   5.465   5.586  0.0086  0.9108 -0.1838
   21CHL1    C6 1489   5.440   5.365   5.492 -0.4656  0.0867 -0.5004
   21CHL1    H6 1490   5.446   5.262   5.531  2.1617  1.0767  2.0344
   21CHL1    C7 1491   5.441   5.396   5.342 -0.1113  0.1597 -0.3399
   21CHL1   H7A 1492   5.530   5.345   5.300  0.3189  0.0419  0.6825
   21CHL1   H7B 1493   5.346   5.362   5.295 -0.5301  0.5092  0.2362
   21CHL1    C8 1494   5.457   5.543   5.311 -0.5902  0.6008 -0.1899
   21CHL1    H8 1495   5.563   5.573   5.330 -0.9351  0.4717  2.3082
   21CHL1   C14 1496   5.416   5.560   5.165 -0.2523 -0.1647 -0.2471
   21CHL1   H14 1497   5.305   5.553   5.165 -0.3837  0.5153 -2.9834
   21CHL1   C15 1498   5.467   5.468   5.051  0.0257  0.0282 -0.4781
   21CHL1  H15A 1499   5.576   5.452   5.063  0.0202 -1.1243 -1.7482
   21CHL1  H15B 1500   5.421   5.367   5.049  2.4691 -1.1694  0.0389
   21CHL1   C16 1501   5.457   5.556   4.929 -0.2347 -0.6438  0.0963
   21CHL1  H16A 1502   5.539   5.571   4.856 -2.0186  1.9361 -1.5007
   21CHL1  H16B 1503   5.377   5.515   4.864 -0.5813 -2.8362  1.7771
   21CHL1   C17 1504   5.410   5.702   4.969 -0.1375 -0.1712  0.5518
   21CHL1   H17 1505   5.299   5.692   4.974 -0.0131 -1.3552  1.6743
   21CHL1   C13 1506   5.444   5.706   5.119  0.2420  0.7568 -0.5167
   21CHL1   C18 1507   5.596   5.739   5.132 -0.1865 -0.4013  0.0398
   21CHL1  H18A 1508   5.655   5.646   5.120  0.4591 -0.3153  2.1570
   21CHL1  H18B 1509   5.625   5.823   5.064  1.1911 -1.4720 -0.7545
   21CHL1  H18C 1510   5.624   5.775   5.233 -0.2333 -0.9942  0.2680
   21CHL1   C12 1511   5.362   5.802   5.209  1.0623 -0.3623  0.1450
   21CHL1  H12A 1512   5.380   5.908   5.183 -2.8735  0.7916  1.4637
   21CHL1  H12B 1513   5.253   5.794   5.193  0.8111  2.1127  0.2977
   21CHL1   C11 1514   5.382   5.782   5.363 -1.0920 -0.1688 -0.0012
   21CHL1  H11A 1515   5.477   5.837   5.378 -0.7486 -0.3691 -1.3168
   21CHL1  H11B 1516   5.296   5.821   5.422 -0.7599 -0.2387  0.5307
   21CHL1    C9 1517   5.380   5.628   5.404  0.3789  0.3606  0.4174
   21CHL1    H9 1518   5.274   5.596   5.403  0.3727  0.2063  2.5032
   21CHL1   C10 1519   5.420   5.612   5.552  0.3159 -0.0584 -0.5827
   21CHL1   C19 1520   5.548   5.681   5.580  0.3267 -0.3436  0.1482
   21CHL1  H19A 1521   5.533   5.790   5.568 -0.8056 -0.6796 -1.9537
   21CHL1  H19B 1522   5.575   5.668   5.687  1.3319  1.5939  0.1564
   21CHL1  H19C 1523   5.630   5.647   5.513  0.6879 -0.3317  0.5817
   21CHL1    C1 1524   5.309   5.669   5.643 -0.6454  0.6396  0.8336
   21CHL1   H1A 1525   5.287   5.777   5.631 -0.7987  0.5998  0.7507
   21CHL1   H1B 1526   5.211   5.621   5.625  1.0399 -2.1421 -1.8605
   21CHL1    C2 1527   5.341   5.647   5.798  0.0797 -0.3429 -0.6777
   21CHL1   H2A 1528   5.244   5.669   5.848  1.5533  0.2590  2.1126
   21CHL1   H2B 1529   5.416   5.723   5.827 -1.1761  1.0805 -1.0678
   21CHL1   C20 1530   5.440   5.813   4.871 -0.1583  0.3977 -0.1975
   21CHL1   H20 1531   5.549   5.808   4.848 -0.0523  1.0156  0.1517
   21CHL1   C21 1532   5.392   5.954   4.914 -0.2105  0.8381  0.4354
   21CHL1  H21A 1533   5.294   5.941   4.965 -1.1404 -2.1201 -1.8092
   21CHL1  H21B 1534   5.392   6.030   4.833 -0.0153  0.2274 -0.1492
   21CHL1  H21C 1535   5.466   5.986   4.990  1.5414 -0.0784 -0.8050
   21CHL1   C22 1536   5.368   5.778   4.738 -0.0237  0.6279 -0.2372
   21CHL1  H22A 1537   5.367   5.669   4.718 -0.1716  0.5254  0.3262
   21CHL1  H22B 1538   5.265   5.818   4.742  0.9653  3.6104 -1.5580
   21CHL1   C23 1539   5.424   5.851   4.614 -0.0288 -0.2787  0.1890
   21CHL1  H23A 1540   5.403   5.959   4.626  1.3343  0.3518 -2.3044
   21CHL1  H23B 1541   5.531   5.821   4.610  0.3170  0.9233  0.1311
   21CHL1   C24 1542   5.360   5.816   4.476 -0.2650  0.1629  0.5604
   21CHL1  H24A 1543   5.382   5.708   4.461  0.7087  0.3768  0.3512
   21CHL1  H24B 1544   5.250   5.826   4.472 -0.3291 -0.6097 -2.6366
   21CHL1   C25 1545   5.424   5.877   4.345  0.5934  0.1311  0.5300
   21CHL1   H25 1546   5.534   5.862   4.343  0.3031 -2.7551  1.1958
   21CHL1   C26 1547   5.348   5.808   4.221 -0.2130 -0.6375 -0.2539
   21CHL1  H26A 1548   5.360   5.698   4.222 -1.2028 -0.8037  2.7129
   21CHL1  H26B 1549   5.239   5.824   4.228 -0.2541 -0.3572 -1.3754
   21CHL1  H26C 1550   5.382   5.839   4.120 -1.7746  0.2034 -0.5442
   21CHL1   C27 1551   5.400   6.028   4.338 -0.1727 -0.6951  0.2374
   21CHL1  H27A 1552   5.445   6.072   4.430 -0.0911 -1.2538  0.4671
   21CHL1  H27B 1553   5.447   6.064   4.244 -2.7674  0.5449 -0.6807
   21CHL1  H27C 1554   5.294   6.062   4.344 -0.1217 -0.2014 -1.2673
   22CHL1    C3 1555   0.089   1.814   5.902  0.1220 -0.7065 -0.0860
   22CHL1    H3 1556   0.109   1.729   5.833 -0.2122 -0.0292 -1.0325
   22CHL1    O3 1557   0.108   1.781   6.034  0.0328  0.4683 -0.5023
   22CHL1   H3' 1558   0.093   1.860   6.086 -2.5133  0.7255 -1.4939
   22CHL1    C4 1559   0.185   1.932   5.867 -0.0154 -0.9119 -0.4128
   22CHL1   H4A 1560   0.178   2.013   5.943 -1.8969 -0.0152 -1.4620
   22CHL1   H4B 1561   0.289   1.900   5.889  0.8706  1.9784  0.0685
   22CHL1    C5 1562   0.168   2.001   5.731  0.8389 -0.3981  1.3874
   22CHL1    C6 1563   0.267   2.011   5.637 -0.2843  0.5170 -0.0166
   22CHL1    H6 1564   0.369   1.976   5.658 -1.3615 -2.0666  1.3042
   22CHL1    C7 1565   0.249   2.068   5.506 -0.0131  0.0253  0.1620
   22CHL1   H7A 1566   0.337   2.128   5.475 -0.1889 -0.4856 -1.4548
   22CHL1   H7B 1567   0.248   1.979   5.440 -0.9596 -0.9025  1.3771
   22CHL1    C8 1568   0.115   2.148   5.488  0.4409  0.6198  0.1179
   22CHL1    H8 1569   0.125   2.246   5.539  1.3738  0.0593  1.0555
   22CHL1   C14 1570   0.096   2.167   5.341  1.2847 -0.1245  0.2414
   22CHL1   H14 1571   0.068   2.066   5.306 -2.1988 -0.0808  2.3999
   22CHL1   C15 1572   0.209   2.200   5.254  0.4857 -0.1668  0.0032
   22CHL1  H15A 1573   0.284   2.266   5.303 -0.2701  0.0218  0.9226
   22CHL1  H15B 1574   0.250   2.112   5.200  2.9138  0.7716  0.1822
   22CHL1   C16 1575   0.145   2.273   5.129 -0.1030 -0.0255 -0.1743
   22CHL1  H16A 1576   0.155   2.384   5.137 -1.1187 -0.0508  1.8864
   22CHL1  H16B 1577   0.197   2.252   5.032  0.7672  0.3755  0.1882
   22CHL1   C17 1578  -0.008   2.238   5.141 -0.1530 -0.3614 -0.5651
   22CHL1   H17 1579  -0.031   2.136   5.105 -2.2343 -0.2935  0.4584
   22CHL1   C13 1580  -0.037   2.239   5.298 -0.4352  0.2710 -0.4016
   22CHL1   C18 1581  -0.032   2.383   5.358 -0.7895 -0.0396  0.5808
   22CHL1  H18A 1582  -0.036   2.397   5.468  2.4197  0.6863  0.7121
   22CHL1  H18B 1583   0.065   2.428   5.328 -0.2434  0.2071  2.5964
   22CHL1  H18C 1584  -0.111   2.445   5.309 -0.5119  0.3664  0.6415
   22CHL1   C12 1585  -0.155   2.165   5.355  0.3214 -0.4061 -0.6803
   22CHL1  H12A 1586  -0.241   2.235   5.344 -1.8117 -1.7075  4.6331
   22CHL1  H12B 1587  -0.168   2.076   5.290 -2.5427 -0.5554 -0.0327
   22CHL1   C11 1588  -0.139   2.136   5.504  0.6756 -0.4768  0.0370
   22CHL1  H11A 1589  -0.148   2.233   5.558  1.0713 -0.8256  0.7365
   22CHL1  H11B 1590  -0.225   2.072   5.535  0.9796 -0.7007  0.4297
   22CHL1    C9 1591  -0.006   2.069   5.547 -0.8544 -0.2747  0.3084
   22CHL1    H9 1592  -0.001   1.972   5.492 -1.3481 -0.2591  0.2273
   22CHL1   C10 1593   0.017   2.042   5.696 -0.5147  0.7650 -0.0887
   22CHL1   C19 1594  -0.023   2.169   5.779 -0.6283 -0.1265 -0.6198
   22CHL1  H19A 1595  -0.132   2.187   5.772 -0.5433 -0.0151 -2.1361
   22CHL1  H19B 1596   0.019   2.160   5.881 -1.1169  1.8832 -0.2021
   22CHL1  H19C 1597   0.031   2.255   5.733  1.4548 -1.1115 -0.1416
   22CHL1    C1 1598  -0.076   1.924   5.738  0.3681 -0.4741  0.6813
   22CHL1   H1A 1599  -0.181   1.959   5.744  0.0866 -1.3661  1.0916
   22CHL1   H1B 1600  -0.064   1.837   5.670 -1.0767  1.0750 -1.7059
   22CHL1    C2 1601  -0.053   1.873   5.884  0.4150 -0.8632  0.6173
   22CHL1   H2A 1602  -0.132   1.796   5.900  0.4473 -0.7441  1.4193
   22CHL1   H2B 1603  -0.069   1.959   5.953 -1.3362  0.3095 -1.1605
   22CHL1   C20 1604  -0.091   2.340   5.058  0.1716  0.2926 -0.3929
   22CHL1   H20 1605  -0.059   2.441   5.091 -1.0047 -0.3238  3.0504
   22CHL1   C21 1606  -0.248   2.332   5.083 -0.0511 -0.2413  0.3264
   22CHL1  H21A 1607  -0.310   2.393   5.013  0.5214  0.3971  0.3599
   22CHL1  H21B 1608  -0.266   2.372   5.185  0.6231 -2.1071  1.2059
   22CHL1  H21C 1609  -0.288   2.229   5.076 -0.9301  0.0517  0.8514
   22CHL1   C22 1610  -0.053   2.338   4.909  0.6381 -0.6880  0.4669
   22CHL1  H22A 1611  -0.108   2.424   4.865 -1.6976 -2.0957  0.4828
   22CHL1  H22B 1612   0.056   2.359   4.905  0.2730  1.3982  0.0204
   22CHL1   C23 1613  -0.093   2.210   4.842  0.6272 -0.1833 -0.1716
   22CHL1  H23A 1614  -0.033   2.124   4.880  0.5149 -0.6115 -0.9423
   22CHL1  H23B 1615  -0.197   2.182   4.870  0.4741  0.3602 -0.1962
   22CHL1   C24 1616  -0.084   2.220   4.690  0.5712 -0.2314  0.5686
   22CHL1  H24A 1617  -0.134   2.317   4.669 -0.7661 -0.4525  2.4917
   22CHL1  H24B 1618   0.020   2.212   4.654  0.6861  1.6337  0.4017
   22CHL1   C25 1619  -0.171   2.108   4.626 -0.5240  0.1044 -0.7652
   22CHL1   H25 1620  -0.272   2.098   4.671 -0.6894  0.2634 -1.0947
   22CHL1   C26 1621  -0.176   2.154   4.482  0.6664 -0.0470  0.4852
   22CHL1  H26A 1622  -0.248   2.102   4.415 -0.4856  2.8538 -0.7002
   22CHL1  H26B 1623  -0.197   2.263   4.471 -0.0157 -0.2022  0.1974
   22CHL1  H26C 1624  -0.074   2.142   4.441  0.8145 -0.5261  0.9860
   22CHL1   C27 1625  -0.101   1.971   4.630  0.5654  0.0855  0.3595
   22CHL1  H27A 1626  -0.056   1.958   4.731 -0.1578  0.3885  0.7220
   22CHL1  H27B 1627  -0.171   1.885   4.618  1.9301 -0.9581 -0.5694
   22CHL1  H27C 1628  -0.012   1.965   4.564  1.9987 -0.7656  2.2479
   23CHL1    C3 1629   5.224   6.002   6.150 -0.1624 -0.7792  0.0172
   23CHL1    H3 1630   5.318   5.953   6.117  1.1234  1.0191  0.8855
   23CHL1    O3 1631   5.212   5.980   6.287  0.1224  0.4708 -0.2175
   23CHL1   H3' 1632   5.197   5.887   6.302  2.6661 -0.2268 -1.4243
   23CHL1    C4 1633   5.233   6.148   6.133 -0.0083 -0.5905  0.4992
   23CHL1   H4A 1634   5.147   6.207   6.172  0.1881  0.6155 -0.7882
   23CHL1   H4B 1635   5.318   6.186   6.193 -0.1073  1.1107 -0.3403
   23CHL1    C5 1636   5.254   6.185   5.989  1.1881 -0.9831  0.6166
   23CHL1    C6 1637   5.358   6.258   5.954 -0.3686  0.6358  0.2089
   23CHL1    H6 1638   5.427   6.282   6.036 -1.7469  0.6129  1.4061
   23CHL1    C7 1639   5.404   6.296   5.815  0.5233 -0.4868 -0.8478
   23CHL1   H7A 1640   5.413   6.403   5.840  1.5286 -0.0870 -2.7625
   23CHL1   H7B 1641   5.498   6.245   5.787  0.9661 -0.8537  1.1661
   23CHL1    C8 1642   5.288   6.278   5.717 -0.6638  0.2769  0.3438
   23CHL1    H8 1643   5.218   6.363   5.732  0.1442  0.6994  2.0355
   23CHL1   C14 1644   5.338   6.280   5.576  0.4295 -0.1581  0.0335
   23CHL1   H14 1645   5.403   6.190   5.570 -1.1309 -1.4008  1.0061
   23CHL1   C15 1646   5.431   6.397   5.537  0.1921  0.4837 -0.1858
   23CHL1  H15A 1647   5.376   6.488   5.569  0.1457  0.6921 -0.8370
   23CHL1  H15B 1648   5.524   6.395   5.597 -0.9582  0.0184  1.6511
   23CHL1   C16 1649   5.437   6.382   5.390  0.1122 -0.0104 -0.0285
   23CHL1  H16A 1650   5.419   6.481   5.343  1.3905 -0.7795 -2.2672
   23CHL1  H16B 1651   5.537   6.345   5.360  0.0895 -1.4697  1.5829
   23CHL1   C17 1652   5.328   6.275   5.345 -0.0027  0.1225  0.2821
   23CHL1   H17 1653   5.376   6.175   5.340 -0.4343 -0.1483  1.3850
   23CHL1   C13 1654   5.234   6.261   5.468  0.5874  0.0224 -0.1348
   23CHL1   C18 1655   5.131   6.376   5.459 -0.0744  0.4080  0.2837
   23CHL1  H18A 1656   5.079   6.394   5.556 -0.2550 -2.1513  0.7393
   23CHL1  H18B 1657   5.189   6.465   5.428 -0.8104  0.4077 -1.1874
   23CHL1  H18C 1658   5.055   6.354   5.381 -0.4547  0.5890  0.5973
   23CHL1   C12 1659   5.162   6.124   5.488  0.7387 -0.2186 -0.0943
   23CHL1  H12A 1660   5.082   6.103   5.414  0.1311 -2.2911  1.0640
   23CHL1  H12B 1661   5.240   6.045   5.484  2.9750  1.6284  3.0172
   23CHL1   C11 1662   5.105   6.114   5.631  0.0028  0.4030 -0.0346
   23CHL1  H11A 1663   5.022   6.189   5.631 -0.8146 -0.4778  0.8047
   23CHL1  H11B 1664   5.062   6.012   5.640 -1.2296  0.8479 -0.5700
   23CHL1    C9 1665   5.213   6.145   5.743  0.0845  0.2459  0.3649
   23CHL1    H9 1666   5.292   6.070   5.725  0.7190  1.3336 -1.6695
   23CHL1   C10 1667   5.152   6.123   5.894  1.0353  0.2663  0.3295
   23CHL1   C19 1668   5.014   6.199   5.898 -0.3543 -0.0482 -0.0734
   23CHL1  H19A 1669   4.934   6.140   5.850  0.5432 -1.9753  0.6891
   23CHL1  H19B 1670   4.993   6.218   6.006  1.8509  0.0206  0.3993
   23CHL1  H19C 1671   5.039   6.292   5.842 -0.3030  0.2653  0.4598
   23CHL1    C1 1672   5.122   5.974   5.918  0.2583 -0.1409  0.2908
   23CHL1   H1A 1673   5.032   5.930   5.869 -0.6942 -0.3360  2.1172
   23CHL1   H1B 1674   5.207   5.917   5.874  0.1889 -0.3291  0.3989
   23CHL1    C2 1675   5.110   5.941   6.069  0.8285 -0.2237  0.2556
   23CHL1   H2A 1676   5.113   5.830   6.066 -0.4447 -0.2573 -1.7682
   23CHL1   H2B 1677   5.013   5.975   6.110  1.8411  0.7807  1.9342
   23CHL1   C20 1678   5.273   6.310   5.208  0.9133  0.0944  0.3630
   23CHL1   H20 1679   5.216   6.405   5.217 -1.1126 -0.9156 -0.9338
   23CHL1   C21 1680   5.174   6.198   5.162 -0.7895 -0.0920  0.4255
   23CHL1  H21A 1681   5.125   6.215   5.064 -0.2646 -0.2000  0.1428
   23CHL1  H21B 1682   5.085   6.195   5.229  0.7348  1.4611  2.6715
   23CHL1  H21C 1683   5.237   6.107   5.156  0.6557  0.6419  2.8221
   23CHL1   C22 1684   5.391   6.327   5.100  0.4379  0.3650 -0.0475
   23CHL1  H22A 1685   5.466   6.399   5.138  1.2932 -0.1000 -0.7941
   23CHL1  H22B 1686   5.449   6.233   5.085 -0.0133  0.4827 -3.0395
   23CHL1   C23 1687   5.353   6.366   4.961  0.0879  0.4048 -0.5724
   23CHL1  H23A 1688   5.296   6.282   4.917  0.5973 -0.2118 -0.0698
   23CHL1  H23B 1689   5.283   6.452   4.969 -0.6462 -0.2818  0.5149
   23CHL1   C24 1690   5.483   6.408   4.880 -0.3285  0.6007 -0.1072
   23CHL1  H24A 1691   5.543   6.488   4.928 -0.2935 -0.8166  2.4135
   23CHL1  H24B 1692   5.541   6.315   4.858 -0.6271  0.6516 -1.1779
   23CHL1   C25 1693   5.430   6.467   4.742 -0.5191  0.3338  0.9615
   23CHL1   H25 1694   5.330   6.513   4.759 -1.5666 -0.7308 -1.7299
   23CHL1   C26 1695   5.530   6.572   4.686  0.2094  0.4284 -0.4095
   23CHL1  H26A 1696   5.481   6.630   4.604 -0.6503  0.0395 -0.1778
   23CHL1  H26B 1697   5.563   6.647   4.761  1.0438 -0.4540  0.1235
   23CHL1  H26C 1698   5.619   6.528   4.637 -0.4008 -0.0293 -1.1301
   23CHL1   C27 1699   5.407   6.349   4.644  0.7744  0.0227 -0.2244
   23CHL1  H27A 1700   5.320   6.286   4.671  0.9738 -1.1170 -2.0559
   23CHL1  H27B 1701   5.386   6.390   4.543  3.5037  0.1073 -0.8574
   23CHL1  H27C 1702   5.496   6.283   4.634  1.4619  0.9314 -0.1984
   24CHL1    C3 1703   5.423   3.436   6.221  0.2098  0.1782 -0.4741
   24CHL1    H3 1704   5.314   3.421   6.203 -0.6095  1.3659  2.6772
   24CHL1    O3 1705   5.433   3.448   6.364  0.4983 -0.0544 -0.0055
   24CHL1   H3' 1706   5.416   3.542   6.379 -1.2399 -0.2890 -0.2127
   24CHL1    C4 1707   5.513   3.324   6.165  0.2580  0.1457  0.0123
   24CHL1   H4A 1708   5.610   3.354   6.209  1.4425  0.5701 -2.7455
   24CHL1   H4B 1709   5.491   3.227   6.215 -0.9859  1.0723  1.3837
   24CHL1    C5 1710   5.521   3.325   6.009  0.4978  0.0719 -0.3797
   24CHL1    C6 1711   5.487   3.221   5.937  0.3122 -0.1656  0.3307
   24CHL1    H6 1712   5.452   3.128   5.985 -2.0081 -0.9187 -2.4698
   24CHL1    C7 1713   5.496   3.222   5.784  0.2749 -0.2664 -0.6431
   24CHL1   H7A 1714   5.560   3.137   5.753  3.4470  2.3013 -1.6804
   24CHL1   H7B 1715   5.398   3.198   5.738  1.1106 -0.8123 -2.2033
   24CHL1    C8 1716   5.566   3.341   5.715  0.9745 -0.0949 -0.4890
   24CHL1    H8 1717   5.674   3.319   5.728  1.2810  1.4986 -0.2455
   24CHL1   C14 1718   5.534   3.343   5.572  0.2174 -0.7137  0.5792
   24CHL1   H14 1719   5.427   3.364   5.554  0.6499  0.1619 -1.1362
   24CHL1   C15 1720   5.566   3.214   5.489 -0.1135  0.1941 -0.2759
   24CHL1  H15A 1721   5.671   3.186   5.513  0.1834  0.5529 -1.0783
   24CHL1  H15B 1722   5.498   3.130   5.511 -1.0368  1.2268  0.9785
   24CHL1   C16 1723   5.561   3.268   5.343  0.1318 -0.0978  0.1567
   24CHL1  H16A 1724   5.653   3.232   5.293  0.4422  0.0905  0.5788
   24CHL1  H16B 1725   5.467   3.240   5.290  0.1057  1.6327 -0.7964
   24CHL1   C17 1726   5.566   3.425   5.348  0.5110 -0.1484 -0.0301
   24CHL1   H17 1727   5.460   3.458   5.337  0.4936 -0.6269 -1.4516
   24CHL1   C13 1728   5.606   3.455   5.497  0.2536  0.4242 -0.3184
   24CHL1   C18 1729   5.758   3.444   5.513 -0.5434  0.2206  0.1880
   24CHL1  H18A 1730   5.802   3.362   5.453 -2.9057 -0.4348 -0.7689
   24CHL1  H18B 1731   5.797   3.541   5.473 -2.8529  1.2115  0.1995
   24CHL1  H18C 1732   5.802   3.444   5.615  0.3062  0.1171 -0.1661
   24CHL1   C12 1733   5.545   3.581   5.561 -0.0997  0.3833  0.1167
   24CHL1  H12A 1734   5.596   3.664   5.507  1.5159 -0.1013  0.8407
   24CHL1  H12B 1735   5.440   3.580   5.524 -0.1852 -1.2410  0.3396
   24CHL1   C11 1736   5.562   3.596   5.710 -0.3294  1.0103 -0.4635
   24CHL1  H11A 1737   5.670   3.612   5.729  0.1606 -1.7736 -0.5370
   24CHL1  H11B 1738   5.506   3.689   5.736  1.6353  2.4614 -1.1648
   24CHL1    C9 1739   5.519   3.466   5.791 -0.7363  0.0592  0.1220
   24CHL1    H9 1740   5.409   3.458   5.784 -0.6853 -0.9633  0.3331
   24CHL1   C10 1741   5.548   3.460   5.945 -0.0916 -0.1685  0.5699
   24CHL1   C19 1742   5.701   3.486   5.967 -0.0356  0.5621 -0.2229
   24CHL1  H19A 1743   5.748   3.449   6.061  0.1954 -0.0972 -0.5926
   24CHL1  H19B 1744   5.760   3.434   5.889 -0.4452 -0.6998  0.2833
   24CHL1  H19C 1745   5.722   3.595   5.962 -0.7275  0.6567 -1.1397
   24CHL1    C1 1746   5.454   3.565   6.011 -0.1295 -0.1212  0.5529
   24CHL1   H1A 1747   5.491   3.664   5.978  0.4750 -0.7125 -0.6114
   24CHL1   H1B 1748   5.352   3.555   5.969  0.9866 -1.8462 -2.0478
   24CHL1    C2 1749   5.465   3.565   6.164 -0.4713 -0.2597 -0.1995
   24CHL1   H2A 1750   5.390   3.639   6.198 -1.5447 -2.4317  2.4785
   24CHL1   H2B 1751   5.565   3.593   6.203  0.0988 -0.4013 -1.5094
   24CHL1   C20 1752   5.662   3.490   5.240 -0.5600 -0.3290 -0.1139
   24CHL1   H20 1753   5.764   3.458   5.273  0.4940  0.2825 -2.5845
   24CHL1   C21 1754   5.643   3.639   5.241 -0.6031  0.3824  0.4307
   24CHL1  H21A 1755   5.687   3.692   5.328  1.5530  0.5979 -0.7239
   24CHL1  H21B 1756   5.534   3.663   5.242 -1.0110 -1.3259  0.9632
   24CHL1  H21C 1757   5.685   3.691   5.153 -0.5362 -0.6091 -0.1459
   24CHL1   C22 1758   5.644   3.444   5.097  0.4891  0.2380  0.5004
   24CHL1  H22A 1759   5.709   3.509   5.035  1.3431  1.3526  2.5088
   24CHL1  H22B 1760   5.681   3.339   5.093  3.4225  1.2111  0.4400
   24CHL1   C23 1761   5.504   3.443   5.037 -0.7353  0.3578 -0.6047
   24CHL1  H23A 1762   5.428   3.397   5.104 -2.1729  0.8538 -1.8513
   24CHL1  H23B 1763   5.474   3.550   5.031  0.2101  0.6729  0.1231
   24CHL1   C24 1764   5.492   3.370   4.897  0.6438 -0.1075 -0.2598
   24CHL1  H24A 1765   5.504   3.261   4.915 -2.1082 -0.6563 -1.2299
   24CHL1  H24B 1766   5.385   3.384   4.870  0.4906 -1.3837 -0.3679
   24CHL1   C25 1767   5.581   3.430   4.797 -0.2158 -0.4977 -0.0939
   24CHL1   H25 1768   5.687   3.413   4.825  0.3008  0.7133 -1.1935
   24CHL1   C26 1769   5.553   3.373   4.659 -0.1693  1.1332 -0.0386
   24CHL1  H26A 1770   5.618   3.406   4.575  0.4035  1.9597  0.6995
   24CHL1  H26B 1771   5.550   3.263   4.667  0.3346  1.2549  2.6401
   24CHL1  H26C 1772   5.452   3.416   4.641 -0.8437 -0.3777 -0.0230
   24CHL1   C27 1773   5.562   3.584   4.789  0.3519  0.2154 -0.0723
   24CHL1  H27A 1774   5.609   3.633   4.878 -0.4826  0.7475  0.0830
   24CHL1  H27B 1775   5.612   3.634   4.703  1.9184  1.3226  1.4029
   24CHL1  H27C 1776   5.459   3.623   4.778  0.1042 -0.8862 -2.0234
   25CHL1    C3 1777   3.481   3.272   6.053 -0.4568 -0.0625  0.3482
   25CHL1    H3 1778   3.442   3.171   6.030  0.0059 -0.3481  0.7867
   25CHL1    O3 1779   3.503   3.279   6.194 -0.7672  0.2863  0.3687
   25CHL1   H3' 1780   3.433   3.238   6.245 -0.1606 -0.5607  0.5327
   25CHL1    C4 1781   3.608   3.323   5.979 -0.3432  1.1407 -0.3910
   25CHL1   H4A 1782   3.638   3.414   6.036 -0.5236  1.5215 -0.8986
   25CHL1   H4B 1783   3.683   3.248   6.013 -0.2649  2.5327  2.9211
   25CHL1    C5 1784   3.591   3.353   5.830  0.6658  0.0225  0.5590
   25CHL1    C6 1785   3.666   3.283   5.745  0.4807 -0.0684 -0.1961
   25CHL1    H6 1786   3.749   3.221   5.781 -0.7759 -0.2865  2.5876
   25CHL1    C7 1787   3.665   3.301   5.596  0.4040  0.0775 -0.1103
   25CHL1   H7A 1788   3.772   3.305   5.567  0.6542  0.2926  0.8048
   25CHL1   H7B 1789   3.613   3.220   5.540 -2.9425  0.7152  1.8009
   25CHL1    C8 1790   3.585   3.431   5.557  0.5170  0.0406 -0.7072
   25CHL1    H8 1791   3.640   3.524   5.586  2.6237 -0.8329 -1.7164
   25CHL1   C14 1792   3.558   3.435   5.407 -0.8129 -0.2197  0.5613
   25CHL1   H14 1793   3.488   3.353   5.384 -1.6452  0.8133 -0.7406
   25CHL1   C15 1794   3.677   3.411   5.312  0.3498 -0.4044 -0.1858
   25CHL1  H15A 1795   3.776   3.457   5.333  0.4267 -0.3561 -0.6533
   25CHL1  H15B 1796   3.684   3.302   5.293 -0.4406 -0.3204 -1.0203
   25CHL1   C16 1797   3.624   3.469   5.178  0.2827  0.1023 -0.1095
   25CHL1  H16A 1798   3.696   3.548   5.148  1.0562 -0.2493  0.7571
   25CHL1  H16B 1799   3.615   3.395   5.096 -1.7337  1.0301 -0.7766
   25CHL1   C17 1800   3.480   3.520   5.205  0.2773 -0.2964  0.0997
   25CHL1   H17 1801   3.410   3.434   5.210 -0.2173  0.0713 -0.3231
   25CHL1   C13 1802   3.479   3.557   5.350  0.3536 -0.5030 -0.1604
   25CHL1   C18 1803   3.544   3.694   5.376  0.2258 -0.1622  0.2484
   25CHL1  H18A 1804   3.480   3.781   5.352 -0.7343 -1.0677 -0.5640
   25CHL1  H18B 1805   3.554   3.716   5.484  0.8713 -1.8597  0.5613
   25CHL1  H18C 1806   3.644   3.700   5.327 -0.2003 -0.3613 -0.6710
   25CHL1   C12 1807   3.345   3.548   5.423  0.5185 -0.2572  0.3303
   25CHL1  H12A 1808   3.285   3.640   5.407  2.1326  0.7159 -0.3484
   25CHL1  H12B 1809   3.292   3.454   5.393  1.4179 -0.4950 -0.5565
   25CHL1   C11 1810   3.359   3.543   5.580 -0.1618 -0.0991 -0.0505
   25CHL1  H11A 1811   3.393   3.644   5.610 -0.6776 -0.0589  0.4065
   25CHL1  H11B 1812   3.260   3.539   5.629 -0.0283  0.8903  0.3242
   25CHL1    C9 1813   3.448   3.434   5.631  0.0967  0.7982 -0.1990
   25CHL1    H9 1814   3.404   3.336   5.603  1.1147  0.2343  0.1038
   25CHL1   C10 1815   3.471   3.441   5.783 -0.0428 -0.1831  0.1978
   25CHL1   C19 1816   3.521   3.583   5.817  0.7698  0.4007  0.2027
   25CHL1  H19A 1817   3.565   3.584   5.919 -0.0421  1.3524  0.5512
   25CHL1  H19B 1818   3.595   3.620   5.742  0.7318 -1.7487 -0.9593
   25CHL1  H19C 1819   3.434   3.648   5.839  0.7604 -0.5981  3.8487
   25CHL1    C1 1820   3.349   3.394   5.868 -0.1679  0.8279  0.1686
   25CHL1   H1A 1821   3.268   3.471   5.872 -1.3643 -0.3892  0.1233
   25CHL1   H1B 1822   3.312   3.299   5.824 -0.1716  0.0984  1.7012
   25CHL1    C2 1823   3.361   3.365   6.020 -0.8353  0.4287 -0.4127
   25CHL1   H2A 1824   3.269   3.316   6.059 -0.8299 -0.4509 -1.4426
   25CHL1   H2B 1825   3.384   3.463   6.065  1.5866 -0.2179 -0.0467
   25CHL1   C20 1826   3.447   3.640   5.111  0.4506 -0.6078 -0.1098
   25CHL1   H20 1827   3.511   3.730   5.127  0.2618  0.2160 -3.3033
   25CHL1   C21 1828   3.305   3.669   5.133  0.4911 -0.7446  0.1486
   25CHL1  H21A 1829   3.273   3.737   5.051  1.4388  0.8318  1.0459
   25CHL1  H21B 1830   3.291   3.732   5.223  2.4314 -1.2715  0.8617
   25CHL1  H21C 1831   3.237   3.580   5.128 -0.1248 -0.4023  1.7774
   25CHL1   C22 1832   3.471   3.607   4.964 -0.5252  0.7271  0.1532
   25CHL1  H22A 1833   3.570   3.558   4.950 -0.5358  0.7113  0.1340
   25CHL1  H22B 1834   3.397   3.529   4.934 -1.3766  0.9810  1.5031
   25CHL1   C23 1835   3.472   3.720   4.867 -0.2319 -0.0815 -0.1758
   25CHL1  H23A 1836   3.406   3.800   4.908 -1.4245 -1.7543  1.2939
   25CHL1  H23B 1837   3.573   3.766   4.873 -0.7056  0.9215  0.5453
   25CHL1   C24 1838   3.431   3.679   4.724 -0.8007  0.3308 -0.0728
   25CHL1  H24A 1839   3.457   3.776   4.677 -0.0289  0.7267  1.1142
   25CHL1  H24B 1840   3.495   3.600   4.679  0.9976 -0.3785  3.3814
   25CHL1   C25 1841   3.283   3.649   4.690  0.0383 -0.3482 -0.6070
   25CHL1   H25 1842   3.227   3.589   4.765  0.6621 -0.8714 -0.5598
   25CHL1   C26 1843   3.209   3.787   4.693  0.0501  0.2655  0.1091
   25CHL1  H26A 1844   3.259   3.840   4.609  0.5323 -0.1219  0.1527
   25CHL1  H26B 1845   3.103   3.781   4.658  0.3831 -0.1694 -0.8597
   25CHL1  H26C 1846   3.225   3.838   4.790  0.3287  0.7738 -0.2022
   25CHL1   C27 1847   3.261   3.594   4.551  0.0926  0.1311 -0.2434
   25CHL1  H27A 1848   3.284   3.667   4.470  2.8512 -1.1760 -0.7479
   25CHL1  H27B 1849   3.336   3.512   4.544 -0.8229 -0.7590  0.1922
   25CHL1  H27C 1850   3.158   3.553   4.540 -0.2897  1.3069 -1.2723
   26CHL1    C3 1851   0.559   3.634   5.927  0.6047 -1.3567 -0.0625
   26CHL1    H3 1852   0.500   3.727   5.942  2.7752 -0.1141  1.1782
   26CHL1    O3 1853   0.576   3.579   6.057 -0.1953 -0.6031  0.1150
   26CHL1   H3' 1854   0.618   3.495   6.036  1.0520 -0.1828  0.7834
   26CHL1    C4 1855   0.474   3.528   5.858  0.5016  1.0165 -0.0855
   26CHL1   H4A 1856   0.527   3.430   5.860 -0.8477  0.1635 -2.3853
   26CHL1   H4B 1857   0.381   3.507   5.915  1.0548  2.2658  1.3404
   26CHL1    C5 1858   0.464   3.555   5.712  0.1118  0.0422 -0.4678
   26CHL1    C6 1859   0.344   3.564   5.650  0.4277 -1.0402  0.0796
   26CHL1    H6 1860   0.250   3.553   5.706  0.7173  0.6653  0.9646
   26CHL1    C7 1861   0.316   3.566   5.506  0.1414 -0.0356  0.6776
   26CHL1   H7A 1862   0.230   3.498   5.487 -0.8905  1.3446  0.2338
   26CHL1   H7B 1863   0.269   3.666   5.493 -0.1453 -0.2350  0.1459
   26CHL1    C8 1864   0.444   3.545   5.422  0.2067 -0.5016  0.7721
   26CHL1    H8 1865   0.454   3.436   5.405  0.3539 -0.3831  0.0876
   26CHL1   C14 1866   0.419   3.614   5.287  0.1409  0.4484 -0.2147
   26CHL1   H14 1867   0.400   3.720   5.316  1.3909  1.4328 -2.6995
   26CHL1   C15 1868   0.298   3.580   5.206  0.0851 -0.4698 -0.4948
   26CHL1  H15A 1869   0.291   3.470   5.193 -2.3237 -0.2656 -1.5564
   26CHL1  H15B 1870   0.200   3.606   5.251  0.5694 -0.1015  0.3701
   26CHL1   C16 1871   0.317   3.648   5.071 -0.6873 -0.3660 -0.5700
   26CHL1  H16A 1872   0.307   3.579   4.984 -0.3638 -0.6837 -0.3541
   26CHL1  H16B 1873   0.246   3.733   5.054  1.4317  1.8915  1.2385
   26CHL1   C17 1874   0.464   3.704   5.076  0.2853  0.8281 -0.2864
   26CHL1   H17 1875   0.442   3.805   5.116 -0.8637  0.0932  1.0227
   26CHL1   C13 1876   0.527   3.622   5.191 -0.1808  0.2733  0.3788
   26CHL1   C18 1877   0.576   3.481   5.134  0.0310  0.3487 -0.1556
   26CHL1  H18A 1878   0.605   3.410   5.214  0.9445 -0.6663 -1.3301
   26CHL1  H18B 1879   0.489   3.435   5.082 -0.1123  0.4383  0.0056
   26CHL1  H18C 1880   0.652   3.497   5.053 -0.7521  2.3405 -0.5669
   26CHL1   C12 1881   0.651   3.686   5.265  0.3320  0.4497  0.5543
   26CHL1  H12A 1882   0.743   3.683   5.202  0.2272  0.0547  0.4180
   26CHL1  H12B 1883   0.623   3.793   5.276  0.7333  0.9525 -2.5046
   26CHL1   C11 1884   0.694   3.622   5.393  0.5389  0.3297 -0.8764
   26CHL1  H11A 1885   0.735   3.519   5.381 -0.5980 -0.4589  1.4371
   26CHL1  H11B 1886   0.769   3.685   5.445 -1.1940  2.1708 -0.4961
   26CHL1    C9 1887   0.568   3.610   5.487 -0.1693 -0.0977  0.0840
   26CHL1    H9 1888   0.535   3.715   5.505 -2.0164 -0.3738 -1.4391
   26CHL1   C10 1889   0.600   3.553   5.632 -0.0395 -0.4623  0.5725
   26CHL1   C19 1890   0.647   3.404   5.615  0.1160  0.3921 -0.5062
   26CHL1  H19A 1891   0.568   3.332   5.586  0.2193  0.5993 -1.3058
   26CHL1  H19B 1892   0.735   3.408   5.547  0.4903 -1.4994 -0.1786
   26CHL1  H19C 1893   0.687   3.375   5.715  0.7691  1.0391 -0.5667
   26CHL1    C1 1894   0.690   3.651   5.707  0.5879 -0.1057 -0.1129
   26CHL1   H1A 1895   0.793   3.629   5.671  0.3069 -1.1694 -0.3005
   26CHL1   H1B 1896   0.675   3.759   5.687 -1.2422  0.6279  4.1776
   26CHL1    C2 1897   0.692   3.655   5.861  0.3219 -0.6107 -0.0254
   26CHL1   H2A 1898   0.736   3.747   5.905 -1.7195 -0.2070  1.3342
   26CHL1   H2B 1899   0.757   3.574   5.901  1.2819 -0.5426 -1.4125
   26CHL1   C20 1900   0.530   3.706   4.940  0.0352 -0.3075  1.1247
   26CHL1   H20 1901   0.532   3.603   4.897  0.5661  0.0222  0.3545
   26CHL1   C21 1902   0.666   3.777   4.950 -0.0091  0.3668 -0.0099
   26CHL1  H21A 1903   0.707   3.833   4.863 -0.4612  0.8281  0.0650
   26CHL1  H21B 1904   0.735   3.704   4.996  0.5451  0.6603 -0.3760
   26CHL1  H21C 1905   0.655   3.857   5.027  2.1226  1.1910 -0.4996
   26CHL1   C22 1906   0.451   3.796   4.848 -0.5623 -0.1448 -0.0762
   26CHL1  H22A 1907   0.342   3.777   4.858 -1.2483  2.9550 -0.5753
   26CHL1  H22B 1908   0.472   3.904   4.865  3.7080 -0.7620 -0.5277
   26CHL1   C23 1909   0.482   3.776   4.699  0.3949 -0.0589  0.0112
   26CHL1  H23A 1910   0.583   3.815   4.675  0.3207  0.3917  0.4155
   26CHL1  H23B 1911   0.484   3.668   4.675 -1.1303 -0.2151  0.4559
   26CHL1   C24 1912   0.368   3.833   4.604  0.0122 -0.1889 -0.4768
   26CHL1  H24A 1913   0.269   3.809   4.648  0.9068  0.7732  2.2433
   26CHL1  H24B 1914   0.371   3.944   4.599  1.4949 -0.0757  1.7287
   26CHL1   C25 1915   0.371   3.783   4.464 -0.3780 -0.3630  0.5167
   26CHL1   H25 1916   0.382   3.672   4.469 -0.6238 -0.6321 -2.6947
   26CHL1   C26 1917   0.241   3.814   4.391 -0.7473 -0.1883  0.3772
   26CHL1  H26A 1918   0.215   3.759   4.298  0.4498 -0.8927  0.4387
   26CHL1  H26B 1919   0.155   3.793   4.458 -1.4009 -1.5720 -0.8182
   26CHL1  H26C 1920   0.235   3.922   4.369  2.2563 -0.1888 -0.9214
   26CHL1   C27 1921   0.490   3.833   4.377 -0.3842 -0.2133  0.6029
   26CHL1  H27A 1922   0.478   3.784   4.278  1.4819  1.6267 -0.6426
   26CHL1  H27B 1923   0.484   3.944   4.367 -1.8030 -0.3832 -0.6907
   26CHL1  H27C 1924   0.587   3.817   4.429  1.1097  0.4866 -1.7954
   27CHL1    C3 1925   6.416   1.301   5.887 -0.1241  0.3109  1.2620
   27CHL1    H3 1926   6.523   1.305   5.857 -0.3876 -1.7454 -0.1506
   27CHL1    O3 1927   6.405   1.387   5.997 -0.0884  0.4026 -0.2931
   27CHL1   H3' 1928   6.324   1.355   6.038  0.9051  1.0000  2.3305
   27CHL1    C4 1929   6.327   1.369   5.778 -0.4216 -0.2974 -0.2147
   27CHL1   H4A 1930   6.226   1.377   5.824 -0.1101 -1.0131  0.5940
   27CHL1   H4B 1931   6.355   1.475   5.759 -0.4668 -0.6270 -2.3730
   27CHL1    C5 1932   6.330   1.280   5.660  0.1156 -0.4065 -0.3584
   27CHL1    C6 1933   6.352   1.329   5.537  0.2036 -0.5196 -0.2473
   27CHL1    H6 1934   6.380   1.434   5.520  0.3948 -0.1843  1.9069
   27CHL1    C7 1935   6.335   1.259   5.412  0.4590 -0.2444  0.0304
   27CHL1   H7A 1936   6.284   1.327   5.341  1.4871  0.8030  0.2619
   27CHL1   H7B 1937   6.436   1.235   5.373  0.1825 -2.7087  0.6387
   27CHL1    C8 1938   6.254   1.127   5.426 -0.2157 -0.2876 -0.3737
   27CHL1    H8 1939   6.149   1.162   5.439  0.1666  0.3028  1.4401
   27CHL1   C14 1940   6.266   1.043   5.297 -0.1624 -0.6482 -0.3813
   27CHL1   H14 1941   6.374   1.025   5.279  0.9680  1.9607  2.8049
   27CHL1   C15 1942   6.209   1.115   5.170  0.6493  1.1879  0.9762
   27CHL1  H15A 1943   6.106   1.154   5.173 -0.3756 -1.1756 -0.2120
   27CHL1  H15B 1944   6.287   1.189   5.143  1.7400  0.5135  2.1355
   27CHL1   C16 1945   6.203   0.999   5.071  0.3873  0.7524  0.0752
   27CHL1  H16A 1946   6.098   0.994   5.035 -0.0391 -1.0524  1.4539
   27CHL1  H16B 1947   6.273   1.002   4.985  0.8559 -1.9145  0.2880
   27CHL1   C17 1948   6.231   0.867   5.150 -0.5033 -0.4471  0.4263
   27CHL1   H17 1949   6.339   0.839   5.149 -0.2486  0.5047 -0.5151
   27CHL1   C13 1950   6.202   0.906   5.304  0.3341 -0.2174  0.3985
   27CHL1   C18 1951   6.045   0.907   5.311  0.9760 -0.2907  0.2512
   27CHL1  H18A 1952   5.992   0.952   5.225 -2.0230  0.9138  2.5140
   27CHL1  H18B 1953   6.014   0.805   5.343 -1.2563 -0.0557 -0.9783
   27CHL1  H18C 1954   6.012   0.980   5.388 -0.1811  0.2696 -0.7404
   27CHL1   C12 1955   6.266   0.832   5.416  0.2699  0.3920 -0.2975
   27CHL1  H12A 1956   6.223   0.729   5.418 -0.6045  0.7531  0.0277
   27CHL1  H12B 1957   6.374   0.828   5.391  1.0219  0.6977  2.5844
   27CHL1   C11 1958   6.249   0.900   5.551 -0.3034 -0.9497 -0.2803
   27CHL1  H11A 1959   6.139   0.907   5.565 -0.1380  1.9410  0.1156
   27CHL1  H11B 1960   6.305   0.840   5.627  1.3943  1.3168  0.3635
   27CHL1    C9 1961   6.302   1.050   5.545 -0.0174  0.0705 -0.1189
   27CHL1    H9 1962   6.412   1.045   5.531  0.7576  3.0476  3.2681
   27CHL1   C10 1963   6.286   1.130   5.677  0.0014 -0.6637 -0.5691
   27CHL1   C19 1964   6.141   1.122   5.718  0.6310  0.6334 -0.3838
   27CHL1  H19A 1965   6.126   1.020   5.759  0.5486  0.7043 -0.2385
   27CHL1  H19B 1966   6.112   1.198   5.794 -1.4503 -0.8536  0.3982
   27CHL1  H19C 1967   6.084   1.129   5.623  1.2419  2.7855 -0.6497
   27CHL1    C1 1968   6.370   1.066   5.792 -0.6796 -0.0884  0.3918
   27CHL1   H1A 1969   6.328   0.965   5.811 -1.7764  0.4891  1.1688
   27CHL1   H1B 1970   6.477   1.051   5.770 -0.3277  1.4483  0.9005
   27CHL1    C2 1971   6.370   1.155   5.923  0.5777 -0.2337 -0.8208
   27CHL1   H2A 1972   6.434   1.110   6.002 -3.0979 -1.6307  1.6844
   27CHL1   H2B 1973   6.271   1.161   5.973  0.6460 -0.8670 -0.5898
   27CHL1   C20 1974   6.159   0.735   5.093 -0.7609  0.1916 -0.1186
   27CHL1   H20 1975   6.050   0.749   5.114 -0.4328 -1.1029  2.9542
   27CHL1   C21 1976   6.196   0.600   5.157 -0.0719 -0.2731 -0.5935
   27CHL1  H21A 1977   6.301   0.570   5.137  0.6612  0.8218  1.3360
   27CHL1  H21B 1978   6.132   0.521   5.111  1.3601 -0.9312 -1.5460
   27CHL1  H21C 1979   6.168   0.591   5.264 -2.5713 -2.5462 -1.3278
   27CHL1   C22 1980   6.177   0.711   4.940  0.1766 -1.1692  0.7389
   27CHL1  H22A 1981   6.116   0.625   4.904 -3.0857  0.7647  1.3001
   27CHL1  H22B 1982   6.126   0.799   4.897  1.6344 -0.4676  0.3942
   27CHL1   C23 1983   6.320   0.710   4.885  0.7367 -0.3041 -0.4608
   27CHL1  H23A 1984   6.386   0.790   4.926  1.1174  0.6991 -2.8165
   27CHL1  H23B 1985   6.350   0.608   4.917  0.1020 -0.6671 -1.0017
   27CHL1   C24 1986   6.329   0.717   4.733 -0.3681  0.6597 -0.3756
   27CHL1  H24A 1987   6.429   0.685   4.697 -0.0962  0.6453  0.3768
   27CHL1  H24B 1988   6.259   0.639   4.695  1.1190  0.3188 -2.6113
   27CHL1   C25 1989   6.288   0.852   4.669  0.5791 -0.4168  0.3348
   27CHL1   H25 1990   6.191   0.890   4.706  0.9925 -1.2351  2.3802
   27CHL1   C26 1991   6.397   0.959   4.703  0.2421  0.3550  0.6238
   27CHL1  H26A 1992   6.408   0.978   4.812  1.8086 -1.2292  0.7985
   27CHL1  H26B 1993   6.495   0.914   4.677 -0.4500 -0.4527 -0.7393
   27CHL1  H26C 1994   6.391   1.056   4.650 -0.2641 -0.7381 -1.4272
   27CHL1   C27 1995   6.272   0.840   4.520 -0.1864  0.0092  0.0440
   27CHL1  H27A 1996   6.372   0.836   4.472 -1.2660  0.0440 -2.3025
   27CHL1  H27B 1997   6.213   0.749   4.496 -1.2405  0.3574  1.2244
   27CHL1  H27C 1998   6.213   0.919   4.470 -0.4397 -1.5215 -2.1967
   28CHL1    C3 1999   6.899   2.639   5.864  0.3882 -0.9556  0.4106
   28CHL1    H3 2000   6.991   2.645   5.801  0.5418 -0.7909  0.6492
   28CHL1    O3 2001   6.934   2.623   5.998 -0.1994  0.0994  0.4727
   28CHL1   H3' 2002   6.886   2.553   6.041 -2.1797  1.0757 -0.0304
   28CHL1    C4 2003   6.817   2.767   5.853  0.0854 -0.5102 -0.3954
   28CHL1   H4A 2004   6.725   2.764   5.916  1.3520 -1.3043  1.5214
   28CHL1   H4B 2005   6.881   2.854   5.879  0.6130 -0.3447 -2.1350
   28CHL1    C5 2006   6.775   2.787   5.707 -0.3714 -0.5105  0.1734
   28CHL1    C6 2007   6.805   2.896   5.641  0.1058 -0.1994 -0.4467
   28CHL1    H6 2008   6.850   2.983   5.692 -2.4020  0.8513  0.1172
   28CHL1    C7 2009   6.743   2.925   5.512  0.1144  0.0727  0.0363
   28CHL1   H7A 2010   6.720   3.034   5.520  1.0834  0.3295 -0.4727
   28CHL1   H7B 2011   6.821   2.927   5.433 -1.1606 -0.3369 -1.2668
   28CHL1    C8 2012   6.633   2.827   5.462 -0.1862 -0.1309 -0.6960
   28CHL1    H8 2013   6.547   2.865   5.520  0.6162  2.6144 -1.1970
   28CHL1   C14 2014   6.602   2.839   5.315  0.1129 -0.6040 -0.1974
   28CHL1   H14 2015   6.692   2.810   5.258  1.0163  0.8057  0.4515
   28CHL1   C15 2016   6.579   2.984   5.258 -0.1435 -0.5127  0.2745
   28CHL1  H15A 2017   6.515   3.036   5.332  0.2516 -3.7930  3.2087
   28CHL1  H15B 2018   6.677   3.030   5.232 -1.0382  0.3501 -1.8047
   28CHL1   C16 2019   6.516   2.955   5.119  0.9276  0.0749  0.0722
   28CHL1  H16A 2020   6.431   3.025   5.112  0.5600 -0.3856 -0.1496
   28CHL1  H16B 2021   6.582   2.966   5.030  2.4011 -0.0658  1.1130
   28CHL1   C17 2022   6.474   2.803   5.116 -1.1008  0.0106  0.0946
   28CHL1   H17 2023   6.560   2.746   5.074 -0.6948  0.6065  0.0995
   28CHL1   C13 2024   6.486   2.765   5.262 -0.0147 -0.0012 -0.8775
   28CHL1   C18 2025   6.349   2.808   5.327  0.1784  0.3022 -0.4401
   28CHL1  H18A 2026   6.361   2.822   5.436 -0.2024  0.1354 -0.3758
   28CHL1  H18B 2027   6.306   2.905   5.293 -0.7394  0.9828  2.3931
   28CHL1  H18C 2028   6.277   2.726   5.307  3.6922 -2.6490 -2.2508
   28CHL1   C12 2029   6.525   2.618   5.293 -0.3279 -0.5072 -0.1107
   28CHL1  H12A 2030   6.441   2.550   5.269 -0.9618  0.2146  0.0157
   28CHL1  H12B 2031   6.621   2.593   5.242  1.6521  0.5457  2.8569
   28CHL1   C11 2032   6.552   2.595   5.440  0.6113  0.2013  0.4006
   28CHL1  H11A 2033   6.456   2.624   5.487  0.9152  1.6974  0.1408
   28CHL1  H11B 2034   6.586   2.493   5.469  0.8589 -0.1421 -1.0183
   28CHL1    C9 2035   6.667   2.688   5.497  0.2798  1.0326  0.1540
   28CHL1    H9 2036   6.759   2.660   5.442 -0.8611 -2.1714 -0.3726
   28CHL1   C10 2037   6.695   2.664   5.650  0.4209 -0.9603  0.1409
   28CHL1   C19 2038   6.560   2.661   5.725  0.2373 -0.1046 -0.1101
   28CHL1  H19A 2039   6.482   2.595   5.680 -0.7437  0.6467  0.4431
   28CHL1  H19B 2040   6.567   2.624   5.830 -4.4556  0.0079  0.4566
   28CHL1  H19C 2041   6.508   2.759   5.715 -0.1382 -0.3757 -0.9174
   28CHL1    C1 2042   6.762   2.525   5.670  0.7239 -0.4402 -0.4474
   28CHL1   H1A 2043   6.693   2.441   5.649 -0.8438  0.1448  1.9149
   28CHL1   H1B 2044   6.846   2.512   5.598 -0.2843 -0.4603 -1.6427
   28CHL1    C2 2045   6.814   2.517   5.812 -0.0487 -0.4154 -0.9578
   28CHL1   H2A 2046   6.881   2.428   5.819 -0.9692 -0.9999  1.2913
   28CHL1   H2B 2047   6.725   2.494   5.875 -0.4147  1.0597 -0.9213
   28CHL1   C20 2048   6.361   2.762   5.025 -0.1550 -0.1323 -0.0245
   28CHL1   H20 2049   6.266   2.807   5.060  0.0553  0.9876 -0.8393
   28CHL1   C21 2050   6.341   2.611   5.016  0.8972  0.4442 -0.5517
   28CHL1  H21A 2051   6.289   2.585   5.111 -0.5637 -1.0964 -1.7189
   28CHL1  H21B 2052   6.443   2.567   5.022  2.0744  3.0850  0.2821
   28CHL1  H21C 2053   6.285   2.569   4.930  0.8015 -0.1166 -0.2246
   28CHL1   C22 2054   6.386   2.819   4.883  0.2384  0.6245 -0.4514
   28CHL1  H22A 2055   6.493   2.840   4.861  0.6706 -1.0970 -0.1164
   28CHL1  H22B 2056   6.349   2.738   4.816  0.8819 -2.0858  2.2224
   28CHL1   C23 2057   6.306   2.948   4.864  0.2358 -0.8069 -0.5731
   28CHL1  H23A 2058   6.211   2.952   4.921  1.1442  1.7533  0.9746
   28CHL1  H23B 2059   6.373   3.029   4.902 -0.7624 -0.4102  0.3998
   28CHL1   C24 2060   6.274   2.971   4.718  0.7846  0.4899  0.2296
   28CHL1  H24A 2061   6.356   2.927   4.658  1.5825  3.5352 -1.1114
   28CHL1  H24B 2062   6.184   2.909   4.696  1.1435  0.3896 -0.9947
   28CHL1   C25 2063   6.248   3.110   4.682 -0.1656 -0.0207  0.0431
   28CHL1   H25 2064   6.335   3.173   4.711 -1.0889  1.4164 -0.2156
   28CHL1   C26 2065   6.221   3.128   4.536 -0.0478  0.0789 -0.3612
   28CHL1  H26A 2066   6.222   3.234   4.505  0.8118 -0.0824 -0.9172
   28CHL1  H26B 2067   6.299   3.079   4.474  0.5482 -1.7736  1.7191
   28CHL1  H26C 2068   6.129   3.072   4.509  0.6650 -1.6703  0.6472
   28CHL1   C27 2069   6.127   3.169   4.757 -0.3613  0.4226 -0.7007
   28CHL1  H27A 2070   6.030   3.121   4.733  0.3706 -0.4588 -2.0501
   28CHL1  H27B 2071   6.149   3.172   4.866 -0.6375 -0.0865 -0.6289
   28CHL1  H27C 2072   6.120   3.279   4.737  0.0439  0.2125 -2.0828
   29CHL1    C3 2073   5.272   6.456   2.845 -0.1016 -0.3849  0.7031
   29CHL1    H3 2074   5.235   6.353   2.862  2.7757 -1.5080  0.6130
   29CHL1    O3 2075   5.237   6.486   2.711 -0.2751  0.2858  0.1033
   29CHL1   H3' 2076   5.244   6.580   2.691 -1.1850  0.0368 -1.5488
   29CHL1    C4 2077   5.205   6.553   2.945 -0.3549 -0.3627 -0.0025
   29CHL1   H4A 2078   5.227   6.657   2.910  2.5034 -0.0970  2.2332
   29CHL1   H4B 2079   5.097   6.564   2.922  0.4945  4.2532 -3.2890
   29CHL1    C5 2080   5.255   6.542   3.090 -0.1947  0.5942 -0.9348
   29CHL1    C6 2081   5.167   6.529   3.192  0.1889 -0.0457  0.3247
   29CHL1    H6 2082   5.062   6.538   3.160  0.0240 -1.0490  0.5364
   29CHL1    C7 2083   5.213   6.517   3.328 -0.3372 -0.2324 -0.4596
   29CHL1   H7A 2084   5.137   6.573   3.387 -0.9254  1.6466 -2.8447
   29CHL1   H7B 2085   5.213   6.410   3.357 -0.6552 -0.3862 -1.0118
   29CHL1    C8 2086   5.353   6.577   3.351  0.1790  0.1993 -0.5895
   29CHL1    H8 2087   5.351   6.687   3.331 -1.1153 -0.0213 -1.8711
   29CHL1   C14 2088   5.400   6.544   3.486 -0.7052  0.2296  0.1035
   29CHL1   H14 2089   5.401   6.433   3.496  2.5471  0.3045  2.0368
   29CHL1   C15 2090   5.313   6.597   3.599 -0.0973  0.1970  0.1774
   29CHL1  H15A 2091   5.283   6.699   3.567 -1.2115  0.0687  0.7439
   29CHL1  H15B 2092   5.220   6.536   3.607  0.4796 -1.0066 -1.6727
   29CHL1   C16 2093   5.409   6.600   3.723  0.1649  0.2849  0.0163
   29CHL1  H16A 2094   5.412   6.697   3.778  1.6778  0.2889 -0.0204
   29CHL1  H16B 2095   5.380   6.528   3.803  1.6625 -0.3039  0.0523
   29CHL1   C17 2096   5.545   6.557   3.664  0.2867 -0.2026 -0.0150
   29CHL1   H17 2097   5.530   6.447   3.671  0.5193 -0.6008 -3.7722
   29CHL1   C13 2098   5.541   6.595   3.520 -1.7084 -0.8248 -0.7517
   29CHL1   C18 2099   5.556   6.745   3.517  0.1812  0.8361  0.3832
   29CHL1  H18A 2100   5.506   6.791   3.604  1.2764 -1.1750  2.1729
   29CHL1  H18B 2101   5.663   6.775   3.513  0.3895  0.5375  2.5938
   29CHL1  H18C 2102   5.508   6.784   3.425  0.6484 -3.2489 -1.8295
   29CHL1   C12 2103   5.638   6.514   3.431 -0.3672 -0.4716 -0.2264
   29CHL1  H12A 2104   5.739   6.550   3.459 -1.0191  1.8751 -0.6870
   29CHL1  H12B 2105   5.626   6.407   3.458 -0.6288 -0.0906  1.2913
   29CHL1   C11 2106   5.609   6.542   3.281  0.4963 -0.0377 -0.4389
   29CHL1  H11A 2107   5.625   6.651   3.271  0.2010  0.0175 -0.3256
   29CHL1  H11B 2108   5.675   6.486   3.212 -0.7045  0.1046 -1.7297
   29CHL1    C9 2109   5.454   6.516   3.249  0.6048  0.8232 -0.3246
   29CHL1    H9 2110   5.444   6.407   3.265  1.2720  0.8305  0.1804
   29CHL1   C10 2111   5.408   6.548   3.102  0.1060  0.1292  0.0555
   29CHL1   C19 2112   5.456   6.689   3.065  0.9861 -0.1034  0.2529
   29CHL1  H19A 2113   5.425   6.767   3.138  1.7992  0.9795 -0.5417
   29CHL1  H19B 2114   5.567   6.684   3.062  1.1444  2.5840 -1.2912
   29CHL1  H19C 2115   5.412   6.716   2.967  0.5424 -0.0220  0.4753
   29CHL1    C1 2116   5.466   6.440   3.008  0.9766 -0.0677  0.6070
   29CHL1   H1A 2117   5.577   6.442   3.009  0.9722  0.3707  2.0254
   29CHL1   H1B 2118   5.443   6.335   3.038  0.9626 -0.2328  0.0471
   29CHL1    C2 2119   5.428   6.449   2.857 -0.0172 -0.8207  0.4320
   29CHL1   H2A 2120   5.462   6.352   2.815 -1.0058 -1.4709  1.0867
   29CHL1   H2B 2121   5.470   6.542   2.814 -2.2040  0.7074  1.3968
   29CHL1   C20 2122   5.671   6.596   3.752  0.6269  1.0929  0.3996
   29CHL1   H20 2123   5.743   6.659   3.696  1.1337 -0.9252 -1.3271
   29CHL1   C21 2124   5.744   6.462   3.765 -0.1791  0.6108 -1.3893
   29CHL1  H21A 2125   5.840   6.482   3.817 -2.0821  2.6585  1.6803
   29CHL1  H21B 2126   5.748   6.432   3.658 -1.6807  1.7186 -1.7957
   29CHL1  H21C 2127   5.674   6.394   3.818  1.3367  0.3156  0.2931
   29CHL1   C22 2128   5.655   6.655   3.890  0.0402  0.0476 -0.5005
   29CHL1  H22A 2129   5.576   6.600   3.946  0.6806  1.4348  1.9402
   29CHL1  H22B 2130   5.745   6.627   3.950  0.5049 -2.4150 -2.1950
   29CHL1   C23 2131   5.630   6.803   3.897  0.3521 -0.3931 -0.1170
   29CHL1  H23A 2132   5.546   6.836   3.832 -0.2090 -0.5895  0.5060
   29CHL1  H23B 2133   5.602   6.828   4.001  0.9037 -0.5516  0.0761
   29CHL1   C24 2134   5.745   6.902   3.866 -0.1308 -0.6462 -0.2759
   29CHL1  H24A 2135   5.821   6.895   3.947  1.1595  3.0360 -1.0113
   29CHL1  H24B 2136   5.791   6.872   3.770 -0.9646  0.8543 -1.1703
   29CHL1   C25 2137   5.707   7.055   3.857 -0.4831 -0.5180  0.2300
   29CHL1   H25 2138   5.638   7.075   3.941  0.6551  1.9553  0.6719
   29CHL1   C26 2139   5.825   7.156   3.879  0.9715  0.5193 -0.1916
   29CHL1  H26A 2140   5.857   7.140   3.984  0.9065  0.7259 -0.1391
   29CHL1  H26B 2141   5.903   7.141   3.802  0.2887 -0.4500 -0.7163
   29CHL1  H26C 2142   5.778   7.257   3.872 -1.7538 -0.5918  0.7427
   29CHL1   C27 2143   5.630   7.091   3.728  0.4144 -0.5580 -0.4194
   29CHL1  H27A 2144   5.692   7.083   3.636  0.8212 -1.5274 -0.0757
   29CHL1  H27B 2145   5.540   7.026   3.716 -0.6878  1.0723 -1.4019
   29CHL1  H27C 2146   5.600   7.197   3.737 -1.8937 -1.1476 -0.5579
   30CHL1    C3 2147   1.027   0.386   2.933 -0.0109  0.0058 -0.5307
   30CHL1    H3 2148   0.935   0.327   2.950 -0.3449  0.9607  1.2098
   30CHL1    O3 2149   1.004   0.436   2.799 -0.4860  0.3062  0.4990
   30CHL1   H3' 2150   1.084   0.482   2.771  0.2527 -1.9504 -1.4637
   30CHL1    C4 2151   1.039   0.505   3.022  0.7543  0.1781  0.2147
   30CHL1   H4A 2152   1.119   0.579   3.000  0.4894  0.1140 -1.0376
   30CHL1   H4B 2153   0.940   0.553   3.014 -0.0622 -1.5029 -0.2296
   30CHL1    C5 2154   1.062   0.465   3.163 -0.9610 -0.1398 -0.6932
   30CHL1    C6 2155   0.980   0.510   3.268  0.5132  0.2401  0.3528
   30CHL1    H6 2156   0.893   0.576   3.251  0.2947 -0.4749 -1.4267
   30CHL1    C7 2157   0.992   0.458   3.410  0.3010  0.0448 -0.0651
   30CHL1   H7A 2158   0.963   0.533   3.486  1.8767 -0.2204  0.8478
   30CHL1   H7B 2159   0.920   0.376   3.429  2.2514 -1.8807 -0.6305
   30CHL1    C8 2160   1.140   0.411   3.439  0.4082 -0.4028 -1.0184
   30CHL1    H8 2161   1.200   0.504   3.443 -0.4111  0.1437  3.5066
   30CHL1   C14 2162   1.146   0.331   3.570 -0.2702 -0.3391  0.3043
   30CHL1   H14 2163   1.095   0.234   3.553  1.0276 -0.9757 -0.0484
   30CHL1   C15 2164   1.059   0.375   3.691  0.2115 -0.6956  0.1446
   30CHL1  H15A 2165   1.064   0.485   3.710 -2.3846 -0.3878 -0.5603
   30CHL1  H15B 2166   0.952   0.345   3.680  0.3798 -0.8401 -1.3711
   30CHL1   C16 2167   1.125   0.316   3.814 -0.1989 -0.4145  0.1391
   30CHL1  H16A 2168   1.177   0.397   3.868 -1.3841  0.1020  0.5285
   30CHL1  H16B 2169   1.049   0.268   3.879 -0.5461  2.2341  1.8368
   30CHL1   C17 2170   1.245   0.231   3.761  0.5721  0.5763  0.5579
   30CHL1   H17 2171   1.193   0.137   3.734 -0.4297  1.3515 -0.3213
   30CHL1   C13 2172   1.282   0.285   3.615  0.2574  0.5138  0.3712
   30CHL1   C18 2173   1.380   0.407   3.634  0.1747 -0.6007  0.2755
   30CHL1  H18A 2174   1.481   0.359   3.640 -0.5117 -2.3924 -1.3147
   30CHL1  H18B 2175   1.378   0.474   3.546 -1.0228 -0.1417  0.6353
   30CHL1  H18C 2176   1.356   0.461   3.728  1.2046 -0.0450  0.2355
   30CHL1   C12 2177   1.336   0.196   3.501 -0.2222 -0.1743 -0.6666
   30CHL1  H12A 2178   1.444   0.185   3.522  0.8894  4.7384 -2.4505
   30CHL1  H12B 2179   1.286   0.096   3.499 -1.0063  0.2055 -3.4015
   30CHL1   C11 2180   1.336   0.267   3.366 -0.1991 -0.7694  0.2268
   30CHL1  H11A 2181   1.404   0.354   3.375 -0.7487 -0.2167 -0.6989
   30CHL1  H11B 2182   1.389   0.205   3.290 -0.6426  0.0053 -0.7325
   30CHL1    C9 2183   1.196   0.323   3.325 -0.3655  0.0478  0.2474
   30CHL1    H9 2184   1.126   0.238   3.338 -2.8475  2.0154  0.4394
   30CHL1   C10 2185   1.182   0.381   3.182 -0.0575  0.2979  0.8883
   30CHL1   C19 2186   1.307   0.467   3.150  0.0566  0.1292  0.7927
   30CHL1  H19A 2187   1.313   0.512   3.048  0.6576 -1.6422  0.0061
   30CHL1  H19B 2188   1.308   0.554   3.220  1.0681  1.0976 -0.3552
   30CHL1  H19C 2189   1.396   0.403   3.167 -0.4750 -0.3860  1.7195
   30CHL1    C1 2190   1.182   0.260   3.085  0.3114 -0.0154 -0.5567
   30CHL1   H1A 2191   1.280   0.209   3.091  0.1332 -0.2765  0.3431
   30CHL1   H1B 2192   1.102   0.191   3.120  0.6651  0.0451  0.4203
   30CHL1    C2 2193   1.145   0.290   2.944 -0.1719  0.2558 -0.1159
   30CHL1   H2A 2194   1.123   0.208   2.872 -0.9524 -0.8623  1.3326
   30CHL1   H2B 2195   1.238   0.337   2.904  0.2680  0.5877  1.2549
   30CHL1   C20 2196   1.354   0.184   3.862  0.4985 -0.9216 -0.5725
   30CHL1   H20 2197   1.394   0.270   3.920 -2.5903 -0.1788  0.6699
   30CHL1   C21 2198   1.471   0.105   3.795  0.6006 -0.7037 -0.1152
   30CHL1  H21A 2199   1.414   0.020   3.753 -0.1565  0.4369 -1.4850
   30CHL1  H21B 2200   1.545   0.061   3.865  2.1527 -1.8228 -2.3472
   30CHL1  H21C 2201   1.532   0.153   3.715 -0.5356 -1.0172 -1.2104
   30CHL1   C22 2202   1.276   0.097   3.971 -0.4985  0.5323  0.4384
   30CHL1  H22A 2203   1.191   0.151   4.019 -0.2230  0.6739  0.7682
   30CHL1  H22B 2204   1.228   0.010   3.921  0.4924 -0.0552  0.4814
   30CHL1   C23 2205   1.354   0.050   4.095 -0.3904 -0.2709  0.1437
   30CHL1  H23A 2206   1.294  -0.025   4.151 -0.4948 -0.8140 -0.6765
   30CHL1  H23B 2207   1.447  -0.002   4.063  0.4542  0.0027  2.0782
   30CHL1   C24 2208   1.405   0.179   4.176  0.5160 -0.1298 -0.1819
   30CHL1  H24A 2209   1.468   0.244   4.112  0.3693  2.6295  2.2558
   30CHL1  H24B 2210   1.320   0.233   4.223  0.0941 -0.9318  0.0093
   30CHL1   C25 2211   1.496   0.127   4.291 -0.1100  0.2972 -0.5685
   30CHL1   H25 2212   1.558   0.043   4.252 -0.5909 -0.3936  0.1423
   30CHL1   C26 2213   1.593   0.233   4.339  0.5852  0.1386 -0.5114
   30CHL1  H26A 2214   1.530   0.310   4.389  1.7108 -0.2996  1.7087
   30CHL1  H26B 2215   1.660   0.182   4.411 -2.5909 -0.2810  2.4524
   30CHL1  H26C 2216   1.651   0.278   4.257  1.3188  0.8763  0.3954
   30CHL1   C27 2217   1.419   0.069   4.421 -0.0679 -0.1594  0.3645
   30CHL1  H27A 2218   1.349   0.147   4.457  0.5427  0.8711 -0.6188
   30CHL1  H27B 2219   1.352  -0.015   4.394  1.6416 -1.3001 -0.4713
   30CHL1  H27C 2220   1.495   0.034   4.494 -0.2077  0.4019  0.7893
   31CHL1    C3 2221   1.093   4.967   2.670 -0.0581  0.8050  0.4460
   31CHL1    H3 2222   1.012   5.029   2.714 -0.4631 -0.9842  2.3683
   31CHL1    O3 2223   1.093   4.971   2.529 -0.2027 -0.3086  0.0486
   31CHL1   H3' 2224   1.007   4.941   2.499  1.3691 -3.9683 -1.4348
   31CHL1    C4 2225   1.234   5.002   2.729  0.3787 -0.1589 -0.1306
   31CHL1   H4A 2226   1.304   4.932   2.678  0.3886  1.6025 -2.7579
   31CHL1   H4B 2227   1.249   5.104   2.687 -0.1553  0.7231  1.7365
   31CHL1    C5 2228   1.237   4.992   2.879  0.4727 -0.3059  0.5513
   31CHL1    C6 2229   1.285   5.088   2.959  0.1212  0.3717  0.6316
   31CHL1    H6 2230   1.326   5.182   2.919 -0.1467 -0.4704 -1.8406
   31CHL1    C7 2231   1.287   5.075   3.104 -1.6080  0.4147 -0.3521
   31CHL1   H7A 2232   1.377   5.122   3.149 -0.7427 -0.4115 -1.1961
   31CHL1   H7B 2233   1.193   5.120   3.144 -3.8885 -2.6567 -1.8548
   31CHL1    C8 2234   1.282   4.926   3.157  0.8376 -0.0224  0.4838
   31CHL1    H8 2235   1.379   4.877   3.134  1.2178  0.7653  0.3785
   31CHL1   C14 2236   1.262   4.923   3.316  0.0774 -0.8665  0.4050
   31CHL1   H14 2237   1.166   4.972   3.341 -0.0280 -1.2134  0.6875
   31CHL1   C15 2238   1.375   4.987   3.395 -0.6364  0.0910 -0.0836
   31CHL1  H15A 2239   1.472   4.977   3.340  1.2478 -0.8330  3.1544
   31CHL1  H15B 2240   1.359   5.096   3.403  0.8222  0.4203 -1.1787
   31CHL1   C16 2241   1.363   4.914   3.528 -0.5107 -0.2339  0.1126
   31CHL1  H16A 2242   1.464   4.874   3.554  0.0860  2.2976  2.1559
   31CHL1  H16B 2243   1.320   4.981   3.605 -1.4272 -0.0528 -0.5437
   31CHL1   C17 2244   1.274   4.787   3.511 -0.7681  0.1736 -0.7593
   31CHL1   H17 2245   1.172   4.814   3.547 -0.4076 -0.9557  1.2574
   31CHL1   C13 2246   1.257   4.775   3.359 -0.3340  0.1743 -1.1650
   31CHL1   C18 2247   1.385   4.690   3.325 -0.3004 -0.2495  0.2706
   31CHL1  H18A 2248   1.367   4.587   3.364 -1.1774  0.6554  2.4355
   31CHL1  H18B 2249   1.411   4.686   3.217 -0.1500 -0.1474  0.3024
   31CHL1  H18C 2250   1.486   4.730   3.349 -0.6708  3.0368 -2.8355
   31CHL1   C12 2251   1.126   4.715   3.301  0.3415 -0.0845 -0.0534
   31CHL1  H12A 2252   1.116   4.608   3.326  1.8334 -0.2147  0.0807
   31CHL1  H12B 2253   1.041   4.776   3.339  1.4276  0.2875  1.9202
   31CHL1   C11 2254   1.131   4.718   3.147  0.3017 -0.4804  0.4699
   31CHL1  H11A 2255   1.203   4.641   3.111 -1.1817 -1.5486 -0.3516
   31CHL1  H11B 2256   1.037   4.671   3.111 -1.0306  1.4990  1.1776
   31CHL1    C9 2257   1.167   4.854   3.086 -0.2444 -0.4311  0.0096
   31CHL1    H9 2258   1.082   4.923   3.109 -0.9086 -1.2007 -0.0855
   31CHL1   C10 2259   1.184   4.856   2.933 -0.3452 -0.9284  0.1974
   31CHL1   C19 2260   1.292   4.749   2.898  0.0424 -1.0754  0.7428
   31CHL1  H19A 2261   1.392   4.774   2.941  1.4816 -1.2903 -2.1564
   31CHL1  H19B 2262   1.276   4.643   2.928 -3.2401 -1.0062 -0.4560
   31CHL1  H19C 2263   1.293   4.735   2.788 -1.0745 -3.5164  0.9879
   31CHL1    C1 2264   1.054   4.813   2.863  0.2176  0.5580  0.1218
   31CHL1   H1A 2265   1.043   4.704   2.882 -1.4222  0.7868  0.6280
   31CHL1   H1B 2266   0.969   4.875   2.898  1.1888  1.3763  1.1093
   31CHL1    C2 2267   1.056   4.827   2.710 -0.5653  0.4513 -0.2686
   31CHL1   H2A 2268   0.957   4.798   2.668 -1.6997  2.1884  1.0511
   31CHL1   H2B 2269   1.125   4.756   2.659 -1.1852  0.0797 -0.6066
   31CHL1   C20 2270   1.318   4.670   3.601  0.1000  0.5999  0.9925
   31CHL1   H20 2271   1.419   4.637   3.570 -1.4555 -0.4425 -3.7361
   31CHL1   C21 2272   1.219   4.548   3.586 -0.0281 -0.3224 -0.0219
   31CHL1  H21A 2273   1.252   4.462   3.647 -2.1449 -2.1972 -1.3735
   31CHL1  H21B 2274   1.217   4.505   3.483  1.3400 -0.2917 -0.0751
   31CHL1  H21C 2275   1.121   4.594   3.611  0.9235  0.2991  2.9367
   31CHL1   C22 2276   1.339   4.711   3.746  0.5028  0.0180 -0.3087
   31CHL1  H22A 2277   1.398   4.626   3.785  0.2799 -2.8597 -5.3390
   31CHL1  H22B 2278   1.402   4.802   3.747 -0.0473  0.4383 -1.6499
   31CHL1   C23 2279   1.214   4.716   3.830  0.6509 -0.5178 -0.4783
   31CHL1  H23A 2280   1.152   4.795   3.783 -1.0329 -1.0536  0.7283
   31CHL1  H23B 2281   1.153   4.623   3.829 -0.9067  0.4529 -2.3677
   31CHL1   C24 2282   1.241   4.752   3.979 -1.0094 -0.0320 -0.5473
   31CHL1  H24A 2283   1.295   4.660   4.011 -0.9071 -0.4481 -1.8512
   31CHL1  H24B 2284   1.323   4.827   3.978 -0.4251 -0.6646 -0.5461
   31CHL1   C25 2285   1.125   4.801   4.069  0.2141 -0.3708  0.4407
   31CHL1   H25 2286   1.037   4.735   4.061  0.4604 -0.5342 -1.6760
   31CHL1   C26 2287   1.168   4.816   4.212 -0.5832 -0.2076  0.1439
   31CHL1  H26A 2288   1.087   4.860   4.275 -0.7890 -0.3164 -0.0404
   31CHL1  H26B 2289   1.190   4.715   4.253  0.5588 -1.3663 -3.0603
   31CHL1  H26C 2290   1.253   4.886   4.210 -1.3152  0.7185 -2.2451
   31CHL1   C27 2291   1.084   4.946   4.015  0.0511  0.0852  0.3100
   31CHL1  H27A 2292   1.045   4.941   3.911  0.0726 -0.7794  0.3331
   31CHL1  H27B 2293   1.006   4.989   4.081 -0.7499 -1.1088  0.1867
   31CHL1  H27C 2294   1.164   5.022   4.018 -0.6435  0.8123  0.6530
   32CHL1    C3 2295   6.012   6.535   2.953 -0.0044  0.4528  0.7961
   32CHL1    H3 2296   6.112   6.583   2.960  0.5756  0.1883 -3.2414
   32CHL1    O3 2297   5.947   6.589   2.837 -0.6607  0.5688  0.1899
   32CHL1   H3' 2298   5.855   6.561   2.839 -1.0384  1.7030 -0.5168
   32CHL1    C4 2299   6.016   6.384   2.945  0.6379  0.1018 -0.0817
   32CHL1   H4A 2300   5.916   6.343   2.919  1.4087 -1.3193 -1.0075
   32CHL1   H4B 2301   6.078   6.358   2.856  0.1722  0.1270 -0.4190
   32CHL1    C5 2302   6.074   6.320   3.071  0.0599 -0.5193  0.0778
   32CHL1    C6 2303   6.180   6.238   3.068 -0.5045 -0.0730 -0.4251
   32CHL1    H6 2304   6.248   6.228   2.983  0.8481  2.9895  0.1713
   32CHL1    C7 2305   6.234   6.169   3.192 -0.1418  0.3025  0.4732
   32CHL1   H7A 2306   6.257   6.066   3.159  0.0516  0.4048  0.2802
   32CHL1   H7B 2307   6.332   6.219   3.211 -0.7889  1.4818  0.7927
   32CHL1    C8 2308   6.145   6.166   3.317 -0.3525  0.3013 -0.1025
   32CHL1    H8 2309   6.075   6.082   3.298 -0.5454  0.5483 -0.4862
   32CHL1   C14 2310   6.233   6.133   3.441  0.0612  0.0582 -0.1909
   32CHL1   H14 2311   6.305   6.218   3.454  1.9625 -1.5127  0.1085
   32CHL1   C15 2312   6.330   6.006   3.426 -0.1143 -0.6109  1.3805
   32CHL1  H15A 2313   6.284   5.925   3.365  1.9234  0.2725 -1.5591
   32CHL1  H15B 2314   6.425   6.027   3.373 -0.8935  0.4675  0.3696
   32CHL1   C16 2315   6.350   5.960   3.570  0.5533  0.3158  0.7828
   32CHL1  H16A 2316   6.299   5.863   3.584 -0.2526  0.0261 -3.1264
   32CHL1  H16B 2317   6.457   5.949   3.596  0.9969 -2.7099 -1.7363
   32CHL1   C17 2318   6.280   6.068   3.664 -0.1245  0.2250  0.4817
   32CHL1   H17 2319   6.348   6.151   3.692  1.0365 -1.0818  1.6668
   32CHL1   C13 2320   6.162   6.123   3.573  0.5982 -0.8878 -0.0150
   32CHL1   C18 2321   6.060   6.000   3.566 -0.2683  0.0175  0.6878
   32CHL1  H18A 2322   6.100   5.896   3.571 -1.6284 -0.6592 -1.3987
   32CHL1  H18B 2323   5.996   6.007   3.657 -0.7012  0.7751  0.3321
   32CHL1  H18C 2324   5.998   6.007   3.475 -0.6345  0.0954  0.9401
   32CHL1   C12 2325   6.077   6.255   3.585  0.2855  0.3296  0.0793
   32CHL1  H12A 2326   6.011   6.243   3.674 -1.6361  1.1078 -1.1796
   32CHL1  H12B 2327   6.148   6.339   3.602 -0.7332  1.4567 -1.0489
   32CHL1   C11 2328   5.992   6.291   3.468  0.3105 -0.5015 -0.5079
   32CHL1  H11A 2329   5.906   6.220   3.462 -1.6622  1.5621  1.4234
   32CHL1  H11B 2330   5.949   6.392   3.482 -1.1792 -1.2061  0.3320
   32CHL1    C9 2331   6.074   6.294   3.336 -0.6455  0.7898 -0.0768
   32CHL1    H9 2332   6.159   6.366   3.345  0.2027 -0.3312  1.3851
   32CHL1   C10 2333   6.001   6.341   3.202  0.1835 -0.5321 -1.1493
   32CHL1   C19 2334   5.861   6.281   3.192  0.3530  1.0840  0.0927
   32CHL1  H19A 2335   5.811   6.300   3.094 -0.2920 -0.4193  0.0958
   32CHL1  H19B 2336   5.868   6.170   3.194 -2.9265  0.7788  0.1546
   32CHL1  H19C 2337   5.796   6.315   3.275  0.5214 -0.1844  0.7672
   32CHL1    C1 2338   5.991   6.498   3.210  0.4103  0.9057  0.2990
   32CHL1   H1A 2339   5.923   6.527   3.293 -1.9368 -0.8074 -0.8847
   32CHL1   H1B 2340   6.097   6.531   3.213  0.6747  0.2519 -1.0123
   32CHL1    C2 2341   5.933   6.567   3.077  0.6413 -0.2478 -0.7633
   32CHL1   H2A 2342   5.922   6.676   3.098 -0.4703 -0.9235  2.8729
   32CHL1   H2B 2343   5.829   6.529   3.078  0.6485 -0.3140  1.1879
   32CHL1   C20 2344   6.245   6.020   3.805 -0.3735  0.5207 -0.3787
   32CHL1   H20 2345   6.178   5.932   3.793  1.9504 -1.5224  0.5566
   32CHL1   C21 2346   6.168   6.128   3.877  0.1134  0.1895  0.5887
   32CHL1  H21A 2347   6.158   6.084   3.978 -0.9716 -2.4183 -0.5616
   32CHL1  H21B 2348   6.064   6.138   3.839  0.5312  0.4778 -0.5402
   32CHL1  H21C 2349   6.220   6.226   3.874  0.9051 -0.2165 -2.1689
   32CHL1   C22 2350   6.370   5.963   3.891  0.0581 -0.2026 -0.2699
   32CHL1  H22A 2351   6.433   5.906   3.820 -2.0991 -2.1948 -0.7021
   32CHL1  H22B 2352   6.416   6.053   3.937  0.8186 -1.0497  0.6727
   32CHL1   C23 2353   6.342   5.871   4.009  0.2411  0.8833  0.1721
   32CHL1  H23A 2354   6.268   5.915   4.079  0.0192  1.5182 -0.4462
   32CHL1  H23B 2355   6.297   5.777   3.971  1.0954  0.1648  0.9177
   32CHL1   C24 2356   6.464   5.830   4.089  0.1196  0.0213 -0.3073
   32CHL1  H24A 2357   6.529   5.763   4.029  0.4289 -0.7666  0.8810
   32CHL1  H24B 2358   6.514   5.923   4.123 -0.5848 -0.0349  0.9319
   32CHL1   C25 2359   6.426   5.752   4.218 -0.4182  0.3490  0.3826
   32CHL1   H25 2360   6.330   5.784   4.263 -0.2290 -0.8541  1.7238
   32CHL1   C26 2361   6.395   5.607   4.183  0.3650  0.2832  0.6956
   32CHL1  H26A 2362   6.303   5.590   4.123 -0.7609  1.0179  2.1332
   32CHL1  H26B 2363   6.482   5.563   4.131  0.5139 -0.4051  1.5159
   32CHL1  H26C 2364   6.388   5.543   4.274 -0.9983 -0.7319 -0.0874
   32CHL1   C27 2365   6.531   5.760   4.326 -0.1935  1.4413 -0.3320
   32CHL1  H27A 2366   6.507   5.698   4.416 -3.2528  0.3056 -1.7921
   32CHL1  H27B 2367   6.631   5.731   4.287 -1.1871 -0.9459 -1.3166
   32CHL1  H27C 2368   6.547   5.867   4.351 -1.1020  1.3942  0.5128
   33CHL1    C3 2369   3.980   1.545   2.845  0.1307  0.8625  0.0446
   33CHL1    H3 2370   4.017   1.649   2.862 -0.6297  0.9870  1.0896
   33CHL1    O3 2371   3.936   1.539   2.712 -0.4836  0.2699 -0.3173
   33CHL1   H3' 2372   4.007   1.579   2.661  0.1971 -3.2569 -2.5524
   33CHL1    C4 2373   4.096   1.444   2.870 -0.3208  0.4454 -0.8497
   33CHL1   H4A 2374   4.058   1.342   2.848  2.1512 -0.9673  0.9311
   33CHL1   H4B 2375   4.179   1.463   2.798  2.2741  1.5747  2.2137
   33CHL1    C5 2376   4.136   1.436   3.021 -0.2206 -0.4059 -0.2825
   33CHL1    C6 2377   4.267   1.437   3.056 -0.3403 -0.1163  0.4642
   33CHL1    H6 2378   4.343   1.437   2.978  1.7426 -2.8761  2.3045
   33CHL1    C7 2379   4.322   1.429   3.193  0.1829 -0.3218 -0.2783
   33CHL1   H7A 2380   4.395   1.346   3.196  0.3572 -0.1774 -0.4630
   33CHL1   H7B 2381   4.384   1.518   3.216 -0.2386 -0.3893  1.2361
   33CHL1    C8 2382   4.202   1.405   3.300 -0.3350  0.0378 -0.0820
   33CHL1    H8 2383   4.191   1.295   3.302 -1.3045 -0.0124 -3.0579
   33CHL1   C14 2384   4.247   1.456   3.439  0.0708  0.2039 -0.5885
   33CHL1   H14 2385   4.257   1.567   3.437 -0.7750  0.3553  1.0149
   33CHL1   C15 2386   4.382   1.403   3.497 -0.2135 -0.0961  0.1720
   33CHL1  H15A 2387   4.393   1.295   3.477  0.6040  0.1932 -1.0214
   33CHL1  H15B 2388   4.463   1.452   3.439 -0.5825  1.3974  0.8665
   33CHL1   C16 2389   4.376   1.458   3.641 -0.4255  0.1461  0.3567
   33CHL1  H16A 2390   4.418   1.385   3.713 -0.9273  0.5608  1.0894
   33CHL1  H16B 2391   4.433   1.550   3.666  0.1985 -0.3934  0.9281
   33CHL1   C17 2392   4.227   1.482   3.668 -0.0422 -0.0521 -0.1785
   33CHL1   H17 2393   4.215   1.592   3.661  2.0794  0.5528  3.3607
   33CHL1   C13 2394   4.148   1.425   3.550  0.1659  1.1430 -0.1083
   33CHL1   C18 2395   4.118   1.275   3.574 -0.4011  0.6766 -0.3556
   33CHL1  H18A 2396   4.202   1.228   3.630 -0.9897 -0.0983 -0.1114
   33CHL1  H18B 2397   4.029   1.263   3.640 -0.3480  0.6977 -0.2796
   33CHL1  H18C 2398   4.093   1.219   3.482  2.7672 -0.4324 -0.6401
   33CHL1   C12 2399   4.022   1.499   3.510 -0.0831  0.1740  0.3297
   33CHL1  H12A 2400   3.937   1.480   3.580 -0.7704 -0.2561 -0.5930
   33CHL1  H12B 2401   4.045   1.607   3.494 -1.0952  0.3168 -0.2962
   33CHL1   C11 2402   3.968   1.467   3.372 -0.7245  0.1589 -0.5243
   33CHL1  H11A 2403   3.920   1.367   3.377 -1.3586  0.4324 -1.0217
   33CHL1  H11B 2404   3.885   1.536   3.346 -0.1608  2.0413  2.1856
   33CHL1    C9 2405   4.077   1.479   3.262 -0.1720  0.2030  0.3840
   33CHL1    H9 2406   4.112   1.584   3.246 -2.0018  0.9624  1.1229
   33CHL1   C10 2407   4.020   1.440   3.122  0.2034 -0.4947 -1.1161
   33CHL1   C19 2408   3.953   1.300   3.119  0.2208 -0.2788 -0.6377
   33CHL1  H19A 2409   4.011   1.219   3.168  1.3371  1.4460  1.0278
   33CHL1  H19B 2410   3.856   1.298   3.173  0.9386  2.8269  1.0011
   33CHL1  H19C 2411   3.934   1.274   3.012  1.3591  1.7402 -1.4029
   33CHL1    C1 2412   3.912   1.549   3.079 -0.0165 -0.1436 -0.0112
   33CHL1   H1A 2413   3.833   1.552   3.157  0.5712  1.8134  0.5594
   33CHL1   H1B 2414   3.976   1.640   3.083 -0.2463 -0.0363  2.2446
   33CHL1    C2 2415   3.860   1.532   2.938  0.3944  0.9826  0.6928
   33CHL1   H2A 2416   3.784   1.608   2.911 -1.1417 -0.7636 -0.1857
   33CHL1   H2B 2417   3.809   1.433   2.928  0.4301  0.7497  2.4940
   33CHL1   C20 2418   4.175   1.447   3.817  0.2310 -0.3457 -0.4244
   33CHL1   H20 2419   4.176   1.337   3.827  1.3340 -0.2423  1.0579
   33CHL1   C21 2420   4.036   1.506   3.838  0.0657  0.0916 -0.1424
   33CHL1  H21A 2421   3.952   1.448   3.794 -0.6435 -0.9970  2.4210
   33CHL1  H21B 2422   4.040   1.603   3.785  1.7974 -0.6436 -1.4486
   33CHL1  H21C 2423   4.010   1.525   3.945 -1.4521 -0.4388 -0.3848
   33CHL1   C22 2424   4.262   1.494   3.942  0.6245 -0.8223 -0.0059
   33CHL1  H22A 2425   4.223   1.466   4.042  0.3220  1.0028  0.4244
   33CHL1  H22B 2426   4.359   1.440   3.940  0.8854 -0.4865  1.8955
   33CHL1   C23 2427   4.308   1.647   3.937 -0.6304  0.5882 -0.0970
   33CHL1  H23A 2428   4.392   1.657   3.865  2.3783  0.1534  3.0956
   33CHL1  H23B 2429   4.226   1.717   3.912  1.0542  2.7365  0.0909
   33CHL1   C24 2430   4.375   1.689   4.069  0.5191 -0.4413 -0.2926
   33CHL1  H24A 2431   4.309   1.656   4.152  1.1783 -2.7988 -0.6445
   33CHL1  H24B 2432   4.472   1.637   4.087  0.6077  0.5143  2.4699
   33CHL1   C25 2433   4.409   1.836   4.080  0.6439 -0.1612  0.8347
   33CHL1   H25 2434   4.325   1.897   4.040 -0.0059 -1.8946 -0.5872
   33CHL1   C26 2435   4.429   1.863   4.228 -0.1641  0.1657 -0.1981
   33CHL1  H26A 2436   4.518   1.812   4.272  0.4083 -0.9472 -2.5137
   33CHL1  H26B 2437   4.443   1.970   4.254  1.0046 -0.2200  0.8809
   33CHL1  H26C 2438   4.344   1.829   4.291  0.5145  0.3391  0.8368
   33CHL1   C27 2439   4.533   1.886   4.001  0.8938 -0.8908  0.3928
   33CHL1  H27A 2440   4.627   1.851   4.050 -0.2326 -0.4620  2.9932
   33CHL1  H27B 2441   4.538   1.858   3.893  1.8703 -1.3872  0.5547
   33CHL1  H27C 2442   4.527   1.996   4.009  1.2178 -0.5518 -2.6587
   34CHL1    C3 2443   4.789   3.024   2.763  0.3519 -0.5765  0.6580
   34CHL1    H3 2444   4.837   2.939   2.817  2.2437 -0.7151 -1.1243
   34CHL1    O3 2445   4.737   2.981   2.637 -0.2287 -0.0254 -0.1940
   34CHL1   H3' 2446   4.720   3.065   2.594 -0.7753  0.5544  1.1082
   34CHL1    C4 2447   4.666   3.075   2.835  0.3778 -0.0123 -0.7328
   34CHL1   H4A 2448   4.602   3.147   2.780 -0.4407 -0.0243  0.1723
   34CHL1   H4B 2449   4.589   2.996   2.849 -2.0619  2.5488  1.4476
   34CHL1    C5 2450   4.713   3.122   2.971 -1.0750  0.2608 -0.2997
   34CHL1    C6 2451   4.666   3.072   3.086 -0.8664 -0.3287  0.3131
   34CHL1    H6 2452   4.591   2.993   3.072 -1.6945  0.6273 -0.9073
   34CHL1    C7 2453   4.702   3.109   3.221  0.6612  0.3733 -0.6777
   34CHL1   H7A 2454   4.616   3.111   3.291  0.8926 -0.7035 -0.3396
   34CHL1   H7B 2455   4.784   3.050   3.266  1.1919  0.3067 -1.7013
   34CHL1    C8 2456   4.764   3.253   3.219 -0.5114 -0.3573 -0.3638
   34CHL1    H8 2457   4.683   3.326   3.196 -1.3498 -0.3372  2.3672
   34CHL1   C14 2458   4.825   3.285   3.347  0.4349  0.2016  0.4598
   34CHL1   H14 2459   4.898   3.202   3.361 -0.0755 -0.0504  1.7766
   34CHL1   C15 2460   4.733   3.284   3.473 -0.6745 -0.3798 -0.1544
   34CHL1  H15A 2461   4.652   3.358   3.454 -0.9240 -0.7771 -0.6611
   34CHL1  H15B 2462   4.694   3.182   3.496 -0.3410 -0.0161  2.3149
   34CHL1   C16 2463   4.830   3.347   3.576 -0.7208  0.3678 -0.9846
   34CHL1  H16A 2464   4.769   3.413   3.641  0.6098 -0.2981  1.0555
   34CHL1  H16B 2465   4.872   3.274   3.649 -1.9579  0.2515 -0.3486
   34CHL1   C17 2466   4.948   3.408   3.497  0.5385  0.9340 -0.0263
   34CHL1   H17 2467   5.029   3.332   3.493  0.7738  1.2272 -1.3678
   34CHL1   C13 2468   4.903   3.419   3.355 -0.2706  0.7535 -0.3039
   34CHL1   C18 2469   4.803   3.539   3.335 -1.3848  0.3953 -0.4215
   34CHL1  H18A 2470   4.719   3.537   3.408 -0.3919 -0.7626  0.7380
   34CHL1  H18B 2471   4.860   3.635   3.336  3.1521 -2.0312 -0.9256
   34CHL1  H18C 2472   4.763   3.524   3.233  1.6848  0.7168 -1.7728
   34CHL1   C12 2473   5.018   3.420   3.254  0.0385 -0.3356  0.3998
   34CHL1  H12A 2474   5.061   3.521   3.240 -1.7635  0.8012  2.4498
   34CHL1  H12B 2475   5.101   3.348   3.273  0.0271 -0.4356  0.0765
   34CHL1   C11 2476   4.957   3.391   3.119  0.1096 -0.5736  0.0762
   34CHL1  H11A 2477   4.892   3.477   3.092  0.7561  0.6062  2.0216
   34CHL1  H11B 2478   5.039   3.387   3.044  1.2189  0.0050  1.2026
   34CHL1    C9 2479   4.868   3.264   3.108 -0.8712 -0.2474 -0.2105
   34CHL1    H9 2480   4.938   3.181   3.128  0.2713  0.4818 -1.0477
   34CHL1   C10 2481   4.813   3.233   2.967  0.8354  0.0755  0.0750
   34CHL1   C19 2482   4.740   3.353   2.898 -0.5940  0.3104  0.3148
   34CHL1  H19A 2483   4.828   3.413   2.866 -1.2246  0.8570 -0.4712
   34CHL1  H19B 2484   4.693   3.333   2.799  1.1493 -2.3603 -0.0609
   34CHL1  H19C 2485   4.669   3.401   2.969 -0.5156  1.8147 -0.5738
   34CHL1    C1 2486   4.934   3.191   2.881  0.2726  0.0632 -0.1869
   34CHL1   H1A 2487   5.005   3.276   2.871  1.3957 -0.9677 -1.2779
   34CHL1   H1B 2488   4.987   3.109   2.934 -0.6439 -1.0003 -0.8752
   34CHL1    C2 2489   4.893   3.134   2.750  0.3575  0.2519 -0.2600
   34CHL1   H2A 2490   4.985   3.100   2.699  1.1003  1.4829  0.2404
   34CHL1   H2B 2491   4.850   3.210   2.680 -2.2772  0.0572  1.0077
   34CHL1   C20 2492   4.998   3.536   3.572 -0.0066 -0.2964 -0.0515
   34CHL1   H20 2493   4.925   3.619   3.572 -2.1939 -2.1132  0.8599
   34CHL1   C21 2494   5.123   3.597   3.507 -0.9654 -0.3169 -0.2286
   34CHL1  H21A 2495   5.217   3.539   3.516  0.2110  1.7424  2.1501
   34CHL1  H21B 2496   5.161   3.686   3.562  1.4032 -1.7205  0.5662
   34CHL1  H21C 2497   5.102   3.628   3.403 -0.5936 -0.1218 -0.2482
   34CHL1   C22 2498   5.035   3.513   3.720 -0.0829 -0.2536 -1.3497
   34CHL1  H22A 2499   4.959   3.456   3.776  0.5439  1.3333  1.2706
   34CHL1  H22B 2500   5.125   3.448   3.718 -0.6768 -1.1053 -1.0144
   34CHL1   C23 2501   5.061   3.641   3.804 -0.1690  0.3085  0.7039
   34CHL1  H23A 2502   5.121   3.722   3.758 -0.2313  0.5966  1.1232
   34CHL1  H23B 2503   4.961   3.684   3.828 -0.9987 -1.1138 -0.0929
   34CHL1   C24 2504   5.120   3.613   3.937  0.2626  0.4189 -0.0250
   34CHL1  H24A 2505   5.057   3.531   3.977  0.6439 -1.8369 -3.6127
   34CHL1  H24B 2506   5.224   3.577   3.924 -0.1068 -0.3939 -0.8364
   34CHL1   C25 2507   5.126   3.727   4.044  0.3573  0.1078  0.2870
   34CHL1   H25 2508   5.033   3.788   4.039  1.5213  1.9402 -0.0488
   34CHL1   C26 2509   5.145   3.675   4.187  0.0196 -0.0123  0.0306
   34CHL1  H26A 2510   5.237   3.611   4.180 -2.0563 -3.1277 -1.0814
   34CHL1  H26B 2511   5.156   3.772   4.240 -1.4027 -0.9038  2.0610
   34CHL1  H26C 2512   5.056   3.615   4.214 -0.3037 -0.0239 -0.9950
   34CHL1   C27 2513   5.244   3.817   4.022  0.4858  0.0180 -0.1885
   34CHL1  H27A 2514   5.341   3.763   4.035  1.9477  2.4478 -0.3705
   34CHL1  H27B 2515   5.249   3.851   3.916  1.9752 -1.1145 -0.5302
   34CHL1  H27C 2516   5.240   3.906   4.087  0.0244  0.2350 -0.5093
   35CHL1    C3 2517   4.648   1.491   2.883 -0.2045  0.3352 -0.5084
   35CHL1    H3 2518   4.550   1.460   2.925 -0.1176  1.2950  0.4509
   35CHL1    O3 2519   4.642   1.505   2.741 -0.2351  0.6185 -1.1599
   35CHL1   H3' 2520   4.716   1.566   2.730  0.7938  0.2680  2.3269
   35CHL1    C4 2521   4.692   1.626   2.948 -0.4501  0.0332  0.5762
   35CHL1   H4A 2522   4.790   1.653   2.903 -1.3662  0.8694 -1.0476
   35CHL1   H4B 2523   4.621   1.706   2.917  1.1080  0.8234 -1.1777
   35CHL1    C5 2524   4.696   1.611   3.097  0.5236  0.1517 -0.2081
   35CHL1    C6 2525   4.618   1.684   3.180 -0.2677  0.0114  0.0142
   35CHL1    H6 2526   4.554   1.761   3.134  0.3343  1.9724  2.2490
   35CHL1    C7 2527   4.628   1.687   3.337 -0.3084  0.5814  0.7124
   35CHL1   H7A 2528   4.625   1.793   3.369 -0.0805  0.8166 -0.0159
   35CHL1   H7B 2529   4.551   1.622   3.383 -0.5847 -1.2096 -2.0775
   35CHL1    C8 2530   4.755   1.611   3.384 -0.2551 -0.5364 -0.0631
   35CHL1    H8 2531   4.840   1.680   3.363 -1.8781  2.5182  2.4228
   35CHL1   C14 2532   4.747   1.584   3.531  0.1277 -0.0424  0.3418
   35CHL1   H14 2533   4.672   1.503   3.540  1.1648 -1.3495 -1.9311
   35CHL1   C15 2534   4.706   1.692   3.623  0.4403 -0.5043  0.4455
   35CHL1  H15A 2535   4.779   1.775   3.609 -0.6944  0.3159 -0.9239
   35CHL1  H15B 2536   4.607   1.741   3.606  0.9733  0.6615  0.5931
   35CHL1   C16 2537   4.727   1.623   3.760  0.1192 -0.5382 -0.5932
   35CHL1  H16A 2538   4.784   1.694   3.823 -1.4493  0.4776 -0.2637
   35CHL1  H16B 2539   4.632   1.591   3.809 -0.4038  0.9667 -0.5826
   35CHL1   C17 2540   4.824   1.497   3.733  0.7846 -0.3365  0.0119
   35CHL1   H17 2541   4.759   1.408   3.747  0.9268 -0.4154  0.1676
   35CHL1   C13 2542   4.865   1.509   3.589  0.5528  0.9590  0.5698
   35CHL1   C18 2543   4.989   1.603   3.576  0.0109 -0.0256 -0.6989
   35CHL1  H18A 2544   4.969   1.707   3.610 -1.4756 -1.0702  1.9138
   35CHL1  H18B 2545   5.076   1.567   3.634  0.5589  2.2015 -0.0435
   35CHL1  H18C 2546   5.026   1.611   3.472 -0.8438 -3.0662 -1.3177
   35CHL1   C12 2547   4.892   1.380   3.512 -0.5408 -0.6565 -0.3003
   35CHL1  H12A 2548   4.985   1.328   3.545 -0.2690 -1.0339 -1.5948
   35CHL1  H12B 2549   4.805   1.316   3.539 -1.5960  0.8357 -0.0501
   35CHL1   C11 2550   4.899   1.399   3.361 -0.0289  0.2783  0.4097
   35CHL1  H11A 2551   4.996   1.451   3.349  0.1950 -0.2021  0.1075
   35CHL1  H11B 2552   4.907   1.296   3.320 -0.8081 -1.4063  4.0725
   35CHL1    C9 2553   4.782   1.481   3.298 -0.1876 -0.6308  0.3026
   35CHL1    H9 2554   4.696   1.412   3.311 -2.6009  2.3107  1.2257
   35CHL1   C10 2555   4.799   1.512   3.141 -0.0385  0.2021 -0.0530
   35CHL1   C19 2556   4.940   1.570   3.110 -0.3007  0.0603 -0.3005
   35CHL1  H19A 2557   5.027   1.525   3.162 -0.9948 -0.2985  0.5730
   35CHL1  H19B 2558   4.953   1.563   3.000 -0.8949  1.0497 -0.4511
   35CHL1  H19C 2559   4.951   1.681   3.109 -0.4689  0.0831  0.1526
   35CHL1    C1 2560   4.771   1.374   3.073 -0.0579 -0.2208 -0.0135
   35CHL1   H1A 2561   4.858   1.306   3.087 -0.5852 -0.6286  1.4727
   35CHL1   H1B 2562   4.683   1.317   3.110 -0.5686  1.2871  1.1863
   35CHL1    C2 2563   4.751   1.381   2.922 -0.4445 -0.0396 -0.0844
   35CHL1   H2A 2564   4.710   1.289   2.873  1.3496 -1.0354  0.2012
   35CHL1   H2B 2565   4.846   1.416   2.877  0.2942 -1.7156  0.1126
   35CHL1   C20 2566   4.938   1.475   3.843  0.4141  0.1126  0.8965
   35CHL1   H20 2567   5.016   1.552   3.828  0.1442  0.5370  1.6022
   35CHL1   C21 2568   4.994   1.331   3.824  0.6333 -0.0585 -0.6450
   35CHL1  H21A 2569   4.919   1.253   3.848 -0.3370  1.3107  0.9946
   35CHL1  H21B 2570   5.068   1.315   3.905  1.6938  0.5155 -1.4716
   35CHL1  H21C 2571   5.043   1.305   3.728  0.9530 -0.6147 -0.3326
   35CHL1   C22 2572   4.871   1.493   3.991 -0.2216  0.3152 -0.5877
   35CHL1  H22A 2573   4.958   1.483   4.060 -0.5316 -1.9722 -0.4501
   35CHL1  H22B 2574   4.848   1.600   4.008  0.5190  0.4569 -0.4209
   35CHL1   C23 2575   4.758   1.408   4.043  0.1442 -0.4694 -0.8035
   35CHL1  H23A 2576   4.676   1.417   3.969 -2.8466 -0.0748  2.3101
   35CHL1  H23B 2577   4.782   1.300   4.048 -0.6989 -0.6103  0.8219
   35CHL1   C24 2578   4.718   1.444   4.188 -0.4657 -0.3071  0.2076
   35CHL1  H24A 2579   4.814   1.448   4.243 -0.4825  1.7436  0.1569
   35CHL1  H24B 2580   4.675   1.546   4.196  1.7444  0.5950  1.6596
   35CHL1   C25 2581   4.633   1.338   4.259  0.0140  0.0956  0.2410
   35CHL1   H25 2582   4.670   1.238   4.228 -2.8079 -0.2652 -2.4802
   35CHL1   C26 2583   4.627   1.363   4.413  0.4176  0.2534  0.0978
   35CHL1  H26A 2584   4.572   1.289   4.476 -0.4333  0.0846 -0.8275
   35CHL1  H26B 2585   4.728   1.362   4.460 -0.6709 -1.1584  2.6157
   35CHL1  H26C 2586   4.572   1.459   4.424 -0.3323  0.0245 -1.4135
   35CHL1   C27 2587   4.496   1.352   4.191 -0.1411  0.5301  0.1889
   35CHL1  H27A 2588   4.509   1.333   4.083  0.5055  3.5367 -0.3638
   35CHL1  H27B 2589   4.429   1.272   4.229 -0.0393  0.9863  1.3648
   35CHL1  H27C 2590   4.451   1.450   4.220 -0.3375  0.0317  1.6402
   36CHL1    C3 2591   0.602   0.324   3.132 -0.2715  0.4110 -0.0144
   36CHL1    H3 2592   0.689   0.386   3.163 -0.5284  1.7073 -1.7328
   36CHL1    O3 2593   0.567   0.346   2.999  0.5758  0.3957 -1.2125
   36CHL1   H3' 2594   0.505   0.275   2.982 -0.6795  1.6960 -2.3266
   36CHL1    C4 2595   0.639   0.171   3.147 -0.6422  0.0222 -0.0544
   36CHL1   H4A 2596   0.552   0.109   3.117 -0.6282 -0.8979  1.6707
   36CHL1   H4B 2597   0.719   0.143   3.075  0.7215 -0.1212  1.4486
   36CHL1    C5 2598   0.682   0.145   3.291 -0.0250  1.3345  0.1579
   36CHL1    C6 2599   0.805   0.088   3.321 -1.2486 -0.2185  0.2643
   36CHL1    H6 2600   0.875   0.047   3.247 -1.7011 -1.7409  0.6430
   36CHL1    C7 2601   0.842   0.049   3.462  0.6309 -0.0242 -0.8700
   36CHL1   H7A 2602   0.900  -0.045   3.459  0.8698  0.1414 -1.7056
   36CHL1   H7B 2603   0.909   0.127   3.504 -0.4938  0.4865  0.0346
   36CHL1    C8 2604   0.722   0.054   3.566 -0.1665  0.0043  0.8863
   36CHL1    H8 2605   0.654  -0.033   3.553  0.6642 -0.5609  0.2437
   36CHL1   C14 2606   0.774   0.059   3.706  0.3619  0.1230 -0.0455
   36CHL1   H14 2607   0.824   0.158   3.717 -0.8100  0.5339  1.8947
   36CHL1   C15 2608   0.879  -0.047   3.742  0.4375 -0.4725  0.0182
   36CHL1  H15A 2609   0.846  -0.145   3.702  0.4936 -0.3581 -0.3115
   36CHL1  H15B 2610   0.983  -0.022   3.710  0.3342  2.0519  1.3649
   36CHL1   C16 2611   0.872  -0.049   3.898  0.0337 -0.8725 -0.2156
   36CHL1  H16A 2612   0.851  -0.152   3.932  1.0701 -2.0386 -2.8482
   36CHL1  H16B 2613   0.974  -0.035   3.938 -0.6657 -0.2637  1.4728
   36CHL1   C17 2614   0.760   0.061   3.934  0.0184  0.4068 -1.4074
   36CHL1   H17 2615   0.820   0.154   3.947  1.9822 -0.6833 -2.2281
   36CHL1   C13 2616   0.670   0.065   3.803  0.9704  0.0726  0.1924
   36CHL1   C18 2617   0.589  -0.071   3.803 -0.3969 -0.0740  1.1707
   36CHL1  H18A 2618   0.662  -0.155   3.808 -1.7457 -1.3616 -0.0796
   36CHL1  H18B 2619   0.528  -0.076   3.896 -2.1109 -3.8215  0.0121
   36CHL1  H18C 2620   0.524  -0.072   3.714  1.5575 -1.2300 -0.3340
   36CHL1   C12 2621   0.575   0.184   3.780  0.2948  1.0707  0.3811
   36CHL1  H12A 2622   0.493   0.192   3.854  0.4787 -0.5923  0.8115
   36CHL1  H12B 2623   0.630   0.279   3.791  0.2215  1.2256 -0.4616
   36CHL1   C11 2624   0.511   0.175   3.645 -0.0334  0.7011 -0.0696
   36CHL1  H11A 2625   0.455   0.081   3.621 -0.1688  1.6761 -4.3538
   36CHL1  H11B 2626   0.435   0.256   3.635 -0.3243  0.8017  2.2399
   36CHL1    C9 2627   0.624   0.177   3.537 -0.0992 -0.7658  0.0492
   36CHL1    H9 2628   0.685   0.269   3.548 -0.6678 -0.2772 -0.7500
   36CHL1   C10 2629   0.573   0.184   3.392  0.2313 -0.9042 -0.2704
   36CHL1   C19 2630   0.464   0.085   3.370  0.5394  0.1000  0.5828
   36CHL1  H19A 2631   0.417   0.093   3.270 -2.5985 -0.2507  1.9153
   36CHL1  H19B 2632   0.507  -0.018   3.374 -1.3234 -0.8553 -1.6868
   36CHL1  H19C 2633   0.385   0.086   3.448  0.7952 -2.3397  0.9559
   36CHL1    C1 2634   0.522   0.335   3.366 -0.1011  0.1839 -0.5061
   36CHL1   H1A 2635   0.438   0.352   3.437 -0.7676 -3.1315 -0.3613
   36CHL1   H1B 2636   0.607   0.402   3.393 -0.0120  0.2028 -0.8261
   36CHL1    C2 2637   0.485   0.370   3.216 -1.1638 -0.1954 -0.0563
   36CHL1   H2A 2638   0.468   0.479   3.205 -1.6380 -0.2733 -0.1060
   36CHL1   H2B 2639   0.387   0.323   3.192 -1.8374 -0.2288  2.4125
   36CHL1   C20 2640   0.699   0.026   4.073  0.5620 -0.0757  0.8311
   36CHL1   H20 2641   0.663  -0.079   4.064  0.3089  0.0556  0.2608
   36CHL1   C21 2642   0.586   0.130   4.101  0.0839 -0.7051 -0.2201
   36CHL1  H21A 2643   0.504   0.112   4.029  1.0938  0.0707 -1.6209
   36CHL1  H21B 2644   0.616   0.237   4.095  0.0866 -0.2019  4.4426
   36CHL1  H21C 2645   0.555   0.127   4.208  1.4785  1.6695  0.3244
   36CHL1   C22 2646   0.805   0.045   4.188 -0.5231  0.0656 -0.2647
   36CHL1  H22A 2647   0.906   0.029   4.142  0.8379  2.0371  1.8454
   36CHL1  H22B 2648   0.780   0.150   4.213 -1.3379 -0.5136  1.5066
   36CHL1   C23 2649   0.786  -0.049   4.308 -0.2129  0.6750  0.3033
   36CHL1  H23A 2650   0.862  -0.016   4.382  2.6181 -0.8474 -1.7559
   36CHL1  H23B 2651   0.686  -0.043   4.357 -1.5226 -2.9083 -1.6252
   36CHL1   C24 2652   0.817  -0.188   4.262  0.3864  0.4991 -0.8603
   36CHL1  H24A 2653   0.759  -0.216   4.172 -2.9120 -0.0307  1.2459
   36CHL1  H24B 2654   0.926  -0.197   4.243  1.0024 -1.6097  2.6958
   36CHL1   C25 2655   0.791  -0.305   4.366  0.8057 -0.7755  0.2045
   36CHL1   H25 2656   0.848  -0.285   4.460 -0.2960 -1.6595  1.0865
   36CHL1   C26 2657   0.637  -0.309   4.406  0.2909 -0.7388  0.0878
   36CHL1  H26A 2658   0.558  -0.302   4.328 -1.2398 -0.8307  1.5542
   36CHL1  H26B 2659   0.629  -0.411   4.450  0.0895 -2.5703 -3.8321
   36CHL1  H26C 2660   0.625  -0.224   4.478 -0.8377  0.0424 -0.9868
   36CHL1   C27 2661   0.833  -0.439   4.308 -0.0811 -0.0676 -0.3845
   36CHL1  H27A 2662   0.936  -0.428   4.266  0.4553  0.3622  0.9731
   36CHL1  H27B 2663   0.824  -0.519   4.384 -1.9258  1.2894  0.8996
   36CHL1  H27C 2664   0.767  -0.472   4.225  0.5967 -0.7770 -0.6529
   37CHL1    C3 2665   2.717   1.140   5.922  1.0046  0.0221  0.3437
   37CHL1    H3 2666   2.701   1.250   5.918 -0.9137 -0.2344 -3.1361
   37CHL1    O3 2667   2.745   1.101   6.055  0.1881  0.1940  0.1882
   37CHL1   H3' 2668   2.720   1.009   6.064  0.6439  0.1057  0.5257
   37CHL1    C4 2669   2.584   1.083   5.872 -0.1231  0.3527  0.8685
   37CHL1   H4A 2670   2.582   0.972   5.870 -1.5066  0.3070 -2.4072
   37CHL1   H4B 2671   2.500   1.125   5.932 -1.2069 -1.5088  0.7539
   37CHL1    C5 2672   2.560   1.116   5.723 -0.4539  0.0212  0.1189
   37CHL1    C6 2673   2.454   1.191   5.695 -0.2469 -0.3644  0.1047
   37CHL1    H6 2674   2.385   1.230   5.771  1.6163  2.6415  0.4325
   37CHL1    C7 2675   2.420   1.239   5.560 -0.6850 -0.1513  0.0849
   37CHL1   H7A 2676   2.311   1.222   5.547 -0.5249 -0.7248 -0.5744
   37CHL1   H7B 2677   2.440   1.348   5.551  0.0030 -0.4195 -2.2083
   37CHL1    C8 2678   2.508   1.179   5.442  1.1620 -0.1879 -0.1830
   37CHL1    H8 2679   2.469   1.076   5.429  2.9840 -0.8822 -0.4851
   37CHL1   C14 2680   2.497   1.259   5.314 -0.4483 -0.5839  0.0873
   37CHL1   H14 2681   2.546   1.354   5.346  0.6964 -1.3200  0.5812
   37CHL1   C15 2682   2.361   1.300   5.261  0.0071  0.1902 -0.1601
   37CHL1  H15A 2683   2.296   1.210   5.260  2.0081 -1.3454  0.2966
   37CHL1  H15B 2684   2.313   1.385   5.313  1.2015 -0.0222  1.3681
   37CHL1   C16 2685   2.395   1.349   5.119  0.8137  0.6251 -0.8149
   37CHL1  H16A 2686   2.334   1.282   5.055  0.7005 -1.2401  1.1395
   37CHL1  H16B 2687   2.378   1.457   5.098  1.1933  0.4932 -1.8887
   37CHL1   C17 2688   2.541   1.318   5.089 -0.1991 -0.5593 -0.0662
   37CHL1   H17 2689   2.592   1.411   5.122  1.1919 -1.7869  1.3952
   37CHL1   C13 2690   2.577   1.204   5.191  0.1426  0.0349  0.2643
   37CHL1   C18 2691   2.520   1.069   5.148  0.2772 -0.0547  0.3517
   37CHL1  H18A 2692   2.411   1.072   5.128  0.7546  1.2870 -2.5436
   37CHL1  H18B 2693   2.568   1.029   5.056  0.6831  1.8704 -0.3246
   37CHL1  H18C 2694   2.548   0.998   5.229 -0.0004  0.1241  0.6005
   37CHL1   C12 2695   2.725   1.188   5.245  0.1660 -0.4423  0.3061
   37CHL1  H12A 2696   2.782   1.129   5.170  0.2024  1.3123 -1.1137
   37CHL1  H12B 2697   2.775   1.287   5.246  0.8062 -0.7351 -0.8275
   37CHL1   C11 2698   2.738   1.106   5.377 -0.0343  0.7987  0.4064
   37CHL1  H11A 2699   2.699   1.004   5.360  0.0871  0.6499  1.0146
   37CHL1  H11B 2700   2.843   1.110   5.411 -0.5321 -0.2170  2.1537
   37CHL1    C9 2701   2.652   1.161   5.492  0.0305 -0.1866  0.9012
   37CHL1    H9 2702   2.687   1.266   5.509  0.2509 -0.4952  2.4871
   37CHL1   C10 2703   2.674   1.085   5.621  0.0975 -0.2884 -0.0636
   37CHL1   C19 2704   2.658   0.934   5.606 -0.3328 -0.6481  0.7800
   37CHL1  H19A 2705   2.685   0.881   5.700  0.0632  0.7698  1.4790
   37CHL1  H19B 2706   2.555   0.916   5.567 -1.0477 -0.1212  2.3333
   37CHL1  H19C 2707   2.731   0.901   5.529 -1.1230  1.4668 -0.9584
   37CHL1    C1 2708   2.809   1.122   5.683 -0.4937  0.1355 -0.0449
   37CHL1   H1A 2709   2.894   1.069   5.636 -0.1585  0.8796 -0.2938
   37CHL1   H1B 2710   2.831   1.230   5.664  3.2302 -0.6461 -1.0270
   37CHL1    C2 2711   2.820   1.089   5.831  0.6210  0.0755  0.3479
   37CHL1   H2A 2712   2.916   1.126   5.873 -0.6924  0.6671  3.0653
   37CHL1   H2B 2713   2.807   0.979   5.840 -2.2729  0.2847 -0.3855
   37CHL1   C20 2714   2.562   1.294   4.936 -0.1743 -0.8285  0.5656
   37CHL1   H20 2715   2.506   1.202   4.906  2.7243 -2.7145  0.6013
   37CHL1   C21 2716   2.715   1.280   4.924  0.6889 -0.5623 -0.2593
   37CHL1  H21A 2717   2.742   1.281   4.816 -2.5507  0.1877 -1.1767
   37CHL1  H21B 2718   2.758   1.191   4.975  3.0051  0.4667 -0.3324
   37CHL1  H21C 2719   2.753   1.374   4.967 -0.6827  0.2546 -0.7636
   37CHL1   C22 2720   2.513   1.407   4.846  0.0233 -0.6928  0.4356
   37CHL1  H22A 2721   2.410   1.432   4.879  0.0682 -1.8525  1.5322
   37CHL1  H22B 2722   2.576   1.497   4.863  1.1665 -1.7697  2.3313
   37CHL1   C23 2723   2.515   1.379   4.702  0.1080 -0.4145  0.8228
   37CHL1  H23A 2724   2.621   1.382   4.668 -0.4215  0.8744 -0.8316
   37CHL1  H23B 2725   2.457   1.290   4.670 -2.1273  1.4055 -0.5330
   37CHL1   C24 2726   2.448   1.489   4.633 -0.0038  0.2351  0.3077
   37CHL1  H24A 2727   2.346   1.497   4.677 -1.0264 -2.0991 -1.4346
   37CHL1  H24B 2728   2.499   1.585   4.654 -0.7638  0.8837 -0.6936
   37CHL1   C25 2729   2.441   1.477   4.477  0.5468  0.0239 -0.9952
   37CHL1   H25 2730   2.422   1.369   4.457  0.0854  0.2080 -1.5904
   37CHL1   C26 2731   2.310   1.544   4.432 -0.0408  0.0224 -0.4849
   37CHL1  H26A 2732   2.223   1.494   4.479  0.2084  2.3457  2.7832
   37CHL1  H26B 2733   2.316   1.651   4.459 -3.6200 -0.0820  1.2597
   37CHL1  H26C 2734   2.304   1.540   4.321  1.4892 -3.4022 -0.5721
   37CHL1   C27 2735   2.571   1.515   4.406 -0.2088 -0.6526 -0.9202
   37CHL1  H27A 2736   2.574   1.472   4.304  1.0934  1.3645 -1.7944
   37CHL1  H27B 2737   2.591   1.624   4.409 -0.3669 -0.6363 -0.3655
   37CHL1  H27C 2738   2.654   1.458   4.453  0.1410  0.0401 -0.6860
   38CHL1    C3 2739   5.858   1.261   2.625 -0.5602 -0.0218 -0.7082
   38CHL1    H3 2740   5.784   1.179   2.615  0.3262 -0.5912 -3.3157
   38CHL1    O3 2741   5.932   1.242   2.505 -0.0200 -0.3681  0.8185
   38CHL1   H3' 2742   5.983   1.322   2.491  2.6775 -1.8553  1.5190
   38CHL1    C4 2743   5.783   1.397   2.650  0.3502  0.8056 -0.1562
   38CHL1   H4A 2744   5.853   1.483   2.638  0.4611  0.5159 -1.7159
   38CHL1   H4B 2745   5.702   1.399   2.574  0.4838  0.1835 -0.3143
   38CHL1    C5 2746   5.721   1.419   2.787 -0.6803  0.6622 -0.0215
   38CHL1    C6 2747   5.594   1.453   2.798 -0.5785 -0.1511  0.4936
   38CHL1    H6 2748   5.524   1.448   2.714 -0.4618  0.7464  0.3316
   38CHL1    C7 2749   5.535   1.477   2.933 -0.7321  0.1206  0.1887
   38CHL1   H7A 2750   5.495   1.580   2.941  2.0115  1.2588  0.6575
   38CHL1   H7B 2751   5.458   1.400   2.954 -1.3315  0.0844 -1.9557
   38CHL1    C8 2752   5.635   1.475   3.055  0.5680 -0.2476 -0.5382
   38CHL1    H8 2753   5.683   1.575   3.059  1.2456 -0.5792  0.0674
   38CHL1   C14 2754   5.563   1.445   3.186  0.7913  0.2954 -0.3520
   38CHL1   H14 2755   5.518   1.348   3.157  0.4952  0.8109 -1.6875
   38CHL1   C15 2756   5.444   1.544   3.215  0.0376 -1.2008 -0.2057
   38CHL1  H15A 2757   5.478   1.646   3.186 -1.3366 -0.3230  1.1237
   38CHL1  H15B 2758   5.354   1.528   3.153  0.1137  0.5669 -0.8153
   38CHL1   C16 2759   5.421   1.534   3.367 -0.4600 -0.1414 -0.1052
   38CHL1  H16A 2760   5.436   1.636   3.408 -0.0048  0.2330 -1.1612
   38CHL1  H16B 2761   5.325   1.485   3.393  0.0379 -0.9685  0.2024
   38CHL1   C17 2762   5.535   1.441   3.421 -0.4324  0.2677 -0.0056
   38CHL1   H17 2763   5.497   1.337   3.416 -2.4582  0.9624  0.0087
   38CHL1   C13 2764   5.646   1.446   3.314 -0.8208  0.3632 -0.2127
   38CHL1   C18 2765   5.718   1.585   3.323 -0.0117 -0.2175 -0.0826
   38CHL1  H18A 2766   5.642   1.665   3.309  1.7876  1.4246 -1.0495
   38CHL1  H18B 2767   5.770   1.598   3.420  0.0332 -0.6626 -0.0462
   38CHL1  H18C 2768   5.793   1.604   3.243  0.0925 -1.2520 -0.2488
   38CHL1   C12 2769   5.747   1.328   3.288 -0.2631 -0.2117  0.1465
   38CHL1  H12A 2770   5.809   1.321   3.380 -0.7497 -0.8517  0.4287
   38CHL1  H12B 2771   5.689   1.235   3.275  0.9429 -1.8005  4.3741
   38CHL1   C11 2772   5.832   1.348   3.157 -0.1519  0.1009 -0.5437
   38CHL1  H11A 2773   5.896   1.439   3.160  0.9679 -0.6199 -1.5587
   38CHL1  H11B 2774   5.900   1.260   3.152 -0.6634 -0.6859  3.2465
   38CHL1    C9 2775   5.735   1.366   3.037  0.0945  0.9493 -0.1477
   38CHL1    H9 2776   5.681   1.269   3.032  0.5775  0.4901  2.4674
   38CHL1   C10 2777   5.817   1.389   2.906 -0.2365  0.2430  0.4432
   38CHL1   C19 2778   5.917   1.506   2.920  0.3678 -0.5196  0.5732
   38CHL1  H19A 2779   5.956   1.520   2.817 -0.9189 -2.4333 -0.2254
   38CHL1  H19B 2780   5.862   1.595   2.956  0.1931 -0.0557 -0.7609
   38CHL1  H19C 2781   6.010   1.475   2.973  0.5253 -1.4403 -0.2074
   38CHL1    C1 2782   5.894   1.257   2.874  0.7820  0.1423 -0.6301
   38CHL1   H1A 2783   5.964   1.238   2.958 -1.5383 -4.2465  0.5914
   38CHL1   H1B 2784   5.815   1.181   2.889 -0.2493  1.4002  0.7058
   38CHL1    C2 2785   5.948   1.237   2.737 -0.7402 -0.1673  0.2393
   38CHL1   H2A 2786   5.979   1.131   2.750  0.3269  0.2607  1.4664
   38CHL1   H2B 2787   6.047   1.288   2.730  0.0159 -1.5253  0.7641
   38CHL1   C20 2788   5.569   1.461   3.564 -0.0745 -0.6120  0.0413
   38CHL1   H20 2789   5.620   1.559   3.578  0.9069 -1.4249  2.9296
   38CHL1   C21 2790   5.655   1.346   3.618  0.5099  0.0842  0.8640
   38CHL1  H21A 2791   5.613   1.247   3.589  0.2737  0.5867 -0.6041
   38CHL1  H21B 2792   5.659   1.347   3.729 -1.4641 -3.9206  1.1514
   38CHL1  H21C 2793   5.760   1.353   3.581  0.7465  0.0735  1.5086
   38CHL1   C22 2794   5.447   1.485   3.657  0.2408  0.4427 -0.2469
   38CHL1  H22A 2795   5.385   1.560   3.604 -0.0013  1.0544  0.8797
   38CHL1  H22B 2796   5.384   1.395   3.642  1.0375 -0.1566 -0.0643
   38CHL1   C23 2797   5.480   1.519   3.804 -0.0857 -0.2010 -0.6916
   38CHL1  H23A 2798   5.514   1.424   3.852 -0.6812  0.2100  0.5933
   38CHL1  H23B 2799   5.565   1.590   3.811 -0.7469  0.5421  0.0001
   38CHL1   C24 2800   5.359   1.570   3.881 -0.0730  0.2111  0.3925
   38CHL1  H24A 2801   5.338   1.673   3.846 -0.6516  0.2307  0.7937
   38CHL1  H24B 2802   5.265   1.511   3.874  0.1385 -0.0197 -0.7174
   38CHL1   C25 2803   5.379   1.578   4.038 -0.3010  0.1870  0.5311
   38CHL1   H25 2804   5.385   1.472   4.072 -2.9370 -0.8292 -1.8069
   38CHL1   C26 2805   5.495   1.658   4.087  0.6729  0.1962  0.6663
   38CHL1  H26A 2806   5.506   1.755   4.035 -0.6925  0.7928  1.4324
   38CHL1  H26B 2807   5.483   1.685   4.194  0.4281  0.4741  0.5693
   38CHL1  H26C 2808   5.591   1.604   4.071 -0.5149 -1.2615 -2.4796
   38CHL1   C27 2809   5.252   1.640   4.105 -0.1670 -0.0925 -0.2478
   38CHL1  H27A 2810   5.159   1.596   4.062 -0.3577  0.3155 -0.2616
   38CHL1  H27B 2811   5.259   1.625   4.215  0.0851  0.9642 -0.1102
   38CHL1  H27C 2812   5.251   1.749   4.083 -0.0544 -0.3576 -1.7167
   39CHL1    C3 2813   4.971   6.875   2.608 -0.1551 -0.1946 -0.3434
   39CHL1    H3 2814   5.019   6.777   2.628 -1.2864 -0.6869  0.0163
   39CHL1    O3 2815   4.935   6.877   2.471  0.1606  0.0630  0.4009
   39CHL1   H3' 2816   5.023   6.875   2.432  0.1526  1.0290  0.3104
   39CHL1    C4 2817   4.851   6.876   2.705  0.2048  0.0802 -0.0908
   39CHL1   H4A 2818   4.787   6.962   2.678  1.6152  1.1183 -0.2489
   39CHL1   H4B 2819   4.795   6.781   2.694  0.3465 -0.0694  0.4202
   39CHL1    C5 2820   4.893   6.883   2.852  0.6109 -0.2193 -0.2660
   39CHL1    C6 2821   4.856   6.789   2.941 -0.6789  0.0065 -0.1041
   39CHL1    H6 2822   4.792   6.705   2.913  0.9987 -1.7287  1.0374
   39CHL1    C7 2823   4.892   6.796   3.090  0.4091  0.7029 -0.2416
   39CHL1   H7A 2824   4.798   6.790   3.149  0.7357 -3.7771  0.1885
   39CHL1   H7B 2825   4.956   6.706   3.106  0.7544  0.7415 -1.2916
   39CHL1    C8 2826   4.963   6.926   3.133 -0.3380  0.0671 -0.0146
   39CHL1    H8 2827   4.883   7.003   3.133 -2.0793 -1.4627 -4.0769
   39CHL1   C14 2828   5.039   6.899   3.265 -0.1831  0.1076 -0.5061
   39CHL1   H14 2829   5.122   6.830   3.238 -1.9316 -3.5011  2.4521
   39CHL1   C15 2830   4.964   6.821   3.375 -0.0799 -0.0393  0.3270
   39CHL1  H15A 2831   4.865   6.868   3.389  0.1365  0.5399 -0.0109
   39CHL1  H15B 2832   4.951   6.712   3.359  0.4141 -0.1699  0.7963
   39CHL1   C16 2833   5.049   6.852   3.498  0.1030  0.2375 -0.3602
   39CHL1  H16A 2834   4.985   6.903   3.574  2.1176  2.9803 -0.3534
   39CHL1  H16B 2835   5.092   6.758   3.538 -0.0724 -0.1634 -1.0995
   39CHL1   C17 2836   5.152   6.964   3.465  0.0080  0.4360 -0.7238
   39CHL1   H17 2837   5.242   6.907   3.434  0.6551  1.1180 -0.1406
   39CHL1   C13 2838   5.101   7.028   3.331  0.5616 -0.3919 -0.0785
   39CHL1   C18 2839   4.983   7.127   3.363  0.1675 -0.1890 -0.4773
   39CHL1  H18A 2840   4.949   7.182   3.272  1.7521 -1.4918 -1.9519
   39CHL1  H18B 2841   4.891   7.080   3.404 -0.1754 -0.0661 -1.0859
   39CHL1  H18C 2842   5.023   7.199   3.437  1.0934  0.2185 -1.3400
   39CHL1   C12 2843   5.204   7.092   3.232  0.8741 -0.1182  0.0776
   39CHL1  H12A 2844   5.223   7.194   3.272  0.9411 -0.7485  1.7145
   39CHL1  H12B 2845   5.290   7.022   3.236  1.3082  0.2897 -1.4808
   39CHL1   C11 2846   5.147   7.104   3.088  0.1769  0.2536  0.9036
   39CHL1  H11A 2847   5.062   7.174   3.097 -0.3660 -0.5319  2.3306
   39CHL1  H11B 2848   5.227   7.141   3.021  0.5922 -1.6968  0.2481
   39CHL1    C9 2849   5.068   6.977   3.034  0.2893  0.3402 -0.3522
   39CHL1    H9 2850   5.139   6.893   3.019 -0.1176  0.0751 -0.8062
   39CHL1   C10 2851   5.002   6.994   2.895  0.2706 -0.1240 -0.5318
   39CHL1   C19 2852   4.933   7.134   2.885  0.1044 -0.1982 -0.2452
   39CHL1  H19A 2853   4.876   7.135   2.790  0.4811  1.8551 -0.4938
   39CHL1  H19B 2854   4.854   7.146   2.961  1.1556  0.9829  0.7162
   39CHL1  H19C 2855   5.000   7.221   2.898 -0.3324 -0.0178  0.8628
   39CHL1    C1 2856   5.106   6.980   2.789  0.4984  0.1740  0.0488
   39CHL1   H1A 2857   5.195   7.046   2.806  0.1598 -0.0230  3.3128
   39CHL1   H1B 2858   5.154   6.880   2.794  1.2424  0.4381 -1.3137
   39CHL1    C2 2859   5.057   6.994   2.645 -0.3688 -0.4561 -0.5418
   39CHL1   H2A 2860   5.145   6.993   2.576 -0.4183  0.2049 -0.6230
   39CHL1   H2B 2861   5.005   7.091   2.632  2.9132  1.4189 -0.9732
   39CHL1   C20 2862   5.187   7.051   3.591 -1.1475  0.4268  0.3707
   39CHL1   H20 2863   5.094   7.103   3.623 -0.5902  0.3947  2.1522
   39CHL1   C21 2864   5.300   7.148   3.553 -0.1661 -0.0990  0.1270
   39CHL1  H21A 2865   5.338   7.206   3.640  0.7592  1.4551 -1.2670
   39CHL1  H21B 2866   5.270   7.221   3.475 -0.0821 -3.0133 -2.8371
   39CHL1  H21C 2867   5.392   7.103   3.510 -0.2951  0.3457 -0.6308
   39CHL1   C22 2868   5.222   6.965   3.714 -0.0734 -0.1280  0.0411
   39CHL1  H22A 2869   5.159   6.874   3.723 -0.0456 -0.0780  0.8710
   39CHL1  H22B 2870   5.328   6.932   3.705  0.5343  1.7976 -0.3350
   39CHL1   C23 2871   5.213   7.048   3.844  0.1209  0.0752 -0.7584
   39CHL1  H23A 2872   5.289   7.128   3.832 -0.9740  1.6323  1.7976
   39CHL1  H23B 2873   5.109   7.086   3.853  0.6449  1.0238  2.4419
   39CHL1   C24 2874   5.260   6.979   3.975  0.7515 -0.3198  0.7250
   39CHL1  H24A 2875   5.180   6.913   4.015  1.2386 -3.0858 -2.3983
   39CHL1  H24B 2876   5.351   6.918   3.956  0.9467  0.3820 -0.7114
   39CHL1   C25 2877   5.315   7.085   4.079  0.3682 -0.1648 -0.7525
   39CHL1   H25 2878   5.398   7.138   4.027 -0.0684 -0.8382 -2.2034
   39CHL1   C26 2879   5.201   7.176   4.131  0.4963 -0.3384  0.1455
   39CHL1  H26A 2880   5.147   7.220   4.044 -2.4317 -2.6062  0.6380
   39CHL1  H26B 2881   5.132   7.112   4.190 -0.9181  0.0580 -1.0105
   39CHL1  H26C 2882   5.232   7.262   4.193  1.5142 -0.5146 -0.1101
   39CHL1   C27 2883   5.356   7.007   4.199  0.0331  0.6163  0.2444
   39CHL1  H27A 2884   5.378   7.076   4.284 -3.4336 -0.8890  2.5792
   39CHL1  H27B 2885   5.273   6.942   4.234  1.0074 -0.1305  1.2472
   39CHL1  H27C 2886   5.435   6.933   4.176 -0.2582  0.4009 -0.0729
   40CHL1    C3 2887   2.573   0.964   2.863  0.9273 -0.0514 -0.1766
   40CHL1    H3 2888   2.654   1.038   2.881  1.3283 -0.6270  0.4345
   40CHL1    O3 2889   2.535   0.961   2.726  0.1267  1.0036  0.1507
   40CHL1   H3' 2890   2.617   0.931   2.687  0.1872  2.8620 -1.2716
   40CHL1    C4 2891   2.612   0.818   2.902 -0.7043 -0.1197  0.2188
   40CHL1   H4A 2892   2.525   0.750   2.882  0.2003 -1.0078 -0.8540
   40CHL1   H4B 2893   2.694   0.787   2.834  1.8601  1.5955  2.3661
   40CHL1    C5 2894   2.668   0.809   3.041  0.1563  0.1293  0.2170
   40CHL1    C6 2895   2.789   0.779   3.081 -0.0659 -0.6667  0.0438
   40CHL1    H6 2896   2.869   0.759   3.008 -0.1600  2.3299 -1.0217
   40CHL1    C7 2897   2.838   0.785   3.227  0.3569  0.4970 -0.0084
   40CHL1   H7A 2898   2.886   0.688   3.252 -0.4032  0.1561  0.1499
   40CHL1   H7B 2899   2.906   0.872   3.239 -0.3153  1.0200  0.0607
   40CHL1    C8 2900   2.720   0.785   3.324 -1.0457  0.4178 -0.4509
   40CHL1    H8 2901   2.679   0.682   3.316 -0.6644  0.3997 -2.8909
   40CHL1   C14 2902   2.758   0.818   3.469  0.2442 -0.2468 -0.6881
   40CHL1   H14 2903   2.767   0.928   3.481  0.1774 -0.3613  0.4785
   40CHL1   C15 2904   2.889   0.753   3.520  0.6221 -0.6715  0.2244
   40CHL1  H15A 2905   2.910   0.647   3.493 -1.6686 -1.4491  1.2725
   40CHL1  H15B 2906   2.979   0.812   3.492  0.3097 -0.2645  0.0666
   40CHL1   C16 2907   2.869   0.755   3.670  0.0309 -0.4449 -0.0244
   40CHL1  H16A 2908   2.882   0.653   3.711  1.5785 -0.3085 -0.1147
   40CHL1  H16B 2909   2.946   0.812   3.726 -0.0116  0.0892 -0.4925
   40CHL1   C17 2910   2.726   0.823   3.695 -0.7973 -0.5867 -0.5237
   40CHL1   H17 2911   2.732   0.934   3.690 -1.5574 -0.5933 -2.3743
   40CHL1   C13 2912   2.647   0.785   3.569 -0.2446  0.4244  0.1689
   40CHL1   C18 2913   2.616   0.629   3.578 -0.5233  0.0059 -0.1094
   40CHL1  H18A 2914   2.707   0.569   3.596 -0.0258  0.7941  0.0669
   40CHL1  H18B 2915   2.541   0.618   3.659  0.1862  0.6725  0.6546
   40CHL1  H18C 2916   2.579   0.584   3.483 -0.4476 -2.1601  0.8389
   40CHL1   C12 2917   2.521   0.869   3.534 -1.4100 -0.3656  0.1386
   40CHL1  H12A 2918   2.439   0.840   3.602 -1.8316 -0.1453 -0.2738
   40CHL1  H12B 2919   2.550   0.976   3.548  0.0419 -0.6939 -0.1595
   40CHL1   C11 2920   2.484   0.850   3.390 -0.5318 -0.2575  0.8476
   40CHL1  H11A 2921   2.432   0.752   3.394 -3.2046  0.9539 -1.0611
   40CHL1  H11B 2922   2.403   0.920   3.361  0.4009  0.3810 -0.3079
   40CHL1    C9 2923   2.604   0.869   3.283 -0.1720 -0.1983 -0.4553
   40CHL1    H9 2924   2.638   0.974   3.293  2.8562 -0.9052 -2.1186
   40CHL1   C10 2925   2.559   0.846   3.136  0.6642 -0.2046 -0.0315
   40CHL1   C19 2926   2.456   0.722   3.133 -0.2575  0.4170 -0.2523
   40CHL1  H19A 2927   2.369   0.742   3.200 -0.6359  0.9093 -0.8762
   40CHL1  H19B 2928   2.409   0.714   3.033 -0.4542 -0.9082 -0.0811
   40CHL1  H19C 2929   2.515   0.632   3.160  1.4435  1.4069 -0.5597
   40CHL1    C1 2930   2.484   0.980   3.097 -0.4140 -0.7614  0.2571
   40CHL1   H1A 2931   2.390   0.989   3.156  1.2810  1.6818  2.8523
   40CHL1   H1B 2932   2.544   1.069   3.127 -2.1639  0.0911  1.4439
   40CHL1    C2 2933   2.453   0.998   2.948 -0.8632 -0.0972 -0.4177
   40CHL1   H2A 2934   2.418   1.103   2.937 -0.1650  0.0651 -1.2838
   40CHL1   H2B 2935   2.364   0.939   2.920 -3.0664  3.7117 -2.2325
   40CHL1   C20 2936   2.670   0.787   3.837 -0.6746  0.7320 -0.0718
   40CHL1   H20 2937   2.676   0.677   3.847  0.5483  0.9395  2.2020
   40CHL1   C21 2938   2.531   0.844   3.853 -0.1449 -0.2671 -0.1866
   40CHL1  H21A 2939   2.543   0.950   3.824 -1.1478 -0.1168 -0.0763
   40CHL1  H21B 2940   2.505   0.848   3.961  1.3683  0.8632  0.1722
   40CHL1  H21C 2941   2.450   0.787   3.803  0.5428 -0.9371 -0.5621
   40CHL1   C22 2942   2.766   0.834   3.947 -0.1975  0.3022 -0.0768
   40CHL1  H22A 2943   2.863   0.781   3.950 -0.1315  0.3447 -1.1701
   40CHL1  H22B 2944   2.795   0.941   3.940  0.5777  0.3407  2.4380
   40CHL1   C23 2945   2.716   0.827   4.095  0.2133  0.2103 -0.9396
   40CHL1  H23A 2946   2.644   0.909   4.112  2.1413  1.3279  3.1458
   40CHL1  H23B 2947   2.654   0.737   4.114 -0.9501  0.6222 -2.5605
   40CHL1   C24 2948   2.824   0.824   4.205  0.3065 -0.1633  0.0622
   40CHL1  H24A 2949   2.789   0.803   4.308 -0.2077  0.7135  0.0755
   40CHL1  H24B 2950   2.890   0.737   4.184 -3.0296 -2.5497 -1.6028
   40CHL1   C25 2951   2.930   0.942   4.210  0.0110  0.5461  0.2182
   40CHL1   H25 2952   2.992   0.949   4.118 -0.6708 -0.6767 -0.3484
   40CHL1   C26 2953   2.853   1.080   4.210  0.0950  0.4741 -0.3502
   40CHL1  H26A 2954   2.782   1.089   4.294 -0.6022  1.1425 -0.9930
   40CHL1  H26B 2955   2.930   1.160   4.211 -0.5511  1.1551  2.5618
   40CHL1  H26C 2956   2.798   1.090   4.114 -1.3750  2.3678  0.6174
   40CHL1   C27 2957   3.032   0.929   4.328 -0.4626 -0.3069  0.1292
   40CHL1  H27A 2958   3.092   1.023   4.321 -2.6838  1.0936 -2.2952
   40CHL1  H27B 2959   2.987   0.931   4.430 -1.1779 -0.1717 -0.1822
   40CHL1  H27C 2960   3.111   0.853   4.316  0.8989  0.9586  0.7769
   41CHL1    C3 2961   3.978   3.108   2.520  0.3356 -0.2011  0.1381
   41CHL1    H3 2962   3.980   3.213   2.483  0.1994 -0.2497 -0.0036
   41CHL1    O3 2963   3.953   3.020   2.410  0.3145 -0.4668 -0.0218
   41CHL1   H3' 2964   3.858   3.021   2.396  0.0594 -2.7943  1.0874
   41CHL1    C4 2965   4.112   3.066   2.573  0.2059  0.4802  0.3684
   41CHL1   H4A 2966   4.117   2.955   2.584 -1.4005  0.4743  1.3139
   41CHL1   H4B 2967   4.188   3.096   2.497 -0.8894 -0.5139 -1.2038
   41CHL1    C5 2968   4.145   3.123   2.705  0.6754 -0.3639 -0.8613
   41CHL1    C6 2969   4.262   3.188   2.732  0.3262  0.1784  0.0269
   41CHL1    H6 2970   4.329   3.208   2.647 -1.1102 -0.5754 -1.3164
   41CHL1    C7 2971   4.304   3.259   2.858  0.8855  0.7320 -0.0468
   41CHL1   H7A 2972   4.406   3.222   2.880  0.1622  0.0207  2.5156
   41CHL1   H7B 2973   4.296   3.369   2.847  2.1667  0.9610  1.0636
   41CHL1    C8 2974   4.224   3.201   2.976  0.4002 -0.1795 -0.5592
   41CHL1    H8 2975   4.256   3.095   2.989 -0.2833 -0.4331 -0.8991
   41CHL1   C14 2976   4.242   3.276   3.106 -0.6991 -0.0178  0.5796
   41CHL1   H14 2977   4.193   3.375   3.091  0.9383  0.6756 -0.4902
   41CHL1   C15 2978   4.388   3.313   3.146  0.0402 -0.1927 -0.4387
   41CHL1  H15A 2979   4.459   3.229   3.128 -0.3134 -0.2670 -1.5694
   41CHL1  H15B 2980   4.422   3.404   3.094 -0.8420  0.0318 -0.6386
   41CHL1   C16 2981   4.384   3.331   3.298  0.0495  0.3311  0.0088
   41CHL1  H16A 2982   4.459   3.256   3.332 -1.1294  0.0443  2.2474
   41CHL1  H16B 2983   4.427   3.426   3.336  0.9562 -0.0619 -0.0099
   41CHL1   C17 2984   4.238   3.304   3.348  0.2282 -0.2280 -0.1849
   41CHL1   H17 2985   4.183   3.401   3.351 -1.9673 -1.4088  0.3241
   41CHL1   C13 2986   4.178   3.221   3.230  0.2127 -0.2162  0.4725
   41CHL1   C18 2987   4.214   3.076   3.246 -1.2592  0.6184 -0.2905
   41CHL1  H18A 2988   4.183   3.012   3.161 -1.8282  0.1809  0.2350
   41CHL1  H18B 2989   4.323   3.054   3.244 -1.4966 -0.5949 -1.9437
   41CHL1  H18C 2990   4.166   3.039   3.340  1.2669 -0.7430  0.5707
   41CHL1   C12 2991   4.023   3.231   3.207  0.1166 -0.1834 -0.1701
   41CHL1  H12A 2992   3.961   3.194   3.292  0.2205 -0.3767 -0.1771
   41CHL1  H12B 2993   4.004   3.339   3.193  0.4826 -0.0600  0.2538
   41CHL1   C11 2994   3.976   3.162   3.068 -0.1387 -0.3685 -0.6180
   41CHL1  H11A 2995   3.976   3.054   3.093  0.5297 -0.2337 -0.0065
   41CHL1  H11B 2996   3.879   3.208   3.041  0.1826 -0.7785 -2.6694
   41CHL1    C9 2997   4.072   3.189   2.942 -0.0672 -0.2270  0.3340
   41CHL1    H9 2998   4.046   3.295   2.922 -2.0371 -0.2417  2.4445
   41CHL1   C10 2999   4.044   3.106   2.815  0.6960  0.6778  0.2981
   41CHL1   C19 3000   4.030   2.960   2.856 -0.4346 -0.3796  0.5758
   41CHL1  H19A 3001   4.061   2.888   2.777 -0.1715 -0.8623  1.1100
   41CHL1  H19B 3002   4.094   2.945   2.946  1.3210  2.3569 -0.1063
   41CHL1  H19C 3003   3.925   2.938   2.884 -0.7387  3.0323  2.6626
   41CHL1    C1 3004   3.904   3.157   2.756 -0.1186  0.1585 -0.5402
   41CHL1   H1A 3005   3.825   3.123   2.826  0.6702 -0.4664  0.0780
   41CHL1   H1B 3006   3.900   3.264   2.729 -1.2478  0.0418 -0.8958
   41CHL1    C2 3007   3.875   3.092   2.627  0.7242 -1.2789  0.1334
   41CHL1   H2A 3008   3.781   3.133   2.585  2.3905  0.0710 -2.5774
   41CHL1   H2B 3009   3.851   2.984   2.639 -2.0580 -0.5492  1.9606
   41CHL1   C20 3010   4.228   3.237   3.490  0.2652  0.2236  0.7063
   41CHL1   H20 3011   4.278   3.138   3.484  1.0373  0.4841  2.3860
   41CHL1   C21 3012   4.076   3.203   3.528 -0.0890 -0.3284  1.0896
   41CHL1  H21A 3013   4.022   3.137   3.456  1.1001 -0.5657  0.3907
   41CHL1  H21B 3014   4.016   3.296   3.534 -2.5567 -1.7929  0.8571
   41CHL1  H21C 3015   4.072   3.140   3.620  0.1351 -2.1170 -0.0751
   41CHL1   C22 3016   4.303   3.310   3.606 -0.4062  0.4880  0.2137
   41CHL1  H22A 3017   4.350   3.398   3.557  1.4674 -0.4469  0.2530
   41CHL1  H22B 3018   4.224   3.339   3.678 -0.7833 -0.9575  0.4206
   41CHL1   C23 3019   4.406   3.213   3.677 -0.1726 -0.7441  0.8042
   41CHL1  H23A 3020   4.356   3.116   3.698 -0.1889 -0.9574 -0.1751
   41CHL1  H23B 3021   4.475   3.197   3.592 -2.3132  0.6072 -1.2978
   41CHL1   C24 3022   4.477   3.281   3.790 -0.6398  0.2154 -0.2281
   41CHL1  H24A 3023   4.573   3.225   3.796 -1.3522 -1.2296 -1.5303
   41CHL1  H24B 3024   4.513   3.380   3.755  2.3330 -0.8381 -0.5170
   41CHL1   C25 3025   4.411   3.281   3.935 -0.8153  0.3516  0.7452
   41CHL1   H25 3026   4.311   3.326   3.921 -0.4470  0.8051 -0.5081
   41CHL1   C26 3027   4.387   3.137   3.982 -0.1625 -0.4196  0.2838
   41CHL1  H26A 3028   4.330   3.080   3.906  0.7667 -0.1494 -0.6401
   41CHL1  H26B 3029   4.485   3.090   4.004  0.6323  0.1351 -1.8766
   41CHL1  H26C 3030   4.324   3.151   4.073 -2.5253  0.9813 -1.4584
   41CHL1   C27 3031   4.495   3.367   4.032 -0.0778  0.1479 -0.2400
   41CHL1  H27A 3032   4.477   3.472   4.001 -1.4603  0.1828  0.6092
   41CHL1  H27B 3033   4.468   3.360   4.139  1.6879 -1.1741  0.1709
   41CHL1  H27C 3034   4.601   3.334   4.022 -0.5415 -1.5598  0.1197
   42CHL1    C3 3035   3.381   1.884   2.704 -0.0849  0.4461  0.2043
   42CHL1    H3 3036   3.326   1.980   2.695 -1.3696 -0.4310 -2.0294
   42CHL1    O3 3037   3.466   1.863   2.586 -0.1691  0.7208  0.5281
   42CHL1   H3' 3038   3.525   1.790   2.606 -1.3844 -0.7039 -0.7652
   42CHL1    C4 3039   3.469   1.881   2.831 -0.4352  0.1539 -0.7434
   42CHL1   H4A 3040   3.521   1.783   2.822  1.9001  1.3686 -1.1519
   42CHL1   H4B 3041   3.557   1.949   2.835  0.2261 -0.5775 -2.1560
   42CHL1    C5 3042   3.392   1.882   2.964  0.1572  0.3500  0.4668
   42CHL1    C6 3043   3.414   1.971   3.052  0.4551  0.5687 -0.0456
   42CHL1    H6 3044   3.492   2.044   3.029  0.7696  0.3437  0.2858
   42CHL1    C7 3045   3.355   1.978   3.187  0.0340 -0.3305 -0.4680
   42CHL1   H7A 3046   3.424   2.010   3.268 -0.7065 -0.7948  0.3736
   42CHL1   H7B 3047   3.277   2.058   3.182  0.5106  0.2194  0.5205
   42CHL1    C8 3048   3.304   1.843   3.231 -0.2716  0.0455  0.3387
   42CHL1    H8 3049   3.396   1.784   3.253  0.0834  0.4176 -0.1374
   42CHL1   C14 3050   3.227   1.854   3.361  0.2989 -0.0458  0.2929
   42CHL1   H14 3051   3.134   1.908   3.335 -1.3167 -2.5924  0.4585
   42CHL1   C15 3052   3.286   1.930   3.489  0.4367  0.0364 -0.1772
   42CHL1  H15A 3053   3.392   1.901   3.477  0.5621 -0.1601  1.2177
   42CHL1  H15B 3054   3.280   2.041   3.481  1.4403  0.0993 -0.1794
   42CHL1   C16 3055   3.213   1.869   3.610  0.1155  1.0662  0.2541
   42CHL1  H16A 3056   3.291   1.822   3.674  0.8422  3.0336  0.9030
   42CHL1  H16B 3057   3.157   1.947   3.667  0.9040  1.0923  1.0188
   42CHL1   C17 3058   3.106   1.768   3.549 -0.2988  0.3171  0.0118
   42CHL1   H17 3059   3.015   1.827   3.527  0.2713  1.0282 -0.4767
   42CHL1   C13 3060   3.172   1.718   3.415 -0.1630 -0.3999 -0.2337
   42CHL1   C18 3061   3.294   1.626   3.448 -0.2740  0.3583  0.2993
   42CHL1  H18A 3062   3.360   1.660   3.531 -1.6143 -1.1294  2.0768
   42CHL1  H18B 3063   3.251   1.528   3.480 -1.0963  0.7403  0.4067
   42CHL1  H18C 3064   3.353   1.606   3.356 -0.8001  0.0628  0.0191
   42CHL1   C12 3065   3.078   1.660   3.306 -0.3037 -0.3860  0.4166
   42CHL1  H12A 3066   3.062   1.556   3.341 -0.1687 -0.6433 -0.2746
   42CHL1  H12B 3067   2.983   1.716   3.298  0.4386  0.6679 -1.8193
   42CHL1   C11 3068   3.158   1.642   3.173  0.5681  0.1225  0.3184
   42CHL1  H11A 3069   3.231   1.561   3.195  0.4058 -0.6662 -1.8045
   42CHL1  H11B 3070   3.089   1.615   3.091  1.2181 -0.4573 -0.0510
   42CHL1    C9 3071   3.221   1.772   3.124  0.8011 -1.0875  0.0424
   42CHL1    H9 3072   3.131   1.834   3.108  1.4240 -0.5154 -1.4211
   42CHL1   C10 3073   3.291   1.766   2.989 -0.2180 -0.7535  0.4087
   42CHL1   C19 3074   3.371   1.631   3.000  0.5482  0.1766  0.8206
   42CHL1  H19A 3075   3.436   1.615   2.912 -1.1642 -0.0003 -0.4493
   42CHL1  H19B 3076   3.432   1.630   3.093  3.0326 -1.7185 -0.7124
   42CHL1  H19C 3077   3.294   1.552   2.998 -0.1061  0.7619  1.7187
   42CHL1    C1 3078   3.197   1.770   2.856 -0.3159  0.0892 -0.5424
   42CHL1   H1A 3079   3.135   1.679   2.869  0.1471 -0.0048  1.2125
   42CHL1   H1B 3080   3.134   1.861   2.846  0.1329  0.1994 -3.0090
   42CHL1    C2 3081   3.273   1.763   2.722  0.3881  0.2648 -0.2807
   42CHL1   H2A 3082   3.212   1.763   2.629 -0.9964  2.3403  0.5346
   42CHL1   H2B 3083   3.327   1.666   2.720 -0.0964 -0.0142 -0.0775
   42CHL1   C20 3084   3.061   1.656   3.650 -0.0673 -0.5901 -0.6308
   42CHL1   H20 3085   3.144   1.588   3.678  0.6132  1.2841  2.4790
   42CHL1   C21 3086   2.940   1.577   3.597 -0.3057 -0.7007 -0.4016
   42CHL1  H21A 3087   2.882   1.516   3.670  2.2076  0.4357  2.7653
   42CHL1  H21B 3088   2.959   1.522   3.503  1.2338  1.7282 -1.6342
   42CHL1  H21C 3089   2.867   1.656   3.567 -0.3920  0.0252  1.5569
   42CHL1   C22 3090   3.018   1.715   3.789 -0.2194 -0.3586 -0.0383
   42CHL1  H22A 3091   3.104   1.768   3.836 -1.0504  1.3533 -0.3701
   42CHL1  H22B 3092   2.934   1.787   3.779 -0.7861 -1.0374 -0.2985
   42CHL1   C23 3093   2.984   1.613   3.903 -0.1144  0.4155  1.0008
   42CHL1  H23A 3094   2.887   1.565   3.879  0.5659 -0.1475 -0.8153
   42CHL1  H23B 3095   3.067   1.539   3.905  0.4987  0.9502 -1.4234
   42CHL1   C24 3096   2.975   1.678   4.048 -0.4183 -0.0124 -0.4571
   42CHL1  H24A 3097   3.073   1.700   4.096 -1.5787 -0.2582  2.1673
   42CHL1  H24B 3098   2.910   1.768   4.048 -0.0054  0.2997 -1.1117
   42CHL1   C25 3099   2.922   1.581   4.152 -0.0316 -0.4091 -0.6454
   42CHL1   H25 3100   2.824   1.535   4.124 -0.2934  0.4463 -1.1451
   42CHL1   C26 3101   3.027   1.471   4.171  0.4759 -0.0255 -0.6248
   42CHL1  H26A 3102   3.037   1.406   4.082 -2.7260  0.7713 -1.7221
   42CHL1  H26B 3103   3.125   1.521   4.181 -0.0075  0.8953 -0.3663
   42CHL1  H26C 3104   3.012   1.405   4.259 -1.1387 -2.0588 -2.3293
   42CHL1   C27 3105   2.908   1.652   4.287  0.0702 -0.5075  0.1356
   42CHL1  H27A 3106   3.009   1.680   4.325  1.0230  0.1096 -2.5672
   42CHL1  H27B 3107   2.830   1.731   4.281 -2.8554 -2.7707  3.9727
   42CHL1  H27C 3108   2.869   1.581   4.362  1.5457  0.5862  2.0540
   43CHL1    C3 3109   5.606   0.883   2.721 -0.1556 -0.5072  0.5630
   43CHL1    H3 3110   5.642   0.986   2.701 -0.3450 -1.0604 -3.3910
   43CHL1    O3 3111   5.525   0.848   2.604 -1.0889  0.0026 -0.9890
   43CHL1   H3' 3112   5.447   0.902   2.620 -0.3516  0.9946 -0.6487
   43CHL1    C4 3113   5.721   0.790   2.734 -0.1659  0.1226  0.1873
   43CHL1   H4A 3114   5.672   0.690   2.732 -1.6080  0.8094  0.4031
   43CHL1   H4B 3115   5.787   0.790   2.644  0.8341 -1.7903  0.8630
   43CHL1    C5 3116   5.809   0.811   2.857  0.1233  0.0819  0.2502
   43CHL1    C6 3117   5.942   0.831   2.853  0.2809 -0.4640  0.2002
   43CHL1    H6 3118   5.992   0.837   2.755  0.2450 -1.1039  0.1366
   43CHL1    C7 3119   6.025   0.869   2.977 -0.9630 -0.2569  0.0881
   43CHL1   H7A 3120   6.124   0.817   2.976 -0.5625  0.4771 -1.2654
   43CHL1   H7B 3121   6.061   0.974   2.981 -3.1668  0.7522 -2.9377
   43CHL1    C8 3122   5.960   0.844   3.117 -0.2654  0.0535 -0.6546
   43CHL1    H8 3123   5.955   0.736   3.142  1.0925  0.1289  0.0504
   43CHL1   C14 3124   6.036   0.905   3.231 -0.2984 -0.9195  0.3120
   43CHL1   H14 3125   6.034   1.013   3.205 -0.5064 -1.0033 -0.0238
   43CHL1   C15 3126   6.180   0.881   3.242 -0.4355 -1.1084  0.2006
   43CHL1  H15A 3127   6.199   0.771   3.239 -3.0520 -1.7876  3.2049
   43CHL1  H15B 3128   6.243   0.932   3.167  1.1062 -0.5128  1.8273
   43CHL1   C16 3129   6.213   0.932   3.380  0.4779  0.0854  0.2011
   43CHL1  H16A 3130   6.275   0.853   3.427 -2.2182 -1.9715  0.5398
   43CHL1  H16B 3131   6.270   1.028   3.384 -0.3405  0.6572 -1.2930
   43CHL1   C17 3132   6.074   0.952   3.463  0.6281  0.6978  0.7312
   43CHL1   H17 3133   6.045   1.058   3.451  0.2623  0.3151 -2.7441
   43CHL1   C13 3134   5.974   0.889   3.369  0.3636  0.5271 -0.1484
   43CHL1   C18 3135   5.969   0.738   3.416  0.2565 -0.1036  0.6550
   43CHL1  H18A 3136   6.077   0.712   3.429  0.2886 -0.7441 -0.6990
   43CHL1  H18B 3137   5.902   0.717   3.502 -2.1791  0.7841 -0.9133
   43CHL1  H18C 3138   5.931   0.679   3.330  0.3046 -1.1667  1.3491
   43CHL1   C12 3139   5.830   0.948   3.370 -0.0582  0.1441  0.1489
   43CHL1  H12A 3140   5.774   0.918   3.461 -0.1604 -1.4523 -0.4204
   43CHL1  H12B 3141   5.843   1.058   3.361  0.4750 -0.0072 -1.0876
   43CHL1   C11 3142   5.743   0.904   3.249 -0.3453 -0.4924 -1.3171
   43CHL1  H11A 3143   5.711   0.802   3.278 -0.8894  0.1740  0.5924
   43CHL1  H11B 3144   5.654   0.968   3.267 -2.2064 -3.2014 -0.0554
   43CHL1    C9 3145   5.814   0.895   3.112  0.1051 -0.6015 -0.1755
   43CHL1    H9 3146   5.827   1.002   3.087 -0.0086 -0.7211 -0.7687
   43CHL1   C10 3147   5.737   0.833   2.999 -0.0352 -0.3321  0.4981
   43CHL1   C19 3148   5.692   0.692   3.046  0.3676  0.1679 -0.1533
   43CHL1  H19A 3149   5.782   0.634   3.077 -1.0520 -1.8792  0.3389
   43CHL1  H19B 3150   5.618   0.697   3.129 -0.1842  0.3667 -0.6482
   43CHL1  H19C 3151   5.661   0.631   2.958  1.5061  0.0807 -0.5083
   43CHL1    C1 3152   5.611   0.921   2.980 -0.4720  0.1802  0.6499
   43CHL1   H1A 3153   5.552   0.911   3.074  1.3585 -1.0842  1.7362
   43CHL1   H1B 3154   5.647   1.026   2.970  0.9094 -0.3351 -0.0482
   43CHL1    C2 3155   5.519   0.884   2.853 -0.0043 -0.4069 -0.2211
   43CHL1   H2A 3156   5.432   0.951   2.843  0.6550  0.3726 -0.9679
   43CHL1   H2B 3157   5.482   0.780   2.860  2.4355 -1.3452 -0.1254
   43CHL1   C20 3158   6.079   0.919   3.612 -0.7440 -0.1072  0.3269
   43CHL1   H20 3159   6.072   0.810   3.629  1.9403 -0.2704  0.8210
   43CHL1   C21 3160   5.947   0.969   3.686 -0.0513  0.2646  0.3163
   43CHL1  H21A 3161   5.965   0.967   3.796  0.6535 -0.2451  0.2026
   43CHL1  H21B 3162   5.860   0.906   3.658  0.1584 -0.0231  0.3117
   43CHL1  H21C 3163   5.926   1.074   3.655 -2.6212  0.5549  2.6365
   43CHL1   C22 3164   6.217   0.966   3.672  0.8147  0.1175 -0.1502
   43CHL1  H22A 3165   6.306   0.953   3.607  1.3870  2.7644 -0.0176
   43CHL1  H22B 3166   6.208   1.077   3.677  0.8772  0.1492 -0.6505
   43CHL1   C23 3167   6.252   0.918   3.815 -0.2703  0.5122 -0.4565
   43CHL1  H23A 3168   6.344   0.974   3.842  0.5559 -2.0697  2.7851
   43CHL1  H23B 3169   6.161   0.937   3.875  1.1646  0.0217  2.0242
   43CHL1   C24 3170   6.294   0.775   3.828 -0.2048  0.1714 -0.2440
   43CHL1  H24A 3171   6.219   0.723   3.765  0.6038  1.8608 -2.8032
   43CHL1  H24B 3172   6.391   0.760   3.774 -0.7522 -0.6449 -1.0203
   43CHL1   C25 3173   6.309   0.713   3.973  0.1367 -0.4534 -0.3132
   43CHL1   H25 3174   6.212   0.735   4.023 -0.7317  0.6949 -2.3863
   43CHL1   C26 3175   6.328   0.560   3.973  0.0965 -0.0715 -0.0248
   43CHL1  H26A 3176   6.345   0.523   4.076 -0.1019 -0.1251 -0.0114
   43CHL1  H26B 3177   6.240   0.513   3.925  0.3819 -0.8062  0.1566
   43CHL1  H26C 3178   6.412   0.536   3.904 -0.3040 -0.0652 -0.5232
   43CHL1   C27 3179   6.427   0.786   4.047 -0.6103  0.3952  0.0516
   43CHL1  H27A 3180   6.425   0.759   4.154  0.7391 -1.8338 -0.4318
   43CHL1  H27B 3181   6.516   0.745   3.994 -0.4599 -0.8033  1.1956
   43CHL1  H27C 3182   6.411   0.894   4.029  0.0731  0.6231  0.7814
   44CHL1    C3 3183   2.914   2.278   2.834  0.5334 -0.7466 -0.1163
   44CHL1    H3 3184   2.807   2.254   2.814 -0.9381  2.4852  2.8678
   44CHL1    O3 3185   2.982   2.295   2.710  0.3568 -0.2068  0.1525
   44CHL1   H3' 3186   2.958   2.385   2.688 -2.4577  0.0623  3.5906
   44CHL1    C4 3187   2.918   2.409   2.918 -0.5944 -0.1266  0.1598
   44CHL1   H4A 3188   3.024   2.441   2.910 -0.9000  1.0959  0.8885
   44CHL1   H4B 3189   2.856   2.488   2.871 -0.2878 -0.1368 -0.2654
   44CHL1    C5 3190   2.866   2.380   3.058  0.0795 -0.7325  0.8638
   44CHL1    C6 3191   2.774   2.463   3.109  0.3697  0.7751  0.0992
   44CHL1    H6 3192   2.732   2.543   3.045 -0.7532  1.5161  1.7146
   44CHL1    C7 3193   2.721   2.459   3.249  0.4278  0.0669  0.4482
   44CHL1   H7A 3194   2.711   2.558   3.299 -0.1529  0.2270  0.0156
   44CHL1   H7B 3195   2.618   2.417   3.247  0.2424  0.5399 -0.6037
   44CHL1    C8 3196   2.808   2.372   3.343  0.8031  0.0679 -0.5476
   44CHL1    H8 3197   2.900   2.428   3.368  0.0398  0.6140  1.2310
   44CHL1   C14 3198   2.733   2.345   3.466 -0.1007  0.1957  0.0066
   44CHL1   H14 3199   2.639   2.290   3.443 -0.3810 -0.5200  2.5407
   44CHL1   C15 3200   2.675   2.465   3.547  0.0996 -0.0109  0.2015
   44CHL1  H15A 3201   2.740   2.555   3.543  0.1148 -0.0581 -1.9343
   44CHL1  H15B 3202   2.572   2.494   3.514 -0.1602  0.7633  1.6207
   44CHL1   C16 3203   2.671   2.414   3.687 -0.3801  0.0766  0.1056
   44CHL1  H16A 3204   2.739   2.473   3.753 -2.7460  3.2681 -0.0774
   44CHL1  H16B 3205   2.571   2.422   3.735 -0.2630  1.2208  0.1906
   44CHL1   C17 3206   2.726   2.268   3.687  0.2754  0.2788  0.5161
   44CHL1   H17 3207   2.641   2.205   3.653  0.5595 -0.1552  0.6062
   44CHL1   C13 3208   2.814   2.254   3.561  0.0801 -1.2381  0.0728
   44CHL1   C18 3209   2.959   2.308   3.603  0.1092 -0.2267 -0.4303
   44CHL1  H18A 3210   3.010   2.247   3.680  2.0026  0.4320 -1.0942
   44CHL1  H18B 3211   3.026   2.303   3.514 -0.0102 -1.3234 -0.4731
   44CHL1  H18C 3212   2.959   2.417   3.623  1.1597 -0.1642 -0.7247
   44CHL1   C12 3213   2.826   2.119   3.494  0.7229  0.2146 -0.5797
   44CHL1  H12A 3214   2.873   2.049   3.566 -4.6928 -0.9186  2.3817
   44CHL1  H12B 3215   2.724   2.082   3.473  0.5095  0.6907 -0.3838
   44CHL1   C11 3216   2.898   2.128   3.359 -0.3677  0.2266 -0.0204
   44CHL1  H11A 3217   3.008   2.137   3.369 -0.3997 -0.6676  1.4443
   44CHL1  H11B 3218   2.883   2.037   3.297 -0.6769 -1.0326  1.8480
   44CHL1    C9 3219   2.837   2.240   3.270 -0.1493  0.1575 -0.0761
   44CHL1    H9 3220   2.736   2.204   3.242 -0.3938  0.1507  0.7875
   44CHL1   C10 3221   2.916   2.263   3.134 -0.2253 -0.2928  0.0164
   44CHL1   C19 3222   3.063   2.301   3.163  0.5760 -0.3396  0.4442
   44CHL1  H19A 3223   3.120   2.323   3.070  0.5306 -0.2740  0.4314
   44CHL1  H19B 3224   3.072   2.388   3.232  0.7457 -0.8932  1.1210
   44CHL1  H19C 3225   3.130   2.226   3.209  0.3918  0.9620  2.9616
   44CHL1    C1 3226   2.914   2.135   3.041 -0.4360 -0.6319  0.3403
   44CHL1   H1A 3227   2.950   2.039   3.082  0.1277 -0.3998  0.3870
   44CHL1   H1B 3228   2.805   2.112   3.029 -1.1483  1.1940  2.6427
   44CHL1    C2 3229   2.983   2.158   2.903  0.1019  0.2991 -0.0215
   44CHL1   H2A 3230   2.967   2.072   2.835  1.7850  0.3831 -0.5681
   44CHL1   H2B 3231   3.090   2.177   2.924  0.1248  0.7316 -0.5007
   44CHL1   C20 3232   2.775   2.220   3.825 -0.0690 -0.2935 -0.1956
   44CHL1   H20 3233   2.871   2.269   3.851 -0.4639 -0.6239  2.1943
   44CHL1   C21 3234   2.799   2.060   3.841 -0.1306 -1.0223 -0.1114
   44CHL1  H21A 3235   2.804   2.022   3.945  1.5460 -2.5178 -0.6938
   44CHL1  H21B 3236   2.884   2.024   3.779 -0.3231 -1.9745  0.1744
   44CHL1  H21C 3237   2.706   2.016   3.801 -1.4546  1.6522 -0.2322
   44CHL1   C22 3238   2.691   2.260   3.947  0.3989 -0.4155 -1.0109
   44CHL1  H22A 3239   2.740   2.237   4.044  0.5695  2.4862 -0.3249
   44CHL1  H22B 3240   2.704   2.370   3.961  0.4717 -0.8279  3.7656
   44CHL1   C23 3241   2.549   2.215   3.953 -0.5125  0.4113  0.1276
   44CHL1  H23A 3242   2.479   2.248   3.873 -1.3621 -0.5535  0.4323
   44CHL1  H23B 3243   2.548   2.104   3.942 -3.0679  0.5473 -2.0945
   44CHL1   C24 3244   2.478   2.251   4.084 -0.1239  0.5547 -0.1584
   44CHL1  H24A 3245   2.380   2.199   4.088  0.5103 -1.0502 -2.7251
   44CHL1  H24B 3246   2.537   2.210   4.168 -2.8751  0.6157  1.9567
   44CHL1   C25 3247   2.451   2.401   4.111 -0.0704 -0.3650 -0.2616
   44CHL1   H25 3248   2.556   2.436   4.124 -0.6795  1.1014  1.0826
   44CHL1   C26 3249   2.393   2.488   4.000  0.3163  0.0668  0.0592
   44CHL1  H26A 3250   2.447   2.476   3.904  2.3720  3.7521  0.5191
   44CHL1  H26B 3251   2.286   2.460   3.995  0.5365 -0.5681 -2.1505
   44CHL1  H26C 3252   2.398   2.596   4.027  1.6594 -0.0461  0.3210
   44CHL1   C27 3253   2.377   2.413   4.241  0.0442 -0.2424 -0.4754
   44CHL1  H27A 3254   2.355   2.510   4.289  1.9047 -1.0631  2.2213
   44CHL1  H27B 3255   2.279   2.366   4.216 -0.9743  1.3121  0.5044
   44CHL1  H27C 3256   2.429   2.348   4.314  0.6347 -1.3059 -1.7816
   45CHL1    C3 3257   4.771   2.064   2.764  0.4717 -0.1617 -0.0402
   45CHL1    H3 3258   4.684   1.996   2.747 -1.5506  2.2045  0.1816
   45CHL1    O3 3259   4.837   2.062   2.637 -0.2157  0.1281  0.2186
   45CHL1   H3' 3260   4.926   2.034   2.658  0.2808  0.3032 -1.5044
   45CHL1    C4 3261   4.733   2.206   2.801  0.3696  0.8492  0.4661
   45CHL1   H4A 3262   4.835   2.251   2.805  0.5177  0.5043  0.6818
   45CHL1   H4B 3263   4.669   2.233   2.715 -0.3342 -1.7477  0.0970
   45CHL1    C5 3264   4.663   2.214   2.940 -0.7507 -0.0907 -0.4656
   45CHL1    C6 3265   4.533   2.257   2.957 -0.0883  0.2777  0.6348
   45CHL1    H6 3266   4.471   2.297   2.875 -0.8031 -1.4481  0.2881
   45CHL1    C7 3267   4.476   2.274   3.092  0.6589 -0.5724  0.4894
   45CHL1   H7A 3268   4.426   2.372   3.099 -1.8518 -1.6560 -0.9195
   45CHL1   H7B 3269   4.396   2.197   3.105 -0.0713  0.0567 -0.2130
   45CHL1    C8 3270   4.581   2.262   3.207  0.2756  0.5697  0.2527
   45CHL1    H8 3271   4.656   2.344   3.200 -0.8758  1.5825 -0.6266
   45CHL1   C14 3272   4.505   2.262   3.341  0.4831 -0.3566  0.1415
   45CHL1   H14 3273   4.433   2.178   3.333  0.4944 -0.2181 -2.6669
   45CHL1   C15 3274   4.428   2.393   3.374  0.0982 -0.1936 -0.2856
   45CHL1  H15A 3275   4.488   2.482   3.343  0.2431 -0.7798 -1.7513
   45CHL1  H15B 3276   4.333   2.385   3.317 -0.0533  1.4927 -0.3330
   45CHL1   C16 3277   4.407   2.386   3.522  0.4281  0.1034  0.1688
   45CHL1  H16A 3278   4.461   2.471   3.569  0.1700 -0.0553  0.7720
   45CHL1  H16B 3279   4.305   2.405   3.562  0.2852 -0.9814  0.3589
   45CHL1   C17 3280   4.485   2.263   3.567  0.1303 -0.2884 -0.1136
   45CHL1   H17 3281   4.418   2.175   3.557  1.6011 -1.2734 -2.1064
   45CHL1   C13 3282   4.591   2.233   3.456 -0.4489  0.6913  0.6561
   45CHL1   C18 3283   4.703   2.331   3.476  0.5483 -0.0464  0.0428
   45CHL1  H18A 3284   4.769   2.301   3.560  1.5598 -2.8518 -1.5999
   45CHL1  H18B 3285   4.767   2.351   3.387 -1.2397 -0.3408 -1.3682
   45CHL1  H18C 3286   4.663   2.432   3.499 -3.5953 -1.9492  2.3298
   45CHL1   C12 3287   4.649   2.097   3.445  0.4140 -0.3799 -0.7182
   45CHL1  H12A 3288   4.712   2.078   3.534  0.2606 -1.5184 -0.8263
   45CHL1  H12B 3289   4.564   2.025   3.447 -0.8739  0.8139  4.9968
   45CHL1   C11 3290   4.739   2.085   3.316  0.7833  0.0400  0.1666
   45CHL1  H11A 3291   4.832   2.140   3.340  0.9142 -1.1473  2.6901
   45CHL1  H11B 3292   4.763   1.977   3.314  0.7484  0.0178  0.8024
   45CHL1    C9 3293   4.662   2.133   3.182 -0.2649  0.5389 -0.5472
   45CHL1    H9 3294   4.592   2.048   3.169 -0.8417  0.7776  0.8070
   45CHL1   C10 3295   4.743   2.139   3.053  0.5637 -0.0009 -0.1904
   45CHL1   C19 3296   4.877   2.216   3.096 -0.0886  0.6079  0.3383
   45CHL1  H19A 3297   4.941   2.160   3.167  1.5645 -0.6603 -2.0640
   45CHL1  H19B 3298   4.936   2.225   3.003 -0.7184 -1.3739 -0.2916
   45CHL1  H19C 3299   4.858   2.318   3.137 -2.4817  0.0383  0.8086
   45CHL1    C1 3300   4.788   1.995   3.016  0.5689  0.0451  0.2990
   45CHL1   H1A 3301   4.858   1.954   3.092  1.6026  2.3336  0.6454
   45CHL1   H1B 3302   4.697   1.931   3.019  0.3723  0.3481  0.7988
   45CHL1    C2 3303   4.851   1.989   2.870 -0.2258 -0.4132 -0.1809
   45CHL1   H2A 3304   4.863   1.885   2.832  1.2933 -0.8755  1.4277
   45CHL1   H2B 3305   4.954   2.029   2.885  0.3306 -0.9447 -2.3005
   45CHL1   C20 3306   4.526   2.275   3.714  0.2454  0.2806 -0.3743
   45CHL1   H20 3307   4.585   2.369   3.722  0.3227  0.1956  0.1049
   45CHL1   C21 3308   4.603   2.150   3.767 -0.0077  0.4628  0.7321
   45CHL1  H21A 3309   4.543   2.057   3.767 -1.7258  1.4348 -2.2581
   45CHL1  H21B 3310   4.654   2.166   3.864 -0.0420  0.6403  0.7220
   45CHL1  H21C 3311   4.693   2.128   3.706 -1.8156 -1.3071 -1.4708
   45CHL1   C22 3312   4.405   2.293   3.810  0.0716  0.7844 -0.1293
   45CHL1  H22A 3313   4.320   2.357   3.779  0.7814  0.5469 -2.8577
   45CHL1  H22B 3314   4.369   2.191   3.835  1.6680 -0.3930 -2.2925
   45CHL1   C23 3315   4.452   2.346   3.947  0.0230 -0.0164  0.6508
   45CHL1  H23A 3316   4.543   2.289   3.975  0.5138  0.8268  0.7881
   45CHL1  H23B 3317   4.478   2.453   3.937  1.3191 -0.4984 -1.8200
   45CHL1   C24 3318   4.355   2.324   4.057  0.5074 -0.0275 -0.7152
   45CHL1  H24A 3319   4.257   2.377   4.053  0.4831  0.0148  0.2764
   45CHL1  H24B 3320   4.333   2.216   4.072 -0.8059  0.6095  2.7992
   45CHL1   C25 3321   4.403   2.387   4.194 -0.0023 -0.0572 -0.1219
   45CHL1   H25 3322   4.423   2.495   4.178 -0.7746 -0.3144 -3.4236
   45CHL1   C26 3323   4.289   2.376   4.290 -0.1653 -0.8142 -0.0874
   45CHL1  H26A 3324   4.318   2.422   4.386  1.2428  1.7050 -1.6233
   45CHL1  H26B 3325   4.210   2.443   4.250  2.5088  0.5946 -3.4355
   45CHL1  H26C 3326   4.258   2.270   4.308  2.4477 -1.6328 -0.0379
   45CHL1   C27 3327   4.530   2.320   4.252  0.2374  0.0755 -0.5625
   45CHL1  H27A 3328   4.556   2.371   4.347  0.0852 -0.8328 -0.0229
   45CHL1  H27B 3329   4.517   2.213   4.279  0.8287 -0.3329 -1.8432
   45CHL1  H27C 3330   4.611   2.338   4.178 -0.0357 -1.3648 -1.2430
   46CHL1    C3 3331   2.249   4.013   2.776  0.3773 -0.7981 -0.4256
   46CHL1    H3 3332   2.346   4.014   2.830  0.2870  2.8003 -0.0478
   46CHL1    O3 3333   2.269   4.065   2.651  0.0203  0.6357 -0.0504
   46CHL1   H3' 3334   2.183   4.065   2.610  0.2108 -3.8252 -0.8970
   46CHL1    C4 3335   2.166   3.878   2.774 -0.2562 -0.6345  0.4607
   46CHL1   H4A 3336   2.079   3.914   2.715 -1.6646 -1.3138  2.0306
   46CHL1   H4B 3337   2.227   3.805   2.717 -2.0252  0.2215 -2.7501
   46CHL1    C5 3338   2.126   3.830   2.913  0.1045  0.4056  0.4186
   46CHL1    C6 3339   2.170   3.716   2.955  0.1089 -0.0404 -0.8234
   46CHL1    H6 3340   2.218   3.639   2.893  0.3886 -0.1546 -0.4710
   46CHL1    C7 3341   2.145   3.669   3.100 -0.3010 -0.0370  0.3051
   46CHL1   H7A 3342   2.106   3.565   3.102 -1.2581  0.2784 -0.8011
   46CHL1   H7B 3343   2.240   3.679   3.157  0.7422  2.1220 -1.6849
   46CHL1    C8 3344   2.037   3.755   3.172  0.5434  0.5466  0.2396
   46CHL1    H8 3345   1.939   3.722   3.131  0.8051 -0.8092  0.6643
   46CHL1   C14 3346   2.051   3.723   3.319 -0.3363  0.2607  0.2819
   46CHL1   H14 3347   2.152   3.762   3.345  0.6083 -1.2318 -0.9429
   46CHL1   C15 3348   2.046   3.579   3.366  0.7239 -0.1556  0.0349
   46CHL1  H15A 3349   1.968   3.520   3.315 -0.3097  0.5230  0.7864
   46CHL1  H15B 3350   2.131   3.510   3.350  1.1223  0.1298  0.8412
   46CHL1   C16 3351   2.020   3.585   3.513  0.2926  0.1405  0.2087
   46CHL1  H16A 3352   1.934   3.519   3.537 -0.8718  1.2896 -0.7047
   46CHL1  H16B 3353   2.108   3.562   3.577  0.7638 -1.0051 -0.8150
   46CHL1   C17 3354   1.971   3.728   3.545 -0.1363  0.7922 -0.2312
   46CHL1   H17 3355   2.056   3.783   3.591  0.6753  1.7809 -2.7555
   46CHL1   C13 3356   1.945   3.790   3.408 -1.1503 -0.3562 -0.4225
   46CHL1   C18 3357   1.804   3.746   3.370  0.2316 -0.1720  0.3755
   46CHL1  H18A 3358   1.734   3.807   3.430 -0.3036  0.9565 -1.3207
   46CHL1  H18B 3359   1.793   3.776   3.263  2.9475  1.3549  0.4328
   46CHL1  H18C 3360   1.784   3.636   3.368  0.9252 -0.3223  1.1430
   46CHL1   C12 3361   1.966   3.938   3.392 -0.6891 -0.7279  0.1735
   46CHL1  H12A 3362   1.888   3.989   3.452 -2.5014 -2.0409 -0.9686
   46CHL1  H12B 3363   2.068   3.965   3.426 -0.6447 -1.7140  0.8535
   46CHL1   C11 3364   1.958   3.984   3.246 -0.1385  0.2758 -0.2158
   46CHL1  H11A 3365   1.857   3.974   3.201 -0.0272  1.1943 -0.6809
   46CHL1  H11B 3366   1.987   4.091   3.240 -4.8220  1.8123  0.3190
   46CHL1    C9 3367   2.063   3.904   3.151  0.3953 -0.1321 -0.0358
   46CHL1    H9 3368   2.163   3.916   3.196 -0.0082 -1.2079  1.2182
   46CHL1   C10 3369   2.058   3.941   3.000 -0.3228  0.7037  0.1776
   46CHL1   C19 3370   1.911   3.942   2.941 -0.5676 -0.2901  0.3962
   46CHL1  H19A 3371   1.891   3.931   2.833 -0.0084 -0.3746  0.2994
   46CHL1  H19B 3372   1.858   3.856   2.986  0.5878  0.0795  2.6519
   46CHL1  H19C 3373   1.863   4.037   2.975  1.1841  0.8751 -0.1988
   46CHL1    C1 3374   2.136   4.079   2.987  0.8033  0.7227  1.0885
   46CHL1   H1A 3375   2.079   4.166   3.028 -0.5499  0.7233 -0.6326
   46CHL1   H1B 3376   2.229   4.069   3.046  1.1042 -1.5633  0.2988
   46CHL1    C2 3377   2.159   4.123   2.840 -0.7223  0.2301  0.3101
   46CHL1   H2A 3378   2.197   4.227   2.846 -0.6917  0.2153  0.3708
   46CHL1   H2B 3379   2.061   4.128   2.787 -1.1443 -0.3458  1.0110
   46CHL1   C20 3380   1.859   3.725   3.655  0.3845  0.0464 -0.6848
   46CHL1   H20 3381   1.775   3.661   3.622  0.3567 -0.2800 -0.0018
   46CHL1   C21 3382   1.809   3.867   3.690 -0.1136  0.2586 -0.3387
   46CHL1  H21A 3383   1.892   3.935   3.722  0.3345 -0.8192  0.9046
   46CHL1  H21B 3384   1.733   3.855   3.770 -0.5611  0.6552 -0.6993
   46CHL1  H21C 3385   1.752   3.914   3.608  0.0897 -0.6236 -1.0054
   46CHL1   C22 3386   1.903   3.650   3.785 -0.2379  0.7064  0.0740
   46CHL1  H22A 3387   2.008   3.613   3.784 -0.8522 -1.1865  0.9336
   46CHL1  H22B 3388   1.909   3.734   3.857  1.5419  0.6364  0.0335
   46CHL1   C23 3389   1.803   3.544   3.835  0.4984 -0.1196  0.5062
   46CHL1  H23A 3390   1.722   3.608   3.876 -0.0531 -0.0384 -0.6683
   46CHL1  H23B 3391   1.762   3.489   3.748 -0.5771  1.2493  0.0963
   46CHL1   C24 3392   1.857   3.447   3.942 -0.3936 -0.4386  0.1723
   46CHL1  H24A 3393   1.917   3.370   3.888 -0.0705  0.3404 -0.6002
   46CHL1  H24B 3394   1.915   3.512   4.011  0.2356  0.5279 -1.2409
   46CHL1   C25 3395   1.742   3.369   4.011 -0.1277  1.2692  0.0515
   46CHL1   H25 3396   1.644   3.415   4.035 -1.7359 -2.0044  0.4170
   46CHL1   C26 3397   1.697   3.255   3.916  0.2276 -0.6151 -0.9166
   46CHL1  H26A 3398   1.640   3.190   3.985 -0.0094  1.2965  0.7969
   46CHL1  H26B 3399   1.626   3.300   3.844 -1.8932  0.0704  1.4273
   46CHL1  H26C 3400   1.782   3.209   3.862  0.4005  0.9227 -2.0201
   46CHL1   C27 3401   1.792   3.312   4.142 -0.0250 -0.1682 -0.4637
   46CHL1  H27A 3402   1.805   3.398   4.212 -3.4302  0.6744 -0.6677
   46CHL1  H27B 3403   1.726   3.238   4.192 -1.0238  1.2436  0.4038
   46CHL1  H27C 3404   1.890   3.262   4.130  0.2623  0.1240  0.6241
   47CHL1    C3 3405   5.120   5.033   3.359 -0.5331  1.0290 -0.7554
   47CHL1    H3 3406   5.226   5.022   3.328 -1.2631  1.3918 -3.6375
   47CHL1    O3 3407   5.040   5.007   3.244 -0.2183 -0.2723  0.5284
   47CHL1   H3' 3408   4.950   5.000   3.276  0.5412  0.8085  3.2056
   47CHL1    C4 3409   5.088   4.939   3.479 -0.0071 -0.2980  0.4550
   47CHL1   H4A 3410   4.984   4.962   3.510  0.3936 -1.6355  3.1223
   47CHL1   H4B 3411   5.092   4.833   3.446 -0.5559  0.1453 -1.1319
   47CHL1    C5 3412   5.155   4.979   3.607 -0.1362 -0.3687 -0.4210
   47CHL1    C6 3413   5.219   4.877   3.674 -0.0873 -0.3224 -0.4052
   47CHL1    H6 3414   5.205   4.775   3.637 -0.7031  0.3702 -2.2172
   47CHL1    C7 3415   5.295   4.900   3.798 -0.1598  0.0546 -0.1978
   47CHL1   H7A 3416   5.273   4.827   3.879  1.3906  0.1897  0.3802
   47CHL1   H7B 3417   5.401   4.875   3.776  0.0679 -0.2192  1.1078
   47CHL1    C8 3418   5.271   5.044   3.860 -0.7339  0.3127  0.0602
   47CHL1    H8 3419   5.173   5.049   3.911  0.5644  0.9120  2.6730
   47CHL1   C14 3420   5.360   5.077   3.977  0.0913 -0.3092  0.0153
   47CHL1   H14 3421   5.458   5.103   3.931 -0.5218 -1.0640 -1.7992
   47CHL1   C15 3422   5.383   4.968   4.089  0.6664 -0.0130 -0.6198
   47CHL1  H15A 3423   5.285   4.920   4.111  0.6626 -0.0608 -0.7338
   47CHL1  H15B 3424   5.447   4.879   4.067  1.8049 -0.1459  2.7221
   47CHL1   C16 3425   5.442   5.058   4.202  0.2202  0.1101  0.2031
   47CHL1  H16A 3426   5.382   5.029   4.291  1.6008 -2.8517  0.2913
   47CHL1  H16B 3427   5.541   5.020   4.238 -0.0400  0.7689  1.6876
   47CHL1   C17 3428   5.429   5.213   4.166 -0.1954  0.2105  0.9329
   47CHL1   H17 3429   5.518   5.255   4.114 -0.1115 -0.3912  0.5775
   47CHL1   C13 3430   5.326   5.211   4.052 -0.3465 -0.1867  0.9846
   47CHL1   C18 3431   5.182   5.199   4.113 -0.2207 -0.5240 -0.5471
   47CHL1  H18A 3432   5.146   5.278   4.183  0.0488 -2.3314  1.7195
   47CHL1  H18B 3433   5.099   5.197   4.038 -0.6070  0.2292 -0.1556
   47CHL1  H18C 3434   5.166   5.108   4.175 -1.0836  0.5862  0.9299
   47CHL1   C12 3435   5.342   5.317   3.948 -0.7884 -0.4118  0.3278
   47CHL1  H12A 3436   5.318   5.420   3.979  4.0997  0.5302  1.8035
   47CHL1  H12B 3437   5.448   5.325   3.916 -0.3318 -1.6307  1.4574
   47CHL1   C11 3438   5.256   5.300   3.819  0.7286  0.5139 -0.0047
   47CHL1  H11A 3439   5.153   5.320   3.854  0.7264  0.1053  0.2232
   47CHL1  H11B 3440   5.277   5.378   3.742  0.2060  0.4720 -0.1893
   47CHL1    C9 3441   5.268   5.157   3.753  0.5014 -0.4512 -0.0827
   47CHL1    H9 3442   5.367   5.149   3.704  0.4917 -0.1755 -0.1531
   47CHL1   C10 3443   5.156   5.128   3.647 -0.7109  0.5514 -0.8108
   47CHL1   C19 3444   5.014   5.169   3.708 -0.0226  0.4491  0.5419
   47CHL1  H19A 3445   5.008   5.279   3.720  0.6200  0.6737 -0.9626
   47CHL1  H19B 3446   4.932   5.144   3.638  0.2262  0.9015  0.0799
   47CHL1  H19C 3447   4.989   5.111   3.799 -1.6165 -3.2295 -1.9904
   47CHL1    C1 3448   5.193   5.218   3.524  0.5391  0.1475  0.2429
   47CHL1   H1A 3449   5.166   5.323   3.549 -0.9840 -0.8345  3.2380
   47CHL1   H1B 3450   5.299   5.219   3.491  0.0692 -0.1643 -1.3942
   47CHL1    C2 3451   5.110   5.176   3.403 -0.3889  0.2138  1.1149
   47CHL1   H2A 3452   5.122   5.248   3.320 -3.9674 -2.4111 -2.0657
   47CHL1   H2B 3453   5.004   5.195   3.432 -0.7378  0.7172 -0.3795
   47CHL1   C20 3454   5.399   5.300   4.285 -0.4780 -0.3170  0.6676
   47CHL1   H20 3455   5.303   5.262   4.325 -1.2376 -1.2527 -1.8317
   47CHL1   C21 3456   5.382   5.446   4.238 -0.3017 -0.4040  0.5503
   47CHL1  H21A 3457   5.295   5.453   4.170 -0.2592  0.3509  0.5644
   47CHL1  H21B 3458   5.474   5.480   4.186 -0.9880  0.0011 -0.4275
   47CHL1  H21C 3459   5.363   5.506   4.330  0.4847 -0.2741  0.6347
   47CHL1   C22 3460   5.505   5.285   4.397 -0.4203  0.0927  0.1540
   47CHL1  H22A 3461   5.551   5.184   4.403  2.3105  1.2558  0.4324
   47CHL1  H22B 3462   5.593   5.344   4.362  0.2782 -1.2707 -0.4503
   47CHL1   C23 3463   5.456   5.339   4.535  0.0790  1.6410 -0.2720
   47CHL1  H23A 3464   5.430   5.446   4.518  1.8998  1.9703 -1.2609
   47CHL1  H23B 3465   5.356   5.297   4.559 -0.6947  1.8581 -2.8595
   47CHL1   C24 3466   5.560   5.334   4.644 -0.0272 -0.0572 -0.5200
   47CHL1  H24A 3467   5.513   5.367   4.739 -1.1302 -0.3740 -0.9308
   47CHL1  H24B 3468   5.594   5.230   4.662 -0.7784 -0.2551 -0.1960
   47CHL1   C25 3469   5.694   5.416   4.621  0.9137  0.1416 -0.2572
   47CHL1   H25 3470   5.755   5.375   4.538  0.0890  0.4763 -1.0516
   47CHL1   C26 3471   5.666   5.569   4.583  0.1685  0.8594  0.3211
   47CHL1  H26A 3472   5.595   5.585   4.500 -2.1757 -0.9275  1.8451
   47CHL1  H26B 3473   5.630   5.623   4.673 -1.0318 -0.6640  0.8048
   47CHL1  H26C 3474   5.768   5.609   4.564  0.3288 -0.2185 -1.3186
   47CHL1   C27 3475   5.780   5.408   4.739 -0.1316  0.4995 -0.5391
   47CHL1  H27A 3476   5.728   5.437   4.833  0.2621 -1.5853  0.3691
   47CHL1  H27B 3477   5.820   5.305   4.742  3.5180  1.8107  0.1261
   47CHL1  H27C 3478   5.872   5.469   4.730  0.9863 -1.1993 -0.9620
   48CHL1    C3 3479   2.595   3.284   2.842  0.1861 -0.5652 -0.2053
   48CHL1    H3 3480   2.511   3.214   2.861 -0.4291  0.6444  1.8266
   48CHL1    O3 3481   2.603   3.299   2.698  0.1662 -0.0950 -0.1921
   48CHL1   H3' 3482   2.630   3.391   2.693 -0.4272  0.2237  1.6654
   48CHL1    C4 3483   2.555   3.413   2.911 -0.8680 -0.3013 -0.8081
   48CHL1   H4A 3484   2.634   3.483   2.879 -2.0202 -0.1686 -3.7532
   48CHL1   H4B 3485   2.457   3.448   2.870 -1.2732 -0.1549  0.2490
   48CHL1    C5 3486   2.547   3.397   3.062 -0.0737 -0.4509  0.5058
   48CHL1    C6 3487   2.430   3.420   3.120 -0.3995  0.2260  0.6691
   48CHL1    H6 3488   2.343   3.443   3.058  0.7819  0.1557 -1.0801
   48CHL1    C7 3489   2.416   3.418   3.274  0.4281  0.5485  0.3952
   48CHL1   H7A 3490   2.360   3.508   3.309  0.7413  0.0250  2.3549
   48CHL1   H7B 3491   2.366   3.323   3.303 -0.7712  0.6803 -1.1029
   48CHL1    C8 3492   2.547   3.422   3.345 -1.0913  0.7467  0.9520
   48CHL1    H8 3493   2.600   3.518   3.327  1.4118 -0.5848  0.6911
   48CHL1   C14 3494   2.540   3.387   3.493  0.7317  0.4583  0.8573
   48CHL1   H14 3495   2.508   3.280   3.493  0.3486  0.5595 -0.0158
   48CHL1   C15 3496   2.427   3.458   3.569 -0.6203  0.2336  0.4587
   48CHL1  H15A 3497   2.433   3.564   3.538  0.1930 -0.1279 -0.7292
   48CHL1  H15B 3498   2.325   3.421   3.547 -0.9499  2.1271 -1.4769
   48CHL1   C16 3499   2.474   3.445   3.719  0.1340  0.3067 -0.4848
   48CHL1  H16A 3500   2.503   3.538   3.771  0.0766 -1.0631  2.1881
   48CHL1  H16B 3501   2.398   3.383   3.771  1.6636 -1.4072 -0.1635
   48CHL1   C17 3502   2.607   3.357   3.714 -0.2227 -0.3455  1.0860
   48CHL1   H17 3503   2.577   3.251   3.702  0.7141 -0.4344 -0.8270
   48CHL1   C13 3504   2.666   3.390   3.582  0.2883  0.3610  0.9716
   48CHL1   C18 3505   2.745   3.526   3.573  0.1026  0.6914  0.0309
   48CHL1  H18A 3506   2.755   3.552   3.465 -1.6587 -1.3770 -0.7187
   48CHL1  H18B 3507   2.692   3.615   3.611 -0.8010 -0.8499  2.6431
   48CHL1  H18C 3508   2.845   3.517   3.621 -1.4923 -1.7343  3.2740
   48CHL1   C12 3509   2.755   3.277   3.512  0.1578 -0.3394 -0.9121
   48CHL1  H12A 3510   2.856   3.271   3.557  0.0966  1.0136 -0.5585
   48CHL1  H12B 3511   2.698   3.183   3.529 -0.7545  0.3844  0.1938
   48CHL1   C11 3512   2.778   3.300   3.358  0.2482  0.0504  0.0228
   48CHL1  H11A 3513   2.843   3.390   3.348  1.3491 -0.8015 -0.7383
   48CHL1  H11B 3514   2.819   3.205   3.317 -1.8587 -0.5536 -0.8357
   48CHL1    C9 3515   2.653   3.324   3.272 -0.6488 -0.0449  0.3569
   48CHL1    H9 3516   2.597   3.228   3.271 -1.0573  0.1168  2.5375
   48CHL1   C10 3517   2.680   3.350   3.123  0.1050 -0.2415 -0.2087
   48CHL1   C19 3518   2.789   3.462   3.112 -0.1744  0.2705  0.6997
   48CHL1  H19A 3519   2.886   3.420   3.145  0.8768  1.6701 -0.4967
   48CHL1  H19B 3520   2.799   3.498   3.008  2.4911  1.8804  1.4332
   48CHL1  H19C 3521   2.767   3.547   3.179 -2.0382 -0.3519  0.9485
   48CHL1    C1 3522   2.729   3.228   3.053 -0.3078  0.6578  0.5571
   48CHL1   H1A 3523   2.837   3.219   3.076 -0.2679 -1.3420 -0.1928
   48CHL1   H1B 3524   2.679   3.133   3.080  0.2964 -0.4829 -1.9973
   48CHL1    C2 3525   2.727   3.233   2.899 -0.2485  0.2570  0.2713
   48CHL1   H2A 3526   2.742   3.133   2.853 -1.1741  0.1114  0.2502
   48CHL1   H2B 3527   2.811   3.296   2.864  0.0769  0.5537  1.5202
   48CHL1   C20 3528   2.700   3.358   3.841 -0.4419 -0.3728  0.6174
   48CHL1   H20 3529   2.767   3.445   3.854  0.6402 -1.2812  1.3182
   48CHL1   C21 3530   2.799   3.246   3.828  0.6239  0.0872  0.4440
   48CHL1  H21A 3531   2.849   3.230   3.927 -1.0193  3.7049  2.0329
   48CHL1  H21B 3532   2.889   3.268   3.766  1.0040 -1.0048  0.5825
   48CHL1  H21C 3533   2.753   3.153   3.787  0.3802  1.0815 -1.6688
   48CHL1   C22 3534   2.612   3.348   3.972  0.0404 -0.2802 -0.2170
   48CHL1  H22A 3535   2.545   3.437   3.974 -0.0619 -0.3620  0.1417
   48CHL1  H22B 3536   2.555   3.252   3.976  0.3740 -0.5747 -1.7330
   48CHL1   C23 3537   2.688   3.358   4.109  0.4911  0.1157  0.8409
   48CHL1  H23A 3538   2.767   3.280   4.099 -0.2598 -0.7076  1.1371
   48CHL1  H23B 3539   2.736   3.457   4.095 -0.1840  0.3460  0.0740
   48CHL1   C24 3540   2.598   3.332   4.232  0.1695  0.4005 -0.1499
   48CHL1  H24A 3541   2.522   3.413   4.229  0.4126  0.8603  2.9047
   48CHL1  H24B 3542   2.538   3.241   4.210 -1.3991  1.4195 -0.2525
   48CHL1   C25 3543   2.667   3.320   4.368 -0.3005  0.2266 -0.4985
   48CHL1   H25 3544   2.745   3.398   4.370 -0.6904  0.6058  0.1343
   48CHL1   C26 3545   2.571   3.340   4.481  0.0046 -0.6094 -0.1928
   48CHL1  H26A 3546   2.477   3.284   4.465  1.6483 -3.5067 -0.5169
   48CHL1  H26B 3547   2.620   3.328   4.580 -1.8103  3.3784  1.3879
   48CHL1  H26C 3548   2.541   3.446   4.480  1.2878 -0.2234 -0.2337
   48CHL1   C27 3549   2.752   3.196   4.374  0.1377  0.4050 -0.1308
   48CHL1  H27A 3550   2.692   3.108   4.341  0.9473 -1.1191  2.1618
   48CHL1  H27B 3551   2.844   3.190   4.311 -0.6035 -0.6372 -1.1421
   48CHL1  H27C 3552   2.786   3.183   4.479 -0.8997 -0.8766  0.0681
   49CHL1    C3 3553   6.203   3.831   2.534 -0.1122  0.4242 -0.3152
   49CHL1    H3 3554   6.250   3.912   2.595 -2.1214  1.3181  0.1381
   49CHL1    O3 3555   6.174   3.896   2.412  0.1003  0.1581  0.8800
   49CHL1   H3' 3556   6.126   3.975   2.439  0.3258 -0.0366  1.8766
   49CHL1    C4 3557   6.302   3.712   2.512  0.4695  0.5512 -0.2028
   49CHL1   H4A 3558   6.257   3.653   2.429 -1.3901 -0.0590  1.1719
   49CHL1   H4B 3559   6.396   3.754   2.471  0.5968 -1.0464 -1.6413
   49CHL1    C5 3560   6.317   3.625   2.642 -0.6221 -0.0574  0.2040
   49CHL1    C6 3561   6.440   3.603   2.687 -0.4172  0.4395  0.1030
   49CHL1    H6 3562   6.528   3.641   2.634  0.1094 -0.4790  0.2855
   49CHL1    C7 3563   6.467   3.522   2.810 -0.4588 -0.2406 -0.3059
   49CHL1   H7A 3564   6.546   3.444   2.808  1.4234  1.4681  1.9658
   49CHL1   H7B 3565   6.489   3.598   2.887 -0.3782 -1.0909  0.5370
   49CHL1    C8 3566   6.342   3.446   2.862  0.0604 -0.7125 -0.6108
   49CHL1    H8 3567   6.329   3.354   2.801 -1.1429  0.8872 -2.9386
   49CHL1   C14 3568   6.366   3.404   3.007  0.3275  0.0433  0.1347
   49CHL1   H14 3569   6.398   3.497   3.060 -1.9000 -0.6082  2.8717
   49CHL1   C15 3570   6.484   3.312   3.046 -0.4060  0.8995  0.3818
   49CHL1  H15A 3571   6.498   3.223   2.980  0.4015  2.0349 -1.0419
   49CHL1  H15B 3572   6.583   3.361   3.057  0.2158 -0.9011  5.0608
   49CHL1   C16 3573   6.455   3.262   3.185  0.3370  0.2608  0.1181
   49CHL1  H16A 3574   6.442   3.151   3.192 -2.5525  0.3956 -1.6286
   49CHL1  H16B 3575   6.519   3.307   3.264  1.0306  0.1967 -0.3951
   49CHL1   C17 3576   6.314   3.322   3.225 -0.0387 -0.7658 -0.0071
   49CHL1   H17 3577   6.327   3.419   3.278  1.8311 -0.0642 -1.6291
   49CHL1   C13 3578   6.251   3.354   3.087  0.2892 -0.0265 -0.8330
   49CHL1   C18 3579   6.205   3.223   3.027 -0.3725  0.2766 -0.1189
   49CHL1  H18A 3580   6.283   3.145   3.040 -0.4364  0.2301 -0.0099
   49CHL1  H18B 3581   6.117   3.195   3.089 -0.1268  0.3280  0.2536
   49CHL1  H18C 3582   6.180   3.245   2.921  0.4272 -1.1736 -0.6330
   49CHL1   C12 3583   6.132   3.458   3.080 -0.5658  0.3315 -0.5255
   49CHL1  H12A 3584   6.041   3.427   3.137 -0.4987 -0.3570 -0.7842
   49CHL1  H12B 3585   6.177   3.546   3.129  2.4290 -0.1114 -2.2621
   49CHL1   C11 3586   6.102   3.488   2.936  0.2448 -0.3121 -0.0019
   49CHL1  H11A 3587   6.052   3.396   2.898  1.3853 -0.3633 -1.4817
   49CHL1  H11B 3588   6.025   3.568   2.933  2.0217  1.5384  1.1232
   49CHL1    C9 3589   6.222   3.539   2.852 -0.5392  0.0348 -0.2880
   49CHL1    H9 3590   6.257   3.625   2.913 -0.9700  0.0559 -0.0645
   49CHL1   C10 3591   6.186   3.587   2.708 -0.2072 -0.3789 -0.2765
   49CHL1   C19 3592   6.134   3.472   2.616  0.4425 -0.4629 -0.3434
   49CHL1  H19A 3593   6.034   3.434   2.647  0.4184 -0.3118 -0.2379
   49CHL1  H19B 3594   6.116   3.498   2.509  0.3041 -1.8444 -0.6777
   49CHL1  H19C 3595   6.207   3.389   2.605  0.4909 -0.3095 -1.3600
   49CHL1    C1 3596   6.095   3.706   2.729  0.0350  0.1600  0.1188
   49CHL1   H1A 3597   5.992   3.683   2.763 -1.0640 -0.3923 -3.2391
   49CHL1   H1B 3598   6.138   3.780   2.800  2.3128 -0.8747 -0.0676
   49CHL1    C2 3599   6.072   3.782   2.595  0.3337  0.1265  0.1470
   49CHL1   H2A 3600   6.004   3.869   2.600  0.0330 -0.1307  0.6180
   49CHL1   H2B 3601   6.034   3.703   2.526  1.0034 -1.5500  1.6140
   49CHL1   C20 3602   6.250   3.228   3.332  0.8232 -0.1237  0.3747
   49CHL1   H20 3603   6.229   3.128   3.287  2.5217 -0.6561  0.7024
   49CHL1   C21 3604   6.113   3.280   3.377 -0.0375  0.6307 -0.0555
   49CHL1  H21A 3605   6.080   3.216   3.462 -0.4840 -1.6302 -1.8485
   49CHL1  H21B 3606   6.037   3.272   3.297 -0.2087 -0.2468  0.1831
   49CHL1  H21C 3607   6.112   3.386   3.410 -0.7905  1.0871 -1.4828
   49CHL1   C22 3608   6.338   3.207   3.465 -0.3928  0.0655 -0.3366
   49CHL1  H22A 3609   6.386   3.306   3.480  0.3566 -0.3693  0.2342
   49CHL1  H22B 3610   6.271   3.201   3.554  0.7319  2.0818  0.7210
   49CHL1   C23 3611   6.437   3.093   3.455  0.0355  0.4104  0.1004
   49CHL1  H23A 3612   6.413   3.036   3.363  0.2638  1.7015 -0.7976
   49CHL1  H23B 3613   6.538   3.134   3.435 -0.3144  1.0275 -0.4671
   49CHL1   C24 3614   6.445   3.004   3.579  0.0061 -0.2491 -0.6371
   49CHL1  H24A 3615   6.463   3.074   3.663 -2.9967  0.6796 -0.6224
   49CHL1  H24B 3616   6.344   2.962   3.600  0.1697 -0.3229  0.0363
   49CHL1   C25 3617   6.547   2.884   3.586 -0.2040  0.0404  0.4270
   49CHL1   H25 3618   6.644   2.929   3.556 -0.2348  0.6407  1.1699
   49CHL1   C26 3619   6.565   2.837   3.730 -0.2872  0.0914 -0.0145
   49CHL1  H26A 3620   6.660   2.783   3.748  0.3103  1.2926  0.5545
   49CHL1  H26B 3621   6.585   2.924   3.796 -0.3133  1.2747 -1.5179
   49CHL1  H26C 3622   6.469   2.802   3.774 -0.7940  1.3298 -0.0927
   49CHL1   C27 3623   6.518   2.767   3.496 -0.3456 -0.5755  0.5632
   49CHL1  H27A 3624   6.606   2.705   3.471  0.2384 -0.3915  2.0355
   49CHL1  H27B 3625   6.426   2.710   3.523 -2.1920  1.1844 -1.5371
   49CHL1  H27C 3626   6.480   2.810   3.401  0.2881  1.7766  1.3046
   50CHL1    C3 3627   3.398   5.050   2.394  0.1412 -0.3554  0.6176
   50CHL1    H3 3628   3.412   5.156   2.425  0.7894 -0.1203 -0.4370
   50CHL1    O3 3629   3.421   5.056   2.249 -0.1097  0.0664  0.3536
   50CHL1   H3' 3630   3.491   5.119   2.231  0.9805 -1.3162 -0.5233
   50CHL1    C4 3631   3.505   4.967   2.466 -0.2910  0.4733 -0.3068
   50CHL1   H4A 3632   3.484   4.861   2.439 -1.3662  0.0677  1.9131
   50CHL1   H4B 3633   3.610   4.995   2.445  0.7656 -2.4178  0.5435
   50CHL1    C5 3634   3.474   4.968   2.615 -0.2425  0.6739 -0.5224
   50CHL1    C6 3635   3.576   5.006   2.693 -0.1581 -0.0790 -0.4153
   50CHL1    H6 3636   3.673   5.030   2.648 -0.8278 -0.0460 -1.8948
   50CHL1    C7 3637   3.565   5.018   2.837 -0.1589  0.3927 -0.3854
   50CHL1   H7A 3638   3.659   4.975   2.878 -0.9722  0.1762  1.3236
   50CHL1   H7B 3639   3.552   5.123   2.870 -0.6428  0.0114  0.7079
   50CHL1    C8 3640   3.443   4.943   2.896 -0.1685  0.8421 -0.0958
   50CHL1    H8 3641   3.473   4.836   2.896 -1.4987  0.4473  0.1262
   50CHL1   C14 3642   3.422   4.989   3.036 -0.8785 -0.9251  0.5091
   50CHL1   H14 3643   3.398   5.097   3.020  3.0352 -0.1935 -1.6551
   50CHL1   C15 3644   3.546   4.999   3.132  0.1540 -0.4276  0.3363
   50CHL1  H15A 3645   3.636   4.934   3.133  1.4064  1.2414  0.4682
   50CHL1  H15B 3646   3.596   5.097   3.111 -1.8978  0.0251 -3.1865
   50CHL1   C16 3647   3.482   4.999   3.276 -0.5657 -0.2131  0.2876
   50CHL1  H16A 3648   3.518   4.906   3.324  0.0010 -0.8339 -1.2891
   50CHL1  H16B 3649   3.514   5.081   3.344  0.4027 -0.3856  0.0502
   50CHL1   C17 3650   3.324   4.998   3.258  0.3425 -0.6659 -0.4727
   50CHL1   H17 3651   3.299   5.106   3.249 -2.0768 -0.6977  3.3597
   50CHL1   C13 3652   3.304   4.927   3.116 -0.0207  0.1691  0.4208
   50CHL1   C18 3653   3.323   4.773   3.117 -0.0124  0.2936  0.3432
   50CHL1  H18A 3654   3.356   4.726   3.022  1.1132  1.1648  0.2878
   50CHL1  H18B 3655   3.393   4.747   3.200 -0.5819  1.3146  1.1635
   50CHL1  H18C 3656   3.226   4.725   3.145 -0.6646  1.5189  0.2367
   50CHL1   C12 3657   3.182   4.963   3.035  0.2227  0.1117 -0.3556
   50CHL1  H12A 3658   3.085   4.936   3.082 -0.1660  0.7430 -0.7755
   50CHL1  H12B 3659   3.180   5.074   3.026 -1.3505  0.0843 -0.5903
   50CHL1   C11 3660   3.189   4.901   2.890  0.1960  0.2510 -0.5473
   50CHL1  H11A 3661   3.185   4.790   2.884 -2.8856  0.1027  1.6006
   50CHL1  H11B 3662   3.108   4.935   2.822  0.1166 -0.5264 -0.8473
   50CHL1    C9 3663   3.312   4.960   2.816 -0.3906 -0.7538 -0.3974
   50CHL1    H9 3664   3.303   5.071   2.824 -1.5942 -0.8309 -0.4558
   50CHL1   C10 3665   3.325   4.932   2.665 -0.3215  1.3640  0.1592
   50CHL1   C19 3666   3.317   4.774   2.658  0.1458 -1.0339 -0.0864
   50CHL1  H19A 3667   3.359   4.737   2.562 -0.9887 -1.8519 -0.2751
   50CHL1  H19B 3668   3.370   4.724   2.742 -1.6330  1.5442  2.7913
   50CHL1  H19C 3669   3.209   4.750   2.648  0.9138 -4.3800 -1.5883
   50CHL1    C1 3670   3.221   5.007   2.579  0.0229  0.3693  0.4216
   50CHL1   H1A 3671   3.123   4.964   2.610  0.1899  0.5127  1.1678
   50CHL1   H1B 3672   3.208   5.109   2.621  0.2901  0.4257  0.3696
   50CHL1    C2 3673   3.251   5.009   2.423  0.6349  1.0335 -0.3454
   50CHL1   H2A 3674   3.168   5.067   2.377 -0.1350 -0.6277 -1.1330
   50CHL1   H2B 3675   3.240   4.905   2.387 -0.1128  1.2626 -0.8041
   50CHL1   C20 3676   3.238   4.954   3.373  0.1184 -1.0434 -0.1992
   50CHL1   H20 3677   3.256   4.844   3.382 -2.9218 -1.9159 -2.8114
   50CHL1   C21 3678   3.092   4.963   3.342 -0.2085 -0.3740 -0.5418
   50CHL1  H21A 3679   3.040   4.954   3.440 -1.8479 -0.5719 -1.3931
   50CHL1  H21B 3680   3.049   4.883   3.278 -0.5659 -1.3739  0.8863
   50CHL1  H21C 3681   3.071   5.067   3.308 -1.9876 -0.1752  0.9850
   50CHL1   C22 3682   3.281   5.019   3.512 -0.3087  0.9698  0.1285
   50CHL1  H22A 3683   3.382   5.064   3.511 -0.3745  1.2676  2.0716
   50CHL1  H22B 3684   3.214   5.107   3.526 -1.0321  0.5033 -0.2800
   50CHL1   C23 3685   3.267   4.925   3.634 -0.2040  0.4425  0.5339
   50CHL1  H23A 3686   3.172   4.868   3.632 -0.8900  1.5496  0.8746
   50CHL1  H23B 3687   3.355   4.857   3.639 -0.3158  0.4014  2.8586
   50CHL1   C24 3688   3.276   5.006   3.765  0.4267  0.1628 -0.1116
   50CHL1  H24A 3689   3.374   5.058   3.773  0.7952 -0.6088  0.5479
   50CHL1  H24B 3690   3.200   5.086   3.756 -0.8632 -1.1352 -1.1970
   50CHL1   C25 3691   3.247   4.922   3.893 -0.0279 -0.1185  0.5058
   50CHL1   H25 3692   3.165   4.853   3.866 -0.2069  0.3326 -0.1353
   50CHL1   C26 3693   3.371   4.838   3.936 -0.6815  0.2538  0.4971
   50CHL1  H26A 3694   3.372   4.802   4.042 -0.0721 -1.1567  0.0301
   50CHL1  H26B 3695   3.377   4.745   3.875 -1.1322  0.8440 -0.4711
   50CHL1  H26C 3696   3.460   4.894   3.903 -0.9278  0.2298 -0.2122
   50CHL1   C27 3697   3.201   5.015   4.007 -0.1052 -0.1982 -0.6076
   50CHL1  H27A 3698   3.151   4.966   4.093 -0.4681 -0.8196 -1.1533
   50CHL1  H27B 3699   3.285   5.076   4.045  0.8254 -1.1821 -1.0029
   50CHL1  H27C 3700   3.125   5.083   3.964 -0.7452  1.4770  2.8971
   51CHL1    C3 3701   6.555   3.112   2.361 -0.0141 -0.2044  0.5418
   51CHL1    H3 3702   6.640   3.059   2.313  0.1303 -1.4304  2.0808
   51CHL1    O3 3703   6.461   3.166   2.266 -0.4567  0.0384  0.1240
   51CHL1   H3' 3704   6.380   3.180   2.316 -1.0008  0.5967 -0.8783
   51CHL1    C4 3705   6.474   3.003   2.439  0.1167  0.2674  0.6038
   51CHL1   H4A 3706   6.376   3.033   2.484 -1.1723 -1.1007 -1.1441
   51CHL1   H4B 3707   6.441   2.921   2.371  1.0333 -0.2296  0.7518
   51CHL1    C5 3708   6.546   2.949   2.554  0.1533 -0.2800 -0.8353
   51CHL1    C6 3709   6.542   2.820   2.580  0.0764  0.6235  0.0410
   51CHL1    H6 3710   6.474   2.764   2.515 -2.7489 -1.4208  4.2588
   51CHL1    C7 3711   6.617   2.750   2.687 -0.4649 -0.0181  0.2599
   51CHL1   H7A 3712   6.543   2.679   2.731 -0.1358 -0.9816 -0.6891
   51CHL1   H7B 3713   6.702   2.701   2.635  0.4200  0.4812  1.2035
   51CHL1    C8 3714   6.672   2.856   2.794  0.6814  0.2179 -0.0800
   51CHL1    H8 3715   6.572   2.883   2.835  0.2050  1.0394 -1.6697
   51CHL1   C14 3716   6.758   2.792   2.906  0.0944 -0.2828  0.3536
   51CHL1   H14 3717   6.854   2.753   2.867  0.8653  1.7264  0.1226
   51CHL1   C15 3718   6.696   2.677   2.979  0.1324 -0.2179 -0.6811
   51CHL1  H15A 3719   6.590   2.696   3.004  0.2143 -0.5895 -0.0004
   51CHL1  H15B 3720   6.708   2.578   2.930 -0.7112  0.5630 -2.5450
   51CHL1   C16 3721   6.792   2.672   3.102  0.5430 -0.2527 -0.4502
   51CHL1  H16A 3722   6.730   2.651   3.191 -0.2489  0.5274 -0.8004
   51CHL1  H16B 3723   6.868   2.592   3.091  1.9806  0.8187  1.2611
   51CHL1   C17 3724   6.870   2.803   3.109 -0.1274 -0.0278  0.1309
   51CHL1   H17 3725   6.968   2.784   3.061  0.4044  1.9642  0.3082
   51CHL1   C13 3726   6.792   2.898   3.017  0.4032  0.3214  0.0027
   51CHL1   C18 3727   6.665   2.951   3.090 -0.5392 -0.2066  0.6817
   51CHL1  H18A 3728   6.699   3.019   3.171  2.9750 -0.4497 -0.4276
   51CHL1  H18B 3729   6.588   3.004   3.030  0.1572  1.7004  1.3963
   51CHL1  H18C 3730   6.609   2.865   3.133 -1.4119 -0.2875 -0.5712
   51CHL1   C12 3731   6.881   2.993   2.940  0.6877 -0.1751  0.5073
   51CHL1  H12A 3732   6.927   3.062   3.014  1.9787  0.8818 -1.2091
   51CHL1  H12B 3733   6.974   2.943   2.908  2.4015  2.0551  1.7530
   51CHL1   C11 3734   6.805   3.070   2.825  0.7012 -0.0902 -0.2607
   51CHL1  H11A 3735   6.724   3.116   2.885  0.6969 -2.5781  1.8152
   51CHL1  H11B 3736   6.876   3.142   2.780  0.3115 -0.4496 -1.4877
   51CHL1    C9 3737   6.732   2.981   2.726  0.1116 -0.3754 -0.1205
   51CHL1    H9 3738   6.816   2.941   2.666  1.7533  3.8868 -0.9683
   51CHL1   C10 3739   6.620   3.048   2.640 -0.3638 -0.0027 -0.1715
   51CHL1   C19 3740   6.516   3.117   2.729  0.1457 -0.1220 -1.1699
   51CHL1  H19A 3741   6.431   3.151   2.668  1.0636  2.0709 -1.3110
   51CHL1  H19B 3742   6.479   3.049   2.809  0.8268  1.1517  0.2731
   51CHL1  H19C 3743   6.561   3.206   2.778 -0.2368 -0.0221 -1.0030
   51CHL1    C1 3744   6.690   3.162   2.552 -0.1362  0.9154 -0.3866
   51CHL1   H1A 3745   6.727   3.240   2.622  0.5972 -0.0747  0.3604
   51CHL1   H1B 3746   6.779   3.119   2.500 -0.0545 -0.3482  0.7527
   51CHL1    C2 3747   6.600   3.220   2.447 -0.4968 -0.1074 -0.3978
   51CHL1   H2A 3748   6.648   3.295   2.381  2.1015 -2.3788 -1.2978
   51CHL1   H2B 3749   6.510   3.256   2.502  2.9748  0.5877  5.8030
   51CHL1   C20 3750   6.906   2.845   3.248  0.8014 -0.4682 -0.3407
   51CHL1   H20 3751   6.807   2.862   3.295  0.9069 -0.7298 -0.0131
   51CHL1   C21 3752   6.981   2.974   3.256 -0.0694  0.7578  0.7758
   51CHL1  H21A 3753   7.058   2.976   3.336  0.9943  0.0934 -0.1901
   51CHL1  H21B 3754   6.914   3.061   3.244 -1.1808 -0.2629 -0.9256
   51CHL1  H21C 3755   7.048   2.969   3.167  0.2411  3.6322  0.7677
   51CHL1   C22 3756   6.962   2.736   3.341 -0.0060 -0.0682  0.0791
   51CHL1  H22A 3757   6.923   2.636   3.313  0.2525 -0.1099 -0.1340
   51CHL1  H22B 3758   7.070   2.733   3.314 -0.3303 -0.0497 -1.3088
   51CHL1   C23 3759   6.958   2.752   3.487  0.3001 -0.1787  0.7381
   51CHL1  H23A 3760   7.014   2.842   3.522  1.7071 -1.1464  1.0825
   51CHL1  H23B 3761   6.849   2.758   3.506  0.3250  0.4435  0.7290
   51CHL1   C24 3762   7.014   2.638   3.570  0.1650  0.1760 -0.3450
   51CHL1  H24A 3763   6.962   2.544   3.541  1.4905 -0.9023  0.6583
   51CHL1  H24B 3764   7.123   2.619   3.559  0.5962  1.3351  1.5581
   51CHL1   C25 3765   6.972   2.656   3.717  0.3458  0.1452 -1.0199
   51CHL1   H25 3766   6.867   2.688   3.731  0.2492 -0.9626  1.3339
   51CHL1   C26 3767   6.991   2.519   3.784 -0.5577  0.0459  0.3448
   51CHL1  H26A 3768   7.096   2.500   3.752  0.0441  3.5361 -0.1081
   51CHL1  H26B 3769   6.987   2.526   3.895 -3.1162  0.6593  0.2808
   51CHL1  H26C 3770   6.927   2.435   3.749 -1.5760  0.4584  1.1553
   51CHL1   C27 3771   7.053   2.769   3.792  0.5083 -0.2184 -0.3686
   51CHL1  H27A 3772   7.024   2.865   3.743 -2.3614 -0.2529  1.0757
   51CHL1  H27B 3773   7.045   2.770   3.903  0.8275 -0.4166 -0.3431
   51CHL1  H27C 3774   7.160   2.747   3.772  0.7103  0.0983  0.3300
   52CHL1    C3 3775   2.850   5.863   2.870  0.2051 -0.5222  0.4537
   52CHL1    H3 3776   2.779   5.778   2.874  1.2520 -1.4957 -0.7664
   52CHL1    O3 3777   2.913   5.873   2.737  0.2587  0.0791 -0.3596
   52CHL1   H3' 3778   2.998   5.831   2.751  0.1538 -0.4895 -1.3696
   52CHL1    C4 3779   2.767   5.994   2.903 -0.0396 -1.3130  1.3101
   52CHL1   H4A 3780   2.836   6.076   2.871 -1.6221 -0.7227 -0.7967
   52CHL1   H4B 3781   2.690   5.995   2.823  1.5508  0.0170 -0.3045
   52CHL1    C5 3782   2.721   6.007   3.048 -0.1440 -0.1386  0.0646
   52CHL1    C6 3783   2.590   6.034   3.063 -0.2488 -0.5499  0.3461
   52CHL1    H6 3784   2.516   6.029   2.982  0.0567 -0.2596  0.0464
   52CHL1    C7 3785   2.536   6.062   3.201  0.7953  0.7200 -0.8093
   52CHL1   H7A 3786   2.468   6.149   3.214 -2.6024 -1.6623 -1.1653
   52CHL1   H7B 3787   2.481   5.973   3.239 -0.1281  1.7123  0.2525
   52CHL1    C8 3788   2.644   6.079   3.318  0.1036  0.3055 -0.0166
   52CHL1    H8 3789   2.691   6.179   3.304 -0.7894  0.4693 -2.4317
   52CHL1   C14 3790   2.580   6.063   3.457  0.2614  0.2996 -0.4683
   52CHL1   H14 3791   2.533   5.962   3.456 -2.2164  1.3856 -1.2822
   52CHL1   C15 3792   2.472   6.165   3.488  0.8506  0.0003  0.0571
   52CHL1  H15A 3793   2.488   6.273   3.467 -0.5573  0.4146  0.9341
   52CHL1  H15B 3794   2.378   6.139   3.436 -0.0160  2.8839  0.0047
   52CHL1   C16 3795   2.451   6.143   3.640  0.4461 -0.5799  0.2271
   52CHL1  H16A 3796   2.432   6.242   3.687  0.7163 -1.2837  1.8918
   52CHL1  H16B 3797   2.357   6.085   3.652  0.0156  0.1029  0.1707
   52CHL1   C17 3798   2.581   6.066   3.690 -0.1945 -0.0951  0.3695
   52CHL1   H17 3799   2.558   5.958   3.688 -0.7020  0.0017  0.7415
   52CHL1   C13 3800   2.678   6.073   3.569 -0.0057 -0.3230  0.3300
   52CHL1   C18 3801   2.750   6.204   3.574  0.3088 -0.0016 -0.4925
   52CHL1  H18A 3802   2.685   6.295   3.574  1.9074  1.2104 -1.6304
   52CHL1  H18B 3803   2.816   6.215   3.662 -0.1612  1.2567 -0.2693
   52CHL1  H18C 3804   2.810   6.216   3.482 -0.5958  1.2217 -0.9561
   52CHL1   C12 3805   2.784   5.960   3.545 -0.2987 -0.2140  1.0726
   52CHL1  H12A 3806   2.864   5.958   3.622  1.6537  0.1395 -0.8631
   52CHL1  H12B 3807   2.744   5.857   3.552  0.8326 -1.0204 -2.5291
   52CHL1   C11 3808   2.855   5.969   3.407 -0.3607 -0.8114 -0.2219
   52CHL1  H11A 3809   2.921   6.058   3.409  0.9329 -1.7107  2.7123
   52CHL1  H11B 3810   2.925   5.882   3.406 -0.3895 -0.8688  1.0374
   52CHL1    C9 3811   2.753   5.974   3.289 -0.0462  0.3199  0.0647
   52CHL1    H9 3812   2.692   5.881   3.296 -0.3696  0.6593  3.9458
   52CHL1   C10 3813   2.824   5.989   3.153 -0.0106  0.3899  0.8310
   52CHL1   C19 3814   2.923   6.113   3.154 -0.2773  0.0497 -0.6134
   52CHL1  H19A 3815   2.958   6.122   3.049  0.2945  1.8724 -0.2902
   52CHL1  H19B 3816   2.865   6.204   3.180 -1.3395 -0.4373 -1.2254
   52CHL1  H19C 3817   3.007   6.105   3.227 -1.6194 -0.2581  0.9623
   52CHL1    C1 3818   2.902   5.855   3.109  0.2006 -0.2356 -0.8042
   52CHL1   H1A 3819   2.987   5.838   3.178  0.2245  0.3230 -0.6940
   52CHL1   H1B 3820   2.832   5.769   3.122  0.1063 -0.2911 -1.6357
   52CHL1    C2 3821   2.960   5.852   2.972 -0.6428  0.0171 -0.0956
   52CHL1   H2A 3822   3.013   5.756   2.955  0.0864  0.5572 -0.9458
   52CHL1   H2B 3823   3.039   5.927   2.954 -0.1005 -0.7232 -0.8989
   52CHL1   C20 3824   2.631   6.102   3.832  0.2008  0.1692  0.7714
   52CHL1   H20 3825   2.671   6.205   3.824  0.8222 -0.0324  1.2321
   52CHL1   C21 3826   2.751   6.012   3.868 -0.1632 -0.1601  0.0842
   52CHL1  H21A 3827   2.790   6.032   3.971 -1.2704 -1.6488  0.8215
   52CHL1  H21B 3828   2.841   6.034   3.806 -0.1729  0.6059  0.3269
   52CHL1  H21C 3829   2.727   5.904   3.876  1.8519 -0.5900  0.9343
   52CHL1   C22 3830   2.514   6.103   3.936 -0.9317  0.8378  1.3600
   52CHL1  H22A 3831   2.559   6.126   4.034 -2.2943 -0.4882  2.3416
   52CHL1  H22B 3832   2.437   6.180   3.915 -0.3064  0.9414 -0.8689
   52CHL1   C23 3833   2.436   5.968   3.949  0.2917  0.1150 -0.3547
   52CHL1  H23A 3834   2.400   5.948   3.845  0.7305  1.8550 -0.8647
   52CHL1  H23B 3835   2.512   5.895   3.982  0.2540  0.0842 -0.3343
   52CHL1   C24 3836   2.316   5.958   4.046  0.3521  0.1245 -0.2078
   52CHL1  H24A 3837   2.349   5.942   4.151  1.9028 -0.9894 -0.8262
   52CHL1  H24B 3838   2.255   6.050   4.037 -0.2055  0.1710  2.8663
   52CHL1   C25 3839   2.217   5.843   4.003 -0.1067  0.6540 -0.2560
   52CHL1   H25 3840   2.198   5.859   3.895  2.4082 -0.5376 -0.9582
   52CHL1   C26 3841   2.265   5.694   4.029  0.1602 -0.6233  0.3631
   52CHL1  H26A 3842   2.194   5.625   3.979  0.9979 -1.5257  0.3786
   52CHL1  H26B 3843   2.361   5.676   3.976  0.3502 -2.3543  1.2381
   52CHL1  H26C 3844   2.286   5.668   4.135 -0.8541 -1.1991  0.4318
   52CHL1   C27 3845   2.085   5.867   4.075  0.7738 -0.4568  0.9462
   52CHL1  H27A 3846   2.005   5.799   4.038  0.6801  0.0787  0.1263
   52CHL1  H27B 3847   2.092   5.860   4.186 -0.1866  2.1366  1.2587
   52CHL1  H27C 3848   2.055   5.971   4.050 -1.1018 -0.7974  1.5864
   53CHL1    C3 3849   0.608   4.742   2.623 -0.5626  0.0296  0.2179
   53CHL1    H3 3850   0.675   4.819   2.666 -0.4611 -1.5329  3.1311
   53CHL1    O3 3851   0.589   4.766   2.486 -0.9042  0.0262  0.6143
   53CHL1   H3' 3852   0.508   4.723   2.460 -0.1470 -0.3077 -1.4292
   53CHL1    C4 3853   0.672   4.605   2.646  0.3072 -0.1337  0.5391
   53CHL1   H4A 3854   0.612   4.524   2.599 -0.6938 -0.4799  2.3052
   53CHL1   H4B 3855   0.772   4.614   2.598 -0.6777  0.3048 -1.5515
   53CHL1    C5 3856   0.690   4.570   2.788 -0.1664 -0.4941 -1.3470
   53CHL1    C6 3857   0.808   4.530   2.844 -0.1882 -0.1086 -0.1018
   53CHL1    H6 3858   0.898   4.515   2.782 -0.9181  1.8588 -1.7282
   53CHL1    C7 3859   0.831   4.482   2.986  1.4356  0.2227  0.0171
   53CHL1   H7A 3860   0.888   4.387   2.997  1.5437  0.0594 -1.6250
   53CHL1   H7B 3861   0.895   4.560   3.032  0.5972  0.1276  1.3950
   53CHL1    C8 3862   0.692   4.461   3.059 -0.3744 -0.2740 -0.0357
   53CHL1    H8 3863   0.654   4.359   3.036 -0.1261 -0.5807  0.8667
   53CHL1   C14 3864   0.706   4.461   3.219 -0.1327 -0.0765 -0.1065
   53CHL1   H14 3865   0.752   4.560   3.241  1.2867 -1.0651  1.5932
   53CHL1   C15 3866   0.801   4.356   3.274  0.1333 -0.6074 -0.8539
   53CHL1  H15A 3867   0.780   4.252   3.240 -1.4548 -0.3186 -0.8612
   53CHL1  H15B 3868   0.906   4.384   3.252  0.2816 -1.9051 -1.9336
   53CHL1   C16 3869   0.764   4.365   3.431 -0.6071 -0.0968  0.8849
   53CHL1  H16A 3870   0.747   4.260   3.461 -0.2917 -0.2149  0.6587
   53CHL1  H16B 3871   0.855   4.401   3.484  0.8949 -1.0480 -0.9090
   53CHL1   C17 3872   0.638   4.450   3.445  0.2932  0.7746 -0.4241
   53CHL1   H17 3873   0.657   4.559   3.455  0.1170  0.6152  2.1865
   53CHL1   C13 3874   0.574   4.454   3.299 -0.0178 -0.6393 -0.2398
   53CHL1   C18 3875   0.498   4.328   3.273 -0.7066  0.1404  0.3224
   53CHL1  H18A 3876   0.460   4.335   3.169  1.7959  0.0793 -0.6479
   53CHL1  H18B 3877   0.562   4.238   3.285  0.4351  1.1778  2.6410
   53CHL1  H18C 3878   0.405   4.319   3.334 -2.1402  0.5333 -1.6902
   53CHL1   C12 3879   0.500   4.583   3.268  0.3788 -0.5962 -0.1223
   53CHL1  H12A 3880   0.407   4.596   3.327  1.2666  1.9631  0.8494
   53CHL1  H12B 3881   0.550   4.680   3.289 -2.2355  0.8624 -0.1861
   53CHL1   C11 3882   0.470   4.590   3.117  0.5003  0.5329 -0.2933
   53CHL1  H11A 3883   0.391   4.516   3.092 -0.7748  2.1122 -1.0672
   53CHL1  H11B 3884   0.417   4.683   3.090 -2.9085 -1.7402 -2.1961
   53CHL1    C9 3885   0.597   4.578   3.027 -0.0977  0.4265  0.1905
   53CHL1    H9 3886   0.649   4.671   3.058  2.3267 -0.8472  0.2358
   53CHL1   C10 3887   0.568   4.593   2.875  0.0309  0.1640  0.4295
   53CHL1   C19 3888   0.462   4.485   2.842  0.3536 -0.5146  0.8113
   53CHL1  H19A 3889   0.501   4.386   2.874 -0.9399 -1.0982  0.6401
   53CHL1  H19B 3890   0.367   4.510   2.895  0.9080 -1.2278  2.1774
   53CHL1  H19C 3891   0.439   4.483   2.733  0.3597  2.7653  0.6597
   53CHL1    C1 3892   0.489   4.732   2.839 -0.1085  0.0607 -0.3561
   53CHL1   H1A 3893   0.391   4.726   2.891  0.2914  1.9045  0.6982
   53CHL1   H1B 3894   0.538   4.825   2.875  1.6352 -0.3940 -1.4310
   53CHL1    C2 3895   0.480   4.766   2.692 -0.9186  0.5716 -0.3734
   53CHL1   H2A 3896   0.427   4.863   2.678 -2.0324 -0.2369 -2.0655
   53CHL1   H2B 3897   0.404   4.696   2.651  0.1434  0.2097 -1.7915
   53CHL1   C20 3898   0.552   4.413   3.573 -0.0584 -0.1362  0.5099
   53CHL1   H20 3899   0.493   4.326   3.535  0.3281  0.4482 -1.5467
   53CHL1   C21 3900   0.456   4.530   3.607 -0.6014 -0.6603  0.3722
   53CHL1  H21A 3901   0.394   4.501   3.694  0.1651 -3.2595  0.1273
   53CHL1  H21B 3902   0.372   4.547   3.536 -0.9407 -0.2954  0.8568
   53CHL1  H21C 3903   0.519   4.620   3.622 -0.2982 -0.7238 -0.4459
   53CHL1   C22 3904   0.648   4.387   3.694  0.0364  0.4233 -0.7456
   53CHL1  H22A 3905   0.726   4.310   3.676  0.2354  0.5166 -0.3027
   53CHL1  H22B 3906   0.710   4.477   3.711 -0.2026  0.3956  0.3388
   53CHL1   C23 3907   0.587   4.345   3.831 -0.8095  0.3661  0.1487
   53CHL1  H23A 3908   0.665   4.335   3.909 -1.3778  0.0363  0.6798
   53CHL1  H23B 3909   0.519   4.427   3.863  1.1595  1.6302  1.2786
   53CHL1   C24 3910   0.506   4.212   3.807 -0.2584 -0.2175 -0.7412
   53CHL1  H24A 3911   0.434   4.225   3.723 -1.9661  0.4147  0.7448
   53CHL1  H24B 3912   0.579   4.134   3.778 -1.2678 -0.5653 -2.4628
   53CHL1   C25 3913   0.429   4.154   3.932  0.0110 -0.3448  0.6618
   53CHL1   H25 3914   0.371   4.235   3.982 -2.1242  0.0688 -2.1832
   53CHL1   C26 3915   0.324   4.048   3.894  0.2859 -0.2391  0.3094
   53CHL1  H26A 3916   0.373   3.973   3.828 -0.4911 -0.3057 -0.2042
   53CHL1  H26B 3917   0.287   3.997   3.986  2.8075  0.0882  1.6141
   53CHL1  H26C 3918   0.236   4.091   3.842 -1.6186  0.3485  3.7245
   53CHL1   C27 3919   0.522   4.096   4.037 -0.6248  0.0415 -0.1720
   53CHL1  H27A 3920   0.456   4.069   4.122 -0.6307 -0.0492 -0.2049
   53CHL1  H27B 3921   0.587   4.015   3.998  0.0097  0.8938 -0.9272
   53CHL1  H27C 3922   0.600   4.168   4.069  2.0240 -1.9044 -1.7885
   54CHL1    C3 3923   6.940   2.255   2.828  0.2779  0.3438  0.5115
   54CHL1    H3 3924   6.912   2.154   2.790  1.5055 -0.2815  1.2034
   54CHL1    O3 3925   6.917   2.334   2.712 -0.1250  0.8887 -0.1769
   54CHL1   H3' 3926   7.002   2.357   2.675 -0.0427  1.4134  0.3128
   54CHL1    C4 3927   6.861   2.300   2.954 -0.3066 -0.4353 -0.1375
   54CHL1   H4A 3928   6.874   2.410   2.959 -0.0314 -0.5383  2.0761
   54CHL1   H4B 3929   6.751   2.289   2.941 -0.0301 -0.6954 -2.8777
   54CHL1    C5 3930   6.908   2.241   3.086 -0.1878 -0.6626 -0.0237
   54CHL1    C6 3931   6.823   2.183   3.171  0.1550 -0.2016  0.7806
   54CHL1    H6 3932   6.714   2.195   3.156  0.4801  1.6628 -0.5271
   54CHL1    C7 3933   6.856   2.130   3.306 -0.0756 -0.3769  0.0858
   54CHL1   H7A 3934   6.773   2.151   3.378 -1.0716 -0.5033 -1.0018
   54CHL1   H7B 3935   6.854   2.020   3.295 -0.4832 -0.4030  0.3589
   54CHL1    C8 3936   6.999   2.172   3.351  0.0346 -0.9018 -0.3307
   54CHL1    H8 3937   7.005   2.279   3.380  2.9184 -1.0659  0.0225
   54CHL1   C14 3938   7.036   2.086   3.470 -0.4890 -0.1083  0.5064
   54CHL1   H14 3939   7.033   1.979   3.441 -0.4615  0.4095 -1.5868
   54CHL1   C15 3940   6.943   2.080   3.593  0.4985 -0.5445  0.3800
   54CHL1  H15A 3941   6.931   2.187   3.622 -1.1574 -1.2220  2.4565
   54CHL1  H15B 3942   6.844   2.032   3.574  0.5200  0.2037 -1.9254
   54CHL1   C16 3943   7.026   2.020   3.705 -0.6788  0.4592 -0.2104
   54CHL1  H16A 3944   7.028   2.099   3.784 -1.2599  0.7609 -0.4873
   54CHL1  H16B 3945   6.986   1.923   3.741  0.6615 -0.3374 -0.8056
   54CHL1   C17 3946   7.171   2.014   3.649  0.1214  0.2121 -0.3719
   54CHL1   H17 3947   7.183   1.908   3.619  0.3695 -0.0907  0.7391
   54CHL1   C13 3948   7.182   2.104   3.522 -0.2519  0.0779  0.8656
   54CHL1   C18 3949   7.207   2.251   3.570 -0.7364  0.3565  0.2301
   54CHL1  H18A 3950   7.191   2.318   3.483 -0.5246  0.2151  0.0816
   54CHL1  H18B 3951   7.133   2.277   3.648 -0.1624 -0.2258  0.9855
   54CHL1  H18C 3952   7.310   2.272   3.608  0.8517  0.7716 -3.8123
   54CHL1   C12 3953   7.265   2.060   3.397 -0.1722  0.0336 -0.1250
   54CHL1  H12A 3954   7.370   2.058   3.432 -0.0970 -0.0070 -0.3516
   54CHL1  H12B 3955   7.239   1.954   3.378 -1.9547 -0.0443  2.1877
   54CHL1   C11 3956   7.245   2.153   3.273  0.6284 -0.1753  0.0517
   54CHL1  H11A 3957   7.289   2.254   3.291  0.7242  0.0372 -1.2565
   54CHL1  H11B 3958   7.307   2.110   3.192 -3.4684 -0.8099 -3.0647
   54CHL1    C9 3959   7.098   2.162   3.231  0.3764  0.3894  0.2348
   54CHL1    H9 3960   7.094   2.055   3.201 -0.2013  0.3803  0.3363
   54CHL1   C10 3961   7.055   2.251   3.107 -0.5369  0.2452  0.1011
   54CHL1   C19 3962   7.089   2.405   3.137 -0.1305 -0.1095  0.3817
   54CHL1  H19A 3963   7.059   2.467   3.050 -1.5356 -1.5908 -0.2284
   54CHL1  H19B 3964   7.040   2.445   3.229 -0.5761  0.7612 -0.2254
   54CHL1  H19C 3965   7.198   2.409   3.160  0.1174 -2.0537 -0.2813
   54CHL1    C1 3966   7.138   2.206   2.982  0.4222  0.2999  0.1640
   54CHL1   H1A 3967   7.243   2.228   3.013  0.5100  0.0793  0.0232
   54CHL1   H1B 3968   7.137   2.094   2.982  2.2315  0.2428 -0.8026
   54CHL1    C2 3969   7.092   2.262   2.849 -0.1946  0.5449 -0.0806
   54CHL1   H2A 3970   7.145   2.215   2.763 -0.4309  0.7914 -0.3631
   54CHL1   H2B 3971   7.131   2.366   2.846  1.4328 -0.0439 -0.8227
   54CHL1   C20 3972   7.274   2.043   3.764  0.3129  0.4651 -0.3099
   54CHL1   H20 3973   7.262   2.147   3.803 -0.1814  0.1733  0.3272
   54CHL1   C21 3974   7.418   2.023   3.726 -0.9450 -0.6461 -0.2025
   54CHL1  H21A 3975   7.486   2.039   3.813 -1.1994 -0.5746 -0.0147
   54CHL1  H21B 3976   7.453   2.086   3.642  2.6597 -1.5138  0.4705
   54CHL1  H21C 3977   7.436   1.921   3.688 -2.0436 -0.5875 -0.9054
   54CHL1   C22 3978   7.230   1.951   3.889  0.7183  0.3437 -0.2029
   54CHL1  H22A 3979   7.132   1.984   3.929 -1.1792 -3.2448 -1.3721
   54CHL1  H22B 3980   7.226   1.852   3.838  3.4347  1.0726 -2.0973
   54CHL1   C23 3981   7.322   1.937   4.009 -0.3449 -0.1841 -0.6548
   54CHL1  H23A 3982   7.420   1.887   3.992 -0.0284  0.5516 -1.0094
   54CHL1  H23B 3983   7.355   2.040   4.035  2.2509 -0.9768 -0.5336
   54CHL1   C24 3984   7.247   1.882   4.133  0.4397  0.0138 -0.0938
   54CHL1  H24A 3985   7.143   1.918   4.144  0.4028 -0.3371  0.7588
   54CHL1  H24B 3986   7.237   1.771   4.125  0.4850  0.0807 -1.1999
   54CHL1   C25 3987   7.325   1.909   4.267  0.2348 -0.3030  0.3693
   54CHL1   H25 3988   7.334   2.019   4.271  1.7389 -0.3531 -0.6563
   54CHL1   C26 3989   7.247   1.860   4.385  0.0745 -0.7205 -0.8141
   54CHL1  H26A 3990   7.163   1.932   4.381  0.2791 -0.5212 -1.6274
   54CHL1  H26B 3991   7.208   1.757   4.372 -0.0077 -0.8756  0.5236
   54CHL1  H26C 3992   7.306   1.865   4.479 -1.3737 -1.1146  0.1352
   54CHL1   C27 3993   7.460   1.848   4.269 -0.1628  0.6809 -0.1565
   54CHL1  H27A 3994   7.456   1.739   4.247 -2.5210 -0.0534  3.2116
   54CHL1  H27B 3995   7.534   1.899   4.204 -0.1281 -0.1822 -0.8125
   54CHL1  H27C 3996   7.504   1.849   4.371 -1.0518  0.4443  0.2411
   55CHL1    C3 3997   4.710   4.957   3.402 -0.4332  0.1124 -0.3540
   55CHL1    H3 3998   4.775   4.895   3.467  0.4657  1.8163  0.4464
   55CHL1    O3 3999   4.783   5.003   3.293  0.0176  0.4825 -0.0383
   55CHL1   H3' 4000   4.716   5.052   3.244 -1.8838 -1.6189  0.3100
   55CHL1    C4 4001   4.587   4.878   3.350 -0.3274  0.3280 -0.1803
   55CHL1   H4A 4002   4.529   4.924   3.267  2.5189  0.9947 -1.9552
   55CHL1   H4B 4003   4.635   4.787   3.306 -1.0234 -0.5277  0.7756
   55CHL1    C5 4004   4.493   4.838   3.455  0.0345  0.7935  0.0581
   55CHL1    C6 4005   4.471   4.708   3.483  0.1429 -0.2146  0.6394
   55CHL1    H6 4006   4.527   4.630   3.429 -1.1770 -0.9119  0.2211
   55CHL1    C7 4007   4.377   4.673   3.592  0.5876 -0.0366  0.3757
   55CHL1   H7A 4008   4.333   4.576   3.559  1.4741 -0.3001 -0.0574
   55CHL1   H7B 4009   4.440   4.643   3.678  1.0242 -0.3884 -0.0606
   55CHL1    C8 4010   4.278   4.786   3.627  0.0032  0.1692 -0.2124
   55CHL1    H8 4011   4.207   4.803   3.542  0.6699  2.8811 -0.3111
   55CHL1   C14 4012   4.202   4.740   3.749  0.5355  0.7187 -0.2430
   55CHL1   H14 4013   4.276   4.728   3.831 -1.2389 -1.6554  1.1316
   55CHL1   C15 4014   4.125   4.607   3.741  0.3668  0.4471 -0.2242
   55CHL1  H15A 4015   4.059   4.597   3.652 -0.9530 -0.0708  0.7684
   55CHL1  H15B 4016   4.189   4.516   3.741 -0.7719 -0.3813 -0.4685
   55CHL1   C16 4017   4.032   4.611   3.866 -0.1318 -0.6088  0.1566
   55CHL1  H16A 4018   3.928   4.591   3.834 -0.4098  1.1572 -0.1511
   55CHL1  H16B 4019   4.069   4.544   3.946  0.0007  0.5268  1.0738
   55CHL1   C17 4020   4.046   4.751   3.933 -0.6761  0.3581  0.0706
   55CHL1   H17 4021   4.122   4.748   4.013 -1.4464 -0.2101  0.7933
   55CHL1   C13 4022   4.108   4.844   3.821  0.5172 -0.0349  0.5199
   55CHL1   C18 4023   4.001   4.888   3.723 -0.4320  0.1279 -0.1929
   55CHL1  H18A 4024   3.931   4.803   3.714 -0.5983  0.1028  1.0983
   55CHL1  H18B 4025   3.940   4.972   3.763  0.8996  0.4550  1.2627
   55CHL1  H18C 4026   4.047   4.906   3.623  1.1433  0.9667  0.6415
   55CHL1   C12 4027   4.193   4.958   3.852 -0.6406 -0.0895  0.0795
   55CHL1  H12A 4028   4.132   5.041   3.893 -0.6742 -0.0776  0.0059
   55CHL1  H12B 4029   4.262   4.925   3.932  0.8375  2.5548  0.0206
   55CHL1   C11 4030   4.273   5.019   3.731  0.1077  0.5052  0.1012
   55CHL1  H11A 4031   4.196   5.074   3.673 -0.4921 -0.4011  0.0273
   55CHL1  H11B 4032   4.336   5.105   3.762 -0.4437  0.2472  2.0661
   55CHL1    C9 4033   4.355   4.913   3.656 -0.4734 -0.0171  0.2134
   55CHL1    H9 4034   4.429   4.878   3.732  0.1483  0.4506 -0.1688
   55CHL1   C10 4035   4.434   4.953   3.530  0.2930  0.9417 -1.1426
   55CHL1   C19 4036   4.336   5.040   3.447 -0.6779 -0.1687 -0.2768
   55CHL1  H19A 4037   4.241   4.991   3.420 -2.5790  3.0834 -0.0427
   55CHL1  H19B 4038   4.304   5.132   3.500  0.4488  1.1397 -1.7646
   55CHL1  H19C 4039   4.389   5.078   3.357 -1.1631  1.9415  0.2594
   55CHL1    C1 4040   4.557   5.028   3.584  0.2025 -0.3054  0.4568
   55CHL1   H1A 4041   4.522   5.111   3.649  1.5726 -0.9090  2.0349
   55CHL1   H1B 4042   4.608   4.965   3.659 -0.2226 -2.7998 -1.2415
   55CHL1    C2 4043   4.655   5.078   3.476  0.5581  0.1811 -0.1287
   55CHL1   H2A 4044   4.742   5.133   3.519  0.5858  1.7101 -1.9682
   55CHL1   H2B 4045   4.600   5.148   3.409  0.0893 -0.7897 -0.7655
   55CHL1   C20 4046   3.925   4.798   4.013  0.5498 -0.1985 -0.2523
   55CHL1   H20 4047   3.835   4.791   3.949  0.8931  0.3650 -0.8119
   55CHL1   C21 4048   3.943   4.940   4.053  0.4411 -0.6123 -0.0146
   55CHL1  H21A 4049   3.934   5.004   3.963 -0.9237  0.9526  1.1715
   55CHL1  H21B 4050   4.042   4.942   4.103  0.2409 -2.2151  0.5030
   55CHL1  H21C 4051   3.868   4.978   4.126  1.8723 -0.0145  1.1990
   55CHL1   C22 4052   3.908   4.704   4.138  0.9738  0.2792  0.1295
   55CHL1  H22A 4053   3.904   4.596   4.111  3.2942  0.5485 -1.5745
   55CHL1  H22B 4054   3.989   4.700   4.213 -0.0144  1.0319  1.2834
   55CHL1   C23 4055   3.779   4.735   4.208 -0.1425 -0.3848 -0.3889
   55CHL1  H23A 4056   3.792   4.830   4.264 -2.3875 -0.0311 -0.3717
   55CHL1  H23B 4057   3.707   4.744   4.125 -1.6610 -2.6525  0.5604
   55CHL1   C24 4058   3.734   4.624   4.289 -0.2107  0.1331 -0.1286
   55CHL1  H24A 4059   3.733   4.523   4.243  2.7803 -1.2092  2.3426
   55CHL1  H24B 4060   3.806   4.622   4.374  1.0035  1.5856 -1.0872
   55CHL1   C25 4061   3.588   4.636   4.339 -0.6362 -0.1003 -0.8266
   55CHL1   H25 4062   3.572   4.742   4.367  2.5708  1.3481 -3.7251
   55CHL1   C26 4063   3.498   4.610   4.226  0.1254 -0.4352  0.5675
   55CHL1  H26A 4064   3.506   4.507   4.185 -0.6784 -0.9385  1.6256
   55CHL1  H26B 4065   3.390   4.619   4.248 -0.3416 -3.0153 -0.3376
   55CHL1  H26C 4066   3.522   4.679   4.142 -0.7581  0.4474  1.0138
   55CHL1   C27 4067   3.559   4.549   4.465  0.1746  0.4996  0.3466
   55CHL1  H27A 4068   3.649   4.560   4.530  0.3853  0.9818 -0.0201
   55CHL1  H27B 4069   3.469   4.591   4.513  0.4929  0.8260  0.6667
   55CHL1  H27C 4070   3.555   4.450   4.415  2.4026  1.0625 -1.1148
   56CHL1    C3 4071   5.591   4.285   2.772  0.4671 -0.3821  0.6097
   56CHL1    H3 4072   5.569   4.185   2.814  0.9886 -1.2298 -1.0799
   56CHL1    O3 4073   5.605   4.285   2.625 -0.5792 -0.5943  0.0089
   56CHL1   H3' 4074   5.517   4.305   2.594  0.9854  2.1202 -3.3114
   56CHL1    C4 4075   5.469   4.378   2.798  0.1459  0.1191 -0.7855
   56CHL1   H4A 4076   5.480   4.484   2.767 -0.3740  0.7461  1.0391
   56CHL1   H4B 4077   5.381   4.350   2.735  0.8064  1.5821 -2.4414
   56CHL1    C5 4078   5.442   4.385   2.951  0.4883  0.9461  0.5945
   56CHL1    C6 4079   5.321   4.351   3.009 -0.4982 -0.5073 -0.1376
   56CHL1    H6 4080   5.232   4.334   2.947 -1.1103  0.2782  0.5063
   56CHL1    C7 4081   5.294   4.360   3.150  0.3214  0.3607 -0.6153
   56CHL1   H7A 4082   5.192   4.397   3.174 -0.4457 -0.5210 -2.3414
   56CHL1   H7B 4083   5.311   4.260   3.196  2.6772  1.8652  2.1430
   56CHL1    C8 4084   5.395   4.448   3.225 -0.1979 -0.5665  0.0506
   56CHL1    H8 4085   5.368   4.553   3.203 -1.3619 -0.6912  0.8164
   56CHL1   C14 4086   5.385   4.423   3.372  0.7091 -0.4057 -0.9411
   56CHL1   H14 4087   5.411   4.316   3.387  0.6500 -0.3157 -0.1679
   56CHL1   C15 4088   5.243   4.438   3.438 -0.0141 -0.1976  0.0427
   56CHL1  H15A 4089   5.190   4.529   3.403  0.9301  0.8227  1.1751
   56CHL1  H15B 4090   5.186   4.343   3.426 -1.3371  0.3995  1.3251
   56CHL1   C16 4091   5.276   4.455   3.590 -1.0018  0.0363  0.4532
   56CHL1  H16A 4092   5.219   4.541   3.629 -3.3243 -0.3176 -1.9085
   56CHL1  H16B 4093   5.237   4.362   3.637  1.0339 -1.5342 -0.7780
   56CHL1   C17 4094   5.432   4.459   3.603 -0.1596 -0.5223  0.3035
   56CHL1   H17 4095   5.472   4.361   3.637 -1.2385 -1.1588 -0.2101
   56CHL1   C13 4096   5.481   4.503   3.462  0.0432 -0.1649 -0.3553
   56CHL1   C18 4097   5.455   4.657   3.442 -0.9220  0.3438  0.1557
   56CHL1  H18A 4098   5.474   4.692   3.338 -1.8998 -0.3156 -0.2599
   56CHL1  H18B 4099   5.357   4.688   3.484 -0.9421 -0.7129  0.9210
   56CHL1  H18C 4100   5.524   4.722   3.501  2.3619 -0.4939 -2.4707
   56CHL1   C12 4101   5.621   4.455   3.424 -0.1366 -0.0329 -0.2022
   56CHL1  H12A 4102   5.701   4.506   3.481  0.3504 -2.0025  0.9721
   56CHL1  H12B 4103   5.622   4.345   3.439 -2.0777  0.1128  1.4450
   56CHL1   C11 4104   5.649   4.481   3.278  0.0434 -0.2125  0.8988
   56CHL1  H11A 4105   5.650   4.591   3.257  1.4254 -0.4098 -0.1749
   56CHL1  H11B 4106   5.746   4.435   3.253 -0.7453 -0.5989 -1.7261
   56CHL1    C9 4107   5.538   4.416   3.186  0.0598 -0.7663  0.6672
   56CHL1    H9 4108   5.550   4.308   3.212  1.8863 -0.7670 -0.0246
   56CHL1   C10 4109   5.560   4.431   3.030  0.2803 -0.0210 -0.2179
   56CHL1   C19 4110   5.578   4.583   3.003  0.0441  0.2646 -0.3207
   56CHL1  H19A 4111   5.493   4.634   3.053 -1.1083  0.4973 -2.3824
   56CHL1  H19B 4112   5.675   4.621   3.042 -0.2435  0.6689  0.0115
   56CHL1  H19C 4113   5.580   4.595   2.893  3.2097  0.2197 -0.3474
   56CHL1    C1 4114   5.694   4.360   2.987  0.0597  0.6253 -0.5025
   56CHL1   H1A 4115   5.772   4.424   3.032  0.9454 -0.3529 -0.6114
   56CHL1   H1B 4116   5.707   4.263   3.038 -3.0961  1.1265  1.5095
   56CHL1    C2 4117   5.714   4.347   2.839  0.4054  0.4803 -0.0154
   56CHL1   H2A 4118   5.799   4.278   2.822  0.6026  0.7203 -0.0280
   56CHL1   H2B 4119   5.742   4.446   2.795 -1.0060  0.7988 -0.2575
   56CHL1   C20 4120   5.487   4.546   3.720  0.2043  0.0530 -0.5572
   56CHL1   H20 4121   5.464   4.655   3.713 -0.6847  0.2165  2.9551
   56CHL1   C21 4122   5.635   4.556   3.734 -0.0672  0.1560 -0.0255
   56CHL1  H21A 4123   5.679   4.560   3.836  0.6699 -0.2003 -0.3188
   56CHL1  H21B 4124   5.673   4.648   3.685  0.0438  0.0290 -0.1807
   56CHL1  H21C 4125   5.692   4.473   3.687 -0.2573 -0.5331  0.9418
   56CHL1   C22 4126   5.421   4.498   3.857 -0.6866  0.5275  0.2559
   56CHL1  H22A 4127   5.452   4.577   3.929 -0.7823  1.1784 -0.4069
   56CHL1  H22B 4128   5.310   4.496   3.848 -0.7720  0.2737  1.2396
   56CHL1   C23 4129   5.478   4.365   3.909  0.1634 -0.8605 -0.2311
   56CHL1  H23A 4130   5.472   4.291   3.826  0.4126  1.0146 -1.9895
   56CHL1  H23B 4131   5.576   4.373   3.961 -1.0705  0.5927  2.0396
   56CHL1   C24 4132   5.374   4.319   4.017  0.2143 -0.2468  1.0500
   56CHL1  H24A 4133   5.363   4.403   4.090  1.4281 -0.2077  1.1988
   56CHL1  H24B 4134   5.281   4.286   3.965  0.2108 -1.0547  1.5417
   56CHL1   C25 4135   5.421   4.189   4.091 -1.0391  0.5856 -0.7393
   56CHL1   H25 4136   5.429   4.112   4.011  1.2795  0.1802 -0.1898
   56CHL1   C26 4137   5.561   4.216   4.153 -0.8708  0.5173 -0.2716
   56CHL1  H26A 4138   5.569   4.306   4.218 -0.2388  0.2605  0.0213
   56CHL1  H26B 4139   5.588   4.131   4.220 -0.4885  0.3540 -0.6318
   56CHL1  H26C 4140   5.641   4.202   4.078  0.0595 -1.9984  1.0674
   56CHL1   C27 4141   5.341   4.153   4.213  0.4158  0.4928 -0.4702
   56CHL1  H27A 4142   5.344   4.228   4.296 -1.1896 -0.7167  0.7489
   56CHL1  H27B 4143   5.231   4.153   4.193  0.4782  2.5958 -1.0926
   56CHL1  H27C 4144   5.373   4.055   4.255 -1.3146 -0.1692 -0.6155
   57SAPC     N 4145   4.438   4.954   7.029 -0.4133  0.3276 -0.4262
   57SAPC   C12 4146   4.352   5.004   6.921  0.3954 -0.2200 -0.0253
   57SAPC  H12A 4147   4.253   5.020   6.961  0.6622  0.2603  0.4684
   57SAPC  H12B 4148   4.345   4.934   6.840  1.2958  0.1005 -0.3945
   57SAPC   C13 4149   4.387   4.826   7.088  0.3123  0.0837  0.0162
   57SAPC  H13A 4150   4.439   4.790   7.175 -1.0282 -1.1041  0.3618
   57SAPC  H13B 4151   4.285   4.844   7.118 -0.2628 -0.2383 -1.6293
   57SAPC  H13C 4152   4.375   4.760   7.003 -2.8955  0.7327 -0.1613
   57SAPC   C14 4153   4.579   4.934   6.983  0.1372  0.2453  0.2222
   57SAPC  H14A 4154   4.640   4.900   7.066  0.3040 -1.7620 -0.6796
   57SAPC  H14B 4155   4.590   4.865   6.901 -0.9586  0.3549 -0.0330
   57SAPC  H14C 4156   4.628   5.028   6.962 -0.5710  0.4235 -0.6800
   57SAPC   C15 4157   4.442   5.041   7.147 -0.0449 -0.3634 -0.4104
   57SAPC  H15A 4158   4.505   4.994   7.222 -0.6194 -1.0204 -0.3241
   57SAPC  H15B 4159   4.476   5.140   7.120  1.9360 -0.9986 -0.4307
   57SAPC  H15C 4160   4.344   5.046   7.192  0.7463  0.9661  1.2623
   57SAPC   C11 4161   4.409   5.136   6.855  0.3446 -1.0567  0.7589
   57SAPC  H11A 4162   4.331   5.159   6.779  0.9604 -1.3417  0.0264
   57SAPC  H11B 4163   4.502   5.109   6.801  0.8570 -1.2659  1.7294
   57SAPC     P 4164   4.448   5.387   6.884 -0.6635 -0.3379  0.3967
   57SAPC   O13 4165   4.315   5.441   6.871  0.7940 -0.2667 -0.2038
   57SAPC   O14 4166   4.542   5.466   6.961 -0.1355  0.0668 -0.0244
   57SAPC   O12 4167   4.434   5.242   6.943 -0.3243  0.3524 -0.2887
   57SAPC   O11 4168   4.506   5.358   6.744 -0.0727 -0.6681  0.1206
   57SAPC    C1 4169   4.482   5.443   6.629  0.4949  0.0847 -0.0955
   57SAPC    HA 4170   4.461   5.549   6.655  3.9123  1.5005 -2.4927
   57SAPC    HB 4171   4.577   5.437   6.572  0.9771 -2.5195  0.8334
   57SAPC    C2 4172   4.351   5.406   6.554 -0.2120 -0.8921 -0.6930
   57SAPC    HS 4173   4.269   5.421   6.627  2.2065 -1.7321  2.4560
   57SAPC   O21 4174   4.371   5.270   6.512 -0.1463  0.1454 -0.2264
   57SAPC   C21 4175   4.266   5.193   6.504  0.1241  0.2209  0.3057
   57SAPC   O22 4176   4.156   5.211   6.557  0.5291  0.3806  0.0073
   57SAPC   C22 4177   4.296   5.074   6.413  0.1036  0.4270 -0.1956
   57SAPC   H2R 4178   4.393   5.024   6.431  0.4966  0.0784 -2.8807
   57SAPC   H2S 4179   4.223   4.994   6.440  0.0483  0.6721  0.3952
   57SAPC    C3 4180   4.315   5.507   6.434 -0.4323  0.5563 -0.1298
   57SAPC    HX 4181   4.404   5.524   6.369  1.0625  0.1349  1.7008
   57SAPC    HY 4182   4.279   5.603   6.476  0.9557  1.6937 -1.4300
   57SAPC   O31 4183   4.212   5.442   6.354  0.3873  0.4048  0.0236
   57SAPC   C31 4184   4.141   5.526   6.285  0.0159 -0.6000 -0.3213
   57SAPC   O32 4185   4.159   5.646   6.290 -0.6000 -0.7237  0.3413
   57SAPC   C32 4186   4.045   5.457   6.192 -0.2919 -0.2712  0.7814
   57SAPC   H2X 4187   3.976   5.397   6.255 -0.6721 -1.2681 -0.5659
   57SAPC   H2Y 4188   4.093   5.386   6.122 -3.5953 -1.7281 -0.1943
   57SAPC   C23 4189   4.302   5.100   6.255  0.3497 -0.0634 -0.0552
   57SAPC   H3R 4190   4.395   5.161   6.254 -0.4678  1.4962  3.1950
   57SAPC   H3S 4191   4.215   5.162   6.227 -0.4943 -0.4605  1.5712
   57SAPC   C24 4192   4.293   4.967   6.180 -0.0886 -0.7449 -0.0781
   57SAPC   H4R 4193   4.368   4.893   6.213  1.0241  0.2733 -0.2517
   57SAPC   H4S 4194   4.317   4.991   6.074  0.1480  0.5155  0.2362
   57SAPC   C25 4195   4.161   4.893   6.194  0.3181 -0.4336 -0.1014
   57SAPC   H5R 4196   4.149   4.844   6.292 -3.2395  0.5338  0.0829
   57SAPC   C26 4197   4.063   4.884   6.108  0.3749 -0.3084 -0.0864
   57SAPC   H6R 4198   3.970   4.841   6.149  1.6438  0.0998  3.5947
   57SAPC   C27 4199   4.060   4.938   5.968 -0.2564 -0.2676  0.1122
   57SAPC   H7R 4200   4.069   4.849   5.902 -1.8286  0.3110 -0.9302
   57SAPC   H7S 4201   4.146   5.008   5.959 -0.7507  0.3642  0.2036
   57SAPC   C28 4202   3.942   5.017   5.916 -0.3375  0.5613  0.3708
   57SAPC   H8R 4203   3.882   5.051   6.002 -0.3547 -1.9277  1.4359
   57SAPC   C29 4204   3.914   5.044   5.790  0.4987 -0.9947 -0.1227
   57SAPC   H9R 4205   3.828   5.107   5.764  1.6592  0.8159  0.2239
   57SAPC  C210 4206   4.003   4.999   5.673  0.4293 -0.5407 -0.9861
   57SAPC  H10R 4207   4.087   4.935   5.709  0.0568 -0.7758 -0.5188
   57SAPC  H10S 4208   4.047   5.091   5.630  1.0870 -1.0608 -1.4714
   57SAPC  C211 4209   3.925   4.911   5.571 -0.6783 -0.9465  0.1762
   57SAPC  H11R 4210   3.864   4.832   5.617 -1.5863 -0.9615 -1.0093
   57SAPC  C212 4211   3.918   4.923   5.439  0.5660 -0.2168  0.4263
   57SAPC  H12R 4212   3.858   4.845   5.389  0.2832  0.0020  0.4171
   57SAPC  C213 4213   3.999   5.019   5.351 -0.0667  0.1540 -0.0868
   57SAPC  H13R 4214   4.028   5.103   5.417  0.2151 -0.9809  1.2937
   57SAPC  H13S 4215   3.939   5.063   5.269  0.6583 -0.8575 -1.2060
   57SAPC  C214 4216   4.116   4.946   5.283  0.0692  0.3561  0.0922
   57SAPC  H14R 4217   4.196   4.910   5.350 -1.4202 -3.3904  0.1343
   57SAPC  C215 4218   4.141   4.920   5.150  0.0531 -0.5116 -0.4499
   57SAPC  H15R 4219   4.244   4.888   5.129  0.2055 -0.5148  0.2795
   57SAPC  C216 4220   4.047   4.967   5.044  0.7231 -0.1409 -0.2786
   57SAPC  H16R 4221   4.103   5.016   4.962 -1.3192 -0.4396 -1.9489
   57SAPC  H16S 4222   3.962   5.035   5.069  1.8637  1.0615  0.4224
   57SAPC  C217 4223   3.982   4.848   4.961  0.0738  0.3777  0.0393
   57SAPC  H17R 4224   3.873   4.851   4.981 -0.8039  1.6762 -4.0495
   57SAPC  H17S 4225   3.999   4.747   5.005 -2.6165 -0.1552  0.0178
   57SAPC  C218 4226   4.003   4.860   4.808  0.1034  0.1697 -0.1324
   57SAPC  H18R 4227   4.112   4.850   4.790  0.6090  2.6141  1.0396
   57SAPC  H18S 4228   3.979   4.964   4.778 -1.5393 -0.3672 -0.7925
   57SAPC  C219 4229   3.906   4.774   4.722 -0.2505  0.0592  0.2424
   57SAPC  H19R 4230   3.800   4.789   4.752 -0.3780  1.5615 -0.8576
   57SAPC  H19S 4231   3.917   4.663   4.726  0.6593  0.1067 -0.6945
   57SAPC  C220 4232   3.924   4.815   4.575 -0.2094 -0.2754  0.1311
   57SAPC  H20R 4233   3.839   4.777   4.514  2.0039 -1.7182 -2.2511
   57SAPC  H20S 4234   4.025   4.793   4.535  0.4917  0.5510  1.3614
   57SAPC  H20T 4235   3.914   4.925   4.563  1.7628  0.1738  2.0521
   57SAPC   C33 4236   3.959   5.561   6.118  0.0124 -0.1687  0.2177
   57SAPC   H3X 4237   4.031   5.620   6.058 -1.7570  0.0456 -1.8165
   57SAPC   H3Y 4238   3.898   5.620   6.188 -0.1440 -0.1930  0.1022
   57SAPC   C34 4239   3.874   5.510   5.996 -0.0693 -0.0730  0.4698
   57SAPC   H4X 4240   3.816   5.601   5.969 -1.2219 -0.9451 -0.0303
   57SAPC   H4Y 4241   3.800   5.435   6.028  0.1226  0.1028  1.3534
   57SAPC   C35 4242   3.948   5.439   5.872  0.1390 -0.1572  0.3114
   57SAPC   H5X 4243   3.991   5.342   5.904 -1.0829 -0.9517 -0.4245
   57SAPC   H5Y 4244   4.032   5.510   5.853 -0.4682  0.0451 -1.8361
   57SAPC   C36 4245   3.868   5.429   5.742  0.2306  0.2931 -0.1443
   57SAPC   H6X 4246   3.808   5.522   5.743 -1.1077 -0.5294  0.9687
   57SAPC   H6Y 4247   3.797   5.344   5.732  0.3210 -0.1415  2.1960
   57SAPC   C37 4248   3.963   5.403   5.618 -0.0020  0.3054 -0.9368
   57SAPC   H7X 4249   4.003   5.300   5.627  1.0376  0.4933 -2.7732
   57SAPC   H7Y 4250   4.049   5.472   5.630 -0.1460  0.2625  0.4302
   57SAPC   C38 4251   3.892   5.428   5.492 -0.1443  0.2159 -0.1709
   57SAPC   H8X 4252   3.875   5.537   5.479 -1.0391  0.1004 -0.0781
   57SAPC   H8Y 4253   3.792   5.380   5.480  0.5619 -1.5442  0.6065
   57SAPC   C39 4254   3.968   5.397   5.359 -0.2353 -0.3014  0.1947
   57SAPC   H9X 4255   3.994   5.289   5.354 -0.4181 -0.2909 -1.2753
   57SAPC   H9Y 4256   4.061   5.458   5.356 -0.9701  0.8196 -2.2238
   57SAPC  C310 4257   3.894   5.433   5.236  0.2165  0.0315 -0.1239
   57SAPC  H10X 4258   3.896   5.544   5.225  0.9676  0.3074  2.1697
   57SAPC  H10Y 4259   3.788   5.400   5.241  0.5778 -1.0396  1.1229
   57SAPC  C311 4260   3.949   5.363   5.112 -0.3142  0.5831  0.5323
   57SAPC  H11X 4261   3.931   5.255   5.130 -0.2126  0.6691  1.1840
   57SAPC  H11Y 4262   4.059   5.376   5.121  0.0113 -2.2664  1.9293
   57SAPC  C312 4263   3.914   5.409   4.967  0.5516 -0.0158 -0.7153
   57SAPC  H12X 4264   3.933   5.517   4.984  1.2074 -0.2181 -0.0807
   57SAPC  H12Y 4265   3.806   5.393   4.947  0.5398  0.1205 -0.7603
   57SAPC  C313 4266   4.009   5.348   4.864  1.1133  0.1791 -0.5286
   57SAPC  H13X 4267   4.031   5.242   4.892 -0.7458 -0.1271 -0.1058
   57SAPC  H13Y 4268   4.100   5.411   4.869  0.7889  0.5865  0.6991
   57SAPC  C314 4269   3.949   5.349   4.726  0.0876 -0.7142  0.2732
   57SAPC  H14X 4270   3.913   5.454   4.718  0.0637 -0.5498  2.0740
   57SAPC  H14Y 4271   3.868   5.274   4.715 -2.2151  1.8282 -1.7195
   57SAPC  C315 4272   4.061   5.323   4.620  0.0403 -0.3700 -0.2516
   57SAPC  H15X 4273   4.141   5.399   4.629  0.6137 -0.8108 -1.3676
   57SAPC  H15Y 4274   4.011   5.339   4.522 -2.5968  0.0799  1.0538
   57SAPC  C316 4275   4.119   5.176   4.614  0.6675  0.4722  0.1814
   57SAPC  H16X 4276   4.032   5.110   4.595 -0.2705  1.6414  0.2977
   57SAPC  H16Y 4277   4.161   5.150   4.714 -0.0550  2.2795  1.0097
   57SAPC  C317 4278   4.230   5.157   4.507 -0.4261 -0.2515  0.0779
   57SAPC  H17X 4279   4.266   5.052   4.511 -1.4561 -0.6358 -0.5461
   57SAPC  H17Y 4280   4.317   5.222   4.533  0.2480 -0.8390 -0.6561
   57SAPC  C318 4281   4.197   5.187   4.362 -0.2822  0.1747  0.0923
   57SAPC  H18X 4282   4.282   5.161   4.296 -0.5360  1.1331 -0.6282
   57SAPC  H18Y 4283   4.174   5.295   4.350  2.5308  0.9160  0.6742
   57SAPC  H18Z 4284   4.108   5.131   4.326 -0.7805  0.9041  0.1618
   58SAPC     N 4285   0.248   4.195   7.155  0.4223 -0.2904  0.5000
   58SAPC   C12 4286   0.367   4.126   7.085  0.3522 -0.4757 -0.0743
   58SAPC  H12A 4287   0.327   4.100   6.988  1.5023  2.0420 -1.3006
   58SAPC  H12B 4288   0.405   4.040   7.139  0.1127  0.9805  2.6038
   58SAPC   C13 4289   0.118   4.115   7.152  0.7792 -0.3883  0.3299
   58SAPC  H13A 4290   0.043   4.148   7.222  0.2559  1.8428 -1.1703
   58SAPC  H13B 4291   0.067   4.120   7.057 -1.2797 -2.4363  1.2487
   58SAPC  H13C 4292   0.132   4.010   7.170  0.6710 -0.2635  1.1408
   58SAPC   C14 4293   0.294   4.218   7.296 -0.2069 -0.7194  0.1702
   58SAPC  H14A 4294   0.224   4.287   7.340 -0.9924  0.5385 -2.7447
   58SAPC  H14B 4295   0.315   4.128   7.352  1.7195 -0.6624 -0.3865
   58SAPC  H14C 4296   0.390   4.267   7.293 -1.1478  1.7973  4.3482
   58SAPC   C15 4297   0.229   4.335   7.101  0.6606  0.3630 -0.3288
   58SAPC  H15A 4298   0.143   4.390   7.138  1.2831  1.5746 -0.6570
   58SAPC  H15B 4299   0.306   4.408   7.118  0.5903  0.6841 -1.3059
   58SAPC  H15C 4300   0.213   4.329   6.994 -1.2630  1.0719 -0.1310
   58SAPC   C11 4301   0.492   4.215   7.040 -0.1095  0.1079 -0.0558
   58SAPC  H11A 4302   0.467   4.288   6.960  2.0462  1.3971  0.3780
   58SAPC  H11B 4303   0.563   4.142   6.997 -1.2005 -0.5103 -0.8599
   58SAPC     P 4304   0.647   4.393   7.147 -0.0173  0.0605  0.2204
   58SAPC   O13 4305   0.640   4.467   7.269 -0.3209 -0.0579  0.0866
   58SAPC   O14 4306   0.779   4.335   7.105  0.1396  0.5527 -0.1552
   58SAPC   O12 4307   0.546   4.272   7.157 -0.2138 -0.5521 -0.1406
   58SAPC   O11 4308   0.589   4.481   7.029  0.7556 -0.4715 -0.0778
   58SAPC    C1 4309   0.691   4.541   6.948  0.2376 -0.8245 -0.6043
   58SAPC    HA 4310   0.700   4.645   6.984  0.0878 -1.0758  0.1616
   58SAPC    HB 4311   0.791   4.494   6.955  0.4930 -0.0458  2.4627
   58SAPC    C2 4312   0.648   4.547   6.799  0.4271  0.2197 -0.2655
   58SAPC    HS 4313   0.562   4.617   6.795  0.9232  0.8151 -3.4948
   58SAPC   O21 4314   0.609   4.414   6.757 -0.2637 -0.0409 -0.0248
   58SAPC   C21 4315   0.524   4.403   6.651 -0.0900 -0.0765  0.8011
   58SAPC   O22 4316   0.466   4.488   6.589  0.4241  0.3053 -0.6050
   58SAPC   C22 4317   0.536   4.256   6.599  0.6071 -0.7068  0.4087
   58SAPC   H2R 4318   0.523   4.195   6.691  0.8642 -0.8597  0.3458
   58SAPC   H2S 4319   0.447   4.243   6.534 -0.1544  1.5681  0.9273
   58SAPC    C3 4320   0.749   4.615   6.702 -0.7442  0.3958 -0.3183
   58SAPC    HX 4321   0.842   4.565   6.669  1.1939  2.5568  1.5146
   58SAPC    HY 4322   0.790   4.702   6.758 -0.3424  0.0281 -0.0415
   58SAPC   O31 4323   0.685   4.672   6.586  0.5197  0.1398 -0.0390
   58SAPC   C31 4324   0.769   4.727   6.491 -0.5481 -1.0613  0.2420
   58SAPC   O32 4325   0.892   4.729   6.503 -0.0806  0.0446  0.1034
   58SAPC   C32 4326   0.683   4.751   6.362 -0.0707 -0.0198  0.1332
   58SAPC   H2X 4327   0.599   4.821   6.383  1.4885  1.4920  1.7134
   58SAPC   H2Y 4328   0.631   4.657   6.334  1.2258 -0.6896 -0.1110
   58SAPC   C23 4329   0.660   4.227   6.513 -0.2385  0.3676 -1.0780
   58SAPC   H3R 4330   0.662   4.116   6.512 -0.0025  0.3429  0.2024
   58SAPC   H3S 4331   0.750   4.240   6.577  0.2274 -2.5637 -1.0281
   58SAPC   C24 4332   0.673   4.286   6.375  0.1795 -0.0658  0.1493
   58SAPC   H4R 4333   0.674   4.397   6.384  0.2815 -0.0590  0.0612
   58SAPC   H4S 4334   0.575   4.263   6.326  0.1201  2.9960 -1.4276
   58SAPC   C25 4335   0.796   4.242   6.298  0.2455 -0.0010  0.3832
   58SAPC   H5R 4336   0.832   4.138   6.304  0.8513  0.0028 -2.1672
   58SAPC   C26 4337   0.867   4.322   6.211  0.6731 -0.2316 -1.1694
   58SAPC   H6R 4338   0.952   4.270   6.165 -0.8472 -2.4263 -1.6706
   58SAPC   C27 4339   0.855   4.474   6.188  0.5980  0.2831 -0.7768
   58SAPC   H7R 4340   0.844   4.539   6.278 -0.4027  1.7093 -1.8877
   58SAPC   H7S 4341   0.757   4.485   6.137  0.8363 -0.4607 -1.4225
   58SAPC   C28 4342   0.967   4.529   6.101  0.6919  0.2462  0.1335
   58SAPC   H8R 4343   1.046   4.583   6.156  0.4504  3.2390 -2.1952
   58SAPC   C29 4344   0.977   4.518   5.966 -0.4585  0.3493  0.2936
   58SAPC   H9R 4345   1.061   4.557   5.907 -2.3839  0.8097 -2.3275
   58SAPC  C210 4346   0.875   4.449   5.882 -0.2448  0.1177 -0.3477
   58SAPC  H10R 4347   0.884   4.480   5.776 -1.0720  0.4461 -0.3298
   58SAPC  H10S 4348   0.775   4.486   5.914 -0.1980  1.2391 -1.4340
   58SAPC  C211 4349   0.890   4.295   5.890 -0.1328  0.0685 -0.3077
   58SAPC  H11R 4350   0.808   4.252   5.949 -2.1717  1.6720 -1.7991
   58SAPC  C212 4351   0.965   4.220   5.816  0.3633  0.2497  0.8860
   58SAPC  H12R 4352   0.963   4.111   5.833 -0.6215  0.1112 -0.0138
   58SAPC  C213 4353   1.066   4.266   5.717  0.0123  0.1277 -0.0721
   58SAPC  H13R 4354   1.047   4.373   5.693  0.0286  0.8068  2.6486
   58SAPC  H13S 4355   1.054   4.206   5.625 -3.1750 -1.1421  1.0237
   58SAPC  C214 4356   1.211   4.251   5.763 -0.1087  1.1061  0.5115
   58SAPC  H14R 4357   1.222   4.180   5.846  0.0577  0.3628 -0.1331
   58SAPC  C215 4358   1.320   4.312   5.717 -0.2172  0.1169  0.4498
   58SAPC  H15R 4359   1.410   4.282   5.772  0.6673  3.6736  1.2222
   58SAPC  C216 4360   1.330   4.416   5.610  0.2332  0.1853  0.6038
   58SAPC  H16R 4361   1.436   4.424   5.577  0.1187  1.6499  0.5060
   58SAPC  H16S 4362   1.297   4.515   5.648  1.9944  0.9261  0.3037
   58SAPC  C217 4363   1.253   4.381   5.482 -0.3078 -0.0916 -1.0853
   58SAPC  H17R 4364   1.153   4.426   5.497  0.6632  2.0399 -0.6334
   58SAPC  H17S 4365   1.227   4.275   5.459 -0.4223 -0.0583 -1.1095
   58SAPC  C218 4366   1.310   4.436   5.347  0.2629  0.5371  0.3918
   58SAPC  H18R 4367   1.420   4.418   5.344  0.0137 -1.0107 -2.0288
   58SAPC  H18S 4368   1.290   4.545   5.357 -0.2402  0.5381 -0.5788
   58SAPC  C219 4369   1.241   4.359   5.234 -0.0537  0.2364  0.1320
   58SAPC  H19R 4370   1.138   4.339   5.270  0.6170  0.8020  2.6090
   58SAPC  H19S 4371   1.276   4.254   5.220 -2.4488 -0.5597 -0.3394
   58SAPC  C220 4372   1.231   4.441   5.102 -0.0600 -0.7759 -0.0608
   58SAPC  H20R 4373   1.332   4.455   5.057  0.0866  3.0793  1.1415
   58SAPC  H20S 4374   1.177   4.536   5.116 -2.7170 -1.5653 -3.6175
   58SAPC  H20T 4375   1.173   4.389   5.023 -0.4863  0.5114 -0.6174
   58SAPC   C33 4376   0.779   4.811   6.260 -0.4218 -0.3073 -0.8570
   58SAPC   H3X 4377   0.861   4.739   6.239  0.4828 -0.3600  2.2965
   58SAPC   H3Y 4378   0.836   4.898   6.301 -2.3757  0.5098  0.2294
   58SAPC   C34 4379   0.721   4.858   6.133 -0.6204  0.0252  0.5934
   58SAPC   H4X 4380   0.667   4.954   6.141  0.9077  1.0424 -0.7084
   58SAPC   H4Y 4381   0.647   4.790   6.086  0.4277 -1.3505  0.8743
   58SAPC   C35 4382   0.825   4.895   6.024  0.4902  0.1073  0.2526
   58SAPC   H5X 4383   0.863   4.812   5.959 -0.6926 -2.4074  2.5535
   58SAPC   H5Y 4384   0.915   4.927   6.081  0.1414 -0.6903  1.2725
   58SAPC   C36 4385   0.796   5.024   5.946 -0.1199 -0.0197  0.5964
   58SAPC   H6X 4386   0.896   5.063   5.917 -0.2775 -0.5350 -0.7071
   58SAPC   H6Y 4387   0.754   5.103   6.013  0.8781 -1.0548  2.5357
   58SAPC   C37 4388   0.706   4.986   5.831  0.2720 -0.6273 -0.2701
   58SAPC   H7X 4389   0.599   4.981   5.860 -0.0443  2.0943 -0.7039
   58SAPC   H7Y 4390   0.739   4.884   5.804 -2.2425 -1.6909  0.3438
   58SAPC   C38 4391   0.709   5.087   5.713 -0.6077  0.2511 -0.2104
   58SAPC   H8X 4392   0.685   5.190   5.746  4.4603  1.6500 -0.0642
   58SAPC   H8Y 4393   0.640   5.039   5.640 -0.1485 -1.7878  0.6535
   58SAPC   C39 4394   0.849   5.089   5.646 -0.1966 -0.1031 -0.0672
   58SAPC   H9X 4395   0.888   4.988   5.619  1.7111  0.3425  0.8546
   58SAPC   H9Y 4396   0.929   5.118   5.718  1.2350 -0.4270 -1.4841
   58SAPC  C310 4397   0.862   5.180   5.517  0.3974  0.2302 -1.2224
   58SAPC  H10X 4398   0.963   5.158   5.475  0.4813 -0.5615 -0.6431
   58SAPC  H10Y 4399   0.852   5.287   5.544  3.9107  0.5614 -0.6567
   58SAPC  C311 4400   0.774   5.139   5.392  0.1008 -1.1006 -0.5144
   58SAPC  H11X 4401   0.673   5.185   5.397  1.8396  2.9982  1.9068
   58SAPC  H11Y 4402   0.772   5.028   5.395 -2.1705 -1.1570 -1.8466
   58SAPC  C312 4403   0.837   5.194   5.258 -0.5110 -0.1289 -0.2491
   58SAPC  H12X 4404   0.934   5.141   5.247 -2.0361 -2.5843 -3.4985
   58SAPC  H12Y 4405   0.866   5.299   5.277  0.0936  0.4072 -3.6079
   58SAPC  C313 4406   0.748   5.160   5.138  0.1921 -0.2303 -0.1247
   58SAPC  H13X 4407   0.648   5.210   5.134  1.6900  3.1723  0.9149
   58SAPC  H13Y 4408   0.724   5.053   5.153 -0.0381 -0.2034 -0.2984
   58SAPC  C314 4409   0.816   5.188   5.001 -0.1017 -0.1135 -0.1308
   58SAPC  H14X 4410   0.910   5.132   4.981 -1.2948 -1.6508 -1.9235
   58SAPC  H14Y 4411   0.861   5.287   5.017  0.8674  0.0649 -3.2202
   58SAPC  C315 4412   0.720   5.165   4.878  0.2042 -0.5029  0.0018
   58SAPC  H15X 4413   0.634   5.233   4.891  1.4545  1.2096 -0.3012
   58SAPC  H15Y 4414   0.694   5.057   4.879  0.1600 -0.4976  1.1827
   58SAPC  C316 4415   0.787   5.194   4.741  0.1183  0.2490 -0.8468
   58SAPC  H16X 4416   0.862   5.113   4.727  0.6041  0.2490  1.3450
   58SAPC  H16Y 4417   0.835   5.294   4.734  1.1355 -0.3481 -3.3539
   58SAPC  C317 4418   0.682   5.196   4.627 -0.2593 -0.5675 -0.4383
   58SAPC  H17X 4419   0.618   5.286   4.641  0.1745 -0.0040 -1.8954
   58SAPC  H17Y 4420   0.620   5.106   4.648  1.5350 -1.3131  2.2047
   58SAPC  C318 4421   0.735   5.207   4.484  0.8943  0.8247 -0.4160
   58SAPC  H18X 4422   0.651   5.233   4.416  0.6234  0.6794 -0.1386
   58SAPC  H18Y 4423   0.774   5.111   4.445 -1.2400 -0.1962 -0.2177
   58SAPC  H18Z 4424   0.819   5.279   4.485  1.8843 -0.3006  1.2403
   59SAPC     N 4425   0.087   6.453   7.019 -0.4356  0.3410 -0.2900
   59SAPC   C12 4426   0.049   6.465   6.876 -0.1728 -0.2473 -0.5230
   59SAPC  H12A 4427  -0.050   6.423   6.864 -0.1706  0.0274 -1.6207
   59SAPC  H12B 4428   0.113   6.396   6.822 -1.9526 -1.6707 -0.9286
   59SAPC   C13 4429  -0.001   6.534   7.107  0.1867 -0.4391 -0.3993
   59SAPC  H13A 4430  -0.020   6.628   7.057  2.0081  0.1002 -0.1557
   59SAPC  H13B 4431  -0.091   6.479   7.130  0.0477 -0.7459 -1.5780
   59SAPC  H13C 4432   0.039   6.576   7.198 -1.1765 -0.0283  0.0293
   59SAPC   C14 4433   0.085   6.315   7.071  0.3436  0.4698  0.8518
   59SAPC  H14A 4434   0.157   6.260   7.011 -0.0420  0.2073  0.6267
   59SAPC  H14B 4435   0.122   6.313   7.173 -0.2545  0.0281  1.0616
   59SAPC  H14C 4436  -0.004   6.255   7.063 -0.0918  0.3676  4.6691
   59SAPC   C15 4437   0.229   6.504   7.019 -0.4884  0.2266  0.1605
   59SAPC  H15A 4438   0.228   6.605   6.982 -0.9480  0.9460  2.0276
   59SAPC  H15B 4439   0.277   6.501   7.116 -1.0839  0.6107  0.4679
   59SAPC  H15C 4440   0.288   6.442   6.954 -2.4939 -1.9060  0.2366
   59SAPC   C11 4441   0.057   6.606   6.812 -1.2313  0.7146  0.1260
   59SAPC  H11A 4442   0.045   6.600   6.701 -1.6171 -1.9846  0.2426
   59SAPC  H11B 4443   0.156   6.656   6.821 -0.2407  0.2200 -4.9385
   59SAPC     P 4444  -0.202   6.660   6.833  0.4005 -0.0393  0.3134
   59SAPC   O13 4445  -0.220   6.516   6.828  0.0805  0.5493  0.4705
   59SAPC   O14 4446  -0.282   6.743   6.928  0.6753  0.3224 -0.3158
   59SAPC   O12 4447  -0.051   6.692   6.856 -0.4537 -0.0300  0.0746
   59SAPC   O11 4448  -0.227   6.708   6.685  0.6159 -0.1035  0.1527
   59SAPC    C1 4449  -0.202   6.846   6.652  0.3348  0.2258  0.2888
   59SAPC    HA 4450  -0.155   6.905   6.733 -0.9011  1.9510 -0.2083
   59SAPC    HB 4451  -0.142   6.855   6.559  0.5810 -2.5362  0.0840
   59SAPC    C2 4452  -0.334   6.920   6.620 -0.4564 -0.4265 -0.6290
   59SAPC    HS 4453  -0.397   6.866   6.695  0.2905  1.7013  1.6800
   59SAPC   O21 4454  -0.370   6.889   6.483 -0.0821 -0.0526 -0.1537
   59SAPC   C21 4455  -0.500   6.899   6.455 -0.1689  0.2508 -0.0898
   59SAPC   O22 4456  -0.588   6.922   6.537  0.0970  0.4263  0.1304
   59SAPC   C22 4457  -0.516   6.850   6.315 -0.3056 -0.0785 -0.0494
   59SAPC   H2R 4458  -0.444   6.890   6.241  1.8243  0.8232  2.3629
   59SAPC   H2S 4459  -0.502   6.740   6.321 -0.5764 -0.1068  0.1057
   59SAPC    C3 4460  -0.318   7.069   6.648  0.2611 -0.6041 -0.7689
   59SAPC    HX 4461  -0.280   7.089   6.750  0.7623  1.4104 -1.3037
   59SAPC    HY 4462  -0.419   7.115   6.641  1.0500  0.9367 -3.3525
   59SAPC   O31 4463  -0.223   7.122   6.556 -0.0328 -0.1359  0.2240
   59SAPC   C31 4464  -0.279   7.200   6.461  0.2306  0.3562 -0.3487
   59SAPC   O32 4465  -0.399   7.217   6.448 -0.0651  0.2950  0.4423
   59SAPC   C32 4466  -0.170   7.252   6.368 -0.0814 -0.3351  0.5842
   59SAPC   H2X 4467  -0.083   7.291   6.427  0.7833 -1.5767  0.1676
   59SAPC   H2Y 4468  -0.223   7.332   6.314  2.3704  0.3797 -0.9356
   59SAPC   C23 4469  -0.657   6.863   6.255  0.1179  0.4134  0.4251
   59SAPC   H3R 4470  -0.682   6.971   6.251  2.6259  1.0209 -0.4039
   59SAPC   H3S 4471  -0.721   6.803   6.324 -1.2790  0.7326 -0.5486
   59SAPC   C24 4472  -0.672   6.811   6.117 -0.0341  0.2582 -0.1911
   59SAPC   H4R 4473  -0.654   6.702   6.131 -0.3502  0.4224  1.7499
   59SAPC   H4S 4474  -0.590   6.854   6.055  0.2199  0.6370  0.4008
   59SAPC   C25 4475  -0.796   6.836   6.040  0.1279  0.6600  0.1558
   59SAPC   H5R 4476  -0.879   6.889   6.089 -0.4778  0.1322 -0.2809
   59SAPC   C26 4477  -0.829   6.773   5.921 -0.3743  0.0130 -1.1426
   59SAPC   H6R 4478  -0.923   6.790   5.867 -1.1392 -3.9062 -1.3825
   59SAPC   C27 4479  -0.743   6.680   5.836  0.0993 -1.0040 -0.1140
   59SAPC   H7R 4480  -0.645   6.730   5.819  0.4986 -1.3797  0.9677
   59SAPC   H7S 4481  -0.778   6.662   5.732  0.3488 -2.6053  0.0513
   59SAPC   C28 4482  -0.707   6.548   5.905 -0.3569 -0.1391  0.2220
   59SAPC   H8R 4483  -0.661   6.564   6.003  0.4696 -0.7524 -0.0482
   59SAPC   C29 4484  -0.744   6.423   5.870 -0.5556  0.3831 -0.0550
   59SAPC   H9R 4485  -0.703   6.345   5.936  0.9118  3.0735  2.4367
   59SAPC  C210 4486  -0.811   6.376   5.746  0.0988  0.2595  0.1159
   59SAPC  H10R 4487  -0.880   6.456   5.710  1.0366 -0.0125 -2.5139
   59SAPC  H10S 4488  -0.876   6.289   5.769 -0.3570  0.9512  1.5629
   59SAPC  C211 4489  -0.711   6.335   5.639 -0.7315 -0.6580  0.5716
   59SAPC  H11R 4490  -0.641   6.252   5.657  0.2322 -0.1606 -0.7287
   59SAPC  C212 4491  -0.710   6.373   5.509  0.0054 -0.1119  0.5138
   59SAPC  H12R 4492  -0.621   6.344   5.452 -1.0058  0.3647 -1.3910
   59SAPC  C213 4493  -0.793   6.459   5.416  0.1509  0.4216  0.4790
   59SAPC  H13R 4494  -0.860   6.525   5.475  1.5150  0.3243  2.2109
   59SAPC  H13S 4495  -0.868   6.400   5.358 -0.1605  0.7424  0.5523
   59SAPC  C214 4496  -0.714   6.544   5.324 -0.1416 -0.5988 -0.1761
   59SAPC  H14R 4497  -0.640   6.610   5.371 -0.9636  0.8444 -0.8417
   59SAPC  C215 4498  -0.719   6.543   5.189  0.2227 -0.3275 -0.3464
   59SAPC  H15R 4499  -0.657   6.617   5.136 -0.3401 -1.2082 -2.3227
   59SAPC  C216 4500  -0.801   6.455   5.097  0.0480  0.1068 -0.3591
   59SAPC  H16R 4501  -0.853   6.368   5.143  1.1066 -0.8414 -0.9196
   59SAPC  H16S 4502  -0.740   6.411   5.016  0.0511  1.0143 -0.8604
   59SAPC  C217 4503  -0.916   6.543   5.033 -0.1709 -0.0727 -0.2463
   59SAPC  H17R 4504  -0.973   6.584   5.119 -0.3168 -0.5985 -0.0885
   59SAPC  H17S 4505  -0.989   6.483   4.974 -1.1912  0.7355  0.1612
   59SAPC  C218 4506  -0.855   6.647   4.950 -0.4474  0.6484 -0.0457
   59SAPC  H18R 4507  -0.795   6.608   4.865 -1.6703  1.0360 -1.1201
   59SAPC  H18S 4508  -0.775   6.711   4.995 -0.5618  1.9997 -1.6795
   59SAPC  C219 4509  -0.951   6.751   4.900 -0.5186 -0.3089  0.4724
   59SAPC  H19R 4510  -0.966   6.834   4.972 -1.5448  0.3827 -0.4909
   59SAPC  H19S 4511  -1.054   6.713   4.883 -0.2253 -0.7516 -0.3906
   59SAPC  C220 4512  -0.918   6.826   4.769 -0.5375  0.3044  0.3712
   59SAPC  H20R 4513  -0.971   6.923   4.754  0.5279  0.5157 -2.9511
   59SAPC  H20S 4514  -0.949   6.761   4.685  2.1721  3.1013 -3.2038
   59SAPC  H20T 4515  -0.811   6.858   4.764 -0.0214 -1.3420  0.3506
   59SAPC   C33 4516  -0.120   7.141   6.278  0.1469 -0.4061  0.2861
   59SAPC   H3X 4517  -0.195   7.070   6.237  1.9396 -1.2645 -1.7021
   59SAPC   H3Y 4518  -0.043   7.076   6.326  1.4035  1.3854  0.7886
   59SAPC   C34 4519  -0.050   7.194   6.152 -0.6960  0.1477  0.5074
   59SAPC   H4X 4520   0.031   7.266   6.179  0.8144 -0.9454 -0.8702
   59SAPC   H4Y 4521  -0.120   7.262   6.099 -1.5708 -2.3500 -1.7809
   59SAPC   C35 4522   0.012   7.083   6.061 -0.3588  0.3336  0.0392
   59SAPC   H5X 4523  -0.065   7.007   6.035  0.6589 -0.1116 -1.8652
   59SAPC   H5Y 4524   0.095   7.040   6.120  0.4356  1.1731 -0.4413
   59SAPC   C36 4525   0.058   7.126   5.918  0.5717  0.0759  0.8435
   59SAPC   H6X 4526   0.097   7.035   5.867  2.2243  1.5370 -0.6380
   59SAPC   H6Y 4527   0.144   7.196   5.921  2.4156 -2.0780  0.3628
   59SAPC   C37 4528  -0.061   7.184   5.832 -0.2210  0.1819  0.5440
   59SAPC   H7X 4529  -0.084   7.283   5.876 -0.1238  0.3898  0.1271
   59SAPC   H7Y 4530  -0.148   7.116   5.845 -1.3900  1.4201 -0.5955
   59SAPC   C38 4531  -0.010   7.207   5.684 -0.1728 -0.0681  0.5283
   59SAPC   H8X 4532   0.069   7.138   5.650 -0.0356  0.6418 -0.6501
   59SAPC   H8Y 4533   0.039   7.305   5.669 -1.2299  0.4409  0.2702
   59SAPC   C39 4534  -0.122   7.199   5.590 -0.3593  0.3479 -0.2860
   59SAPC   H9X 4535  -0.214   7.245   5.633 -0.4761  1.0252 -1.2384
   59SAPC   H9Y 4536  -0.140   7.091   5.570  1.5978 -0.0639  0.0084
   59SAPC  C310 4537  -0.096   7.271   5.459 -0.1318  0.5570  0.2704
   59SAPC  H10X 4538  -0.013   7.211   5.416 -1.8438 -2.8054  1.3163
   59SAPC  H10Y 4539  -0.048   7.370   5.476  1.0710 -0.2687  2.0024
   59SAPC  C311 4540  -0.214   7.288   5.370 -0.4118 -0.1761 -0.1068
   59SAPC  H11X 4541  -0.287   7.355   5.420  0.3589 -0.2179  1.1031
   59SAPC  H11Y 4542  -0.265   7.190   5.367  1.1157 -0.9730 -1.4795
   59SAPC  C312 4543  -0.190   7.330   5.220 -0.3160 -0.2796  0.1921
   59SAPC  H12X 4544  -0.131   7.252   5.167  0.6447 -0.5248  1.5624
   59SAPC  H12Y 4545  -0.137   7.428   5.212 -0.8640 -0.0762 -1.0830
   59SAPC  C313 4546  -0.321   7.338   5.143  0.8143  0.5743  0.0839
   59SAPC  H13X 4547  -0.396   7.402   5.194 -2.2579  0.1440 -3.4765
   59SAPC  H13Y 4548  -0.356   7.236   5.172  0.4765  1.1428  1.7588
   59SAPC  C314 4549  -0.310   7.359   4.987 -0.7482  0.6881  0.0454
   59SAPC  H14X 4550  -0.412   7.343   4.946 -0.6241  0.9471 -0.3694
   59SAPC  H14Y 4551  -0.237   7.291   4.938 -0.3252  2.3015 -1.7066
   59SAPC  C315 4552  -0.294   7.507   4.954  0.7084  0.5879 -0.1097
   59SAPC  H15X 4553  -0.198   7.544   4.994 -0.1766  3.6647 -0.5741
   59SAPC  H15Y 4554  -0.380   7.554   5.005  1.8827  0.2889  2.2692
   59SAPC  C316 4555  -0.286   7.521   4.799 -0.3720  0.2352 -0.4139
   59SAPC  H16X 4556  -0.292   7.629   4.775 -0.2777  1.1315  3.0099
   59SAPC  H16Y 4557  -0.380   7.470   4.770  0.7535 -1.6994 -0.8481
   59SAPC  C317 4558  -0.164   7.456   4.724 -0.3467  0.1703  0.4178
   59SAPC  H17X 4559  -0.119   7.384   4.797 -0.5158  2.1969  2.6533
   59SAPC  H17Y 4560  -0.084   7.533   4.722 -0.0751 -0.1220 -0.0961
   59SAPC  C318 4561  -0.205   7.397   4.581 -0.5751 -0.3871 -0.3407
   59SAPC  H18X 4562  -0.272   7.309   4.593 -1.1596  0.1838  0.7006
   59SAPC  H18Y 4563  -0.118   7.347   4.533 -0.6884  1.5181 -2.6778
   59SAPC  H18Z 4564  -0.249   7.479   4.520  0.5433  1.8929  1.7551
   60SAPC     N 4565   5.837   2.108   6.501 -0.4273 -0.1101 -0.4600
   60SAPC   C12 4566   5.814   1.957   6.520 -0.1390 -0.3378 -0.4764
   60SAPC  H12A 4567   5.716   1.914   6.503 -0.3058  0.0303 -0.4386
   60SAPC  H12B 4568   5.848   1.927   6.618 -0.6200  1.2963  0.2144
   60SAPC   C13 4569   5.772   2.173   6.624 -0.1867  0.5247 -0.2577
   60SAPC  H13A 4570   5.834   2.150   6.710 -0.2225 -1.3054 -0.6609
   60SAPC  H13B 4571   5.747   2.277   6.625 -0.5668  0.4989 -2.2256
   60SAPC  H13C 4572   5.681   2.122   6.651  1.1706 -0.6655  2.6073
   60SAPC   C14 4573   5.983   2.143   6.504  0.3365  0.2356  0.1659
   60SAPC  H14A 4574   6.045   2.083   6.438 -1.1856 -0.5385 -0.6153
   60SAPC  H14B 4575   5.997   2.247   6.479  5.1834  0.6967  3.5383
   60SAPC  H14C 4576   6.030   2.132   6.601 -1.3915 -0.5090  0.9499
   60SAPC   C15 4577   5.777   2.153   6.375 -0.2783 -0.2208  0.6956
   60SAPC  H15A 4578   5.672   2.126   6.377 -0.2443 -0.4125  0.1320
   60SAPC  H15B 4579   5.777   2.260   6.362  1.4860 -0.4586 -2.2314
   60SAPC  H15C 4580   5.827   2.104   6.292 -0.0985  1.5923 -0.3186
   60SAPC   C11 4581   5.896   1.863   6.421  0.4380  0.5240 -0.3301
   60SAPC  H11A 4582   5.886   1.912   6.322  3.6296  3.1104  0.4584
   60SAPC  H11B 4583   5.865   1.756   6.422  2.8210 -0.2393 -0.8936
   60SAPC     P 4584   6.106   1.760   6.530 -0.2412  0.0372  0.1386
   60SAPC   O13 4585   6.227   1.827   6.591  0.5701 -0.5124 -0.2226
   60SAPC   O14 4586   6.007   1.702   6.621 -0.1997  0.5546 -0.0774
   60SAPC   O12 4587   6.034   1.874   6.448 -0.3817  0.7479  0.0023
   60SAPC   O11 4588   6.152   1.661   6.418  0.3493  0.2395 -0.0737
   60SAPC    C1 4589   6.254   1.695   6.327  0.6701  0.3046  0.1184
   60SAPC    HA 4590   6.321   1.773   6.368 -0.3680  0.5350  1.4508
   60SAPC    HB 4591   6.320   1.608   6.309  0.2318  0.2217 -1.1873
   60SAPC    C2 4592   6.183   1.738   6.193 -0.3343  0.2185 -0.1914
   60SAPC    HS 4593   6.103   1.808   6.224 -1.0475 -0.6588 -0.0061
   60SAPC   O21 4594   6.118   1.632   6.120 -0.3561  0.0553 -0.2945
   60SAPC   C21 4595   6.007   1.667   6.056 -0.0774 -0.0315  0.0135
   60SAPC   O22 4596   5.938   1.762   6.087  0.0405  0.2367 -0.1691
   60SAPC   C22 4597   5.970   1.552   5.967  0.0891 -0.3089  0.5296
   60SAPC   H2R 4598   6.061   1.499   5.931 -0.1811  0.1358 -0.8737
   60SAPC   H2S 4599   5.906   1.480   6.021  0.0376  0.2340  1.2046
   60SAPC    C3 4600   6.282   1.809   6.105  0.0219  0.1666 -0.1550
   60SAPC    HX 4601   6.367   1.737   6.111 -2.6045 -3.0842  2.6779
   60SAPC    HY 4602   6.315   1.905   6.150  0.0784  0.0864 -0.0237
   60SAPC   O31 4603   6.245   1.828   5.963 -0.8573 -0.3401 -0.2495
   60SAPC   C31 4604   6.186   1.946   5.936  0.0503 -0.1809  0.3978
   60SAPC   O32 4605   6.149   2.025   6.026 -0.0661  0.2441  0.1323
   60SAPC   C32 4606   6.169   1.967   5.785  0.7942 -0.3783  0.2259
   60SAPC   H2X 4607   6.146   1.877   5.725  0.7204 -0.0953 -0.1702
   60SAPC   H2Y 4608   6.257   2.021   5.744  1.9307 -1.4142  1.2092
   60SAPC   C23 4609   5.901   1.617   5.843  0.3219 -0.2092  0.9343
   60SAPC   H3R 4610   5.974   1.673   5.780  0.5722 -0.5515  0.9154
   60SAPC   H3S 4611   5.834   1.701   5.872  0.9874  0.2647  1.1568
   60SAPC   C24 4612   5.834   1.519   5.748  0.1221 -0.1468  0.2529
   60SAPC   H4R 4613   5.771   1.572   5.673 -0.5043  0.2191  1.0130
   60SAPC   H4S 4614   5.755   1.470   5.809 -0.0411  0.6260  0.6847
   60SAPC   C25 4615   5.925   1.424   5.681 -0.7500  0.2138 -0.4758
   60SAPC   H5R 4616   6.008   1.395   5.747  0.2098 -0.1081 -1.7848
   60SAPC   C26 4617   5.928   1.393   5.547  0.2637 -0.6143 -0.0687
   60SAPC   H6R 4618   6.008   1.325   5.513 -1.9107 -2.2601 -2.1887
   60SAPC   C27 4619   5.820   1.430   5.447  0.1612  0.0144 -0.5948
   60SAPC   H7R 4620   5.832   1.538   5.426 -0.3667  0.2532  0.3156
   60SAPC   H7S 4621   5.718   1.419   5.487  0.2191 -0.2833 -0.5250
   60SAPC   C28 4622   5.818   1.353   5.322 -0.8599  0.4426  0.3686
   60SAPC   H8R 4623   5.883   1.264   5.323 -0.4918  0.7004  1.9511
   60SAPC   C29 4624   5.758   1.391   5.213 -0.2424  0.5003  0.1229
   60SAPC   H9R 4625   5.776   1.336   5.119 -0.8661  2.6647 -1.3663
   60SAPC  C210 4626   5.681   1.522   5.200  0.1519 -0.0897  0.4965
   60SAPC  H10R 4627   5.750   1.606   5.222  0.3524  0.1099 -0.8019
   60SAPC  H10S 4628   5.593   1.510   5.267 -0.0546 -2.3103 -0.0942
   60SAPC  C211 4629   5.644   1.562   5.054 -0.0801  0.4906 -0.1602
   60SAPC  H11R 4630   5.725   1.614   5.000  0.2535 -1.4895 -1.6508
   60SAPC  C212 4631   5.527   1.540   4.991  0.2389  0.5606  0.3760
   60SAPC  H12R 4632   5.508   1.572   4.888  0.7966 -1.7319 -0.5119
   60SAPC  C213 4633   5.410   1.465   5.048  0.9167 -0.0923 -0.0061
   60SAPC  H13R 4634   5.320   1.510   5.000  1.3999  0.2004 -0.6465
   60SAPC  H13S 4635   5.399   1.468   5.158  4.0227 -1.8552  0.4671
   60SAPC  C214 4636   5.425   1.322   4.998  0.4752  0.2765 -0.4246
   60SAPC  H14R 4637   5.434   1.254   5.084 -1.9040  2.0557  1.3834
   60SAPC  C215 4638   5.401   1.279   4.870 -0.1834 -1.0893 -0.6894
   60SAPC  H15R 4639   5.411   1.170   4.852  0.1497 -1.2836  0.5571
   60SAPC  C216 4640   5.385   1.350   4.741 -0.1684  0.2435  0.0707
   60SAPC  H16R 4641   5.371   1.458   4.759  1.5966  0.1639  2.4966
   60SAPC  H16S 4642   5.319   1.293   4.673 -0.4733  1.0409 -0.3081
   60SAPC  C217 4643   5.525   1.337   4.669 -0.2295 -0.2466  0.7208
   60SAPC  H17R 4644   5.535   1.227   4.655 -1.5461 -0.1498 -1.5041
   60SAPC  H17S 4645   5.608   1.375   4.732 -0.5352 -0.5792  1.3335
   60SAPC  C218 4646   5.532   1.419   4.533  0.3683  0.1775  0.0972
   60SAPC  H18R 4647   5.509   1.524   4.558 -0.4366  0.0176  0.0639
   60SAPC  H18S 4648   5.459   1.376   4.461  1.5845  0.0941 -1.1253
   60SAPC  C219 4649   5.671   1.412   4.460  0.0930  0.5031 -0.3059
   60SAPC  H19R 4650   5.646   1.443   4.357 -1.0084  0.9545  0.0892
   60SAPC  H19S 4651   5.710   1.308   4.461  2.1068  1.1579 -2.4847
   60SAPC  C220 4652   5.786   1.500   4.519  0.3454 -0.5094 -0.2142
   60SAPC  H20R 4653   5.867   1.512   4.444  1.0204 -0.1669  0.5544
   60SAPC  H20S 4654   5.816   1.450   4.614 -2.1578 -0.4620  0.6879
   60SAPC  H20T 4655   5.739   1.598   4.541 -2.5175 -2.2229  2.1380
   60SAPC   C33 4656   6.049   2.067   5.767  0.0059 -0.3053 -0.5050
   60SAPC   H3X 4657   6.069   2.173   5.797 -3.3319  0.4212 -0.4960
   60SAPC   H3Y 4658   5.957   2.040   5.822  0.0304  0.7887  0.1147
   60SAPC   C34 4659   6.002   2.084   5.619  0.1226  0.2997  0.2579
   60SAPC   H4X 4660   6.086   2.114   5.554  0.8008  0.8147  1.3303
   60SAPC   H4Y 4661   5.923   2.162   5.621 -0.5477 -0.3749  0.8675
   60SAPC   C35 4662   5.941   1.954   5.565  0.0230  0.4626  0.2118
   60SAPC   H5X 4663   5.879   1.899   5.638  2.2050 -1.9728  0.3811
   60SAPC   H5Y 4664   6.022   1.881   5.541 -2.4698 -3.2728  2.2565
   60SAPC   C36 4665   5.855   1.985   5.437 -0.1559 -1.0045 -1.0737
   60SAPC   H6X 4666   5.779   2.062   5.465  1.0423 -0.5173  1.1113
   60SAPC   H6Y 4667   5.800   1.893   5.409 -1.2786 -0.2132 -1.5778
   60SAPC   C37 4668   5.938   2.039   5.315  0.3189 -0.9304  0.4738
   60SAPC   H7X 4669   6.014   1.961   5.295 -0.2281 -1.5205  0.6573
   60SAPC   H7Y 4670   5.991   2.131   5.347 -0.5618  0.5776 -2.1001
   60SAPC   C38 4671   5.849   2.088   5.195  0.3932  0.5503 -0.1476
   60SAPC   H8X 4672   5.907   2.161   5.135  1.0519 -0.5444 -0.8896
   60SAPC   H8Y 4673   5.764   2.136   5.247 -0.2028 -1.9999  1.4057
   60SAPC   C39 4674   5.800   1.974   5.106  0.3028  0.3602  0.0272
   60SAPC   H9X 4675   5.732   1.902   5.157  0.7052 -0.1949 -0.2097
   60SAPC   H9Y 4676   5.884   1.920   5.057  2.3868  1.8002  1.7963
   60SAPC  C310 4677   5.717   2.046   4.995  0.2621 -0.6529  0.3165
   60SAPC  H10X 4678   5.672   2.139   5.034 -0.0001 -1.3113  1.6251
   60SAPC  H10Y 4679   5.631   1.980   4.969 -0.4621  0.7843 -1.0789
   60SAPC  C311 4680   5.803   2.078   4.870 -0.3689 -0.2424 -0.5052
   60SAPC  H11X 4681   5.836   1.979   4.830 -3.0471 -1.7605  0.7174
   60SAPC  H11Y 4682   5.893   2.134   4.902  0.8064 -2.2337 -0.1619
   60SAPC  C312 4683   5.730   2.160   4.765  0.3887  0.1876  0.0821
   60SAPC  H12X 4684   5.693   2.255   4.810 -0.2130  1.3104 -2.6031
   60SAPC  H12Y 4685   5.647   2.102   4.718 -0.3046  2.0995 -1.1718
   60SAPC  C313 4686   5.825   2.211   4.659  0.2409  0.0922  0.2949
   60SAPC  H13X 4687   5.915   2.251   4.710 -0.5290  0.4042  1.4460
   60SAPC  H13Y 4688   5.772   2.296   4.610 -2.5597 -1.4813  0.4045
   60SAPC  C314 4689   5.863   2.108   4.551 -0.5231 -0.4592 -0.2547
   60SAPC  H14X 4690   5.774   2.077   4.491  0.5256  0.2885 -2.2696
   60SAPC  H14Y 4691   5.897   2.020   4.610 -0.4631  0.0414  0.4730
   60SAPC  C315 4692   5.985   2.157   4.472  0.5254 -0.5784  0.0063
   60SAPC  H15X 4693   6.065   2.182   4.545 -0.0857 -0.0722  0.5161
   60SAPC  H15Y 4694   5.958   2.249   4.417 -2.1608  0.0935  2.2151
   60SAPC  C316 4695   6.030   2.058   4.361  0.2319  0.4704 -0.7513
   60SAPC  H16X 4696   6.119   2.094   4.305  2.5169 -1.2919  1.4981
   60SAPC  H16Y 4697   5.951   2.052   4.284 -2.2725 -0.5999  1.7475
   60SAPC  C317 4698   6.056   1.914   4.408  0.3084 -0.1414 -0.1743
   60SAPC  H17X 4699   5.971   1.871   4.466  1.1912 -2.1028 -0.2408
   60SAPC  H17Y 4700   6.140   1.926   4.480  0.6172 -1.3065 -0.3119
   60SAPC  C318 4701   6.071   1.813   4.292 -0.1915 -0.8779 -0.3585
   60SAPC  H18X 4702   5.982   1.801   4.226 -0.1005 -0.9897 -0.4622
   60SAPC  H18Y 4703   6.106   1.719   4.339  0.4925  0.0687  1.0661
   60SAPC  H18Z 4704   6.146   1.852   4.220 -0.7414  0.0391 -0.4510
   61SAPC     N 4705   4.586   6.747   6.822 -2.0155 -0.7739  0.4749
   61SAPC   C12 4706   4.554   6.877   6.748  0.4567 -0.3424  0.1961
   61SAPC  H12A 4707   4.643   6.922   6.707  0.5548 -0.8020 -0.1080
   61SAPC  H12B 4708   4.506   6.942   6.819 -1.0830 -0.7085 -0.4488
   61SAPC   C13 4709   4.668   6.658   6.727  0.9814  0.1449  0.0787
   61SAPC  H13A 4710   4.622   6.637   6.631  0.5701  0.3484  0.2301
   61SAPC  H13B 4711   4.767   6.699   6.711  0.6694  0.7837 -0.2473
   61SAPC  H13C 4712   4.687   6.563   6.774 -1.0766  0.1933  1.1360
   61SAPC   C14 4713   4.671   6.789   6.936 -0.6004  0.1574  0.0062
   61SAPC  H14A 4714   4.758   6.839   6.895 -0.6733  0.1728 -0.1315
   61SAPC  H14B 4715   4.621   6.860   6.999  2.0358  0.4609  1.9283
   61SAPC  H14C 4716   4.721   6.710   6.990  1.0571  1.7865  0.9830
   61SAPC   C15 4717   4.463   6.677   6.871  0.2857 -0.6970  0.5240
   61SAPC  H15A 4718   4.485   6.583   6.918  0.4961  0.1656  2.2232
   61SAPC  H15B 4719   4.418   6.726   6.956 -2.4445 -1.3068 -0.4871
   61SAPC  H15C 4720   4.401   6.653   6.786  1.1557 -1.3087  0.0491
   61SAPC   C11 4721   4.442   6.858   6.639  0.8372 -0.3338 -0.0425
   61SAPC  H11A 4722   4.470   6.764   6.586 -0.6440 -0.5869 -0.4277
   61SAPC  H11B 4723   4.442   6.944   6.569  1.6925  0.8723  1.3971
   61SAPC     P 4724   4.239   6.974   6.756 -0.0678 -0.2367 -0.0432
   61SAPC   O13 4725   4.107   6.943   6.824 -0.6882  0.2909 -0.4255
   61SAPC   O14 4726   4.334   7.054   6.837 -0.1384  0.2199  0.4327
   61SAPC   O12 4727   4.311   6.842   6.699 -0.3523 -0.3004  0.5604
   61SAPC   O11 4728   4.221   7.050   6.624  0.4841  0.1552  0.3064
   61SAPC    C1 4729   4.172   6.978   6.512  0.6033 -0.1582 -0.1212
   61SAPC    HA 4730   4.250   6.909   6.472  2.1206  1.7548 -0.6425
   61SAPC    HB 4731   4.077   6.928   6.538 -0.0763  0.7743 -0.7635
   61SAPC    C2 4732   4.143   7.080   6.396  0.6110  1.3251  0.0648
   61SAPC    HS 4733   4.074   7.035   6.321  1.0011 -1.6265  1.3465
   61SAPC   O21 4734   4.266   7.119   6.335 -0.3194  0.0008  0.2971
   61SAPC   C21 4735   4.300   7.067   6.218  0.0174  0.0110 -0.1874
   61SAPC   O22 4736   4.238   6.976   6.165 -0.4820 -0.0286 -0.4119
   61SAPC   C22 4737   4.423   7.125   6.158  0.0444  0.5271  0.1260
   61SAPC   H2R 4738   4.471   7.196   6.228 -2.8312  0.6027  2.1660
   61SAPC   H2S 4739   4.498   7.044   6.141  0.0612 -0.0437  2.6121
   61SAPC    C3 4740   4.067   7.196   6.447  0.5112 -0.6328  0.5479
   61SAPC    HX 4741   4.117   7.252   6.529 -1.2848  2.3613 -0.2332
   61SAPC    HY 4742   3.967   7.160   6.480  0.4759  0.0325  1.1967
   61SAPC   O31 4743   4.037   7.284   6.337 -0.1335 -0.3824 -0.2028
   61SAPC   C31 4744   4.112   7.390   6.310 -1.0833  0.9769 -0.3733
   61SAPC   O32 4745   4.223   7.408   6.360  0.4980 -0.0427  0.3741
   61SAPC   C32 4746   4.050   7.486   6.211  0.2806  0.0149 -0.2342
   61SAPC   H2X 4747   3.940   7.474   6.200  0.0846  2.5185 -1.4645
   61SAPC   H2Y 4748   4.093   7.463   6.112 -0.8309  1.2098 -1.0170
   61SAPC   C23 4749   4.395   7.222   6.033 -0.1933  0.4229 -0.2417
   61SAPC   H3R 4750   4.312   7.291   6.059 -0.1224  0.7883 -0.9649
   61SAPC   H3S 4751   4.373   7.161   5.942  3.2337  1.6938 -2.0623
   61SAPC   C24 4752   4.525   7.299   5.998  0.2366 -0.2810 -0.6028
   61SAPC   H4R 4753   4.499   7.373   5.919 -1.5147  1.3415  1.3671
   61SAPC   H4S 4754   4.602   7.239   5.945  0.0497  0.0392 -1.2463
   61SAPC   C25 4755   4.584   7.376   6.108 -0.2960 -0.2685  0.3780
   61SAPC   H5R 4756   4.655   7.310   6.161  0.3037 -1.3685 -1.7052
   61SAPC   C26 4757   4.571   7.504   6.138  0.5965 -0.5451 -0.2311
   61SAPC   H6R 4758   4.627   7.546   6.223  1.1644 -1.3771 -0.1746
   61SAPC   C27 4759   4.488   7.610   6.066  0.6896 -0.1289  0.3437
   61SAPC   H7R 4760   4.406   7.643   6.132  0.4053  0.0849 -0.1121
   61SAPC   H7S 4761   4.420   7.575   5.985  0.1591  0.0198  0.7249
   61SAPC   C28 4762   4.576   7.725   6.017  0.0071  0.1736 -0.2645
   61SAPC   H8R 4763   4.605   7.788   6.103 -2.6888 -0.5792  1.3238
   61SAPC   C29 4764   4.625   7.753   5.894  0.2757 -0.2299  0.1585
   61SAPC   H9R 4765   4.707   7.826   5.886 -0.8912  1.2039  0.7845
   61SAPC  C210 4766   4.603   7.659   5.777  0.0326  0.4079  0.1281
   61SAPC  H10R 4767   4.586   7.556   5.816  0.2279 -0.8377 -2.7855
   61SAPC  H10S 4768   4.701   7.643   5.728  0.2216 -0.0764  0.6499
   61SAPC  C211 4769   4.488   7.684   5.682 -0.4135  0.3244 -0.9283
   61SAPC  H11R 4770   4.396   7.636   5.717 -0.4375  0.8603 -0.2382
   61SAPC  C212 4771   4.483   7.756   5.574 -0.1790 -1.4124 -0.4664
   61SAPC  H12R 4772   4.391   7.751   5.515 -0.9712 -1.3093  0.7344
   61SAPC  C213 4773   4.596   7.850   5.524  0.6395  0.3831 -0.0595
   61SAPC  H13R 4774   4.669   7.795   5.460 -0.0435 -0.5410 -0.0664
   61SAPC  H13S 4775   4.665   7.891   5.601  1.2031 -0.5729 -0.0305
   61SAPC  C214 4776   4.543   7.965   5.449 -0.3905 -0.4972  0.2193
   61SAPC  H14R 4777   4.550   8.061   5.501 -2.1654 -0.2840  0.1056
   61SAPC  C215 4778   4.494   7.966   5.324  0.0090 -0.3959 -0.2962
   61SAPC  H15R 4779   4.458   8.062   5.284 -0.4761 -1.1800 -1.8328
   61SAPC  C216 4780   4.470   7.853   5.229 -0.2994 -0.2203  0.0264
   61SAPC  H16R 4781   4.368   7.815   5.250 -0.6054  1.1571  1.1530
   61SAPC  H16S 4782   4.536   7.766   5.251  0.1775  0.6461  2.2902
   61SAPC  C217 4783   4.488   7.915   5.090  0.4099  0.0801  0.1689
   61SAPC  H17R 4784   4.421   8.000   5.066  0.3072  0.3214  1.2833
   61SAPC  H17S 4785   4.453   7.841   5.014  1.4198 -0.0840 -0.1433
   61SAPC  C218 4786   4.623   7.962   5.057  0.1457  0.1949  0.4012
   61SAPC  H18R 4787   4.701   7.884   5.071  0.5840 -0.2057 -3.2608
   61SAPC  H18S 4788   4.645   8.050   5.120  2.8674  0.1131 -0.3108
   61SAPC  C219 4789   4.644   8.002   4.907  0.1196 -0.0109 -0.0692
   61SAPC  H19R 4790   4.650   7.901   4.860  0.1441 -0.9843  1.9208
   61SAPC  H19S 4791   4.749   8.040   4.908 -0.0300  0.4473  2.0878
   61SAPC  C220 4792   4.549   8.094   4.837 -0.8301  0.0047 -0.3811
   61SAPC  H20R 4793   4.546   8.181   4.906  2.7379 -0.1100  0.0840
   61SAPC  H20S 4794   4.454   8.041   4.814 -1.8594  1.4958  0.2353
   61SAPC  H20T 4795   4.592   8.138   4.745  0.0374  1.2013  0.5569
   61SAPC   C33 4796   4.084   7.631   6.238 -0.6402 -0.2641  0.3093
   61SAPC   H3X 4797   4.194   7.644   6.246 -0.5730 -1.8288  3.1677
   61SAPC   H3Y 4798   4.040   7.659   6.336 -0.9488 -0.0306  0.1091
   61SAPC   C34 4799   4.036   7.734   6.131 -0.3066  0.3539 -0.7285
   61SAPC   H4X 4800   4.059   7.835   6.170  2.2045 -0.5809  0.3994
   61SAPC   H4Y 4801   3.926   7.729   6.114 -0.2945 -0.1828 -0.6839
   61SAPC   C35 4802   4.111   7.720   5.999  0.5883 -0.1634  0.2066
   61SAPC   H5X 4803   4.109   7.612   5.972  1.8037 -0.1386 -0.0396
   61SAPC   H5Y 4804   4.214   7.761   5.997  0.6999 -0.4626 -0.5223
   61SAPC   C36 4805   4.037   7.792   5.897  0.9827  0.2776  0.6008
   61SAPC   H6X 4806   4.026   7.900   5.918  0.2733  0.6901 -1.5744
   61SAPC   H6Y 4807   3.933   7.752   5.891  1.2910 -0.4719  0.0142
   61SAPC   C37 4808   4.094   7.771   5.753  0.9627  0.4822 -0.3658
   61SAPC   H7X 4809   4.113   7.663   5.733  0.9488  0.7704 -2.0728
   61SAPC   H7Y 4810   4.193   7.821   5.766  1.7369 -1.0886  0.0512
   61SAPC   C38 4811   4.006   7.828   5.634  0.1770 -0.4172  0.3290
   61SAPC   H8X 4812   3.989   7.936   5.654  1.2786 -0.5361  2.2131
   61SAPC   H8Y 4813   3.905   7.784   5.644 -0.9736  1.9227 -0.4353
   61SAPC   C39 4814   4.066   7.798   5.489  0.2798 -0.0900  0.0530
   61SAPC   H9X 4815   4.076   7.688   5.474 -2.0322 -0.5314  1.2588
   61SAPC   H9Y 4816   4.169   7.838   5.484 -0.3429  1.9082  1.6015
   61SAPC  C310 4817   3.974   7.845   5.373 -0.2042  0.2424  0.4885
   61SAPC  H10X 4818   3.951   7.952   5.389  1.0486  0.4418  1.0197
   61SAPC  H10Y 4819   3.889   7.773   5.371  0.3081 -0.3575 -0.4039
   61SAPC  C311 4820   4.047   7.844   5.240  0.4509  0.0811  0.5313
   61SAPC  H11X 4821   4.073   7.739   5.213 -1.5960 -0.3744  0.0931
   61SAPC  H11Y 4822   4.142   7.899   5.247 -0.6597  2.0000  1.2061
   61SAPC  C312 4823   3.962   7.897   5.121 -0.4568  0.2198 -0.3295
   61SAPC  H12X 4824   3.951   8.004   5.149 -0.4772 -0.0630  0.7740
   61SAPC  H12Y 4825   3.868   7.839   5.115 -0.7163  0.5838  0.1607
   61SAPC  C313 4826   4.042   7.880   4.989 -0.4655 -0.1399 -0.0272
   61SAPC  H13X 4827   4.058   7.771   4.970 -1.0814 -0.2674  0.1796
   61SAPC  H13Y 4828   4.135   7.940   5.004 -0.2851 -0.6108  0.7858
   61SAPC  C314 4829   3.973   7.942   4.871 -0.4661  0.7517  0.3442
   61SAPC  H14X 4830   3.999   8.048   4.851 -3.3989  1.6832  0.9808
   61SAPC  H14Y 4831   3.863   7.945   4.882 -0.4185 -0.4327  1.4379
   61SAPC  C315 4832   4.003   7.860   4.744  0.1715 -0.1996 -0.9339
   61SAPC  H15X 4833   3.920   7.883   4.674  0.8243  0.5056 -1.4954
   61SAPC  H15Y 4834   3.980   7.757   4.777 -3.4567  1.2897  1.9248
   61SAPC  C316 4835   4.135   7.877   4.680 -1.1880  0.4585  1.1391
   61SAPC  H16X 4836   4.225   7.842   4.736  0.3053  0.4006 -1.1548
   61SAPC  H16Y 4837   4.162   7.982   4.658 -2.1298  0.4025 -0.4028
   61SAPC  C317 4838   4.130   7.804   4.542  0.6870 -0.1569  0.6246
   61SAPC  H17X 4839   4.038   7.840   4.491  0.1621  1.4086  2.5673
   61SAPC  H17Y 4840   4.119   7.694   4.548  0.9488 -0.4552 -2.6059
   61SAPC  C318 4841   4.235   7.837   4.439 -0.2795  0.0214 -0.1813
   61SAPC  H18X 4842   4.335   7.806   4.477  0.0613  1.7063  0.3896
   61SAPC  H18Y 4843   4.241   7.946   4.421  1.2197  0.1437  0.8458
   61SAPC  H18Z 4844   4.230   7.767   4.353 -2.4057 -1.7015  1.2368
   62SAPC     N 4845   6.142   6.638   6.710 -0.0232  0.3634 -0.8913
   62SAPC   C12 4846   6.290   6.603   6.736  0.1453 -0.4817  0.2648
   62SAPC  H12A 4847   6.291   6.567   6.838 -0.7377 -0.8514  0.1465
   62SAPC  H12B 4848   6.346   6.694   6.725 -0.1934 -0.2009  0.8222
   62SAPC   C13 4849   6.123   6.705   6.576  0.1042 -0.2593 -0.2633
   62SAPC  H13A 4850   6.179   6.643   6.507 -0.2902 -2.0482  0.9661
   62SAPC  H13B 4851   6.018   6.709   6.552  0.4500 -1.8271 -2.3136
   62SAPC  H13C 4852   6.157   6.807   6.583  2.7683 -1.1270  0.4215
   62SAPC   C14 4853   6.052   6.518   6.726  0.7074  0.2569 -0.7076
   62SAPC  H14A 4854   6.040   6.502   6.832 -0.8465  1.6437 -0.6247
   62SAPC  H14B 4855   5.951   6.533   6.689  0.8483 -0.7671 -1.5505
   62SAPC  H14C 4856   6.093   6.430   6.678  0.9789  0.7156 -1.3252
   62SAPC   C15 4857   6.101   6.734   6.817 -0.1541 -0.2065  0.3342
   62SAPC  H15A 4858   6.124   6.706   6.918 -1.5817  1.6141  1.2220
   62SAPC  H15B 4859   6.147   6.830   6.801 -1.0335  0.3004  0.7385
   62SAPC  H15C 4860   5.996   6.750   6.798  0.3483  0.9747 -1.7769
   62SAPC   C11 4861   6.349   6.495   6.638  0.2902  0.1470 -0.0289
   62SAPC  H11A 4862   6.455   6.480   6.670  0.6661  1.5786 -0.5429
   62SAPC  H11B 4863   6.342   6.549   6.542  0.3522 -1.0246 -0.7105
   62SAPC     P 4864   6.342   6.260   6.530 -0.2496 -0.0351  0.0326
   62SAPC   O13 4865   6.488   6.285   6.501  0.2963  0.4970  0.0078
   62SAPC   O14 4866   6.305   6.124   6.573 -0.0107 -0.6969 -0.1861
   62SAPC   O12 4867   6.283   6.365   6.638  0.2105 -0.0577 -0.4893
   62SAPC   O11 4868   6.259   6.285   6.398  0.2432  0.3112 -0.0955
   62SAPC    C1 4869   6.113   6.303   6.416 -1.0902  0.1880 -0.7902
   62SAPC    HA 4870   6.065   6.230   6.484 -0.1928  1.3876  1.2115
   62SAPC    HB 4871   6.096   6.402   6.463 -2.5649 -0.5566  0.2916
   62SAPC    C2 4872   6.036   6.289   6.283  0.5718  0.9535 -0.1412
   62SAPC    HS 4873   5.929   6.288   6.311 -0.0297 -2.2005 -2.0747
   62SAPC   O21 4874   6.061   6.161   6.225 -0.2796  0.1671 -0.6967
   62SAPC   C21 4875   5.980   6.108   6.134  0.4670 -0.4764 -0.0950
   62SAPC   O22 4876   5.866   6.143   6.113  0.3747  0.0071  0.3979
   62SAPC   C22 4877   6.056   6.004   6.050 -0.8005  0.3213 -0.6953
   62SAPC   H2R 4878   6.101   5.933   6.123 -0.5556 -0.7785 -1.8623
   62SAPC   H2S 4879   5.987   5.941   5.989 -0.5875 -1.9237  1.2285
   62SAPC    C3 4880   6.049   6.407   6.192 -0.1973  0.6807  0.7572
   62SAPC    HX 4881   6.156   6.391   6.164 -0.5703  0.7337 -0.7770
   62SAPC    HY 4882   6.036   6.502   6.248 -1.8749  1.0990 -0.2896
   62SAPC   O31 4883   5.967   6.399   6.071 -0.3220 -0.5425  0.5808
   62SAPC   C31 4884   5.838   6.440   6.092 -0.0907  0.2337  0.0074
   62SAPC   O32 4885   5.797   6.487   6.195 -0.1867  0.2318 -0.2925
   62SAPC   C32 4886   5.762   6.397   5.967  0.1174  0.1578 -0.5963
   62SAPC   H2X 4887   5.691   6.322   6.008  2.2762 -0.0953  3.1435
   62SAPC   H2Y 4888   5.831   6.338   5.904  2.7204  2.5031 -0.1244
   62SAPC   C23 4889   6.173   6.054   5.963  0.3777 -0.0467 -0.5112
   62SAPC   H3R 4890   6.240   6.131   6.007  1.6951 -1.0576 -0.6885
   62SAPC   H3S 4891   6.125   6.104   5.877  1.6000  1.7226 -0.2044
   62SAPC   C24 4892   6.264   5.941   5.913 -0.2114 -0.5623  0.0927
   62SAPC   H4R 4893   6.313   5.882   5.994  0.7077 -1.4170 -1.0556
   62SAPC   H4S 4894   6.349   5.991   5.863 -1.4432  1.5691  0.0159
   62SAPC   C25 4895   6.200   5.841   5.820 -0.1493  0.1275  0.3810
   62SAPC   H5R 4896   6.152   5.755   5.870 -0.2771  0.5128  0.9246
   62SAPC   C26 4897   6.201   5.840   5.684 -0.4415  0.1986  0.0147
   62SAPC   H6R 4898   6.148   5.764   5.624  1.4604 -0.2859 -1.1288
   62SAPC   C27 4899   6.266   5.954   5.601  0.0590  0.0521  0.0980
   62SAPC   H7R 4900   6.318   6.030   5.663 -0.0796 -0.3587  0.7259
   62SAPC   H7S 4901   6.194   6.022   5.550  0.7235  2.1052  1.7623
   62SAPC   C28 4902   6.351   5.885   5.501 -0.0705  0.8346 -0.2116
   62SAPC   H8R 4903   6.447   5.848   5.539 -0.4371  0.8387  0.7361
   62SAPC   C29 4904   6.328   5.885   5.367  0.2943  0.3178 -0.2842
   62SAPC   H9R 4905   6.397   5.826   5.305  2.0423  1.5463  0.4237
   62SAPC  C210 4906   6.204   5.934   5.290 -0.3183  0.5156 -0.8435
   62SAPC  H10R 4907   6.114   5.951   5.352 -0.8235 -1.9421 -0.8146
   62SAPC  H10S 4908   6.178   5.852   5.219  0.7075 -1.0721  0.5357
   62SAPC  C211 4909   6.239   6.068   5.226 -0.3288 -0.1208 -0.3151
   62SAPC  H11R 4910   6.248   6.156   5.292 -3.3625  0.9041 -1.0914
   62SAPC  C212 4911   6.261   6.088   5.098  0.3146 -0.0352 -0.5285
   62SAPC  H12R 4912   6.298   6.189   5.075  1.3502 -0.0432  0.9559
   62SAPC  C213 4913   6.253   5.988   4.976  0.1509 -0.4501 -0.4147
   62SAPC  H13R 4914   6.154   5.988   4.926  0.9167  0.1927 -2.0055
   62SAPC  H13S 4915   6.259   5.883   5.010  0.3727 -0.8754 -1.7127
   62SAPC  C214 4916   6.364   6.003   4.874 -0.6615  0.0601 -0.1417
   62SAPC  H14R 4917   6.461   5.964   4.908 -1.1169 -0.5775  0.4506
   62SAPC  C215 4918   6.367   6.076   4.758 -0.6068 -0.7138  0.0417
   62SAPC  H15R 4919   6.460   6.080   4.700 -0.7641 -0.3015 -0.1772
   62SAPC  C216 4920   6.249   6.147   4.698 -0.1029  0.0779 -0.0994
   62SAPC  H16R 4921   6.236   6.251   4.735 -1.2906 -0.1779  0.2372
   62SAPC  H16S 4922   6.153   6.095   4.719 -1.0527  1.4796 -0.8163
   62SAPC  C217 4923   6.247   6.141   4.546  0.0968 -0.0056 -0.0089
   62SAPC  H17R 4924   6.148   6.177   4.512 -1.0668 -1.8293  1.2390
   62SAPC  H17S 4925   6.247   6.034   4.515  0.2543  0.2955 -1.0862
   62SAPC  C218 4926   6.356   6.221   4.476  0.1549  0.8541  0.5202
   62SAPC  H18R 4927   6.458   6.203   4.517 -0.0893  1.7324  1.5756
   62SAPC  H18S 4928   6.329   6.328   4.475 -0.4854  0.7027  0.9053
   62SAPC  C219 4929   6.351   6.183   4.329  0.1388 -0.4711  0.2468
   62SAPC  H19R 4930   6.245   6.187   4.296 -0.1828 -1.6973  1.0576
   62SAPC  H19S 4931   6.381   6.077   4.326  1.6702 -0.0400 -1.9548
   62SAPC  C220 4932   6.441   6.268   4.239 -0.2224 -0.4628  0.1422
   62SAPC  H20R 4933   6.462   6.200   4.154 -0.5728 -2.0657  1.2753
   62SAPC  H20S 4934   6.528   6.316   4.288 -1.1485  1.9861 -0.4811
   62SAPC  H20T 4935   6.386   6.361   4.213 -0.8867  0.1585  3.2881
   62SAPC   C33 4936   5.683   6.516   5.905  0.0016 -0.1877 -0.8320
   62SAPC   H3X 4937   5.634   6.573   5.986  1.6336 -1.2811  1.0059
   62SAPC   H3Y 4938   5.602   6.487   5.834  1.2905  0.7445 -2.7780
   62SAPC   C34 4939   5.777   6.601   5.824  0.0357 -0.6141 -0.3099
   62SAPC   H4X 4940   5.842   6.543   5.755  1.0127  0.8342 -0.6552
   62SAPC   H4Y 4941   5.845   6.647   5.899  1.1028 -2.5292 -0.0419
   62SAPC   C35 4942   5.700   6.713   5.744 -0.0393  0.3779 -0.0999
   62SAPC   H5X 4943   5.639   6.777   5.812 -0.3632 -2.4522  2.4777
   62SAPC   H5Y 4944   5.642   6.656   5.668  1.0594 -1.6616  0.5241
   62SAPC   C36 4945   5.796   6.813   5.670 -0.3353 -0.0883  0.0790
   62SAPC   H6X 4946   5.859   6.876   5.736 -0.2384 -1.0155  0.9070
   62SAPC   H6Y 4947   5.730   6.884   5.617  2.0667  2.2620  0.0498
   62SAPC   C37 4948   5.892   6.746   5.563  0.6591  1.0951 -0.3248
   62SAPC   H7X 4949   5.827   6.703   5.483 -0.2584 -0.0056  0.9577
   62SAPC   H7Y 4950   5.944   6.666   5.620 -0.2650  1.5933  1.2830
   62SAPC   C38 4951   6.005   6.841   5.513 -1.0636 -0.4331  0.0247
   62SAPC   H8X 4952   6.084   6.769   5.481 -0.7257 -0.4043  0.7823
   62SAPC   H8Y 4953   6.060   6.896   5.592  1.0335 -1.8195 -0.3794
   62SAPC   C39 4954   5.964   6.917   5.387 -0.9266 -0.1215 -0.8312
   62SAPC   H9X 4955   5.879   6.982   5.413  0.0159  1.2864 -1.1495
   62SAPC   H9Y 4956   5.924   6.846   5.311  0.8516 -4.6366  2.0277
   62SAPC  C310 4957   6.081   6.996   5.326 -0.0557 -0.0620  0.6094
   62SAPC  H10X 4958   6.168   6.927   5.330 -1.4401 -1.8273  1.3744
   62SAPC  H10Y 4959   6.114   7.088   5.379  1.9986  0.1093 -0.8463
   62SAPC  C311 4960   6.059   7.034   5.180  0.2865  0.0103  0.0595
   62SAPC  H11X 4961   6.007   7.132   5.178 -0.4899 -0.3932 -0.2783
   62SAPC  H11Y 4962   5.992   6.961   5.129  0.4574  0.3258 -0.6254
   62SAPC  C312 4963   6.189   7.038   5.093 -0.1944 -0.4165 -0.1556
   62SAPC  H12X 4964   6.220   6.934   5.066 -0.6256 -0.2916 -1.1668
   62SAPC  H12Y 4965   6.270   7.081   5.156  0.6615 -0.5755 -1.1184
   62SAPC  C313 4966   6.185   7.117   4.962 -0.7503  0.2796 -0.3065
   62SAPC  H13X 4967   6.160   7.222   4.988 -1.1938  0.6524 -2.1090
   62SAPC  H13Y 4968   6.098   7.068   4.915 -0.5626 -0.5889  0.2197
   62SAPC  C314 4969   6.311   7.103   4.875 -0.0199  0.2249 -0.1591
   62SAPC  H14X 4970   6.328   7.000   4.836  1.2556  0.7418 -1.0587
   62SAPC  H14Y 4971   6.407   7.125   4.926 -0.1033  1.1578 -0.3875
   62SAPC  C315 4972   6.297   7.181   4.744 -0.2962  0.8017 -0.3471
   62SAPC  H15X 4973   6.317   7.287   4.770  0.6310  0.4200  0.6018
   62SAPC  H15Y 4974   6.196   7.181   4.697 -0.0891 -0.2544 -0.8181
   62SAPC  C316 4975   6.408   7.148   4.647  1.0508  0.4585  0.2508
   62SAPC  H16X 4976   6.405   7.038   4.630  0.9963  0.7107 -1.6095
   62SAPC  H16Y 4977   6.504   7.179   4.694  0.6978 -0.9966  2.0142
   62SAPC  C317 4978   6.399   7.225   4.507 -0.6147 -0.0977  0.4028
   62SAPC  H17X 4979   6.319   7.172   4.451 -0.2635  1.3027 -1.5222
   62SAPC  H17Y 4980   6.495   7.200   4.456 -0.8089  0.3701 -0.1991
   62SAPC  C318 4981   6.380   7.378   4.507  0.9582  0.2478 -0.7650
   62SAPC  H18X 4982   6.470   7.424   4.553  0.9957  0.5272 -1.1183
   62SAPC  H18Y 4983   6.300   7.400   4.581  2.7108 -1.6595  1.8831
   62SAPC  H18Z 4984   6.335   7.410   4.410  0.0425  0.1325 -0.3919
   63SAPC     N 4985   1.597   2.448   6.343 -0.3664 -0.2167  0.2181
   63SAPC   C12 4986   1.586   2.316   6.273  0.1550  0.2507  0.3292
   63SAPC  H12A 4987   1.531   2.243   6.331 -0.3298 -1.1678 -1.8017
   63SAPC  H12B 4988   1.689   2.283   6.273  0.3156  0.7357  0.0851
   63SAPC   C13 4989   1.671   2.550   6.260  0.5694  0.5730 -0.3031
   63SAPC  H13A 4990   1.760   2.503   6.221  0.2260 -0.9237  0.6074
   63SAPC  H13B 4991   1.610   2.585   6.178  0.8765  2.6046  0.2936
   63SAPC  H13C 4992   1.696   2.639   6.316  1.6249  0.5261 -0.6690
   63SAPC   C14 4993   1.464   2.504   6.389 -0.2742 -0.3610  0.7838
   63SAPC  H14A 4994   1.391   2.429   6.416 -0.5181 -0.2523  0.4395
   63SAPC  H14B 4995   1.484   2.579   6.464 -0.9991 -0.4231  1.0417
   63SAPC  H14C 4996   1.412   2.550   6.306  3.1300  1.3972 -0.6054
   63SAPC   C15 4997   1.662   2.420   6.477  0.0908  0.3019  0.7268
   63SAPC  H15A 4998   1.597   2.377   6.551  0.8127 -1.5039  0.3489
   63SAPC  H15B 4999   1.733   2.339   6.470 -0.7712 -0.8835  3.9576
   63SAPC  H15C 5000   1.716   2.514   6.489  1.8658 -0.5931  0.1535
   63SAPC   C11 5001   1.526   2.303   6.128 -0.7307  0.2225 -0.1220
   63SAPC  H11A 5002   1.536   2.193   6.112  2.0813  0.2868  0.7461
   63SAPC  H11B 5003   1.591   2.359   6.058  1.5448  0.9885  2.4146
   63SAPC     P 5004   1.280   2.269   6.204  0.2620  0.3068  0.1282
   63SAPC   O13 5005   1.337   2.166   6.294  0.6782  0.2809 -0.4417
   63SAPC   O14 5006   1.195   2.366   6.274  0.3848  0.0342  0.5507
   63SAPC   O12 5007   1.386   2.345   6.124 -0.2307 -0.0696  0.2009
   63SAPC   O11 5008   1.202   2.196   6.082 -0.8069 -0.1729  0.2201
   63SAPC    C1 5009   1.119   2.273   5.990 -0.6402 -0.4665  0.2502
   63SAPC    HA 5010   1.012   2.262   6.018 -1.1127 -1.5565 -1.7994
   63SAPC    HB 5011   1.150   2.380   5.989 -0.2625 -0.5767 -0.6443
   63SAPC    C2 5012   1.135   2.233   5.841  1.3128  0.1124  0.2388
   63SAPC    HS 5013   1.084   2.314   5.785  0.7325 -1.2068 -1.2168
   63SAPC   O21 5014   1.054   2.113   5.819 -0.1641 -0.8183  0.7032
   63SAPC   C21 5015   0.994   2.100   5.698 -0.5897  0.5279 -0.3686
   63SAPC   O22 5016   0.993   2.183   5.610  0.0265  0.0958 -0.1780
   63SAPC   C22 5017   0.923   1.968   5.703  0.2697  0.1730  0.7713
   63SAPC   H2R 5018   0.985   1.890   5.752  2.9051  0.7085 -1.4552
   63SAPC   H2S 5019   0.832   1.981   5.764  0.3833 -0.3272  1.0565
   63SAPC    C3 5020   1.282   2.211   5.810 -0.0138  0.7223  0.4271
   63SAPC    HX 5021   1.334   2.157   5.893 -0.3704  1.6302  1.2636
   63SAPC    HY 5022   1.329   2.312   5.810 -3.4716  2.4685 -0.0174
   63SAPC   O31 5023   1.305   2.141   5.681 -0.2378  0.4343 -0.3135
   63SAPC   C31 5024   1.406   2.192   5.615  0.1114  0.4074 -0.4758
   63SAPC   O32 5025   1.493   2.266   5.658  0.2824  0.3026 -0.6088
   63SAPC   C32 5026   1.403   2.144   5.466 -0.4915  0.1012 -0.7091
   63SAPC   H2X 5027   1.359   2.043   5.453  1.9543 -1.3002  0.9958
   63SAPC   H2Y 5028   1.513   2.134   5.450 -0.2013  1.8825 -0.0732
   63SAPC   C23 5029   0.883   1.919   5.564  0.6780 -0.4405  0.5160
   63SAPC   H3R 5030   0.807   1.991   5.527  0.9784  0.4216  1.5464
   63SAPC   H3S 5031   0.821   1.827   5.575  0.5808 -0.4817 -0.3336
   63SAPC   C24 5032   0.996   1.894   5.468 -0.2200  1.1491  0.5447
   63SAPC   H4R 5033   1.020   1.984   5.407 -1.9326  1.2768  0.0183
   63SAPC   H4S 5034   0.956   1.821   5.394 -0.7062  2.6031 -0.6707
   63SAPC   C25 5035   1.124   1.837   5.528  0.3338  0.8377 -0.2433
   63SAPC   H5R 5036   1.172   1.905   5.601  1.4463 -0.1947  0.0204
   63SAPC   C26 5037   1.193   1.723   5.491 -0.0354 -0.3216 -0.6321
   63SAPC   H6R 5038   1.286   1.699   5.545 -1.4712 -0.8986  1.7224
   63SAPC   C27 5039   1.163   1.633   5.380 -0.4594 -0.1757 -0.8649
   63SAPC   H7R 5040   1.056   1.640   5.349 -0.9229 -1.4377  0.3125
   63SAPC   H7S 5041   1.187   1.526   5.402  0.8633  0.5257  1.3408
   63SAPC   C28 5042   1.239   1.661   5.255  0.1328  0.4643  0.1445
   63SAPC   H8R 5043   1.291   1.758   5.254 -1.4642  1.3537 -0.3389
   63SAPC   C29 5044   1.207   1.600   5.135 -0.0840 -0.5581  0.5026
   63SAPC   H9R 5045   1.271   1.625   5.050 -2.0014 -0.3429 -0.9469
   63SAPC  C210 5046   1.124   1.476   5.096 -0.4406  0.6845  0.2073
   63SAPC  H10R 5047   1.091   1.424   5.188 -2.3316  1.5369  0.0656
   63SAPC  H10S 5048   1.182   1.393   5.051 -1.9793 -1.3236  1.7195
   63SAPC  C211 5049   1.009   1.507   5.007  0.1437  0.5308 -0.1992
   63SAPC  H11R 5050   0.929   1.552   5.067  0.2881 -0.0201  0.4198
   63SAPC  C212 5051   1.005   1.499   4.874 -0.2003  0.8398  0.1777
   63SAPC  H12R 5052   0.914   1.530   4.819 -1.1437 -1.9851 -0.0454
   63SAPC  C213 5053   1.120   1.455   4.785  0.7281  0.4154  0.5121
   63SAPC  H13R 5054   1.218   1.474   4.834  2.1275 -0.7442 -1.6874
   63SAPC  H13S 5055   1.107   1.519   4.695 -4.8538 -1.6166 -0.5347
   63SAPC  C214 5056   1.106   1.316   4.748 -0.2731 -0.6619  0.5009
   63SAPC  H14R 5057   1.106   1.247   4.833  2.0718  2.2292  3.0810
   63SAPC  C215 5058   1.106   1.270   4.628 -0.3362 -0.0390  1.1328
   63SAPC  H15R 5059   1.091   1.161   4.616  2.8768 -0.2208 -3.8141
   63SAPC  C216 5060   1.118   1.335   4.493 -0.0841  0.3646  0.3795
   63SAPC  H16R 5061   1.205   1.294   4.438 -0.5939  1.3120 -1.1845
   63SAPC  H16S 5062   1.149   1.441   4.504  0.9977  0.2892 -1.4935
   63SAPC  C217 5063   1.000   1.314   4.389  0.2698 -0.2849  0.3560
   63SAPC  H17R 5064   0.982   1.205   4.375 -0.5821 -0.4932  2.6093
   63SAPC  H17S 5065   1.026   1.361   4.292  0.4545 -1.1564 -0.0260
   63SAPC  C218 5066   0.871   1.382   4.438 -0.4447 -0.3903  0.0570
   63SAPC  H18R 5067   0.895   1.487   4.466  0.0991 -0.5669  0.2579
   63SAPC  H18S 5068   0.847   1.331   4.533  3.1248 -0.1520  1.2357
   63SAPC  C219 5069   0.758   1.371   4.348  0.6634  0.2224  0.4567
   63SAPC  H19R 5070   0.745   1.261   4.331 -0.9322  0.5978 -1.0523
   63SAPC  H19S 5071   0.775   1.410   4.246 -0.8642 -1.9263 -0.7283
   63SAPC  C220 5072   0.627   1.434   4.402 -0.6018  0.0154  0.0668
   63SAPC  H20R 5073   0.575   1.374   4.479 -2.8118 -0.9753 -2.0697
   63SAPC  H20S 5074   0.546   1.444   4.326  0.0391  1.0056 -0.5173
   63SAPC  H20T 5075   0.647   1.531   4.453 -1.1296  0.1487  0.0259
   63SAPC   C33 5076   1.366   2.253   5.364  0.4070 -0.7558 -0.0981
   63SAPC   H3X 5077   1.398   2.210   5.266  2.3998 -2.1724  1.0903
   63SAPC   H3Y 5078   1.423   2.346   5.384 -0.3229  0.0816 -1.6829
   63SAPC   C34 5079   1.215   2.269   5.350  0.3830 -0.5257 -0.6272
   63SAPC   H4X 5080   1.174   2.279   5.453 -1.5478  1.0149 -1.4572
   63SAPC   H4Y 5081   1.174   2.178   5.301  1.4710 -1.6277  0.4400
   63SAPC   C35 5082   1.161   2.391   5.264  0.5095 -0.4669  0.1849
   63SAPC   H5X 5083   1.194   2.488   5.308  0.5731  0.5676 -2.0168
   63SAPC   H5Y 5084   1.051   2.378   5.264  0.6483 -1.7473  1.0751
   63SAPC   C36 5085   1.220   2.382   5.124 -0.3156 -0.1212  0.0550
   63SAPC   H6X 5086   1.187   2.286   5.078 -1.1350 -1.0262  2.3721
   63SAPC   H6Y 5087   1.331   2.383   5.129 -0.2785  0.0444 -0.6654
   63SAPC   C37 5088   1.177   2.500   5.037  0.1863  0.2186 -0.4604
   63SAPC   H7X 5089   1.218   2.593   5.082  0.7420  1.6588 -3.6356
   63SAPC   H7Y 5090   1.068   2.483   5.027 -0.0777  1.0205  0.7978
   63SAPC   C38 5091   1.241   2.506   4.893  0.3036 -1.0326  0.7193
   63SAPC   H8X 5092   1.202   2.418   4.837  0.1730  0.0106 -0.8629
   63SAPC   H8Y 5093   1.350   2.485   4.907  0.3814 -0.1045  1.5774
   63SAPC   C39 5094   1.205   2.633   4.821 -0.1267 -0.3737 -0.5644
   63SAPC   H9X 5095   1.253   2.724   4.862 -2.0155  0.1233  0.6619
   63SAPC   H9Y 5096   1.096   2.655   4.816 -0.0811  0.5776  1.4600
   63SAPC  C310 5097   1.262   2.626   4.682  0.0799 -0.1201  0.5666
   63SAPC  H10X 5098   1.195   2.551   4.633 -2.1774 -0.0239  3.2770
   63SAPC  H10Y 5099   1.364   2.583   4.683 -0.3202 -1.3020 -1.6504
   63SAPC  C311 5100   1.275   2.758   4.603  0.0396  0.1864 -0.4596
   63SAPC  H11X 5101   1.303   2.748   4.496  0.4077  0.2949 -0.3745
   63SAPC  H11Y 5102   1.352   2.825   4.647 -0.1191 -0.5667  1.0468
   63SAPC  C312 5103   1.139   2.832   4.605 -0.4483 -0.4308  0.1439
   63SAPC  H12X 5104   1.130   2.893   4.698  2.7425  0.9900 -0.3203
   63SAPC  H12Y 5105   1.068   2.747   4.606  1.3940 -2.1113 -1.5262
   63SAPC  C313 5106   1.111   2.934   4.491 -0.3230  0.3270  0.8416
   63SAPC  H13X 5107   1.103   2.888   4.390  0.9157 -0.7704  1.2135
   63SAPC  H13Y 5108   1.199   3.001   4.496  0.5130 -0.4296 -1.8198
   63SAPC  C314 5109   0.990   3.008   4.528  0.2870 -0.6083  0.3544
   63SAPC  H14X 5110   1.015   3.072   4.616 -0.2527  0.7085 -0.4214
   63SAPC  H14Y 5111   0.908   2.936   4.549 -0.5538 -0.3346 -1.7642
   63SAPC  C315 5112   0.937   3.105   4.421 -0.3258  0.1391  0.6100
   63SAPC  H15X 5113   1.015   3.181   4.400 -0.1684  0.1962  1.3675
   63SAPC  H15Y 5114   0.847   3.164   4.451 -1.0417  0.3254 -1.6957
   63SAPC  C316 5115   0.899   3.033   4.291 -0.5042  0.1499  0.0009
   63SAPC  H16X 5116   0.843   2.944   4.328  1.2550 -1.8434 -1.8886
   63SAPC  H16Y 5117   0.993   3.001   4.241 -0.2419  0.5475  0.2273
   63SAPC  C317 5118   0.803   3.120   4.200  0.3364 -0.3098  0.3008
   63SAPC  H17X 5119   0.819   3.089   4.095  0.9406 -0.4358  0.4254
   63SAPC  H17Y 5120   0.842   3.223   4.217 -0.1910 -0.1635  0.6285
   63SAPC  C318 5121   0.663   3.123   4.235 -0.3432  0.0722  0.4109
   63SAPC  H18X 5122   0.594   3.189   4.179 -1.5459 -0.4459  1.2311
   63SAPC  H18Y 5123   0.647   3.158   4.340  0.1423  0.8230  0.2362
   63SAPC  H18Z 5124   0.605   3.028   4.226  1.0293 -0.8959  1.3470
   64SAPC     N 5125   0.197   2.845   6.626 -0.1157  0.5742 -0.0452
   64SAPC   C12 5126   0.333   2.915   6.624  0.7691  0.4610 -0.1065
   64SAPC  H12A 5127   0.348   2.955   6.525 -0.7363 -0.3997 -0.7124
   64SAPC  H12B 5128   0.412   2.842   6.640  0.7039 -0.4259 -3.1575
   64SAPC   C13 5129   0.103   2.938   6.560 -0.3656  0.4759  0.3109
   64SAPC  H13A 5130   0.087   3.021   6.628  0.7188 -1.1126  2.6392
   64SAPC  H13B 5131   0.146   2.964   6.465  2.1597 -0.3758  1.1526
   64SAPC  H13C 5132   0.003   2.897   6.554  0.0227 -0.2626 -1.4685
   64SAPC   C14 5133   0.191   2.717   6.555  0.1560  0.0339  0.6039
   64SAPC  H14A 5134   0.246   2.641   6.609  0.6296  1.2023  1.8297
   64SAPC  H14B 5135   0.089   2.685   6.541  1.0508 -1.7724 -3.0947
   64SAPC  H14C 5136   0.226   2.738   6.455  1.5056 -0.2327  0.9957
   64SAPC   C15 5137   0.152   2.801   6.764  0.1674  0.1603  0.0194
   64SAPC  H15A 5138   0.149   2.880   6.836  1.2723  0.0082  0.2410
   64SAPC  H15B 5139   0.051   2.762   6.761 -0.7853  2.4725  0.4929
   64SAPC  H15C 5140   0.207   2.718   6.806 -0.7454 -1.2332 -1.4140
   64SAPC   C11 5141   0.354   3.030   6.728  0.5887  0.3310 -0.0358
   64SAPC  H11A 5142   0.353   2.987   6.830 -0.1272  0.5349  0.0488
   64SAPC  H11B 5143   0.276   3.110   6.728 -0.3886 -0.5187 -2.2396
   64SAPC     P 5144   0.521   3.177   6.586  0.6008  0.1597 -0.3913
   64SAPC   O13 5145   0.530   3.319   6.631 -0.9389 -0.0824  0.1170
   64SAPC   O14 5146   0.633   3.114   6.513 -0.7120  0.0935  0.2268
   64SAPC   O12 5147   0.484   3.089   6.709 -0.2353  0.2743 -0.1231
   64SAPC   O11 5148   0.402   3.160   6.479  0.0504 -0.4213  0.2113
   64SAPC    C1 5149   0.372   3.247   6.367  0.1369  0.0000  0.5024
   64SAPC    HA 5150   0.332   3.340   6.413  0.1187  0.3470 -0.2094
   64SAPC    HB 5151   0.460   3.264   6.301 -0.0850  0.1987  0.2578
   64SAPC    C2 5152   0.265   3.180   6.270  0.3971  0.6339 -0.1784
   64SAPC    HS 5153   0.186   3.134   6.333  0.5663  1.4145  0.6217
   64SAPC   O21 5154   0.336   3.091   6.184 -0.7171 -0.0637 -0.2291
   64SAPC   C21 5155   0.339   2.963   6.209 -0.3344 -0.1359  0.1679
   64SAPC   O22 5156   0.307   2.906   6.315  0.4004 -0.0640  0.3472
   64SAPC   C22 5157   0.411   2.900   6.092  0.2264 -0.6697 -0.2685
   64SAPC   H2R 5158   0.494   2.968   6.062 -0.3280  0.8094  1.3896
   64SAPC   H2S 5159   0.472   2.825   6.147 -0.1403  0.6049  1.9952
   64SAPC    C3 5160   0.192   3.290   6.184  0.4639 -0.6508 -0.1925
   64SAPC    HX 5161   0.276   3.343   6.136  1.4401 -1.4975  0.5478
   64SAPC    HY 5162   0.147   3.362   6.255  1.4367  0.5451 -0.7502
   64SAPC   O31 5163   0.093   3.228   6.102  0.3700 -0.2961  0.5946
   64SAPC   C31 5164   0.046   3.299   6.003  0.3307  0.1104  0.2279
   64SAPC   O32 5165   0.070   3.418   5.985 -0.0383 -0.5626  0.0085
   64SAPC   C32 5166  -0.036   3.213   5.903 -0.0093 -0.7585  0.2092
   64SAPC   H2X 5167  -0.123   3.184   5.966 -0.1991 -0.4067  0.1133
   64SAPC   H2Y 5168   0.032   3.129   5.879  1.6446  0.3071  0.9412
   64SAPC   C23 5169   0.334   2.837   5.970 -0.1822 -0.2400 -0.3248
   64SAPC   H3R 5170   0.279   2.749   6.009  1.1664 -0.4913  1.1285
   64SAPC   H3S 5171   0.401   2.790   5.894  1.2794 -0.5455  1.1012
   64SAPC   C24 5172   0.235   2.931   5.900  0.4618 -0.2177 -0.0456
   64SAPC   H4R 5173   0.141   2.948   5.956 -0.6635  0.4847 -2.0169
   64SAPC   H4S 5174   0.203   2.873   5.811 -3.3865  1.9818 -0.3219
   64SAPC   C25 5175   0.292   3.064   5.847  0.2145 -0.7013 -0.1701
   64SAPC   H5R 5176   0.323   3.126   5.933 -1.0681 -1.6008  0.9811
   64SAPC   C26 5177   0.310   3.112   5.729  0.1808 -0.5562 -0.1367
   64SAPC   H6R 5178   0.363   3.207   5.717 -0.1834 -0.4514 -0.9658
   64SAPC   C27 5179   0.278   3.051   5.592  0.4728 -0.5004 -0.7115
   64SAPC   H7R 5180   0.169   3.043   5.573  0.1712  0.4414  0.4636
   64SAPC   H7S 5181   0.321   2.949   5.594 -1.6772 -1.4577  1.6043
   64SAPC   C28 5182   0.358   3.123   5.481 -0.1078  0.5820 -0.4036
   64SAPC   H8R 5183   0.463   3.141   5.509  0.0911 -1.1568  0.0748
   64SAPC   C29 5184   0.311   3.158   5.358 -0.3628 -0.5338  0.2288
   64SAPC   H9R 5185   0.384   3.204   5.290 -0.2828  1.0999  1.3742
   64SAPC  C210 5186   0.172   3.138   5.299 -0.3143 -0.9927  0.5423
   64SAPC  H10R 5187   0.116   3.226   5.335  0.2348 -0.0200 -0.8620
   64SAPC  H10S 5188   0.125   3.052   5.351 -0.8552  1.6983  4.9605
   64SAPC  C211 5189   0.158   3.131   5.148  0.2639 -0.8549 -0.8945
   64SAPC  H11R 5190   0.245   3.098   5.088  1.0553  1.3478 -1.0416
   64SAPC  C212 5191   0.046   3.169   5.081 -0.5002 -0.2493  0.7690
   64SAPC  H12R 5192   0.051   3.171   4.972  1.9977  1.6576  0.8425
   64SAPC  C213 5193  -0.079   3.232   5.135 -0.0892  0.3751  0.4026
   64SAPC  H13R 5194  -0.059   3.335   5.172 -2.4988  1.8165 -1.9447
   64SAPC  H13S 5195  -0.115   3.167   5.218  0.1575  1.6641  1.5417
   64SAPC  C214 5196  -0.186   3.265   5.031  0.0535  0.2211  0.0060
   64SAPC  H14R 5197  -0.280   3.211   5.047  0.3257  0.1110  1.3094
   64SAPC  C215 5198  -0.176   3.332   4.915  0.4824 -0.7456  0.8000
   64SAPC  H15R 5199  -0.271   3.348   4.861  0.2867 -0.2763  1.2753
   64SAPC  C216 5200  -0.057   3.403   4.860 -0.1272  1.1038 -0.1544
   64SAPC  H16R 5201   0.030   3.372   4.922 -0.2323 -0.1999 -0.6212
   64SAPC  H16S 5202  -0.074   3.512   4.862  1.2417  1.3177  1.3473
   64SAPC  C217 5203  -0.024   3.363   4.717 -0.2487  0.0876  0.1951
   64SAPC  H17R 5204  -0.109   3.361   4.646 -0.2570 -0.6718  0.2176
   64SAPC  H17S 5205  -0.003   3.254   4.711 -0.4795  0.0560 -0.0622
   64SAPC  C218 5206   0.099   3.439   4.653  0.8640  0.4875 -0.6938
   64SAPC  H18R 5207   0.123   3.522   4.723  0.2620  0.1594 -0.0940
   64SAPC  H18S 5208   0.071   3.494   4.561  3.5038  1.9624 -0.7099
   64SAPC  C219 5209   0.216   3.355   4.617 -0.1979  0.0795 -0.0410
   64SAPC  H19R 5210   0.280   3.415   4.550 -1.3062  0.2596 -0.9784
   64SAPC  H19S 5211   0.174   3.274   4.553  0.5992 -0.9705  0.7208
   64SAPC  C220 5212   0.302   3.304   4.734  0.3060  0.8443  0.2272
   64SAPC  H20R 5213   0.351   3.384   4.792  1.7524  0.3920 -0.3198
   64SAPC  H20S 5214   0.376   3.231   4.693  0.9344  1.1014  0.8901
   64SAPC  H20T 5215   0.236   3.252   4.806  0.2601  0.0636 -0.3540
   64SAPC   C33 5216  -0.096   3.295   5.788  0.2139  0.1224  1.0586
   64SAPC   H3X 5217  -0.126   3.393   5.830 -1.0767 -0.4722  1.5822
   64SAPC   H3Y 5218  -0.193   3.249   5.760 -0.7177  1.6532  1.7005
   64SAPC   C34 5219   0.005   3.308   5.667  0.1302 -0.5727  0.3405
   64SAPC   H4X 5220   0.045   3.207   5.646  0.2853 -0.5452  0.4965
   64SAPC   H4Y 5221   0.090   3.369   5.706  0.9060 -2.7381  2.2702
   64SAPC   C35 5222  -0.056   3.357   5.536  0.2082  0.0516  0.0162
   64SAPC   H5X 5223  -0.124   3.274   5.505 -1.4608  2.0327 -1.9799
   64SAPC   H5Y 5224   0.025   3.367   5.460  0.3454 -0.3603  0.1010
   64SAPC   C36 5225  -0.148   3.477   5.544  0.3190 -0.3278 -0.0693
   64SAPC   H6X 5226  -0.096   3.558   5.600  0.1596 -2.0926  2.8223
   64SAPC   H6Y 5227  -0.238   3.444   5.599  0.1632 -0.0267 -0.1418
   64SAPC   C37 5228  -0.197   3.528   5.404 -0.0501  0.3570  0.5999
   64SAPC   H7X 5229  -0.286   3.592   5.425 -0.2876  0.3941 -0.4864
   64SAPC   H7Y 5230  -0.240   3.451   5.336  0.6695 -0.1225  0.6816
   64SAPC   C38 5231  -0.096   3.627   5.335 -0.7955 -0.1585 -0.5465
   64SAPC   H8X 5232  -0.001   3.570   5.332  1.3017  2.5463  4.1515
   64SAPC   H8Y 5233  -0.071   3.711   5.403  0.4381 -0.8752 -0.0842
   64SAPC   C39 5234  -0.152   3.687   5.203  0.2522  0.6273 -0.3889
   64SAPC   H9X 5235  -0.233   3.758   5.227  1.3322  1.8621 -0.2893
   64SAPC   H9Y 5236  -0.185   3.606   5.134 -0.9156  1.0850 -0.3797
   64SAPC  C310 5237  -0.041   3.763   5.122 -0.4428  0.0997  0.5889
   64SAPC  H10X 5238   0.033   3.680   5.114  0.8591  1.1542  1.2623
   64SAPC  H10Y 5239   0.008   3.839   5.186 -1.1997 -0.2493  1.6020
   64SAPC  C311 5240  -0.095   3.826   4.988 -0.2033  0.0098 -0.0006
   64SAPC  H11X 5241  -0.176   3.896   5.018  0.0743 -0.2118  1.2820
   64SAPC  H11Y 5242  -0.141   3.752   4.919 -3.3207  1.2962  0.5446
   64SAPC  C312 5243   0.018   3.901   4.911 -0.1639 -0.1825 -0.0810
   64SAPC  H12X 5244   0.101   3.829   4.890 -1.4507 -1.3660 -1.3296
   64SAPC  H12Y 5245   0.062   3.972   4.984 -0.1616  1.1855 -1.3679
   64SAPC  C313 5246  -0.032   3.974   4.789  0.2459 -0.4627 -0.0012
   64SAPC  H13X 5247  -0.094   3.908   4.725 -1.0319  0.2961  0.4074
   64SAPC  H13Y 5248   0.059   4.008   4.736  0.2257  3.0181  1.8433
   64SAPC  C314 5249  -0.140   4.082   4.821  0.1171 -0.4602  0.1326
   64SAPC  H14X 5250  -0.119   4.143   4.912 -0.1994 -0.2131  0.0419
   64SAPC  H14Y 5251  -0.230   4.026   4.851 -0.7762 -0.4888 -2.3525
   64SAPC  C315 5252  -0.175   4.172   4.707  0.4952 -0.2490  0.8436
   64SAPC  H15X 5253  -0.195   4.112   4.616  0.0909  1.2686 -0.0969
   64SAPC  H15Y 5254  -0.097   4.248   4.685  0.8960 -0.4738  1.4669
   64SAPC  C316 5255  -0.313   4.241   4.728 -0.1715  0.9769  0.1169
   64SAPC  H16X 5256  -0.382   4.157   4.752  0.7436 -0.9294 -3.2842
   64SAPC  H16Y 5257  -0.348   4.284   4.631  0.4012  0.1284 -0.4784
   64SAPC  C317 5258  -0.317   4.351   4.831 -0.1798 -0.3839  0.4223
   64SAPC  H17X 5259  -0.250   4.331   4.918 -0.8927 -1.1542  0.8145
   64SAPC  H17Y 5260  -0.412   4.347   4.889 -0.9383 -1.7663 -0.8362
   64SAPC  C318 5261  -0.299   4.493   4.775 -0.1237 -0.7971 -0.3638
   64SAPC  H18X 5262  -0.378   4.525   4.703  0.6987 -2.6198 -2.1368
   64SAPC  H18Y 5263  -0.204   4.504   4.719 -0.5733  0.5983 -0.8851
   64SAPC  H18Z 5264  -0.303   4.567   4.858 -0.6963 -0.8217 -0.3596
   65SAPC     N 5265   5.293   6.143   1.840  0.4105 -0.1747  0.2845
   65SAPC   C12 5266   5.255   6.233   1.964  0.1790 -0.4653  0.5655
   65SAPC  H12A 5267   5.185   6.182   2.028 -0.0633  0.0052  0.6788
   65SAPC  H12B 5268   5.198   6.318   1.929  2.3145  1.2319  0.9812
   65SAPC   C13 5269   5.380   6.219   1.753  0.3680 -0.6929 -0.2287
   65SAPC  H13A 5270   5.407   6.177   1.657  0.9544  0.8080 -0.7479
   65SAPC  H13B 5271   5.330   6.311   1.727 -3.4931 -2.0941  1.5711
   65SAPC  H13C 5272   5.475   6.242   1.799 -0.4118  1.2948  0.4993
   65SAPC   C14 5273   5.363   6.014   1.876 -0.3375  0.3185  0.5887
   65SAPC  H14A 5274   5.302   5.960   1.947 -0.9629  1.7018  1.1481
   65SAPC  H14B 5275   5.383   5.957   1.786  1.2206  0.9974  0.4662
   65SAPC  H14C 5276   5.448   6.037   1.938 -0.6717  1.8348  0.5249
   65SAPC   C15 5277   5.159   6.109   1.768 -0.4447 -0.8128  0.0254
   65SAPC  H15A 5278   5.184   6.029   1.700  1.0219 -0.1904 -0.2005
   65SAPC  H15B 5279   5.085   6.072   1.838 -0.0803 -0.4471  0.6147
   65SAPC  H15C 5280   5.124   6.196   1.714 -0.5260 -0.1671  1.0831
   65SAPC   C11 5281   5.369   6.287   2.055  0.2506 -0.1369  0.0577
   65SAPC  H11A 5282   5.322   6.347   2.136 -0.2045 -1.0267  0.4692
   65SAPC  H11B 5283   5.419   6.356   1.984 -1.3201 -0.8973 -1.8788
   65SAPC     P 5284   5.576   6.226   2.196  0.0897 -0.0312 -0.2532
   65SAPC   O13 5285   5.647   6.105   2.237  0.3547 -0.5848  0.4899
   65SAPC   O14 5286   5.669   6.314   2.116  0.5020  0.0728  0.1595
   65SAPC   O12 5287   5.450   6.183   2.107 -0.1311 -0.3145  0.2515
   65SAPC   O11 5288   5.532   6.314   2.312 -0.1175  0.6533 -0.3962
   65SAPC    C1 5289   5.421   6.272   2.394 -0.0175 -0.2924  0.2066
   65SAPC    HA 5290   5.357   6.362   2.404 -0.3990 -0.7266  2.1635
   65SAPC    HB 5291   5.348   6.200   2.350  2.3450 -2.2427 -0.7206
   65SAPC    C2 5292   5.445   6.205   2.534  0.0192  0.0542 -0.4259
   65SAPC    HS 5293   5.440   6.286   2.611  0.1608  1.7167 -2.1016
   65SAPC   O21 5294   5.563   6.123   2.541 -0.1769 -0.4290  0.2053
   65SAPC   C21 5295   5.666   6.193   2.565 -0.2295  0.1943  0.2889
   65SAPC   O22 5296   5.668   6.312   2.593  0.4445 -0.2586  0.3705
   65SAPC   C22 5297   5.787   6.096   2.577 -0.1848  0.2275  0.2973
   65SAPC   H2R 5298   5.760   5.991   2.555  1.6862 -0.6157  1.7630
   65SAPC   H2S 5299   5.864   6.135   2.507  0.9935  2.4956  2.6681
   65SAPC    C3 5300   5.322   6.110   2.580  0.1310 -0.3358  0.4997
   65SAPC    HX 5301   5.317   6.035   2.498  0.3247  1.2541 -1.0215
   65SAPC    HY 5302   5.237   6.180   2.569 -0.2479 -0.9702 -0.8316
   65SAPC   O31 5303   5.330   6.049   2.710 -0.2895 -0.9783 -0.2336
   65SAPC   C31 5304   5.406   5.943   2.724  0.2131  0.0859  0.2828
   65SAPC   O32 5305   5.451   5.875   2.634  0.5782 -0.1740  0.0832
   65SAPC   C32 5306   5.426   5.923   2.876  0.2014  0.3944  0.0768
   65SAPC   H2X 5307   5.521   5.867   2.884 -0.2396 -0.4361 -0.3121
   65SAPC   H2Y 5308   5.353   5.852   2.922  2.6764 -1.6123  1.1373
   65SAPC   C23 5309   5.855   6.122   2.714 -0.1853  0.1920 -0.3684
   65SAPC   H3R 5310   5.774   6.144   2.787  1.3520  0.2642  1.3785
   65SAPC   H3S 5311   5.915   6.211   2.687 -0.7354  0.5683 -0.3720
   65SAPC   C24 5312   5.943   6.004   2.769 -0.3134 -0.2177  0.6177
   65SAPC   H4R 5313   6.000   6.040   2.858 -1.0458 -2.2575  1.9686
   65SAPC   H4S 5314   6.022   5.989   2.692 -1.4061 -1.3274 -0.3069
   65SAPC   C25 5315   5.874   5.877   2.787  0.3420  0.1470  0.0948
   65SAPC   H5R 5316   5.855   5.825   2.692  0.2652  0.4591 -0.0591
   65SAPC   C26 5317   5.854   5.824   2.904  1.1350 -0.5058 -0.2323
   65SAPC   H6R 5318   5.802   5.727   2.914  1.1071 -0.6134 -1.3036
   65SAPC   C27 5319   5.888   5.881   3.046  0.8420  0.1548 -0.0205
   65SAPC   H7R 5320   5.846   5.984   3.053  0.6346  0.0446  0.3474
   65SAPC   H7S 5321   5.997   5.902   3.052  0.9938 -1.0692  3.0139
   65SAPC   C28 5322   5.851   5.800   3.166  0.6571  0.2953  0.1614
   65SAPC   H8R 5323   5.742   5.809   3.173  0.5071 -1.3644  0.1493
   65SAPC   C29 5324   5.925   5.732   3.255 -0.0596 -0.6165 -0.9576
   65SAPC   H9R 5325   5.869   5.696   3.343 -0.3322  2.7142  0.3900
   65SAPC  C210 5326   6.071   5.730   3.285 -0.8283 -0.5349 -0.1804
   65SAPC  H10R 5327   6.099   5.667   3.372 -1.7868 -0.2834  0.3206
   65SAPC  H10S 5328   6.106   5.830   3.321  1.1390 -0.8633 -1.0423
   65SAPC  C211 5329   6.144   5.680   3.166 -0.0682 -0.0083  0.1565
   65SAPC  H11R 5330   6.094   5.700   3.070  0.6746 -1.5010 -0.5779
   65SAPC  C212 5331   6.270   5.635   3.165  0.7603 -0.1091  0.4579
   65SAPC  H12R 5332   6.313   5.628   3.064 -1.6128 -0.8912 -0.5685
   65SAPC  C213 5333   6.369   5.634   3.280  0.8493  0.3642 -0.8949
   65SAPC  H13R 5334   6.377   5.529   3.316 -0.2663  0.6482  0.2473
   65SAPC  H13S 5335   6.321   5.680   3.369 -0.1167 -2.8793  0.4462
   65SAPC  C214 5336   6.511   5.694   3.257 -0.3720  0.2156  0.5135
   65SAPC  H14R 5337   6.504   5.803   3.246  0.3984 -0.0236 -3.6700
   65SAPC  C215 5338   6.632   5.631   3.236 -0.7423  0.1658  0.0084
   65SAPC  H15R 5339   6.723   5.692   3.233  0.7650 -2.0631 -1.9593
   65SAPC  C216 5340   6.641   5.477   3.227 -0.5020  0.3005 -0.1276
   65SAPC  H16R 5341   6.689   5.452   3.130  1.4801  1.8987  0.3663
   65SAPC  H16S 5342   6.541   5.429   3.228 -0.7665  0.8276  1.3543
   65SAPC  C217 5343   6.716   5.415   3.350  0.1554 -0.4306  0.6154
   65SAPC  H17R 5344   6.655   5.434   3.441 -1.2189  2.7536 -0.8136
   65SAPC  H17S 5345   6.807   5.476   3.370  2.3394 -3.7578  1.7516
   65SAPC  C218 5346   6.759   5.264   3.338 -0.3007 -0.1580 -0.1265
   65SAPC  H18R 5347   6.809   5.263   3.238  1.5313  0.1735  0.7508
   65SAPC  H18S 5348   6.675   5.192   3.332  1.1965 -2.0416  0.3422
   65SAPC  C219 5349   6.852   5.218   3.449 -0.4323  0.2234  0.4638
   65SAPC  H19R 5350   6.939   5.287   3.452 -0.6067  0.4310  0.8456
   65SAPC  H19S 5351   6.895   5.119   3.423  0.5825  1.3758 -2.8176
   65SAPC  C220 5352   6.787   5.210   3.584 -0.4473 -0.1861 -0.4635
   65SAPC  H20R 5353   6.862   5.168   3.654  1.6340  0.5008 -2.1712
   65SAPC  H20S 5354   6.687   5.163   3.582 -1.3907  1.6508  0.4934
   65SAPC  H20T 5355   6.760   5.309   3.626  1.2824  0.8499 -1.6612
   65SAPC   C33 5356   5.439   6.034   2.972 -0.2437 -0.5226 -0.1766
   65SAPC   H3X 5357   5.349   6.098   2.969  1.3418  1.8035 -2.4336
   65SAPC   H3Y 5358   5.522   6.099   2.936 -0.0056  0.0103  1.2564
   65SAPC   C34 5359   5.473   5.981   3.108  0.2233 -0.2797 -0.5257
   65SAPC   H4X 5360   5.554   5.905   3.109 -0.4203 -1.0202  1.8120
   65SAPC   H4Y 5361   5.383   5.927   3.144  1.7705 -1.2715  2.0904
   65SAPC   C35 5362   5.516   6.093   3.204  0.3333  0.0572 -1.0967
   65SAPC   H5X 5363   5.439   6.174   3.210 -0.7131 -1.0335  1.5612
   65SAPC   H5Y 5364   5.615   6.125   3.166 -0.0146 -0.8013 -2.8056
   65SAPC   C36 5365   5.539   6.023   3.340  1.1961  0.3026 -0.6010
   65SAPC   H6X 5366   5.613   5.941   3.348  2.2338  1.3679  1.3739
   65SAPC   H6Y 5367   5.441   5.970   3.347  0.1773  2.0133 -1.2315
   65SAPC   C37 5368   5.547   6.119   3.460  0.2989  0.5720 -0.2956
   65SAPC   H7X 5369   5.462   6.191   3.462 -0.7459 -0.6117 -0.1193
   65SAPC   H7Y 5370   5.649   6.161   3.461  1.6680 -2.4407  2.5554
   65SAPC   C38 5371   5.550   6.045   3.599 -0.0173 -0.3720  0.5419
   65SAPC   H8X 5372   5.644   5.986   3.601  1.8537  2.4370  0.7676
   65SAPC   H8Y 5373   5.468   5.971   3.601 -0.5821  0.2053 -0.3126
   65SAPC   C39 5374   5.535   6.130   3.730 -0.0633 -0.0164  0.6800
   65SAPC   H9X 5375   5.444   6.193   3.724 -1.2272 -1.5481  1.6592
   65SAPC   H9Y 5376   5.619   6.203   3.725  1.2359 -1.4825 -4.4111
   65SAPC  C310 5377   5.529   6.060   3.861  0.6582 -0.3261 -0.5799
   65SAPC  H10X 5378   5.443   5.990   3.867 -1.2561  1.9700  0.4070
   65SAPC  H10Y 5379   5.506   6.137   3.937  0.4098  1.5615 -2.4614
   65SAPC  C311 5380   5.660   5.990   3.907  0.1227  0.6649  0.5130
   65SAPC  H11X 5381   5.694   5.927   3.822 -2.3541 -0.6240  0.3980
   65SAPC  H11Y 5382   5.639   5.920   3.990  0.1703  0.9175  0.7406
   65SAPC  C312 5383   5.767   6.081   3.951 -0.1665 -0.3497 -0.8855
   65SAPC  H12X 5384   5.790   6.153   3.869  3.4476 -1.3900 -0.9433
   65SAPC  H12Y 5385   5.865   6.031   3.967  0.0512 -0.0195 -1.1593
   65SAPC  C313 5386   5.746   6.143   4.091  0.6100  0.3136 -0.1526
   65SAPC  H13X 5387   5.711   6.061   4.157  1.2825  0.1723  0.0404
   65SAPC  H13Y 5388   5.660   6.213   4.090  1.3390  1.3078  1.6581
   65SAPC  C314 5389   5.870   6.214   4.143 -0.0083 -0.7770  0.2377
   65SAPC  H14X 5390   5.901   6.294   4.072  0.7268 -0.7074  0.6262
   65SAPC  H14Y 5391   5.956   6.144   4.135  0.7292  0.2712 -1.4339
   65SAPC  C315 5392   5.842   6.275   4.276 -0.0618  0.0281 -0.1204
   65SAPC  H15X 5393   5.828   6.182   4.336  4.2234 -0.4612  0.4991
   65SAPC  H15Y 5394   5.755   6.344   4.276  0.2981  0.5142  0.9508
   65SAPC  C316 5395   5.959   6.360   4.328  0.0829 -0.1288 -0.2408
   65SAPC  H16X 5396   5.969   6.459   4.279  0.4929 -0.6943 -1.3337
   65SAPC  H16Y 5397   6.053   6.302   4.315 -0.9190 -1.8809 -0.0752
   65SAPC  C317 5398   5.941   6.405   4.478  0.4249 -0.1156  0.3839
   65SAPC  H17X 5399   5.924   6.311   4.536 -0.5707 -0.8262 -0.9768
   65SAPC  H17Y 5400   5.848   6.463   4.493  0.5966 -0.0579  1.3222
   65SAPC  C318 5401   6.055   6.477   4.543  0.4185 -0.0734  0.1900
   65SAPC  H18X 5402   6.154   6.426   4.545  0.1964 -0.5015  2.0777
   65SAPC  H18Y 5403   6.038   6.495   4.652  2.9080 -1.1991  0.8388
   65SAPC  H18Z 5404   6.073   6.573   4.490 -0.2956 -0.4137 -0.6945
   66SAPC     N 5405   0.713   4.779   2.082 -0.3072 -0.4956  0.0330
   66SAPC   C12 5406   0.648   4.679   2.178 -0.3392  0.3616  0.0431
   66SAPC  H12A 5407   0.564   4.634   2.128 -0.6965  0.7458  0.2953
   66SAPC  H12B 5408   0.600   4.735   2.257 -2.7318 -2.5924  0.8527
   66SAPC   C13 5409   0.834   4.834   2.148  0.5542  0.2905 -0.6840
   66SAPC  H13A 5410   0.901   4.882   2.078  1.3869  1.8216  1.0350
   66SAPC  H13B 5411   0.807   4.924   2.202 -0.2443 -0.2364 -0.1876
   66SAPC  H13C 5412   0.889   4.779   2.224  1.1953  2.1630  0.2889
   66SAPC   C14 5413   0.755   4.725   1.953 -0.0754 -0.1154 -0.7417
   66SAPC  H14A 5414   0.674   4.698   1.887 -0.6568 -0.2563  0.0210
   66SAPC  H14B 5415   0.826   4.792   1.906  0.5411 -0.4720 -0.3400
   66SAPC  H14C 5416   0.794   4.626   1.970 -2.3847 -0.8711  0.4946
   66SAPC   C15 5417   0.629   4.892   2.043 -0.8861  0.7026 -0.0490
   66SAPC  H15A 5418   0.677   4.958   1.972  0.7182  0.5772  0.8727
   66SAPC  H15B 5419   0.537   4.859   1.996 -0.1083 -2.0362  0.1896
   66SAPC  H15C 5420   0.606   4.949   2.131  0.2931 -2.3633  2.4027
   66SAPC   C11 5421   0.724   4.564   2.240 -0.1696 -0.1405 -0.0091
   66SAPC  H11A 5422   0.649   4.503   2.295  0.0657 -1.6487 -1.2783
   66SAPC  H11B 5423   0.794   4.610   2.312 -0.0774 -1.6540  0.9203
   66SAPC     P 5424   0.759   4.364   2.074 -0.0516 -0.0081 -0.5129
   66SAPC   O13 5425   0.616   4.359   2.045  0.7067  0.4905  0.5376
   66SAPC   O14 5426   0.847   4.339   1.963  0.2759 -0.4299 -0.5818
   66SAPC   O12 5427   0.797   4.500   2.130 -0.0735 -0.0279  0.0183
   66SAPC   O11 5428   0.798   4.265   2.189  0.1366  0.2105 -0.2509
   66SAPC    C1 5429   0.941   4.254   2.215 -0.2483  0.0449 -0.0189
   66SAPC    HA 5430   0.994   4.185   2.146  2.0401  1.1204  0.5712
   66SAPC    HB 5431   0.987   4.355   2.205 -1.5377  0.6872  0.3424
   66SAPC    C2 5432   0.958   4.224   2.366 -0.2519  0.2071 -0.0856
   66SAPC    HS 5433   1.067   4.233   2.389  0.0741  0.8249 -1.7422
   66SAPC   O21 5434   0.916   4.093   2.406  0.3095  0.2967 -0.2420
   66SAPC   C21 5435   0.992   3.989   2.369  0.1786 -0.1503  0.1833
   66SAPC   O22 5436   1.090   4.001   2.298  0.0948 -0.4259  0.3758
   66SAPC   C22 5437   0.931   3.861   2.398 -0.1676  0.4176  0.2679
   66SAPC   H2R 5438   0.823   3.864   2.372 -0.0116 -1.6466 -0.8724
   66SAPC   H2S 5439   0.970   3.768   2.351  1.7588  1.3488 -0.0622
   66SAPC    C3 5440   0.877   4.327   2.450  0.0212  0.6471  0.3634
   66SAPC    HX 5441   0.771   4.310   2.420 -0.2939 -2.0474  2.5628
   66SAPC    HY 5442   0.903   4.431   2.424 -0.3740  0.4829 -0.7880
   66SAPC   O31 5443   0.890   4.301   2.589  0.1315  0.5201  0.3486
   66SAPC   C31 5444   0.790   4.218   2.643  0.2713 -0.1942 -0.6799
   66SAPC   O32 5445   0.686   4.184   2.581  0.1537 -0.1052  0.0947
   66SAPC   C32 5446   0.834   4.168   2.779 -0.1345 -0.8513 -0.7389
   66SAPC   H2X 5447   0.875   4.250   2.841  1.5255 -1.5639 -0.8322
   66SAPC   H2Y 5448   0.911   4.088   2.775  0.1317 -0.6468  0.1426
   66SAPC   C23 5449   0.918   3.834   2.548  0.6944  0.1490  0.3139
   66SAPC   H3R 5450   0.843   3.752   2.557 -0.3859  1.0883 -0.0677
   66SAPC   H3S 5451   0.860   3.915   2.596  0.1958  0.0664 -0.1416
   66SAPC   C24 5452   1.047   3.797   2.625  0.9782  0.2459 -0.7953
   66SAPC   H4R 5453   1.109   3.888   2.635 -0.4973  1.1527  0.6765
   66SAPC   H4S 5454   1.088   3.722   2.554  0.4076  0.1238 -1.0011
   66SAPC   C25 5455   1.006   3.749   2.762 -0.7333  0.0214 -0.2633
   66SAPC   H5R 5456   0.952   3.826   2.818 -2.4524 -0.2054 -1.4992
   66SAPC   C26 5457   1.027   3.624   2.808 -0.2229 -0.6533 -0.0770
   66SAPC   H6R 5458   0.988   3.595   2.907 -0.1715 -0.1537  0.0938
   66SAPC   C27 5459   1.112   3.519   2.730 -0.8856 -0.1539 -0.2688
   66SAPC   H7R 5460   1.169   3.465   2.809 -2.1311  1.0511  1.5344
   66SAPC   H7S 5461   1.180   3.572   2.660 -1.4908 -0.4286 -1.0744
   66SAPC   C28 5462   1.026   3.421   2.659 -0.9665  0.4377 -0.1459
   66SAPC   H8R 5463   0.993   3.461   2.562  1.1443 -1.2762 -1.6870
   66SAPC   C29 5464   0.970   3.307   2.705  0.4263  0.6833 -0.5570
   66SAPC   H9R 5465   0.910   3.250   2.632  0.9705  1.8349 -1.9384
   66SAPC  C210 5466   0.991   3.239   2.837 -0.2927 -0.7148 -0.3418
   66SAPC  H10R 5467   1.101   3.230   2.849 -0.3689  0.8044  2.3187
   66SAPC  H10S 5468   0.961   3.132   2.832  3.0324 -1.7794 -0.3080
   66SAPC  C211 5469   0.948   3.318   2.956 -0.3292 -0.1522  1.2321
   66SAPC  H11R 5470   0.857   3.374   2.929  0.7100  0.0658 -2.1891
   66SAPC  C212 5471   1.007   3.344   3.071  0.0788 -0.9010 -0.1411
   66SAPC  H12R 5472   0.948   3.413   3.133 -0.7383  1.1010 -2.9575
   66SAPC  C213 5473   1.140   3.294   3.129 -0.5429  0.3116 -0.6927
   66SAPC  H13R 5474   1.201   3.386   3.139  0.7630 -0.5465 -0.4664
   66SAPC  H13S 5475   1.202   3.243   3.053  0.7842  0.7742  0.0356
   66SAPC  C214 5476   1.138   3.224   3.270 -0.6531 -0.0988  0.1788
   66SAPC  H14R 5477   1.094   3.123   3.268  0.8979 -0.8044 -1.1126
   66SAPC  C215 5478   1.172   3.273   3.393  0.1865 -0.1255  0.0637
   66SAPC  H15R 5479   1.165   3.209   3.482 -1.4820  0.0314  0.0821
   66SAPC  C216 5480   1.227   3.407   3.423 -0.3815  0.1567  0.0899
   66SAPC  H16R 5481   1.157   3.489   3.451  0.1882  0.6273  0.1450
   66SAPC  H16S 5482   1.275   3.455   3.335 -1.7463  1.4505  0.0210
   66SAPC  C217 5483   1.337   3.396   3.528 -0.6290 -0.8879  1.0662
   66SAPC  H17R 5484   1.397   3.488   3.513  1.1944 -2.1556  0.2814
   66SAPC  H17S 5485   1.410   3.314   3.510 -0.2251 -0.2649 -0.2671
   66SAPC  C218 5486   1.269   3.393   3.663 -0.5938 -0.0626 -0.3106
   66SAPC  H18R 5487   1.191   3.315   3.670  0.3518 -0.8788  2.4378
   66SAPC  H18S 5488   1.213   3.486   3.687 -0.9261 -0.4505  0.4655
   66SAPC  C219 5489   1.369   3.369   3.770 -0.0075 -0.1450  0.4518
   66SAPC  H19R 5490   1.450   3.445   3.765  0.1945 -0.3901 -3.8005
   66SAPC  H19S 5491   1.413   3.269   3.751 -0.2171 -0.2314  0.4147
   66SAPC  C220 5492   1.311   3.361   3.914 -0.3501 -0.7075 -0.0883
   66SAPC  H20R 5493   1.245   3.273   3.930 -0.9631 -0.0793  0.8981
   66SAPC  H20S 5494   1.260   3.454   3.944  0.5159 -0.0153 -0.6893
   66SAPC  H20T 5495   1.395   3.347   3.986 -0.6121  0.7434  0.5266
   66SAPC   C33 5496   0.723   4.104   2.871 -0.5886 -0.1806 -0.4020
   66SAPC   H3X 5497   0.703   4.010   2.816  0.4145 -1.2433  0.9986
   66SAPC   H3Y 5498   0.637   4.175   2.876 -0.4336 -0.0165  0.0432
   66SAPC   C34 5499   0.771   4.090   3.014  0.2292  1.0404 -0.4575
   66SAPC   H4X 5500   0.674   4.065   3.061 -0.5519 -1.9627 -3.2917
   66SAPC   H4Y 5501   0.814   4.188   3.045 -0.3829  1.1804 -0.0391
   66SAPC   C35 5502   0.871   3.985   3.041 -0.3489  0.0124 -0.1075
   66SAPC   H5X 5503   0.962   3.986   2.977  1.6570 -1.5316  2.5087
   66SAPC   H5Y 5504   0.824   3.889   3.009  1.5491 -0.8111 -0.5427
   66SAPC   C36 5505   0.906   3.976   3.189  0.3408 -0.0100  0.0769
   66SAPC   H6X 5506   0.806   3.989   3.236  0.2601  0.0367 -0.1059
   66SAPC   H6Y 5507   0.956   4.070   3.221  1.1274 -1.2644  2.8049
   66SAPC   C37 5508   0.984   3.855   3.241  0.0016  0.0179 -0.3068
   66SAPC   H7X 5509   1.090   3.888   3.246 -0.4386  1.8867 -1.8931
   66SAPC   H7Y 5510   0.990   3.778   3.162  0.3523 -0.6631  0.3711
   66SAPC   C38 5511   0.924   3.816   3.374  0.0819 -0.8445 -0.2409
   66SAPC   H8X 5512   0.988   3.734   3.413  0.4185 -0.9401 -0.9767
   66SAPC   H8Y 5513   0.822   3.777   3.356 -0.0626  0.0035 -1.3707
   66SAPC   C39 5514   0.921   3.928   3.479 -0.1658 -0.0121 -0.2345
   66SAPC   H9X 5515   0.851   4.009   3.449 -0.3714  0.5477  1.6495
   66SAPC   H9Y 5516   1.021   3.974   3.492  0.0459 -0.9063  1.5950
   66SAPC  C310 5517   0.880   3.872   3.619  0.4672 -0.1000  0.0243
   66SAPC  H10X 5518   0.952   3.801   3.665  0.0453  0.8811  2.3337
   66SAPC  H10Y 5519   0.784   3.821   3.601 -0.8541  1.6475  1.7269
   66SAPC  C311 5520   0.870   3.979   3.723 -0.4384 -1.1886  0.2571
   66SAPC  H11X 5521   0.832   3.931   3.816 -2.3864  1.9389  1.2183
   66SAPC  H11Y 5522   0.804   4.061   3.688  0.4511 -0.9232 -0.8394
   66SAPC  C312 5523   1.002   4.049   3.750  0.0489 -0.0987  0.3822
   66SAPC  H12X 5524   1.047   4.101   3.663  1.9114  0.0177  1.3536
   66SAPC  H12Y 5525   1.082   3.980   3.783 -0.6058 -1.3065 -0.5157
   66SAPC  C313 5526   0.994   4.136   3.879  0.2996 -0.5028  0.4976
   66SAPC  H13X 5527   1.008   4.070   3.968 -1.7741 -0.6191  0.7987
   66SAPC  H13Y 5528   0.892   4.181   3.891  1.4075  1.5992  3.0805
   66SAPC  C314 5529   1.090   4.257   3.892 -0.3912 -0.0394  0.0313
   66SAPC  H14X 5530   1.080   4.307   3.991  0.7098  1.2539 -0.4698
   66SAPC  H14Y 5531   1.057   4.329   3.814  1.2593  0.6565 -0.0852
   66SAPC  C315 5532   1.243   4.212   3.869 -0.3076  0.2474 -0.7321
   66SAPC  H15X 5533   1.256   4.167   3.768  0.4467 -3.1842  0.7277
   66SAPC  H15Y 5534   1.261   4.126   3.937 -0.7302  1.4023  0.9003
   66SAPC  C316 5535   1.348   4.325   3.894 -0.0383  0.4942  0.0592
   66SAPC  H16X 5536   1.314   4.373   3.988 -1.1733  0.5797 -0.3868
   66SAPC  H16Y 5537   1.337   4.410   3.824 -0.4299 -0.4385 -1.0317
   66SAPC  C317 5538   1.490   4.267   3.895  0.2756  0.1231 -0.0709
   66SAPC  H17X 5539   1.509   4.206   3.987  0.6308  0.8009  0.3151
   66SAPC  H17Y 5540   1.555   4.357   3.899 -0.0898  0.3520  1.1200
   66SAPC  C318 5541   1.537   4.193   3.765  0.3490 -0.0658  0.1729
   66SAPC  H18X 5542   1.648   4.195   3.753  0.3664  0.7873  0.3994
   66SAPC  H18Y 5543   1.497   4.244   3.675 -0.1297  0.6854  0.7948
   66SAPC  H18Z 5544   1.508   4.086   3.756 -0.9657  0.4529 -3.1222
   67SAPC     N 5545   6.364   0.163   2.103 -0.1394  0.1783 -0.1074
   67SAPC   C12 5546   6.497   0.198   2.167  0.0952  0.8957  0.2540
   67SAPC  H12A 5547   6.557   0.256   2.099 -1.8222 -0.3251 -2.6750
   67SAPC  H12B 5548   6.550   0.106   2.186  0.2118  0.7960 -0.5390
   67SAPC   C13 5549   6.390   0.072   1.990  0.0874 -0.5124  0.0227
   67SAPC  H13A 5550   6.291   0.046   1.955  0.5355 -1.8578 -0.3076
   67SAPC  H13B 5551   6.435   0.123   1.907  0.3646 -1.7722 -0.6386
   67SAPC  H13C 5552   6.443  -0.020   2.011  1.1097  0.0828  0.1249
   67SAPC   C14 5553   6.274   0.090   2.202 -0.4524 -0.1724  0.3071
   67SAPC  H14A 5554   6.181   0.072   2.150  0.5641 -3.4076 -0.6390
   67SAPC  H14B 5555   6.331   0.003   2.231  1.4250  1.5984  2.2199
   67SAPC  H14C 5556   6.257   0.143   2.294  2.5253 -0.7077  1.2598
   67SAPC   C15 5557   6.292   0.283   2.049  0.6149 -0.5165  0.2323
   67SAPC  H15A 5558   6.288   0.349   2.134  0.4234 -0.4806  0.1943
   67SAPC  H15B 5559   6.340   0.332   1.965 -1.2666  2.5083  0.7780
   67SAPC  H15C 5560   6.192   0.255   2.021  1.5789 -3.1925 -0.9130
   67SAPC   C11 5561   6.492   0.275   2.299 -1.1502 -0.0170 -0.1361
   67SAPC  H11A 5562   6.584   0.265   2.360 -1.9660 -0.4022  1.0832
   67SAPC  H11B 5563   6.410   0.239   2.366 -1.9903  0.0913 -1.0812
   67SAPC     P 5564   6.565   0.523   2.287 -0.2824  0.3127  0.4753
   67SAPC   O13 5565   6.674   0.495   2.188  0.1561 -0.2000  0.1394
   67SAPC   O14 5566   6.512   0.662   2.271  0.9101  0.4077  0.3993
   67SAPC   O12 5567   6.452   0.414   2.276  0.2892  1.0829 -0.5676
   67SAPC   O11 5568   6.627   0.506   2.428 -0.3796 -0.3545 -0.0418
   67SAPC    C1 5569   6.523   0.510   2.530 -0.2705 -0.1608 -0.6834
   67SAPC    HA 5570   6.465   0.604   2.533  0.5850  0.3711 -0.4525
   67SAPC    HB 5571   6.458   0.421   2.513 -0.9704  0.0507  0.7500
   67SAPC    C2 5572   6.578   0.490   2.678  0.1089  0.1153 -0.7619
   67SAPC    HS 5573   6.666   0.554   2.700  0.7466 -1.3746  1.3472
   67SAPC   O21 5574   6.621   0.353   2.693  0.3580 -0.3942 -0.3334
   67SAPC   C21 5575   6.745   0.324   2.665 -0.1834  0.5985  0.1439
   67SAPC   O22 5576   6.840   0.402   2.644 -0.1310 -0.1250 -0.0821
   67SAPC   C22 5577   6.765   0.170   2.666  0.6446  0.1884  0.0115
   67SAPC   H2R 5578   6.704   0.121   2.587  0.9946 -0.6408  0.2440
   67SAPC   H2S 5579   6.873   0.163   2.644  0.5156  2.6733 -1.8523
   67SAPC    C3 5580   6.462   0.526   2.779 -0.6527 -0.3123  0.2613
   67SAPC    HX 5581   6.364   0.500   2.733 -0.1911  0.5071 -1.2237
   67SAPC    HY 5582   6.456   0.635   2.798 -0.2357 -0.2930  0.2772
   67SAPC   O31 5583   6.473   0.449   2.905  0.5342 -0.1139  0.4368
   67SAPC   C31 5584   6.565   0.496   2.988  0.5545  0.1051  0.2767
   67SAPC   O32 5585   6.646   0.584   2.973  0.1655  0.3860  0.1453
   67SAPC   C32 5586   6.565   0.396   3.106 -0.6149  0.1697 -0.9992
   67SAPC   H2X 5587   6.619   0.302   3.082  0.4213 -0.6056  3.3788
   67SAPC   H2Y 5588   6.456   0.378   3.119 -0.7285  2.7022  3.7708
   67SAPC   C23 5589   6.720   0.104   2.801 -0.3419  0.5471  0.2451
   67SAPC   H3R 5590   6.614   0.125   2.827 -1.0005  1.2571 -2.7211
   67SAPC   H3S 5591   6.790   0.153   2.872  1.4043  3.0408 -2.9620
   67SAPC   C24 5592   6.740  -0.049   2.805 -0.2380 -0.1310 -0.1110
   67SAPC   H4R 5593   6.739  -0.079   2.912  3.0235  2.1608  0.7449
   67SAPC   H4S 5594   6.844  -0.071   2.773  0.1466 -0.2047  1.1090
   67SAPC   C25 5595   6.640  -0.126   2.733 -0.0672  0.5080  0.7868
   67SAPC   H5R 5596   6.627  -0.103   2.626  0.3337  1.1379  0.8668
   67SAPC   C26 5597   6.552  -0.215   2.781 -0.1010 -0.3954  0.4770
   67SAPC   H6R 5598   6.483  -0.261   2.709  2.1749 -2.4445 -0.5419
   67SAPC   C27 5599   6.542  -0.257   2.925  0.4962  0.6031  0.1098
   67SAPC   H7R 5600   6.466  -0.197   2.980 -0.7540  0.5237 -1.4505
   67SAPC   H7S 5601   6.642  -0.250   2.972 -0.0082 -0.5533  1.4278
   67SAPC   C28 5602   6.504  -0.404   2.925 -0.1653 -0.1053  0.6557
   67SAPC   H8R 5603   6.530  -0.457   2.832  0.1666  0.7627  0.2416
   67SAPC   C29 5604   6.446  -0.480   3.019 -0.2096 -0.1492 -0.0249
   67SAPC   H9R 5605   6.424  -0.584   2.992 -1.6094  0.8602 -3.4462
   67SAPC  C210 5606   6.418  -0.434   3.157  0.0972 -0.3155  0.2926
   67SAPC  H10R 5607   6.346  -0.503   3.206  0.4617  0.2990  1.7143
   67SAPC  H10S 5608   6.368  -0.335   3.149 -0.1875 -0.4089  0.9319
   67SAPC  C211 5609   6.544  -0.405   3.236 -0.8511 -0.1185  0.5708
   67SAPC  H11R 5610   6.626  -0.348   3.189  0.1251 -2.9347 -1.4028
   67SAPC  C212 5611   6.586  -0.445   3.356  1.2906 -0.0090 -0.6292
   67SAPC  H12R 5612   6.676  -0.399   3.400  1.2695 -0.6403  0.1056
   67SAPC  C213 5613   6.508  -0.534   3.445  0.4936  0.3548  0.3104
   67SAPC  H13R 5614   6.570  -0.602   3.507  0.4235  0.5446  0.5896
   67SAPC  H13S 5615   6.439  -0.599   3.387  0.4095  1.5901 -1.0636
   67SAPC  C214 5616   6.422  -0.447   3.535 -0.1819 -0.3938  0.1615
   67SAPC  H14R 5617   6.353  -0.379   3.484  1.2419  0.5205 -0.6266
   67SAPC  C215 5618   6.419  -0.444   3.665 -0.1140  0.0155 -0.2762
   67SAPC  H15R 5619   6.350  -0.372   3.711 -0.6645  0.0210 -1.0881
   67SAPC  C216 5620   6.505  -0.526   3.759 -0.1820 -0.3213 -0.2710
   67SAPC  H16R 5621   6.583  -0.580   3.701  0.3485  2.4051 -2.3139
   67SAPC  H16S 5622   6.441  -0.608   3.797  0.3134 -1.1362 -1.1679
   67SAPC  C217 5623   6.567  -0.439   3.871  0.1959  0.9412  0.6182
   67SAPC  H17R 5624   6.487  -0.396   3.937  0.7723  0.5879  1.5673
   67SAPC  H17S 5625   6.632  -0.355   3.838 -1.9373  1.6994 -2.0112
   67SAPC  C218 5626   6.653  -0.527   3.962  0.5417  0.2720  0.3464
   67SAPC  H18R 5627   6.735  -0.558   3.894 -0.2459  2.4707 -1.7592
   67SAPC  H18S 5628   6.584  -0.608   3.995  0.1106  0.4801 -0.0418
   67SAPC  C219 5629   6.717  -0.450   4.073  0.0069 -0.3648 -0.9583
   67SAPC  H19R 5630   6.632  -0.398   4.121 -0.1002 -1.9028  0.6128
   67SAPC  H19S 5631   6.788  -0.375   4.031 -0.7375  0.3449 -0.9673
   67SAPC  C220 5632   6.798  -0.544   4.170 -0.6750  0.1703  0.0368
   67SAPC  H20R 5633   6.727  -0.622   4.204 -1.6220  0.3622 -1.4168
   67SAPC  H20S 5634   6.848  -0.498   4.258 -0.2600 -3.2094  1.7280
   67SAPC  H20T 5635   6.868  -0.598   4.103  0.4376  1.8070 -0.1837
   67SAPC   C33 5636   6.630   0.458   3.234  0.2501 -0.2939 -0.4011
   67SAPC   H3X 5637   6.611   0.567   3.234 -2.6456 -0.6352 -2.8199
   67SAPC   H3Y 5638   6.740   0.446   3.231  0.3321  0.4164 -0.2421
   67SAPC   C34 5639   6.580   0.406   3.370 -0.3934 -0.6470 -0.4483
   67SAPC   H4X 5640   6.579   0.295   3.362 -0.3548 -1.0351  3.0395
   67SAPC   H4Y 5641   6.471   0.423   3.386 -0.2546  2.1420 -1.9672
   67SAPC   C35 5642   6.654   0.446   3.502  0.3526 -0.2538 -0.1374
   67SAPC   H5X 5643   6.760   0.415   3.498 -0.4690 -3.6606  0.9984
   67SAPC   H5Y 5644   6.611   0.384   3.583 -2.6901  0.3258 -1.1586
   67SAPC   C36 5645   6.636   0.593   3.539 -0.0507  0.9931 -0.0164
   67SAPC   H6X 5646   6.527   0.603   3.560 -0.3196 -1.2141 -0.1772
   67SAPC   H6Y 5647   6.662   0.657   3.452  1.3043 -0.1344 -0.4682
   67SAPC   C37 5648   6.731   0.638   3.654 -0.3602  0.5575 -0.0653
   67SAPC   H7X 5649   6.835   0.606   3.635 -1.0359 -3.3800  1.7805
   67SAPC   H7Y 5650   6.698   0.597   3.752  0.7300 -0.7912 -0.2408
   67SAPC   C38 5651   6.729   0.792   3.668  0.2653  0.1481  0.3578
   67SAPC   H8X 5652   6.624   0.829   3.671 -0.6492 -2.2914  1.7620
   67SAPC   H8Y 5653   6.765   0.830   3.570  0.5468  0.8480  0.7217
   67SAPC   C39 5654   6.808   0.846   3.787 -0.1358  0.7203  0.3910
   67SAPC   H9X 5655   6.909   0.805   3.768 -1.3633 -1.7965 -1.2339
   67SAPC   H9Y 5656   6.783   0.810   3.889  1.0418 -0.3725  0.3113
   67SAPC  C310 5657   6.816   1.003   3.778  0.9425 -0.1552 -0.0370
   67SAPC  H10X 5658   6.717   1.053   3.768  3.0946  4.3970 -1.1492
   67SAPC  H10Y 5659   6.872   1.022   3.684  0.8679  0.4787  0.0440
   67SAPC  C311 5660   6.889   1.060   3.902 -0.1797  0.0060 -0.0692
   67SAPC  H11X 5661   6.981   0.998   3.910 -0.0258  0.4406  2.0396
   67SAPC  H11Y 5662   6.836   1.032   3.996  0.4956 -0.2165  0.2582
   67SAPC  C312 5663   6.932   1.208   3.893  0.5443 -0.5900  0.3006
   67SAPC  H12X 5664   6.843   1.272   3.911 -0.7915 -2.8117  2.2332
   67SAPC  H12Y 5665   6.984   1.223   3.796  0.9155 -0.8472  0.4595
   67SAPC  C313 5666   7.028   1.252   4.001  0.4366  0.6469  0.2316
   67SAPC  H13X 5667   7.081   1.341   3.960  0.5084  0.9406  0.9449
   67SAPC  H13Y 5668   7.105   1.172   4.000 -0.8813 -0.6481 -0.4234
   67SAPC  C314 5669   6.957   1.278   4.129 -0.4122  0.2986  0.2203
   67SAPC  H14X 5670   6.929   1.175   4.163  0.1790  0.0575 -0.0188
   67SAPC  H14Y 5671   6.869   1.346   4.122  1.8806  3.4797  0.7481
   67SAPC  C315 5672   7.053   1.326   4.245 -0.1859 -0.4259  0.8917
   67SAPC  H15X 5673   7.001   1.335   4.343 -0.4623  2.2139  0.5764
   67SAPC  H15Y 5674   7.102   1.424   4.228 -1.6388 -0.2237 -2.9603
   67SAPC  C316 5675   7.166   1.230   4.261  0.9744  0.6144 -0.7364
   67SAPC  H16X 5676   7.247   1.235   4.185  1.0437 -0.2744 -0.7292
   67SAPC  H16Y 5677   7.111   1.134   4.255  1.7758  0.0840  0.2380
   67SAPC  C317 5678   7.235   1.259   4.395 -1.2289  0.5317  0.1591
   67SAPC  H17X 5679   7.166   1.231   4.477  0.8374 -2.8788  0.9284
   67SAPC  H17Y 5680   7.262   1.367   4.399  0.1272  0.1867  1.1376
   67SAPC  C318 5681   7.351   1.161   4.423 -0.3090 -1.0045  0.0837
   67SAPC  H18X 5682   7.404   1.200   4.513  0.5658  1.3988 -1.3552
   67SAPC  H18Y 5683   7.416   1.164   4.333  0.2101  0.3415  0.4803
   67SAPC  H18Z 5684   7.312   1.060   4.445 -2.1154 -0.2076  0.7227
   68SAPC     N 5685   5.998   1.106   2.114 -0.3382  0.6591  0.0563
   68SAPC   C12 5686   6.038   1.117   1.964  0.0791  0.5859 -0.2501
   68SAPC  H12A 5687   5.955   1.166   1.916 -0.3498 -0.6975 -0.8374
   68SAPC  H12B 5688   6.046   1.019   1.921  1.7023  0.4118  0.3820
   68SAPC   C13 5689   5.975   1.245   2.171  0.0412  0.2501 -0.6343
   68SAPC  H13A 5690   5.963   1.236   2.278 -0.6636  1.7534 -0.5608
   68SAPC  H13B 5691   6.056   1.313   2.152  1.9121 -2.5592 -3.8941
   68SAPC  H13C 5692   5.883   1.290   2.139 -0.3945  0.1711  0.4475
   68SAPC   C14 5693   5.877   1.026   2.115 -0.2733  0.6281  0.0923
   68SAPC  H14A 5694   5.835   1.015   2.214 -0.1754  2.3315  0.3509
   68SAPC  H14B 5695   5.792   1.080   2.077  1.6176  4.2036  0.5602
   68SAPC  H14C 5696   5.894   0.922   2.091  2.0240  0.2292  2.8216
   68SAPC   C15 5697   6.112   1.045   2.193 -0.4885 -0.2225  0.3344
   68SAPC  H15A 5698   6.088   1.011   2.292 -0.5604 -0.1268  0.3493
   68SAPC  H15B 5699   6.161   0.962   2.142  0.3600  0.3259  0.2329
   68SAPC  H15C 5700   6.185   1.122   2.213 -0.0604 -0.8307  1.1797
   68SAPC   C11 5701   6.172   1.185   1.933  0.8127 -0.6652 -0.0291
   68SAPC  H11A 5702   6.179   1.185   1.822  1.5686  1.5848 -0.0203
   68SAPC  H11B 5703   6.262   1.130   1.968  2.9181  2.6410  0.1882
   68SAPC     P 5704   6.304   1.370   2.054 -0.3078 -0.0906  0.0136
   68SAPC   O13 5705   6.424   1.319   1.991  0.3832 -0.1349 -0.3329
   68SAPC   O14 5706   6.296   1.516   2.081  0.7639 -0.0814  0.2359
   68SAPC   O12 5707   6.173   1.325   1.976  0.2978  0.2119  0.1762
   68SAPC   O11 5708   6.279   1.306   2.197 -0.3482 -0.1510 -0.5043
   68SAPC    C1 5709   6.391   1.264   2.275  0.3071 -0.1850 -0.1028
   68SAPC    HA 5710   6.425   1.162   2.245 -2.2694 -1.2320  0.2405
   68SAPC    HB 5711   6.477   1.332   2.265 -1.0758  1.5513 -0.6130
   68SAPC    C2 5712   6.357   1.270   2.427 -0.3147 -0.0231  0.2535
   68SAPC    HS 5713   6.262   1.216   2.448 -0.6898  0.3310 -0.5101
   68SAPC   O21 5714   6.362   1.405   2.467  0.0614 -0.2260 -0.3487
   68SAPC   C21 5715   6.249   1.467   2.498  0.2653 -0.0206  0.0650
   68SAPC   O22 5716   6.136   1.425   2.476  0.1326 -0.7195 -0.3415
   68SAPC   C22 5717   6.289   1.599   2.565 -0.4153 -0.3594  0.7512
   68SAPC   H2R 5718   6.386   1.585   2.617 -1.1164  0.6678  2.4112
   68SAPC   H2S 5719   6.289   1.687   2.496 -0.2449 -0.0590  1.1279
   68SAPC    C3 5720   6.465   1.189   2.512 -0.5152  0.7174 -0.3713
   68SAPC    HX 5721   6.561   1.195   2.457 -0.0888 -1.5772  0.0432
   68SAPC    HY 5722   6.430   1.084   2.498 -0.3849  0.8805 -2.1714
   68SAPC   O31 5723   6.490   1.224   2.652 -0.4434 -0.0776 -0.7240
   68SAPC   C31 5724   6.397   1.184   2.736 -0.5440 -0.1140 -0.4834
   68SAPC   O32 5725   6.299   1.115   2.711  0.1040 -0.1101 -0.4562
   68SAPC   C32 5726   6.444   1.246   2.868  0.6073  0.0483  0.2848
   68SAPC   H2X 5727   6.509   1.335   2.857 -0.4676  0.7905 -0.2120
   68SAPC   H2Y 5728   6.500   1.166   2.921  1.1062  1.2524  1.6269
   68SAPC   C23 5729   6.184   1.639   2.668  0.0252  0.8228 -0.5824
   68SAPC   H3R 5730   6.165   1.564   2.748 -1.4849 -0.4877 -2.1032
   68SAPC   H3S 5731   6.086   1.661   2.619 -0.4516 -0.1694 -0.0971
   68SAPC   C24 5732   6.229   1.770   2.732  0.1121 -0.1021  0.0600
   68SAPC   H4R 5733   6.233   1.842   2.647 -0.2982 -1.7149 -1.3910
   68SAPC   H4S 5734   6.333   1.757   2.767  0.9873 -2.0920 -2.9133
   68SAPC   C25 5735   6.123   1.813   2.829  0.0095  0.3097 -0.3687
   68SAPC   H5R 5736   6.035   1.841   2.770  0.9053  2.3704 -0.8395
   68SAPC   C26 5737   6.137   1.828   2.963 -0.5482  0.0679 -0.9385
   68SAPC   H6R 5738   6.050   1.856   3.024  1.3835  0.5326  1.7698
   68SAPC   C27 5739   6.265   1.804   3.047  0.3527 -0.6849  0.4543
   68SAPC   H7R 5740   6.337   1.887   3.030  0.1581 -0.7086 -0.5465
   68SAPC   H7S 5741   6.331   1.729   2.998  2.3874  1.3957 -0.1651
   68SAPC   C28 5742   6.238   1.780   3.192  0.5711 -0.0659 -0.2309
   68SAPC   H8R 5743   6.176   1.691   3.212 -1.1658  1.3299  0.8114
   68SAPC   C29 5744   6.254   1.867   3.292 -0.3674 -0.3920  0.5964
   68SAPC   H9R 5745   6.231   1.841   3.396  0.9542  1.7800  1.5234
   68SAPC  C210 5746   6.316   2.002   3.274 -0.1505  0.4058 -0.1745
   68SAPC  H10R 5747   6.244   2.080   3.245 -1.0914  0.0785  1.1769
   68SAPC  H10S 5748   6.391   2.000   3.192 -1.2100  0.7328 -1.1753
   68SAPC  C211 5749   6.387   2.056   3.396 -0.7511  0.3252 -0.2137
   68SAPC  H11R 5750   6.496   2.038   3.401 -0.9108 -0.5203  0.3713
   68SAPC  C212 5751   6.322   2.124   3.497 -0.1951 -0.0167  0.5201
   68SAPC  H12R 5752   6.374   2.162   3.586  1.9457  0.2823 -0.7852
   68SAPC  C213 5753   6.172   2.132   3.523  0.8019 -0.0198  0.5534
   68SAPC  H13R 5754   6.108   2.086   3.446  1.2186  2.3874 -1.3809
   68SAPC  H13S 5755   6.157   2.242   3.511  2.5588  0.1319 -0.6623
   68SAPC  C214 5756   6.126   2.085   3.659  0.3654  0.7611  0.4694
   68SAPC  H14R 5757   6.053   2.004   3.645 -0.1735  1.3656 -0.2536
   68SAPC  C215 5758   6.148   2.138   3.778 -0.2298  0.2282 -0.0395
   68SAPC  H15R 5759   6.105   2.082   3.863 -2.0484  2.1069  0.3378
   68SAPC  C216 5760   6.220   2.264   3.818 -0.5359 -0.7038 -0.0709
   68SAPC  H16R 5761   6.152   2.341   3.859  0.2114 -0.0530 -0.0233
   68SAPC  H16S 5762   6.271   2.313   3.733  2.0920  1.6471  2.6151
   68SAPC  C217 5763   6.324   2.224   3.923  0.4012 -0.0942 -0.2866
   68SAPC  H17R 5764   6.384   2.316   3.935  1.9665 -1.0191 -0.7819
   68SAPC  H17S 5765   6.400   2.156   3.880 -0.4903 -1.6263  0.4637
   68SAPC  C218 5766   6.267   2.178   4.060  0.1721  0.0338  0.8085
   68SAPC  H18R 5767   6.251   2.068   4.062  1.0308 -0.0880  1.4963
   68SAPC  H18S 5768   6.170   2.230   4.076  0.6454  1.1772  0.1028
   68SAPC  C219 5769   6.362   2.209   4.177 -0.6173  0.1084 -0.1806
   68SAPC  H19R 5770   6.326   2.164   4.272  2.0043  1.5050  1.5836
   68SAPC  H19S 5771   6.373   2.318   4.191  0.1413  0.1211 -0.7908
   68SAPC  C220 5772   6.506   2.156   4.156 -0.6924  0.1303 -0.0437
   68SAPC  H20R 5773   6.514   2.053   4.115  2.1006 -0.2054  1.1500
   68SAPC  H20S 5774   6.569   2.173   4.246 -0.5960 -0.2153 -0.0406
   68SAPC  H20T 5775   6.563   2.209   4.077  1.1264 -1.2115  0.2973
   68SAPC   C33 5776   6.320   1.278   2.942  0.0710 -0.1894 -1.0579
   68SAPC   H3X 5777   6.269   1.186   2.976 -1.6253  1.0338 -0.1539
   68SAPC   H3Y 5778   6.246   1.332   2.879  0.0414 -1.8942 -2.5726
   68SAPC   C34 5779   6.350   1.357   3.077 -0.2758 -0.4690  0.2078
   68SAPC   H4X 5780   6.390   1.458   3.051  1.8306 -1.4351 -0.5383
   68SAPC   H4Y 5781   6.431   1.298   3.123  0.5391 -0.3235 -0.9928
   68SAPC   C35 5782   6.225   1.365   3.173 -0.1849 -0.4613 -0.1319
   68SAPC   H5X 5783   6.191   1.260   3.187  0.5145 -0.4110  2.4858
   68SAPC   H5Y 5784   6.137   1.418   3.131  0.2219  2.4479  2.3197
   68SAPC   C36 5785   6.252   1.420   3.315 -0.8885  0.6193  0.0520
   68SAPC   H6X 5786   6.287   1.525   3.324  0.2532  0.2775 -0.2685
   68SAPC   H6Y 5787   6.338   1.363   3.355 -2.0828 -0.0518  1.8249
   68SAPC   C37 5788   6.130   1.394   3.406 -0.7166 -0.0272  0.7104
   68SAPC   H7X 5789   6.095   1.289   3.396 -3.7363  0.8822  0.6530
   68SAPC   H7Y 5790   6.041   1.445   3.363  0.0562 -0.0384 -0.9970
   68SAPC   C38 5791   6.157   1.411   3.562  0.1701 -0.5070  0.0925
   68SAPC   H8X 5792   6.196   1.514   3.581 -0.4878 -0.4927  1.5350
   68SAPC   H8Y 5793   6.229   1.333   3.592  2.4771  1.2881 -0.4861
   68SAPC   C39 5794   6.024   1.396   3.648  0.1278 -0.2204  0.0594
   68SAPC   H9X 5795   5.998   1.289   3.639 -1.3946  0.2916 -2.7715
   68SAPC   H9Y 5796   5.945   1.452   3.594 -0.9609  0.2424  2.0290
   68SAPC  C310 5797   6.021   1.461   3.787  0.4172  0.1487 -0.2774
   68SAPC  H10X 5798   5.919   1.499   3.807  0.7241  0.3769  1.0008
   68SAPC  H10Y 5799   6.094   1.545   3.795  0.7137 -0.1873  0.7430
   68SAPC  C311 5800   6.049   1.367   3.908  0.7746 -0.0640 -0.5521
   68SAPC  H11X 5801   6.145   1.313   3.892  0.7781  0.6001 -3.1753
   68SAPC  H11Y 5802   5.972   1.287   3.897 -1.7538  2.5758 -4.1091
   68SAPC  C312 5803   6.050   1.443   4.040 -0.1721  0.0976  0.2855
   68SAPC  H12X 5804   5.958   1.491   4.077  0.3752  0.5602  1.0730
   68SAPC  H12Y 5805   6.137   1.511   4.031  0.2139 -0.5495 -1.2744
   68SAPC  C313 5806   6.082   1.345   4.162  0.0710  0.4738  1.2629
   68SAPC  H13X 5807   6.182   1.298   4.150 -0.1755 -0.0494  1.2428
   68SAPC  H13Y 5808   6.002   1.269   4.176 -1.9967  2.0739 -1.0380
   68SAPC  C314 5809   6.089   1.414   4.300 -0.3990 -0.3254  0.0408
   68SAPC  H14X 5810   6.009   1.491   4.295 -2.3065 -2.2443 -4.3679
   68SAPC  H14Y 5811   6.189   1.461   4.315 -0.4936 -0.3804  0.9234
   68SAPC  C315 5812   6.076   1.303   4.408  0.3809 -0.1781  0.4742
   68SAPC  H15X 5813   6.124   1.210   4.371  1.0642  1.3146 -2.7689
   68SAPC  H15Y 5814   5.966   1.287   4.415 -0.0096  2.1156  0.3945
   68SAPC  C316 5815   6.137   1.340   4.544  0.0786  1.2850  0.1783
   68SAPC  H16X 5816   6.108   1.441   4.580 -1.6767  1.0417 -0.4559
   68SAPC  H16Y 5817   6.247   1.347   4.529  0.2459  1.0494  1.2418
   68SAPC  C317 5818   6.111   1.224   4.652 -0.5232 -0.0044 -0.0749
   68SAPC  H17X 5819   6.173   1.134   4.632 -1.2688 -0.9722  1.7301
   68SAPC  H17Y 5820   6.005   1.191   4.653 -0.4136 -0.3788  1.2387
   68SAPC  C318 5821   6.163   1.261   4.802 -0.0617  0.2730 -0.1115
   68SAPC  H18X 5822   6.104   1.351   4.828  0.0441 -0.0909  1.4866
   68SAPC  H18Y 5823   6.268   1.297   4.800 -0.1581  0.5694 -2.5168
   68SAPC  H18Z 5824   6.153   1.181   4.878 -1.6196  0.5431  0.0007
   69SAPC     N 5825   0.968   5.310   1.760  0.0625  0.5619  0.6259
   69SAPC   C12 5826   0.927   5.325   1.907 -0.2766  0.4155  0.4510
   69SAPC  H12A 5827   0.882   5.423   1.916  0.4254  0.7792  0.1022
   69SAPC  H12B 5828   1.010   5.341   1.975 -0.2007  1.6101  0.1046
   69SAPC   C13 5829   1.045   5.424   1.721 -0.1134  0.2643  0.3567
   69SAPC  H13A 5830   1.133   5.441   1.782 -0.8100  2.1281  0.9046
   69SAPC  H13B 5831   1.086   5.410   1.622  1.9219  2.1628  0.8219
   69SAPC  H13C 5832   0.993   5.519   1.726  2.9100  2.0193  1.4066
   69SAPC   C14 5833   1.048   5.181   1.753 -0.1500  0.5529  0.0524
   69SAPC  H14A 5834   1.113   5.176   1.839 -1.5802 -1.9468  1.1106
   69SAPC  H14B 5835   0.989   5.093   1.772  2.3067 -0.7994  1.9397
   69SAPC  H14C 5836   1.095   5.170   1.657  0.2628 -1.0718  0.4097
   69SAPC   C15 5837   0.854   5.300   1.668  0.2001  0.5309 -0.1493
   69SAPC  H15A 5838   0.816   5.400   1.651  1.0550  1.3720  2.3010
   69SAPC  H15B 5839   0.886   5.258   1.574 -0.2085 -2.4497  0.9558
   69SAPC  H15C 5840   0.778   5.234   1.706  0.1394 -0.0428 -1.2259
   69SAPC   C11 5841   0.843   5.211   1.965  0.3858  0.0899 -0.2403
   69SAPC  H11A 5842   0.831   5.221   2.075  0.0298 -2.3593 -0.0028
   69SAPC  H11B 5843   0.898   5.114   1.956  0.8773  0.1084  1.9751
   69SAPC     P 5844   0.591   5.271   1.938 -0.3611  0.1457  0.3720
   69SAPC   O13 5845   0.629   5.393   2.011 -0.8548  0.2096  0.2098
   69SAPC   O14 5846   0.513   5.280   1.808 -0.9731 -0.3262 -0.1007
   69SAPC   O12 5847   0.720   5.187   1.903  0.2278 -0.7332  0.0907
   69SAPC   O11 5848   0.521   5.174   2.042  0.2024  0.6157 -0.5610
   69SAPC    C1 5849   0.387   5.211   2.076  0.5275 -0.1226 -0.3399
   69SAPC    HA 5850   0.360   5.318   2.071 -3.3948 -0.9416  0.4814
   69SAPC    HB 5851   0.309   5.160   2.016  2.1099 -0.4722 -2.2257
   69SAPC    C2 5852   0.354   5.180   2.230  0.1060 -0.3396  0.5679
   69SAPC    HS 5853   0.252   5.217   2.256  0.0379 -0.4344  0.4400
   69SAPC   O21 5854   0.458   5.230   2.305 -0.1242  0.4396 -0.2963
   69SAPC   C21 5855   0.409   5.266   2.425  0.1813 -0.7078  0.8039
   69SAPC   O22 5856   0.292   5.282   2.453  0.7535 -0.0934 -0.1052
   69SAPC   C22 5857   0.527   5.277   2.521 -0.3897  0.1306  0.2211
   69SAPC   H2R 5858   0.597   5.204   2.476  1.9065  2.9950 -1.2207
   69SAPC   H2S 5859   0.566   5.381   2.518  0.7131 -0.2615  0.4416
   69SAPC    C3 5860   0.346   5.024   2.249 -0.5874  0.8406  0.2656
   69SAPC    HX 5861   0.445   4.989   2.213 -0.8183  0.4067  0.0422
   69SAPC    HY 5862   0.272   4.987   2.174  1.3938 -1.8511 -0.5141
   69SAPC   O31 5863   0.320   4.980   2.389 -0.5298 -0.7619  0.2853
   69SAPC   C31 5864   0.194   4.978   2.423 -0.4336 -0.0175  0.1118
   69SAPC   O32 5865   0.094   5.002   2.363  0.5957  0.2750  0.4685
   69SAPC   C32 5866   0.201   4.955   2.579  0.6259 -0.1134  0.3386
   69SAPC   H2X 5867   0.275   5.028   2.618 -0.2860  1.1239 -0.1753
   69SAPC   H2Y 5868   0.234   4.850   2.594  0.0244 -0.5088 -0.9530
   69SAPC   C23 5869   0.486   5.235   2.662 -0.0488 -0.5656 -0.0181
   69SAPC   H3R 5870   0.445   5.133   2.651 -0.3018 -0.4926  0.2402
   69SAPC   H3S 5871   0.401   5.302   2.685 -0.6060 -1.4753  0.6239
   69SAPC   C24 5872   0.594   5.258   2.767  0.0959 -0.2059  0.2272
   69SAPC   H4R 5873   0.541   5.265   2.865  1.0302  1.7102  0.6527
   69SAPC   H4S 5874   0.648   5.355   2.756 -3.0328  1.3624 -3.7056
   69SAPC   C25 5875   0.691   5.135   2.775 -0.5271 -0.4455  0.3637
   69SAPC   H5R 5876   0.744   5.125   2.680 -0.6244 -0.0006  0.2599
   69SAPC   C26 5877   0.718   5.053   2.882  0.6048 -0.1330  1.0710
   69SAPC   H6R 5878   0.796   4.976   2.871  1.4850  0.3573  3.3270
   69SAPC   C27 5879   0.652   5.053   3.011 -0.6558  0.1195 -0.3044
   69SAPC   H7R 5880   0.659   4.947   3.045  0.0101 -0.0884 -1.0563
   69SAPC   H7S 5881   0.546   5.083   2.994 -0.5594  0.1229 -0.9264
   69SAPC   C28 5882   0.730   5.151   3.098  0.1457  0.5403  0.2539
   69SAPC   H8R 5883   0.711   5.258   3.081 -1.0353  0.2085 -0.5936
   69SAPC   C29 5884   0.802   5.123   3.208  0.9633 -0.0996 -0.2781
   69SAPC   H9R 5885   0.833   5.207   3.272  0.1008  0.6214 -0.8030
   69SAPC  C210 5886   0.840   4.982   3.262 -0.5776 -0.6496 -0.0057
   69SAPC  H10R 5887   0.939   4.976   3.312 -0.1341  0.7938 -0.6562
   69SAPC  H10S 5888   0.856   4.922   3.170 -1.1173  1.5225 -1.6087
   69SAPC  C211 5889   0.726   4.921   3.343 -0.3357 -0.0943 -0.4005
   69SAPC  H11R 5890   0.635   4.898   3.286 -0.3932  0.9529 -0.7489
   69SAPC  C212 5891   0.721   4.900   3.477 -0.2636  0.0594 -0.3724
   69SAPC  H12R 5892   0.620   4.874   3.512 -0.5424  2.4967  0.8770
   69SAPC  C213 5893   0.830   4.927   3.580  0.0215  0.0901  0.1748
   69SAPC  H13R 5894   0.780   4.986   3.659 -2.0181  1.7702 -2.2367
   69SAPC  H13S 5895   0.912   4.985   3.534 -0.1846  1.3262  1.2938
   69SAPC  C214 5896   0.879   4.794   3.624 -0.2437  0.5749  0.1241
   69SAPC  H14R 5897   0.926   4.734   3.545 -1.3913 -0.3082  0.0844
   69SAPC  C215 5898   0.862   4.737   3.743 -0.7720  0.1360 -0.2139
   69SAPC  H15R 5899   0.902   4.635   3.753  0.5413  0.6886  0.4988
   69SAPC  C216 5900   0.807   4.795   3.876 -0.4380  0.9830  0.2280
   69SAPC  H16R 5901   0.828   4.903   3.861  0.6255  0.8465  0.6465
   69SAPC  H16S 5902   0.864   4.764   3.967  1.4456 -0.2797 -1.3064
   69SAPC  C217 5903   0.658   4.765   3.897  0.4221 -0.6098  0.3140
   69SAPC  H17R 5904   0.644   4.657   3.877 -2.4490 -0.0091 -1.3674
   69SAPC  H17S 5905   0.603   4.819   3.817  1.1828 -0.1056  0.1161
   69SAPC  C218 5906   0.614   4.818   4.039  0.0741  0.3271  0.6829
   69SAPC  H18R 5907   0.503   4.826   4.032 -0.7107 -5.6351  1.2082
   69SAPC  H18S 5908   0.660   4.918   4.057 -0.4696  1.0199 -1.4371
   69SAPC  C219 5909   0.654   4.722   4.156  0.7801  0.0121  0.2015
   69SAPC  H19R 5910   0.764   4.712   4.162  1.0033  1.8256 -0.0981
   69SAPC  H19S 5911   0.605   4.624   4.135 -2.8256  1.1120  2.5519
   69SAPC  C220 5912   0.612   4.764   4.304 -0.0083  0.1572  0.1006
   69SAPC  H20R 5913   0.626   4.676   4.372  0.7318  1.8145  2.2268
   69SAPC  H20S 5914   0.504   4.788   4.311 -0.9352 -3.7442  1.7643
   69SAPC  H20T 5915   0.677   4.852   4.325 -1.1277  1.2198 -0.7332
   69SAPC   C33 5916   0.061   4.971   2.632  0.0153  1.0024 -0.4250
   69SAPC   H3X 5917  -0.014   4.912   2.575  0.2913  0.9278 -0.7085
   69SAPC   H3Y 5918   0.028   5.076   2.617  0.1492  1.0526 -0.3704
   69SAPC   C34 5919   0.056   4.938   2.780 -0.1078 -0.7732 -0.2175
   69SAPC   H4X 5920  -0.049   4.957   2.812 -1.1337 -2.3616 -2.3736
   69SAPC   H4Y 5921   0.135   5.002   2.825 -0.0627 -0.0506 -1.3160
   69SAPC   C35 5922   0.075   4.796   2.821  0.0219 -0.4866  0.8053
   69SAPC   H5X 5923   0.172   4.764   2.777  0.4962  1.6281  0.1800
   69SAPC   H5Y 5924  -0.006   4.735   2.776  0.6842 -0.2487 -0.7704
   69SAPC   C36 5925   0.078   4.770   2.971  0.3377  1.1311 -0.2319
   69SAPC   H6X 5926  -0.006   4.821   3.023 -0.7142  0.0338 -0.8073
   69SAPC   H6Y 5927   0.175   4.807   3.012  0.6529 -0.6920  0.7636
   69SAPC   C37 5928   0.064   4.622   3.011 -0.5728  0.0314  0.5398
   69SAPC   H7X 5929   0.120   4.560   2.938 -2.1723  0.4827 -1.1474
   69SAPC   H7Y 5930  -0.044   4.598   2.997 -0.7820  0.7948  0.7635
   69SAPC   C38 5931   0.104   4.586   3.149  0.1197 -0.1483 -1.3457
   69SAPC   H8X 5932   0.054   4.657   3.217  2.6486  2.3550 -1.9095
   69SAPC   H8Y 5933   0.209   4.600   3.181 -0.3628 -2.2675  1.5655
   69SAPC   C39 5934   0.080   4.440   3.192  0.0150  0.1384 -0.6053
   69SAPC   H9X 5935   0.182   4.402   3.214 -0.1486  1.0286  2.1218
   69SAPC   H9Y 5936   0.044   4.393   3.098 -0.5024 -1.7917  0.5018
   69SAPC  C310 5937  -0.019   4.410   3.307 -0.3835 -0.5455  0.1422
   69SAPC  H10X 5938  -0.044   4.302   3.315 -1.8593 -0.1854  0.6227
   69SAPC  H10Y 5939  -0.117   4.459   3.290  0.3417  1.1400  0.6031
   69SAPC  C311 5940   0.036   4.452   3.448 -0.2276 -0.4849  0.5296
   69SAPC  H11X 5941   0.014   4.561   3.460 -1.7508 -0.3946 -2.2503
   69SAPC  H11Y 5942   0.146   4.438   3.459 -0.3494 -0.0776  2.8821
   69SAPC  C312 5943  -0.040   4.367   3.552  0.4778  0.4470 -0.0078
   69SAPC  H12X 5944  -0.045   4.259   3.524 -0.5935  1.0439 -2.3451
   69SAPC  H12Y 5945  -0.144   4.405   3.553  0.8230  1.5645 -1.8207
   69SAPC  C313 5946   0.023   4.373   3.693  0.2814 -0.2512  0.6884
   69SAPC  H13X 5947   0.032   4.478   3.727  2.2040  0.0847 -0.7098
   69SAPC  H13Y 5948   0.130   4.342   3.684  0.4730  0.6353 -0.2423
   69SAPC  C314 5949  -0.050   4.281   3.792  0.4322  0.7207  0.8595
   69SAPC  H14X 5950  -0.038   4.178   3.753 -0.8011  0.5785  0.8158
   69SAPC  H14Y 5951  -0.159   4.303   3.790 -0.0563 -1.5425  0.8480
   69SAPC  C315 5952  -0.003   4.289   3.935 -0.1584 -0.0328  0.1080
   69SAPC  H15X 5953  -0.029   4.386   3.983 -0.5466  0.5482 -1.2429
   69SAPC  H15Y 5954   0.107   4.273   3.931 -0.0789  0.6598 -0.8828
   69SAPC  C316 5955  -0.056   4.198   4.049  0.2555  0.2527 -0.4051
   69SAPC  H16X 5956  -0.060   4.089   4.028 -0.3043  0.6609 -2.6072
   69SAPC  H16Y 5957  -0.156   4.239   4.071  0.5571  0.4974  0.5664
   69SAPC  C317 5958   0.029   4.213   4.179  0.9085  0.3578 -0.6125
   69SAPC  H17X 5959   0.078   4.312   4.189  2.0792 -0.3370  1.2534
   69SAPC  H17Y 5960   0.108   4.137   4.161  1.3123  1.0986 -2.0715
   69SAPC  C318 5961  -0.050   4.181   4.304  0.1764 -0.0375  0.5380
   69SAPC  H18X 5962  -0.083   4.075   4.296 -2.3598  0.7939 -1.1537
   69SAPC  H18Y 5963  -0.128   4.255   4.333  0.3655 -0.6826  2.9567
   69SAPC  H18Z 5964   0.013   4.192   4.395  0.6769  1.0593  0.0776
   70SAPC     N 5965   1.871   3.201   2.057  0.1084  0.4612  0.3335
   70SAPC   C12 5966   1.915   3.343   2.070 -0.8350 -0.2081 -0.3606
   70SAPC  H12A 5967   1.841   3.408   2.026 -2.0592 -0.5266  1.1421
   70SAPC  H12B 5968   2.008   3.359   2.017  0.9724  0.5576  2.7854
   70SAPC   C13 5969   1.747   3.187   2.135  0.6319 -0.2484 -0.3227
   70SAPC  H13A 5970   1.761   3.241   2.227  1.7374  1.1594 -1.2719
   70SAPC  H13B 5971   1.662   3.230   2.085 -0.2532 -1.2961  0.2405
   70SAPC  H13C 5972   1.724   3.082   2.147 -1.8633  0.4435  1.8836
   70SAPC   C14 5973   1.848   3.173   1.912  0.1667  0.2013  0.0192
   70SAPC  H14A 5974   1.928   3.196   1.844 -1.1613  0.5767 -1.4705
   70SAPC  H14B 5975   1.810   3.073   1.897 -1.5756  0.5767  1.5949
   70SAPC  H14C 5976   1.767   3.228   1.866 -0.4804 -0.7561 -0.0032
   70SAPC   C15 5977   1.971   3.101   2.120  0.1697 -1.0172 -0.3076
   70SAPC  H15A 5978   1.938   2.998   2.114 -0.9877 -0.6016 -1.5693
   70SAPC  H15B 5979   2.068   3.090   2.073  0.0557 -0.3565 -0.7144
   70SAPC  H15C 5980   1.984   3.136   2.221 -1.2650 -1.3734  0.0235
   70SAPC   C11 5981   1.932   3.403   2.211 -0.2981  0.2465 -0.7565
   70SAPC  H11A 5982   1.990   3.497   2.203  1.1421  0.0356  4.1059
   70SAPC  H11B 5983   1.989   3.329   2.272  1.5588  2.9117  0.9443
   70SAPC     P 5984   1.726   3.555   2.238  0.0383  0.0469 -0.0310
   70SAPC   O13 5985   1.777   3.614   2.114 -0.1297  0.9740  0.0443
   70SAPC   O14 5986   1.583   3.525   2.230  0.3136  0.3726 -0.8485
   70SAPC   O12 5987   1.804   3.423   2.269  0.2126 -0.0275  0.0447
   70SAPC   O11 5988   1.754   3.650   2.362  0.7044  0.5811 -0.5000
   70SAPC    C1 5989   1.889   3.676   2.402 -0.1852  0.3073 -0.1130
   70SAPC    HA 5990   1.956   3.682   2.314  0.4231 -0.0335  0.3198
   70SAPC    HB 5991   1.887   3.779   2.444  2.2371  0.4620 -0.2378
   70SAPC    C2 5992   1.954   3.578   2.499  0.1531  0.3509 -0.0394
   70SAPC    HS 5993   1.938   3.475   2.463  1.5056 -0.2285  0.9463
   70SAPC   O21 5994   1.891   3.602   2.629  0.7412 -0.5217 -0.4449
   70SAPC   C21 5995   1.854   3.495   2.694  0.0101  0.2357 -0.0647
   70SAPC   O22 5996   1.846   3.383   2.649  0.4827  0.0416 -0.9535
   70SAPC   C22 5997   1.832   3.549   2.840 -0.4321  0.2373 -1.3489
   70SAPC   H2R 5998   1.935   3.547   2.884 -0.3975  2.7449 -1.1874
   70SAPC   H2S 5999   1.792   3.652   2.833 -3.6564 -0.8859 -0.8348
   70SAPC    C3 6000   2.109   3.625   2.515  0.5560 -0.5781  0.6027
   70SAPC    HX 6001   2.104   3.726   2.561 -0.1972 -0.7231  0.8573
   70SAPC    HY 6002   2.158   3.647   2.418 -1.8847  0.0743 -0.5409
   70SAPC   O31 6003   2.200   3.548   2.597  0.0918 -0.2988 -0.4233
   70SAPC   C31 6004   2.247   3.441   2.538  0.3115 -0.3591 -0.1718
   70SAPC   O32 6005   2.257   3.424   2.419  0.1138  0.0743  0.1494
   70SAPC   C32 6006   2.265   3.333   2.645  0.8543 -0.0812  0.5066
   70SAPC   H2X 6007   2.281   3.384   2.743  2.1333  0.9200 -0.1971
   70SAPC   H2Y 6008   2.360   3.278   2.623  0.6284 -0.2451 -0.0665
   70SAPC   C23 6009   1.727   3.471   2.925 -0.8793  0.0744 -0.1060
   70SAPC   H3R 6010   1.751   3.362   2.933 -0.3111  0.0183 -2.1273
   70SAPC   H3S 6011   1.629   3.490   2.876  0.1735 -1.3503 -3.0058
   70SAPC   C24 6012   1.718   3.522   3.072  1.0048  0.1142 -0.3977
   70SAPC   H4R 6013   1.703   3.632   3.076 -2.4041 -0.2154 -1.2184
   70SAPC   H4S 6014   1.818   3.499   3.116  1.3425  0.1950 -1.0959
   70SAPC   C25 6015   1.594   3.465   3.141 -0.2731  0.6331  0.3083
   70SAPC   H5R 6016   1.500   3.500   3.097 -0.7778 -1.0383  0.0163
   70SAPC   C26 6017   1.595   3.367   3.234 -0.5105 -0.7999  0.2750
   70SAPC   H6R 6018   1.494   3.334   3.263 -0.4900 -2.5748 -1.4891
   70SAPC   C27 6019   1.709   3.301   3.298  0.2173  0.2619  0.0853
   70SAPC   H7R 6020   1.808   3.315   3.249  0.1391 -2.2226 -0.9816
   70SAPC   H7S 6021   1.697   3.191   3.280  2.5878 -0.1051  0.4363
   70SAPC   C28 6022   1.700   3.331   3.448 -0.7044  0.5212 -0.6019
   70SAPC   H8R 6023   1.718   3.436   3.476 -1.0233  0.6597 -0.9119
   70SAPC   C29 6024   1.675   3.245   3.547  0.4240  0.4328 -0.0098
   70SAPC   H9R 6025   1.685   3.284   3.650  1.0103  0.4603 -0.0789
   70SAPC  C210 6026   1.652   3.095   3.534 -0.1770  0.0074  0.2702
   70SAPC  H10R 6027   1.696   3.052   3.441  0.9571  1.1121  0.2814
   70SAPC  H10S 6028   1.542   3.090   3.521 -0.0853 -2.6698 -0.0241
   70SAPC  C211 6029   1.699   3.013   3.652  0.2051  0.9938  0.8897
   70SAPC  H11R 6030   1.798   3.033   3.696  0.9579  2.6515 -1.3359
   70SAPC  C212 6031   1.627   2.911   3.702  0.1115  0.1495 -0.0617
   70SAPC  H12R 6032   1.675   2.848   3.777 -1.5786  2.0699  2.8316
   70SAPC  C213 6033   1.490   2.865   3.666  0.2408  0.1052  0.4552
   70SAPC  H13R 6034   1.480   2.759   3.696  0.7136  0.2167  1.0317
   70SAPC  H13S 6035   1.490   2.868   3.555 -1.3120 -2.0661  0.3579
   70SAPC  C214 6036   1.379   2.955   3.709  0.2864  0.2733  0.8302
   70SAPC  H14R 6037   1.341   3.016   3.625  1.2262  0.8894  0.8452
   70SAPC  C215 6038   1.314   2.950   3.829  0.3278 -0.1998 -0.4251
   70SAPC  H15R 6039   1.249   3.038   3.842  0.4825 -0.0603 -0.5812
   70SAPC  C216 6040   1.353   2.874   3.954  0.8550  0.4066 -0.4020
   70SAPC  H16R 6041   1.401   2.775   3.940  2.4549  1.2560 -1.1337
   70SAPC  H16S 6042   1.267   2.844   4.019  0.0634  0.5521 -1.3703
   70SAPC  C217 6043   1.459   2.962   4.030  0.9389 -0.2873 -0.2707
   70SAPC  H17R 6044   1.419   3.065   4.033 -0.7916 -0.9251  0.0467
   70SAPC  H17S 6045   1.551   2.958   3.969  0.8900 -0.5911 -0.3297
   70SAPC  C218 6046   1.492   2.900   4.172  0.0130 -0.1194 -0.2061
   70SAPC  H18R 6047   1.487   2.791   4.155 -0.2565  0.0278 -1.1287
   70SAPC  H18S 6048   1.406   2.926   4.238  0.1667  3.8702 -1.2913
   70SAPC  C219 6049   1.620   2.937   4.251 -0.0829  0.0014  0.3804
   70SAPC  H19R 6050   1.625   2.879   4.346  0.5964  0.2622  0.5033
   70SAPC  H19S 6051   1.609   3.045   4.274  0.7431  0.1772 -0.0171
   70SAPC  C220 6052   1.754   2.922   4.176 -1.3748 -0.0729  0.4407
   70SAPC  H20R 6053   1.830   2.980   4.231 -1.0482 -0.2391  0.1668
   70SAPC  H20S 6054   1.747   2.952   4.069 -0.7840 -1.2789  0.0421
   70SAPC  H20T 6055   1.777   2.813   4.182  0.4350  0.2987  0.6194
   70SAPC   C33 6056   2.150   3.231   2.650  0.2427  0.5844  0.3667
   70SAPC   H3X 6057   2.140   3.181   2.552  0.9955 -0.9834  1.0452
   70SAPC   H3Y 6058   2.059   3.293   2.661 -1.2071 -0.9496 -2.0380
   70SAPC   C34 6059   2.142   3.141   2.779  0.3193  0.9278  0.2258
   70SAPC   H4X 6060   2.220   3.064   2.761  0.3992  0.8665  0.8123
   70SAPC   H4Y 6061   2.042   3.094   2.785  0.8392 -0.5385 -1.7013
   70SAPC   C35 6062   2.164   3.220   2.910 -0.0492 -0.1359  0.4019
   70SAPC   H5X 6063   2.122   3.323   2.897 -1.9999 -0.6957  1.8662
   70SAPC   H5Y 6064   2.275   3.226   2.910 -0.0204 -0.2065  2.1018
   70SAPC   C36 6065   2.108   3.151   3.036  0.3397  0.0225 -0.2395
   70SAPC   H6X 6066   2.125   3.042   3.023 -0.8354 -0.0369 -1.5336
   70SAPC   H6Y 6067   1.998   3.158   3.021  0.2391 -0.5598  0.2020
   70SAPC   C37 6068   2.143   3.211   3.172  0.6314 -0.5880 -0.6851
   70SAPC   H7X 6069   2.252   3.195   3.175  0.7421 -0.7048 -3.2345
   70SAPC   H7Y 6070   2.118   3.319   3.163  0.8192 -0.6211 -1.6447
   70SAPC   C38 6071   2.081   3.128   3.290  0.0978 -0.7733  0.0081
   70SAPC   H8X 6072   2.131   3.029   3.288  0.6777 -0.5331  1.4011
   70SAPC   H8Y 6073   1.971   3.114   3.279  0.3004 -1.6928 -0.9358
   70SAPC   C39 6074   2.110   3.190   3.430  0.1297 -0.5134  0.0556
   70SAPC   H9X 6075   2.074   3.295   3.429 -0.5612 -0.7491 -0.5970
   70SAPC   H9Y 6076   2.219   3.185   3.454  0.8215  1.6873 -2.2426
   70SAPC  C310 6077   2.044   3.109   3.546 -0.6481  0.6893  0.4646
   70SAPC  H10X 6078   2.070   3.003   3.527 -3.0212 -0.0983  1.2362
   70SAPC  H10Y 6079   1.933   3.120   3.539 -0.4375  4.6838  1.0654
   70SAPC  C311 6080   2.106   3.147   3.681 -0.1409 -0.2859 -0.5997
   70SAPC  H11X 6081   2.080   3.254   3.693  1.7586  0.2977 -1.3833
   70SAPC  H11Y 6082   2.216   3.153   3.674  0.0357 -0.6085  1.2766
   70SAPC  C312 6083   2.065   3.065   3.813 -0.0951 -0.2951  0.6273
   70SAPC  H12X 6084   2.081   2.955   3.807  1.4880 -0.0979  0.7488
   70SAPC  H12Y 6085   1.955   3.072   3.821 -0.1839  0.3658 -0.7896
   70SAPC  C313 6086   2.120   3.124   3.942 -0.5993 -0.1209  0.6296
   70SAPC  H13X 6087   2.038   3.177   3.995  0.2309  2.0004 -0.0886
   70SAPC  H13Y 6088   2.211   3.188   3.943 -1.3682  1.0306  2.8033
   70SAPC  C314 6089   2.150   3.008   4.042  0.8784  0.3932 -0.0542
   70SAPC  H14X 6090   2.208   2.924   3.998 -0.0241 -0.4940  0.4132
   70SAPC  H14Y 6091   2.051   2.968   4.072  0.5615  0.9337 -0.3719
   70SAPC  C315 6092   2.226   3.054   4.164  0.5551 -0.5222  0.7322
   70SAPC  H15X 6093   2.181   3.147   4.206 -1.2609 -1.4665  0.9502
   70SAPC  H15Y 6094   2.325   3.092   4.131 -0.1237  0.7395  0.0912
   70SAPC  C316 6095   2.251   2.948   4.271  0.8784  1.1897  0.3545
   70SAPC  H16X 6096   2.320   3.008   4.335 -0.8650  1.8652  1.6965
   70SAPC  H16Y 6097   2.300   2.861   4.224 -1.0086  1.2903 -2.0096
   70SAPC  C317 6098   2.123   2.898   4.343 -1.1446 -0.7216  0.8079
   70SAPC  H17X 6099   2.162   2.829   4.421 -1.1967  0.5850  2.0186
   70SAPC  H17Y 6100   2.063   2.835   4.273 -1.9773  1.3453 -0.4345
   70SAPC  C318 6101   2.036   3.000   4.410 -0.1356  0.5845 -0.1600
   70SAPC  H18X 6102   1.997   3.082   4.346 -2.3263  0.5418  1.0352
   70SAPC  H18Y 6103   2.096   3.044   4.492 -0.6468 -0.7207  0.9589
   70SAPC  H18Z 6104   1.959   2.937   4.460 -1.7275  0.4338 -2.6146
   71SAPC     N 6105   2.798   2.561   1.625 -0.1340  0.0768 -0.5818
   71SAPC   C12 6106   2.750   2.599   1.759  0.3100  0.5473 -0.6066
   71SAPC  H12A 6107   2.737   2.505   1.811  0.2216  0.0638 -1.4946
   71SAPC  H12B 6108   2.652   2.645   1.752 -1.1756 -2.1079  0.9914
   71SAPC   C13 6109   2.698   2.477   1.557 -0.1099 -0.5745 -0.1107
   71SAPC  H13A 6110   2.711   2.374   1.589  0.6097 -0.6013 -0.4534
   71SAPC  H13B 6111   2.595   2.504   1.576  0.0986  0.8709 -0.8924
   71SAPC  H13C 6112   2.719   2.469   1.451  1.3397 -0.6638  0.1661
   71SAPC   C14 6113   2.818   2.690   1.543 -0.1492  0.3752  0.5032
   71SAPC  H14A 6114   2.904   2.747   1.577  1.5002  0.8879 -3.8503
   71SAPC  H14B 6115   2.845   2.668   1.441 -2.3781 -0.1814 -0.0104
   71SAPC  H14C 6116   2.725   2.744   1.551 -0.8243 -0.7333  0.2350
   71SAPC   C15 6117   2.938   2.497   1.625  0.5012  0.4623  0.0330
   71SAPC  H15A 6118   2.961   2.470   1.523 -0.9918 -1.5795  0.1538
   71SAPC  H15B 6119   3.022   2.560   1.649  0.6995  1.7722 -3.5015
   71SAPC  H15C 6120   2.939   2.408   1.687  0.6252 -0.5603 -1.3732
   71SAPC   C11 6121   2.825   2.695   1.859 -0.8734 -0.7341  0.2255
   71SAPC  H11A 6122   2.927   2.652   1.846 -1.5522 -2.1942 -0.6236
   71SAPC  H11B 6123   2.789   2.693   1.964 -2.2445  2.4672 -0.0907
   71SAPC     P 6124   2.739   2.950   1.845  0.0697  0.1373  0.0394
   71SAPC   O13 6125   2.813   3.081   1.817  0.1027  0.1323  0.2012
   71SAPC   O14 6126   2.615   2.919   1.763 -0.6280  0.1248 -0.2051
   71SAPC   O12 6127   2.828   2.829   1.809  0.3468 -0.3654  0.1047
   71SAPC   O11 6128   2.708   2.940   1.998  0.6032  0.6769 -0.0933
   71SAPC    C1 6129   2.808   2.921   2.097 -0.4780 -0.9380  0.5638
   71SAPC    HA 6130   2.882   2.850   2.056  0.0422  0.8640 -1.8303
   71SAPC    HB 6131   2.860   3.019   2.106 -0.1130 -1.0291 -0.4205
   71SAPC    C2 6132   2.754   2.886   2.238 -0.5605 -0.1174 -0.6352
   71SAPC    HS 6133   2.829   2.895   2.319 -1.9690 -1.7537  0.9304
   71SAPC   O21 6134   2.711   2.749   2.224 -0.3697 -0.0714 -0.2375
   71SAPC   C21 6135   2.742   2.663   2.318  0.2529 -0.1800  0.5548
   71SAPC   O22 6136   2.799   2.693   2.423  0.0416  0.2151  0.6504
   71SAPC   C22 6137   2.699   2.530   2.265 -0.2698  0.4042 -1.0936
   71SAPC   H2R 6138   2.589   2.530   2.246 -0.3998  1.4854 -0.4123
   71SAPC   H2S 6139   2.753   2.527   2.168  1.3003  1.3319 -0.2791
   71SAPC    C3 6140   2.642   2.991   2.278  0.1677  0.2953 -0.0522
   71SAPC    HX 6141   2.550   2.970   2.218  1.1333 -1.3840 -1.0059
   71SAPC    HY 6142   2.688   3.083   2.236  3.5049 -0.6638  1.2285
   71SAPC   O31 6143   2.613   2.997   2.419 -0.7754 -0.4542 -0.3204
   71SAPC   C31 6144   2.507   2.939   2.466  0.5664 -0.2074 -0.4695
   71SAPC   O32 6145   2.430   2.864   2.403 -0.3212 -0.1826 -0.1863
   71SAPC   C32 6146   2.466   2.990   2.607  0.5857  0.5292  0.4510
   71SAPC   H2X 6147   2.359   2.965   2.625  1.0377 -0.4147  2.1239
   71SAPC   H2Y 6148   2.480   3.099   2.621 -0.7898  0.8970 -0.8652
   71SAPC   C23 6149   2.720   2.411   2.358 -0.0621  0.0371 -0.0828
   71SAPC   H3R 6150   2.682   2.423   2.462  0.5136 -1.1838  0.2896
   71SAPC   H3S 6151   2.824   2.375   2.364 -0.6129 -1.7407 -0.7123
   71SAPC   C24 6152   2.644   2.280   2.307 -0.5523 -0.5935 -0.3576
   71SAPC   H4R 6153   2.661   2.253   2.201 -1.4352 -0.3018 -0.5810
   71SAPC   H4S 6154   2.535   2.301   2.314 -0.3193  0.2912  1.1901
   71SAPC   C25 6155   2.685   2.165   2.398  0.2454  0.0034 -1.0706
   71SAPC   H5R 6156   2.775   2.105   2.374  0.1436 -0.4691 -0.3077
   71SAPC   C26 6157   2.615   2.117   2.498  0.0628 -0.5478 -0.0860
   71SAPC   H6R 6158   2.643   2.021   2.543 -0.1164 -1.9731 -2.7818
   71SAPC   C27 6159   2.477   2.168   2.547 -0.1936  0.1454  0.6190
   71SAPC   H7R 6160   2.428   2.256   2.500 -2.9928 -1.5020  0.2283
   71SAPC   H7S 6161   2.476   2.191   2.656 -0.5684 -0.4671  0.7505
   71SAPC   C28 6162   2.382   2.061   2.504  0.9951 -0.9322 -0.7113
   71SAPC   H8R 6163   2.380   2.032   2.398 -1.1357 -0.0151 -0.9872
   71SAPC   C29 6164   2.283   2.008   2.577 -0.1176  0.3088 -0.0692
   71SAPC   H9R 6165   2.217   1.933   2.531 -0.6948 -0.4475  1.8797
   71SAPC  C210 6166   2.245   2.044   2.718  0.4261 -0.2504 -0.5380
   71SAPC  H10R 6167   2.135   2.038   2.733  0.7612 -2.0832  1.7618
   71SAPC  H10S 6168   2.282   2.143   2.751  1.1121 -0.2043 -1.4008
   71SAPC  C211 6169   2.324   1.952   2.811  0.0842 -0.0351 -0.0966
   71SAPC  H11R 6170   2.430   1.945   2.782  0.1853 -0.9223  0.4534
   71SAPC  C212 6171   2.277   1.881   2.922 -0.5336 -0.1901 -0.1124
   71SAPC  H12R 6172   2.341   1.807   2.973 -3.0889 -2.6618 -0.2838
   71SAPC  C213 6173   2.138   1.868   2.966 -0.5385 -0.9374  0.1507
   71SAPC  H13R 6174   2.119   1.778   3.029 -1.3605 -0.1053  1.1358
   71SAPC  H13S 6175   2.070   1.860   2.879 -2.6787  2.6010  1.2782
   71SAPC  C214 6176   2.103   1.987   3.051 -0.1294  0.4945  0.1984
   71SAPC  H14R 6177   2.101   2.085   3.002  1.2090 -1.3060 -3.9331
   71SAPC  C215 6178   2.049   1.978   3.174 -0.1996  0.1979 -0.0298
   71SAPC  H15R 6179   2.020   2.072   3.225 -1.1357 -0.5156  0.7808
   71SAPC  C216 6180   2.012   1.857   3.254 -0.4800  0.3652 -0.2263
   71SAPC  H16R 6181   1.990   1.776   3.181  1.6680 -0.4443 -0.0484
   71SAPC  H16S 6182   1.926   1.886   3.318  0.4997  1.2878  0.7243
   71SAPC  C217 6183   2.118   1.797   3.352 -0.1261  0.9066  0.4020
   71SAPC  H17R 6184   2.132   1.865   3.438  0.1119  1.0100  0.2830
   71SAPC  H17S 6185   2.213   1.781   3.297 -0.3369 -0.0230  0.2841
   71SAPC  C218 6186   2.089   1.659   3.412  0.5588 -0.1767  0.2279
   71SAPC  H18R 6187   2.078   1.584   3.331 -0.0189 -0.5830  0.6737
   71SAPC  H18S 6188   1.999   1.669   3.476  0.7136 -0.1326  0.4435
   71SAPC  C219 6189   2.195   1.603   3.513 -0.1198 -0.0221  0.3042
   71SAPC  H19R 6190   2.214   1.692   3.577 -2.0462  0.5974  0.0751
   71SAPC  H19S 6191   2.287   1.577   3.456  1.2204 -1.0714  2.7831
   71SAPC  C220 6192   2.142   1.486   3.587  0.4248 -0.4665 -0.2907
   71SAPC  H20R 6193   2.206   1.428   3.656 -2.7856 -4.3319 -0.1883
   71SAPC  H20S 6194   2.116   1.408   3.512  0.3238  0.8788 -1.7038
   71SAPC  H20T 6195   2.055   1.506   3.653  0.7415 -2.1414  0.6861
   71SAPC   C33 6196   2.534   2.910   2.725 -0.3613 -0.1956 -0.0658
   71SAPC   H3X 6197   2.632   2.958   2.744 -0.3840  1.4326 -3.3416
   71SAPC   H3Y 6198   2.553   2.802   2.703  0.4698  0.4260 -2.8053
   71SAPC   C34 6199   2.447   2.916   2.854  0.7287 -0.2286  0.6010
   71SAPC   H4X 6200   2.347   2.872   2.835  0.8433 -0.1369 -0.2525
   71SAPC   H4Y 6201   2.438   3.014   2.905  0.0009  0.5851 -1.0331
   71SAPC   C35 6202   2.512   2.829   2.958  0.5065  0.4867  0.2202
   71SAPC   H5X 6203   2.613   2.873   2.972  0.1584  1.5418 -0.4549
   71SAPC   H5Y 6204   2.527   2.726   2.919 -1.2097 -0.3469  1.6482
   71SAPC   C36 6205   2.440   2.822   3.096  0.5335 -0.1400  1.0442
   71SAPC   H6X 6206   2.339   2.779   3.084  0.4894  0.2061  0.0915
   71SAPC   H6Y 6207   2.433   2.921   3.144 -1.3025 -0.8193  2.2734
   71SAPC   C37 6208   2.523   2.733   3.187 -0.2049  0.0493  0.4289
   71SAPC   H7X 6209   2.623   2.782   3.188 -0.8125  1.3815 -0.6908
   71SAPC   H7Y 6210   2.534   2.627   3.157 -5.3191 -0.3799 -0.8329
   71SAPC   C38 6211   2.467   2.735   3.326 -0.2696 -0.3540 -0.1661
   71SAPC   H8X 6212   2.512   2.647   3.378  0.5645 -0.7784 -1.5594
   71SAPC   H8Y 6213   2.357   2.720   3.322 -0.4254  0.4900  0.5914
   71SAPC   C39 6214   2.496   2.862   3.407  0.4451  0.0269  0.6113
   71SAPC   H9X 6215   2.437   2.951   3.377  0.4574  0.1450  0.9366
   71SAPC   H9Y 6216   2.603   2.890   3.397  0.3106  0.1563 -0.6653
   71SAPC  C310 6217   2.463   2.836   3.557 -0.2682 -0.2180 -0.2103
   71SAPC  H10X 6218   2.541   2.769   3.598 -0.0298  0.8815  1.2172
   71SAPC  H10Y 6219   2.359   2.797   3.561 -0.0664 -0.6425  1.1555
   71SAPC  C311 6220   2.487   2.961   3.643 -0.3994 -0.5857  0.2445
   71SAPC  H11X 6221   2.422   3.044   3.609  2.2909  1.7975  0.6044
   71SAPC  H11Y 6222   2.594   2.987   3.631 -0.4405  0.5549  2.0615
   71SAPC  C312 6223   2.463   2.950   3.792  0.8811 -0.1232 -0.3442
   71SAPC  H12X 6224   2.359   2.915   3.812  0.5865 -0.5411 -2.3813
   71SAPC  H12Y 6225   2.462   3.056   3.825  1.1909  0.8317 -3.1408
   71SAPC  C313 6226   2.559   2.873   3.869 -0.0348 -0.5108 -0.1853
   71SAPC  H13X 6227   2.658   2.923   3.876  0.9107 -2.2414 -0.6474
   71SAPC  H13Y 6228   2.583   2.772   3.829 -2.0353 -0.8507 -0.6413
   71SAPC  C314 6229   2.512   2.849   4.014  1.4060  0.3509 -0.2111
   71SAPC  H14X 6230   2.440   2.766   3.999  3.2513 -1.2273 -0.5830
   71SAPC  H14Y 6231   2.456   2.934   4.060 -0.1979 -0.0246 -1.3613
   71SAPC  C315 6232   2.618   2.803   4.116 -0.3014 -0.3751 -0.0313
   71SAPC  H15X 6233   2.693   2.881   4.140  0.0200 -0.6189 -0.2301
   71SAPC  H15Y 6234   2.669   2.714   4.073  1.2018  0.8601 -0.8804
   71SAPC  C316 6235   2.563   2.757   4.254 -0.7408  0.6162 -0.4801
   71SAPC  H16X 6236   2.481   2.683   4.239 -2.4465  1.6750  2.6559
   71SAPC  H16Y 6237   2.510   2.839   4.307 -0.6730 -0.2832  1.0283
   71SAPC  C317 6238   2.664   2.685   4.341 -0.1788  0.2610  0.0236
   71SAPC  H17X 6239   2.734   2.755   4.390 -1.2086  2.2827 -1.2785
   71SAPC  H17Y 6240   2.727   2.611   4.286  0.2253 -0.1693  1.0460
   71SAPC  C318 6241   2.596   2.619   4.469  0.4078  0.2746  0.9747
   71SAPC  H18X 6242   2.661   2.549   4.526 -0.9827 -1.6377  0.2875
   71SAPC  H18Y 6243   2.506   2.563   4.438 -0.2485  1.5625  0.4970
   71SAPC  H18Z 6244   2.555   2.696   4.539 -3.7118 -2.2543  1.6667
   72SAPC     N 6245   2.608   5.687   1.979  0.0328 -0.0272 -0.3240
   72SAPC   C12 6246   2.658   5.565   2.060  0.3930  0.4293 -0.2768
   72SAPC  H12A 6247   2.707   5.495   1.996  1.2917  0.4320  0.3889
   72SAPC  H12B 6248   2.570   5.514   2.097 -1.0504  3.1183  0.2553
   72SAPC   C13 6249   2.565   5.796   2.079 -0.2173 -0.6842  0.1070
   72SAPC  H13A 6250   2.553   5.882   2.016  0.8776 -0.9685 -0.5042
   72SAPC  H13B 6251   2.479   5.772   2.140 -1.2658 -0.4643 -1.2424
   72SAPC  H13C 6252   2.646   5.819   2.147 -0.1489  1.8263 -0.7325
   72SAPC   C14 6253   2.720   5.734   1.886  0.1498 -0.1823  0.3616
   72SAPC  H14A 6254   2.807   5.752   1.947  0.9781 -1.2669 -0.4491
   72SAPC  H14B 6255   2.758   5.658   1.819  1.4827 -0.3025  1.2124
   72SAPC  H14C 6256   2.691   5.822   1.831 -1.7864 -0.3385  1.0651
   72SAPC   C15 6257   2.491   5.645   1.888 -0.4206  0.2739 -0.2400
   72SAPC  H15A 6258   2.455   5.733   1.837 -0.9765  1.0941  1.4694
   72SAPC  H15B 6259   2.533   5.571   1.821  3.2400 -0.1402  2.1551
   72SAPC  H15C 6260   2.409   5.603   1.945 -0.6464 -0.3315 -0.9862
   72SAPC   C11 6261   2.756   5.593   2.174 -0.0542 -0.0492  0.1182
   72SAPC  H11A 6262   2.793   5.493   2.203 -0.3185 -0.6514 -1.5099
   72SAPC  H11B 6263   2.695   5.630   2.260  1.6929  3.0153  0.1700
   72SAPC     P 6264   2.919   5.781   2.246  0.1196 -0.0682  0.2196
   72SAPC   O13 6265   3.037   5.852   2.186  0.5414  0.2710 -0.1732
   72SAPC   O14 6266   2.809   5.869   2.295 -0.3434  0.0890  0.0002
   72SAPC   O12 6267   2.860   5.681   2.142 -0.1822  0.6392 -0.1454
   72SAPC   O11 6268   2.953   5.679   2.361 -0.3717 -0.0473 -0.3153
   72SAPC    C1 6269   3.039   5.570   2.329  0.2290  0.4721  0.4488
   72SAPC    HA 6270   2.986   5.487   2.276  0.1441 -0.6755  2.2508
   72SAPC    HB 6271   3.122   5.599   2.260  2.2577 -0.6902  2.2773
   72SAPC    C2 6272   3.090   5.488   2.450 -0.3528  0.2692 -0.7531
   72SAPC    HS 6273   3.111   5.384   2.418  0.7010 -0.4711  2.0809
   72SAPC   O21 6274   2.981   5.485   2.548 -0.0694 -0.5699 -0.2764
   72SAPC   C21 6275   2.880   5.409   2.528  0.0365  1.5700 -0.0631
   72SAPC   O22 6276   2.865   5.323   2.447 -0.2432  0.6393  0.0359
   72SAPC   C22 6277   2.774   5.439   2.639 -0.0843 -0.0674  1.1064
   72SAPC   H2R 6278   2.790   5.547   2.661 -0.7514  0.1016  0.7558
   72SAPC   H2S 6279   2.668   5.434   2.606  0.2364 -1.0993  0.1861
   72SAPC    C3 6280   3.215   5.557   2.520 -0.2795  0.0864  0.2420
   72SAPC    HX 6281   3.210   5.668   2.519  0.0964  0.1096  0.8019
   72SAPC    HY 6282   3.299   5.544   2.449  0.4424  1.7194  0.7524
   72SAPC   O31 6283   3.244   5.502   2.648  0.1512 -0.1159 -0.3430
   72SAPC   C31 6284   3.192   5.579   2.746 -0.5937 -0.0858 -0.6257
   72SAPC   O32 6285   3.122   5.678   2.734  0.0324  0.3854  0.0262
   72SAPC   C32 6286   3.251   5.527   2.877  0.5856  0.2298 -0.1237
   72SAPC   H2X 6287   3.340   5.591   2.897  0.0402  0.2442  2.7227
   72SAPC   H2Y 6288   3.282   5.420   2.879 -0.0627 -0.0333 -2.1553
   72SAPC   C23 6289   2.789   5.336   2.749  0.2242  0.5579 -0.2650
   72SAPC   H3R 6290   2.779   5.233   2.707 -3.0430  0.8823 -0.5664
   72SAPC   H3S 6291   2.701   5.342   2.817  2.1125 -0.3720  2.4460
   72SAPC   C24 6292   2.914   5.338   2.828 -0.6226  0.0878 -0.0309
   72SAPC   H4R 6293   2.920   5.436   2.880 -0.6069  0.7692 -1.3006
   72SAPC   H4S 6294   3.006   5.350   2.767  0.6868  3.5132  2.3406
   72SAPC   C25 6295   2.931   5.214   2.920 -0.7117 -0.9412  0.0829
   72SAPC   H5R 6296   2.960   5.129   2.857 -0.2587  0.5323 -1.7848
   72SAPC   C26 6297   2.871   5.194   3.036  0.1804 -0.1186 -0.0981
   72SAPC   H6R 6298   2.894   5.096   3.080 -0.4021  1.0117  2.9928
   72SAPC   C27 6299   2.792   5.279   3.132  0.1380  0.4756 -0.0776
   72SAPC   H7R 6300   2.777   5.382   3.093 -1.1065  0.5196  0.4562
   72SAPC   H7S 6301   2.853   5.297   3.223 -0.2982 -1.2128  0.5907
   72SAPC   C28 6302   2.654   5.222   3.172  0.2838 -0.5487  0.3549
   72SAPC   H8R 6303   2.579   5.249   3.096  0.6034  1.9468  0.8331
   72SAPC   C29 6304   2.606   5.170   3.285  0.4942  0.4683  0.3447
   72SAPC   H9R 6305   2.505   5.128   3.290  0.1195  1.2022 -0.6071
   72SAPC  C210 6306   2.688   5.132   3.402  0.8760  0.0956 -0.3348
   72SAPC  H10R 6307   2.770   5.207   3.397 -1.2227  2.5678 -0.0081
   72SAPC  H10S 6308   2.733   5.031   3.405  0.0267 -0.2920  2.1220
   72SAPC  C211 6309   2.617   5.150   3.538  0.4331 -0.5160 -0.2505
   72SAPC  H11R 6310   2.508   5.154   3.530  0.1862 -4.7453 -0.7453
   72SAPC  C212 6311   2.678   5.160   3.660  0.4929  0.4180 -0.2486
   72SAPC  H12R 6312   2.619   5.163   3.752  0.7994 -0.6365 -0.0009
   72SAPC  C213 6313   2.824   5.152   3.693  0.1288 -0.2955 -0.5232
   72SAPC  H13R 6314   2.849   5.243   3.751  0.3055 -0.0931 -0.9114
   72SAPC  H13S 6315   2.888   5.174   3.605  0.5573 -1.1407 -0.4326
   72SAPC  C214 6316   2.865   5.026   3.765 -0.8457 -0.2061  0.6683
   72SAPC  H14R 6317   2.946   4.971   3.715  1.3442  0.9109  2.7744
   72SAPC  C215 6318   2.830   4.979   3.891 -0.5863 -0.2201  0.8244
   72SAPC  H15R 6319   2.856   4.876   3.918  1.5692  0.0495 -0.0280
   72SAPC  C216 6320   2.746   5.050   3.993  0.0163  0.4074 -0.1221
   72SAPC  H16R 6321   2.640   5.050   3.958 -0.1148  1.9430  0.2002
   72SAPC  H16S 6322   2.778   5.156   4.002  1.9036 -0.1066 -0.3594
   72SAPC  C217 6323   2.757   4.980   4.133 -0.1269 -0.7698 -0.4054
   72SAPC  H17R 6324   2.705   5.051   4.202 -0.3433 -0.4280 -0.9129
   72SAPC  H17S 6325   2.862   4.962   4.162 -0.1684  2.0113  1.9577
   72SAPC  C218 6326   2.678   4.849   4.144  0.0364 -0.1288  0.8453
   72SAPC  H18R 6327   2.709   4.782   4.060  3.0538  2.7236 -0.5508
   72SAPC  H18S 6328   2.570   4.875   4.135  0.2802  0.9453  0.8597
   72SAPC  C219 6329   2.698   4.778   4.275 -0.5717 -0.1339 -1.1760
   72SAPC  H19R 6330   2.694   4.845   4.363 -0.5752 -1.0574 -0.4522
   72SAPC  H19S 6331   2.805   4.749   4.286 -0.3129  0.9668 -0.6868
   72SAPC  C220 6332   2.609   4.654   4.311  0.8601  0.3751  0.3527
   72SAPC  H20R 6333   2.642   4.622   4.412  0.4160 -0.2727  0.2973
   72SAPC  H20S 6334   2.620   4.564   4.247  0.1028 -0.6091  1.5867
   72SAPC  H20T 6335   2.502   4.681   4.320  0.8377 -0.5474  4.0319
   72SAPC   C33 6336   3.173   5.555   3.006 -0.6023  0.1282 -0.7419
   72SAPC   H3X 6337   3.069   5.516   3.011 -0.8455  0.9004  2.6465
   72SAPC   H3Y 6338   3.165   5.664   3.027 -1.9390 -0.1975  0.5926
   72SAPC   C34 6339   3.252   5.498   3.119  0.1933  0.8840 -0.3197
   72SAPC   H4X 6340   3.357   5.533   3.114  0.5075  0.0010 -0.0204
   72SAPC   H4Y 6341   3.276   5.393   3.093  1.1510  0.7289  1.0945
   72SAPC   C35 6342   3.184   5.505   3.258  0.1314 -0.2132 -0.0531
   72SAPC   H5X 6343   3.091   5.448   3.241  0.5503 -1.3922  1.3337
   72SAPC   H5Y 6344   3.153   5.610   3.274 -1.5798 -0.9405  1.8474
   72SAPC   C36 6345   3.272   5.446   3.367 -0.3017  0.5239  0.4249
   72SAPC   H6X 6346   3.365   5.507   3.375  1.7276 -2.1377 -1.3919
   72SAPC   H6Y 6347   3.308   5.348   3.330  0.7903  1.3089 -0.6736
   72SAPC   C37 6348   3.203   5.400   3.498 -0.2955 -0.7837  0.5685
   72SAPC   H7X 6349   3.275   5.357   3.571  0.7044  1.2317  0.8405
   72SAPC   H7Y 6350   3.119   5.329   3.483 -0.3092 -0.3002 -1.9976
   72SAPC   C38 6351   3.128   5.519   3.564 -0.3168 -0.5509  0.1836
   72SAPC   H8X 6352   3.049   5.560   3.497  0.6499 -2.6610 -2.4393
   72SAPC   H8Y 6353   3.201   5.602   3.577  1.6231 -1.5881 -2.8320
   72SAPC   C39 6354   3.056   5.488   3.696 -0.0560  0.5395 -0.6441
   72SAPC   H9X 6355   2.975   5.415   3.678  0.6513 -0.2592 -0.6703
   72SAPC   H9Y 6356   3.013   5.584   3.732 -1.6416  0.1112 -1.3295
   72SAPC  C310 6357   3.149   5.441   3.810 -0.6005  0.1495 -1.1729
   72SAPC  H10X 6358   3.245   5.493   3.790 -0.8052  1.1701  0.4311
   72SAPC  H10Y 6359   3.167   5.331   3.812  0.0810  0.2665 -0.3092
   72SAPC  C311 6360   3.107   5.473   3.957 -0.6850 -0.7535 -0.0575
   72SAPC  H11X 6361   3.091   5.583   3.962  0.6525 -0.5795  1.4442
   72SAPC  H11Y 6362   3.200   5.450   4.014  0.0858  0.0482 -0.9503
   72SAPC  C312 6363   3.004   5.382   4.019 -0.4855  0.7754 -0.0873
   72SAPC  H12X 6364   3.026   5.275   3.999 -1.8172  0.4316  0.1812
   72SAPC  H12Y 6365   2.905   5.401   3.971 -0.7052  0.6180  0.3025
   72SAPC  C313 6366   2.995   5.404   4.168 -0.1741  0.6870 -0.0064
   72SAPC  H13X 6367   2.901   5.351   4.195 -1.3399  2.1046 -1.0591
   72SAPC  H13Y 6368   2.979   5.512   4.188  1.1054  0.8288  0.3368
   72SAPC  C314 6369   3.111   5.339   4.240  0.2805 -0.1895 -0.9601
   72SAPC  H14X 6370   3.209   5.376   4.203  1.0477 -0.1838  0.9805
   72SAPC  H14Y 6371   3.113   5.229   4.224  0.6402 -0.2124 -0.7720
   72SAPC  C315 6372   3.117   5.349   4.397 -0.5085 -0.0754 -0.2106
   72SAPC  H15X 6373   3.130   5.455   4.428 -0.0137 -0.6984  1.8925
   72SAPC  H15Y 6374   3.199   5.281   4.429 -1.8288 -1.0937  1.1662
   72SAPC  C316 6375   2.997   5.283   4.448 -0.3904 -0.0098 -0.2755
   72SAPC  H16X 6376   2.900   5.316   4.404 -0.8971 -1.2848 -0.1597
   72SAPC  H16Y 6377   2.992   5.316   4.554 -0.9822 -0.9229 -0.0008
   72SAPC  C317 6378   2.995   5.131   4.460  0.5168 -0.7690  0.6796
   72SAPC  H17X 6379   3.006   5.092   4.357 -0.6584 -2.7164  1.2499
   72SAPC  H17Y 6380   2.892   5.103   4.490 -1.0310  2.3834 -1.1058
   72SAPC  C318 6381   3.097   5.054   4.538  0.7360  0.0962  0.5003
   72SAPC  H18X 6382   3.194   5.042   4.485  0.0203  2.9735 -1.6941
   72SAPC  H18Y 6383   3.051   4.957   4.568  0.4360 -0.1849 -0.8050
   72SAPC  H18Z 6384   3.110   5.105   4.636 -0.0702  0.2844  0.5160
   73SLPC     N 6385   3.103   0.757   6.446 -0.5246 -0.1197  0.3909
   73SLPC   C13 6386   2.986   0.839   6.484 -0.1371  0.4132 -0.8571
   73SLPC  H13A 6387   3.006   0.944   6.495  0.7756  0.0105  2.5561
   73SLPC  H13B 6388   2.912   0.822   6.408 -2.0722  2.6988  0.3712
   73SLPC  H13C 6389   2.940   0.800   6.574 -1.5718  1.5597 -1.0493
   73SLPC   C14 6390   3.207   0.755   6.550 -0.6337 -0.3540 -0.7131
   73SLPC  H14A 6391   3.182   0.704   6.642 -0.5681  0.1285 -0.4216
   73SLPC  H14B 6392   3.290   0.691   6.522 -0.6808 -0.5226 -0.4719
   73SLPC  H14C 6393   3.242   0.856   6.566  2.0036 -0.9693 -2.0816
   73SLPC   C15 6394   3.165   0.816   6.323 -0.1190 -0.7920  0.0577
   73SLPC  H15A 6395   3.194   0.919   6.337  0.9202 -1.0485 -0.1337
   73SLPC  H15B 6396   3.246   0.754   6.286 -0.4497 -1.3678  0.2719
   73SLPC  H15C 6397   3.089   0.807   6.247 -0.7572  0.6084  0.5022
   73SLPC   C12 6398   3.059   0.614   6.415 -0.1774  0.0560  0.3333
   73SLPC  H12A 6399   2.988   0.585   6.492 -1.0773  0.3939 -0.3499
   73SLPC  H12B 6400   3.147   0.552   6.407 -0.8244 -0.7870 -0.5030
   73SLPC   C11 6401   2.978   0.583   6.285 -0.4086  0.1526  0.0658
   73SLPC  H11A 6402   2.915   0.492   6.298  0.0729 -0.0788  0.8522
   73SLPC  H11B 6403   3.039   0.560   6.195 -0.0185 -2.2585  0.8614
   73SLPC     P 6404   2.850   0.722   6.105  0.3098  0.3373  0.6279
   73SLPC   O13 6405   2.749   0.834   6.113 -0.3549 -0.0584 -0.3187
   73SLPC   O14 6406   2.977   0.752   6.042  0.0765  0.4307 -0.0611
   73SLPC   O12 6407   2.886   0.693   6.249 -0.2664  0.2379  0.1914
   73SLPC   O11 6408   2.777   0.589   6.053  0.0433 -0.1621  0.0838
   73SLPC    C1 6409   2.841   0.491   5.979  0.4360 -0.6418 -0.2880
   73SLPC    HA 6410   2.950   0.508   5.974  0.0974  1.8137 -0.8630
   73SLPC    HB 6411   2.835   0.400   6.043 -0.0073  1.1285  2.3586
   73SLPC    C2 6412   2.769   0.477   5.844 -0.1188  0.7269 -0.0721
   73SLPC    HS 6413   2.809   0.387   5.792  0.4690 -1.3736  3.5944
   73SLPC   O21 6414   2.807   0.591   5.763 -0.2320 -0.5677 -0.5739
   73SLPC   C21 6415   2.938   0.592   5.730  0.0166 -0.8088 -0.1150
   73SLPC   O22 6416   3.014   0.495   5.736 -0.7954 -0.1692  1.0078
   73SLPC   C22 6417   2.981   0.731   5.682  0.0134 -0.4023 -0.5853
   73SLPC   H2R 6418   2.893   0.767   5.625 -0.7497 -1.3633 -0.0406
   73SLPC   H2S 6419   2.990   0.781   5.781 -2.1482 -1.2101  0.0869
   73SLPC    C3 6420   2.612   0.462   5.861 -0.7612 -0.3027 -0.1848
   73SLPC    HX 6421   2.565   0.482   5.762 -0.8852  1.1890  0.1528
   73SLPC    HY 6422   2.582   0.538   5.936 -2.2189 -0.3095 -0.7317
   73SLPC   O31 6423   2.582   0.339   5.917  0.1175 -0.1217 -0.6226
   73SLPC   C31 6424   2.448   0.342   5.951 -0.0601  0.2256 -0.1086
   73SLPC   O32 6425   2.373   0.432   5.935 -0.2090  0.1614 -0.2548
   73SLPC   C32 6426   2.410   0.207   6.026  0.0231  0.0174  0.0765
   73SLPC   H2X 6427   2.422   0.233   6.134  1.5168  0.6367 -0.2095
   73SLPC   H2Y 6428   2.486   0.127   6.011 -0.5930 -0.9649  1.8761
   73SLPC   C23 6429   3.119   0.737   5.613  0.4348  0.4895  0.0761
   73SLPC   H3R 6430   3.127   0.664   5.531  2.3630 -0.0477  0.6978
   73SLPC   H3S 6431   3.193   0.702   5.688  0.7671  0.1070 -0.4314
   73SLPC   C24 6432   3.167   0.871   5.559  0.3566 -0.2691  0.9465
   73SLPC   H4R 6433   3.278   0.868   5.553  0.4436 -2.0833  2.5793
   73SLPC   H4S 6434   3.141   0.948   5.635 -0.3293 -0.0428  0.4952
   73SLPC   C25 6435   3.099   0.895   5.424  0.6200  0.3098 -0.2268
   73SLPC   H5R 6436   2.990   0.873   5.423  0.6240  0.2630  0.2635
   73SLPC   H5S 6437   3.138   0.829   5.343 -1.8129  0.6023 -1.7360
   73SLPC   C26 6438   3.131   1.044   5.394  1.2117  1.1188 -0.4131
   73SLPC   H6R 6439   3.240   1.058   5.405  1.1511  0.1455  2.1533
   73SLPC   H6S 6440   3.078   1.101   5.474  0.9637 -0.2947  0.4607
   73SLPC   C27 6441   3.077   1.079   5.247  0.4270  0.3331 -0.6865
   73SLPC   H7R 6442   3.065   1.189   5.245  0.1016  0.2987 -2.0354
   73SLPC   H7S 6443   2.975   1.036   5.233  0.2786  1.2930 -3.0540
   73SLPC   C28 6444   3.163   1.035   5.124  0.3993 -0.5425 -0.1474
   73SLPC   H8R 6445   3.188   0.927   5.136 -1.3516 -1.1934 -1.8471
   73SLPC   H8S 6446   3.253   1.100   5.111  0.1830 -0.3998 -1.0109
   73SLPC   C29 6447   3.091   1.058   4.994  0.6054 -0.3248 -0.1325
   73SLPC   H9R 6448   3.108   1.154   4.943 -0.3799  0.4682  0.9943
   73SLPC  C210 6449   3.020   0.971   4.930 -0.0243 -0.2181  0.2018
   73SLPC  H10R 6450   2.972   0.997   4.834 -1.1414  0.1555  0.8402
   73SLPC  C211 6451   2.970   0.839   4.985 -0.0017  0.1459  0.4107
   73SLPC  H11R 6452   3.048   0.789   5.047  1.7606  0.4367 -1.4452
   73SLPC  H11S 6453   2.964   0.779   4.891 -2.1207 -2.0361  1.8178
   73SLPC  C212 6454   2.836   0.845   5.063 -0.2141  0.4123 -0.2045
   73SLPC  H12R 6455   2.776   0.935   5.040  0.1635  0.5346 -0.7135
   73SLPC  C213 6456   2.784   0.760   5.157 -0.5784 -0.3695  0.0362
   73SLPC  H13R 6457   2.682   0.787   5.188 -0.2281 -0.2940  1.1624
   73SLPC  C214 6458   2.842   0.631   5.208 -0.2662 -0.2735  0.0079
   73SLPC  H14R 6459   2.770   0.581   5.277 -2.0579  1.3072 -0.6399
   73SLPC  H14S 6460   2.925   0.667   5.272 -0.2275 -0.3111 -0.0213
   73SLPC  C215 6461   2.887   0.514   5.111 -0.0628  0.2690 -0.1770
   73SLPC  H15R 6462   2.976   0.544   5.053 -0.4089 -1.3646 -1.6361
   73SLPC  H15S 6463   2.805   0.488   5.041 -0.3204  1.8686 -0.5004
   73SLPC  C216 6464   2.919   0.388   5.177  0.0518  1.0581 -0.1890
   73SLPC  H16R 6465   2.963   0.324   5.097  1.2920  1.7826 -0.1136
   73SLPC  H16S 6466   2.829   0.333   5.212  0.7096 -0.7025 -1.1093
   73SLPC  C217 6467   2.996   0.399   5.301  0.4593 -0.4057 -1.0069
   73SLPC  H17R 6468   2.920   0.432   5.376  2.0655  0.2417  0.4211
   73SLPC  H17S 6469   3.069   0.483   5.300 -0.6736  0.6661  0.5431
   73SLPC  C218 6470   3.065   0.273   5.348 -1.3985 -0.0628 -0.5732
   73SLPC  H18R 6471   2.998   0.186   5.365  1.1560 -1.9641  0.2646
   73SLPC  H18S 6472   3.128   0.292   5.437  1.2696 -1.3607 -2.0850
   73SLPC  H18T 6473   3.141   0.233   5.278 -0.3560  0.0695  0.4534
   73SLPC   C33 6474   2.267   0.169   5.992  0.4989 -0.3751  0.7753
   73SLPC   H3X 6475   2.199   0.253   6.017  1.2410  0.4600  0.0463
   73SLPC   H3Y 6476   2.238   0.074   6.041 -1.9902 -1.0207 -1.6805
   73SLPC   C34 6477   2.267   0.131   5.844  0.0819  0.5996  0.6923
   73SLPC   H4X 6478   2.334   0.047   5.816 -2.6016 -0.6030 -2.8662
   73SLPC   H4Y 6479   2.292   0.221   5.783 -0.5534 -0.0790 -0.5960
   73SLPC   C35 6480   2.127   0.097   5.790 -0.3833 -0.6404 -0.3730
   73SLPC   H5X 6481   2.053   0.169   5.831 -0.3039 -0.3253 -0.7815
   73SLPC   H5Y 6482   2.092   0.002   5.837 -0.4589  0.9366  3.0691
   73SLPC   C36 6483   2.089   0.091   5.643 -0.2437  0.2330 -0.0582
   73SLPC   H6X 6484   2.152   0.159   5.582 -1.8018  0.9942 -0.9131
   73SLPC   H6Y 6485   1.983   0.118   5.618 -0.0552 -0.7354 -2.1396
   73SLPC   C37 6486   2.120  -0.058   5.588  0.3282  0.2185  0.3733
   73SLPC   H7X 6487   2.043  -0.125   5.632  0.8869 -0.9899 -0.4528
   73SLPC   H7Y 6488   2.215  -0.089   5.637 -0.0688  0.9868  1.7108
   73SLPC   C38 6489   2.139  -0.065   5.442 -0.2528  0.6008 -0.3297
   73SLPC   H8X 6490   2.173  -0.168   5.417 -0.0656  0.3927  0.7170
   73SLPC   H8Y 6491   2.224  -0.007   5.400 -1.2479  0.5553 -2.5547
   73SLPC   C39 6492   2.001  -0.044   5.374 -0.0648  0.2990 -0.2935
   73SLPC   H9X 6493   1.972   0.061   5.392 -2.6326 -0.0025 -2.0697
   73SLPC   H9Y 6494   1.926  -0.108   5.426  0.1268 -0.9842 -1.5151
   73SLPC  C310 6495   1.999  -0.087   5.228  0.5205 -0.7577 -0.0946
   73SLPC  H10X 6496   1.899  -0.063   5.185  0.3564  0.6957  0.9898
   73SLPC  H10Y 6497   2.004  -0.197   5.218  0.3699 -0.8726  0.9757
   73SLPC  C311 6498   2.115  -0.029   5.145  0.3279 -0.5386 -0.4343
   73SLPC  H11X 6499   2.201  -0.092   5.174 -1.6956 -3.8302 -0.9988
   73SLPC  H11Y 6500   2.125   0.078   5.172 -1.5836 -1.2015  3.7835
   73SLPC  C312 6501   2.079  -0.038   4.991  0.2848 -0.0529 -0.1796
   73SLPC  H12X 6502   1.977   0.005   4.981  0.0281 -0.6304 -0.0922
   73SLPC  H12Y 6503   2.050  -0.144   4.976 -1.3191  0.1200  1.4129
   73SLPC  C313 6504   2.184  -0.009   4.881  0.4103 -0.0387  0.1840
   73SLPC  H13X 6505   2.270  -0.079   4.889  0.0905 -0.4256  0.2632
   73SLPC  H13Y 6506   2.235   0.089   4.885  0.0856  0.1033  1.1127
   73SLPC  C314 6507   2.127  -0.017   4.734  0.3390 -0.6344  0.2469
   73SLPC  H14X 6508   2.020   0.013   4.743 -0.1554 -1.8469 -1.1861
   73SLPC  H14Y 6509   2.135  -0.123   4.701  2.3579  0.0612 -1.7400
   73SLPC  C315 6510   2.200   0.051   4.613 -0.5257 -0.1093  0.7683
   73SLPC  H15X 6511   2.161   0.002   4.521  1.3607 -0.4395  0.1124
   73SLPC  H15Y 6512   2.305   0.017   4.615 -0.8026 -1.2157 -1.0782
   73SLPC  C316 6513   2.187   0.207   4.593 -0.7399 -0.3065  0.4807
   73SLPC  H16X 6514   2.268   0.244   4.527 -3.1469  0.9531 -1.9705
   73SLPC  H16Y 6515   2.194   0.258   4.691 -1.1243 -2.4615  1.7086
   73SLPC  C317 6516   2.059   0.241   4.513 -0.0846 -0.6183  0.3146
   73SLPC  H17X 6517   2.001   0.323   4.561 -1.1762  0.8133 -3.1638
   73SLPC  H17Y 6518   1.990   0.153   4.516  0.0577 -0.7412 -0.0414
   73SLPC  C318 6519   2.093   0.282   4.370  0.1715  0.2834 -0.1090
   73SLPC  H18X 6520   2.127   0.189   4.319 -0.8332 -1.2246  1.8031
   73SLPC  H18Y 6521   2.180   0.351   4.377 -0.1856  0.6403  0.9891
   73SLPC  H18Z 6522   2.008   0.320   4.310  0.6818  0.1902 -0.9063
   74SLPC     N 6523   1.562   5.668   6.610  0.2824  0.1989  0.1082
   74SLPC   C13 6524   1.413   5.645   6.626 -0.1478  0.2421  0.3911
   74SLPC  H13A 6525   1.365   5.652   6.529 -1.2606 -1.5246  0.7833
   74SLPC  H13B 6526   1.387   5.551   6.672 -3.0753  0.6653 -0.2340
   74SLPC  H13C 6527   1.363   5.729   6.671 -2.0716 -0.8400  0.3902
   74SLPC   C14 6528   1.612   5.687   6.749 -0.6012  0.4411  0.2339
   74SLPC  H14A 6529   1.589   5.603   6.813 -1.5506 -0.1307 -0.8137
   74SLPC  H14B 6530   1.717   5.706   6.762 -0.4930 -0.8677  1.5697
   74SLPC  H14C 6531   1.570   5.775   6.796  0.3780 -0.1758  2.4113
   74SLPC   C15 6532   1.583   5.795   6.534 -0.0803  0.7386 -0.6212
   74SLPC  H15A 6533   1.536   5.874   6.591 -0.0372  0.5354 -0.2974
   74SLPC  H15B 6534   1.688   5.821   6.529  0.1157  0.1589  0.2094
   74SLPC  H15C 6535   1.544   5.790   6.434 -1.4664 -3.1154 -0.0470
   74SLPC   C12 6536   1.611   5.542   6.535 -0.2983 -0.4704  0.0348
   74SLPC  H12A 6537   1.716   5.562   6.518 -0.9306  1.9003 -1.5918
   74SLPC  H12B 6538   1.567   5.541   6.436  0.0868  2.4345 -0.2452
   74SLPC   C11 6539   1.597   5.404   6.598 -0.3342  0.2463 -0.3846
   74SLPC  H11A 6540   1.616   5.422   6.706 -0.1479 -4.8045  0.6760
   74SLPC  H11B 6541   1.680   5.334   6.575 -0.0837  0.3549  0.1726
   74SLPC     P 6542   1.434   5.275   6.457  0.0803 -0.2034  0.3619
   74SLPC   O13 6543   1.356   5.148   6.477  0.3503 -0.2796 -0.0339
   74SLPC   O14 6544   1.372   5.371   6.355 -0.5025  0.1702 -0.2576
   74SLPC   O12 6545   1.465   5.349   6.590 -0.4838 -0.3961  0.0857
   74SLPC   O11 6546   1.576   5.229   6.398  0.5538  0.1465 -0.4271
   74SLPC    C1 6547   1.590   5.174   6.261 -0.0855 -0.0660 -0.4100
   74SLPC    HA 6548   1.676   5.104   6.259  1.5832  1.8416  0.4776
   74SLPC    HB 6549   1.495   5.130   6.224 -0.4476  0.9122 -0.6874
   74SLPC    C2 6550   1.635   5.279   6.162  0.3898 -0.1473 -0.0216
   74SLPC    HS 6551   1.555   5.355   6.151  2.0265  1.3658 -2.5328
   74SLPC   O21 6552   1.652   5.217   6.032 -0.0108  0.4196  0.1437
   74SLPC   C21 6553   1.663   5.298   5.927 -0.3747  0.8091  0.0414
   74SLPC   O22 6554   1.662   5.419   5.926 -0.6444 -0.1502  0.0280
   74SLPC   C22 6555   1.658   5.211   5.805 -0.2462 -0.1071 -0.5481
   74SLPC   H2R 6556   1.712   5.116   5.823  0.2576  0.3864  0.6683
   74SLPC   H2S 6557   1.550   5.201   5.782  0.4350 -1.7917 -3.5182
   74SLPC    C3 6558   1.760   5.353   6.209  0.3983 -0.8314  0.7513
   74SLPC    HX 6559   1.740   5.376   6.316 -2.8920 -2.5923  0.6331
   74SLPC    HY 6560   1.754   5.450   6.154 -0.5162 -0.5494  1.3263
   74SLPC   O31 6561   1.893   5.297   6.182  0.0857  0.9430  0.4236
   74SLPC   C31 6562   1.961   5.250   6.281 -0.0879 -0.4459  0.0058
   74SLPC   O32 6563   1.938   5.257   6.402 -0.3362  0.1104  0.1347
   74SLPC   C32 6564   2.092   5.182   6.224  0.5001  0.2040 -0.9447
   74SLPC   H2X 6565   2.080   5.075   6.250  0.2253  0.2782 -0.7674
   74SLPC   H2Y 6566   2.171   5.224   6.290  0.7431  0.3691 -1.3358
   74SLPC   C23 6567   1.732   5.285   5.700 -0.1195 -0.2911  0.1519
   74SLPC   H3R 6568   1.840   5.299   5.723 -0.3881  2.2200  0.1538
   74SLPC   H3S 6569   1.691   5.386   5.681  1.9432  0.8358  1.2572
   74SLPC   C24 6570   1.719   5.211   5.566 -0.6663 -0.4080  0.1437
   74SLPC   H4R 6571   1.612   5.190   5.545 -0.8713  0.2887  0.4836
   74SLPC   H4S 6572   1.772   5.113   5.566  0.5199  0.2044  1.0122
   74SLPC   C25 6573   1.780   5.292   5.457 -0.0536 -0.2859 -0.1734
   74SLPC   H5R 6574   1.887   5.314   5.481 -0.5874 -1.1824  3.5221
   74SLPC   H5S 6575   1.720   5.386   5.461 -1.0364 -0.9500  2.0973
   74SLPC   C26 6576   1.760   5.225   5.319  0.0979  0.5121 -0.7040
   74SLPC   H6R 6577   1.666   5.165   5.323  0.6653 -0.3294  0.9199
   74SLPC   H6S 6578   1.832   5.142   5.304 -0.2578  0.2578 -1.0358
   74SLPC   C27 6579   1.782   5.321   5.201 -0.1816  0.0324  0.2977
   74SLPC   H7R 6580   1.892   5.339   5.194 -0.6176  4.5328  2.0508
   74SLPC   H7S 6581   1.738   5.417   5.234  4.3498  2.8659 -0.9336
   74SLPC   C28 6582   1.727   5.274   5.069  0.0515 -0.4397 -0.1819
   74SLPC   H8R 6583   1.728   5.357   4.995  0.9869  0.9694  1.3375
   74SLPC   H8S 6584   1.626   5.233   5.086 -1.1555  1.6012 -1.8481
   74SLPC   C29 6585   1.818   5.168   5.016 -0.0246 -0.7154  0.1212
   74SLPC   H9R 6586   1.924   5.187   5.039 -0.2039  4.0860 -1.8936
   74SLPC  C210 6587   1.777   5.057   4.947 -0.3211 -0.4856 -0.2682
   74SLPC  H10R 6588   1.859   4.992   4.912  2.3959  1.0529  2.7563
   74SLPC  C211 6589   1.631   5.016   4.904  0.0640  0.0661  0.2890
   74SLPC  H11R 6590   1.580   5.104   4.858  0.0315  1.2316  2.4257
   74SLPC  H11S 6591   1.569   4.998   4.994 -2.3618  0.3464 -1.2154
   74SLPC  C212 6592   1.631   4.895   4.817 -0.2832  0.3641 -0.2176
   74SLPC  H12R 6593   1.669   4.920   4.717 -2.3203  1.6504 -0.7136
   74SLPC  C213 6594   1.572   4.776   4.837  0.1700 -0.2628  0.3432
   74SLPC  H13R 6595   1.576   4.695   4.763  2.8194  1.3680 -1.4718
   74SLPC  C214 6596   1.498   4.748   4.968  0.0331  0.6193 -0.1300
   74SLPC  H14R 6597   1.419   4.672   4.947 -0.4437  1.2216 -0.5549
   74SLPC  H14S 6598   1.438   4.840   4.983  3.3760  2.6465  1.7897
   74SLPC  C215 6599   1.583   4.711   5.088 -0.7896  0.0512  0.3076
   74SLPC  H15R 6600   1.676   4.773   5.094 -1.5618  1.1977  0.8465
   74SLPC  H15S 6601   1.624   4.608   5.081  1.1580  0.6942  1.2793
   74SLPC  C216 6602   1.508   4.728   5.220 -0.9699 -0.1846  0.2244
   74SLPC  H16R 6603   1.573   4.703   5.308  0.6148 -1.4114 -1.2182
   74SLPC  H16S 6604   1.411   4.674   5.227 -0.6976 -0.6507  0.5376
   74SLPC  C217 6605   1.472   4.875   5.243 -0.0136  0.3294 -0.4030
   74SLPC  H17R 6606   1.384   4.904   5.181 -2.1008 -1.9999  1.2345
   74SLPC  H17S 6607   1.566   4.925   5.210  1.1143 -0.0812  1.9996
   74SLPC  C218 6608   1.439   4.916   5.388 -0.3587  0.3742 -0.4725
   74SLPC  H18R 6609   1.527   4.896   5.453 -0.8787 -1.4424 -0.2652
   74SLPC  H18S 6610   1.362   4.841   5.415 -0.7151 -0.2084 -2.8798
   74SLPC  H18T 6611   1.388   5.014   5.389  1.9311  1.6778  2.3715
   74SLPC   C33 6612   2.135   5.187   6.079  0.7708 -0.7048  0.9644
   74SLPC   H3X 6613   2.244   5.169   6.076  1.1517  1.4845 -0.3753
   74SLPC   H3Y 6614   2.116   5.292   6.047  3.0711 -0.5549 -0.0975
   74SLPC   C34 6615   2.054   5.094   5.989  0.5678  0.2101 -0.4586
   74SLPC   H4X 6616   1.946   5.119   5.992  1.3088  4.1462 -0.1857
   74SLPC   H4Y 6617   2.057   4.988   6.020  1.4666 -0.3314 -2.2775
   74SLPC   C35 6618   2.084   5.099   5.838 -0.4686  0.1665 -0.3755
   74SLPC   H5X 6619   2.190   5.072   5.818 -0.4007  0.9625 -1.1085
   74SLPC   H5Y 6620   2.064   5.205   5.813 -0.7939  0.3960  0.7914
   74SLPC   C36 6621   2.011   5.005   5.740 -0.2260  0.1679 -0.0819
   74SLPC   H6X 6622   1.903   5.029   5.749  0.2318  1.5217  2.5813
   74SLPC   H6Y 6623   2.046   4.903   5.769  2.6916  0.8787 -0.7184
   74SLPC   C37 6624   2.038   5.012   5.595 -0.4628  0.4302 -0.1198
   74SLPC   H7X 6625   2.147   5.002   5.576 -0.5913 -0.7812 -0.3218
   74SLPC   H7Y 6626   2.025   5.113   5.549 -0.7218 -0.1102 -1.2884
   74SLPC   C38 6627   1.965   4.904   5.506 -0.2370  0.1076 -0.5568
   74SLPC   H8X 6628   1.865   4.952   5.506 -1.2960 -1.9793 -1.9584
   74SLPC   H8Y 6629   1.948   4.817   5.573 -1.0422  0.8048  0.1716
   74SLPC   C39 6630   2.026   4.872   5.368  0.1066  1.1403  0.4294
   74SLPC   H9X 6631   1.945   4.844   5.297  1.7135 -0.2400 -0.9617
   74SLPC   H9Y 6632   2.085   4.780   5.383  1.8332  2.2282  0.6465
   74SLPC  C310 6633   2.127   4.969   5.305  0.0469 -0.0710  0.3339
   74SLPC  H10X 6634   2.222   4.964   5.361  0.5617  1.8590 -0.2869
   74SLPC  H10Y 6635   2.100   5.071   5.342  2.8480  0.8335  0.0840
   74SLPC  C311 6636   2.129   4.980   5.153 -0.3278 -0.8326 -0.1555
   74SLPC  H11X 6637   2.195   5.060   5.113 -0.0997  0.0807  1.8993
   74SLPC  H11Y 6638   2.025   4.991   5.116 -0.9803 -1.3006  1.4588
   74SLPC  C312 6639   2.191   4.858   5.093 -0.2183  0.1724  0.1807
   74SLPC  H12X 6640   2.141   4.770   5.139  1.1560 -0.5824  0.2831
   74SLPC  H12Y 6641   2.301   4.847   5.106 -0.3141  1.1795  2.2416
   74SLPC  C313 6642   2.163   4.834   4.945  0.1382  0.1551 -0.0537
   74SLPC  H13X 6643   2.054   4.825   4.924  0.2220 -1.9714  0.1799
   74SLPC  H13Y 6644   2.212   4.738   4.919  2.8925  0.9294  1.8952
   74SLPC  C314 6645   2.206   4.938   4.848 -0.4250 -0.7339  0.3422
   74SLPC  H14X 6646   2.314   4.965   4.847  0.2297 -2.4427 -4.5356
   74SLPC  H14Y 6647   2.147   5.028   4.874  1.6155  0.2702  1.7577
   74SLPC  C315 6648   2.177   4.902   4.701 -0.7137 -0.7922 -0.4023
   74SLPC  H15X 6649   2.068   4.891   4.686 -0.8336 -0.6742  0.3368
   74SLPC  H15Y 6650   2.213   4.799   4.682  0.7564 -1.1806  3.5800
   74SLPC  C316 6651   2.243   4.997   4.596  0.2151  0.0920 -0.2924
   74SLPC  H16X 6652   2.247   5.103   4.630  2.6924  0.3430 -1.1615
   74SLPC  H16Y 6653   2.177   4.994   4.507 -0.5850  1.5671  0.2078
   74SLPC  C317 6654   2.392   4.966   4.559  0.4369  0.3274 -0.1913
   74SLPC  H17X 6655   2.404   4.858   4.537  0.9232  0.7138 -1.9459
   74SLPC  H17Y 6656   2.446   4.986   4.654 -0.4397 -1.9360  0.8488
   74SLPC  C318 6657   2.441   5.054   4.445 -0.4420  0.5963 -0.3804
   74SLPC  H18X 6658   2.367   5.046   4.363 -0.7590 -1.5872  0.0736
   74SLPC  H18Y 6659   2.544   5.021   4.420 -1.4703 -3.0589 -0.2535
   74SLPC  H18Z 6660   2.447   5.162   4.473  3.3860  0.3541  0.1893
   75SLPC     N 6661   3.056   1.773   7.053 -0.1976 -0.3876 -0.4417
   75SLPC   C13 6662   2.965   1.749   7.171  0.6884 -0.8111 -0.2364
   75SLPC  H13A 6663   3.000   1.672   7.239  0.2411 -2.2353 -1.5790
   75SLPC  H13B 6664   2.943   1.840   7.225 -2.2443 -0.1877 -2.2328
   75SLPC  H13C 6665   2.870   1.709   7.140 -2.3112  3.8972  1.7996
   75SLPC   C14 6666   3.168   1.854   7.099  0.7455  0.5578  0.7688
   75SLPC  H14A 6667   3.230   1.814   7.178  1.0243  0.6071  0.5785
   75SLPC  H14B 6668   3.242   1.867   7.022 -2.5925 -1.8844 -3.2256
   75SLPC  H14C 6669   3.129   1.949   7.134 -0.8761  0.9203 -1.7797
   75SLPC   C15 6670   2.979   1.835   6.938 -0.7378 -0.6452  0.4790
   75SLPC  H15A 6671   2.895   1.776   6.904 -0.0825 -0.1259 -2.2726
   75SLPC  H15B 6672   2.940   1.930   6.970  0.3986 -0.0528  0.1371
   75SLPC  H15C 6673   3.045   1.847   6.854  0.2161 -0.4021  1.2348
   75SLPC   C12 6674   3.114   1.635   7.014  0.1035 -0.9066  0.0881
   75SLPC  H12A 6675   3.023   1.581   6.995 -1.4669  1.5735  0.1457
   75SLPC  H12B 6676   3.171   1.602   7.100 -0.3238 -0.0298  0.7236
   75SLPC   C11 6677   3.216   1.635   6.904  0.5284  0.2174  0.0424
   75SLPC  H11A 6678   3.179   1.680   6.809 -0.5197 -0.3999  0.1476
   75SLPC  H11B 6679   3.230   1.527   6.884  1.2802  0.3064  0.0507
   75SLPC     P 6680   3.436   1.776   6.865 -0.4979  0.2324  0.3912
   75SLPC   O13 6681   3.392   1.919   6.855  0.5314 -0.5518  0.0968
   75SLPC   O14 6682   3.574   1.754   6.913  0.2419 -0.1461  0.1912
   75SLPC   O12 6683   3.340   1.689   6.954  0.3176  0.0626  0.6079
   75SLPC   O11 6684   3.421   1.718   6.718 -0.1565  0.2193  0.0116
   75SLPC    C1 6685   3.530   1.696   6.628  1.4196 -0.1990 -0.0756
   75SLPC    HA 6686   3.631   1.695   6.674  1.1708 -0.5127  0.4695
   75SLPC    HB 6687   3.506   1.607   6.566  0.4557  0.6235 -0.9291
   75SLPC    C2 6688   3.554   1.802   6.518  0.0140  0.6365  0.1641
   75SLPC    HS 6689   3.585   1.897   6.568  2.4125  0.4721 -0.8799
   75SLPC   O21 6690   3.426   1.827   6.452 -0.3654  0.0573  0.0635
   75SLPC   C21 6691   3.392   1.947   6.419  0.2721 -0.5221  0.0614
   75SLPC   O22 6692   3.452   2.052   6.448 -0.7973 -0.0590  0.0787
   75SLPC   C22 6693   3.267   1.949   6.328 -0.0992  0.0855 -1.1830
   75SLPC   H2R 6694   3.217   1.849   6.326  2.5044 -1.3696  0.1561
   75SLPC   H2S 6695   3.192   2.017   6.373 -1.5057 -1.1605 -1.5905
   75SLPC    C3 6696   3.661   1.761   6.411  0.1293 -0.1526 -0.8729
   75SLPC    HX 6697   3.623   1.673   6.355 -1.5724 -0.5646  0.8534
   75SLPC    HY 6698   3.751   1.717   6.459  1.0467  0.4201 -2.0099
   75SLPC   O31 6699   3.696   1.864   6.324  0.0583  0.2299 -0.1115
   75SLPC   C31 6700   3.764   1.973   6.364 -0.1665 -0.0052  0.0812
   75SLPC   O32 6701   3.812   1.987   6.475 -0.5225  0.0361  0.2980
   75SLPC   C32 6702   3.767   2.080   6.256 -0.7781  0.5490 -0.5486
   75SLPC   H2X 6703   3.667   2.127   6.265 -0.5054  0.9378  0.5383
   75SLPC   H2Y 6704   3.776   2.027   6.158 -0.2509 -0.5257  0.0641
   75SLPC   C23 6705   3.299   1.993   6.182  0.3441 -0.3515 -0.0597
   75SLPC   H3R 6706   3.351   2.088   6.156  0.3760 -0.5156 -0.6209
   75SLPC   H3S 6707   3.199   2.008   6.136 -0.3411 -1.6993  0.9273
   75SLPC   C24 6708   3.370   1.879   6.108 -0.1450 -0.6341 -0.4403
   75SLPC   H4R 6709   3.298   1.798   6.086  0.9575 -1.9981  0.7344
   75SLPC   H4S 6710   3.447   1.832   6.173 -2.4187 -2.7080  0.9235
   75SLPC   C25 6711   3.413   1.911   5.960  0.5951  0.5871  0.3521
   75SLPC   H5R 6712   3.316   1.938   5.912  0.1701 -3.1927 -1.3337
   75SLPC   H5S 6713   3.444   1.820   5.905 -1.6548  1.0368 -1.8602
   75SLPC   C26 6714   3.520   2.022   5.948  0.3656 -0.1719  0.4555
   75SLPC   H6R 6715   3.616   1.972   5.968 -0.7258 -2.5927 -0.0322
   75SLPC   H6S 6716   3.486   2.090   6.030  0.0828 -0.0153  0.2117
   75SLPC   C27 6717   3.526   2.099   5.819  0.1901  0.1607 -0.2799
   75SLPC   H7R 6718   3.605   2.176   5.819 -0.3355  0.7682 -2.0770
   75SLPC   H7S 6719   3.435   2.163   5.824 -0.2326 -0.3969 -0.6598
   75SLPC   C28 6720   3.520   2.010   5.689 -0.2026  0.5400 -0.7546
   75SLPC   H8R 6721   3.418   1.967   5.684 -0.1991  0.6409 -2.3289
   75SLPC   H8S 6722   3.594   1.927   5.696  1.0293  1.6647 -0.0536
   75SLPC   C29 6723   3.551   2.094   5.566  1.1660  0.3385 -0.6129
   75SLPC   H9R 6724   3.634   2.165   5.579  1.2340  0.1363  0.1311
   75SLPC  C210 6725   3.476   2.099   5.455 -0.0227 -0.2103  0.0361
   75SLPC  H10R 6726   3.505   2.167   5.374  0.5332  1.2423  1.3944
   75SLPC  C211 6727   3.364   2.006   5.426 -0.7398 -0.3610 -0.3795
   75SLPC  H11R 6728   3.271   2.061   5.451  0.8059  0.5923  4.1789
   75SLPC  H11S 6729   3.376   1.914   5.487 -1.0128 -0.9170 -1.1543
   75SLPC  C212 6730   3.367   1.948   5.285  0.2869  0.0952  0.1594
   75SLPC  H12R 6731   3.456   1.884   5.270  0.9148  0.7900  0.8098
   75SLPC  C213 6732   3.275   1.963   5.189  0.7628  0.4557  0.4912
   75SLPC  H13R 6733   3.278   1.904   5.097  1.2401  0.9912  0.1594
   75SLPC  C214 6734   3.143   2.037   5.211 -0.4264 -0.9179 -0.1359
   75SLPC  H14R 6735   3.125   2.081   5.312  0.1550 -0.4755 -0.2230
   75SLPC  H14S 6736   3.055   1.969   5.208 -1.3775 -0.2456  4.4200
   75SLPC  C215 6737   3.119   2.148   5.102  0.1569 -0.3447 -0.0546
   75SLPC  H15R 6738   3.208   2.215   5.102  0.7330 -1.0909 -0.4502
   75SLPC  H15S 6739   3.024   2.196   5.134  0.8756 -0.3728  2.2866
   75SLPC  C216 6740   3.112   2.082   4.955 -0.0415  0.2484  0.0056
   75SLPC  H16R 6741   3.047   1.992   4.966 -3.3789  2.5865  1.0900
   75SLPC  H16S 6742   3.211   2.046   4.920  0.0108 -1.2454  1.5570
   75SLPC  C217 6743   3.045   2.167   4.853  0.0480 -0.6797  0.1362
   75SLPC  H17R 6744   3.115   2.250   4.828 -1.1859  0.0691 -0.9866
   75SLPC  H17S 6745   2.959   2.217   4.904  0.7176  2.1340 -1.2662
   75SLPC  C218 6746   2.995   2.093   4.725 -0.3395  0.6888  0.2731
   75SLPC  H18R 6747   3.062   2.014   4.685 -2.0273  0.5576 -2.6028
   75SLPC  H18S 6748   2.996   2.173   4.648 -0.0771  1.1263  0.7259
   75SLPC  H18T 6749   2.893   2.056   4.749  0.0226 -0.4020  0.1934
   75SLPC   C33 6750   3.888   2.184   6.266  0.3193 -0.3802 -0.7684
   75SLPC   H3X 6751   3.985   2.129   6.263 -0.1951 -1.4519  0.7909
   75SLPC   H3Y 6752   3.883   2.238   6.363  1.5748 -1.2067 -0.2110
   75SLPC   C34 6753   3.878   2.292   6.155  0.1149 -0.0101 -0.0222
   75SLPC   H4X 6754   3.895   2.395   6.192 -2.2300 -0.3720  2.3580
   75SLPC   H4Y 6755   3.772   2.283   6.122  0.7249  0.1049 -2.2006
   75SLPC   C35 6756   3.959   2.264   6.033  0.1028 -0.4425 -0.4003
   75SLPC   H5X 6757   3.943   2.156   6.014 -0.1551 -1.4069  4.1300
   75SLPC   H5Y 6758   4.067   2.288   6.046 -0.5030  1.9759  0.8800
   75SLPC   C36 6759   3.917   2.340   5.909 -0.5404  0.2331  1.2156
   75SLPC   H6X 6760   3.937   2.449   5.912 -1.1761  0.3953  0.2078
   75SLPC   H6Y 6761   3.807   2.327   5.896 -0.2003  0.0572 -2.3654
   75SLPC   C37 6762   3.995   2.282   5.783 -0.1620  0.1622 -0.4609
   75SLPC   H7X 6763   3.990   2.171   5.785 -1.1032  0.1905  1.4296
   75SLPC   H7Y 6764   4.104   2.301   5.791 -0.3736  0.8983  1.0945
   75SLPC   C38 6765   3.938   2.334   5.651 -0.2148  0.3004 -0.6708
   75SLPC   H8X 6766   3.938   2.445   5.659  0.7554  0.1569  3.2889
   75SLPC   H8Y 6767   3.835   2.302   5.625 -0.3799  0.4586 -0.2209
   75SLPC   C39 6768   4.027   2.297   5.530 -0.3459 -0.3862  0.1268
   75SLPC   H9X 6769   4.032   2.188   5.506 -1.1297 -0.3708 -0.1439
   75SLPC   H9Y 6770   4.131   2.332   5.549 -0.5229 -0.2037  0.8006
   75SLPC  C310 6771   3.994   2.381   5.407 -0.7294 -0.2367  0.8104
   75SLPC  H10X 6772   4.012   2.490   5.423  0.0126 -0.1538 -0.5041
   75SLPC  H10Y 6773   3.887   2.368   5.379 -0.4903 -0.0292 -0.2261
   75SLPC  C311 6774   4.064   2.335   5.275 -0.1371 -0.3187  0.2427
   75SLPC  H11X 6775   4.038   2.231   5.245  0.7905 -0.8324  1.1504
   75SLPC  H11Y 6776   4.172   2.334   5.301 -0.2184  2.5744  0.9370
   75SLPC  C312 6777   4.046   2.430   5.157 -0.0273 -0.3466  0.0002
   75SLPC  H12X 6778   4.118   2.398   5.079  1.4298  0.5863  0.9214
   75SLPC  H12Y 6779   4.087   2.529   5.186 -0.8678  0.5736 -1.7775
   75SLPC  C313 6780   3.904   2.440   5.106 -0.1387 -1.1779  0.3416
   75SLPC  H13X 6781   3.845   2.506   5.174  0.3753 -0.5891  0.2317
   75SLPC  H13Y 6782   3.857   2.340   5.111  0.2838 -1.3262  2.2502
   75SLPC  C314 6783   3.888   2.502   4.966  0.4152 -0.2595 -0.2465
   75SLPC  H14X 6784   3.782   2.475   4.945 -0.1610 -1.0334  3.0662
   75SLPC  H14Y 6785   3.952   2.444   4.897  0.5779 -0.2464 -0.1059
   75SLPC  C315 6786   3.914   2.653   4.961 -0.1545 -0.0194 -0.2274
   75SLPC  H15X 6787   4.024   2.652   4.977 -0.3991  0.3125  1.7674
   75SLPC  H15Y 6788   3.860   2.699   5.047  1.7614 -0.3071  1.1810
   75SLPC  C316 6789   3.876   2.710   4.827  0.2917 -0.2981  0.1468
   75SLPC  H16X 6790   3.907   2.817   4.825  1.8341 -0.7165  0.2143
   75SLPC  H16Y 6791   3.765   2.704   4.821  0.3512 -1.1523 -0.1844
   75SLPC  C317 6792   3.934   2.639   4.708  0.1330  0.6347  0.1676
   75SLPC  H17X 6793   3.917   2.530   4.719  0.2756  0.7435  1.7312
   75SLPC  H17Y 6794   4.042   2.661   4.695  0.0404  0.0851 -1.8007
   75SLPC  C318 6795   3.863   2.683   4.579  0.8648 -0.1498 -0.8058
   75SLPC  H18X 6796   3.915   2.641   4.490 -0.1872 -1.3608 -0.8849
   75SLPC  H18Y 6797   3.863   2.794   4.569 -0.3609 -0.0417  0.0397
   75SLPC  H18Z 6798   3.756   2.650   4.578  0.0424  2.3112 -1.9253
   76SLPC     N 6799   6.154   1.325   6.599  0.8770  0.2142 -1.0141
   76SLPC   C13 6800   6.120   1.358   6.453 -0.2670 -0.6247 -0.0209
   76SLPC  H13A 6801   6.137   1.462   6.431 -0.0930 -0.7094 -0.3045
   76SLPC  H13B 6802   6.187   1.299   6.391  0.4575 -0.1384  0.2962
   76SLPC  H13C 6803   6.021   1.331   6.417  0.0132 -1.8091  0.0367
   76SLPC   C14 6804   6.086   1.424   6.686  0.1528 -0.1259  0.1512
   76SLPC  H14A 6805   6.101   1.402   6.790  2.0415  0.6010  0.0806
   76SLPC  H14B 6806   6.122   1.526   6.680  1.3476 -0.5366  0.0454
   76SLPC  H14C 6807   5.980   1.437   6.676  0.3154  1.0703 -0.2831
   76SLPC   C15 6808   6.301   1.328   6.626 -0.2619  0.4181  0.6942
   76SLPC  H15A 6809   6.352   1.414   6.583  0.9499 -1.6348 -2.2812
   76SLPC  H15B 6810   6.306   1.313   6.733 -2.1456 -0.8716  0.6398
   76SLPC  H15C 6811   6.357   1.246   6.585  0.9958  1.3004  0.5724
   76SLPC   C12 6812   6.105   1.179   6.626 -0.2423  0.3972 -0.6446
   76SLPC  H12A 6813   5.998   1.184   6.619 -0.4005  1.4330  1.7702
   76SLPC  H12B 6814   6.122   1.151   6.729  2.0854  0.0974 -1.0535
   76SLPC   C11 6815   6.146   1.072   6.529  0.0916  0.1232 -0.0734
   76SLPC  H11A 6816   6.112   1.100   6.427 -1.5336 -1.4386 -0.0249
   76SLPC  H11B 6817   6.090   0.984   6.567 -2.3146  1.2051 -0.9095
   76SLPC     P 6818   6.366   0.960   6.631 -0.2835  0.0656  0.0464
   76SLPC   O13 6819   6.401   1.040   6.756 -1.1324 -0.5150 -0.3017
   76SLPC   O14 6820   6.283   0.844   6.650  0.3167 -0.1091  0.1344
   76SLPC   O12 6821   6.293   1.059   6.524  0.8137  0.8464  0.3919
   76SLPC   O11 6822   6.502   0.919   6.567  0.4195  0.1827 -0.5195
   76SLPC    C1 6823   6.537   0.791   6.522 -0.5496  0.4136 -0.0472
   76SLPC    HA 6824   6.639   0.765   6.558 -1.5306  0.2480  2.9320
   76SLPC    HB 6825   6.479   0.704   6.559 -2.2247  0.1496 -2.9790
   76SLPC    C2 6826   6.520   0.784   6.374  0.0737  0.1712 -0.1227
   76SLPC    HS 6827   6.570   0.869   6.322 -0.3350  1.3267  1.3260
   76SLPC   O21 6828   6.378   0.758   6.354 -0.6067 -0.6746  0.1721
   76SLPC   C21 6829   6.332   0.843   6.262 -0.2937 -0.0828  0.6374
   76SLPC   O22 6830   6.396   0.925   6.199  0.3195  0.4848  0.1290
   76SLPC   C22 6831   6.187   0.814   6.258  0.1092 -0.3009  0.1927
   76SLPC   H2R 6832   6.178   0.706   6.232  2.3017 -0.7552  1.0937
   76SLPC   H2S 6833   6.140   0.839   6.355  0.3705  0.5855  0.0991
   76SLPC    C3 6834   6.592   0.659   6.325  0.2516 -0.5260  0.3159
   76SLPC    HX 6835   6.552   0.574   6.383  2.0068 -0.1305  2.2257
   76SLPC    HY 6836   6.696   0.663   6.364 -0.0051  0.0330  0.9551
   76SLPC   O31 6837   6.578   0.638   6.184 -0.3279 -0.1873  0.3968
   76SLPC   C31 6838   6.659   0.714   6.110 -0.7406 -0.6081  0.3381
   76SLPC   O32 6839   6.736   0.794   6.158 -0.0128  0.3430  0.0821
   76SLPC   C32 6840   6.640   0.693   5.959 -0.3113 -0.3783  0.0153
   76SLPC   H2X 6841   6.530   0.693   5.943 -0.0782  1.2747 -2.0510
   76SLPC   H2Y 6842   6.685   0.594   5.935 -0.1565 -0.5683  1.0222
   76SLPC   C23 6843   6.115   0.919   6.166 -0.0653  0.2143 -0.0483
   76SLPC   H3R 6844   6.154   1.020   6.189  1.2759 -0.5315  1.1564
   76SLPC   H3S 6845   6.005   0.906   6.170  0.0007 -0.5718 -0.5080
   76SLPC   C24 6846   6.134   0.884   6.011  0.3854 -0.4302 -0.2401
   76SLPC   H4R 6847   6.243   0.872   5.993  0.5165 -1.2718  0.9931
   76SLPC   H4S 6848   6.082   0.967   5.957  0.5091 -1.5560 -2.1706
   76SLPC   C25 6849   6.065   0.755   5.973  0.9400  0.0071 -0.3096
   76SLPC   H5R 6850   5.956   0.765   5.991  1.2784  2.1078  0.9492
   76SLPC   H5S 6851   6.099   0.678   6.045 -0.5604  0.5609  1.0354
   76SLPC   C26 6852   6.079   0.711   5.829 -0.0978  0.2951  0.1196
   76SLPC   H6R 6853   6.185   0.694   5.799 -0.2568  1.6467 -1.3226
   76SLPC   H6S 6854   6.040   0.793   5.764  0.6546  0.0047 -0.7205
   76SLPC   C27 6855   6.009   0.577   5.799  0.1366 -0.0334  0.0450
   76SLPC   H7R 6856   5.903   0.579   5.832  0.0451 -2.4635  0.0780
   76SLPC   H7S 6857   6.040   0.493   5.865 -0.8144  0.0729  0.6456
   76SLPC   C28 6858   6.009   0.537   5.649  0.2490  0.1741 -0.7842
   76SLPC   H8R 6859   6.107   0.574   5.612 -0.2734  0.2286 -2.1456
   76SLPC   H8S 6860   5.937   0.606   5.601  0.9292 -1.0949 -3.8516
   76SLPC   C29 6861   5.970   0.393   5.610 -0.6073 -0.1126  0.0454
   76SLPC   H9R 6862   5.965   0.315   5.688  3.9389  0.1149  0.8143
   76SLPC  C210 6863   5.937   0.349   5.486  0.2723 -0.6204  0.0281
   76SLPC  H10R 6864   5.924   0.242   5.460  1.2790 -0.8839  0.5345
   76SLPC  C211 6865   5.937   0.436   5.363  0.6341  0.1407 -0.1712
   76SLPC  H11R 6866   5.999   0.394   5.281  0.1566  0.9122 -0.9553
   76SLPC  H11S 6867   5.984   0.532   5.394 -0.4678  0.2972  1.0954
   76SLPC  C212 6868   5.800   0.458   5.298 -0.0556 -0.5092 -0.1025
   76SLPC  H12R 6869   5.727   0.508   5.364 -0.7127  0.0226 -1.2050
   76SLPC  C213 6870   5.767   0.425   5.175  0.3442 -0.7957 -0.0394
   76SLPC  H13R 6871   5.663   0.450   5.149  0.7723 -0.3432 -1.3732
   76SLPC  C214 6872   5.850   0.375   5.059 -0.1356  0.2847 -0.2292
   76SLPC  H14R 6873   5.827   0.270   5.031 -0.4878  0.8823 -2.3108
   76SLPC  H14S 6874   5.960   0.384   5.063  0.1524 -1.0171 -2.9351
   76SLPC  C215 6875   5.847   0.448   4.931  0.1302 -0.1328  0.7006
   76SLPC  H15R 6876   5.890   0.550   4.943  1.6422 -0.7508  0.6571
   76SLPC  H15S 6877   5.741   0.476   4.910  0.4917  0.9894  0.3095
   76SLPC  C216 6878   5.904   0.380   4.809  0.7970  0.1156  0.0398
   76SLPC  H16R 6879   5.874   0.273   4.806 -2.7284  0.9981 -0.3894
   76SLPC  H16S 6880   6.014   0.383   4.827  0.4307 -0.3874  2.8669
   76SLPC  C217 6881   5.863   0.445   4.678  0.8621  0.3770  0.5628
   76SLPC  H17R 6882   5.764   0.490   4.697  0.4167 -0.7135  0.9407
   76SLPC  H17S 6883   5.850   0.367   4.599  0.6972  2.0987 -1.1809
   76SLPC  C218 6884   5.960   0.542   4.618 -0.6759 -0.1706  0.0127
   76SLPC  H18R 6885   5.916   0.591   4.528  0.8770 -1.1469 -1.3607
   76SLPC  H18S 6886   6.049   0.484   4.586 -1.5510 -0.2408 -2.5506
   76SLPC  H18T 6887   5.998   0.620   4.687  2.2953 -0.5131 -1.0804
   76SLPC   C33 6888   6.704   0.810   5.876  0.0687 -0.0867 -0.5638
   76SLPC   H3X 6889   6.812   0.813   5.904  0.2251  1.1409 -1.2202
   76SLPC   H3Y 6890   6.648   0.901   5.905 -1.2606 -1.0859  0.1155
   76SLPC   C34 6891   6.663   0.805   5.731  0.0869 -0.0316 -0.2555
   76SLPC   H4X 6892   6.673   0.901   5.676  2.3808  0.1854  0.4091
   76SLPC   H4Y 6893   6.555   0.779   5.735  0.0904  0.0490  0.4790
   76SLPC   C35 6894   6.735   0.702   5.639  0.2429 -0.2631 -0.2228
   76SLPC   H5X 6895   6.741   0.607   5.694  0.2884  0.7569  1.6048
   76SLPC   H5Y 6896   6.839   0.741   5.627  1.3819 -2.8508  0.5367
   76SLPC   C36 6897   6.666   0.693   5.500  0.8545 -1.2586  0.5514
   76SLPC   H6X 6898   6.574   0.631   5.510 -0.3632  0.7125  2.4501
   76SLPC   H6Y 6899   6.736   0.638   5.434  0.7688  0.4236 -1.0222
   76SLPC   C37 6900   6.649   0.829   5.431 -0.1866 -0.4369  0.4873
   76SLPC   H7X 6901   6.579   0.897   5.484  0.5576  1.9924 -1.4528
   76SLPC   H7Y 6902   6.590   0.822   5.337 -2.4009  0.0668  1.7790
   76SLPC   C38 6903   6.784   0.895   5.408 -0.0277 -0.0060  0.4553
   76SLPC   H8X 6904   6.833   0.832   5.331 -1.2616 -1.9196  1.1780
   76SLPC   H8Y 6905   6.840   0.896   5.503  0.6559 -2.2156  0.1299
   76SLPC   C39 6906   6.780   1.040   5.369  0.5978 -0.4031 -0.2127
   76SLPC   H9X 6907   6.876   1.094   5.354 -0.1199  2.0383  2.8721
   76SLPC   H9Y 6908   6.728   1.089   5.454  0.0804 -0.9223 -0.2292
   76SLPC  C310 6909   6.698   1.075   5.246 -0.6907  0.6828  0.5955
   76SLPC  H10X 6910   6.596   1.044   5.277 -0.5601 -1.5831 -0.9396
   76SLPC  H10Y 6911   6.727   1.013   5.158  0.8786  0.7266  1.0457
   76SLPC  C311 6912   6.701   1.219   5.205  0.3864 -0.2140  0.2472
   76SLPC  H11X 6913   6.797   1.237   5.150  0.3298  1.4586  0.6408
   76SLPC  H11Y 6914   6.682   1.285   5.292  1.0267 -2.3536  2.1020
   76SLPC  C312 6915   6.594   1.246   5.090 -0.1256  0.4746 -0.0225
   76SLPC  H12X 6916   6.494   1.221   5.131  0.2152 -2.9784 -0.9901
   76SLPC  H12Y 6917   6.613   1.173   5.009  1.3913 -1.2152  1.7389
   76SLPC  C313 6918   6.610   1.387   5.030 -0.4839  0.4280 -0.1524
   76SLPC  H13X 6919   6.697   1.398   4.963 -0.6921  0.1971 -0.4611
   76SLPC  H13Y 6920   6.603   1.459   5.114 -1.9989 -0.8505  0.8985
   76SLPC  C314 6921   6.493   1.414   4.935  0.0169  0.1838 -0.1634
   76SLPC  H14X 6922   6.400   1.392   4.991 -0.2418  1.2991 -0.1318
   76SLPC  H14Y 6923   6.488   1.351   4.844  2.3818  0.4731 -0.5637
   76SLPC  C315 6924   6.477   1.559   4.895  0.3546 -0.3170 -0.7653
   76SLPC  H15X 6925   6.573   1.612   4.911 -1.1272  2.4845 -0.5342
   76SLPC  H15Y 6926   6.390   1.599   4.952 -0.2086 -1.4105 -0.8186
   76SLPC  C316 6927   6.460   1.572   4.746 -0.5109 -0.0684 -0.2113
   76SLPC  H16X 6928   6.384   1.498   4.713  0.9788 -2.1507  0.8193
   76SLPC  H16Y 6929   6.555   1.552   4.692 -0.6638  1.9040 -1.3052
   76SLPC  C317 6930   6.408   1.709   4.694  0.4320  0.2800 -0.4170
   76SLPC  H17X 6931   6.500   1.771   4.685  0.4795  0.8119  2.6807
   76SLPC  H17Y 6932   6.352   1.755   4.779 -2.3503  0.6438 -2.3239
   76SLPC  C318 6933   6.315   1.702   4.573 -0.1491  0.4526 -0.3420
   76SLPC  H18X 6934   6.272   1.802   4.554 -1.0170  0.5070  1.6451
   76SLPC  H18Y 6935   6.229   1.639   4.606 -0.1707  1.9560  2.7923
   76SLPC  H18Z 6936   6.360   1.657   4.481 -1.8807 -1.7939 -0.2014
   77SLPC     N 6937   4.172   6.536   6.189 -0.0457 -0.0839  0.1832
   77SLPC   C13 6938   4.032   6.552   6.167 -0.1795 -0.7053 -0.3632
   77SLPC  H13A 6939   3.978   6.463   6.137 -0.4769 -0.6276 -0.0642
   77SLPC  H13B 6940   4.000   6.580   6.266  1.4790 -1.8463  0.5307
   77SLPC  H13C 6941   4.012   6.644   6.113  2.5512  0.0036 -0.3122
   77SLPC   C14 6942   4.190   6.406   6.265  0.0605  0.2247 -0.3301
   77SLPC  H14A 6943   4.121   6.396   6.347  2.5305 -1.3615  1.7144
   77SLPC  H14B 6944   4.194   6.317   6.204 -1.6582 -0.2605  0.2274
   77SLPC  H14C 6945   4.289   6.415   6.307  0.0244  2.8926 -0.6544
   77SLPC   C15 6946   4.222   6.652   6.271 -0.3997 -0.3764 -0.1525
   77SLPC  H15A 6947   4.201   6.749   6.228  1.8506  0.8586  1.3074
   77SLPC  H15B 6948   4.168   6.644   6.364 -0.9995  2.3668 -0.1865
   77SLPC  H15C 6949   4.328   6.638   6.286 -0.5803 -1.3471  0.3092
   77SLPC   C12 6950   4.255   6.534   6.055  0.3164 -0.5799 -0.1423
   77SLPC  H12A 6951   4.195   6.471   5.991  0.2187  1.1028 -1.8166
   77SLPC  H12B 6952   4.351   6.486   6.068  0.1017 -1.0993 -0.4208
   77SLPC   C11 6953   4.283   6.661   5.977  0.5435 -0.1687  0.4111
   77SLPC  H11A 6954   4.361   6.630   5.905  1.1652 -2.0435  1.8176
   77SLPC  H11B 6955   4.336   6.729   6.047  1.9043 -0.4037 -0.3500
   77SLPC     P 6956   4.119   6.692   5.777 -0.1038 -0.1418  0.0025
   77SLPC   O13 6957   4.140   6.547   5.737 -0.3005  0.3658 -0.0337
   77SLPC   O14 6958   3.982   6.735   5.750  0.0207  0.1247  0.3597
   77SLPC   O12 6959   4.162   6.726   5.930  0.0510  0.1432 -0.4667
   77SLPC   O11 6960   4.224   6.776   5.698 -0.1711 -0.3623  0.1051
   77SLPC    C1 6961   4.237   6.917   5.693  0.5875 -0.6292  0.5170
   77SLPC    HA 6962   4.192   6.960   5.601  2.6438 -0.0157 -0.2445
   77SLPC    HB 6963   4.183   6.961   5.779  0.0643 -3.9568  2.0440
   77SLPC    C2 6964   4.382   6.957   5.688  0.0169  0.4035  0.1895
   77SLPC    HS 6965   4.389   7.066   5.707  1.7990  0.4956 -0.7701
   77SLPC   O21 6966   4.450   6.923   5.565 -0.2076  0.0074  0.1427
   77SLPC   C21 6967   4.442   7.012   5.467  0.6317 -0.3412 -0.3987
   77SLPC   O22 6968   4.396   7.123   5.488 -0.7460 -0.6271 -0.4081
   77SLPC   C22 6969   4.504   6.946   5.341 -0.0151  0.1315 -0.1820
   77SLPC   H2R 6970   4.568   6.863   5.379  0.8128  0.9831  0.3167
   77SLPC   H2S 6971   4.421   6.892   5.289  0.3680 -0.1813 -0.4780
   77SLPC    C3 6972   4.452   6.894   5.813 -0.7636 -0.2814  0.1731
   77SLPC    HX 6973   4.462   6.787   5.784  1.4958  0.6449 -3.0099
   77SLPC    HY 6974   4.388   6.897   5.903 -0.4615 -2.4499  0.5108
   77SLPC   O31 6975   4.581   6.955   5.832 -0.2325 -0.3106 -0.4060
   77SLPC   C31 6976   4.649   6.919   5.942  0.0953 -0.1191  0.1641
   77SLPC   O32 6977   4.618   6.834   6.025  0.2768  0.4310  0.8463
   77SLPC   C32 6978   4.788   6.988   5.938 -0.2765 -0.4559 -0.2939
   77SLPC   H2X 6979   4.872   6.917   5.956  1.3979  1.2270 -1.1863
   77SLPC   H2Y 6980   4.777   7.073   6.009 -3.6048  1.0408 -2.3492
   77SLPC   C23 6981   4.601   7.037   5.261 -1.0445  0.0734 -0.0278
   77SLPC   H3R 6982   4.652   6.963   5.196  2.8064  1.3911  1.2233
   77SLPC   H3S 6983   4.688   7.081   5.313  0.4726  2.4459 -4.1038
   77SLPC   C24 6984   4.525   7.143   5.186  0.2620 -0.5141 -0.1541
   77SLPC   H4R 6985   4.600   7.209   5.137  0.7401  0.5017  1.8795
   77SLPC   H4S 6986   4.477   7.214   5.256 -0.6927 -0.9315 -0.3692
   77SLPC   C25 6987   4.415   7.099   5.080  0.4285 -0.5703 -0.1104
   77SLPC   H5R 6988   4.367   7.192   5.044  1.7056  0.0877 -0.1745
   77SLPC   H5S 6989   4.337   7.033   5.122  1.6863 -1.9861  0.1082
   77SLPC   C26 6990   4.471   7.013   4.964 -0.0467 -0.2046  0.8832
   77SLPC   H6R 6991   4.388   6.977   4.899 -2.2930  2.8789  1.7860
   77SLPC   H6S 6992   4.526   6.921   4.994  0.1129 -0.4422 -0.1041
   77SLPC   C27 6993   4.574   7.101   4.882 -0.7560  0.5074  0.0324
   77SLPC   H7R 6994   4.664   7.104   4.948 -1.7612 -0.2589  1.4906
   77SLPC   H7S 6995   4.543   7.206   4.866 -0.3821  0.3409 -2.0380
   77SLPC   C28 6996   4.618   7.038   4.750 -0.3446  0.1292 -0.4943
   77SLPC   H8R 6997   4.655   6.936   4.773 -1.4579 -0.7604 -2.4406
   77SLPC   H8S 6998   4.700   7.101   4.711  0.3845 -0.0958  0.6486
   77SLPC   C29 6999   4.514   7.021   4.647  0.1491 -0.9673 -0.4547
   77SLPC   H9R 7000   4.420   7.077   4.660 -0.1113 -1.4441 -0.2169
   77SLPC  C210 7001   4.536   6.962   4.528  0.2539  0.1858  0.2454
   77SLPC  H10R 7002   4.456   6.944   4.454  0.2990 -1.9363  0.6379
   77SLPC  C211 7003   4.670   6.896   4.492 -0.6000  0.0571  1.1107
   77SLPC  H11R 7004   4.758   6.922   4.554 -0.4177 -2.1043  1.8518
   77SLPC  H11S 7005   4.705   6.930   4.392  0.9169  0.1410  1.6452
   77SLPC  C212 7006   4.651   6.750   4.497  0.6964  0.0599  0.1640
   77SLPC  H12R 7007   4.580   6.710   4.571 -1.5632  2.0022 -0.8049
   77SLPC  C213 7008   4.740   6.660   4.442  0.6971  0.1570  0.4398
   77SLPC  H13R 7009   4.707   6.556   4.449 -0.6836  0.6720  2.7839
   77SLPC  C214 7010   4.855   6.683   4.356 -0.2609  0.4399  0.2220
   77SLPC  H14R 7011   4.942   6.619   4.382 -0.9635  0.1134  1.9667
   77SLPC  H14S 7012   4.892   6.787   4.368  0.1376  0.7058 -2.6668
   77SLPC  C215 7013   4.835   6.685   4.200 -0.8605 -0.3171  0.3492
   77SLPC  H15R 7014   4.767   6.769   4.174  0.4930  0.0266 -2.4170
   77SLPC  H15S 7015   4.793   6.590   4.161 -1.7786 -0.5377  1.8049
   77SLPC  C216 7016   4.976   6.689   4.121 -0.2647  0.6732 -1.0343
   77SLPC  H16R 7017   5.046   6.617   4.168 -3.0047 -1.3050  0.2216
   77SLPC  H16S 7018   5.027   6.788   4.130  0.1020  0.2935  1.7744
   77SLPC  C217 7019   4.952   6.643   3.977 -0.2387 -0.8394 -0.2329
   77SLPC  H17R 7020   4.873   6.710   3.937  0.6678  1.1545  1.1721
   77SLPC  H17S 7021   4.907   6.542   3.972  1.2300 -1.4805 -3.2747
   77SLPC  C218 7022   5.080   6.633   3.896 -0.7670 -0.1175 -0.2937
   77SLPC  H18R 7023   5.115   6.737   3.883 -0.1170 -0.5474 -2.3954
   77SLPC  H18S 7024   5.053   6.595   3.795 -0.7003 -1.0964  0.0377
   77SLPC  H18T 7025   5.149   6.565   3.951  0.2622 -1.2371 -2.8135
   77SLPC   C33 7026   4.806   7.056   5.797 -0.1285 -0.2736  0.1365
   77SLPC   H3X 7027   4.731   7.138   5.799 -1.9658 -1.8851  0.2074
   77SLPC   H3Y 7028   4.778   6.982   5.720  0.8655 -1.9185  1.2910
   77SLPC   C34 7029   4.951   7.101   5.776  0.3811  0.1106  0.5436
   77SLPC   H4X 7030   5.005   7.004   5.771 -1.0249 -0.7417  1.3323
   77SLPC   H4Y 7031   4.993   7.162   5.858 -0.5827 -2.2986  2.9969
   77SLPC   C35 7032   4.980   7.166   5.639  0.1269  0.2039  0.0774
   77SLPC   H5X 7033   4.946   7.101   5.555  1.7839  0.2059 -0.6293
   77SLPC   H5Y 7034   5.089   7.183   5.632 -0.0478  1.6351  0.5858
   77SLPC   C36 7035   4.906   7.297   5.624 -0.7528  0.1005  0.3276
   77SLPC   H6X 7036   4.910   7.357   5.717  2.0993  0.3130  0.1584
   77SLPC   H6Y 7037   4.799   7.276   5.600 -1.1234  1.1156  1.0451
   77SLPC   C37 7038   4.953   7.388   5.505 -0.5171  0.1017 -0.4443
   77SLPC   H7X 7039   4.960   7.324   5.415  2.2881 -2.5112  1.4562
   77SLPC   H7Y 7040   5.059   7.417   5.518 -0.0710 -1.3016 -0.7735
   77SLPC   C38 7041   4.869   7.511   5.477 -0.3598  0.9058  0.0864
   77SLPC   H8X 7042   4.927   7.560   5.397 -0.8898 -0.2620 -1.0540
   77SLPC   H8Y 7043   4.870   7.575   5.568  0.7524  0.3779  0.4703
   77SLPC   C39 7044   4.732   7.488   5.413  0.4048 -0.0228 -0.5332
   77SLPC   H9X 7045   4.678   7.584   5.427  2.8683  1.5212 -0.9557
   77SLPC   H9Y 7046   4.683   7.402   5.462 -0.2857  0.1204 -0.9582
   77SLPC  C310 7047   4.738   7.455   5.262 -0.3955  0.0965  0.5120
   77SLPC  H10X 7048   4.633   7.426   5.245 -0.4533 -0.9518  2.3878
   77SLPC  H10Y 7049   4.805   7.367   5.249 -0.8434 -0.1834  0.0867
   77SLPC  C311 7050   4.779   7.569   5.162  0.4778 -0.0905 -0.1952
   77SLPC  H11X 7051   4.890   7.576   5.169  0.5655 -0.9871 -0.5079
   77SLPC  H11Y 7052   4.716   7.653   5.198  0.6840 -0.3012  0.6791
   77SLPC  C312 7053   4.754   7.538   5.017  0.2311 -0.5936 -0.1930
   77SLPC  H12X 7054   4.657   7.583   4.986 -0.1425 -0.1511  1.5162
   77SLPC  H12Y 7055   4.762   7.431   4.991  0.6806 -0.7334  0.5030
   77SLPC  C313 7056   4.856   7.615   4.934 -0.1261  0.3797  0.3471
   77SLPC  H13X 7057   4.963   7.590   4.953 -0.2156  1.5363  2.7031
   77SLPC  H13Y 7058   4.845   7.720   4.968 -0.0684  0.2521  0.7699
   77SLPC  C314 7059   4.837   7.612   4.781  0.6400 -0.2032 -0.4688
   77SLPC  H14X 7060   4.891   7.696   4.731 -0.6240 -0.3647 -2.2138
   77SLPC  H14Y 7061   4.729   7.630   4.758  0.8022 -0.5934 -1.5984
   77SLPC  C315 7062   4.882   7.474   4.723  0.0914 -0.8651 -0.3075
   77SLPC  H15X 7063   4.795   7.408   4.740 -0.8625  0.2719 -0.6642
   77SLPC  H15Y 7064   4.970   7.436   4.780 -0.7271  1.2329  2.6267
   77SLPC  C316 7065   4.907   7.472   4.569 -0.0132  0.2173 -0.4456
   77SLPC  H16X 7066   4.987   7.546   4.549  1.1209 -0.3131  1.7374
   77SLPC  H16Y 7067   4.812   7.515   4.531 -2.0026 -2.2394  1.3962
   77SLPC  C317 7068   4.940   7.331   4.510  0.9934 -0.5619  0.0434
   77SLPC  H17X 7069   4.874   7.252   4.553 -1.4118  1.7190  0.8194
   77SLPC  H17Y 7070   5.039   7.306   4.554  1.6283 -2.1867 -2.1372
   77SLPC  C318 7071   4.939   7.324   4.354  0.0725  0.2651  0.4350
   77SLPC  H18X 7072   4.988   7.233   4.314  0.3091 -0.2216  1.7841
   77SLPC  H18Y 7073   5.000   7.407   4.312  1.1459 -0.1931  1.0533
   77SLPC  H18Z 7074   4.834   7.338   4.318  0.9012  1.2638 -1.7901
   78SLPC     N 7075   0.739   3.700   6.959  0.0262 -0.0670  0.2527
   78SLPC   C13 7076   0.672   3.812   7.040  0.1729 -0.7310 -0.4521
   78SLPC  H13A 7077   0.696   3.808   7.145  0.5431  0.6307 -0.4692
   78SLPC  H13B 7078   0.717   3.900   6.997  0.6894 -0.4612  0.5960
   78SLPC  H13C 7079   0.565   3.803   7.031 -0.1691  1.1662  1.1295
   78SLPC   C14 7080   0.712   3.570   7.042  0.3512  0.4276 -0.0876
   78SLPC  H14A 7081   0.741   3.588   7.144 -0.9194 -0.2552  0.4174
   78SLPC  H14B 7082   0.606   3.551   7.037  0.4193  0.2345 -0.9777
   78SLPC  H14C 7083   0.759   3.485   6.994  1.7005  1.2216 -0.2283
   78SLPC   C15 7084   0.885   3.731   6.970  0.1541 -0.4009  0.1183
   78SLPC  H15A 7085   0.917   3.740   7.072  0.0017  1.1373  0.0540
   78SLPC  H15B 7086   0.935   3.649   6.922  3.8338  0.4326  2.1979
   78SLPC  H15C 7087   0.899   3.829   6.927  0.3095 -0.5545 -0.1803
   78SLPC   C12 7088   0.683   3.709   6.818 -0.2274  0.0926  0.4434
   78SLPC  H12A 7089   0.743   3.653   6.748 -0.1390 -1.9740  2.0698
   78SLPC  H12B 7090   0.687   3.810   6.779 -2.2057  0.0618  0.0599
   78SLPC   C11 7091   0.528   3.673   6.816 -0.1387 -0.4076 -0.1539
   78SLPC  H11A 7092   0.521   3.588   6.887  0.5522 -1.7267 -1.6017
   78SLPC  H11B 7093   0.498   3.632   6.717  1.8691  0.1432 -1.0296
   78SLPC     P 7094   0.434   3.909   6.775 -0.0303 -0.3719  0.1105
   78SLPC   O13 7095   0.305   3.979   6.797  0.1192 -0.2176 -0.2685
   78SLPC   O14 7096   0.556   3.983   6.797 -0.0727  0.3423  0.0317
   78SLPC   O12 7097   0.438   3.778   6.860 -0.2879 -0.5167  0.6771
   78SLPC   O11 7098   0.447   3.856   6.628 -0.1730  0.4883 -0.2527
   78SLPC    C1 7099   0.335   3.785   6.564 -0.1468  0.0819  0.6385
   78SLPC    HA 7100   0.378   3.691   6.522 -1.7486 -1.3911  2.1115
   78SLPC    HB 7101   0.262   3.747   6.639 -0.9966  1.1880  0.3954
   78SLPC    C2 7102   0.274   3.871   6.449  0.2096  0.0952  0.1961
   78SLPC    HS 7103   0.201   3.803   6.400 -0.2336  0.8170 -0.1778
   78SLPC   O21 7104   0.377   3.905   6.349 -0.2185 -0.7841 -0.4249
   78SLPC   C21 7105   0.331   3.938   6.228  0.0242 -0.2526 -0.3824
   78SLPC   O22 7106   0.219   3.917   6.181  0.1806 -0.1433  0.7061
   78SLPC   C22 7107   0.443   4.017   6.153  0.5176 -0.6223  0.1094
   78SLPC   H2R 7108   0.454   4.122   6.188  1.7939 -0.4881 -0.6219
   78SLPC   H2S 7109   0.536   3.958   6.170  0.3568 -1.2119 -1.0137
   78SLPC    C3 7110   0.199   3.996   6.500 -0.2248  1.1402  0.4632
   78SLPC    HX 7111   0.261   4.045   6.577 -0.0279 -0.6190  1.4624
   78SLPC    HY 7112   0.108   3.959   6.552 -0.3936  0.0732 -0.5534
   78SLPC   O31 7113   0.168   4.096   6.397 -0.4490  0.0945 -0.0129
   78SLPC   C31 7114   0.100   4.204   6.431 -0.5077  0.6110 -0.0471
   78SLPC   O32 7115   0.076   4.243   6.545 -0.6292  0.0238 -0.0552
   78SLPC   C32 7116   0.049   4.270   6.307 -0.1499  0.1333 -0.3854
   78SLPC   H2X 7117  -0.061   4.290   6.307  0.0383  1.2246  0.0007
   78SLPC   H2Y 7118   0.057   4.198   6.222 -2.3379  0.8034 -1.2247
   78SLPC   C23 7119   0.407   4.038   6.009 -0.2304 -0.8743 -0.0685
   78SLPC   H3R 7120   0.324   4.110   5.995  0.8946  0.3103 -0.8327
   78SLPC   H3S 7121   0.372   3.939   5.972 -0.2392 -0.2863 -1.7167
   78SLPC   C24 7122   0.536   4.049   5.913  0.7243  0.1120 -0.2060
   78SLPC   H4R 7123   0.608   3.974   5.953 -0.0824  0.6044  2.3691
   78SLPC   H4S 7124   0.578   4.151   5.925 -0.6559  0.5838  0.9947
   78SLPC   C25 7125   0.499   4.021   5.767 -0.3175  0.4344  1.0891
   78SLPC   H5R 7126   0.418   4.091   5.737  0.7575  0.4540 -2.1643
   78SLPC   H5S 7127   0.470   3.914   5.765 -2.1846  0.9227  0.0794
   78SLPC   C26 7128   0.618   4.054   5.673  1.2987  0.3601  0.4645
   78SLPC   H6R 7129   0.709   3.998   5.704  1.7149  0.8998  0.2327
   78SLPC   H6S 7130   0.630   4.163   5.694 -0.3078  0.8336 -0.8539
   78SLPC   C27 7131   0.586   4.057   5.518  0.5434  0.1853 -0.3756
   78SLPC   H7R 7132   0.510   4.138   5.505  0.1061  0.5192  3.2513
   78SLPC   H7S 7133   0.532   3.962   5.499 -1.3488  1.4325 -1.6837
   78SLPC   C28 7134   0.714   4.055   5.428 -0.1509 -0.3022  0.0778
   78SLPC   H8R 7135   0.679   4.020   5.329 -2.9001  0.3365  0.7317
   78SLPC   H8S 7136   0.788   3.977   5.456  2.3512  1.9283  0.1133
   78SLPC   C29 7137   0.784   4.187   5.445 -0.3256  0.1535  0.5149
   78SLPC   H9R 7138   0.795   4.212   5.551 -2.6866 -1.7475  1.3122
   78SLPC  C210 7139   0.813   4.283   5.354  0.4826 -0.0744  0.3461
   78SLPC  H10R 7140   0.850   4.379   5.391 -0.3553 -0.5575  2.6075
   78SLPC  C211 7141   0.799   4.264   5.202 -0.2051  0.3835 -0.2985
   78SLPC  H11R 7142   0.803   4.155   5.183 -2.7952 -0.0052  0.9068
   78SLPC  H11S 7143   0.884   4.306   5.145 -0.6030 -1.4623 -2.3811
   78SLPC  C212 7144   0.675   4.333   5.150  0.7969 -0.2186  0.1417
   78SLPC  H12R 7145   0.590   4.292   5.206  0.9190  0.6308  0.9710
   78SLPC  C213 7146   0.658   4.436   5.066 -0.1414 -0.1987  0.5607
   78SLPC  H13R 7147   0.563   4.478   5.029  0.1057 -1.9962 -2.4678
   78SLPC  C214 7148   0.783   4.491   5.000  0.3109 -0.4410  0.4247
   78SLPC  H14R 7149   0.869   4.494   5.070  0.8469  0.2558 -0.2426
   78SLPC  H14S 7150   0.764   4.594   4.963 -1.2554 -0.8351  0.0672
   78SLPC  C215 7151   0.837   4.425   4.868  0.2601 -0.0445 -0.3174
   78SLPC  H15R 7152   0.751   4.391   4.807 -0.1624 -1.7320  1.1607
   78SLPC  H15S 7153   0.883   4.327   4.890  2.2415  0.3296 -2.3223
   78SLPC  C216 7154   0.918   4.518   4.774 -0.0169 -1.0373  0.6033
   78SLPC  H16R 7155   0.976   4.591   4.835  0.1447 -0.0997 -0.6219
   78SLPC  H16S 7156   0.847   4.582   4.716  1.7780 -0.2871 -0.8571
   78SLPC  C217 7157   1.018   4.444   4.684 -0.1494  0.3962 -0.1340
   78SLPC  H17R 7158   0.974   4.362   4.624 -0.4282 -0.5200  1.2688
   78SLPC  H17S 7159   1.088   4.380   4.743 -1.4750 -2.7140 -1.6994
   78SLPC  C218 7160   1.107   4.532   4.592  0.8066 -0.3020 -0.4403
   78SLPC  H18R 7161   1.140   4.625   4.643  0.4012 -0.2267 -0.3059
   78SLPC  H18S 7162   1.047   4.557   4.502 -1.5345 -2.2192  0.4648
   78SLPC  H18T 7163   1.189   4.476   4.541 -0.1251 -2.1100 -0.0586
   78SLPC   C33 7164   0.126   4.408   6.287 -0.0063 -0.1099 -0.1391
   78SLPC   H3X 7165   0.123   4.465   6.382 -0.9400 -0.2222 -0.0945
   78SLPC   H3Y 7166   0.066   4.468   6.215 -0.3810 -1.2799 -0.8233
   78SLPC   C34 7167   0.280   4.385   6.243  0.2947 -0.0168 -0.0937
   78SLPC   H4X 7168   0.261   4.341   6.143 -0.0519 -0.0068 -0.0345
   78SLPC   H4Y 7169   0.318   4.303   6.307 -2.9045 -1.1305  0.5836
   78SLPC   C35 7170   0.360   4.513   6.228 -0.5098  1.0723 -0.6244
   78SLPC   H5X 7171   0.414   4.522   6.325  2.6344  0.2046 -2.1615
   78SLPC   H5Y 7172   0.296   4.599   6.199 -1.4637  0.3800 -0.5978
   78SLPC   C36 7173   0.463   4.514   6.116 -0.1786 -0.0676  0.2575
   78SLPC   H6X 7174   0.539   4.434   6.132 -0.4361 -0.4475 -0.4001
   78SLPC   H6Y 7175   0.518   4.611   6.123  3.2757 -1.7866 -0.9424
   78SLPC   C37 7176   0.397   4.501   5.976 -0.4463  0.0951  0.2814
   78SLPC   H7X 7177   0.309   4.567   5.963 -1.1690 -1.1360 -1.6158
   78SLPC   H7Y 7178   0.374   4.395   5.953 -1.9099  0.1385  1.4270
   78SLPC   C38 7179   0.494   4.526   5.858 -0.5339 -0.0429  0.2375
   78SLPC   H8X 7180   0.575   4.452   5.872  0.7783  1.2736 -0.1908
   78SLPC   H8Y 7181   0.515   4.635   5.860 -2.8248  0.4629 -0.5672
   78SLPC   C39 7182   0.428   4.494   5.719  0.2855  0.4426 -0.6457
   78SLPC   H9X 7183   0.336   4.555   5.709  0.1411  0.3529  0.0270
   78SLPC   H9Y 7184   0.404   4.385   5.724 -0.0871  0.5763  1.8951
   78SLPC  C310 7185   0.519   4.534   5.602 -0.1234  0.0234  0.3915
   78SLPC  H10X 7186   0.463   4.524   5.506  2.0585  4.0747 -1.6184
   78SLPC  H10Y 7187   0.603   4.461   5.602 -0.0725  0.0318 -1.5028
   78SLPC  C311 7188   0.570   4.685   5.604  0.3131 -0.5979  0.3205
   78SLPC  H11X 7189   0.616   4.702   5.703  2.1266  0.0896 -0.5829
   78SLPC  H11Y 7190   0.484   4.755   5.595  0.7269 -0.0257  0.7794
   78SLPC  C312 7191   0.671   4.721   5.498 -0.0416 -0.4402  0.6254
   78SLPC  H12X 7192   0.748   4.640   5.505  1.6120  1.1136  1.0357
   78SLPC  H12Y 7193   0.723   4.816   5.522  2.9327 -2.3390  2.3419
   78SLPC  C313 7194   0.615   4.706   5.354  0.3333 -0.2162  0.0432
   78SLPC  H13X 7195   0.574   4.603   5.352 -0.0342 -0.0641 -0.3487
   78SLPC  H13Y 7196   0.709   4.710   5.295  2.4254 -1.2600  3.0636
   78SLPC  C314 7197   0.510   4.804   5.318  0.4131  1.1386  0.4761
   78SLPC  H14X 7198   0.559   4.903   5.318 -0.7803  1.7720 -1.0641
   78SLPC  H14Y 7199   0.430   4.797   5.396 -0.3806 -0.6563 -0.4559
   78SLPC  C315 7200   0.448   4.786   5.186 -0.0271 -0.1479 -0.0811
   78SLPC  H15X 7201   0.361   4.854   5.197  0.1031  0.1008 -0.5880
   78SLPC  H15Y 7202   0.410   4.681   5.183 -0.6734  0.0743  0.1427
   78SLPC  C316 7203   0.540   4.835   5.066  0.8419 -0.2878 -0.3470
   78SLPC  H16X 7204   0.633   4.775   5.067  1.4498  0.5064 -2.5260
   78SLPC  H16Y 7205   0.578   4.938   5.085 -0.9781  0.2494  0.6520
   78SLPC  C317 7206   0.478   4.842   4.917  0.1625  0.4544 -0.1671
   78SLPC  H17X 7207   0.556   4.897   4.859 -0.7381  0.6914 -1.1872
   78SLPC  H17Y 7208   0.391   4.909   4.931 -0.9505 -1.3638  2.4131
   78SLPC  C318 7209   0.454   4.704   4.854 -0.2027  0.0951  0.2317
   78SLPC  H18X 7210   0.548   4.645   4.858  0.0355 -0.4362 -5.4005
   78SLPC  H18Y 7211   0.429   4.715   4.747 -1.3538 -0.2385  0.4574
   78SLPC  H18Z 7212   0.374   4.654   4.912  0.9097  0.3332  2.0653
   79SLPC     N 7213   5.357   0.034   6.750 -0.4371  0.3090  0.3226
   79SLPC   C13 7214   5.476  -0.036   6.684 -0.8507 -0.0072  1.1406
   79SLPC  H13A 7215   5.529  -0.100   6.754 -2.6360  0.0770  2.6275
   79SLPC  H13B 7216   5.440  -0.083   6.593 -1.2429  1.0613  0.7257
   79SLPC  H13C 7217   5.549   0.036   6.651  1.1596 -2.0614  0.7710
   79SLPC   C14 7218   5.405   0.137   6.850 -0.5036 -0.1562  0.6793
   79SLPC  H14A 7219   5.331   0.210   6.878  0.2983  0.8891  0.1084
   79SLPC  H14B 7220   5.437   0.094   6.944  1.6912  0.2737  0.1640
   79SLPC  H14C 7221   5.486   0.194   6.808 -3.5961  3.0919 -1.4702
   79SLPC   C15 7222   5.283  -0.077   6.812  0.0591  0.1201 -0.0662
   79SLPC  H15A 7223   5.197  -0.042   6.866 -1.1522 -2.8300  0.0723
   79SLPC  H15B 7224   5.254  -0.153   6.742 -0.3395  0.4247 -0.2368
   79SLPC  H15C 7225   5.342  -0.131   6.884 -1.8130 -1.6371  0.2284
   79SLPC   C12 7226   5.278   0.106   6.646  0.2214  0.1575  0.3110
   79SLPC  H12A 7227   5.345   0.179   6.603 -0.9880  1.6202  0.8502
   79SLPC  H12B 7228   5.204   0.167   6.695 -0.9766 -0.1350 -1.0682
   79SLPC   C11 7229   5.198   0.023   6.541  0.4888 -0.2829 -0.1961
   79SLPC  H11A 7230   5.271  -0.028   6.474 -1.0104 -0.2602 -1.9270
   79SLPC  H11B 7231   5.140   0.086   6.471 -1.5267 -1.5928  0.2050
   79SLPC     P 7232   5.057  -0.187   6.531 -0.3569  0.1275  0.7302
   79SLPC   O13 7233   5.146  -0.303   6.560 -0.1867  0.3007  0.2120
   79SLPC   O14 7234   4.915  -0.214   6.550  0.2255 -0.3572 -0.3096
   79SLPC   O12 7235   5.103  -0.061   6.606  0.6361 -0.3767 -0.3739
   79SLPC   O11 7236   5.073  -0.137   6.383  0.5250 -0.1859  0.5677
   79SLPC    C1 7237   5.065  -0.224   6.271 -0.5063 -0.3241 -0.5626
   79SLPC    HA 7238   5.005  -0.317   6.287  1.0045 -1.2179  0.1340
   79SLPC    HB 7239   5.026  -0.169   6.183  1.5003 -0.9329 -1.9146
   79SLPC    C2 7240   5.201  -0.289   6.242  0.2357  0.6016  0.4510
   79SLPC    HS 7241   5.226  -0.350   6.331 -2.0832 -0.6367  0.3314
   79SLPC   O21 7242   5.295  -0.181   6.220 -0.2727 -0.3122 -0.7474
   79SLPC   C21 7243   5.422  -0.214   6.217 -0.5948 -0.0005  0.1847
   79SLPC   O22 7244   5.466  -0.321   6.251  0.7499  0.5556  0.0654
   79SLPC   C22 7245   5.510  -0.096   6.170  0.3991  0.2923 -0.0304
   79SLPC   H2R 7246   5.475  -0.065   6.069 -1.2538 -2.5905 -0.4680
   79SLPC   H2S 7247   5.500  -0.010   6.239  0.4616  0.3693 -0.1179
   79SLPC    C3 7248   5.194  -0.389   6.118 -0.6426  1.1424 -0.4647
   79SLPC    HX 7249   5.125  -0.474   6.139  1.0425 -0.3246 -0.7162
   79SLPC    HY 7250   5.290  -0.443   6.103 -1.5266 -0.6312 -0.0546
   79SLPC   O31 7251   5.142  -0.318   6.002 -0.6122  0.1541 -0.4075
   79SLPC   C31 7252   5.233  -0.251   5.927 -0.3852  0.2240 -0.6977
   79SLPC   O32 7253   5.352  -0.251   5.950 -0.0006  0.6702  0.3589
   79SLPC   C32 7254   5.156  -0.155   5.832 -0.2277  0.1742 -0.0675
   79SLPC   H2X 7255   5.087  -0.088   5.887  0.7435 -0.3171  1.8446
   79SLPC   H2Y 7256   5.087  -0.221   5.776  0.1115  0.1809 -0.4993
   79SLPC   C23 7257   5.663  -0.131   6.164 -0.3423  0.5313  0.1963
   79SLPC   H3R 7258   5.665  -0.216   6.092  0.7620  0.8426 -0.1692
   79SLPC   H3S 7259   5.697  -0.164   6.264 -0.4187 -1.5462 -0.4159
   79SLPC   C24 7260   5.761  -0.027   6.108  0.1942  0.5892 -0.4631
   79SLPC   H4R 7261   5.744   0.015   6.006 -1.3760 -0.1005 -0.5160
   79SLPC   H4S 7262   5.861  -0.073   6.110  0.1119  0.3988 -0.6848
   79SLPC   C25 7263   5.771   0.101   6.193  0.1766 -0.2902 -0.1933
   79SLPC   H5R 7264   5.786   0.082   6.302 -1.0193 -0.4675 -0.0446
   79SLPC   H5S 7265   5.680   0.164   6.188 -0.3028 -1.0810 -2.7071
   79SLPC   C26 7266   5.887   0.190   6.139 -0.0821 -0.2335  0.0203
   79SLPC   H6R 7267   5.862   0.201   6.031  1.8923 -1.8402 -0.6743
   79SLPC   H6S 7268   5.986   0.140   6.142  0.6262  1.0206 -1.1062
   79SLPC   C27 7269   5.889   0.318   6.222  0.0546  0.1833 -0.6222
   79SLPC   H7R 7270   5.899   0.286   6.327  0.8327  3.4655  0.4227
   79SLPC   H7S 7271   5.789   0.367   6.221 -0.2534 -0.4317 -1.2471
   79SLPC   C28 7272   5.998   0.416   6.190 -0.1765 -0.4533  0.0953
   79SLPC   H8R 7273   5.975   0.517   6.230 -2.2484 -0.4258 -1.0212
   79SLPC   H8S 7274   6.023   0.430   6.083  5.9401 -2.0276  0.9295
   79SLPC   C29 7275   6.125   0.370   6.251 -0.4124 -0.2460 -0.4822
   79SLPC   H9R 7276   6.119   0.372   6.361  0.0102 -0.6462 -0.4497
   79SLPC  C210 7277   6.244   0.359   6.185  0.0059 -0.3693  0.5290
   79SLPC  H10R 7278   6.333   0.317   6.234  2.0017  0.9948 -1.7295
   79SLPC  C211 7279   6.282   0.369   6.046 -1.2146 -0.5278 -0.2617
   79SLPC  H11R 7280   6.389   0.398   6.038 -1.0350 -0.4548  1.9380
   79SLPC  H11S 7281   6.228   0.452   5.997  0.9463 -0.1101 -2.1274
   79SLPC  C212 7282   6.254   0.248   5.971 -0.1541  0.1482  0.3140
   79SLPC  H12R 7283   6.166   0.195   6.011  0.2787 -0.3622  0.6117
   79SLPC  C213 7284   6.313   0.207   5.854 -0.1972  0.0198 -0.2854
   79SLPC  H13R 7285   6.284   0.116   5.799 -1.6650  0.3197 -0.0540
   79SLPC  C214 7286   6.439   0.263   5.799 -0.5134 -0.1146  0.0152
   79SLPC  H14R 7287   6.473   0.182   5.731  0.3802 -0.4516  0.8239
   79SLPC  H14S 7288   6.516   0.271   5.879  0.2087  1.1987 -0.7714
   79SLPC  C215 7289   6.429   0.400   5.726 -0.7507  0.3353 -0.5261
   79SLPC  H15R 7290   6.536   0.427   5.707 -1.0179  1.5622 -0.3898
   79SLPC  H15S 7291   6.377   0.470   5.794  1.7952  3.9310 -1.9451
   79SLPC  C216 7292   6.347   0.401   5.594 -0.1282  0.3280  0.4555
   79SLPC  H16R 7293   6.357   0.502   5.549  2.8442 -0.0360  0.0783
   79SLPC  H16S 7294   6.242   0.388   5.628  0.3470 -2.4128  1.1249
   79SLPC  C217 7295   6.381   0.296   5.487  0.6140 -0.3567 -0.4329
   79SLPC  H17R 7296   6.327   0.207   5.525 -1.7379  1.0060 -0.3819
   79SLPC  H17S 7297   6.490   0.274   5.481  0.7291  0.4792 -2.1671
   79SLPC  C218 7298   6.324   0.339   5.349 -0.8402  0.1210  0.5436
   79SLPC  H18R 7299   6.367   0.287   5.260  1.8217  2.8305  0.0979
   79SLPC  H18S 7300   6.358   0.442   5.326  0.6140 -1.1043 -3.7226
   79SLPC  H18T 7301   6.214   0.341   5.357 -0.7651  2.6381  2.2062
   79SLPC   C33 7302   5.255  -0.079   5.730  0.8754  0.5769 -0.4700
   79SLPC   H3X 7303   5.329  -0.023   5.792 -1.3052  2.9795  0.1481
   79SLPC   H3Y 7304   5.189  -0.006   5.678  0.4127  0.3170 -0.2443
   79SLPC   C34 7305   5.309  -0.156   5.613 -0.3312  0.2588  0.2326
   79SLPC   H4X 7306   5.227  -0.213   5.564 -0.5769 -0.9376  1.9794
   79SLPC   H4Y 7307   5.384  -0.227   5.654  0.3534  1.3977  0.9879
   79SLPC   C35 7308   5.391  -0.068   5.518 -0.7721 -0.0406 -0.2983
   79SLPC   H5X 7309   5.477  -0.020   5.569 -0.2746 -2.6259  1.4700
   79SLPC   H5Y 7310   5.318   0.006   5.476 -1.4031 -0.4360  0.0812
   79SLPC   C36 7311   5.460  -0.152   5.410  0.1538 -0.4837 -0.8892
   79SLPC   H6X 7312   5.374  -0.217   5.381 -0.0058 -0.9696  0.5820
   79SLPC   H6Y 7313   5.534  -0.218   5.459 -0.8443 -1.2423 -0.3623
   79SLPC   C37 7314   5.530  -0.087   5.297  0.5071  0.2676  0.2925
   79SLPC   H7X 7315   5.635  -0.064   5.325  0.9068  0.5360 -1.2812
   79SLPC   H7Y 7316   5.483   0.006   5.258  0.5289  0.0444 -0.2887
   79SLPC   C38 7317   5.545  -0.184   5.171 -0.0974 -0.1447 -0.0844
   79SLPC   H8X 7318   5.443  -0.199   5.129  0.6202 -2.0979 -1.2703
   79SLPC   H8Y 7319   5.587  -0.283   5.198  0.4273  0.1181  0.0946
   79SLPC   C39 7320   5.641  -0.127   5.062  0.2935 -0.5991  0.5533
   79SLPC   H9X 7321   5.680  -0.209   4.999 -1.0684  0.8469 -2.3649
   79SLPC   H9Y 7322   5.730  -0.074   5.101  1.0809 -1.3487 -0.1792
   79SLPC  C310 7323   5.568  -0.034   4.962  0.2205 -0.4831 -0.0284
   79SLPC  H10X 7324   5.522   0.052   5.015  1.1409 -0.4309  0.7258
   79SLPC  H10Y 7325   5.492  -0.102   4.919 -1.0982  0.7244  0.3108
   79SLPC  C311 7326   5.668   0.024   4.861 -0.5107 -0.5191 -0.3886
   79SLPC  H11X 7327   5.723  -0.063   4.819 -1.2974 -1.3335  0.2197
   79SLPC  H11Y 7328   5.741   0.090   4.912 -1.0680 -1.2457  1.4269
   79SLPC  C312 7329   5.605   0.115   4.751 -0.3610 -0.2544 -0.0521
   79SLPC  H12X 7330   5.602   0.219   4.791 -0.7441 -0.4371  0.3994
   79SLPC  H12Y 7331   5.503   0.074   4.742 -0.2381 -1.0479  1.7807
   79SLPC  C313 7332   5.678   0.108   4.613 -0.2706 -0.6083 -0.2188
   79SLPC  H13X 7333   5.789   0.111   4.622 -0.2672 -1.8630  0.3504
   79SLPC  H13Y 7334   5.648   0.197   4.554 -0.4259 -0.0134  0.7556
   79SLPC  C314 7335   5.636  -0.010   4.519  0.0991  0.6416  0.2539
   79SLPC  H14X 7336   5.527  -0.006   4.503  0.2577  0.9678 -0.8703
   79SLPC  H14Y 7337   5.642  -0.096   4.589  2.4627  0.9752  0.5438
   79SLPC  C315 7338   5.725  -0.038   4.395 -0.2982 -0.3532  0.0120
   79SLPC  H15X 7339   5.738   0.055   4.336  1.7918  0.9276  2.2751
   79SLPC  H15Y 7340   5.688  -0.122   4.333  1.0504 -0.8739 -0.1366
   79SLPC  C316 7341   5.875  -0.073   4.427  0.0744  0.0254 -0.4982
   79SLPC  H16X 7342   5.876  -0.173   4.476 -0.9660  0.7368  1.0248
   79SLPC  H16Y 7343   5.923   0.009   4.484  2.1352 -0.4102 -1.5148
   79SLPC  C317 7344   5.972  -0.086   4.305  0.3570  0.2028 -0.1370
   79SLPC  H17X 7345   5.914  -0.141   4.228 -1.6247  2.3602 -0.2853
   79SLPC  H17Y 7346   6.061  -0.144   4.338 -0.6884 -1.0128  0.6555
   79SLPC  C318 7347   6.009   0.053   4.257 -0.2548  0.3750  0.0901
   79SLPC  H18X 7348   6.066   0.100   4.340  1.0657  1.0669 -1.1801
   79SLPC  H18Y 7349   5.926   0.125   4.237 -1.9895 -0.6333  2.9752
   79SLPC  H18Z 7350   6.074   0.048   4.167 -0.8560  1.0756 -0.3999
   80SLPC     N 7351   4.812   2.519   6.867  0.7059 -0.1494 -0.2167
   80SLPC   C13 7352   4.711   2.403   6.872  0.4422 -0.2817  0.0152
   80SLPC  H13A 7353   4.737   2.342   6.957 -0.1236 -2.3899 -1.2523
   80SLPC  H13B 7354   4.609   2.436   6.887  0.5101  0.2251 -0.6099
   80SLPC  H13C 7355   4.709   2.346   6.780  0.4805  0.5412 -0.5090
   80SLPC   C14 7356   4.950   2.471   6.852 -0.0972  0.5125  0.6971
   80SLPC  H14A 7357   4.951   2.398   6.773 -1.1849  0.4466  0.7278
   80SLPC  H14B 7358   5.016   2.555   6.837  1.6506 -1.1560 -1.4814
   80SLPC  H14C 7359   4.983   2.413   6.937  2.9762 -0.8814 -1.3026
   80SLPC   C15 7360   4.801   2.588   6.997 -0.0789 -0.1779 -0.6753
   80SLPC  H15A 7361   4.877   2.665   6.995  0.0081 -0.2634 -0.6431
   80SLPC  H15B 7362   4.702   2.628   7.014  0.1583 -0.0388  0.4740
   80SLPC  H15C 7363   4.831   2.517   7.073  1.2562  1.4671  0.4037
   80SLPC   C12 7364   4.774   2.615   6.762 -0.2299 -0.1845 -0.5231
   80SLPC  H12A 7365   4.667   2.624   6.775  0.0640 -0.1905  3.3228
   80SLPC  H12B 7366   4.782   2.570   6.665 -1.2240 -0.0188 -0.6926
   80SLPC   C11 7367   4.847   2.752   6.749  0.3075  0.1370  0.0800
   80SLPC  H11A 7368   4.839   2.820   6.836 -0.3622  1.3129 -0.8579
   80SLPC  H11B 7369   4.783   2.792   6.667  0.4578 -1.0700 -0.6429
   80SLPC     P 7370   5.039   2.692   6.580 -0.5821  0.0069  0.5595
   80SLPC   O13 7371   5.104   2.815   6.521  0.3941  0.4867 -0.9006
   80SLPC   O14 7372   5.132   2.581   6.605 -0.5140  0.6516 -0.2758
   80SLPC   O12 7373   4.988   2.736   6.715  0.7108 -0.0172 -0.2797
   80SLPC   O11 7374   4.917   2.647   6.491  0.3845  0.0011 -0.0301
   80SLPC    C1 7375   4.893   2.508   6.465  0.4571  0.2674 -0.2227
   80SLPC    HA 7376   4.936   2.443   6.544  0.9604 -1.2905 -1.7051
   80SLPC    HB 7377   4.785   2.483   6.461  0.9417 -4.0613  4.2667
   80SLPC    C2 7378   4.937   2.453   6.326 -0.6918 -0.4769 -0.2238
   80SLPC    HS 7379   5.048   2.464   6.315 -0.7390 -0.9859 -1.2946
   80SLPC   O21 7380   4.860   2.515   6.221 -0.4468  0.5404  0.2860
   80SLPC   C21 7381   4.923   2.605   6.153 -0.3777 -0.4946 -0.2410
   80SLPC   O22 7382   5.034   2.644   6.184 -0.2879 -0.4567  0.8882
   80SLPC   C22 7383   4.834   2.655   6.046 -0.4591  0.3942  0.2729
   80SLPC   H2R 7384   4.786   2.568   5.994  1.1937 -1.5398  1.8240
   80SLPC   H2S 7385   4.753   2.713   6.096  0.7060  1.6395  0.7572
   80SLPC    C3 7386   4.907   2.298   6.326  0.1919  0.5510  0.5357
   80SLPC    HX 7387   4.800   2.271   6.342  1.1567 -3.1633  1.5237
   80SLPC    HY 7388   4.945   2.256   6.421 -0.7491 -0.0642  0.6564
   80SLPC   O31 7389   4.962   2.227   6.215  0.0528  0.0456  0.3573
   80SLPC   C31 7390   4.915   2.102   6.195 -0.4904 -0.4284  0.0781
   80SLPC   O32 7391   4.832   2.052   6.267 -0.2841  0.3246 -0.8545
   80SLPC   C32 7392   4.971   2.036   6.076  0.5399 -0.5442  0.1698
   80SLPC   H2X 7393   4.886   1.985   6.027 -0.0776 -1.4886  2.1002
   80SLPC   H2Y 7394   5.043   1.961   6.117  1.1015  0.0866  0.3732
   80SLPC   C23 7395   4.901   2.755   5.949 -0.5883  0.5503 -0.2193
   80SLPC   H3R 7396   4.981   2.697   5.899  0.2396  0.2517  1.3830
   80SLPC   H3S 7397   4.938   2.836   6.016 -0.4404 -0.9314  1.5698
   80SLPC   C24 7398   4.805   2.811   5.841 -0.1418  0.7031 -0.4651
   80SLPC   H4R 7399   4.712   2.836   5.896  1.9869  0.8887  3.3873
   80SLPC   H4S 7400   4.785   2.738   5.760  0.9546 -0.6341  0.4301
   80SLPC   C25 7401   4.846   2.950   5.783  0.4403 -0.5679  0.0657
   80SLPC   H5R 7402   4.933   2.931   5.716 -1.7610 -1.9171 -2.5970
   80SLPC   H5S 7403   4.881   3.017   5.864  0.1466 -0.6008  0.2207
   80SLPC   C26 7404   4.746   3.015   5.683 -0.1832 -0.2259  0.1527
   80SLPC   H6R 7405   4.772   3.123   5.677  0.5344 -0.4636 -1.5361
   80SLPC   H6S 7406   4.645   3.006   5.730 -0.2030 -0.5526  0.0461
   80SLPC   C27 7407   4.743   2.951   5.546 -0.4101  0.1896  0.3520
   80SLPC   H7R 7408   4.752   2.841   5.550  0.6051  0.1142 -2.3514
   80SLPC   H7S 7409   4.832   2.998   5.499 -0.0929  0.2199  0.9688
   80SLPC   C28 7410   4.606   2.974   5.476  0.0679  0.5210  0.0776
   80SLPC   H8R 7411   4.521   2.944   5.540  0.6679 -1.2427  0.1058
   80SLPC   H8S 7412   4.603   2.915   5.382 -0.6247  0.9388 -0.1720
   80SLPC   C29 7413   4.584   3.126   5.447 -0.5071 -0.1952 -0.5996
   80SLPC   H9R 7414   4.524   3.183   5.519 -2.9633 -1.5122 -1.5041
   80SLPC  C210 7415   4.604   3.184   5.331  0.1860  0.6888  0.1000
   80SLPC  H10R 7416   4.595   3.293   5.318 -0.2675  0.6240 -0.1867
   80SLPC  C211 7417   4.633   3.110   5.207 -1.1924 -0.2953 -0.1396
   80SLPC  H11R 7418   4.547   3.041   5.189 -0.8667 -0.6426 -0.4002
   80SLPC  H11S 7419   4.706   3.029   5.229 -1.3149 -1.3141 -3.0265
   80SLPC  C212 7420   4.682   3.185   5.078  0.3573 -0.0174 -0.6668
   80SLPC  H12R 7421   4.706   3.292   5.091 -2.8486  0.6060  1.3651
   80SLPC  C213 7422   4.710   3.127   4.963 -0.1754  0.2202  0.6878
   80SLPC  H13R 7423   4.735   3.179   4.869 -3.1013  1.9099  0.7075
   80SLPC  C214 7424   4.685   2.984   4.928 -0.2119 -0.1152 -0.5053
   80SLPC  H14R 7425   4.582   2.982   4.886 -0.3827  1.3668 -0.2116
   80SLPC  H14S 7426   4.695   2.914   5.014 -1.0870 -1.3358 -1.3748
   80SLPC  C215 7427   4.780   2.937   4.813 -0.3512  0.4420 -0.1451
   80SLPC  H15R 7428   4.763   3.004   4.726  0.0195 -1.7219 -1.9696
   80SLPC  H15S 7429   4.734   2.847   4.768  2.3257 -0.7356 -0.6822
   80SLPC  C216 7430   4.921   2.924   4.855 -0.6149  0.5331 -0.2929
   80SLPC  H16R 7431   4.927   2.886   4.959  0.3255  0.5828 -0.3208
   80SLPC  H16S 7432   4.965   3.026   4.848  0.5582  0.6641  4.9189
   80SLPC  C217 7433   5.006   2.836   4.770 -0.6037  0.1939  0.3311
   80SLPC  H17R 7434   5.110   2.875   4.773 -0.7813  0.6449  0.7067
   80SLPC  H17S 7435   4.968   2.849   4.666 -2.3707  1.3484  1.0642
   80SLPC  C218 7436   5.003   2.692   4.809 -0.1966 -0.0693 -0.0041
   80SLPC  H18R 7437   5.075   2.629   4.752  0.7832  0.7677  0.2938
   80SLPC  H18S 7438   4.900   2.651   4.793 -0.9187  1.8366 -0.4806
   80SLPC  H18T 7439   5.024   2.686   4.918 -2.4705  1.7744  0.6280
   80SLPC   C33 7440   5.055   2.134   5.984 -0.4295  0.1308 -0.1688
   80SLPC   H3X 7441   5.130   2.193   6.041 -0.5136  0.5284 -0.4681
   80SLPC   H3Y 7442   4.991   2.224   5.972  0.0139  0.3004 -1.3151
   80SLPC   C34 7443   5.095   2.084   5.854 -0.2087 -0.3049 -0.1340
   80SLPC   H4X 7444   5.171   2.004   5.863 -0.2197 -0.5050 -1.5608
   80SLPC   H4Y 7445   5.137   2.162   5.787 -1.4392 -1.3248 -2.2120
   80SLPC   C35 7446   4.977   2.030   5.771  0.3720 -0.4243  1.0290
   80SLPC   H5X 7447   4.900   2.107   5.748 -0.4632 -0.9191  2.0769
   80SLPC   H5Y 7448   4.920   1.949   5.820 -0.5139  0.6552  1.8266
   80SLPC   C36 7449   5.036   1.995   5.634  0.0563 -0.2350 -0.6483
   80SLPC   H6X 7450   5.128   1.936   5.654  0.0850  0.0603  0.1372
   80SLPC   H6Y 7451   5.063   2.093   5.588  1.5057 -0.1627  0.3056
   80SLPC   C37 7452   4.931   1.926   5.556  0.1833  0.6923  0.1433
   80SLPC   H7X 7453   4.847   1.994   5.528 -0.6538  1.4133  3.8324
   80SLPC   H7Y 7454   4.881   1.849   5.618 -0.2852  2.2680  1.8224
   80SLPC   C38 7455   4.985   1.862   5.426 -0.0163  0.5263  0.3934
   80SLPC   H8X 7456   4.904   1.795   5.390  0.7134 -0.9532  1.3964
   80SLPC   H8Y 7457   5.069   1.791   5.440  1.5032  2.1287 -0.2144
   80SLPC   C39 7458   5.022   1.965   5.325  0.5588 -0.0775  0.1932
   80SLPC   H9X 7459   5.091   2.037   5.375 -0.3561  0.0169  1.3617
   80SLPC   H9Y 7460   4.936   2.025   5.290  0.9601  0.3333 -0.0973
   80SLPC  C310 7461   5.089   1.895   5.207  0.0649  0.1865 -0.9741
   80SLPC  H10X 7462   5.007   1.834   5.165 -0.7342  0.7000 -0.2015
   80SLPC  H10Y 7463   5.176   1.838   5.246 -0.3451  0.4888  0.4420
   80SLPC  C311 7464   5.119   2.002   5.094  0.6776  0.2953 -0.3535
   80SLPC  H11X 7465   5.154   2.093   5.147  1.4930 -1.8685  3.1516
   80SLPC  H11Y 7466   5.022   2.019   5.043 -0.2541 -0.4130  1.1094
   80SLPC  C312 7467   5.214   1.963   4.981  0.0192  0.1771 -0.8066
   80SLPC  H12X 7468   5.315   1.942   5.023 -0.1223  2.3881  0.8204
   80SLPC  H12Y 7469   5.226   2.051   4.915  1.0105 -0.1390 -1.0701
   80SLPC  C313 7470   5.168   1.846   4.899 -0.3587 -0.2463  1.0076
   80SLPC  H13X 7471   5.060   1.859   4.877 -0.3046 -2.3158 -0.8723
   80SLPC  H13Y 7472   5.177   1.751   4.957  0.4244 -0.5641  0.3969
   80SLPC  C314 7473   5.241   1.825   4.760  0.8355 -0.0182  0.0256
   80SLPC  H14X 7474   5.212   1.729   4.712 -0.8903  0.2623  0.4625
   80SLPC  H14Y 7475   5.350   1.819   4.783  0.9607 -0.1215 -0.5783
   80SLPC  C315 7476   5.217   1.938   4.665  0.4406  0.1008  0.5619
   80SLPC  H15X 7477   5.264   2.031   4.703  0.2424 -0.1467  1.4525
   80SLPC  H15Y 7478   5.107   1.953   4.663  0.2120 -1.3116  1.2314
   80SLPC  C316 7479   5.261   1.918   4.523 -0.2728  0.1436 -0.5233
   80SLPC  H16X 7480   5.192   1.969   4.452 -0.0736  1.5730  0.2850
   80SLPC  H16Y 7481   5.260   1.808   4.506  0.7689 -0.8049  4.1588
   80SLPC  C317 7482   5.408   1.965   4.487 -0.2905 -0.4817 -0.2642
   80SLPC  H17X 7483   5.468   1.944   4.578 -0.5066 -1.0358 -0.2452
   80SLPC  H17Y 7484   5.404   2.075   4.473 -0.0404 -0.2619  1.2627
   80SLPC  C318 7485   5.466   1.904   4.360 -0.5132  1.0893  0.6501
   80SLPC  H18X 7486   5.577   1.908   4.355 -0.5108  0.6033  0.1971
   80SLPC  H18Y 7487   5.416   1.955   4.275  2.0661  0.8192 -1.1484
   80SLPC  H18Z 7488   5.448   1.794   4.357  0.2557  0.9125  1.8321
   81SLPC     N 7489   1.765   4.165   1.796  0.4546  0.0663 -0.0747
   81SLPC   C13 7490   1.897   4.136   1.863  0.1153  0.2332 -0.4929
   81SLPC  H13A 7491   1.979   4.130   1.792  1.7249  3.5760  0.8421
   81SLPC  H13B 7492   1.924   4.210   1.937 -0.8178 -1.3282  1.5169
   81SLPC  H13C 7493   1.886   4.042   1.915  0.7060  0.2937 -0.2421
   81SLPC   C14 7494   1.704   4.042   1.736 -0.3384 -0.5565 -0.1769
   81SLPC  H14A 7495   1.767   3.979   1.674 -0.2977 -1.7135  0.9913
   81SLPC  H14B 7496   1.673   3.978   1.818  0.5844 -1.6185 -0.6227
   81SLPC  H14C 7497   1.615   4.055   1.676 -1.9436 -0.2355  2.1517
   81SLPC   C15 7498   1.799   4.258   1.678  0.1187 -0.3549 -0.0995
   81SLPC  H15A 7499   1.868   4.334   1.713  0.2535 -1.3720  2.0069
   81SLPC  H15B 7500   1.840   4.201   1.595  1.5317  2.2107 -1.2859
   81SLPC  H15C 7501   1.711   4.312   1.649  1.2902  2.4816  1.2854
   81SLPC   C12 7502   1.664   4.222   1.895  0.3082  0.0190  0.1136
   81SLPC  H12A 7503   1.707   4.297   1.960  0.9955 -1.0256  0.8928
   81SLPC  H12B 7504   1.630   4.150   1.968 -0.8123 -0.2368 -0.6357
   81SLPC   C11 7505   1.530   4.284   1.842 -0.9638  0.2506 -0.0590
   81SLPC  H11A 7506   1.568   4.373   1.786 -1.0296  1.0884  1.1903
   81SLPC  H11B 7507   1.480   4.323   1.933  1.5762  2.9232  0.3458
   81SLPC     P 7508   1.342   4.105   1.837  0.4509  0.0038  0.2179
   81SLPC   O13 7509   1.221   4.193   1.865 -0.7442  0.0363  0.3129
   81SLPC   O14 7510   1.321   3.982   1.753  0.2229 -0.2708 -0.3507
   81SLPC   O12 7511   1.454   4.192   1.766 -0.3642 -0.4066 -0.0801
   81SLPC   O11 7512   1.414   4.051   1.965 -0.4538 -0.3737 -0.1411
   81SLPC    C1 7513   1.332   4.040   2.083 -0.8839  0.0002 -0.1511
   81SLPC    HA 7514   1.261   4.124   2.094 -0.4717  0.3695 -0.2816
   81SLPC    HB 7515   1.289   3.938   2.099 -1.5108 -0.0598 -2.0058
   81SLPC    C2 7516   1.425   4.062   2.213 -0.3238 -0.7105  0.0133
   81SLPC    HS 7517   1.363   4.045   2.304 -1.4726 -0.6833 -0.7401
   81SLPC   O21 7518   1.498   4.190   2.219 -0.5271 -0.3372  0.7149
   81SLPC   C21 7519   1.429   4.291   2.270 -0.3990  0.3073  0.1001
   81SLPC   O22 7520   1.310   4.304   2.250  0.0387  0.2731 -0.5867
   81SLPC   C22 7521   1.507   4.369   2.369 -0.0731 -0.3349 -0.0753
   81SLPC   H2R 7522   1.550   4.300   2.444  0.9136  2.2016  1.8533
   81SLPC   H2S 7523   1.590   4.427   2.322 -0.2145 -0.8131 -0.9399
   81SLPC    C3 7524   1.535   3.954   2.218  0.3433  0.2597 -0.0443
   81SLPC    HX 7525   1.608   3.960   2.135  0.4426 -0.2129  0.0015
   81SLPC    HY 7526   1.481   3.857   2.207  0.3468 -0.0850  2.3462
   81SLPC   O31 7527   1.611   3.933   2.336 -0.1052  0.1731  0.0463
   81SLPC   C31 7528   1.551   3.890   2.444 -0.7059 -0.2825  0.1567
   81SLPC   O32 7529   1.442   3.839   2.450 -0.0247  0.5120 -0.3231
   81SLPC   C32 7530   1.644   3.920   2.564  0.2611  0.0664 -0.0373
   81SLPC   H2X 7531   1.714   4.004   2.543  0.2923  0.1395  0.3383
   81SLPC   H2Y 7532   1.700   3.825   2.574  0.3794 -0.0243 -1.3912
   81SLPC   C23 7533   1.434   4.487   2.441 -1.0645 -0.3755 -0.1260
   81SLPC   H3R 7534   1.399   4.567   2.373  2.8719  0.9362 -0.8791
   81SLPC   H3S 7535   1.503   4.552   2.499 -0.3097 -1.1847 -0.0981
   81SLPC   C24 7536   1.315   4.446   2.534  0.2850 -0.1095  0.4902
   81SLPC   H4R 7537   1.239   4.394   2.472 -2.1540  2.9308  0.6439
   81SLPC   H4S 7538   1.271   4.537   2.581  3.5506  1.2394  1.2254
   81SLPC   C25 7539   1.358   4.353   2.644 -0.0864  0.1001 -0.7693
   81SLPC   H5R 7540   1.443   4.402   2.696 -0.2303 -0.2887 -0.1433
   81SLPC   H5S 7541   1.397   4.252   2.620  1.4990  0.2290  0.9957
   81SLPC   C26 7542   1.252   4.343   2.758  0.0228 -0.0659 -0.9353
   81SLPC   H6R 7543   1.151   4.325   2.716 -0.0317 -2.1229 -0.0404
   81SLPC   H6S 7544   1.259   4.435   2.820 -0.9427  0.2320 -1.2565
   81SLPC   C27 7545   1.279   4.227   2.858  0.8160  0.3925 -0.6110
   81SLPC   H7R 7546   1.385   4.239   2.888 -0.1219  2.2237  2.4224
   81SLPC   H7S 7547   1.261   4.135   2.799 -0.7269  1.2137 -1.4928
   81SLPC   C28 7548   1.183   4.216   2.976 -0.2361 -0.3017 -0.2849
   81SLPC   H8R 7549   1.189   4.124   3.039  0.5062  1.2044  1.9786
   81SLPC   H8S 7550   1.077   4.236   2.947  0.0790 -0.4160 -1.5755
   81SLPC   C29 7551   1.231   4.314   3.075 -0.0791  0.4977  0.2013
   81SLPC   H9R 7552   1.224   4.416   3.032 -0.3269 -0.3475 -1.8782
   81SLPC  C210 7553   1.293   4.301   3.195 -0.7662 -0.7744 -0.7740
   81SLPC  H10R 7554   1.311   4.392   3.254  1.0391 -1.0467 -0.8366
   81SLPC  C211 7555   1.324   4.174   3.269  0.4278 -0.2906 -0.4709
   81SLPC  H11R 7556   1.378   4.097   3.209 -1.9139 -2.0400 -0.4753
   81SLPC  H11S 7557   1.228   4.128   3.301  0.1851  1.1763  1.0278
   81SLPC  C212 7558   1.403   4.205   3.396  0.2930  0.3432 -0.3071
   81SLPC  H12R 7559   1.351   4.249   3.483  0.3528 -0.1399 -0.0242
   81SLPC  C213 7560   1.538   4.192   3.405 -0.1949  0.2145  0.6620
   81SLPC  H13R 7561   1.595   4.238   3.487 -0.4649  3.6747 -0.9035
   81SLPC  C214 7562   1.631   4.147   3.290  0.2572  0.2149 -0.2433
   81SLPC  H14R 7563   1.590   4.115   3.192  0.0365 -0.5399  0.0823
   81SLPC  H14S 7564   1.691   4.062   3.329  2.1264  1.6882  0.2315
   81SLPC  C215 7565   1.733   4.259   3.255 -0.9373  0.0284  0.1869
   81SLPC  H15R 7566   1.809   4.221   3.184 -2.2161  0.8122 -1.6557
   81SLPC  H15S 7567   1.792   4.267   3.349 -1.9768  0.7756  0.8014
   81SLPC  C216 7568   1.674   4.387   3.194 -0.0548  0.5361 -0.5099
   81SLPC  H16R 7569   1.759   4.458   3.194  0.4496 -0.0593 -0.7903
   81SLPC  H16S 7570   1.593   4.444   3.245 -0.5860  0.1088 -0.8574
   81SLPC  C217 7571   1.631   4.356   3.048 -0.0403 -0.2021 -0.2406
   81SLPC  H17R 7572   1.542   4.291   3.060 -1.8928  1.7592 -2.3486
   81SLPC  H17S 7573   1.711   4.301   2.994 -0.1340 -0.3130 -0.2661
   81SLPC  C218 7574   1.571   4.482   2.975 -0.6944  0.5699 -0.4056
   81SLPC  H18R 7575   1.481   4.522   3.026 -0.3674  1.5305 -0.5745
   81SLPC  H18S 7576   1.539   4.457   2.872  0.5767 -0.2073 -0.6388
   81SLPC  H18T 7577   1.648   4.561   2.962 -0.8243  0.7621 -0.0012
   81SLPC   C33 7578   1.576   3.956   2.701  0.1815 -0.2862  0.6902
   81SLPC   H3X 7579   1.518   4.049   2.685  0.8154 -0.5254 -5.3585
   81SLPC   H3Y 7580   1.657   3.976   2.773 -0.7825 -0.0597  1.7350
   81SLPC   C34 7581   1.478   3.849   2.755  0.7042  0.0944 -0.0444
   81SLPC   H4X 7582   1.520   3.747   2.740  1.7450  0.3808  0.7240
   81SLPC   H4Y 7583   1.384   3.837   2.699  0.6338 -0.7618  0.2471
   81SLPC   C35 7584   1.450   3.873   2.902  0.0916  0.0280  0.4342
   81SLPC   H5X 7585   1.401   3.972   2.908  1.1976  0.7594 -1.5021
   81SLPC   H5Y 7586   1.543   3.867   2.963  0.7386  0.5289 -0.4624
   81SLPC   C36 7587   1.359   3.763   2.955  0.0717  0.0363 -0.0575
   81SLPC   H6X 7588   1.408   3.664   2.964  1.3898  0.6826  0.0900
   81SLPC   H6Y 7589   1.275   3.751   2.883 -0.4528 -0.6894  0.6624
   81SLPC   C37 7590   1.309   3.793   3.096  0.1518  0.1052 -0.2479
   81SLPC   H7X 7591   1.232   3.721   3.131 -1.2849  1.9659  0.6344
   81SLPC   H7Y 7592   1.266   3.896   3.097  0.7769  0.4154  2.7571
   81SLPC   C38 7593   1.410   3.780   3.216 -0.0989 -0.1891  0.8554
   81SLPC   H8X 7594   1.493   3.850   3.193 -0.7502  0.3657  0.1198
   81SLPC   H8Y 7595   1.449   3.676   3.210 -1.1479 -0.5440 -0.3370
   81SLPC   C39 7596   1.334   3.797   3.348 -0.4209 -0.0060  0.2295
   81SLPC   H9X 7597   1.258   3.717   3.364  1.1184 -1.8982 -1.4507
   81SLPC   H9Y 7598   1.289   3.898   3.331  1.6987  0.8715 -0.5656
   81SLPC  C310 7599   1.423   3.810   3.464 -0.3538 -0.1465 -0.1617
   81SLPC  H10X 7600   1.491   3.897   3.458 -0.1015 -0.1768  1.8725
   81SLPC  H10Y 7601   1.497   3.727   3.467  0.7494  0.7019 -1.9817
   81SLPC  C311 7602   1.339   3.827   3.592 -0.1110 -0.5763  0.6428
   81SLPC  H11X 7603   1.263   3.747   3.607 -2.2228  1.6402  2.5175
   81SLPC  H11Y 7604   1.281   3.921   3.593 -1.1274 -1.1808  0.9727
   81SLPC  C312 7605   1.437   3.814   3.707 -0.7808  0.2283 -0.8561
   81SLPC  H12X 7606   1.527   3.878   3.693 -1.0193  0.5382 -0.9915
   81SLPC  H12Y 7607   1.478   3.711   3.700  0.0124  0.5925 -1.8694
   81SLPC  C313 7608   1.370   3.841   3.848 -0.1334 -0.7041  0.2987
   81SLPC  H13X 7609   1.270   3.793   3.848  0.1968 -1.4682  2.1770
   81SLPC  H13Y 7610   1.343   3.948   3.857 -4.9357 -1.4172 -2.4544
   81SLPC  C314 7611   1.455   3.788   3.960 -0.2250 -0.3931 -0.0167
   81SLPC  H14X 7612   1.542   3.856   3.974 -1.4516  1.2284 -0.0010
   81SLPC  H14Y 7613   1.496   3.687   3.941 -0.2375 -0.4094  0.0418
   81SLPC  C315 7614   1.389   3.783   4.097  1.0337 -0.0064 -0.1113
   81SLPC  H15X 7615   1.447   3.729   4.175  1.1384 -2.1738 -1.5889
   81SLPC  H15Y 7616   1.297   3.721   4.087  0.6048  0.6741 -0.4246
   81SLPC  C316 7617   1.373   3.920   4.162 -0.0527  0.7048  0.8095
   81SLPC  H16X 7618   1.316   3.994   4.103 -1.3682 -0.7497  0.2094
   81SLPC  H16Y 7619   1.475   3.955   4.193  0.4309 -0.2241  0.2900
   81SLPC  C317 7620   1.307   3.895   4.293 -0.6616  0.4880  1.0172
   81SLPC  H17X 7621   1.355   3.812   4.349 -0.3523 -0.6315 -0.8263
   81SLPC  H17Y 7622   1.205   3.860   4.265  0.1189 -0.3893 -0.8524
   81SLPC  C318 7623   1.295   4.021   4.373  0.3262 -0.4647  0.0572
   81SLPC  H18X 7624   1.251   4.102   4.311  0.0064 -1.2102 -0.7049
   81SLPC  H18Y 7625   1.397   4.052   4.405  0.6167  0.7530 -1.8659
   81SLPC  H18Z 7626   1.229   4.016   4.463  1.7129 -0.3921  1.1103
   82SLPC     N 7627   3.410   0.819   1.679 -0.2399 -0.1806  0.3788
   82SLPC   C13 7628   3.341   0.937   1.625  0.4680 -0.1298 -0.2111
   82SLPC  H13A 7629   3.343   1.017   1.698 -0.5467 -0.4449  0.1748
   82SLPC  H13B 7630   3.385   0.956   1.528  1.7117  0.8564  0.5041
   82SLPC  H13C 7631   3.237   0.917   1.607  0.4343 -2.1388  1.7809
   82SLPC   C14 7632   3.555   0.850   1.671 -0.1927 -0.2706  0.4222
   82SLPC  H14A 7633   3.585   0.872   1.569  0.3297 -1.9906  0.1648
   82SLPC  H14B 7634   3.572   0.942   1.724 -1.8133 -0.5663  1.5350
   82SLPC  H14C 7635   3.621   0.774   1.711 -2.4967 -2.6133  0.0884
   82SLPC   C15 7636   3.378   0.701   1.594 -0.0022 -0.0654 -0.2165
   82SLPC  H15A 7637   3.442   0.616   1.609  3.3269  1.9414 -1.8577
   82SLPC  H15B 7638   3.272   0.688   1.579 -0.2601  1.2444  0.3415
   82SLPC  H15C 7639   3.400   0.733   1.493 -0.7587  0.2949 -0.2765
   82SLPC   C12 7640   3.370   0.789   1.822  0.1552  0.5400 -1.0854
   82SLPC  H12A 7641   3.262   0.798   1.824 -0.0163 -1.1186 -1.2084
   82SLPC  H12B 7642   3.407   0.868   1.885 -0.3489 -0.8817  1.1119
   82SLPC   C11 7643   3.401   0.658   1.900 -0.3008  0.6266 -0.1923
   82SLPC  H11A 7644   3.340   0.574   1.861 -0.3858 -0.7477  2.6516
   82SLPC  H11B 7645   3.378   0.664   2.008  1.1323 -2.3743  0.3682
   82SLPC     P 7646   3.639   0.703   1.973  0.0144 -0.0047 -0.0038
   82SLPC   O13 7647   3.765   0.701   1.892  0.0238 -0.5789  0.2879
   82SLPC   O14 7648   3.588   0.838   2.012 -0.2997 -0.6711 -0.1564
   82SLPC   O12 7649   3.535   0.618   1.892 -0.3789 -0.5274 -0.6655
   82SLPC   O11 7650   3.659   0.620   2.103 -0.3336 -0.0205 -0.1283
   82SLPC    C1 7651   3.777   0.615   2.176  0.1200 -0.4302 -0.5482
   82SLPC    HA 7652   3.810   0.512   2.198 -0.5336 -0.0098  3.0403
   82SLPC    HB 7653   3.860   0.663   2.120  2.1248 -2.8513  0.1935
   82SLPC    C2 7654   3.774   0.686   2.316 -0.5342  0.3581  0.3264
   82SLPC    HS 7655   3.865   0.647   2.366 -0.8239  0.3637  0.8667
   82SLPC   O21 7656   3.654   0.662   2.389 -0.3889 -0.1395  0.4433
   82SLPC   C21 7657   3.647   0.553   2.456 -0.0070 -0.2059 -0.0991
   82SLPC   O22 7658   3.731   0.465   2.459  0.1341  0.2482  0.4314
   82SLPC   C22 7659   3.513   0.551   2.532 -0.2516  0.1223 -0.4946
   82SLPC   H2R 7660   3.505   0.638   2.600  0.0756 -1.1702  1.2598
   82SLPC   H2S 7661   3.431   0.557   2.457 -0.3566  3.1904 -0.2398
   82SLPC    C3 7662   3.803   0.833   2.296  0.6101 -0.4265  0.2625
   82SLPC    HX 7663   3.729   0.866   2.221 -1.3238 -3.9058  0.4295
   82SLPC    HY 7664   3.905   0.837   2.253  1.1659  0.5469  1.5711
   82SLPC   O31 7665   3.804   0.908   2.421 -0.0204 -0.0254 -0.0646
   82SLPC   C31 7666   3.689   0.939   2.472  0.4553  0.2148 -0.6940
   82SLPC   O32 7667   3.576   0.919   2.428 -0.2016  0.5547 -0.0115
   82SLPC   C32 7668   3.715   1.018   2.600 -1.1586 -0.4973 -0.1792
   82SLPC   H2X 7669   3.658   1.113   2.588  1.4647  1.0216 -1.5102
   82SLPC   H2Y 7670   3.813   1.070   2.597 -1.7845  0.7189 -0.7288
   82SLPC   C23 7671   3.489   0.424   2.620  0.0433  0.3660  0.0272
   82SLPC   H3R 7672   3.545   0.333   2.589  0.0498 -0.0104  1.1035
   82SLPC   H3S 7673   3.385   0.390   2.601 -0.0302  0.1371  0.7927
   82SLPC   C24 7674   3.518   0.446   2.773 -0.6316  0.0439  0.8277
   82SLPC   H4R 7675   3.477   0.366   2.839 -2.2024  0.0122 -0.1194
   82SLPC   H4S 7676   3.472   0.540   2.809  0.4542  1.4386 -1.2568
   82SLPC   C25 7677   3.672   0.451   2.804  0.4351 -0.3620  0.2205
   82SLPC   H5R 7678   3.669   0.502   2.902 -0.9429  2.9703 -1.3968
   82SLPC   H5S 7679   3.726   0.526   2.742 -0.7654 -1.4519 -2.2751
   82SLPC   C26 7680   3.755   0.318   2.811  0.4465 -0.4155 -0.0146
   82SLPC   H6R 7681   3.863   0.345   2.805 -0.1905  2.5236  0.3835
   82SLPC   H6S 7682   3.725   0.268   2.716 -0.0382  1.0066 -0.6300
   82SLPC   C27 7683   3.714   0.237   2.931 -0.4254  0.3816 -0.0920
   82SLPC   H7R 7684   3.604   0.223   2.932 -0.4710  0.6750  1.7880
   82SLPC   H7S 7685   3.752   0.293   3.019 -1.3704  1.2565 -0.2257
   82SLPC   C28 7686   3.771   0.093   2.915  0.0968 -0.3379 -0.0201
   82SLPC   H8R 7687   3.878   0.109   2.889 -0.1744  0.5803 -0.6229
   82SLPC   H8S 7688   3.723   0.050   2.824 -1.7202  1.1938  0.1422
   82SLPC   C29 7689   3.762  -0.014   3.022 -0.1737 -0.6655  0.8278
   82SLPC   H9R 7690   3.658  -0.050   3.031 -0.3152 -0.9413 -1.3616
   82SLPC  C210 7691   3.860  -0.065   3.098  1.0888  0.0294 -0.5659
   82SLPC  H10R 7692   3.839  -0.139   3.176  0.2058  0.0180 -0.8091
   82SLPC  C211 7693   4.004  -0.031   3.090 -0.5415  0.3671 -0.1278
   82SLPC  H11R 7694   4.016   0.075   3.120  2.1948  0.3766 -0.9847
   82SLPC  H11S 7695   4.035  -0.045   2.984  1.2729 -0.9463  0.5197
   82SLPC  C212 7696   4.078  -0.135   3.179 -0.1073 -0.4898 -0.8856
   82SLPC  H12R 7697   4.078  -0.237   3.137  0.0869 -0.7348 -0.2958
   82SLPC  C213 7698   4.119  -0.118   3.306  0.8382 -0.8444  0.6302
   82SLPC  H13R 7699   4.166  -0.200   3.363 -0.9237 -0.6410  2.4824
   82SLPC  C214 7700   4.096   0.004   3.389  0.5967  0.6993 -0.2703
   82SLPC  H14R 7701   4.026   0.083   3.354 -1.3580  0.0794  1.9437
   82SLPC  H14S 7702   4.196   0.046   3.411  0.6795  0.4735 -0.2188
   82SLPC  C215 7703   4.026  -0.030   3.527 -0.4034  0.3612  0.5909
   82SLPC  H15R 7704   3.939  -0.095   3.503 -1.7093  2.1776  0.1869
   82SLPC  H15S 7705   3.998   0.070   3.568 -1.0612  1.5707 -2.5547
   82SLPC  C216 7706   4.110  -0.107   3.635  0.1751  0.1809  0.1768
   82SLPC  H16R 7707   4.186  -0.034   3.670  0.5404  0.0349 -0.2956
   82SLPC  H16S 7708   4.174  -0.183   3.585 -0.5068 -0.6650  0.5658
   82SLPC  C217 7709   4.035  -0.172   3.752  0.4460 -1.0568 -0.5392
   82SLPC  H17R 7710   4.118  -0.201   3.820  1.4394 -0.4371 -1.4534
   82SLPC  H17S 7711   3.994  -0.270   3.721  1.0230 -2.1492  1.8986
   82SLPC  C218 7712   3.934  -0.083   3.825  0.6620  0.2693  0.2971
   82SLPC  H18R 7713   3.985   0.009   3.862 -0.8023  2.5191 -2.8474
   82SLPC  H18S 7714   3.885  -0.142   3.905 -0.0152  1.4621  0.7869
   82SLPC  H18T 7715   3.851  -0.048   3.760  0.6913 -1.0957 -0.5145
   82SLPC   C33 7716   3.694   0.951   2.738 -0.0347 -0.3303 -0.2091
   82SLPC   H3X 7717   3.594   0.903   2.746 -0.1618 -0.3526 -1.6792
   82SLPC   H3Y 7718   3.702   1.036   2.809 -3.0317  0.2638 -0.4347
   82SLPC   C34 7719   3.794   0.840   2.785  0.8551  0.5964  0.4548
   82SLPC   H4X 7720   3.890   0.895   2.798 -0.5309  4.0473 -2.1186
   82SLPC   H4Y 7721   3.808   0.762   2.708  1.1794  0.1753  0.9313
   82SLPC   C35 7722   3.769   0.772   2.917  0.3298 -0.3353 -0.9109
   82SLPC   H5X 7723   3.836   0.687   2.941  2.8567  1.5640 -0.7858
   82SLPC   H5Y 7724   3.671   0.722   2.909 -0.2460  0.4261  1.0404
   82SLPC   C36 7725   3.773   0.871   3.036  0.6680 -0.2470 -0.0920
   82SLPC   H6X 7726   3.675   0.923   3.034  1.4514  1.3662 -3.2217
   82SLPC   H6Y 7727   3.854   0.942   3.012  0.5166  0.1099  0.4386
   82SLPC   C37 7728   3.787   0.800   3.177 -0.6281 -0.8215  0.1439
   82SLPC   H7X 7729   3.849   0.709   3.163  1.8864  0.8360 -0.1491
   82SLPC   H7Y 7730   3.685   0.763   3.201 -0.0305 -2.1260  0.7916
   82SLPC   C38 7731   3.825   0.889   3.302 -0.1524  0.1717  0.1549
   82SLPC   H8X 7732   3.760   0.978   3.287 -1.6744 -1.2547 -2.3142
   82SLPC   H8Y 7733   3.930   0.925   3.302 -0.0062 -0.0899  2.6929
   82SLPC   C39 7734   3.791   0.822   3.440 -0.2732  0.3071 -0.1135
   82SLPC   H9X 7735   3.873   0.747   3.446 -0.5265 -0.1046 -1.5059
   82SLPC   H9Y 7736   3.695   0.768   3.435  1.1272 -2.3025 -0.5901
   82SLPC  C310 7737   3.797   0.921   3.561 -0.0061  0.1513  0.0086
   82SLPC  H10X 7738   3.706   0.985   3.560 -1.6348 -1.9965  1.8013
   82SLPC  H10Y 7739   3.886   0.988   3.560  0.4514 -0.4410  0.2986
   82SLPC  C311 7740   3.789   0.836   3.694 -0.3673 -0.3513  0.2813
   82SLPC  H11X 7741   3.892   0.801   3.719  0.7623  1.8932 -0.8694
   82SLPC  H11Y 7742   3.713   0.756   3.684  0.2393 -0.9819  0.6563
   82SLPC  C312 7743   3.748   0.927   3.809  0.5606  0.3062 -0.8126
   82SLPC  H12X 7744   3.723   0.861   3.894 -0.0184  0.4441 -0.8686
   82SLPC  H12Y 7745   3.655   0.974   3.771  1.1211 -0.7253 -3.7105
   82SLPC  C313 7746   3.856   1.026   3.838 -0.7537  0.5194 -0.5761
   82SLPC  H13X 7747   3.853   1.108   3.764 -2.1821 -2.3206 -3.9866
   82SLPC  H13Y 7748   3.958   0.981   3.836 -0.0390  2.0630 -0.0638
   82SLPC  C314 7749   3.843   1.095   3.971  0.4246  0.6842  0.1450
   82SLPC  H14X 7750   3.874   1.030   4.056 -0.0541  0.9547  0.5337
   82SLPC  H14Y 7751   3.735   1.112   3.993  0.1201  1.5007 -1.8554
   82SLPC  C315 7752   3.912   1.226   3.986 -0.3945  0.0616  0.1055
   82SLPC  H15X 7753   3.871   1.298   3.912 -0.6177  0.0619  0.2279
   82SLPC  H15Y 7754   4.017   1.205   3.957 -0.5868  1.3386 -1.6553
   82SLPC  C316 7755   3.900   1.311   4.113 -0.6173 -0.0883 -0.3765
   82SLPC  H16X 7756   3.794   1.341   4.130 -0.7680 -1.4889  1.5958
   82SLPC  H16Y 7757   3.962   1.404   4.111 -0.1656 -0.3597  0.2764
   82SLPC  C317 7758   3.932   1.225   4.246 -0.2559 -0.0691 -0.1876
   82SLPC  H17X 7759   3.857   1.144   4.259  1.2622 -1.3053  1.2824
   82SLPC  H17Y 7760   3.921   1.283   4.340  2.9079  0.0923  0.2166
   82SLPC  C318 7761   4.070   1.161   4.246 -0.7238 -0.5964  0.2375
   82SLPC  H18X 7762   4.092   1.120   4.347 -2.7894  0.0813  1.0128
   82SLPC  H18Y 7763   4.151   1.230   4.213  0.5943 -2.2678 -0.1767
   82SLPC  H18Z 7764   4.066   1.073   4.178 -0.1080 -0.0759 -0.4860
   83SLPC     N 7765   5.436   1.908   1.890  0.9720  0.6911  0.0124
   83SLPC   C13 7766   5.500   1.777   1.912  0.1297 -0.4751 -0.0713
   83SLPC  H13A 7767   5.501   1.726   1.817 -0.9868 -0.1718 -0.2509
   83SLPC  H13B 7768   5.603   1.804   1.932 -0.3288  1.0593  0.3881
   83SLPC  H13C 7769   5.453   1.728   1.995 -0.7431 -1.3768 -1.0668
   83SLPC   C14 7770   5.299   1.894   1.826 -0.2925 -0.1078  0.0665
   83SLPC  H14A 7771   5.304   1.836   1.735  0.9175  0.1547 -0.0452
   83SLPC  H14B 7772   5.232   1.834   1.886 -1.7574  2.2009  0.8928
   83SLPC  H14C 7773   5.251   1.991   1.824  0.9897  0.5623  0.7666
   83SLPC   C15 7774   5.515   1.993   1.792 -0.8808 -0.2252  0.0657
   83SLPC  H15A 7775   5.465   2.082   1.758  0.0690  0.1861 -0.3007
   83SLPC  H15B 7776   5.614   2.030   1.817 -1.0755  0.0117  0.5007
   83SLPC  H15C 7777   5.530   1.930   1.706 -0.0308  2.8248 -2.2132
   83SLPC   C12 7778   5.418   1.982   2.024 -0.5056 -0.1153 -1.4396
   83SLPC  H12A 7779   5.346   1.941   2.092 -1.5980  1.2714 -1.7032
   83SLPC  H12B 7780   5.372   2.077   1.999  1.3565  1.4564  0.6281
   83SLPC   C11 7781   5.551   2.005   2.112  0.5403 -0.4397 -0.1099
   83SLPC  H11A 7782   5.590   1.908   2.150 -0.5324 -2.0269 -2.8341
   83SLPC  H11B 7783   5.524   2.066   2.202 -2.0011 -0.7899 -0.5548
   83SLPC     P 7784   5.655   2.236   2.055  0.9000  0.1471  0.3268
   83SLPC   O13 7785   5.772   2.282   1.985 -0.4327 -0.0539  0.0904
   83SLPC   O14 7786   5.528   2.305   2.017  0.0119  0.0527 -0.0256
   83SLPC   O12 7787   5.648   2.079   2.031 -0.0228  0.3935  0.4234
   83SLPC   O11 7788   5.670   2.254   2.213 -0.1156  0.2062 -0.1130
   83SLPC    C1 7789   5.797   2.234   2.274 -0.5686 -0.1694  0.2392
   83SLPC    HA 7790   5.860   2.158   2.221 -0.6101  0.2542 -0.4320
   83SLPC    HB 7791   5.858   2.327   2.271 -0.9382  0.2050  2.7069
   83SLPC    C2 7792   5.781   2.195   2.422 -0.0288  0.4326 -0.0926
   83SLPC    HS 7793   5.884   2.170   2.457 -0.5527 -1.6898  0.0692
   83SLPC   O21 7794   5.687   2.089   2.440 -0.1396  0.4679 -0.4925
   83SLPC   C21 7795   5.729   1.968   2.422 -0.3253  0.7173 -0.1711
   83SLPC   O22 7796   5.841   1.941   2.374  0.3828 -0.4038 -0.1914
   83SLPC   C22 7797   5.620   1.867   2.464 -0.3430  0.6075  0.4226
   83SLPC   H2R 7798   5.521   1.916   2.477 -1.0516 -0.9734  1.3346
   83SLPC   H2S 7799   5.601   1.781   2.397  0.2838  1.7985 -1.3541
   83SLPC    C3 7800   5.731   2.318   2.502  0.0422 -0.5373  0.0116
   83SLPC    HX 7801   5.621   2.333   2.494  0.0493 -0.2490  0.4113
   83SLPC    HY 7802   5.778   2.410   2.462 -0.9797 -0.1032 -0.2199
   83SLPC   O31 7803   5.757   2.294   2.644  0.3448 -0.1316  0.0173
   83SLPC   C31 7804   5.879   2.319   2.680  0.0276  0.9834  0.3846
   83SLPC   O32 7805   5.962   2.365   2.609 -0.4580 -0.0305 -0.3984
   83SLPC   C32 7806   5.891   2.266   2.821  0.6693  0.1488 -0.3618
   83SLPC   H2X 7807   5.936   2.165   2.816 -0.3084 -0.3067 -0.1729
   83SLPC   H2Y 7808   5.793   2.246   2.870 -0.0544 -0.0042 -1.8134
   83SLPC   C23 7809   5.670   1.801   2.600  0.0944 -0.1568 -0.1925
   83SLPC   H3R 7810   5.760   1.738   2.582  0.5928  0.4599  0.1414
   83SLPC   H3S 7811   5.590   1.734   2.640  0.6608  0.3387  1.8609
   83SLPC   C24 7812   5.707   1.897   2.719 -0.5098 -0.0342  0.0349
   83SLPC   H4R 7813   5.614   1.957   2.730 -0.0528  1.3489 -2.6523
   83SLPC   H4S 7814   5.796   1.960   2.700 -0.5229 -0.7865 -3.1280
   83SLPC   C25 7815   5.732   1.829   2.854  0.4158 -0.0172  0.3074
   83SLPC   H5R 7816   5.827   1.775   2.837 -0.8876 -2.1722 -0.6516
   83SLPC   H5S 7817   5.664   1.742   2.844 -0.6435  0.7099  0.9198
   83SLPC   C26 7818   5.708   1.915   2.981 -0.5330  0.3232  1.0983
   83SLPC   H6R 7819   5.599   1.940   2.979 -1.0410 -1.7534 -0.6302
   83SLPC   H6S 7820   5.776   2.002   2.973  0.8716 -0.9132 -1.7786
   83SLPC   C27 7821   5.741   1.846   3.108 -0.1341  0.0459  0.0260
   83SLPC   H7R 7822   5.844   1.804   3.108  0.0630  0.4921  1.0493
   83SLPC   H7S 7823   5.667   1.767   3.132 -0.6131  0.5510  0.2422
   83SLPC   C28 7824   5.732   1.939   3.230  0.3089  0.6022 -0.1744
   83SLPC   H8R 7825   5.773   2.035   3.194  1.7682  0.2072  0.3486
   83SLPC   H8S 7826   5.790   1.902   3.317 -0.5030  0.6936  0.4126
   83SLPC   C29 7827   5.590   1.975   3.268  0.3989  0.3923 -0.1626
   83SLPC   H9R 7828   5.514   1.948   3.193  1.6937 -2.2824 -0.6562
   83SLPC  C210 7829   5.550   2.016   3.390  0.7497 -0.0991 -0.2435
   83SLPC  H10R 7830   5.443   2.029   3.411  1.4507  1.9327  2.6982
   83SLPC  C211 7831   5.639   2.064   3.503 -0.3204 -0.0289  0.0596
   83SLPC  H11R 7832   5.607   2.161   3.545  0.2079  0.6392 -1.0488
   83SLPC  H11S 7833   5.748   2.077   3.482  0.1447  3.1567  3.4009
   83SLPC  C212 7834   5.624   1.967   3.618  0.3780  0.0796  0.7967
   83SLPC  H12R 7835   5.694   1.884   3.602  0.4748  0.1772  0.7070
   83SLPC  C213 7836   5.541   1.976   3.725  0.1616 -0.3760 -0.8455
   83SLPC  H13R 7837   5.549   1.894   3.798  0.0059 -0.4064 -0.8610
   83SLPC  C214 7838   5.433   2.077   3.761  0.0006  0.0908  0.0713
   83SLPC  H14R 7839   5.343   2.023   3.798 -0.0015  1.0304  1.5393
   83SLPC  H14S 7840   5.389   2.132   3.674 -1.5628 -0.1756  0.6554
   83SLPC  C215 7841   5.493   2.194   3.852 -0.1478 -0.4899 -0.1461
   83SLPC  H15R 7842   5.434   2.288   3.842  1.4737  0.6953  0.8341
   83SLPC  H15S 7843   5.598   2.215   3.822  1.2995 -0.7318  4.0201
   83SLPC  C216 7844   5.503   2.159   4.003 -0.7991 -0.1283 -0.0633
   83SLPC  H16R 7845   5.553   2.061   4.019  0.6489  0.2645 -1.8238
   83SLPC  H16S 7846   5.397   2.144   4.032 -0.4843  0.9029  1.7130
   83SLPC  C217 7847   5.584   2.259   4.085  0.0208 -0.2773 -0.4335
   83SLPC  H17R 7848   5.538   2.360   4.077 -2.4021 -1.1159  1.8438
   83SLPC  H17S 7849   5.692   2.246   4.062  0.6511 -2.2768  2.9390
   83SLPC  C218 7850   5.574   2.216   4.231 -0.5844 -0.5155  0.6237
   83SLPC  H18R 7851   5.473   2.175   4.254 -0.5243 -1.2583 -0.3554
   83SLPC  H18S 7852   5.593   2.303   4.297  0.6615 -1.2224  1.2238
   83SLPC  H18T 7853   5.649   2.137   4.250 -0.1403 -0.6086 -1.2908
   83SLPC   C33 7854   5.978   2.366   2.903 -0.2061  0.1906  0.2012
   83SLPC   H3X 7855   5.964   2.474   2.881 -0.0756  0.1931  0.1244
   83SLPC   H3Y 7856   6.083   2.349   2.871 -0.5565 -1.3066 -0.2249
   83SLPC   C34 7857   5.972   2.338   3.054  0.7610  0.6336 -0.2055
   83SLPC   H4X 7858   6.044   2.406   3.105  0.4480  0.9082 -0.1199
   83SLPC   H4Y 7859   6.012   2.236   3.069 -2.0140 -0.5768 -0.5137
   83SLPC   C35 7860   5.834   2.355   3.122 -0.1857  0.1105  0.1742
   83SLPC   H5X 7861   5.846   2.302   3.218  0.3798 -1.3374 -0.6597
   83SLPC   H5Y 7862   5.746   2.317   3.065  0.8332  0.1806 -1.5315
   83SLPC   C36 7863   5.803   2.507   3.145 -0.3270  0.8155  0.3010
   83SLPC   H6X 7864   5.777   2.541   3.042 -2.3267 -0.6072  0.2669
   83SLPC   H6Y 7865   5.889   2.570   3.175  2.2064 -0.5492 -3.3700
   83SLPC   C37 7866   5.679   2.537   3.232  0.8538  0.1359 -0.2530
   83SLPC   H7X 7867   5.699   2.490   3.330  1.2707  4.1251  1.7846
   83SLPC   H7Y 7868   5.600   2.484   3.174  0.3105  0.4198  0.2140
   83SLPC   C38 7869   5.653   2.692   3.235  0.4592 -0.7021  0.3014
   83SLPC   H8X 7870   5.631   2.730   3.133 -0.5149 -2.9033 -0.3867
   83SLPC   H8Y 7871   5.743   2.745   3.274 -0.2377  1.4772 -0.9053
   83SLPC   C39 7872   5.531   2.736   3.318 -0.1906  0.4042  0.3611
   83SLPC   H9X 7873   5.441   2.687   3.275 -1.1492  1.4937  1.0800
   83SLPC   H9Y 7874   5.516   2.845   3.308 -0.4364  0.3442  0.0730
   83SLPC  C310 7875   5.537   2.698   3.467 -0.1164 -0.2506  0.4190
   83SLPC  H10X 7876   5.633   2.730   3.513  0.2152  0.4447 -0.7078
   83SLPC  H10Y 7877   5.530   2.588   3.474  0.6523 -0.2899  0.5608
   83SLPC  C311 7878   5.421   2.769   3.536  0.6027  0.0214  0.5476
   83SLPC  H11X 7879   5.326   2.741   3.485  0.6030  2.5318 -0.9691
   83SLPC  H11Y 7880   5.419   2.878   3.515  1.6356  0.2902  1.7432
   83SLPC  C312 7881   5.425   2.776   3.688  0.2710  0.5268  0.0223
   83SLPC  H12X 7882   5.525   2.797   3.733 -0.9293 -0.1682  3.2659
   83SLPC  H12Y 7883   5.411   2.670   3.717 -2.7458  0.5489 -0.9830
   83SLPC  C313 7884   5.314   2.867   3.749  0.5849  0.1759 -0.4334
   83SLPC  H13X 7885   5.229   2.865   3.677  1.3068 -0.0705 -1.3039
   83SLPC  H13Y 7886   5.353   2.970   3.759 -1.2083  0.7016  2.0483
   83SLPC  C314 7887   5.269   2.816   3.884 -0.4877  0.1856 -0.8420
   83SLPC  H14X 7888   5.252   2.708   3.864 -2.0066  0.8783 -3.9471
   83SLPC  H14Y 7889   5.173   2.858   3.919  0.7655  2.0386  0.6038
   83SLPC  C315 7890   5.365   2.840   4.000 -0.0418 -0.2369  0.1235
   83SLPC  H15X 7891   5.382   2.947   4.025 -1.6785  0.1709 -0.3823
   83SLPC  H15Y 7892   5.458   2.793   3.961 -1.5826 -3.1114 -0.3148
   83SLPC  C316 7893   5.331   2.754   4.122 -0.4566 -0.2645  0.1638
   83SLPC  H16X 7894   5.260   2.818   4.179  0.1704 -0.4778  1.2327
   83SLPC  H16Y 7895   5.418   2.746   4.191  0.2800  1.4655 -0.5249
   83SLPC  C317 7896   5.264   2.618   4.096 -0.6150 -0.0073 -0.4159
   83SLPC  H17X 7897   5.335   2.567   4.027  0.9115  0.0158  1.0812
   83SLPC  H17Y 7898   5.167   2.640   4.046  0.0076  0.3915 -1.4773
   83SLPC  C318 7899   5.240   2.549   4.230 -0.0302 -0.0525  0.3054
   83SLPC  H18X 7900   5.221   2.440   4.222 -0.7318 -0.0886  2.0531
   83SLPC  H18Y 7901   5.160   2.605   4.283 -0.6546 -1.1781  0.5972
   83SLPC  H18Z 7902   5.337   2.550   4.284  0.6206 -1.6437 -0.7422
   84SLPC     N 7903   6.557   5.759   2.165 -0.6103  0.3430 -0.3883
   84SLPC   C13 7904   6.610   5.648   2.082 -0.1722 -0.1677  0.1035
   84SLPC  H13A 7905   6.717   5.636   2.091 -0.2413 -3.3556 -1.5983
   84SLPC  H13B 7906   6.556   5.557   2.104  0.5801 -0.5762  0.3191
   84SLPC  H13C 7907   6.605   5.659   1.975 -1.1206 -3.0266 -0.2438
   84SLPC   C14 7908   6.409   5.756   2.153 -0.4775  0.3372  0.0537
   84SLPC  H14A 7909   6.383   5.758   2.048 -0.6064  1.7854  0.0966
   84SLPC  H14B 7910   6.370   5.670   2.205  2.1060 -2.0160 -1.6457
   84SLPC  H14C 7911   6.363   5.844   2.195 -1.3063  1.4459 -2.9170
   84SLPC   C15 7912   6.616   5.888   2.117  0.6712 -0.0534  0.6137
   84SLPC  H15A 7913   6.556   5.970   2.154  0.2555 -0.3229  0.5428
   84SLPC  H15B 7914   6.723   5.898   2.132  0.5031  2.7742  0.4795
   84SLPC  H15C 7915   6.600   5.891   2.011 -0.7232 -1.5891  0.7480
   84SLPC   C12 7916   6.599   5.726   2.308  0.4179 -0.2666  0.1934
   84SLPC  H12A 7917   6.701   5.761   2.321 -0.0631  0.8298  1.2167
   84SLPC  H12B 7918   6.586   5.622   2.331  1.8855 -0.0578  2.3093
   84SLPC   C11 7919   6.521   5.809   2.420  0.1043 -0.6166 -0.3777
   84SLPC  H11A 7920   6.588   5.812   2.509  2.7751 -2.4661 -2.1728
   84SLPC  H11B 7921   6.420   5.767   2.438 -0.2421  0.8839  1.4965
   84SLPC     P 7922   6.400   6.039   2.410 -0.2727 -0.2931  0.0559
   84SLPC   O13 7923   6.454   6.166   2.451  0.2630 -0.7851  1.1127
   84SLPC   O14 7924   6.310   6.046   2.295 -0.0532 -0.4021 -0.1505
   84SLPC   O12 7925   6.515   5.942   2.377 -0.5058  0.4192  0.0207
   84SLPC   O11 7926   6.320   5.966   2.524 -0.3482 -0.3407  0.7699
   84SLPC    C1 7927   6.332   6.000   2.665  0.3168  0.7082  0.2695
   84SLPC    HA 7928   6.416   6.068   2.692  0.9691  0.2487 -0.5463
   84SLPC    HB 7929   6.238   6.056   2.687  0.8015  2.1371 -1.0421
   84SLPC    C2 7930   6.338   5.875   2.752  0.5394  0.0195  0.0463
   84SLPC    HS 7931   6.437   5.835   2.724 -0.6334 -1.4145 -2.4085
   84SLPC   O21 7932   6.232   5.790   2.713  0.9701  0.1657 -0.1745
   84SLPC   C21 7933   6.243   5.664   2.745  0.0020  0.3669  0.0933
   84SLPC   O22 7934   6.336   5.613   2.811  0.1236 -0.6179  0.1386
   84SLPC   C22 7935   6.113   5.599   2.712  0.0780 -1.0149  0.5248
   84SLPC   H2R 7936   6.034   5.652   2.769  1.3766  1.4448  0.1659
   84SLPC   H2S 7937   6.099   5.613   2.603  2.7971 -1.0276  0.1123
   84SLPC    C3 7938   6.310   5.912   2.902 -0.0598  0.3852  0.6617
   84SLPC    HX 7939   6.310   5.826   2.973 -2.1521  2.6440  3.6511
   84SLPC    HY 7940   6.206   5.949   2.909 -0.5522 -0.7800 -0.2259
   84SLPC   O31 7941   6.394   6.018   2.946 -0.2919  0.5079 -0.0812
   84SLPC   C31 7942   6.529   5.995   2.944 -0.5439  0.2089  0.3743
   84SLPC   O32 7943   6.581   5.885   2.940 -0.0912  0.5760 -0.4894
   84SLPC   C32 7944   6.597   6.133   2.970  0.1586 -0.3479  0.1825
   84SLPC   H2X 7945   6.535   6.181   3.049 -0.7595  0.6471 -1.0936
   84SLPC   H2Y 7946   6.579   6.185   2.873 -0.6152  2.8475  1.9181
   84SLPC   C23 7947   6.101   5.451   2.737 -0.8150  0.5765  0.1800
   84SLPC   H3R 7948   6.169   5.383   2.681 -1.0882  0.4246  0.0321
   84SLPC   H3S 7949   6.001   5.417   2.703 -1.4023  0.8634  1.5345
   84SLPC   C24 7950   6.112   5.425   2.895 -0.3780  0.0393 -0.3593
   84SLPC   H4R 7951   6.030   5.486   2.939 -1.0878  0.6883 -2.4540
   84SLPC   H4S 7952   6.210   5.461   2.933 -1.0486  0.7791  0.7338
   84SLPC   C25 7953   6.085   5.281   2.925 -0.3605 -0.6476 -0.9300
   84SLPC   H5R 7954   6.174   5.219   2.902  1.6972  1.5256  0.6665
   84SLPC   H5S 7955   5.998   5.249   2.863 -0.3459  1.3765 -2.0830
   84SLPC   C26 7956   6.047   5.254   3.074 -0.0504 -0.1682 -0.0603
   84SLPC   H6R 7957   6.125   5.302   3.137 -0.4359 -0.0585  0.3401
   84SLPC   H6S 7958   6.052   5.145   3.092  1.1653 -0.0716  0.2799
   84SLPC   C27 7959   5.911   5.300   3.115 -0.6041  0.0640 -0.6054
   84SLPC   H7R 7960   5.843   5.246   3.046 -0.6159 -1.3404  0.4686
   84SLPC   H7S 7961   5.906   5.409   3.091  2.2768  0.6698  1.0861
   84SLPC   C28 7962   5.876   5.265   3.262 -0.3799  0.7973 -0.0432
   84SLPC   H8R 7963   5.874   5.155   3.248  0.5249  0.5808  1.3064
   84SLPC   H8S 7964   5.777   5.288   3.306 -0.5085 -1.4837  0.9925
   84SLPC   C29 7965   5.981   5.315   3.357 -0.2850 -0.4346 -0.5146
   84SLPC   H9R 7966   5.984   5.424   3.375  0.6908 -0.8674  2.4068
   84SLPC  C210 7967   6.078   5.242   3.417  0.1527 -0.3043 -0.0880
   84SLPC  H10R 7968   6.137   5.290   3.497 -0.8806  0.1143  0.4387
   84SLPC  C211 7969   6.112   5.094   3.418 -0.2956 -0.1164 -0.1093
   84SLPC  H11R 7970   6.086   5.052   3.318  0.9300 -1.5455  0.1392
   84SLPC  H11S 7971   6.051   5.036   3.490  0.8130 -0.9600  0.1829
   84SLPC  C212 7972   6.258   5.072   3.434 -0.0320  0.4577 -0.2593
   84SLPC  H12R 7973   6.312   5.084   3.338  0.6474  0.3871  0.1104
   84SLPC  C213 7974   6.330   5.061   3.543  0.1936 -0.2151  0.4820
   84SLPC  H13R 7975   6.439   5.047   3.542 -0.1218 -3.5197  0.1901
   84SLPC  C214 7976   6.258   5.053   3.675 -0.0256 -0.2080 -0.1566
   84SLPC  H14R 7977   6.270   4.956   3.727 -2.7657 -1.0031 -0.8381
   84SLPC  H14S 7978   6.154   5.092   3.675 -0.4202 -1.2442  0.2019
   84SLPC  C215 7979   6.319   5.163   3.771  0.7516  0.1797 -0.1796
   84SLPC  H15R 7980   6.241   5.197   3.843 -0.5163  0.8671 -1.7920
   84SLPC  H15S 7981   6.344   5.255   3.715  3.3835  2.0826  3.7060
   84SLPC  C216 7982   6.443   5.114   3.850 -0.2862  0.0602 -0.0276
   84SLPC  H16R 7983   6.532   5.097   3.785  0.0939 -0.3299  0.5816
   84SLPC  H16S 7984   6.406   5.020   3.897 -0.7821 -0.2055 -0.9224
   84SLPC  C217 7985   6.484   5.223   3.954  0.5499  0.8301  0.0906
   84SLPC  H17R 7986   6.490   5.316   3.894  0.4073 -0.0582 -1.3503
   84SLPC  H17S 7987   6.587   5.196   3.984  0.6220  0.8740 -0.1150
   84SLPC  C218 7988   6.416   5.238   4.093  0.2338  0.6531 -0.2329
   84SLPC  H18R 7989   6.422   5.145   4.153 -3.2263  0.6332  0.2742
   84SLPC  H18S 7990   6.307   5.247   4.074  0.1410 -0.2820 -0.1656
   84SLPC  H18T 7991   6.460   5.321   4.152 -0.8073  0.7674  0.4203
   84SLPC   C33 7992   6.746   6.116   3.004  0.2165  0.4517  0.2520
   84SLPC   H3X 7993   6.785   6.220   3.005  1.1090  0.1550 -1.1146
   84SLPC   H3Y 7994   6.806   6.067   2.924  1.0800 -0.1583  1.2368
   84SLPC   C34 7995   6.780   6.032   3.133  0.3158  0.3233 -0.5306
   84SLPC   H4X 7996   6.890   6.033   3.145  0.3747 -1.7884 -0.5103
   84SLPC   H4Y 7997   6.737   5.930   3.122  3.0838 -0.9376 -0.5226
   84SLPC   C35 7998   6.708   6.090   3.260 -0.1215  0.2219 -0.0200
   84SLPC   H5X 7999   6.600   6.108   3.246 -0.3366 -1.7441 -1.0918
   84SLPC   H5Y 8000   6.753   6.191   3.272 -0.3520  0.3775 -0.4390
   84SLPC   C36 8001   6.740   5.998   3.378  0.0298  0.3204  0.1706
   84SLPC   H6X 8002   6.844   5.964   3.359 -0.8050 -2.6470  0.3572
   84SLPC   H6Y 8003   6.687   5.900   3.382  0.4291  0.1149  0.6507
   84SLPC   C37 8004   6.715   6.082   3.506 -0.3448 -0.0678 -0.3659
   84SLPC   H7X 8005   6.611   6.121   3.505 -0.6719 -0.9137 -0.5575
   84SLPC   H7Y 8006   6.792   6.160   3.525 -2.7327  1.9947  1.4360
   84SLPC   C38 8007   6.733   5.974   3.617 -0.7369  0.0111 -0.2984
   84SLPC   H8X 8008   6.838   5.937   3.612 -0.5354  0.5841 -0.4736
   84SLPC   H8Y 8009   6.666   5.888   3.598 -0.3909 -0.1963 -0.6049
   84SLPC   C39 8010   6.713   6.023   3.759  0.5899  0.0070  0.2044
   84SLPC   H9X 8011   6.606   6.049   3.773  1.2496  2.0461  2.1127
   84SLPC   H9Y 8012   6.770   6.118   3.770 -2.8359  2.0768  1.5736
   84SLPC  C310 8013   6.758   5.929   3.868  0.3934  0.9858 -0.7081
   84SLPC  H10X 8014   6.842   5.872   3.823 -0.3907  1.1972 -2.5703
   84SLPC  H10Y 8015   6.676   5.865   3.906  1.1638  1.8344  2.6436
   84SLPC  C311 8016   6.803   6.003   3.995 -0.3597  0.5741  0.4178
   84SLPC  H11X 8017   6.720   6.076   4.013 -2.5328 -1.5321 -0.4468
   84SLPC  H11Y 8018   6.883   6.073   3.963 -1.6716  2.2864  0.6898
   84SLPC  C312 8019   6.841   5.921   4.111 -0.2501  0.0873  0.3981
   84SLPC  H12X 8020   6.924   5.855   4.076 -0.8368 -0.7352  0.5353
   84SLPC  H12Y 8021   6.762   5.851   4.146 -0.6843  0.3723 -0.0004
   84SLPC  C313 8022   6.889   5.995   4.229  0.4785  0.4329 -1.0357
   84SLPC  H13X 8023   6.897   5.920   4.310  0.5241  1.0616 -0.4484
   84SLPC  H13Y 8024   6.810   6.063   4.268  0.7719 -0.6333  1.5742
   84SLPC  C314 8025   7.011   6.084   4.210 -0.0215  0.0211 -0.3793
   84SLPC  H14X 8026   6.982   6.163   4.137 -1.5765 -1.1536 -1.0948
   84SLPC  H14Y 8027   7.087   6.020   4.159  1.3430  0.5079  0.9759
   84SLPC  C315 8028   7.080   6.136   4.336  0.3228  0.5618  0.3077
   84SLPC  H15X 8029   7.002   6.186   4.397 -1.5787 -0.6132 -1.0893
   84SLPC  H15Y 8030   7.151   6.220   4.318  0.6686  0.4033  0.9137
   84SLPC  C316 8031   7.153   6.028   4.420  0.8963 -0.1648  0.1498
   84SLPC  H16X 8032   7.244   5.998   4.365 -0.1154  0.1812 -1.8105
   84SLPC  H16Y 8033   7.088   5.938   4.411  1.5931 -0.5835 -0.7831
   84SLPC  C317 8034   7.174   6.066   4.568  0.7289 -0.0226  0.5840
   84SLPC  H17X 8035   7.076   6.107   4.601 -1.3133 -4.1567  0.3080
   84SLPC  H17Y 8036   7.251   6.145   4.579 -0.6407  1.1544  2.2752
   84SLPC  C318 8037   7.202   5.948   4.665 -0.4728 -0.2669 -0.0242
   84SLPC  H18X 8038   7.128   5.866   4.674 -0.0446 -0.6197  0.2890
   84SLPC  H18Y 8039   7.212   5.986   4.769 -0.3744  0.3847 -0.2660
   84SLPC  H18Z 8040   7.297   5.899   4.637 -0.6405 -0.7649  0.2698
   85SLPC     N 8041   3.785   1.674   2.270 -0.4953 -0.1511  0.3492
   85SLPC   C13 8042   3.703   1.768   2.346 -0.1917  0.6342  0.5021
   85SLPC  H13A 8043   3.613   1.793   2.291  0.9492  4.2263  0.0043
   85SLPC  H13B 8044   3.680   1.731   2.444  1.4549  2.8586  1.8187
   85SLPC  H13C 8045   3.762   1.856   2.367 -0.4468  1.1382 -0.7573
   85SLPC   C14 8046   3.703   1.547   2.258 -0.6119  0.1958  0.3262
   85SLPC  H14A 8047   3.611   1.564   2.206 -0.7893  1.0666  0.8842
   85SLPC  H14B 8048   3.745   1.471   2.194 -3.3792  0.8259 -2.4589
   85SLPC  H14C 8049   3.690   1.507   2.358 -0.4367 -1.3368 -0.2444
   85SLPC   C15 8050   3.909   1.631   2.352 -0.3464 -0.1501  0.3717
   85SLPC  H15A 8051   3.970   1.718   2.373  0.5975 -0.5594 -0.6026
   85SLPC  H15B 8052   3.854   1.604   2.441  0.4114 -0.6319  0.7002
   85SLPC  H15C 8053   3.981   1.564   2.307  0.0268  0.6207 -0.1970
   85SLPC   C12 8054   3.818   1.726   2.132  0.0225  0.0983  0.0457
   85SLPC  H12A 8055   3.725   1.732   2.077 -0.1508 -2.6241 -0.0795
   85SLPC  H12B 8056   3.874   1.645   2.090 -1.3577 -0.5850 -0.5475
   85SLPC   C11 8057   3.894   1.855   2.112 -0.8174  0.1851 -0.1506
   85SLPC  H11A 8058   3.842   1.939   2.162 -1.1276 -1.2111  2.0087
   85SLPC  H11B 8059   3.904   1.882   2.005 -1.5485  0.7828 -0.0687
   85SLPC     P 8060   4.116   1.912   2.258 -0.2978  0.0380 -0.1525
   85SLPC   O13 8061   4.189   1.815   2.345 -0.1820  0.6972  0.6905
   85SLPC   O14 8062   4.192   2.005   2.172 -0.3075 -0.3918  0.0431
   85SLPC   O12 8063   4.027   1.829   2.161  0.2605 -0.0037  0.2962
   85SLPC   O11 8064   4.015   1.991   2.350  0.4342  0.4108 -0.2363
   85SLPC    C1 8065   4.055   2.119   2.383 -0.4916 -0.5358  0.5881
   85SLPC    HA 8066   4.133   2.114   2.462  0.4819 -1.0202 -0.3761
   85SLPC    HB 8067   4.097   2.181   2.301  0.2069  0.4976  1.6861
   85SLPC    C2 8068   3.937   2.190   2.443  0.3460 -0.2461  0.6842
   85SLPC    HS 8069   3.970   2.291   2.477  0.9790  0.2523 -1.2604
   85SLPC   O21 8070   3.880   2.109   2.544  0.2343 -0.1549  0.0627
   85SLPC   C21 8071   3.960   2.071   2.646  0.5271 -0.0523 -0.6650
   85SLPC   O22 8072   4.061   2.130   2.682  0.0050 -0.2815 -0.1192
   85SLPC   C22 8073   3.905   1.958   2.724  1.0615  0.2445  0.1304
   85SLPC   H2R 8074   3.794   1.948   2.721  0.5470  3.0521  3.5557
   85SLPC   H2S 8075   3.959   1.867   2.690  0.4708  0.0903 -0.4222
   85SLPC    C3 8076   3.829   2.225   2.334  0.3561  0.0089 -0.6715
   85SLPC    HX 8077   3.819   2.139   2.265  1.4673  1.8277 -3.2848
   85SLPC    HY 8078   3.875   2.312   2.281 -0.2253 -0.0652 -1.3034
   85SLPC   O31 8079   3.708   2.273   2.401 -0.2139  0.1359  0.1740
   85SLPC   C31 8080   3.614   2.176   2.422 -0.7217 -0.6085  0.4350
   85SLPC   O32 8081   3.620   2.062   2.381  0.6950 -0.6602 -0.0791
   85SLPC   C32 8082   3.493   2.242   2.484  0.1956 -0.6936 -0.4324
   85SLPC   H2X 8083   3.400   2.189   2.453  0.3622 -0.6007 -1.0860
   85SLPC   H2Y 8084   3.481   2.345   2.445  0.8029 -0.7357 -0.7312
   85SLPC   C23 8085   3.934   1.969   2.875 -0.2487 -0.1127 -0.3177
   85SLPC   H3R 8086   4.040   1.991   2.899  0.6547 -2.2929 -1.9073
   85SLPC   H3S 8087   3.916   1.869   2.920  1.2356 -1.5205 -2.6106
   85SLPC   C24 8088   3.841   2.074   2.944 -0.1431 -0.3496 -0.2230
   85SLPC   H4R 8089   3.734   2.046   2.936 -0.3631  0.6062 -0.7374
   85SLPC   H4S 8090   3.870   2.164   2.887 -0.5931 -0.6248 -0.8919
   85SLPC   C25 8091   3.881   2.094   3.090 -0.2738  0.4027  0.3269
   85SLPC   H5R 8092   3.979   2.046   3.109 -0.6007 -1.0471 -1.3852
   85SLPC   H5S 8093   3.889   2.202   3.118 -0.9288  0.8337 -1.0469
   85SLPC   C26 8094   3.774   2.027   3.183  0.2918 -0.2252  0.0851
   85SLPC   H6R 8095   3.675   2.063   3.150  1.1235 -0.0175 -2.3826
   85SLPC   H6S 8096   3.797   2.058   3.287  2.5217 -0.0472 -0.4028
   85SLPC   C27 8097   3.786   1.879   3.180  0.9483  0.8719 -0.1371
   85SLPC   H7R 8098   3.893   1.849   3.180  0.8101  0.3592  0.3269
   85SLPC   H7S 8099   3.729   1.841   3.093  0.3352 -0.4223  0.8001
   85SLPC   C28 8100   3.718   1.815   3.302  0.2978 -0.0991  0.5816
   85SLPC   H8R 8101   3.707   1.705   3.291 -1.3418 -0.0109  1.0289
   85SLPC   H8S 8102   3.612   1.843   3.318  0.0485 -0.3367 -0.5390
   85SLPC   C29 8103   3.803   1.832   3.423  0.2251 -0.3798  0.0889
   85SLPC   H9R 8104   3.900   1.782   3.417 -1.4982 -3.8995 -1.7774
   85SLPC  C210 8105   3.777   1.905   3.538 -0.5801 -0.0884  0.0026
   85SLPC  H10R 8106   3.849   1.907   3.622  0.4366 -2.1533 -0.7504
   85SLPC  C211 8107   3.645   1.976   3.563 -0.2714 -0.1242 -0.2816
   85SLPC  H11R 8108   3.562   1.909   3.596 -0.2231  1.1022  2.6099
   85SLPC  H11S 8109   3.602   2.006   3.465 -3.1262  0.3613  1.0242
   85SLPC  C212 8110   3.655   2.092   3.657 -0.8555 -0.4259 -0.2942
   85SLPC  H12R 8111   3.662   2.195   3.618 -0.7647  0.4109  1.7987
   85SLPC  C213 8112   3.683   2.078   3.789 -0.2266  0.0762 -0.0321
   85SLPC  H13R 8113   3.706   2.162   3.856  1.8159  0.9578 -1.6962
   85SLPC  C214 8114   3.695   1.943   3.850  0.3731  0.7922  0.0840
   85SLPC  H14R 8115   3.800   1.908   3.857  0.9337  2.2215 -0.5927
   85SLPC  H14S 8116   3.647   1.858   3.797  2.0718 -0.7036  0.8511
   85SLPC  C215 8117   3.629   1.949   3.989 -0.8963 -0.0238  0.5798
   85SLPC  H15R 8118   3.691   1.998   4.068 -0.2569 -0.1299  0.1478
   85SLPC  H15S 8119   3.623   1.845   4.027 -1.7497 -0.3884 -0.4981
   85SLPC  C216 8120   3.489   2.009   3.985 -0.8446  0.7455  0.2549
   85SLPC  H16R 8121   3.437   1.973   3.894 -2.2934  1.2548  0.8540
   85SLPC  H16S 8122   3.506   2.119   3.977  3.0071  0.2682  0.0630
   85SLPC  C217 8123   3.404   1.978   4.110 -0.3321 -1.3101  0.2753
   85SLPC  H17R 8124   3.454   1.991   4.209  4.1379 -3.5003 -1.4461
   85SLPC  H17S 8125   3.400   1.868   4.097  0.7836 -1.3583  0.2429
   85SLPC  C218 8126   3.269   2.040   4.101 -0.6211 -0.3663  0.1574
   85SLPC  H18R 8127   3.208   1.992   4.181  0.2354 -1.2095  0.3209
   85SLPC  H18S 8128   3.220   2.021   4.004 -1.0236  2.3019 -0.2321
   85SLPC  H18T 8129   3.279   2.148   4.128  0.7428 -0.5046  0.2862
   85SLPC   C33 8130   3.492   2.229   2.637 -0.2687 -0.3213 -0.7147
   85SLPC   H3X 8131   3.513   2.126   2.675 -0.4206  0.3972  1.4704
   85SLPC   H3Y 8132   3.388   2.258   2.666 -0.1631  0.4379 -1.0708
   85SLPC   C34 8133   3.585   2.330   2.718 -0.1736  0.0252 -0.7300
   85SLPC   H4X 8134   3.590   2.428   2.666  1.2794  0.8292  0.8247
   85SLPC   H4Y 8135   3.689   2.296   2.737 -1.0012 -1.2394  2.0944
   85SLPC   C35 8136   3.528   2.356   2.860  0.2727  0.4202 -0.5032
   85SLPC   H5X 8137   3.493   2.256   2.893 -2.1364  1.0111 -1.0922
   85SLPC   H5Y 8138   3.441   2.425   2.852  0.4190  0.7667  0.7661
   85SLPC   C36 8139   3.630   2.421   2.964  0.4997  0.0777 -0.1817
   85SLPC   H6X 8140   3.677   2.511   2.920 -0.1793  1.0420  1.0153
   85SLPC   H6Y 8141   3.706   2.347   2.996  0.5155  0.0811 -0.2115
   85SLPC   C37 8142   3.549   2.481   3.087 -0.8510 -0.4783  0.2461
   85SLPC   H7X 8143   3.507   2.576   3.050 -0.2244 -0.9765 -1.9075
   85SLPC   H7Y 8144   3.623   2.507   3.165 -1.1370  2.9483 -0.4806
   85SLPC   C38 8145   3.451   2.384   3.150 -0.6171  0.4337  0.7053
   85SLPC   H8X 8146   3.502   2.287   3.169 -1.3466  0.0766  0.8479
   85SLPC   H8Y 8147   3.359   2.376   3.088 -2.8411  0.2074  3.8213
   85SLPC   C39 8148   3.391   2.435   3.277 -0.4634 -0.6591  0.9569
   85SLPC   H9X 8149   3.309   2.373   3.318 -1.1751  0.5749  1.4830
   85SLPC   H9Y 8150   3.347   2.537   3.264  3.6899  1.3395  0.8628
   85SLPC  C310 8151   3.496   2.440   3.391 -0.1554 -0.0616 -0.1163
   85SLPC  H10X 8152   3.581   2.505   3.362 -0.8428  1.1865  0.5577
   85SLPC  H10Y 8153   3.538   2.338   3.403 -1.3466 -0.3670  1.8545
   85SLPC  C311 8154   3.429   2.494   3.520  0.1289  0.1608 -0.3269
   85SLPC  H11X 8155   3.373   2.587   3.499  0.1617  0.4217  0.6617
   85SLPC  H11Y 8156   3.508   2.516   3.596 -0.1987 -1.4643  0.5372
   85SLPC  C312 8157   3.329   2.405   3.595 -0.1067  0.5383 -0.0925
   85SLPC  H12X 8158   3.317   2.316   3.530  0.9660  1.7774 -2.0911
   85SLPC  H12Y 8159   3.228   2.451   3.600 -1.2617 -1.1681 -3.7019
   85SLPC  C313 8160   3.372   2.360   3.736  0.0187 -0.8836  0.4352
   85SLPC  H13X 8161   3.468   2.304   3.728 -1.0679 -2.7273 -0.2276
   85SLPC  H13Y 8162   3.295   2.289   3.772 -1.4021  0.2117 -0.3667
   85SLPC  C314 8163   3.391   2.477   3.839  0.2523 -1.4061 -0.0751
   85SLPC  H14X 8164   3.352   2.563   3.779  0.8707 -0.7154  0.4915
   85SLPC  H14Y 8165   3.500   2.488   3.857 -0.1091 -0.4364  1.7643
   85SLPC  C315 8166   3.317   2.461   3.968  0.1707 -0.0785  0.7434
   85SLPC  H15X 8167   3.337   2.545   4.039  0.2174  0.8077 -0.2941
   85SLPC  H15Y 8168   3.345   2.370   4.024 -3.1165 -0.9935  1.1179
   85SLPC  C316 8169   3.162   2.469   3.946 -0.5356  0.3793  0.9625
   85SLPC  H16X 8170   3.125   2.403   3.865 -2.0733  0.6163  1.4548
   85SLPC  H16Y 8171   3.133   2.569   3.906  0.8978 -0.2799 -2.0850
   85SLPC  C317 8172   3.086   2.428   4.070 -0.4618  0.5079  0.0377
   85SLPC  H17X 8173   3.117   2.323   4.090  0.7504  0.8361 -0.0263
   85SLPC  H17Y 8174   2.979   2.429   4.039 -0.1089 -1.2661 -1.3895
   85SLPC  C318 8175   3.109   2.510   4.195 -0.0881  0.1217 -0.3219
   85SLPC  H18X 8176   3.103   2.619   4.174  2.5935  0.2662 -0.6419
   85SLPC  H18Y 8177   3.203   2.489   4.250  0.0304  0.1180 -0.5251
   85SLPC  H18Z 8178   3.032   2.482   4.270 -1.4063 -0.6784 -1.9174
   86SLPC     N 8179   4.274   1.643   1.961  0.2111 -0.1607  0.7264
   86SLPC   C13 8180   4.343   1.625   2.098 -0.2504  0.2293 -0.5958
   86SLPC  H13A 8181   4.449   1.641   2.088  0.1778 -0.5597  1.9342
   86SLPC  H13B 8182   4.291   1.677   2.178 -2.0032  0.5743 -1.8828
   86SLPC  H13C 8183   4.339   1.519   2.116 -1.9719  0.2496 -0.6761
   86SLPC   C14 8184   4.294   1.791   1.927 -0.0106  0.7816 -0.4211
   86SLPC  H14A 8185   4.224   1.842   1.991  0.0957 -0.3916  0.6707
   86SLPC  H14B 8186   4.394   1.828   1.942 -0.6671  2.7885 -0.6946
   86SLPC  H14C 8187   4.262   1.797   1.824 -0.1018 -0.3798 -0.4763
   86SLPC   C15 8188   4.127   1.628   1.988  0.2122 -0.2230  0.0540
   86SLPC  H15A 8189   4.072   1.649   1.898 -0.1705  3.5849  0.9814
   86SLPC  H15B 8190   4.091   1.538   2.034  0.6651 -0.3569  0.1532
   86SLPC  H15C 8191   4.093   1.707   2.054  0.8370 -1.8225  2.4448
   86SLPC   C12 8192   4.332   1.553   1.849 -0.2253 -0.5295  0.2920
   86SLPC  H12A 8193   4.436   1.577   1.835  0.0509 -1.5825  0.4326
   86SLPC  H12B 8194   4.289   1.569   1.752  0.5865  2.2349  0.3023
   86SLPC   C11 8195   4.330   1.394   1.874  0.4657  0.4197  0.1410
   86SLPC  H11A 8196   4.322   1.347   1.773  0.4509  0.4479  0.1293
   86SLPC  H11B 8197   4.237   1.366   1.928  2.0137 -2.0302  1.7680
   86SLPC     P 8198   4.443   1.261   2.069 -0.2406 -0.1872  0.0724
   86SLPC   O13 8199   4.332   1.167   2.061  0.2981  0.1405 -0.0474
   86SLPC   O14 8200   4.575   1.200   2.078 -0.6521 -0.1974  0.5301
   86SLPC   O12 8201   4.452   1.349   1.938 -0.1705  0.7451  0.1933
   86SLPC   O11 8202   4.415   1.354   2.191 -0.0942  0.2438 -0.3728
   86SLPC    C1 8203   4.518   1.429   2.270  0.5480 -0.5362  0.1628
   86SLPC    HA 8204   4.583   1.479   2.196 -0.2668 -0.0043 -0.2106
   86SLPC    HB 8205   4.488   1.517   2.331  1.5023 -0.4782  0.5500
   86SLPC    C2 8206   4.597   1.336   2.361 -1.0875 -0.4201 -0.0783
   86SLPC    HS 8207   4.618   1.237   2.314 -0.8930  0.7620 -2.6329
   86SLPC   O21 8208   4.533   1.323   2.490  0.4361  0.2378 -0.1703
   86SLPC   C21 8209   4.548   1.209   2.553 -0.3797 -0.0437  0.4700
   86SLPC   O22 8210   4.614   1.110   2.517  0.9304 -0.0727  0.5811
   86SLPC   C22 8211   4.462   1.207   2.682  0.3601 -0.9768  0.4247
   86SLPC   H2R 8212   4.514   1.260   2.765 -0.5547 -0.6613  0.8045
   86SLPC   H2S 8213   4.374   1.268   2.651  0.0408 -2.0412 -0.8732
   86SLPC    C3 8214   4.733   1.405   2.394  0.9898  0.0442 -0.1167
   86SLPC    HX 8215   4.700   1.502   2.438  1.4452 -0.6601  1.8949
   86SLPC    HY 8216   4.794   1.417   2.302  0.4705  1.8988 -0.2533
   86SLPC   O31 8217   4.814   1.322   2.478  0.3408 -0.1330  0.0816
   86SLPC   C31 8218   4.924   1.370   2.520  0.2882  0.0717 -0.0945
   86SLPC   O32 8219   4.977   1.473   2.473  0.2803 -0.2212  0.3542
   86SLPC   C32 8220   4.988   1.277   2.620  0.1379  0.5857  0.0077
   86SLPC   H2X 8221   5.007   1.183   2.565  0.7684 -0.0723  1.3120
   86SLPC   H2Y 8222   4.920   1.247   2.702 -0.5308 -0.4109 -0.8737
   86SLPC   C23 8223   4.429   1.067   2.729 -0.2984 -0.6013 -0.2674
   86SLPC   H3R 8224   4.523   1.024   2.769  0.7972  0.9438 -1.0769
   86SLPC   H3S 8225   4.405   0.995   2.649 -2.4614 -0.7557  0.4584
   86SLPC   C24 8226   4.323   1.077   2.838 -0.1170  0.6542  0.0005
   86SLPC   H4R 8227   4.241   1.129   2.784 -0.2224  1.8461  1.2497
   86SLPC   H4S 8228   4.362   1.148   2.913  2.5433  0.5602 -1.1979
   86SLPC   C25 8229   4.264   0.939   2.897 -0.2696  0.1113 -0.3600
   86SLPC   H5R 8230   4.354   0.875   2.911 -2.0177 -2.0765  1.5997
   86SLPC   H5S 8231   4.199   0.880   2.829 -1.7627 -2.0933  2.7367
   86SLPC   C26 8232   4.177   0.959   3.021 -0.1877  0.6045 -0.0615
   86SLPC   H6R 8233   4.155   0.859   3.063  0.3053  0.3129 -0.4823
   86SLPC   H6S 8234   4.090   1.022   2.994 -0.0172  0.6369 -0.5420
   86SLPC   C27 8235   4.242   1.039   3.143  0.6693  0.0275  0.1318
   86SLPC   H7R 8236   4.165   1.035   3.223  1.1286 -1.2096  0.5293
   86SLPC   H7S 8237   4.261   1.146   3.116 -0.8893  0.7243  1.6009
   86SLPC   C28 8238   4.364   0.973   3.198 -0.3821  0.5005  0.3052
   86SLPC   H8R 8239   4.443   0.961   3.122 -1.1768 -0.7821 -0.3453
   86SLPC   H8S 8240   4.339   0.866   3.211  0.1740 -0.2617 -3.6068
   86SLPC   C29 8241   4.417   1.047   3.315  0.9335  0.4427  0.0927
   86SLPC   H9R 8242   4.451   1.148   3.289  2.2623  0.3292  1.2233
   86SLPC  C210 8243   4.430   1.002   3.437 -0.2560  0.5070 -0.0616
   86SLPC  H10R 8244   4.468   1.055   3.526  0.9196  1.0425 -0.8606
   86SLPC  C211 8245   4.386   0.858   3.480 -0.0202  0.0229  0.0373
   86SLPC  H11R 8246   4.459   0.819   3.554  1.8160  2.0875 -0.5601
   86SLPC  H11S 8247   4.401   0.779   3.403  0.2952  0.5064 -0.4057
   86SLPC  C212 8248   4.239   0.837   3.531 -0.3010  0.3446 -0.1002
   86SLPC  H12R 8249   4.156   0.864   3.464 -2.1016  1.6036  2.4344
   86SLPC  C213 8250   4.203   0.791   3.654  0.4437 -0.0349  0.5649
   86SLPC  H13R 8251   4.098   0.777   3.684  0.6740 -2.3831  0.4920
   86SLPC  C214 8252   4.297   0.742   3.766 -0.4022 -0.1731  0.2785
   86SLPC  H14R 8253   4.402   0.725   3.734 -0.1401  1.1386  0.3691
   86SLPC  H14S 8254   4.278   0.642   3.811  2.1236 -0.3780  1.0897
   86SLPC  C215 8255   4.276   0.849   3.883 -0.2362  0.1713  0.4506
   86SLPC  H15R 8256   4.303   0.814   3.985  0.7950 -0.2079  0.0555
   86SLPC  H15S 8257   4.165   0.855   3.897 -0.1674 -2.5473  3.1899
   86SLPC  C216 8258   4.335   0.992   3.861  0.4759 -0.6187  0.9928
   86SLPC  H16R 8259   4.284   1.054   3.937 -2.0113 -1.1867 -0.0861
   86SLPC  H16S 8260   4.309   1.020   3.756  0.9462 -0.8802  0.8056
   86SLPC  C217 8261   4.485   0.990   3.871 -0.4073  0.6000 -0.1154
   86SLPC  H17R 8262   4.532   0.922   3.797 -1.5808  1.2346 -1.4711
   86SLPC  H17S 8263   4.515   0.954   3.972  0.8672 -1.9342 -1.2857
   86SLPC  C218 8264   4.554   1.132   3.844  0.7339  0.4861 -0.7003
   86SLPC  H18R 8265   4.549   1.154   3.735 -0.3191 -0.3976 -0.8372
   86SLPC  H18S 8266   4.658   1.130   3.884  1.1208 -1.5475 -1.7012
   86SLPC  H18T 8267   4.499   1.214   3.895  1.7534 -0.2241  1.6523
   86SLPC   C33 8268   5.107   1.352   2.671 -0.0787 -0.1221  0.4595
   86SLPC   H3X 8269   5.080   1.450   2.717 -2.6175 -0.6192  0.1755
   86SLPC   H3Y 8270   5.171   1.378   2.583 -1.3866  1.4121 -0.0967
   86SLPC   C34 8271   5.186   1.276   2.783  0.0534 -0.2297  0.4896
   86SLPC   H4X 8272   5.292   1.299   2.757 -1.0560  0.9976 -3.8309
   86SLPC   H4Y 8273   5.165   1.169   2.759  0.1003 -0.3827  1.1328
   86SLPC   C35 8274   5.125   1.286   2.920  0.9157  0.1696 -0.3301
   86SLPC   H5X 8275   5.015   1.270   2.919  0.9126  0.1499  0.0705
   86SLPC   H5Y 8276   5.142   1.390   2.954 -1.6397  0.8229 -0.8128
   86SLPC   C36 8277   5.195   1.187   3.015  0.0350  0.9736 -0.2043
   86SLPC   H6X 8278   5.303   1.192   2.989  0.3620 -0.7136  0.6970
   86SLPC   H6Y 8279   5.151   1.085   3.014 -0.0224  0.9769  0.9218
   86SLPC   C37 8280   5.195   1.233   3.167  0.0489 -0.6169 -0.6204
   86SLPC   H7X 8281   5.093   1.218   3.208  1.2770 -1.3376  2.4008
   86SLPC   H7Y 8282   5.235   1.335   3.189 -0.7926 -0.2274 -0.8693
   86SLPC   C38 8283   5.288   1.135   3.246  0.3089  0.1712  0.3573
   86SLPC   H8X 8284   5.391   1.148   3.207  0.6545  1.2854  1.5422
   86SLPC   H8Y 8285   5.252   1.034   3.218 -2.2851  1.1393 -0.0727
   86SLPC   C39 8286   5.276   1.155   3.399 -0.9843  0.2357  0.0573
   86SLPC   H9X 8287   5.174   1.161   3.440 -2.7222 -0.1244 -3.7335
   86SLPC   H9Y 8288   5.313   1.256   3.427 -0.2892 -0.1563  0.5969
   86SLPC  C310 8289   5.361   1.060   3.481 -0.2847 -0.0172  0.1911
   86SLPC  H10X 8290   5.468   1.075   3.456 -0.3714  2.6763  1.1621
   86SLPC  H10Y 8291   5.346   0.953   3.456  2.4757 -1.4903  3.9459
   86SLPC  C311 8292   5.350   1.077   3.633  0.3169  0.7586  0.8806
   86SLPC  H11X 8293   5.247   1.045   3.659  0.0813 -0.9419 -1.7292
   86SLPC  H11Y 8294   5.357   1.180   3.673  0.4350  1.6138 -1.2309
   86SLPC  C312 8295   5.460   0.994   3.705  0.0349  0.1514 -0.3867
   86SLPC  H12X 8296   5.559   1.024   3.666 -0.7474  1.3405 -1.5808
   86SLPC  H12Y 8297   5.447   0.884   3.697  0.0564  0.1001  0.2759
   86SLPC  C313 8298   5.454   1.015   3.856  0.2310 -0.1176  0.1815
   86SLPC  H13X 8299   5.362   0.962   3.889  0.9515 -1.0208  0.8363
   86SLPC  H13Y 8300   5.433   1.122   3.876 -1.5353  0.1863 -2.7370
   86SLPC  C314 8301   5.582   0.966   3.920 -0.0391  0.0018 -0.0947
   86SLPC  H14X 8302   5.667   1.000   3.856  0.3029  0.6663  0.6952
   86SLPC  H14Y 8303   5.570   0.856   3.918 -0.4499  0.0245  0.7657
   86SLPC  C315 8304   5.598   1.020   4.057 -0.1899  0.1178 -1.2255
   86SLPC  H15X 8305   5.501   1.002   4.110  0.1130 -0.8108 -0.9626
   86SLPC  H15Y 8306   5.610   1.130   4.052 -1.4543  0.3605  0.1802
   86SLPC  C316 8307   5.711   0.967   4.143 -0.4373 -0.3823  0.0207
   86SLPC  H16X 8308   5.695   0.858   4.140  0.0824 -0.4706  0.4669
   86SLPC  H16Y 8309   5.692   1.012   4.243  2.2779 -0.1529  0.5099
   86SLPC  C317 8310   5.851   1.019   4.087  0.0779  0.3578  0.4764
   86SLPC  H17X 8311   5.835   1.129   4.098  1.2779  0.5994 -0.0781
   86SLPC  H17Y 8312   5.856   0.993   3.979 -2.3901  0.2830  0.3282
   86SLPC  C318 8313   5.970   0.978   4.163 -0.0406  0.6426  0.0324
   86SLPC  H18X 8314   6.063   1.012   4.114  1.3425 -0.6734  1.5756
   86SLPC  H18Y 8315   5.969   0.867   4.177 -3.6218  0.1829 -2.4415
   86SLPC  H18Z 8316   5.982   1.018   4.266  1.7113  0.6157 -0.1248
   87SLPC     N 8317   3.346   6.147   2.058 -0.1867  0.7261  0.0983
   87SLPC   C13 8318   3.466   6.180   2.138  0.2101 -0.7085  0.1436
   87SLPC  H13A 8319   3.479   6.115   2.223  3.1310 -2.1334 -1.2438
   87SLPC  H13B 8320   3.558   6.180   2.082 -0.1747  1.4195 -0.5777
   87SLPC  H13C 8321   3.453   6.275   2.187  2.3256  0.2230 -0.9689
   87SLPC   C14 8322   3.364   6.012   1.995 -0.0541 -0.4400 -0.3585
   87SLPC  H14A 8323   3.272   5.968   1.959 -2.1001  2.7679  0.5407
   87SLPC  H14B 8324   3.448   6.019   1.928  1.7529 -1.1635  1.6947
   87SLPC  H14C 8325   3.405   5.936   2.061 -1.2114 -1.4691 -0.7937
   87SLPC   C15 8326   3.337   6.254   1.958  0.4895  0.3041  0.3597
   87SLPC  H15A 8327   3.359   6.346   2.009  0.2413  1.2070 -1.0963
   87SLPC  H15B 8328   3.415   6.238   1.885 -0.2833  1.0213 -0.6490
   87SLPC  H15C 8329   3.246   6.274   1.903  0.6817 -2.1579 -1.0231
   87SLPC   C12 8330   3.224   6.148   2.145  0.8633 -0.2945 -0.6116
   87SLPC  H12A 8331   3.202   6.050   2.187  0.2586  0.9722  2.3074
   87SLPC  H12B 8332   3.140   6.173   2.081 -1.4289  0.6536  2.5194
   87SLPC   C11 8333   3.202   6.262   2.252 -0.0551  0.2895  0.4718
   87SLPC  H11A 8334   3.269   6.242   2.338  1.3748  3.6279  0.3045
   87SLPC  H11B 8335   3.097   6.261   2.288 -0.6179 -1.3107 -1.0442
   87SLPC     P 8336   3.116   6.493   2.169  0.0510  0.2055 -0.4881
   87SLPC   O13 8337   3.193   6.601   2.106 -0.0167  0.1973 -0.1340
   87SLPC   O14 8338   3.018   6.418   2.089  0.2322  1.0799 -0.0138
   87SLPC   O12 8339   3.232   6.392   2.203 -0.0767 -0.0401  0.9538
   87SLPC   O11 8340   3.057   6.534   2.304 -0.3851  0.3771  0.4158
   87SLPC    C1 8341   3.137   6.581   2.419 -0.1312  0.6407 -0.1673
   87SLPC    HA 8342   3.247   6.600   2.410  0.5272 -1.7261  1.9616
   87SLPC    HB 8343   3.096   6.679   2.450 -1.8835  0.1772 -0.9102
   87SLPC    C2 8344   3.122   6.494   2.543  0.7910  0.7843 -0.1975
   87SLPC    HS 8345   3.135   6.391   2.504  1.1341  1.4925 -2.0987
   87SLPC   O21 8346   2.985   6.513   2.594 -0.1343 -0.1985  0.4639
   87SLPC   C21 8347   2.924   6.404   2.639 -0.9377 -0.6711  0.4069
   87SLPC   O22 8348   2.974   6.294   2.639  0.2699  0.2183  0.1533
   87SLPC   C22 8349   2.783   6.441   2.674  0.3462 -0.1203  0.8014
   87SLPC   H2R 8350   2.796   6.541   2.721 -2.4795  0.5760  0.2720
   87SLPC   H2S 8351   2.726   6.461   2.580 -0.3819  2.6581  1.7359
   87SLPC    C3 8352   3.220   6.525   2.652 -0.4701  0.5101 -0.1729
   87SLPC    HX 8353   3.218   6.635   2.666 -0.8964  0.9135 -2.8795
   87SLPC    HY 8354   3.323   6.515   2.612  0.2987  2.5472  1.1118
   87SLPC   O31 8355   3.206   6.452   2.774  0.0555  0.1602  0.3576
   87SLPC   C31 8356   3.262   6.337   2.780  0.0099 -1.3364  1.1805
   87SLPC   O32 8357   3.341   6.295   2.693  0.1167  0.3757 -0.2915
   87SLPC   C32 8358   3.225   6.248   2.899 -0.1682  0.4650 -0.6108
   87SLPC   H2X 8359   3.162   6.163   2.865  0.7904 -0.4598 -0.1351
   87SLPC   H2Y 8360   3.159   6.300   2.972  0.1724 -1.0129  0.8096
   87SLPC   C23 8361   2.718   6.350   2.779 -0.2791 -0.2921 -0.0925
   87SLPC   H3R 8362   2.729   6.245   2.745  1.2714  0.2623 -1.4193
   87SLPC   H3S 8363   2.607   6.355   2.771 -0.1819  0.0754 -1.3896
   87SLPC   C24 8364   2.771   6.375   2.926 -0.6160  0.8333 -1.1596
   87SLPC   H4R 8365   2.881   6.392   2.919 -0.5119 -0.0893 -2.0901
   87SLPC   H4S 8366   2.773   6.282   2.987  0.1820  0.8426 -1.1514
   87SLPC   C25 8367   2.698   6.489   2.991  0.2827 -0.4738  0.3364
   87SLPC   H5R 8368   2.592   6.457   2.989 -0.0193  0.4957  0.0072
   87SLPC   H5S 8369   2.710   6.585   2.936 -0.3775  0.3927  1.6660
   87SLPC   C26 8370   2.757   6.512   3.129  0.5934  0.3312 -0.1155
   87SLPC   H6R 8371   2.852   6.564   3.106  0.1414  2.1940  1.9343
   87SLPC   H6S 8372   2.782   6.414   3.175  1.9551  0.6943 -0.0341
   87SLPC   C27 8373   2.657   6.582   3.224 -1.0771  0.3436 -0.7725
   87SLPC   H7R 8374   2.574   6.508   3.225 -0.5650 -0.2389 -0.7059
   87SLPC   H7S 8375   2.619   6.675   3.176 -2.7712 -1.4206 -3.0883
   87SLPC   C28 8376   2.712   6.598   3.367 -1.0493  0.2197  0.4090
   87SLPC   H8R 8377   2.812   6.641   3.345 -0.2207 -2.0065 -0.5682
   87SLPC   H8S 8378   2.729   6.501   3.419 -0.0000 -0.1812 -0.6237
   87SLPC   C29 8379   2.638   6.699   3.455  0.6431  0.6848 -0.1133
   87SLPC   H9R 8380   2.606   6.793   3.408 -1.0034  0.8972  1.3045
   87SLPC  C210 8381   2.624   6.700   3.593  0.7048 -0.2428  0.4343
   87SLPC  H10R 8382   2.569   6.782   3.641 -0.5906 -0.6335 -0.3247
   87SLPC  C211 8383   2.673   6.587   3.682  0.7546 -0.0290  0.2180
   87SLPC  H11R 8384   2.722   6.502   3.629  1.9012  0.4670  0.4710
   87SLPC  H11S 8385   2.582   6.535   3.720  1.6638  0.4529  3.2491
   87SLPC  C212 8386   2.760   6.624   3.803  0.0722  0.5414  0.6893
   87SLPC  H12R 8387   2.796   6.728   3.799  0.5377  0.3845  0.7823
   87SLPC  C213 8388   2.768   6.576   3.927  0.2405  0.3659  0.5491
   87SLPC  H13R 8389   2.827   6.640   3.995 -1.2338  1.5818  0.7491
   87SLPC  C214 8390   2.705   6.449   3.993 -0.2770 -0.6591  0.4060
   87SLPC  H14R 8391   2.773   6.368   4.030  0.6132  0.5511  1.4997
   87SLPC  H14S 8392   2.619   6.406   3.937 -2.5909 -1.3163  4.1179
   87SLPC  C215 8393   2.623   6.504   4.112 -0.0844  0.5545 -0.0289
   87SLPC  H15R 8394   2.579   6.411   4.154  0.0428 -0.3019 -1.6899
   87SLPC  H15S 8395   2.550   6.578   4.073  2.0125  1.9398 -1.5247
   87SLPC  C216 8396   2.709   6.553   4.225  0.2145 -0.2804  0.8862
   87SLPC  H16R 8397   2.642   6.624   4.278  0.8031  0.7245  0.3093
   87SLPC  H16S 8398   2.780   6.630   4.190 -2.8664  2.2053 -0.3638
   87SLPC  C217 8399   2.758   6.450   4.322 -0.0605 -0.6402  0.1177
   87SLPC  H17R 8400   2.797   6.354   4.282  0.3840 -0.3047 -0.2665
   87SLPC  H17S 8401   2.677   6.424   4.393  0.3540  2.7772  2.0531
   87SLPC  C218 8402   2.877   6.498   4.404 -0.0997 -0.2537 -0.4414
   87SLPC  H18R 8403   2.915   6.419   4.472  0.1918 -1.7058 -2.2031
   87SLPC  H18S 8404   2.846   6.583   4.468  0.1463  0.7381 -1.5994
   87SLPC  H18T 8405   2.966   6.531   4.346  0.6516 -0.9385  0.3014
   87SLPC   C33 8406   3.355   6.199   2.965  0.5933  0.1480  0.2701
   87SLPC   H3X 8407   3.397   6.287   3.019 -0.6982  0.2465  1.1669
   87SLPC   H3Y 8408   3.435   6.158   2.899  1.1249  2.6253 -0.7435
   87SLPC   C34 8409   3.330   6.093   3.071 -0.6912  0.1889  0.2941
   87SLPC   H4X 8410   3.316   6.004   3.006 -0.1743 -1.3861  2.2560
   87SLPC   H4Y 8411   3.236   6.117   3.124  0.4123 -0.1079  2.4825
   87SLPC   C35 8412   3.449   6.072   3.167 -0.0261 -0.1293  0.2770
   87SLPC   H5X 8413   3.483   6.170   3.207 -0.5286 -0.1874  0.8544
   87SLPC   H5Y 8414   3.536   6.041   3.104  0.3445  2.0949 -0.4164
   87SLPC   C36 8415   3.415   5.980   3.283 -0.6091 -0.0446  0.3176
   87SLPC   H6X 8416   3.413   5.872   3.257 -0.5422 -0.2291  1.0538
   87SLPC   H6Y 8417   3.317   6.010   3.327 -0.0028  2.0633  0.3475
   87SLPC   C37 8418   3.519   5.994   3.406 -0.0949  0.1783  0.0353
   87SLPC   H7X 8419   3.491   6.079   3.470  1.2661 -0.2248  1.2025
   87SLPC   H7Y 8420   3.622   6.005   3.367  0.6008  0.2594  1.8176
   87SLPC   C38 8421   3.503   5.872   3.496  0.2976 -0.2228  0.4959
   87SLPC   H8X 8422   3.552   5.779   3.458  0.4101 -0.6643  1.6919
   87SLPC   H8Y 8423   3.396   5.855   3.519  0.0013  0.3239 -0.4504
   87SLPC   C39 8424   3.571   5.905   3.633 -0.2992  0.5763 -0.3291
   87SLPC   H9X 8425   3.547   6.008   3.667 -3.3003  0.9371 -3.0094
   87SLPC   H9Y 8426   3.681   5.912   3.622  0.1350 -0.5461  2.3877
   87SLPC  C310 8427   3.538   5.784   3.728 -0.6077 -0.5416 -0.6342
   87SLPC  H10X 8428   3.577   5.697   3.671 -0.5810  0.6369 -2.5238
   87SLPC  H10Y 8429   3.429   5.775   3.747 -0.2085 -1.5170  1.4785
   87SLPC  C311 8430   3.605   5.786   3.865 -0.1868  0.2418 -0.6853
   87SLPC  H11X 8431   3.715   5.771   3.859 -0.2034  0.5057 -1.9797
   87SLPC  H11Y 8432   3.566   5.699   3.923  0.5220  0.4241  0.0794
   87SLPC  C312 8433   3.578   5.917   3.940  0.3879  0.8208 -0.1251
   87SLPC  H12X 8434   3.488   5.898   4.001  0.8719 -0.1545  0.3084
   87SLPC  H12Y 8435   3.554   6.004   3.875 -0.3213  1.2665  0.7051
   87SLPC  C313 8436   3.702   5.963   4.014  0.1664 -0.2063 -0.2336
   87SLPC  H13X 8437   3.778   5.975   3.934 -0.4639 -0.0709 -0.8258
   87SLPC  H13Y 8438   3.737   5.885   4.085  2.7039 -0.3665 -1.5397
   87SLPC  C314 8439   3.689   6.096   4.094 -0.1906  0.1057  0.0982
   87SLPC  H14X 8440   3.652   6.172   4.022  0.7223  0.2155 -0.2754
   87SLPC  H14Y 8441   3.791   6.129   4.123  0.1452 -1.3888  0.7268
   87SLPC  C315 8442   3.600   6.085   4.219 -0.1021 -0.0934 -0.3107
   87SLPC  H15X 8443   3.507   6.026   4.208  0.5378 -1.4055  0.8114
   87SLPC  H15Y 8444   3.574   6.188   4.250 -0.2182  0.1464 -1.1719
   87SLPC  C316 8445   3.677   6.035   4.343  0.1534 -0.2207 -0.0808
   87SLPC  H16X 8446   3.781   6.074   4.335  0.4733 -1.0969 -0.3240
   87SLPC  H16Y 8447   3.679   5.924   4.347 -1.6185 -0.3480 -1.6036
   87SLPC  C317 8448   3.618   6.087   4.473 -0.3818 -0.8572 -0.2903
   87SLPC  H17X 8449   3.520   6.038   4.486 -0.5833 -1.9682 -4.5072
   87SLPC  H17Y 8450   3.585   6.193   4.469  1.1353 -0.3173  0.3426
   87SLPC  C318 8451   3.712   6.065   4.592  0.5399 -0.1282 -0.1688
   87SLPC  H18X 8452   3.796   6.138   4.593 -1.0001  1.7144 -0.3177
   87SLPC  H18Y 8453   3.757   5.965   4.572  2.6989  0.8192 -0.3751
   87SLPC  H18Z 8454   3.660   6.057   4.689  2.8241  0.3329  1.1662
   88SLPC     N 8455   3.762   6.830   1.945 -0.1671  0.4994 -0.5169
   88SLPC   C13 8456   3.659   6.810   1.837  0.1999  0.2949 -0.1705
   88SLPC  H13A 8457   3.638   6.704   1.842 -1.0857  0.5601  0.4598
   88SLPC  H13B 8458   3.571   6.872   1.847  0.1287  0.0107  1.0974
   88SLPC  H13C 8459   3.715   6.840   1.750  1.6030 -3.3544 -0.6903
   88SLPC   C14 8460   3.817   6.970   1.944 -0.0923  0.0486 -0.0109
   88SLPC  H14A 8461   3.884   6.979   1.859 -0.5650 -2.6616 -0.7693
   88SLPC  H14B 8462   3.744   7.049   1.949  0.9689  1.0340  0.2199
   88SLPC  H14C 8463   3.885   6.967   2.028  2.9881  0.0285 -2.3161
   88SLPC   C15 8464   3.862   6.714   1.932 -0.0327 -0.1712 -0.8088
   88SLPC  H15A 8465   3.936   6.717   2.011 -0.7186 -1.0063 -0.1077
   88SLPC  H15B 8466   3.809   6.621   1.949  0.0083 -0.1862 -0.7598
   88SLPC  H15C 8467   3.919   6.710   1.841  1.2767  0.7260 -0.0594
   88SLPC   C12 8468   3.694   6.809   2.081 -0.8272 -0.2680 -0.3505
   88SLPC  H12A 8469   3.665   6.707   2.101 -0.2116  0.0000  2.4168
   88SLPC  H12B 8470   3.605   6.869   2.090 -1.2317 -0.6374 -1.6794
   88SLPC   C11 8471   3.789   6.845   2.198  0.7621 -0.0579 -0.1877
   88SLPC  H11A 8472   3.714   6.851   2.279 -0.9176  2.4645 -1.7734
   88SLPC  H11B 8473   3.833   6.947   2.206  0.6423 -0.1069  1.2329
   88SLPC     P 8474   3.866   6.607   2.306 -0.1856  0.2942 -0.0219
   88SLPC   O13 8475   3.790   6.511   2.223 -0.9552 -0.1970 -0.3455
   88SLPC   O14 8476   3.999   6.565   2.360 -0.3174 -0.2052 -0.3950
   88SLPC   O12 8477   3.890   6.742   2.228 -0.1285  0.4397 -0.4677
   88SLPC   O11 8478   3.783   6.660   2.432 -0.1237  0.0729  0.1330
   88SLPC    C1 8479   3.822   6.747   2.527  0.2183 -0.0766 -0.6176
   88SLPC    HA 8480   3.885   6.832   2.492 -0.7701  1.0116  0.1582
   88SLPC    HB 8481   3.730   6.794   2.567 -1.3892 -2.5013 -1.2206
   88SLPC    C2 8482   3.889   6.667   2.639  0.3431 -0.0481 -0.4349
   88SLPC    HS 8483   3.958   6.597   2.586 -1.1085 -0.8975 -1.2671
   88SLPC   O21 8484   3.789   6.597   2.719 -0.0286 -0.1231 -0.6887
   88SLPC   C21 8485   3.820   6.464   2.748 -0.0271 -0.3357 -0.2421
   88SLPC   O22 8486   3.927   6.411   2.727  0.3108 -0.3898 -0.9649
   88SLPC   C22 8487   3.695   6.391   2.800 -0.7218 -0.2631 -0.0376
   88SLPC   H2R 8488   3.622   6.473   2.819  0.2800  0.8053 -0.6594
   88SLPC   H2S 8489   3.661   6.322   2.720 -0.1016  0.9423 -1.3758
   88SLPC    C3 8490   3.976   6.762   2.733 -0.3837 -0.2663 -0.0007
   88SLPC    HX 8491   3.912   6.840   2.781 -1.0241 -1.0649  0.4770
   88SLPC    HY 8492   4.043   6.816   2.663  0.4497 -0.8187  0.3556
   88SLPC   O31 8493   4.038   6.686   2.845 -0.7479  0.3506  0.1093
   88SLPC   C31 8494   4.151   6.620   2.810 -0.2938 -0.2753  0.4207
   88SLPC   O32 8495   4.206   6.628   2.697 -0.5406 -0.5448 -0.2843
   88SLPC   C32 8496   4.202   6.524   2.911 -0.2784  0.0264 -0.8148
   88SLPC   H2X 8497   4.271   6.577   2.979 -1.4516  0.8902 -0.2576
   88SLPC   H2Y 8498   4.263   6.451   2.854  1.5360  0.5479  0.4004
   88SLPC   C23 8499   3.725   6.333   2.942  0.5383  0.1449 -0.2227
   88SLPC   H3R 8500   3.811   6.264   2.930  0.8270  0.5765 -0.6849
   88SLPC   H3S 8501   3.640   6.276   2.986  1.1432 -0.5273  0.1031
   88SLPC   C24 8502   3.736   6.449   3.044 -0.3056  0.6098  0.3607
   88SLPC   H4R 8503   3.641   6.505   3.050 -1.6404 -1.1677 -2.2456
   88SLPC   H4S 8504   3.816   6.522   3.020  2.8780 -2.3287  1.1669
   88SLPC   C25 8505   3.773   6.392   3.185 -0.1084 -0.0070  0.9504
   88SLPC   H5R 8506   3.874   6.347   3.173  0.3214  1.5295 -2.1204
   88SLPC   H5S 8507   3.715   6.300   3.211 -2.3907  1.6643  2.2029
   88SLPC   C26 8508   3.787   6.496   3.295 -0.0305  0.1764  0.4129
   88SLPC   H6R 8509   3.691   6.547   3.319 -0.8902 -2.1972  2.5119
   88SLPC   H6S 8510   3.844   6.585   3.262  1.7004 -1.1716 -0.4078
   88SLPC   C27 8511   3.849   6.454   3.433  0.8864  0.3648 -0.5145
   88SLPC   H7R 8512   3.834   6.539   3.503 -1.1500 -0.2966 -0.0761
   88SLPC   H7S 8513   3.958   6.434   3.427  0.3153 -3.5452 -0.2624
   88SLPC   C28 8514   3.782   6.333   3.498 -0.0164 -0.3832 -0.3771
   88SLPC   H8R 8515   3.849   6.292   3.577  0.1787  1.1154  0.2861
   88SLPC   H8S 8516   3.788   6.249   3.427 -1.4187 -0.5968 -0.2617
   88SLPC   C29 8517   3.641   6.365   3.554  0.2922  0.3198 -0.8788
   88SLPC   H9R 8518   3.568   6.349   3.474 -1.0106 -0.4167  0.4130
   88SLPC  C210 8519   3.592   6.389   3.673  0.4322 -0.1010 -0.5051
   88SLPC  H10R 8520   3.483   6.391   3.685  0.6941  1.2117  2.6448
   88SLPC  C211 8521   3.669   6.419   3.796 -0.0289 -0.2010  0.4978
   88SLPC  H11R 8522   3.776   6.394   3.781 -0.1787 -0.2446 -0.5858
   88SLPC  H11S 8523   3.626   6.353   3.875 -0.7587  0.4444  0.6516
   88SLPC  C212 8524   3.656   6.560   3.836  0.3186 -0.8631 -0.8510
   88SLPC  H12R 8525   3.666   6.631   3.753 -1.4789 -0.7175 -0.9789
   88SLPC  C213 8526   3.621   6.609   3.959  0.2162 -0.0640  0.0020
   88SLPC  H13R 8527   3.602   6.717   3.967  3.5438  0.6940 -0.7203
   88SLPC  C214 8528   3.593   6.534   4.091  0.3550 -0.4044  0.7916
   88SLPC  H14R 8529   3.600   6.605   4.176 -1.4671  0.7279  0.0527
   88SLPC  H14S 8530   3.678   6.462   4.101  0.4450 -0.2425  1.1918
   88SLPC  C215 8531   3.460   6.464   4.096 -0.4095 -0.2455  0.3175
   88SLPC  H15R 8532   3.480   6.397   4.182 -1.4768  0.9257  1.5336
   88SLPC  H15S 8533   3.450   6.400   4.006 -1.1511  0.7496 -0.3247
   88SLPC  C216 8534   3.336   6.545   4.142  0.0053 -0.6313 -0.6923
   88SLPC  H16R 8535   3.354   6.642   4.092 -0.0345 -0.3443 -0.1521
   88SLPC  H16S 8536   3.328   6.551   4.252  2.0699  1.0234 -0.5731
   88SLPC  C217 8537   3.214   6.476   4.085 -0.0851  0.9165 -0.5503
   88SLPC  H17R 8538   3.119   6.512   4.130  0.7581  1.1705  1.0866
   88SLPC  H17S 8539   3.217   6.366   4.103  1.8348  0.5898 -2.3845
   88SLPC  C218 8540   3.201   6.499   3.933  0.0766 -0.4974 -0.6033
   88SLPC  H18R 8541   3.173   6.606   3.919 -1.2581 -0.7562 -0.0688
   88SLPC  H18S 8542   3.121   6.443   3.880  0.1108  0.4442 -1.6806
   88SLPC  H18T 8543   3.295   6.485   3.875 -0.6629 -2.5818 -1.3838
   88SLPC   C33 8544   4.100   6.455   2.999  0.2694  0.6240  0.0890
   88SLPC   H3X 8545   4.037   6.396   2.929 -2.8177  2.4678  1.1159
   88SLPC   H3Y 8546   4.032   6.533   3.039  0.6302  1.0341 -0.0846
   88SLPC   C34 8547   4.157   6.358   3.106 -0.6574 -0.4183  0.0121
   88SLPC   H4X 8548   4.227   6.282   3.065 -0.0929 -0.5717  1.2191
   88SLPC   H4Y 8549   4.071   6.305   3.152 -0.0386 -0.0202  1.6828
   88SLPC   C35 8550   4.229   6.438   3.223 -0.2938  0.0378 -0.5791
   88SLPC   H5X 8551   4.158   6.518   3.253 -1.0510  0.0292 -2.2742
   88SLPC   H5Y 8552   4.319   6.487   3.180  0.0032  0.3172  0.3293
   88SLPC   C36 8553   4.262   6.351   3.343  0.7320 -0.0769  0.2794
   88SLPC   H6X 8554   4.325   6.264   3.317  2.5207  1.7016 -1.7162
   88SLPC   H6Y 8555   4.162   6.310   3.370  1.0313 -0.5739  0.6404
   88SLPC   C37 8556   4.323   6.422   3.459  0.1171  1.1454  0.5451
   88SLPC   H7X 8557   4.254   6.494   3.507 -0.2027 -0.1638  2.1185
   88SLPC   H7Y 8558   4.410   6.477   3.417  0.6285  0.0204  0.1000
   88SLPC   C38 8559   4.363   6.319   3.571 -0.5269 -0.5166  0.3766
   88SLPC   H8X 8560   4.442   6.250   3.534 -0.7792 -0.2148 -0.7775
   88SLPC   H8Y 8561   4.273   6.256   3.588 -0.0676 -1.6557 -1.1220
   88SLPC   C39 8562   4.410   6.384   3.700  0.8744  0.0253 -0.4474
   88SLPC   H9X 8563   4.323   6.448   3.724 -0.5767 -1.9865 -0.1251
   88SLPC   H9Y 8564   4.503   6.441   3.680  0.9076 -0.0589 -0.5329
   88SLPC  C310 8565   4.443   6.286   3.810  0.2191  0.3827 -0.6003
   88SLPC  H10X 8566   4.514   6.212   3.766  1.9625  0.9633  1.1112
   88SLPC  H10Y 8567   4.351   6.235   3.846 -0.5246 -0.3382 -3.2460
   88SLPC  C311 8568   4.508   6.361   3.932 -0.1848  0.4398  0.5596
   88SLPC  H11X 8569   4.450   6.454   3.951 -1.0784  0.0001  0.0799
   88SLPC  H11Y 8570   4.612   6.395   3.917  0.3644 -0.8657  1.2788
   88SLPC  C312 8571   4.502   6.257   4.048  1.1299 -0.2396  0.2009
   88SLPC  H12X 8572   4.554   6.163   4.019  1.1279 -0.5469  1.1570
   88SLPC  H12Y 8573   4.400   6.217   4.067  0.7884  0.3442 -0.3743
   88SLPC  C313 8574   4.569   6.320   4.170 -0.1375  0.2286  0.1180
   88SLPC  H13X 8575   4.522   6.417   4.196 -3.4057 -0.4189 -2.6068
   88SLPC  H13Y 8576   4.675   6.339   4.142 -0.6181  0.6391 -1.5016
   88SLPC  C314 8577   4.549   6.229   4.291  0.5826 -0.1665  0.4456
   88SLPC  H14X 8578   4.565   6.123   4.262 -1.7535 -0.7239  1.0269
   88SLPC  H14Y 8579   4.445   6.253   4.320  1.6153  2.5913  2.2166
   88SLPC  C315 8580   4.623   6.263   4.417  0.1996 -0.4320  0.7264
   88SLPC  H15X 8581   4.611   6.373   4.426  1.3165 -0.3409  1.2663
   88SLPC  H15Y 8582   4.732   6.242   4.409 -0.0539 -1.1378 -1.8002
   88SLPC  C316 8583   4.564   6.196   4.542  0.8801  0.1704  0.4309
   88SLPC  H16X 8584   4.578   6.087   4.526 -3.5031 -0.5709  0.3479
   88SLPC  H16Y 8585   4.454   6.207   4.541  0.9766  1.1718  0.1031
   88SLPC  C317 8586   4.618   6.245   4.687  0.0997 -0.3276 -0.6721
   88SLPC  H17X 8587   4.600   6.354   4.693 -2.9279 -0.6530 -1.8067
   88SLPC  H17Y 8588   4.726   6.219   4.682 -0.0544 -1.4676  1.1908
   88SLPC  C318 8589   4.547   6.171   4.802  0.6138 -0.4209  0.5487
   88SLPC  H18X 8590   4.438   6.193   4.797 -0.1033 -3.1446  2.1117
   88SLPC  H18Y 8591   4.579   6.226   4.893  3.2515  0.7980 -0.9884
   88SLPC  H18Z 8592   4.574   6.065   4.821  2.4436  0.1384  1.3043
   89SAPE     N 8593   1.568   6.406   6.237 -0.3375 -0.3429  0.7963
   89SAPE   HN1 8594   1.482   6.449   6.277 -1.2264 -0.6347 -0.7048
   89SAPE   HN2 8595   1.536   6.370   6.145 -0.4267  1.2559  0.1578
   89SAPE   HN3 8596   1.619   6.332   6.289  0.0606  0.0196  0.9282
   89SAPE   C12 8597   1.669   6.511   6.191 -0.1422  0.2624 -0.2219
   89SAPE  H12A 8598   1.615   6.586   6.130 -0.1115  0.9709  0.6034
   89SAPE  H12B 8599   1.745   6.463   6.125  1.0035  2.7380 -0.8245
   89SAPE   C11 8600   1.746   6.570   6.311 -0.1134 -0.3823 -0.6293
   89SAPE  H11A 8601   1.799   6.658   6.267 -1.0399 -0.0634 -1.1244
   89SAPE  H11B 8602   1.822   6.496   6.346 -0.8412 -1.9445 -2.2188
   89SAPE     P 8603   1.623   6.747   6.457 -0.3537 -0.1083  0.2280
   89SAPE   O13 8604   1.511   6.739   6.551 -1.1946  0.7209 -0.5792
   89SAPE   O14 8605   1.753   6.809   6.491 -0.4314 -0.4116 -0.3324
   89SAPE   O12 8606   1.657   6.603   6.412 -0.2281 -0.8726 -0.2032
   89SAPE   O11 8607   1.573   6.817   6.329  0.1500  0.0764 -0.0379
   89SAPE    C1 8608   1.454   6.787   6.257  0.4699 -0.6537 -0.1620
   89SAPE    HA 8609   1.471   6.749   6.155 -0.3649  0.6825 -0.8308
   89SAPE    HB 8610   1.389   6.712   6.307 -0.8406  1.2975  1.2328
   89SAPE    C2 8611   1.352   6.907   6.249  0.0589 -0.0597 -0.0965
   89SAPE    HS 8612   1.264   6.864   6.197 -0.8496  0.7515  0.7390
   89SAPE   O21 8613   1.408   7.016   6.183  0.2128  0.3294  0.5805
   89SAPE   C21 8614   1.380   7.017   6.050  0.3543 -0.3054 -0.0096
   89SAPE   O22 8615   1.316   6.936   5.990  0.5223 -0.1149 -0.4048
   89SAPE   C22 8616   1.449   7.138   5.990 -0.0405 -0.0823  0.4409
   89SAPE   H2R 8617   1.374   7.196   5.933  1.5937  0.3015 -1.4234
   89SAPE   H2S 8618   1.497   7.207   6.062  3.3533 -2.7070  0.9906
   89SAPE    C3 8619   1.315   6.953   6.391  0.1188 -0.0980  0.4529
   89SAPE    HX 8620   1.409   6.998   6.431  0.1672 -1.5137  2.0114
   89SAPE    HY 8621   1.302   6.871   6.465  1.6755 -1.0820 -0.3069
   89SAPE   O31 8622   1.204   7.038   6.389  0.0649 -0.2892  0.2713
   89SAPE   C31 8623   1.087   6.983   6.376 -0.1476 -0.6313 -0.1060
   89SAPE   O32 8624   1.069   6.861   6.355  0.2363  0.1128  0.2844
   89SAPE   C32 8625   0.981   7.101   6.358  1.0132 -0.2934 -0.1378
   89SAPE   H2X 8626   1.036   7.197   6.351 -0.4934  0.8715  2.1946
   89SAPE   H2Y 8627   0.917   7.105   6.449 -0.7012  1.2507 -1.3308
   89SAPE   C23 8628   1.554   7.115   5.874 -0.5436  0.4313  0.0513
   89SAPE   H3R 8629   1.517   7.037   5.804 -0.0887 -0.5492  0.8701
   89SAPE   H3S 8630   1.649   7.096   5.927 -1.3924  0.3521  1.6210
   89SAPE   C24 8631   1.586   7.240   5.786  0.2362 -0.8169 -0.2932
   89SAPE   H4R 8632   1.686   7.239   5.737  0.2562  1.1064 -0.3750
   89SAPE   H4S 8633   1.583   7.324   5.858  0.0599  1.4128 -2.7508
   89SAPE   C25 8634   1.489   7.257   5.676  0.3940  0.3575  0.8193
   89SAPE   H5R 8635   1.391   7.295   5.708  0.1692  0.3099  0.2033
   89SAPE   C26 8636   1.516   7.233   5.545 -0.2544  0.2532 -0.1904
   89SAPE   H6R 8637   1.438   7.258   5.472 -0.8819 -1.1557 -0.0398
   89SAPE   C27 8638   1.650   7.187   5.487  0.4374  0.2802 -0.1128
   89SAPE   H7R 8639   1.678   7.094   5.540  0.4923  1.2584  1.6247
   89SAPE   H7S 8640   1.730   7.261   5.505  1.7713 -1.2719  0.5372
   89SAPE   C28 8641   1.638   7.149   5.339  0.0744  0.6895 -0.9807
   89SAPE   H8R 8642   1.623   7.044   5.313 -1.3878  1.1164 -1.9537
   89SAPE   C29 8643   1.667   7.227   5.233  0.0079  0.3769 -0.0514
   89SAPE   H9R 8644   1.655   7.175   5.136  0.5899  0.1405 -0.0003
   89SAPE  C210 8645   1.727   7.369   5.234  0.0985 -0.5560 -1.6473
   89SAPE  H10R 8646   1.667   7.440   5.294 -0.5154 -0.8753 -1.8671
   89SAPE  H10S 8647   1.705   7.416   5.136  4.1948 -0.7395 -2.8172
   89SAPE  C211 8648   1.872   7.388   5.270 -0.4876  0.2749  0.2169
   89SAPE  H11R 8649   1.899   7.381   5.376  0.4397 -1.5124 -0.0989
   89SAPE  C212 8650   1.965   7.432   5.185 -0.3746  0.1705 -0.1006
   89SAPE  H12R 8651   2.063   7.450   5.231  0.0760 -2.4585  0.0871
   89SAPE  C213 8652   1.960   7.464   5.037  0.1371 -0.2850  0.1533
   89SAPE  H13R 8653   1.990   7.568   5.015 -0.4988 -0.7967 -3.9880
   89SAPE  H13S 8654   1.851   7.464   5.015 -0.6130 -1.7940  3.3082
   89SAPE  C214 8655   2.027   7.361   4.956 -1.4678  0.3538  0.0535
   89SAPE  H14R 8656   2.135   7.348   4.972 -0.8296  1.4989 -2.7309
   89SAPE  C215 8657   1.965   7.275   4.883  0.2537  0.3952 -0.2612
   89SAPE  H15R 8658   2.025   7.189   4.851  1.3302  0.9599  0.2042
   89SAPE  C216 8659   1.818   7.262   4.858  0.7560  0.2578 -0.2858
   89SAPE  H16R 8660   1.759   7.259   4.953 -0.7221 -3.6060 -1.1078
   89SAPE  H16S 8661   1.798   7.161   4.816  0.9450  0.3512 -0.5978
   89SAPE  C217 8662   1.755   7.345   4.743  0.2051 -0.2564 -1.2834
   89SAPE  H17R 8663   1.788   7.330   4.638  2.6248  1.1452 -0.8074
   89SAPE  H17S 8664   1.785   7.445   4.781 -1.4773 -1.4471  3.9848
   89SAPE  C218 8665   1.603   7.346   4.765  0.5340  0.1578 -0.5772
   89SAPE  H18R 8666   1.563   7.415   4.688 -0.3716 -0.3887 -0.6089
   89SAPE  H18S 8667   1.571   7.375   4.867  1.6729  2.9383 -0.9311
   89SAPE  C219 8668   1.529   7.218   4.724 -0.1343 -0.3206 -0.8034
   89SAPE  H19R 8669   1.561   7.147   4.803  0.5142  1.0806  0.2283
   89SAPE  H19S 8670   1.580   7.188   4.629  1.1956  0.2447 -0.2934
   89SAPE  C220 8671   1.375   7.228   4.714 -0.2177  0.1591  0.2076
   89SAPE  H20R 8672   1.337   7.266   4.811  0.1791  0.4300  0.2613
   89SAPE  H20S 8673   1.339   7.127   4.687 -0.3269  0.7017 -1.8471
   89SAPE  H20T 8674   1.336   7.287   4.628 -1.4582 -1.6985 -0.5770
   89SAPE   C33 8675   0.892   7.079   6.226 -0.4587 -0.0002 -0.3281
   89SAPE   H3X 8676   0.819   7.161   6.206  0.1242  0.7797  0.6994
   89SAPE   H3Y 8677   0.829   6.988   6.241  1.1401 -1.3298 -1.3212
   89SAPE   C34 8678   0.970   7.070   6.091 -0.3968  0.4248 -0.2288
   89SAPE   H4X 8679   0.909   7.021   6.012 -0.1789 -0.9258  0.4079
   89SAPE   H4Y 8680   1.057   7.001   6.095  1.0378  2.1524 -0.3512
   89SAPE   C35 8681   1.010   7.212   6.043  1.0790  0.4942 -0.5070
   89SAPE   H5X 8682   1.089   7.251   6.111 -1.3009  0.6841  2.3880
   89SAPE   H5Y 8683   0.917   7.273   6.046  0.2719 -0.6808 -0.7885
   89SAPE   C36 8684   1.064   7.205   5.899  0.6205 -0.4168 -1.3105
   89SAPE   H6X 8685   0.981   7.168   5.836  2.6853 -4.2704 -2.1149
   89SAPE   H6Y 8686   1.139   7.124   5.883 -1.1004 -2.5860  0.8360
   89SAPE   C37 8687   1.118   7.346   5.870  0.1674  0.2355 -0.2525
   89SAPE   H7X 8688   1.221   7.350   5.912  0.0048  1.5964  0.0609
   89SAPE   H7Y 8689   1.067   7.430   5.922 -1.4411 -0.7626 -0.1577
   89SAPE   C38 8690   1.119   7.393   5.729  0.3980  0.0451  0.7702
   89SAPE   H8X 8691   1.016   7.376   5.690  0.6845 -0.5516  0.2513
   89SAPE   H8Y 8692   1.190   7.334   5.668  0.1034 -0.0917  0.5579
   89SAPE   C39 8693   1.161   7.537   5.710 -0.1695 -0.1217 -0.7024
   89SAPE   H9X 8694   1.262   7.557   5.754 -0.1349  0.7179 -1.1376
   89SAPE   H9Y 8695   1.108   7.607   5.778  0.4054 -1.0384  0.7421
   89SAPE  C310 8696   1.146   7.581   5.563 -0.0612 -0.3434  0.4925
   89SAPE  H10X 8697   1.181   7.687   5.563  0.4690 -0.4458 -2.1727
   89SAPE  H10Y 8698   1.043   7.579   5.521  0.2898  2.0357 -0.6337
   89SAPE  C311 8699   1.241   7.501   5.465  0.7075 -0.0103  1.0161
   89SAPE  H11X 8700   1.210   7.395   5.455 -1.4098  0.5276  1.3411
   89SAPE  H11Y 8701   1.347   7.508   5.500  1.4550  2.7226 -1.4456
   89SAPE  C312 8702   1.234   7.558   5.319  0.4338 -0.3072 -0.4124
   89SAPE  H12X 8703   1.260   7.663   5.344 -0.1503 -0.5048  1.2070
   89SAPE  H12Y 8704   1.130   7.562   5.280 -0.0474  2.4233  0.9209
   89SAPE  C313 8705   1.323   7.494   5.220  0.1156 -0.7245  0.1675
   89SAPE  H13X 8706   1.304   7.388   5.194  2.1707 -1.6577  2.0934
   89SAPE  H13Y 8707   1.429   7.495   5.255  0.8966 -2.3772 -1.9290
   89SAPE  C314 8708   1.323   7.577   5.089 -0.1512  0.4266 -0.2030
   89SAPE  H14X 8709   1.413   7.550   5.029 -0.0122  0.3616  0.0338
   89SAPE  H14Y 8710   1.348   7.676   5.132  0.1441  0.6059 -0.7766
   89SAPE  C315 8711   1.193   7.569   5.000  0.4549  0.0279 -0.7177
   89SAPE  H15X 8712   1.122   7.650   5.027  0.2337 -0.5441  0.5120
   89SAPE  H15Y 8713   1.148   7.468   5.007 -0.1323  0.3795  1.8032
   89SAPE  C316 8714   1.223   7.593   4.851 -0.5456  0.7825 -0.3695
   89SAPE  H16X 8715   1.284   7.505   4.822  0.7452  1.7257 -0.6062
   89SAPE  H16Y 8716   1.291   7.680   4.840 -0.0688  0.3907 -0.5108
   89SAPE  C317 8717   1.096   7.591   4.761 -0.3374 -0.8473 -0.8046
   89SAPE  H17X 8718   1.021   7.529   4.816 -0.3338  0.8886  1.3083
   89SAPE  H17Y 8719   1.119   7.538   4.666  1.2219  1.4619 -1.8030
   89SAPE  C318 8720   1.030   7.727   4.754 -0.3198  0.4460  0.2952
   89SAPE  H18X 8721   1.103   7.796   4.705  0.2014 -0.5411 -0.3396
   89SAPE  H18Y 8722   1.014   7.767   4.857  1.6270  0.5117  0.6120
   89SAPE  H18Z 8723   0.942   7.726   4.687  2.0511  0.6536 -3.1328
   90SAPE     N 8724   2.852   5.578   6.528 -0.0003  0.3342 -0.3436
   90SAPE   HN1 8725   2.830   5.528   6.616  0.0413  0.8438 -0.0413
   90SAPE   HN2 8726   2.782   5.654   6.518 -0.9952 -0.3835  0.9188
   90SAPE   HN3 8727   2.829   5.500   6.464  0.1292  1.1810 -1.4655
   90SAPE   C12 8728   2.996   5.623   6.511 -0.3318  0.9386 -0.1197
   90SAPE  H12A 8729   3.003   5.721   6.564 -0.7505 -0.1125  1.9977
   90SAPE  H12B 8730   3.017   5.633   6.402 -0.3181 -0.5326 -0.2705
   90SAPE   C11 8731   3.100   5.528   6.578  0.2497 -0.0644  0.1705
   90SAPE  H11A 8732   3.082   5.420   6.561 -0.7982 -0.1016  1.3755
   90SAPE  H11B 8733   3.087   5.533   6.688  1.9194  3.6586  0.3676
   90SAPE     P 8734   3.339   5.496   6.478 -0.1985 -0.3869  0.5797
   90SAPE   O13 8735   3.463   5.572   6.464  0.1344 -0.0404 -0.0096
   90SAPE   O14 8736   3.345   5.365   6.539 -1.0276  0.8833 -0.3314
   90SAPE   O12 8737   3.236   5.578   6.558  0.1407  0.0090  0.0325
   90SAPE   O11 8738   3.287   5.485   6.332  0.2457 -0.1382  0.7826
   90SAPE    C1 8739   3.246   5.599   6.257 -0.1887 -0.2048  0.9666
   90SAPE    HA 8740   3.141   5.584   6.224 -0.1645 -0.4537  0.9996
   90SAPE    HB 8741   3.250   5.693   6.316  1.2687  0.6399 -0.4131
   90SAPE    C2 8742   3.325   5.605   6.119 -0.1508 -0.0752 -0.3491
   90SAPE    HS 8743   3.304   5.703   6.071 -1.9783  0.4604  1.4013
   90SAPE   O21 8744   3.282   5.497   6.040  0.1673  0.3749  0.2000
   90SAPE   C21 8745   3.157   5.510   5.989  0.5862 -0.4253 -0.7971
   90SAPE   O22 8746   3.089   5.609   5.989 -0.7111  0.1752 -0.4105
   90SAPE   C22 8747   3.106   5.369   5.965  0.1621 -0.1467  0.1802
   90SAPE   H2R 8748   3.189   5.310   5.921  1.0497  1.6237 -0.5915
   90SAPE   H2S 8749   3.073   5.334   6.065  1.3799 -1.8318  0.0340
   90SAPE    C3 8750   3.477   5.603   6.154 -0.5099  0.1539  0.3311
   90SAPE    HX 8751   3.502   5.499   6.184 -0.2464  0.3021  0.6273
   90SAPE    HY 8752   3.510   5.664   6.240  0.8568 -0.2998  0.1457
   90SAPE   O31 8753   3.553   5.628   6.035 -0.2582 -0.6773 -0.0744
   90SAPE   C31 8754   3.555   5.760   5.997 -0.6177 -0.4487 -0.5293
   90SAPE   O32 8755   3.498   5.849   6.055  0.0977  0.0837 -0.9472
   90SAPE   C32 8756   3.636   5.772   5.869 -0.2815 -0.0003  0.0342
   90SAPE   H2X 8757   3.675   5.674   5.834 -1.6314 -0.3852 -0.4383
   90SAPE   H2Y 8758   3.728   5.831   5.890  0.3029 -0.6073 -0.7367
   90SAPE   C23 8759   2.978   5.365   5.882 -0.4629  0.0015  0.5326
   90SAPE   H3R 8760   2.891   5.415   5.932 -0.0894  1.9837 -0.6872
   90SAPE   H3S 8761   2.935   5.263   5.883 -0.3643 -0.0675  2.4756
   90SAPE   C24 8762   3.003   5.415   5.739  0.0135  0.9017 -0.2062
   90SAPE   H4R 8763   3.107   5.386   5.715  0.2647  1.1098  0.6222
   90SAPE   H4S 8764   2.984   5.524   5.734 -1.9806  0.6494  0.7476
   90SAPE   C25 8765   2.909   5.350   5.642 -0.4966 -0.0313  0.2293
   90SAPE   H5R 8766   2.921   5.242   5.626  2.6527  0.3588 -0.5715
   90SAPE   C26 8767   2.805   5.390   5.577  0.1927 -0.4627 -0.3875
   90SAPE   H6R 8768   2.757   5.315   5.511 -0.9578 -1.0425  1.0530
   90SAPE   C27 8769   2.757   5.533   5.576 -0.1804 -0.0413 -0.0758
   90SAPE   H7R 8770   2.782   5.578   5.674  0.8662 -0.0671 -0.3253
   90SAPE   H7S 8771   2.646   5.544   5.570 -0.2989  4.1180  4.0530
   90SAPE   C28 8772   2.813   5.618   5.468  0.0401 -0.0209  0.1345
   90SAPE   H8R 8773   2.903   5.674   5.498 -0.5985  1.6280 -0.8668
   90SAPE   C29 8774   2.758   5.644   5.349  0.2717 -0.1106 -0.3712
   90SAPE   H9R 8775   2.797   5.727   5.287  0.5675 -0.0180 -0.0628
   90SAPE  C210 8776   2.628   5.582   5.297  0.1709 -0.4461  0.3254
   90SAPE  H10R 8777   2.592   5.498   5.360 -0.1611  0.3461  1.2261
   90SAPE  H10S 8778   2.647   5.547   5.193 -1.8802 -0.9961  0.0904
   90SAPE  C211 8779   2.518   5.680   5.292  0.1293  0.5473  0.0611
   90SAPE  H11R 8780   2.463   5.708   5.384 -1.0434  2.6690 -1.1896
   90SAPE  C212 8781   2.467   5.732   5.176  0.6417 -0.2596  0.0128
   90SAPE  H12R 8782   2.376   5.795   5.176  0.3135 -0.7111 -0.9275
   90SAPE  C213 8783   2.511   5.718   5.033 -0.0549 -0.0909  0.0989
   90SAPE  H13R 8784   2.419   5.687   4.980 -0.6438 -0.8225  1.4699
   90SAPE  H13S 8785   2.580   5.633   5.015  0.1259 -0.0426  0.5360
   90SAPE  C214 8786   2.552   5.842   4.975  0.7838 -0.5545 -0.0613
   90SAPE  H14R 8787   2.652   5.873   5.008  1.1088 -1.8680  0.2481
   90SAPE  C215 8788   2.480   5.911   4.880 -0.6814 -0.2283 -0.4840
   90SAPE  H15R 8789   2.521   6.007   4.847 -0.1281 -0.3724 -0.2226
   90SAPE  C216 8790   2.356   5.865   4.808  0.6757 -0.2168 -0.7967
   90SAPE  H16R 8791   2.317   5.947   4.745  0.7625 -0.7601 -1.5808
   90SAPE  H16S 8792   2.280   5.828   4.880  1.9822  0.0664  0.7837
   90SAPE  C217 8793   2.390   5.753   4.716 -0.6322  0.0983 -0.4881
   90SAPE  H17R 8794   2.425   5.664   4.772 -0.3334  1.1079  1.0107
   90SAPE  H17S 8795   2.476   5.773   4.648 -0.6161 -0.3871 -0.6109
   90SAPE  C218 8796   2.270   5.708   4.631  1.0510 -0.7099 -0.7566
   90SAPE  H18R 8797   2.231   5.795   4.574 -0.0411 -1.3179 -0.9680
   90SAPE  H18S 8798   2.198   5.672   4.708  0.4713 -0.2892 -1.0892
   90SAPE  C219 8799   2.289   5.595   4.532  0.5052 -0.6355  0.5256
   90SAPE  H19R 8800   2.320   5.497   4.575 -1.2439 -0.9915  1.0355
   90SAPE  H19S 8801   2.370   5.624   4.461 -1.2628  1.6463 -0.6791
   90SAPE  C220 8802   2.173   5.570   4.430  0.2138 -0.3087 -0.2275
   90SAPE  H20R 8803   2.208   5.495   4.356  1.5222 -2.2236  2.1590
   90SAPE  H20S 8804   2.155   5.668   4.381  1.6712  1.1423  1.9448
   90SAPE  H20T 8805   2.087   5.540   4.495  1.9001 -0.0452  2.2715
   90SAPE   C33 8806   3.558   5.849   5.762 -0.0465 -0.4661  0.5491
   90SAPE   H3X 8807   3.520   5.945   5.803 -0.8439 -0.5063 -0.0678
   90SAPE   H3Y 8808   3.471   5.783   5.739 -0.3544  0.0890  0.0770
   90SAPE   C34 8809   3.628   5.885   5.630 -0.0868  0.2597 -0.6256
   90SAPE   H4X 8810   3.737   5.904   5.639 -0.7122  3.6413  1.2097
   90SAPE   H4Y 8811   3.585   5.978   5.588 -0.3144  0.6943  0.5588
   90SAPE   C35 8812   3.602   5.775   5.521 -0.5286 -0.2964 -0.1471
   90SAPE   H5X 8813   3.494   5.785   5.500 -0.8563 -0.2165  1.4423
   90SAPE   H5Y 8814   3.629   5.676   5.563  3.2517  0.4521 -0.3774
   90SAPE   C36 8815   3.675   5.797   5.384  0.0788  0.4703 -0.0516
   90SAPE   H6X 8816   3.652   5.709   5.320  2.3938  0.3731 -0.8641
   90SAPE   H6Y 8817   3.786   5.787   5.386  0.0929 -0.7301 -2.7385
   90SAPE   C37 8818   3.635   5.924   5.314  0.5857 -0.1005  0.7951
   90SAPE   H7X 8819   3.668   6.012   5.372 -0.4284  1.7165 -1.2205
   90SAPE   H7Y 8820   3.524   5.926   5.315  0.5522 -0.9898  0.3421
   90SAPE   C38 8821   3.679   5.946   5.171 -0.6418 -0.8333 -0.3443
   90SAPE   H8X 8822   3.790   5.953   5.159 -0.6033  1.4433  0.8566
   90SAPE   H8Y 8823   3.647   6.047   5.139 -0.5019 -0.4856  0.5950
   90SAPE   C39 8824   3.617   5.841   5.077 -0.0565  0.2862 -0.4283
   90SAPE   H9X 8825   3.519   5.814   5.122  0.8554  0.2817  1.6819
   90SAPE   H9Y 8826   3.682   5.752   5.092 -0.3665  0.5213  3.4835
   90SAPE  C310 8827   3.615   5.876   4.929  1.2372 -0.0399  0.2709
   90SAPE  H10X 8828   3.716   5.898   4.889  0.2277  0.7323 -2.0040
   90SAPE  H10Y 8829   3.538   5.956   4.922 -0.1407 -1.4590 -2.1990
   90SAPE  C311 8830   3.558   5.771   4.828  0.0141  0.0182 -0.1409
   90SAPE  H11X 8831   3.543   5.832   4.736  0.0376  0.7720  0.3468
   90SAPE  H11Y 8832   3.456   5.749   4.867  0.7486  1.1039  2.5729
   90SAPE  C312 8833   3.643   5.645   4.816 -0.0529  0.6772  0.5901
   90SAPE  H12X 8834   3.657   5.600   4.916  1.4850  1.5399  0.7765
   90SAPE  H12Y 8835   3.740   5.673   4.770 -0.1412  1.7027  1.0042
   90SAPE  C313 8836   3.577   5.533   4.727  0.1397  0.2228 -0.7164
   90SAPE  H13X 8837   3.506   5.475   4.790 -0.0142  0.8078 -0.3422
   90SAPE  H13Y 8838   3.662   5.466   4.705  1.0249  0.4165  1.7924
   90SAPE  C314 8839   3.526   5.591   4.590  0.0863 -0.8744  0.3652
   90SAPE  H14X 8840   3.553   5.526   4.505  0.7404 -1.2567  0.8488
   90SAPE  H14Y 8841   3.591   5.676   4.562  1.7596 -2.6097 -1.2951
   90SAPE  C315 8842   3.378   5.635   4.578 -0.4808 -0.2569 -0.6439
   90SAPE  H15X 8843   3.360   5.687   4.675  1.3944  1.4099 -1.1259
   90SAPE  H15Y 8844   3.327   5.536   4.578  1.1122 -1.1159  0.5810
   90SAPE  C316 8845   3.340   5.713   4.453 -0.2348 -0.3355 -0.2349
   90SAPE  H16X 8846   3.395   5.809   4.456 -1.3244  0.3034 -0.1188
   90SAPE  H16Y 8847   3.233   5.741   4.468  0.0843  0.4831  0.5932
   90SAPE  C317 8848   3.361   5.643   4.320 -0.2171 -0.1010 -0.2489
   90SAPE  H17X 8849   3.299   5.551   4.326  0.1788 -0.4444 -1.2613
   90SAPE  H17Y 8850   3.466   5.609   4.312  0.7469  2.4764  0.5513
   90SAPE  C318 8851   3.316   5.722   4.196  0.4441  0.3659 -0.3500
   90SAPE  H18X 8852   3.333   5.665   4.102  1.6915 -0.4585  0.3381
   90SAPE  H18Y 8853   3.361   5.823   4.189  1.0366  0.1230 -0.0728
   90SAPE  H18Z 8854   3.206   5.733   4.203  0.1501 -1.0896 -1.8725
   91SAPE     N 8855   0.431   0.498   6.788 -0.4311 -0.4831  0.5216
   91SAPE   HN1 8856   0.352   0.540   6.735  0.8905  1.4611  0.0176
   91SAPE   HN2 8857   0.402   0.498   6.888  1.0534 -1.4684  0.9874
   91SAPE   HN3 8858   0.518   0.552   6.772 -0.9695 -0.0911 -1.2655
   91SAPE   C12 8859   0.433   0.350   6.739 -1.4286 -0.2810  0.7228
   91SAPE  H12A 8860   0.538   0.315   6.737 -0.6339  1.9065  1.2965
   91SAPE  H12B 8861   0.392   0.357   6.636  0.3008 -0.5216 -0.0112
   91SAPE   C11 8862   0.355   0.260   6.824 -0.4770  0.0274  0.0812
   91SAPE  H11A 8863   0.408   0.259   6.922  1.3060  0.6029 -0.8296
   91SAPE  H11B 8864   0.362   0.153   6.798 -3.4636 -0.4873  1.0722
   91SAPE     P 8865   0.112   0.283   6.741 -0.4164 -0.0492  0.4406
   91SAPE   O13 8866   0.001   0.196   6.791 -0.4202 -0.7095 -0.1346
   91SAPE   O14 8867   0.067   0.416   6.705 -0.3226  0.1674  0.4249
   91SAPE   O12 8868   0.229   0.309   6.838  0.9010  0.2559  0.0834
   91SAPE   O11 8869   0.180   0.213   6.615 -0.0676 -0.6885 -0.1861
   91SAPE    C1 8870   0.171   0.064   6.600 -0.4613 -0.5347  0.1664
   91SAPE    HA 8871   0.148   0.006   6.691 -3.9970 -0.5992 -0.6003
   91SAPE    HB 8872   0.082   0.050   6.534 -0.1426  0.0886 -0.4104
   91SAPE    C2 8873   0.292   0.016   6.523  0.4212 -0.4486  0.3684
   91SAPE    HS 8874   0.381   0.025   6.590  2.4712 -0.6675 -2.1656
   91SAPE   O21 8875   0.312   0.094   6.399  0.5240 -0.8713 -0.0022
   91SAPE   C21 8876   0.431   0.077   6.336  0.0051  0.7033 -0.1574
   91SAPE   O22 8877   0.523   0.015   6.392  0.1481 -0.8017  0.2464
   91SAPE   C22 8878   0.438   0.147   6.198  0.2768  0.4881  0.2732
   91SAPE   H2R 8879   0.339   0.162   6.150  0.2272 -1.9352 -0.5087
   91SAPE   H2S 8880   0.478   0.250   6.205  3.1245 -0.2780 -2.4229
   91SAPE    C3 8881   0.274  -0.139   6.489 -0.9459 -0.0650  0.1687
   91SAPE    HX 8882   0.289  -0.194   6.585 -2.0089 -0.1583  0.2862
   91SAPE    HY 8883   0.353  -0.182   6.423 -0.4142 -0.0189  0.7570
   91SAPE   O31 8884   0.142  -0.179   6.445 -0.1252  0.2058 -0.3045
   91SAPE   C31 8885   0.123  -0.171   6.316 -0.3258 -0.1473  0.0703
   91SAPE   O32 8886   0.204  -0.138   6.231  0.2662 -0.5281  0.3835
   91SAPE   C32 8887  -0.024  -0.214   6.283  0.4573 -0.1415 -0.1212
   91SAPE   H2X 8888  -0.081  -0.125   6.316  3.0526  1.6862 -0.2438
   91SAPE   H2Y 8889  -0.050  -0.298   6.351 -0.2617  0.3202  0.1923
   91SAPE   C23 8890   0.514   0.063   6.089  0.3947  0.1258 -0.5168
   91SAPE   H3R 8891   0.490  -0.046   6.085  0.4773  0.0700  0.4780
   91SAPE   H3S 8892   0.621   0.088   6.100  0.5937 -0.7283 -0.4675
   91SAPE   C24 8893   0.470   0.121   5.954  0.4745 -0.1705  0.0421
   91SAPE   H4R 8894   0.368   0.083   5.931  0.4832  0.1077 -0.4995
   91SAPE   H4S 8895   0.530   0.064   5.880  0.4763 -1.7997  1.2538
   91SAPE   C25 8896   0.474   0.269   5.926 -0.2632 -0.2643 -0.1959
   91SAPE   H5R 8897   0.407   0.337   5.980  1.4538  0.7997  0.6920
   91SAPE   C26 8898   0.561   0.327   5.846  0.1136  0.2608  1.0262
   91SAPE   H6R 8899   0.548   0.434   5.823 -0.5592 -0.5002 -2.9736
   91SAPE   C27 8900   0.672   0.262   5.767  0.6463  0.4033 -1.0229
   91SAPE   H7R 8901   0.676   0.151   5.766 -0.4348  0.3302  0.2467
   91SAPE   H7S 8902   0.769   0.276   5.819  0.7758  0.5723 -1.3051
   91SAPE   C28 8903   0.682   0.323   5.626 -0.8226 -0.3642 -0.1710
   91SAPE   H8R 8904   0.772   0.386   5.622 -1.3118  0.4342  1.0199
   91SAPE   C29 8905   0.608   0.311   5.517 -0.0346  0.9985  0.1429
   91SAPE   H9R 8906   0.626   0.370   5.426 -2.0790  1.3306 -0.1095
   91SAPE  C210 8907   0.480   0.232   5.509 -0.0221  0.3446  0.2134
   91SAPE  H10R 8908   0.385   0.287   5.525  0.2701  0.5535  1.3202
   91SAPE  H10S 8909   0.477   0.160   5.594  1.8300  1.2887  1.1636
   91SAPE  C211 8910   0.486   0.136   5.391  0.3795  0.2604 -0.9121
   91SAPE  H11R 8911   0.558   0.055   5.405  0.5858  0.3104 -1.6326
   91SAPE  C212 8912   0.390   0.130   5.297 -0.5609  0.0563  0.6943
   91SAPE  H12R 8913   0.398   0.054   5.218 -3.3161  1.8086 -1.4535
   91SAPE  C213 8914   0.280   0.226   5.281  0.1271 -0.8890  0.5672
   91SAPE  H13R 8915   0.309   0.326   5.241 -1.6986 -0.3888  0.4261
   91SAPE  H13S 8916   0.230   0.252   5.376 -0.8978  2.9877 -0.8398
   91SAPE  C214 8917   0.171   0.185   5.185 -0.3491  0.8627 -0.1489
   91SAPE  H14R 8918   0.088   0.145   5.246  1.6081 -2.3808  0.6158
   91SAPE  C215 8919   0.170   0.204   5.051  0.1996 -0.6156  0.6032
   91SAPE  H15R 8920   0.093   0.155   4.990  0.8907 -0.0120 -0.7910
   91SAPE  C216 8921   0.275   0.282   4.973 -0.4868  0.2574 -0.6891
   91SAPE  H16R 8922   0.360   0.212   4.956  1.1993  1.2397  2.9257
   91SAPE  H16S 8923   0.312   0.364   5.038  0.5714 -2.1214  1.8997
   91SAPE  C217 8924   0.228   0.338   4.839 -0.1926  0.7941 -0.2414
   91SAPE  H17R 8925   0.302   0.402   4.786  3.5710 -3.0781 -0.2665
   91SAPE  H17S 8926   0.130   0.387   4.858 -1.0480 -1.1519  0.5716
   91SAPE  C218 8927   0.211   0.223   4.737 -0.5172 -0.6316  0.5582
   91SAPE  H18R 8928   0.137   0.148   4.773 -1.1173 -0.3976 -0.1460
   91SAPE  H18S 8929   0.307   0.170   4.723 -0.5812 -0.1826 -1.9501
   91SAPE  C219 8930   0.169   0.270   4.598 -0.6632  0.4995  0.0753
   91SAPE  H19R 8931   0.234   0.349   4.556 -0.7592 -0.1028 -1.2861
   91SAPE  H19S 8932   0.067   0.314   4.602 -1.4417 -0.9405 -1.8310
   91SAPE  C220 8933   0.174   0.152   4.501 -0.0770 -0.8708  0.3171
   91SAPE  H20R 8934   0.277   0.120   4.478  0.2953 -0.0286  0.7727
   91SAPE  H20S 8935   0.122   0.175   4.405 -1.3627 -0.5669  1.0586
   91SAPE  H20T 8936   0.124   0.058   4.534 -0.6949  0.1962  2.6437
   91SAPE   C33 8937  -0.037  -0.248   6.131 -0.3019 -0.5394  0.3882
   91SAPE   H3X 8938   0.001  -0.349   6.107 -0.8105 -0.5873 -0.2594
   91SAPE   H3Y 8939   0.015  -0.171   6.071 -1.4448 -0.1512 -0.1373
   91SAPE   C34 8940  -0.183  -0.230   6.087 -0.3690  0.0624 -0.1495
   91SAPE   H4X 8941  -0.212  -0.127   6.117 -1.9106  0.2327 -2.0281
   91SAPE   H4Y 8942  -0.251  -0.295   6.145 -1.2746  1.2548  0.1533
   91SAPE   C35 8943  -0.203  -0.238   5.934  0.2595  0.5701  0.0482
   91SAPE   H5X 8944  -0.182  -0.340   5.893  1.0989  0.0870  1.6105
   91SAPE   H5Y 8945  -0.134  -0.165   5.886  2.7915  1.3052  4.3297
   91SAPE   C36 8946  -0.349  -0.193   5.899 -0.2762  0.3724  0.2837
   91SAPE   H6X 8947  -0.389  -0.133   5.984 -1.2985  1.8559 -1.1940
   91SAPE   H6Y 8948  -0.405  -0.288   5.886 -1.2561  1.0020 -0.2268
   91SAPE   C37 8949  -0.363  -0.094   5.781  0.1040 -0.0459 -0.1521
   91SAPE   H7X 8950  -0.289  -0.011   5.788  0.6575 -0.6832  2.5932
   91SAPE   H7Y 8951  -0.467  -0.055   5.785 -0.5416 -1.7138  0.2878
   91SAPE   C38 8952  -0.347  -0.161   5.646 -0.7059 -0.2445 -0.5216
   91SAPE   H8X 8953  -0.389  -0.263   5.636  0.8322 -1.0405  0.5764
   91SAPE   H8Y 8954  -0.239  -0.185   5.634 -0.9766 -2.0167  0.2765
   91SAPE   C39 8955  -0.397  -0.085   5.531 -0.8331 -0.1187  0.4275
   91SAPE   H9X 8956  -0.340   0.010   5.532 -0.8430 -0.1166  0.8531
   91SAPE   H9Y 8957  -0.505  -0.058   5.536 -0.2877  2.5178 -0.5158
   91SAPE  C310 8958  -0.359  -0.146   5.395  0.3720 -0.0940 -0.4103
   91SAPE  H10X 8959  -0.386  -0.253   5.411 -0.4360  0.4228  2.1616
   91SAPE  H10Y 8960  -0.253  -0.123   5.372  0.2111  0.4689 -0.5860
   91SAPE  C311 8961  -0.455  -0.084   5.297 -0.5384 -0.1238  0.2170
   91SAPE  H11X 8962  -0.490   0.019   5.322  0.3433 -0.2505  2.1573
   91SAPE  H11Y 8963  -0.552  -0.138   5.296 -1.0294  0.7268 -0.8898
   91SAPE  C312 8964  -0.401  -0.080   5.152  0.6464 -0.1496 -0.0856
   91SAPE  H12X 8965  -0.460  -0.021   5.079  1.5618  1.5626  0.4979
   91SAPE  H12Y 8966  -0.397  -0.186   5.118  0.7143 -0.0586 -0.3598
   91SAPE  C313 8967  -0.250  -0.019   5.129  0.0014  0.6945 -0.0463
   91SAPE  H13X 8968  -0.180  -0.105   5.132  1.0134  1.4657 -0.8100
   91SAPE  H13Y 8969  -0.229   0.059   5.205  0.5565  2.4164 -1.8964
   91SAPE  C314 8970  -0.230   0.027   4.980  0.4093  0.1289 -0.3572
   91SAPE  H14X 8971  -0.137   0.086   4.966 -0.0520  0.6041 -1.4893
   91SAPE  H14Y 8972  -0.311   0.097   4.953  1.1614  0.2936 -2.3273
   91SAPE  C315 8973  -0.237  -0.101   4.884 -0.2495 -0.4805 -0.1197
   91SAPE  H15X 8974  -0.320  -0.164   4.922  1.3871 -0.1321  4.5915
   91SAPE  H15Y 8975  -0.142  -0.153   4.906 -2.0846 -2.9720  2.8021
   91SAPE  C316 8976  -0.260  -0.056   4.737  0.4644 -0.3894 -0.8970
   91SAPE  H16X 8977  -0.349   0.009   4.748  1.9193  1.3722  1.5106
   91SAPE  H16Y 8978  -0.288  -0.145   4.676  1.7111 -1.2718 -0.2489
   91SAPE  C317 8979  -0.137   0.014   4.678 -0.1353 -0.0568 -0.0345
   91SAPE  H17X 8980  -0.039  -0.036   4.696  0.3260  1.0549  0.7084
   91SAPE  H17Y 8981  -0.128   0.110   4.734  0.6856 -0.7073  0.9756
   91SAPE  C318 8982  -0.161   0.047   4.537  0.1521 -0.9474 -0.0257
   91SAPE  H18X 8983  -0.166  -0.042   4.471  1.4884  0.1165 -1.6796
   91SAPE  H18Y 8984  -0.082   0.113   4.494 -0.5797  0.0468  0.0949
   91SAPE  H18Z 8985  -0.258   0.097   4.517  1.7311  3.6119  2.3048
   92SAPE     N 8986   2.497   0.756   6.156 -0.0875 -0.1770 -0.6294
   92SAPE   HN1 8987   2.511   0.662   6.196  0.9231  1.3067  2.8358
   92SAPE   HN2 8988   2.594   0.785   6.131  0.3912 -0.9575  0.2955
   92SAPE   HN3 8989   2.468   0.815   6.236 -1.0363  0.8028 -1.6552
   92SAPE   C12 8990   2.393   0.764   6.048 -0.2746  0.1252  0.9070
   92SAPE  H12A 8991   2.435   0.696   5.970 -0.1938  1.4349 -0.2411
   92SAPE  H12B 8992   2.394   0.869   6.012  0.1450  0.2677  1.3397
   92SAPE   C11 8993   2.252   0.720   6.092 -0.1669  0.4925 -0.2850
   92SAPE  H11A 8994   2.264   0.610   6.102  0.2310  0.2385 -2.8550
   92SAPE  H11B 8995   2.173   0.729   6.014 -1.6736  0.1766  1.1585
   92SAPE     P 8996   2.222   0.726   6.355 -0.2787  0.4256 -0.1099
   92SAPE   O13 8997   2.359   0.688   6.379 -0.3049 -0.0714 -0.0994
   92SAPE   O14 8998   2.166   0.821   6.451 -0.8778 -0.6995  0.2504
   92SAPE   O12 8999   2.215   0.791   6.204 -0.6695 -0.5138  0.0653
   92SAPE   O11 9000   2.137   0.594   6.340 -0.4314  0.4365  0.3464
   92SAPE    C1 9001   2.005   0.577   6.393 -0.1028 -0.3747  0.9561
   92SAPE    HA 9002   1.992   0.467   6.405  1.2398 -0.6396  0.3188
   92SAPE    HB 9003   1.988   0.621   6.493 -2.9472  1.5947 -0.2801
   92SAPE    C2 9004   1.899   0.624   6.285 -0.1348  0.4936 -0.3959
   92SAPE    HS 9005   1.803   0.574   6.308  0.2224  0.3622  0.9296
   92SAPE   O21 9006   1.927   0.602   6.148 -0.4448 -0.3833  0.8996
   92SAPE   C21 9007   1.964   0.491   6.100  0.0786  0.2891  0.5903
   92SAPE   O22 9008   1.968   0.381   6.160  0.3018 -0.8000  0.7053
   92SAPE   C22 9009   1.993   0.519   5.955  0.1723  0.1358  0.3340
   92SAPE   H2R 9010   1.988   0.624   5.920  0.6026 -0.1821 -0.7536
   92SAPE   H2S 9011   2.097   0.485   5.935  0.0116  0.3213 -0.8814
   92SAPE    C3 9012   1.855   0.771   6.306 -0.0593  0.4185 -0.3184
   92SAPE    HX 9013   1.933   0.843   6.273  0.2910  0.7559  1.1593
   92SAPE    HY 9014   1.853   0.786   6.416 -1.6478 -1.2060 -0.0763
   92SAPE   O31 9015   1.737   0.804   6.234  0.6588 -0.1336 -0.1195
   92SAPE   C31 9016   1.626   0.822   6.301 -0.5569  0.7155  0.4530
   92SAPE   O32 9017   1.614   0.817   6.423  0.1175  0.1716  0.1638
   92SAPE   C32 9018   1.502   0.828   6.198  0.3991 -0.1749  0.1972
   92SAPE   H2X 9019   1.518   0.910   6.125  4.3183  0.2687  1.3293
   92SAPE   H2Y 9020   1.413   0.846   6.262  0.3058 -2.3004  0.7334
   92SAPE   C23 9021   1.906   0.427   5.859 -0.3059 -0.1139  0.0422
   92SAPE   H3R 9022   1.808   0.479   5.860  0.0938  0.6573  0.0145
   92SAPE   H3S 9023   1.901   0.332   5.916  0.8200 -0.1256  0.1333
   92SAPE   C24 9024   1.967   0.401   5.716 -0.1342 -0.0518  0.3428
   92SAPE   H4R 9025   1.907   0.318   5.672  0.0040 -1.0132  1.8885
   92SAPE   H4S 9026   2.070   0.361   5.705 -0.4112 -1.0327  1.0982
   92SAPE   C25 9027   1.944   0.529   5.641  0.3964  0.2173  0.1342
   92SAPE   H5R 9028   1.839   0.560   5.645  0.9766  2.2577  1.0085
   92SAPE   C26 9029   2.034   0.589   5.556  0.2804 -0.2993  0.1536
   92SAPE   H6R 9030   2.000   0.683   5.511  1.2263 -0.3629 -0.7414
   92SAPE   C27 9031   2.173   0.539   5.520 -0.1288  0.0093  0.5335
   92SAPE   H7R 9032   2.187   0.563   5.412 -2.1749 -0.6493  0.0751
   92SAPE   H7S 9033   2.173   0.428   5.526  1.8298 -0.0951 -0.5675
   92SAPE   C28 9034   2.275   0.600   5.610 -0.7154 -0.0465 -0.0072
   92SAPE   H8R 9035   2.244   0.613   5.715 -2.0655 -1.4560 -0.1931
   92SAPE   C29 9036   2.393   0.646   5.571 -0.0810 -0.3144 -0.8660
   92SAPE   H9R 9037   2.454   0.698   5.646 -0.8171  0.0413 -0.5037
   92SAPE  C210 9038   2.459   0.661   5.435 -0.3829 -0.4297 -0.6332
   92SAPE  H10R 9039   2.457   0.560   5.388  0.6586 -1.2006  0.8982
   92SAPE  H10S 9040   2.566   0.688   5.444 -0.8487  0.9947  1.0835
   92SAPE  C211 9041   2.390   0.767   5.352 -0.0998 -0.4839 -0.4212
   92SAPE  H11R 9042   2.390   0.865   5.402  1.9420 -0.6044 -0.0733
   92SAPE  C212 9043   2.357   0.762   5.223  0.0427  0.4883 -0.0925
   92SAPE  H12R 9044   2.320   0.855   5.177 -1.6745 -0.9457 -1.7886
   92SAPE  C213 9045   2.368   0.645   5.129  0.0639  0.0754  0.5332
   92SAPE  H13R 9046   2.310   0.561   5.171 -0.4782  0.3099  0.2698
   92SAPE  H13S 9047   2.472   0.609   5.117 -0.5218 -1.2875 -0.9196
   92SAPE  C214 9048   2.291   0.693   5.003  0.5618 -0.0021  0.5264
   92SAPE  H14R 9049   2.190   0.731   5.023  0.0124 -0.8652 -0.4886
   92SAPE  C215 9050   2.322   0.686   4.873 -0.4413  0.5696 -0.0348
   92SAPE  H15R 9051   2.256   0.726   4.794 -1.1212 -0.0299  0.2198
   92SAPE  C216 9052   2.451   0.649   4.815 -0.1088  0.4737 -0.1283
   92SAPE  H16R 9053   2.447   0.545   4.776 -0.4333 -0.4322  2.1520
   92SAPE  H16S 9054   2.529   0.639   4.893 -1.1177 -1.0873  0.7289
   92SAPE  C217 9055   2.513   0.740   4.704 -0.2576 -0.5249  0.0235
   92SAPE  H17R 9056   2.455   0.728   4.610  0.9557 -2.1056 -0.5642
   92SAPE  H17S 9057   2.620   0.719   4.686  0.1533  1.5829 -0.3309
   92SAPE  C218 9058   2.518   0.890   4.755  0.0871 -0.3566  0.5702
   92SAPE  H18R 9059   2.509   0.888   4.866 -4.6614 -0.3383  0.4082
   92SAPE  H18S 9060   2.417   0.934   4.742 -0.1286 -1.1161 -0.5451
   92SAPE  C219 9061   2.630   0.975   4.709  0.3540  0.6092 -0.8041
   92SAPE  H19R 9062   2.728   0.921   4.703  0.3135  0.6826 -2.5227
   92SAPE  H19S 9063   2.648   1.044   4.795  0.5653 -0.5119  0.0813
   92SAPE  C220 9064   2.603   1.048   4.573  0.2905 -0.0347 -0.2521
   92SAPE  H20R 9065   2.503   1.097   4.578 -0.2031 -1.1367  2.6361
   92SAPE  H20S 9066   2.586   0.984   4.484 -0.5874 -1.9766  1.2482
   92SAPE  H20T 9067   2.678   1.127   4.552 -1.2197  1.0977 -1.6264
   92SAPE   C33 9068   1.468   0.684   6.135 -0.2366  0.1547 -0.2544
   92SAPE   H3X 9069   1.358   0.668   6.126 -0.1204 -1.0470  0.2530
   92SAPE   H3Y 9070   1.492   0.606   6.210 -1.1246  1.1009  1.0653
   92SAPE   C34 9071   1.535   0.655   6.002  0.1976  0.2978 -0.4479
   92SAPE   H4X 9072   1.498   0.553   5.979  0.0570  0.4120 -0.7358
   92SAPE   H4Y 9073   1.644   0.662   6.022  0.5824 -1.2637 -1.7927
   92SAPE   C35 9074   1.489   0.750   5.895  0.1806 -0.2738  0.8948
   92SAPE   H5X 9075   1.508   0.850   5.939  3.5838 -1.2119  1.9233
   92SAPE   H5Y 9076   1.381   0.744   5.870  0.3725  0.0397 -0.0392
   92SAPE   C36 9077   1.568   0.724   5.767  0.3882 -0.3778 -0.1667
   92SAPE   H6X 9078   1.530   0.622   5.742 -0.2856  0.1061 -1.1593
   92SAPE   H6Y 9079   1.677   0.719   5.789  0.2993  1.0522  0.6929
   92SAPE   C37 9080   1.535   0.823   5.659 -0.4675 -0.3274 -0.0304
   92SAPE   H7X 9081   1.550   0.931   5.678  2.5472 -0.3311 -1.8467
   92SAPE   H7Y 9082   1.429   0.811   5.628 -0.6588 -0.5257  0.6798
   92SAPE   C38 9083   1.607   0.787   5.526  0.4281  0.1519  0.2896
   92SAPE   H8X 9084   1.590   0.678   5.512  1.4726 -0.1142  1.0064
   92SAPE   H8Y 9085   1.716   0.802   5.538  0.4067 -1.3323  3.2694
   92SAPE   C39 9086   1.554   0.866   5.398  0.1041  0.1325 -0.3614
   92SAPE   H9X 9087   1.564   0.972   5.432  0.7203 -0.0524  0.0564
   92SAPE   H9Y 9088   1.445   0.848   5.384  0.1662 -1.7282  1.1676
   92SAPE  C310 9089   1.638   0.831   5.277 -0.5997 -1.0213  0.6165
   92SAPE  H10X 9090   1.605   0.738   5.226 -0.3941 -0.2384 -1.0022
   92SAPE  H10Y 9091   1.747   0.814   5.296  0.2163  1.7193 -1.0794
   92SAPE  C311 9092   1.642   0.951   5.181  0.4074 -0.0402 -0.0205
   92SAPE  H11X 9093   1.695   1.028   5.241 -0.6644 -0.2264  1.2000
   92SAPE  H11Y 9094   1.536   0.972   5.157  0.2900 -2.2157 -1.7022
   92SAPE  C312 9095   1.722   0.936   5.051  0.2262 -0.0601  0.3391
   92SAPE  H12X 9096   1.830   0.921   5.071  0.2654 -3.7089 -1.6644
   92SAPE  H12Y 9097   1.718   1.029   4.990 -0.9651  0.6309  1.4456
   92SAPE  C313 9098   1.662   0.818   4.961  0.1771 -0.0593 -0.0945
   92SAPE  H13X 9099   1.552   0.813   4.975  0.4208  0.5215  2.7502
   92SAPE  H13Y 9100   1.702   0.720   4.996 -0.0048  0.0863  0.5429
   92SAPE  C314 9101   1.695   0.842   4.817  0.5768 -0.6730 -0.2183
   92SAPE  H14X 9102   1.663   0.945   4.789  0.6327 -0.7950 -0.7429
   92SAPE  H14Y 9103   1.638   0.769   4.756  1.0847  0.5290 -2.2329
   92SAPE  C315 9104   1.842   0.816   4.786  0.0358 -0.6056  0.2750
   92SAPE  H15X 9105   1.871   0.722   4.837  0.6236 -1.2222 -1.1294
   92SAPE  H15Y 9106   1.908   0.887   4.838  0.1441 -2.0546  2.2209
   92SAPE  C316 9107   1.869   0.815   4.632 -0.5114  0.1176 -0.1145
   92SAPE  H16X 9108   1.859   0.918   4.591  1.8125  0.5245  0.2214
   92SAPE  H16Y 9109   1.807   0.743   4.575  0.1889 -1.6591  1.2852
   92SAPE  C317 9110   2.014   0.763   4.604  0.2943 -0.3605 -0.1287
   92SAPE  H17X 9111   2.070   0.810   4.688 -1.6710 -0.0729  1.0931
   92SAPE  H17Y 9112   2.050   0.800   4.506  1.7034 -0.7085  0.2293
   92SAPE  C318 9113   2.027   0.609   4.610 -0.2844 -1.0445 -0.4302
   92SAPE  H18X 9114   2.019   0.583   4.718  3.4579 -2.9751 -0.4683
   92SAPE  H18Y 9115   2.125   0.568   4.578 -0.9785 -2.1683 -1.1836
   92SAPE  H18Z 9116   1.944   0.553   4.561  0.5595 -2.1544 -0.6212
   93SAPE     N 9117   4.470   0.494   6.673 -0.6300  0.0236  0.1019
   93SAPE   HN1 9118   4.436   0.564   6.605 -3.3946 -1.4052 -0.1191
   93SAPE   HN2 9119   4.405   0.503   6.753 -1.5374 -1.5318 -0.4131
   93SAPE   HN3 9120   4.570   0.514   6.694 -0.0102 -2.2432 -0.3715
   93SAPE   C12 9121   4.464   0.363   6.609 -0.3388 -0.0059  0.7154
   93SAPE  H12A 9122   4.359   0.335   6.589 -0.5285 -0.7145  2.4896
   93SAPE  H12B 9123   4.516   0.284   6.668  1.8140  0.2294 -0.7407
   93SAPE   C11 9124   4.564   0.365   6.486 -0.3279 -0.2061 -1.1125
   93SAPE  H11A 9125   4.530   0.452   6.426 -1.7209  1.5509  1.9317
   93SAPE  H11B 9126   4.554   0.274   6.424  0.3023 -0.2040 -1.2219
   93SAPE     P 9127   4.811   0.280   6.528  0.2861  0.0231  0.0414
   93SAPE   O13 9128   4.937   0.358   6.534  0.2973 -0.3464  0.3480
   93SAPE   O14 9129   4.796   0.193   6.646  0.0535  0.3081 -0.0016
   93SAPE   O12 9130   4.696   0.395   6.529 -0.5737  0.2995  0.1670
   93SAPE   O11 9131   4.795   0.191   6.400  0.3992 -0.0642  0.6452
   93SAPE    C1 9132   4.898   0.133   6.321 -0.4225  0.3117 -0.0335
   93SAPE    HA 9133   4.944   0.052   6.382 -2.0427 -0.2510  0.4768
   93SAPE    HB 9134   4.853   0.068   6.243 -0.5497  0.4963 -0.1134
   93SAPE    C2 9135   5.006   0.235   6.262 -0.1879 -0.0693 -0.5717
   93SAPE    HS 9136   5.054   0.284   6.350 -0.7436  0.9303 -0.8057
   93SAPE   O21 9137   4.941   0.327   6.175 -0.1057  0.5964 -0.3374
   93SAPE   C21 9138   5.000   0.447   6.170 -0.0605 -0.4474 -0.1380
   93SAPE   O22 9139   5.085   0.490   6.247  0.1154  0.0452  0.4724
   93SAPE   C22 9140   4.931   0.530   6.068 -1.1159 -0.3169  0.4619
   93SAPE   H2R 9141   4.905   0.463   5.983  0.4474  1.1106 -1.2424
   93SAPE   H2S 9142   4.831   0.559   6.108 -0.1443  0.4654  2.4171
   93SAPE    C3 9143   5.120   0.153   6.184 -0.5687 -0.1431  0.1650
   93SAPE    HX 9144   5.068   0.094   6.105 -0.8370  1.2923 -0.7794
   93SAPE    HY 9145   5.152   0.070   6.249  0.5064 -0.0990 -0.2853
   93SAPE   O31 9146   5.225   0.228   6.114 -0.3265 -0.1348 -0.1184
   93SAPE   C31 9147   5.321   0.263   6.197 -0.1167  0.0702  0.4520
   93SAPE   O32 9148   5.323   0.235   6.314 -0.5671 -1.3660 -0.3849
   93SAPE   C32 9149   5.413   0.358   6.114 -0.5262  0.0630 -0.0952
   93SAPE   H2X 9150   5.491   0.409   6.175 -3.0462  2.0807  1.7086
   93SAPE   H2Y 9151   5.341   0.435   6.077  0.5605  0.5447 -1.3027
   93SAPE   C23 9152   5.001   0.663   6.011 -0.2982  0.6390  0.3596
   93SAPE   H3R 9153   4.995   0.735   6.096  0.3428  2.5357 -1.1268
   93SAPE   H3S 9154   4.933   0.706   5.935 -0.7050 -0.1399  0.2736
   93SAPE   C24 9155   5.138   0.644   5.950 -0.0134  0.4179 -0.2730
   93SAPE   H4R 9156   5.212   0.602   6.021 -2.0030 -1.5345  0.7767
   93SAPE   H4S 9157   5.174   0.750   5.949  1.1205  0.0493 -1.6607
   93SAPE   C25 9158   5.151   0.559   5.831 -0.6876  0.8477  0.3424
   93SAPE   H5R 9159   5.118   0.455   5.842 -0.9389  0.6570 -1.7599
   93SAPE   C26 9160   5.219   0.599   5.719 -0.0439 -0.1646  0.1944
   93SAPE   H6R 9161   5.237   0.517   5.647  3.0674 -0.7015  1.4145
   93SAPE   C27 9162   5.258   0.735   5.689 -0.7323  0.0546 -0.0629
   93SAPE   H7R 9163   5.343   0.725   5.618 -0.9896  1.2880 -0.5755
   93SAPE   H7S 9164   5.287   0.796   5.777 -1.4862 -0.0202  0.2451
   93SAPE   C28 9165   5.141   0.811   5.626 -0.0680 -0.0391  0.5144
   93SAPE   H8R 9166   5.051   0.805   5.688 -0.0862  1.3783  0.6359
   93SAPE   C29 9167   5.124   0.864   5.505  0.0420 -0.1076  0.5852
   93SAPE   H9R 9168   5.020   0.891   5.484 -1.1346 -2.2047  3.1428
   93SAPE  C210 9169   5.230   0.864   5.402  0.1992  0.7750  0.4091
   93SAPE  H10R 9170   5.209   0.788   5.323 -0.0108  1.3580 -0.0989
   93SAPE  H10S 9171   5.329   0.824   5.434  0.1725 -0.7480 -1.2852
   93SAPE  C211 9172   5.257   0.994   5.339 -0.0331 -0.7267 -0.1695
   93SAPE  H11R 9173   5.321   1.062   5.396 -0.8656 -0.0099 -0.0744
   93SAPE  C212 9174   5.209   1.037   5.221 -0.4967  0.0068 -0.1550
   93SAPE  H12R 9175   5.235   1.138   5.188 -2.4223  0.9590  1.0468
   93SAPE  C213 9176   5.109   0.974   5.126 -0.0197  0.1483 -0.2960
   93SAPE  H13R 9177   5.007   0.958   5.168  0.0493 -0.4561 -0.3509
   93SAPE  H13S 9178   5.143   0.870   5.108 -3.5059 -1.6700  2.3707
   93SAPE  C214 9179   5.082   1.054   5.002 -1.0499  0.1147 -0.3125
   93SAPE  H14R 9180   5.033   1.151   5.021 -2.3649 -0.4234 -0.8696
   93SAPE  C215 9181   5.122   1.018   4.879 -0.0020  0.2957  0.2481
   93SAPE  H15R 9182   5.090   1.085   4.797  0.9763 -1.0278 -1.2670
   93SAPE  C216 9183   5.184   0.888   4.829 -1.2860  0.6907 -0.1215
   93SAPE  H16R 9184   5.139   0.794   4.870 -0.3136 -0.8601 -2.3956
   93SAPE  H16S 9185   5.289   0.879   4.862 -1.2101  0.4368 -0.4321
   93SAPE  C217 9186   5.188   0.888   4.672 -0.2162  0.7858  0.4525
   93SAPE  H17R 9187   5.085   0.889   4.631  0.1321  0.4360 -0.4653
   93SAPE  H17S 9188   5.234   0.788   4.654 -1.9389  0.2992 -1.6254
   93SAPE  C218 9189   5.279   0.992   4.613  0.4131 -0.2719 -0.6675
   93SAPE  H18R 9190   5.371   1.009   4.672  1.5522  0.1187 -2.4871
   93SAPE  H18S 9191   5.221   1.087   4.612 -1.1337 -1.0873  1.4574
   93SAPE  C219 9192   5.325   0.979   4.466 -0.4661  0.0676 -0.1645
   93SAPE  H19R 9193   5.415   0.914   4.469 -0.9667 -0.6979 -1.3543
   93SAPE  H19S 9194   5.348   1.081   4.427 -3.6823  1.1460  0.4427
   93SAPE  C220 9195   5.226   0.916   4.374  0.0120  0.0746  0.0494
   93SAPE  H20R 9196   5.274   0.894   4.275  1.1516  0.9728  0.3785
   93SAPE  H20S 9197   5.137   0.979   4.360 -0.0488  0.2824  1.2894
   93SAPE  H20T 9198   5.178   0.829   4.424 -1.0464  0.1641 -0.7926
   93SAPE   C33 9199   5.468   0.302   5.983 -0.1592  0.4971  0.4290
   93SAPE   H3X 9200   5.375   0.272   5.930  0.7053  1.9185 -2.0793
   93SAPE   H3Y 9201   5.526   0.210   6.006 -1.0574 -0.3278 -0.4772
   93SAPE   C34 9202   5.567   0.409   5.921  0.3909 -0.5961 -0.1056
   93SAPE   H4X 9203   5.656   0.417   5.987  0.1097  0.3837  0.1550
   93SAPE   H4Y 9204   5.518   0.508   5.925  3.5727  1.1554 -0.8267
   93SAPE   C35 9205   5.631   0.372   5.778  1.3453 -0.3417  0.0619
   93SAPE   H5X 9206   5.725   0.315   5.790  1.0625 -1.3486 -2.0209
   93SAPE   H5Y 9207   5.660   0.463   5.721 -0.3278  0.3623  0.2665
   93SAPE   C36 9208   5.529   0.291   5.698 -0.3156 -0.2919 -0.3026
   93SAPE   H6X 9209   5.437   0.346   5.727 -0.2046 -0.0896 -0.3334
   93SAPE   H6Y 9210   5.516   0.185   5.729 -2.2681  0.3628  1.3380
   93SAPE   C37 9211   5.554   0.297   5.546 -0.4144  0.2199  1.3856
   93SAPE   H7X 9212   5.647   0.238   5.530 -0.6166 -0.2254  1.8341
   93SAPE   H7Y 9213   5.579   0.402   5.519  1.9463 -0.3938  0.9583
   93SAPE   C38 9214   5.433   0.273   5.451 -0.1780  0.4900  0.6962
   93SAPE   H8X 9215   5.362   0.195   5.487 -0.1820 -1.2139 -2.6287
   93SAPE   H8Y 9216   5.482   0.226   5.363 -0.5156 -1.6910  1.6034
   93SAPE   C39 9217   5.371   0.402   5.383  0.2954 -0.1103  0.3375
   93SAPE   H9X 9218   5.446   0.480   5.362  2.2879 -1.7564  0.9471
   93SAPE   H9Y 9219   5.296   0.444   5.454  0.7668 -1.1994  1.5330
   93SAPE  C310 9220   5.295   0.381   5.253  0.2613  0.2143 -0.5777
   93SAPE  H10X 9221   5.227   0.294   5.270  3.3529 -2.0116  1.6190
   93SAPE  H10Y 9222   5.366   0.349   5.173  0.0747 -0.0153 -0.6543
   93SAPE  C311 9223   5.236   0.511   5.198 -0.1131 -0.0423  0.1130
   93SAPE  H11X 9224   5.325   0.577   5.200  0.2708 -0.4890 -1.1372
   93SAPE  H11Y 9225   5.160   0.550   5.270 -2.8291 -2.3750 -1.2782
   93SAPE  C312 9226   5.174   0.507   5.057  0.2533 -0.1187 -0.0538
   93SAPE  H12X 9227   5.133   0.607   5.030  1.9521 -0.1298 -3.2001
   93SAPE  H12Y 9228   5.079   0.449   5.057  1.0328 -1.4713 -1.5414
   93SAPE  C313 9229   5.273   0.462   4.945 -0.0746  0.3334  0.0125
   93SAPE  H13X 9230   5.217   0.465   4.849 -2.5399 -1.1713  1.2915
   93SAPE  H13Y 9231   5.302   0.355   4.958  2.8026  1.0569  0.1802
   93SAPE  C314 9232   5.397   0.555   4.940  0.2506  0.3532  0.2394
   93SAPE  H14X 9233   5.469   0.530   5.021  1.8925 -0.4024 -1.3873
   93SAPE  H14Y 9234   5.359   0.659   4.939 -0.1058  0.2295  0.5918
   93SAPE  C315 9235   5.484   0.532   4.820  0.8695  0.6344 -0.8481
   93SAPE  H15X 9236   5.521   0.427   4.830  1.8950  0.8375 -2.3369
   93SAPE  H15Y 9237   5.582   0.584   4.823  0.8446  0.7870 -2.1600
   93SAPE  C316 9238   5.418   0.534   4.680  0.2876 -0.3666  0.8003
   93SAPE  H16X 9239   5.493   0.595   4.625 -0.8112  2.8757  2.6819
   93SAPE  H16Y 9240   5.318   0.580   4.690  0.1727 -0.3451 -0.3835
   93SAPE  C317 9241   5.389   0.393   4.613  0.0924 -0.1901 -0.1908
   93SAPE  H17X 9242   5.319   0.348   4.686 -1.3515  1.8397 -0.2429
   93SAPE  H17Y 9243   5.479   0.327   4.615  2.1607  2.3787  3.0113
   93SAPE  C318 9244   5.322   0.408   4.475 -0.7608  0.4161  0.1285
   93SAPE  H18X 9245   5.386   0.450   4.394 -3.0650 -0.1986 -2.1700
   93SAPE  H18Y 9246   5.242   0.483   4.493 -0.6259  0.6391 -0.1814
   93SAPE  H18Z 9247   5.283   0.311   4.436 -2.4450  0.5566  1.3389
   94SAPE     N 9248   2.931   1.440   6.644 -0.3350  0.0203  0.6812
   94SAPE   HN1 9249   3.016   1.382   6.660 -2.2085 -3.7191 -1.5442
   94SAPE   HN2 9250   2.948   1.537   6.677  0.7478  0.8430 -2.0082
   94SAPE   HN3 9251   2.854   1.398   6.700 -0.9004 -1.0124 -0.8113
   94SAPE   C12 9252   2.874   1.434   6.504 -0.2226 -0.5377 -0.6177
   94SAPE  H12A 9253   2.848   1.328   6.485 -2.1083 -0.3506  0.6711
   94SAPE  H12B 9254   2.938   1.481   6.426  1.1723  0.4941  1.0576
   94SAPE   C11 9255   2.741   1.510   6.507  0.4428  0.6341 -0.1210
   94SAPE  H11A 9256   2.736   1.536   6.399  3.5436 -1.3623 -0.8990
   94SAPE  H11B 9257   2.749   1.607   6.559 -1.1296  0.0359  1.3322
   94SAPE     P 9258   2.538   1.348   6.465 -0.2654  0.2746 -0.1245
   94SAPE   O13 9259   2.580   1.204   6.480 -0.3390 -0.4926  0.3439
   94SAPE   O14 9260   2.392   1.368   6.489 -0.0470  0.1862  0.0640
   94SAPE   O12 9261   2.624   1.440   6.561  0.0548  0.0154  0.0058
   94SAPE   O11 9262   2.576   1.398   6.321  0.0468  0.0865 -0.0260
   94SAPE    C1 9263   2.488   1.385   6.205  0.1985 -0.4033  0.1301
   94SAPE    HA 9264   2.528   1.323   6.121 -1.1853  0.0050 -0.8698
   94SAPE    HB 9265   2.400   1.329   6.242  1.4934 -1.5900  1.5758
   94SAPE    C2 9266   2.424   1.518   6.153 -0.9779  0.1115 -0.2365
   94SAPE    HS 9267   2.332   1.507   6.092 -2.2902  0.5969  1.5676
   94SAPE   O21 9268   2.528   1.567   6.066 -0.8882 -1.0482 -1.2232
   94SAPE   C21 9269   2.519   1.522   5.948  0.6397  0.7452  1.1049
   94SAPE   O22 9270   2.441   1.433   5.909  0.1576 -0.0618 -0.4680
   94SAPE   C22 9271   2.616   1.598   5.854 -0.8070  0.0860 -0.1957
   94SAPE   H2R 9272   2.588   1.703   5.876 -0.8896 -0.3846  2.3081
   94SAPE   H2S 9273   2.710   1.562   5.901 -1.7677  0.3753  2.0939
   94SAPE    C3 9274   2.406   1.628   6.267  0.9220  0.3218 -0.0144
   94SAPE    HX 9275   2.508   1.669   6.280  1.1902 -0.0725 -0.8701
   94SAPE    HY 9276   2.365   1.582   6.360  0.5892  3.1632  1.3576
   94SAPE   O31 9277   2.317   1.728   6.220  0.2359 -0.1948 -0.5364
   94SAPE   C31 9278   2.358   1.817   6.138 -0.0447 -0.0250 -0.1494
   94SAPE   O32 9279   2.471   1.846   6.106 -0.3613 -0.1380 -0.3325
   94SAPE   C32 9280   2.229   1.868   6.071 -0.3773 -0.0128  0.2731
   94SAPE   H2X 9281   2.145   1.874   6.143  1.5873  3.9731  2.5854
   94SAPE   H2Y 9282   2.200   1.782   6.006  1.7378 -0.6774  0.1079
   94SAPE   C23 9283   2.596   1.558   5.706 -0.6110  0.0756 -0.8756
   94SAPE   H3R 9284   2.496   1.567   5.660 -0.3225 -2.7576 -2.2675
   94SAPE   H3S 9285   2.623   1.451   5.698 -1.1107 -0.2718  1.4159
   94SAPE   C24 9286   2.702   1.627   5.614 -0.3278 -0.3633 -0.0877
   94SAPE   H4R 9287   2.804   1.621   5.656  0.8591  0.0084 -2.6760
   94SAPE   H4S 9288   2.675   1.734   5.601 -0.5695 -0.4417 -0.2339
   94SAPE   C25 9289   2.733   1.553   5.490  0.1428 -1.0248  0.9745
   94SAPE   H5R 9290   2.778   1.454   5.502  1.2185 -1.0857 -2.4303
   94SAPE   C26 9291   2.687   1.593   5.367 -0.0881 -0.2490  0.3275
   94SAPE   H6R 9292   2.722   1.534   5.281  0.1927 -0.5251  0.6296
   94SAPE   C27 9293   2.624   1.719   5.334 -0.7064  0.0164  0.0015
   94SAPE   H7R 9294   2.707   1.781   5.293  0.5911  0.4603  3.0386
   94SAPE   H7S 9295   2.593   1.776   5.424 -1.6585 -1.1144  0.4124
   94SAPE   C28 9296   2.507   1.710   5.247 -0.4590 -0.2975  0.1398
   94SAPE   H8R 9297   2.426   1.665   5.307 -2.9971  1.2698 -1.8688
   94SAPE   C29 9298   2.490   1.753   5.123 -0.3843 -0.8420  0.5110
   94SAPE   H9R 9299   2.390   1.738   5.080  0.0331 -0.0405 -0.8000
   94SAPE  C210 9300   2.595   1.813   5.027  0.1536  0.0291  0.0292
   94SAPE  H10R 9301   2.577   1.765   4.928 -1.9603  0.1088  0.3330
   94SAPE  H10S 9302   2.698   1.780   5.052  0.8787  2.5459  0.6969
   94SAPE  C211 9303   2.604   1.966   5.027  0.3195 -0.4015  0.7138
   94SAPE  H11R 9304   2.621   2.021   5.121  1.0953  0.7100 -0.0556
   94SAPE  C212 9305   2.606   2.045   4.912 -0.5794  0.7615 -0.0407
   94SAPE  H12R 9306   2.622   2.151   4.936  0.6522  0.4752  0.4940
   94SAPE  C213 9307   2.566   1.994   4.770  0.1525  0.8259 -0.4189
   94SAPE  H13R 9308   2.481   1.924   4.786  1.0991 -0.0536  0.9858
   94SAPE  H13S 9309   2.648   1.936   4.723 -0.9454 -0.6761 -0.5403
   94SAPE  C214 9310   2.530   2.107   4.672 -0.0883  0.3087  0.1268
   94SAPE  H14R 9311   2.512   2.206   4.717 -0.4183  0.1457  0.3634
   94SAPE  C215 9312   2.521   2.102   4.535  0.0278 -0.0947  0.3153
   94SAPE  H15R 9313   2.487   2.191   4.480  1.0572  0.6354  0.8434
   94SAPE  C216 9314   2.534   1.970   4.454  0.4373  0.4552 -0.3731
   94SAPE  H16R 9315   2.462   1.974   4.369  0.6489  0.0636 -0.5750
   94SAPE  H16S 9316   2.510   1.873   4.502  1.3368  0.7268  0.6453
   94SAPE  C217 9317   2.671   1.934   4.395 -0.2417  0.1098 -0.2280
   94SAPE  H17R 9318   2.668   1.854   4.317 -0.0607 -0.3200  0.1981
   94SAPE  H17S 9319   2.724   1.892   4.483  0.5359  2.7713  0.6476
   94SAPE  C218 9320   2.745   2.057   4.344  0.5621  0.0409  0.4509
   94SAPE  H18R 9321   2.744   2.141   4.417  1.7523  1.9241 -1.5729
   94SAPE  H18S 9322   2.685   2.096   4.259  0.0505  0.0447  0.8124
   94SAPE  C219 9323   2.882   2.041   4.293  0.6902 -0.2944  0.0315
   94SAPE  H19R 9324   2.879   1.985   4.197  5.0676  2.7182 -2.1913
   94SAPE  H19S 9325   2.939   1.985   4.370 -2.3254 -2.2625  1.0209
   94SAPE  C220 9326   2.946   2.170   4.255  0.1865 -0.7220 -0.1203
   94SAPE  H20R 9327   2.906   2.214   4.160 -1.7666 -0.8106  0.6166
   94SAPE  H20S 9328   3.055   2.152   4.242  0.0840 -0.5145 -1.4486
   94SAPE  H20T 9329   2.946   2.241   4.340  0.7178  0.4735 -1.0845
   94SAPE   C33 9330   2.222   1.985   5.978 -0.2901 -1.2040  0.5136
   94SAPE   H3X 9331   2.239   2.078   6.036  0.2531  0.8190 -2.6208
   94SAPE   H3Y 9332   2.125   1.998   5.925  0.7943  0.3379 -1.2606
   94SAPE   C34 9333   2.323   1.982   5.858 -0.3080  0.3673  0.1432
   94SAPE   H4X 9334   2.307   1.892   5.794  1.6691  1.0092 -1.3223
   94SAPE   H4Y 9335   2.422   1.957   5.900  0.4334 -0.1085 -1.7849
   94SAPE   C35 9336   2.346   2.104   5.766  0.1060  1.0591 -0.2167
   94SAPE   H5X 9337   2.452   2.102   5.734  0.0289  2.3322 -0.6130
   94SAPE   H5Y 9338   2.331   2.199   5.823  0.0611  1.3265 -0.6635
   94SAPE   C36 9339   2.255   2.111   5.641 -0.2594 -0.6577 -0.0182
   94SAPE   H6X 9340   2.147   2.120   5.664 -0.6570 -1.6322 -1.3322
   94SAPE   H6Y 9341   2.253   2.015   5.584 -0.3408 -0.9427  0.4628
   94SAPE   C37 9342   2.305   2.211   5.532  0.3175 -0.4983 -0.8294
   94SAPE   H7X 9343   2.415   2.197   5.534  0.4441  0.4346  1.7071
   94SAPE   H7Y 9344   2.274   2.312   5.565 -0.6508  0.7810 -5.0712
   94SAPE   C38 9345   2.242   2.194   5.395 -0.5805  0.5405  0.4209
   94SAPE   H8X 9346   2.260   2.285   5.334  2.7219  0.8851  1.7133
   94SAPE   H8Y 9347   2.131   2.195   5.404 -0.4983 -0.2139  1.6809
   94SAPE   C39 9348   2.301   2.074   5.327 -0.1523 -0.1314  0.0107
   94SAPE   H9X 9349   2.303   1.984   5.391  1.7284 -0.2513 -0.1491
   94SAPE   H9Y 9350   2.407   2.107   5.316  0.2808 -1.3959  0.2541
   94SAPE  C310 9351   2.254   2.046   5.181 -0.5687 -0.0959  0.1225
   94SAPE  H10X 9352   2.149   2.010   5.180 -0.0697 -1.6324  0.8117
   94SAPE  H10Y 9353   2.315   1.968   5.131 -1.0150 -0.7908  0.6472
   94SAPE  C311 9354   2.268   2.168   5.090 -0.0025 -0.3405 -0.6956
   94SAPE  H11X 9355   2.376   2.192   5.080  0.1811 -1.4390 -1.5370
   94SAPE  H11Y 9356   2.212   2.257   5.126  0.3266  1.1420 -3.5784
   94SAPE  C312 9357   2.221   2.140   4.949  0.2143  0.7543 -0.2442
   94SAPE  H12X 9358   2.131   2.077   4.940  1.4330 -1.0206 -0.5204
   94SAPE  H12Y 9359   2.294   2.078   4.893 -0.2406  0.7703 -0.8603
   94SAPE  C313 9360   2.194   2.268   4.873  0.1125  0.2108  0.0665
   94SAPE  H13X 9361   2.294   2.312   4.851  0.2635  0.2534  0.8274
   94SAPE  H13Y 9362   2.133   2.342   4.929 -0.6293 -1.0083  0.9189
   94SAPE  C314 9363   2.126   2.235   4.736 -0.8424  0.4177 -0.4353
   94SAPE  H14X 9364   2.039   2.166   4.735  0.0808 -0.7628 -1.3048
   94SAPE  H14Y 9365   2.209   2.188   4.678 -1.4514  1.4415 -2.2253
   94SAPE  C315 9366   2.080   2.360   4.665 -0.3594  0.2673  1.0855
   94SAPE  H15X 9367   2.165   2.423   4.631 -1.8506  2.0330  0.4804
   94SAPE  H15Y 9368   2.021   2.426   4.732  0.0588 -0.3784  2.1257
   94SAPE  C316 9369   1.993   2.319   4.542 -0.7470 -0.3916 -0.8002
   94SAPE  H16X 9370   1.908   2.256   4.575 -1.0569 -0.0555 -0.9473
   94SAPE  H16Y 9371   2.047   2.249   4.475 -1.3983  1.1407 -3.0349
   94SAPE  C317 9372   1.942   2.433   4.464  0.5936 -0.6402  0.2487
   94SAPE  H17X 9373   1.870   2.485   4.531  1.4909  1.0124 -0.0309
   94SAPE  H17Y 9374   1.885   2.381   4.384 -0.1541 -0.3050  0.5499
   94SAPE  C318 9375   2.039   2.526   4.398 -0.1418  1.0168 -0.2875
   94SAPE  H18X 9376   2.118   2.481   4.333 -0.8929  2.8575 -2.6092
   94SAPE  H18Y 9377   2.084   2.591   4.476  1.1081 -0.3272  0.1647
   94SAPE  H18Z 9378   1.983   2.590   4.327  0.3542  1.5460 -0.2039
   95SAPE     N 9379   0.196   1.364   6.921  0.0694 -0.8985  0.4289
   95SAPE   HN1 9380   0.210   1.444   6.857  1.7209  0.6465  2.5760
   95SAPE   HN2 9381   0.097   1.345   6.893  0.4665 -0.9371 -1.0392
   95SAPE   HN3 9382   0.200   1.411   7.014  1.6110  0.4537 -0.2821
   95SAPE   C12 9383   0.297   1.251   6.893  0.3193 -0.0648 -0.1043
   95SAPE  H12A 9384   0.253   1.163   6.944  1.1560 -1.2014 -1.2734
   95SAPE  H12B 9385   0.395   1.276   6.939 -0.4285  0.4313  1.2736
   95SAPE   C11 9386   0.311   1.221   6.743  0.1685 -0.1291 -0.1044
   95SAPE  H11A 9387   0.233   1.277   6.688  0.8132  2.5268  1.4940
   95SAPE  H11B 9388   0.281   1.114   6.731 -2.2494  0.6188 -1.3619
   95SAPE     P 9389   0.521   1.331   6.610 -0.0618 -0.4700  0.3885
   95SAPE   O13 9390   0.506   1.458   6.685 -0.2191 -0.0334  0.1085
   95SAPE   O14 9391   0.656   1.280   6.588 -0.0909 -0.2188  0.2626
   95SAPE   O12 9392   0.443   1.221   6.687  0.4575 -0.3763  0.0679
   95SAPE   O11 9393   0.449   1.348   6.469  0.2755  0.1727  0.6923
   95SAPE    C1 9394   0.424   1.227   6.398  0.5298 -0.0501 -0.4936
   95SAPE    HA 9395   0.353   1.161   6.452 -0.5392  0.1173 -1.6746
   95SAPE    HB 9396   0.352   1.248   6.317  0.3682  1.0916 -0.0648
   95SAPE    C2 9397   0.542   1.153   6.322 -0.1002  0.0239  0.3693
   95SAPE    HS 9398   0.618   1.120   6.396  0.0948 -0.6700 -0.1370
   95SAPE   O21 9399   0.604   1.238   6.224 -0.1055  0.3533  0.3462
   95SAPE   C21 9400   0.731   1.230   6.208  0.3594 -0.1939 -0.6374
   95SAPE   O22 9401   0.807   1.151   6.264 -0.1611 -0.1157 -0.5883
   95SAPE   C22 9402   0.774   1.317   6.089 -0.2775 -0.0516 -0.5236
   95SAPE   H2R 9403   0.760   1.251   6.001  0.8195 -0.3958 -0.4562
   95SAPE   H2S 9404   0.695   1.393   6.072  1.8322  2.1342 -1.0764
   95SAPE    C3 9405   0.504   1.028   6.251 -0.3204 -0.3492 -0.5331
   95SAPE    HX 9406   0.456   0.972   6.335  1.9276 -1.3513  0.1688
   95SAPE    HY 9407   0.600   0.976   6.230 -0.1091 -0.4162  0.5224
   95SAPE   O31 9408   0.411   1.042   6.143  0.5628  0.0706  0.2399
   95SAPE   C31 9409   0.461   1.045   6.019 -0.4624 -0.1276  0.4136
   95SAPE   O32 9410   0.579   1.025   5.989 -0.3010  0.3728 -0.6566
   95SAPE   C32 9411   0.352   1.069   5.908  0.4074 -0.2356 -0.2187
   95SAPE   H2X 9412   0.316   1.174   5.912 -0.1342 -0.4137 -0.3656
   95SAPE   H2Y 9413   0.267   1.004   5.937 -0.8509  1.2156 -0.5331
   95SAPE   C23 9414   0.921   1.372   6.100  0.3348  0.2570 -0.0948
   95SAPE   H3R 9415   0.989   1.290   6.129  0.1153  0.1025 -0.0122
   95SAPE   H3S 9416   0.915   1.439   6.189 -1.8658 -0.6391  0.5030
   95SAPE   C24 9417   0.948   1.463   5.985  0.2610  0.6009  0.2155
   95SAPE   H4R 9418   1.017   1.539   6.026  1.7447 -0.7973  0.4418
   95SAPE   H4S 9419   0.852   1.508   5.954 -0.1867  0.4334  1.3229
   95SAPE   C25 9420   1.019   1.395   5.873  0.0579  0.5688 -0.1181
   95SAPE   H5R 9421   1.120   1.360   5.896 -0.5344 -1.2030 -0.0562
   95SAPE   C26 9422   0.973   1.380   5.746 -0.2052  0.3927  0.4008
   95SAPE   H6R 9423   1.037   1.347   5.663 -3.6771 -2.0893 -1.5542
   95SAPE   C27 9424   0.842   1.412   5.690  0.0123 -0.0040  0.5170
   95SAPE   H7R 9425   0.770   1.453   5.765  0.2690  1.7079 -0.1251
   95SAPE   H7S 9426   0.794   1.325   5.642  0.9528  0.8473 -2.1044
   95SAPE   C28 9427   0.841   1.521   5.582  0.1610  0.5421  0.5231
   95SAPE   H8R 9428   0.897   1.612   5.608 -0.3112  1.0317 -0.1363
   95SAPE   C29 9429   0.766   1.527   5.473  0.2919 -0.6865  0.2746
   95SAPE   H9R 9430   0.804   1.602   5.402  0.8746 -1.1260  0.1199
   95SAPE  C210 9431   0.666   1.427   5.422  0.0211 -0.3778 -0.2838
   95SAPE  H10R 9432   0.564   1.467   5.442 -0.1458 -1.3364  0.9043
   95SAPE  H10S 9433   0.665   1.336   5.486  0.6220  0.4483  0.9357
   95SAPE  C211 9434   0.691   1.392   5.274 -0.5844 -0.5597 -0.0275
   95SAPE  H11R 9435   0.769   1.319   5.250 -1.1470 -1.3078  0.3697
   95SAPE  C212 9436   0.620   1.442   5.176 -0.0933 -0.5993 -0.2341
   95SAPE  H12R 9437   0.647   1.417   5.072 -3.1470  2.0971 -1.8580
   95SAPE  C213 9438   0.512   1.542   5.179  0.9213 -0.0163 -0.3712
   95SAPE  H13R 9439   0.438   1.519   5.258  1.4578 -0.6780 -0.0551
   95SAPE  H13S 9440   0.461   1.531   5.081 -2.0025 -1.7215  1.2317
   95SAPE  C214 9441   0.559   1.683   5.205  0.2910 -0.7820 -0.9488
   95SAPE  H14R 9442   0.648   1.687   5.270 -1.4804  0.3412  1.5678
   95SAPE  C215 9443   0.503   1.793   5.146 -0.6799  0.0865 -0.3924
   95SAPE  H15R 9444   0.545   1.893   5.162  0.9182 -0.8508  1.7450
   95SAPE  C216 9445   0.383   1.792   5.058  0.3095 -0.2828 -0.1624
   95SAPE  H16R 9446   0.310   1.855   5.112  0.1965 -0.0811 -0.5469
   95SAPE  H16S 9447   0.342   1.688   5.059  0.9497 -0.5426 -0.2314
   95SAPE  C217 9448   0.399   1.839   4.907 -0.2930  0.3162  0.5109
   95SAPE  H17R 9449   0.311   1.799   4.852  0.4977 -0.6681 -0.0593
   95SAPE  H17S 9450   0.489   1.785   4.872 -0.4917 -0.8373  1.7134
   95SAPE  C218 9451   0.416   1.988   4.885  0.4281  0.6020  0.0563
   95SAPE  H18R 9452   0.509   2.023   4.933 -0.1977  0.7650  1.1996
   95SAPE  H18S 9453   0.341   2.047   4.941  1.2440  0.8412  0.9189
   95SAPE  C219 9454   0.420   2.025   4.734 -0.4498  0.1630 -0.6244
   95SAPE  H19R 9455   0.412   2.136   4.733  0.3946  0.2597  0.7913
   95SAPE  H19S 9456   0.330   1.985   4.681 -2.1896  0.6654  1.7580
   95SAPE  C220 9457   0.553   1.972   4.678  0.0334 -0.7329 -0.6364
   95SAPE  H20R 9458   0.541   1.873   4.627 -0.4920 -0.9797 -0.0410
   95SAPE  H20S 9459   0.626   1.964   4.762 -2.4952 -4.2144  1.5137
   95SAPE  H20T 9460   0.598   2.051   4.615  2.1257 -1.3637 -0.0235
   95SAPE   C33 9461   0.404   1.046   5.770  0.2184 -0.1589 -0.1281
   95SAPE   H3X 9462   0.442   0.941   5.768  0.0461 -0.2437  0.6316
   95SAPE   H3Y 9463   0.491   1.110   5.747 -0.1783  0.4968  0.1738
   95SAPE   C34 9464   0.287   1.055   5.661 -0.2234 -0.6357 -0.2990
   95SAPE   H4X 9465   0.243   1.156   5.666  3.3162  1.1342 -1.3798
   95SAPE   H4Y 9466   0.200   0.992   5.687 -0.8859 -0.8487 -2.7081
   95SAPE   C35 9467   0.341   1.031   5.514 -0.3559  0.1539  0.4130
   95SAPE   H5X 9468   0.349   0.921   5.499  2.7028  0.3753 -0.3172
   95SAPE   H5Y 9469   0.448   1.059   5.504 -0.1634 -0.9995 -1.1538
   95SAPE   C36 9470   0.240   1.084   5.400 -0.2938  0.6650  0.5839
   95SAPE   H6X 9471   0.190   1.177   5.435 -1.0524  0.4796  0.0375
   95SAPE   H6Y 9472   0.163   1.006   5.387  0.1554  0.0038  1.7778
   95SAPE   C37 9473   0.313   1.100   5.271  0.2940 -0.2255  0.2811
   95SAPE   H7X 9474   0.349   1.002   5.236  3.2972  0.7465  0.3446
   95SAPE   H7Y 9475   0.411   1.148   5.293  0.4783 -1.0743  1.3606
   95SAPE   C38 9476   0.236   1.175   5.162 -0.3752 -0.0276 -1.0021
   95SAPE   H8X 9477   0.200   1.268   5.211 -1.5531 -0.9636 -0.0366
   95SAPE   H8Y 9478   0.152   1.118   5.119  0.4342 -0.8276 -1.5729
   95SAPE   C39 9479   0.329   1.218   5.049 -0.1964 -0.6380 -0.2990
   95SAPE   H9X 9480   0.391   1.132   5.017 -2.0859 -1.5485 -1.7192
   95SAPE   H9Y 9481   0.402   1.298   5.074  0.1227 -1.3158  1.0240
   95SAPE  C310 9482   0.256   1.261   4.921  0.9378  0.4702 -0.0183
   95SAPE  H10X 9483   0.186   1.176   4.904  0.6613  0.6403  0.2626
   95SAPE  H10Y 9484   0.326   1.260   4.835 -0.3255  0.1839 -1.0601
   95SAPE  C311 9485   0.181   1.394   4.918  0.7489 -0.0003 -0.4985
   95SAPE  H11X 9486   0.256   1.458   4.866  0.5900  1.4404  0.9733
   95SAPE  H11Y 9487   0.196   1.424   5.023  0.1204  0.7632 -0.6121
   95SAPE  C312 9488   0.038   1.401   4.865  0.3917  0.1081  0.3155
   95SAPE  H12X 9489   0.003   1.506   4.871 -1.0650 -0.4251  2.0892
   95SAPE  H12Y 9490  -0.018   1.341   4.940  0.1924  1.4441  1.2562
   95SAPE  C313 9491   0.031   1.345   4.723  0.7599  0.3651 -0.0208
   95SAPE  H13X 9492   0.116   1.273   4.719 -0.6980 -1.4650  0.6167
   95SAPE  H13Y 9493   0.034   1.426   4.647 -0.1144  1.0064  0.6065
   95SAPE  C314 9494  -0.097   1.264   4.695 -0.2899 -0.1168 -0.2123
   95SAPE  H14X 9495  -0.187   1.328   4.684 -1.4127 -1.7828 -1.0217
   95SAPE  H14Y 9496  -0.124   1.196   4.779 -0.5783  0.7193  0.3982
   95SAPE  C315 9497  -0.089   1.173   4.574 -0.1270  0.1370  0.5911
   95SAPE  H15X 9498   0.013   1.130   4.578  0.6845  1.7535 -1.4343
   95SAPE  H15Y 9499  -0.085   1.238   4.484  0.1994 -0.3896  0.2213
   95SAPE  C316 9500  -0.206   1.066   4.563  0.1100 -0.2736  0.2168
   95SAPE  H16X 9501  -0.308   1.108   4.577  0.6214  0.1682  3.6362
   95SAPE  H16Y 9502  -0.204   0.999   4.653 -0.8570  1.5165  1.6255
   95SAPE  C317 9503  -0.188   0.989   4.438 -0.1330  0.2051 -0.4280
   95SAPE  H17X 9504  -0.091   0.935   4.434 -0.2790 -0.0919 -0.0449
   95SAPE  H17Y 9505  -0.213   1.053   4.351 -1.1515 -2.9093 -2.5947
   95SAPE  C318 9506  -0.296   0.882   4.430 -0.1729  0.5134  0.6995
   95SAPE  H18X 9507  -0.300   0.817   4.340 -1.7761  0.7538  0.5763
   95SAPE  H18Y 9508  -0.388   0.943   4.442  0.8110  2.8050 -2.3231
   95SAPE  H18Z 9509  -0.294   0.808   4.513 -0.7186  0.7271  0.9041
   96SAPE     N 9510   2.089   4.145   6.650  0.8089  0.0488  0.1851
   96SAPE   HN1 9511   2.079   4.110   6.747 -0.6710 -1.6605 -0.5175
   96SAPE   HN2 9512   2.171   4.207   6.634 -0.2349  0.8085 -3.0305
   96SAPE   HN3 9513   2.012   4.207   6.619  0.6829  0.0196  0.4414
   96SAPE   C12 9514   2.097   4.032   6.545  0.2737 -0.8243 -0.2290
   96SAPE  H12A 9515   2.164   3.956   6.589  2.0290 -0.4616 -2.1528
   96SAPE  H12B 9516   2.137   4.066   6.448 -1.0016 -0.7037 -0.7296
   96SAPE   C11 9517   1.957   3.976   6.503  0.2551  0.3484 -0.3203
   96SAPE  H11A 9518   1.900   3.927   6.586 -0.6110  1.4206 -0.2536
   96SAPE  H11B 9519   1.973   3.902   6.422 -1.8504 -1.1159  0.4705
   96SAPE     P 9520   1.726   4.070   6.422  0.3418  0.0730  0.3720
   96SAPE   O13 9521   1.659   4.065   6.549  0.2959 -0.0956 -0.2834
   96SAPE   O14 9522   1.686   4.177   6.329  0.7309  0.0907  0.9204
   96SAPE   O12 9523   1.876   4.079   6.458 -0.1842 -0.1077  0.1078
   96SAPE   O11 9524   1.720   3.928   6.355 -0.5314  0.2220 -0.2598
   96SAPE    C1 9525   1.701   3.904   6.220  0.3883  0.3290 -0.0196
   96SAPE    HA 9526   1.659   3.801   6.219  1.4994 -0.1475 -1.2563
   96SAPE    HB 9527   1.650   3.988   6.167  1.1343  0.4743 -0.5326
   96SAPE    C2 9528   1.839   3.886   6.155 -0.3972 -0.2189 -0.0466
   96SAPE    HS 9529   1.898   3.823   6.225  1.5687  1.9162  0.3753
   96SAPE   O21 9530   1.890   4.021   6.153  0.4125  0.3848  0.2386
   96SAPE   C21 9531   2.016   4.045   6.159 -0.2233  0.1373 -0.4665
   96SAPE   O22 9532   2.107   3.967   6.180 -0.2456  0.2042 -0.3564
   96SAPE   C22 9533   2.037   4.206   6.160  0.1768  0.5367  0.2026
   96SAPE   H2R 9534   1.972   4.248   6.079  1.8580  1.2875 -0.8189
   96SAPE   H2S 9535   2.003   4.241   6.259 -3.6854  0.3972 -0.9095
   96SAPE    C3 9536   1.833   3.827   6.018 -0.2644 -0.0853  0.7387
   96SAPE    HX 9537   1.769   3.739   6.040  1.2701 -0.9639  1.8733
   96SAPE    HY 9538   1.936   3.790   5.998 -0.3779  0.8775 -2.2218
   96SAPE   O31 9539   1.781   3.923   5.912  0.0966 -0.0369 -1.1117
   96SAPE   C31 9540   1.678   3.874   5.842  0.6246 -0.4255 -0.1286
   96SAPE   O32 9541   1.621   3.768   5.860  0.4877  0.0631  0.3984
   96SAPE   C32 9542   1.639   3.977   5.743  0.1895 -0.2034  0.4094
   96SAPE   H2X 9543   1.735   4.018   5.704  1.0999 -0.2689  2.4701
   96SAPE   H2Y 9544   1.581   4.061   5.787  0.8022 -0.8676  2.5776
   96SAPE   C23 9545   2.179   4.258   6.127  0.0933  0.3249  0.2611
   96SAPE   H3R 9546   2.257   4.219   6.195 -0.7662 -0.6179  0.7413
   96SAPE   H3S 9547   2.168   4.366   6.148 -1.4655  0.5366 -1.4166
   96SAPE   C24 9548   2.221   4.245   5.977  0.0084  0.4512 -0.4089
   96SAPE   H4R 9549   2.319   4.297   5.973  0.9234 -0.9402  1.9727
   96SAPE   H4S 9550   2.142   4.291   5.913 -0.3585  0.1933 -0.1495
   96SAPE   C25 9551   2.254   4.103   5.937 -0.5855 -0.5046 -0.0759
   96SAPE   H5R 9552   2.318   4.056   6.013 -1.0867  0.7236  1.1399
   96SAPE   C26 9553   2.211   4.037   5.829 -0.8835  0.2192  0.4328
   96SAPE   H6R 9554   2.247   3.935   5.809  1.3426  0.9786  0.2379
   96SAPE   C27 9555   2.103   4.077   5.734 -0.3734  0.1604 -0.2110
   96SAPE   H7R 9556   2.043   4.160   5.777 -0.9222  0.6616 -1.8795
   96SAPE   H7S 9557   2.026   3.997   5.729 -1.1659  0.7027  2.2414
   96SAPE   C28 9558   2.151   4.107   5.594 -0.1570  0.2985  0.0248
   96SAPE   H8R 9559   2.207   4.201   5.588 -0.9065  0.7589  0.0700
   96SAPE   C29 9560   2.141   4.031   5.485  0.2929  0.0511 -0.2184
   96SAPE   H9R 9561   2.179   4.076   5.392  1.2030  0.7830  0.4854
   96SAPE  C210 9562   2.072   3.893   5.483 -0.1075  0.7089 -0.4592
   96SAPE  H10R 9563   2.077   3.854   5.587  1.1575  1.5128 -0.1810
   96SAPE  H10S 9564   2.139   3.833   5.417  1.3562  0.8835  0.8011
   96SAPE  C211 9565   1.933   3.876   5.438 -0.4863 -0.0280  0.0045
   96SAPE  H11R 9566   1.865   3.838   5.517  1.0974 -0.7961  1.0497
   96SAPE  C212 9567   1.884   3.913   5.319 -0.1409 -0.5418  0.6604
   96SAPE  H12R 9568   1.775   3.895   5.314 -0.6052  0.8229  3.5688
   96SAPE  C213 9569   1.954   3.989   5.212 -0.3960 -0.1749  0.7256
   96SAPE  H13R 9570   2.022   4.072   5.241 -1.1412  0.6825  0.0473
   96SAPE  H13S 9571   1.879   4.038   5.147 -0.7288  0.0500  1.2730
   96SAPE  C214 9572   2.039   3.890   5.138 -0.2627  0.3420  0.0952
   96SAPE  H14R 9573   2.124   3.839   5.185 -0.0744 -0.6200 -1.1954
   96SAPE  C215 9574   2.012   3.849   5.009  0.0636  0.1666  0.1700
   96SAPE  H15R 9575   2.088   3.779   4.970 -0.7257 -1.1334  0.8901
   96SAPE  C216 9576   1.902   3.896   4.918 -0.0659 -0.6081  0.2373
   96SAPE  H16R 9577   1.920   4.005   4.911 -0.1054 -0.6656 -1.0946
   96SAPE  H16S 9578   1.796   3.885   4.950  0.1412  2.9593  2.6933
   96SAPE  C217 9579   1.924   3.832   4.778 -0.3659 -0.4213 -0.1829
   96SAPE  H17R 9580   1.924   3.721   4.788 -0.3737 -0.4000  0.0769
   96SAPE  H17S 9581   2.025   3.859   4.740 -0.1884  0.1394  0.6534
   96SAPE  C218 9582   1.816   3.880   4.684 -0.4543  0.8169  0.3607
   96SAPE  H18R 9583   1.813   3.991   4.680  1.4441  0.9895  2.0519
   96SAPE  H18S 9584   1.715   3.847   4.714 -0.0790 -0.4752  0.2818
   96SAPE  C219 9585   1.855   3.830   4.539 -0.0713 -0.1946 -0.3780
   96SAPE  H19R 9586   1.876   3.721   4.547  0.6685 -0.0986 -0.8686
   96SAPE  H19S 9587   1.942   3.895   4.514 -1.1756  2.4815  2.1826
   96SAPE  C220 9588   1.758   3.840   4.423  1.1965 -0.2738 -0.0313
   96SAPE  H20R 9589   1.657   3.800   4.442  0.5420  0.2769 -2.0932
   96SAPE  H20S 9590   1.795   3.788   4.332  0.3549 -1.6446  0.3805
   96SAPE  H20T 9591   1.751   3.947   4.395  0.7898  0.0962  1.4112
   96SAPE   C33 9592   1.570   3.910   5.624  0.4980  0.2177  0.2010
   96SAPE   H3X 9593   1.467   3.881   5.652  0.4070  1.0903  0.8125
   96SAPE   H3Y 9594   1.626   3.822   5.585 -2.1617 -0.6817 -1.9164
   96SAPE   C34 9595   1.554   4.006   5.501 -0.0137 -0.3606 -0.8106
   96SAPE   H4X 9596   1.653   4.051   5.479 -0.8660  0.8511 -2.3872
   96SAPE   H4Y 9597   1.489   4.090   5.533 -1.0035 -0.6803 -1.9019
   96SAPE   C35 9598   1.491   3.940   5.376  0.1392  0.0647 -0.8619
   96SAPE   H5X 9599   1.396   3.890   5.402  0.9539 -2.5497 -2.5159
   96SAPE   H5Y 9600   1.558   3.861   5.336 -0.7752  0.0202 -2.4004
   96SAPE   C36 9601   1.467   4.033   5.265  0.4957 -1.0567  0.2538
   96SAPE   H6X 9602   1.480   4.142   5.284  1.1396 -0.3156 -3.6288
   96SAPE   H6Y 9603   1.358   4.020   5.244  0.1048  1.6476  0.3053
   96SAPE   C37 9604   1.556   3.999   5.144 -0.5602 -0.6605 -0.5952
   96SAPE   H7X 9605   1.541   3.893   5.116 -1.1245 -0.8449  0.3527
   96SAPE   H7Y 9606   1.663   4.015   5.168 -0.5219  1.1179 -1.7368
   96SAPE   C38 9607   1.531   4.101   5.024 -0.0459 -0.0348  0.5023
   96SAPE   H8X 9608   1.624   4.116   4.965 -1.2919  1.4923 -1.1914
   96SAPE   H8Y 9609   1.506   4.200   5.067  0.1760  0.3437 -0.2150
   96SAPE   C39 9610   1.424   4.042   4.928  0.9726  0.5708 -0.2999
   96SAPE   H9X 9611   1.322   4.049   4.973  0.7716  1.6600 -0.8944
   96SAPE   H9Y 9612   1.431   3.935   4.900 -2.5313  0.1489 -0.0172
   96SAPE  C310 9613   1.415   4.109   4.791 -0.4684  0.1682 -0.1490
   96SAPE  H10X 9614   1.316   4.083   4.749 -2.1976  3.7215  1.3076
   96SAPE  H10Y 9615   1.483   4.063   4.716 -0.5721  0.6810 -0.5611
   96SAPE  C311 9616   1.432   4.261   4.798  0.3667 -0.4267 -0.0540
   96SAPE  H11X 9617   1.538   4.286   4.822  1.0568 -4.3611  1.9206
   96SAPE  H11Y 9618   1.371   4.306   4.879 -1.6256 -0.8031 -1.2667
   96SAPE  C312 9619   1.401   4.327   4.662  0.8876  0.4481  0.3333
   96SAPE  H12X 9620   1.294   4.313   4.637  1.2770  0.1901 -1.2708
   96SAPE  H12Y 9621   1.465   4.277   4.587 -1.4062 -0.8887 -0.8293
   96SAPE  C313 9622   1.453   4.471   4.646 -0.1049 -0.0980 -0.1380
   96SAPE  H13X 9623   1.544   4.483   4.709 -1.6500 -0.1136  2.2342
   96SAPE  H13Y 9624   1.376   4.542   4.682  0.3139  1.1393 -1.5577
   96SAPE  C314 9625   1.474   4.523   4.498  0.1945  0.0860 -0.4360
   96SAPE  H14X 9626   1.377   4.562   4.461  0.9732  1.5924 -0.9897
   96SAPE  H14Y 9627   1.512   4.445   4.429  0.6551 -1.2083  1.2216
   96SAPE  C315 9628   1.584   4.632   4.488  0.2323 -0.2919 -0.5276
   96SAPE  H15X 9629   1.545   4.716   4.549 -0.8960 -1.1285 -0.0780
   96SAPE  H15Y 9630   1.570   4.670   4.384  0.4582 -0.5863 -0.6678
   96SAPE  C316 9631   1.726   4.589   4.513 -0.4963  0.2763 -0.4090
   96SAPE  H16X 9632   1.765   4.575   4.410 -0.7938 -3.8206 -0.1142
   96SAPE  H16Y 9633   1.731   4.489   4.560  0.9859  1.0197  1.1381
   96SAPE  C317 9634   1.819   4.692   4.585 -0.1138 -0.0705  0.6426
   96SAPE  H17X 9635   1.922   4.652   4.588 -0.5366 -1.1321  2.1151
   96SAPE  H17Y 9636   1.800   4.699   4.695 -0.9011  1.1378  0.4488
   96SAPE  C318 9637   1.812   4.825   4.511 -0.5307 -0.0039 -1.0493
   96SAPE  H18X 9638   1.890   4.896   4.546 -0.1185 -0.2416 -1.4689
   96SAPE  H18Y 9639   1.713   4.876   4.506 -0.4920 -0.0032 -2.0817
   96SAPE  H18Z 9640   1.851   4.797   4.411  2.5222  0.9808 -0.2378
   97SAPE     N 9641   3.256   4.475   6.797  0.2496 -0.7708 -0.6525
   97SAPE   HN1 9642   3.360   4.472   6.800  0.3021  0.2441 -1.0104
   97SAPE   HN2 9643   3.230   4.572   6.773  0.8451 -0.2080  0.8535
   97SAPE   HN3 9644   3.215   4.467   6.892  0.7602  2.3251 -0.0576
   97SAPE   C12 9645   3.196   4.392   6.694 -0.2943  0.6473  0.6287
   97SAPE  H12A 9646   3.240   4.293   6.717 -2.8306  0.0953  3.8811
   97SAPE  H12B 9647   3.217   4.436   6.594 -0.7718  0.5682  0.4904
   97SAPE   C11 9648   3.041   4.392   6.718  0.4892  0.0393 -0.5197
   97SAPE  H11A 9649   3.007   4.332   6.805  1.0243 -0.2130 -0.4824
   97SAPE  H11B 9650   2.992   4.350   6.627 -1.4483 -0.2431  0.6176
   97SAPE     P 9651   2.841   4.563   6.690  0.3333 -0.2315 -0.7339
   97SAPE   O13 9652   2.749   4.448   6.683 -0.5993 -0.3627  0.1120
   97SAPE   O14 9653   2.795   4.685   6.760  0.5553  0.3099 -0.5767
   97SAPE   O12 9654   2.989   4.525   6.739  0.4825  0.8974  0.9716
   97SAPE   O11 9655   2.852   4.614   6.545 -0.4302 -0.9821  0.0560
   97SAPE    C1 9656   2.957   4.673   6.475  0.0363  0.2050 -0.1556
   97SAPE    HA 9657   2.912   4.759   6.421 -1.1275 -1.2548 -1.6174
   97SAPE    HB 9658   3.041   4.709   6.538  1.0029  0.3917 -1.5112
   97SAPE    C2 9659   3.019   4.575   6.370 -0.0298  0.3566 -0.0752
   97SAPE    HS 9660   3.115   4.531   6.404  0.1527  0.6740 -0.1754
   97SAPE   O21 9661   3.045   4.648   6.249 -0.1739  0.1143 -0.2486
   97SAPE   C21 9662   3.145   4.737   6.256 -0.0307 -0.2568  0.3153
   97SAPE   O22 9663   3.220   4.764   6.344  0.0912  0.2755 -0.3334
   97SAPE   C22 9664   3.156   4.801   6.111 -0.3638 -0.1841 -0.0838
   97SAPE   H2R 9665   3.197   4.723   6.043 -0.9077  1.2416 -2.1737
   97SAPE   H2S 9666   3.051   4.807   6.074 -0.6990 -0.0756  0.8640
   97SAPE    C3 9667   2.924   4.462   6.325 -0.2872  0.4311  0.0231
   97SAPE    HX 9668   2.825   4.496   6.288 -1.0843 -1.4327  0.3283
   97SAPE    HY 9669   2.894   4.395   6.408  2.3709 -0.5423  0.2929
   97SAPE   O31 9670   2.963   4.365   6.216  0.0986  0.6004 -0.3261
   97SAPE   C31 9671   3.065   4.278   6.255  0.7069  0.3332  0.4304
   97SAPE   O32 9672   3.110   4.275   6.366 -0.3557  0.1766 -0.0793
   97SAPE   C32 9673   3.095   4.188   6.138 -0.1747  0.2463  0.5450
   97SAPE   H2X 9674   3.007   4.127   6.111 -1.0064  0.6316  2.2480
   97SAPE   H2Y 9675   3.177   4.125   6.179 -0.5824 -1.1492 -0.6825
   97SAPE   C23 9676   3.235   4.933   6.097 -0.2911  0.2997  0.3439
   97SAPE   H3R 9677   3.339   4.913   6.131  0.2451  1.4940 -0.4986
   97SAPE   H3S 9678   3.196   5.014   6.162  0.4395  0.5157  0.5162
   97SAPE   C24 9679   3.236   4.979   5.951  0.1732  0.1933 -0.7807
   97SAPE   H4R 9680   3.277   4.901   5.883 -2.5610  0.9302 -3.5238
   97SAPE   H4S 9681   3.301   5.069   5.943  0.5545  0.1447  1.2494
   97SAPE   C25 9682   3.098   5.015   5.892 -0.3147  0.5300  1.0292
   97SAPE   H5R 9683   3.027   5.055   5.965  0.2273  1.5193  1.0300
   97SAPE   C26 9684   3.058   5.010   5.764  0.1646  0.0157 -0.7080
   97SAPE   H6R 9685   2.955   5.042   5.740  0.4633  1.3046 -0.3307
   97SAPE   C27 9686   3.149   4.982   5.645  0.7587  0.8426 -0.2979
   97SAPE   H7R 9687   3.109   4.890   5.599  0.2117  1.0695 -0.2833
   97SAPE   H7S 9688   3.253   4.971   5.683  1.0497  0.8542 -1.0733
   97SAPE   C28 9689   3.153   5.095   5.548  0.0724  0.7258 -0.4684
   97SAPE   H8R 9690   3.169   5.191   5.599 -1.3539  0.2877  0.8734
   97SAPE   C29 9691   3.152   5.096   5.414  0.7875 -0.5883 -0.1034
   97SAPE   H9R 9692   3.155   5.199   5.376  0.0529 -0.3193  0.5529
   97SAPE  C210 9693   3.136   4.975   5.322 -0.4810 -0.0653 -0.1048
   97SAPE  H10R 9694   3.107   4.881   5.375 -1.5444  0.1260 -0.3148
   97SAPE  H10S 9695   3.231   4.948   5.271  0.3269  1.0071  0.8102
   97SAPE  C211 9696   3.023   5.006   5.228  0.0170  0.3584  0.0791
   97SAPE  H11R 9697   2.922   4.985   5.268  0.6619 -1.8965  0.6658
   97SAPE  C212 9698   3.041   5.041   5.099  0.2624  0.0498 -0.1279
   97SAPE  H12R 9699   2.950   5.055   5.040 -0.7745 -1.6059  0.9684
   97SAPE  C213 9700   3.180   5.076   5.041  0.0522 -0.5427 -0.2345
   97SAPE  H13R 9701   3.238   4.982   5.041  0.4967 -0.3110  2.0826
   97SAPE  H13S 9702   3.227   5.147   5.112 -1.2977  0.0611  0.0928
   97SAPE  C214 9703   3.175   5.130   4.905  0.9752 -0.3582  0.2664
   97SAPE  H14R 9704   3.138   5.053   4.836 -0.8744  0.1767  0.6149
   97SAPE  C215 9705   3.209   5.256   4.863  0.5335  0.4395  0.4433
   97SAPE  H15R 9706   3.195   5.289   4.759  2.1378 -1.2534 -0.3701
   97SAPE  C216 9707   3.274   5.362   4.947 -0.2731 -0.2672  0.1971
   97SAPE  H16R 9708   3.328   5.437   4.885  2.5261 -0.4602  2.2323
   97SAPE  H16S 9709   3.348   5.319   5.017  0.5384  0.4978 -0.1722
   97SAPE  C217 9710   3.177   5.436   5.040  0.3691  0.2725  0.0607
   97SAPE  H17R 9711   3.126   5.362   5.104 -0.9415  0.5275 -0.6490
   97SAPE  H17S 9712   3.103   5.490   4.977  0.5329 -1.2508 -1.5156
   97SAPE  C218 9713   3.235   5.539   5.135  0.5046  0.2160  0.1065
   97SAPE  H18R 9714   3.271   5.635   5.091 -0.5830  0.6505  0.1509
   97SAPE  H18S 9715   3.317   5.484   5.186 -1.1019 -0.7872  1.7095
   97SAPE  C219 9716   3.129   5.592   5.242  0.0352 -0.3758  0.3360
   97SAPE  H19R 9717   3.028   5.610   5.199 -1.7872 -2.1768  3.4819
   97SAPE  H19S 9718   3.164   5.686   5.289 -0.7170  0.5294 -0.8575
   97SAPE  C220 9719   3.110   5.490   5.349 -0.0879  0.3747 -0.0117
   97SAPE  H20R 9720   3.064   5.517   5.446 -0.9104  0.2191 -0.3522
   97SAPE  H20S 9721   3.213   5.449   5.363 -0.6196 -2.3813 -2.8356
   97SAPE  H20T 9722   3.042   5.409   5.313 -1.6787  2.1374 -1.1153
   97SAPE   C33 9723   3.155   4.261   6.009  0.4291  0.3068  0.3469
   97SAPE   H3X 9724   3.258   4.294   6.033  0.1328  2.3251 -0.8627
   97SAPE   H3Y 9725   3.088   4.349   5.995 -0.2504  0.2433  2.7925
   97SAPE   C34 9726   3.150   4.171   5.885  0.2582  0.5219  0.4826
   97SAPE   H4X 9727   3.047   4.132   5.874  0.6158 -0.0041 -1.3561
   97SAPE   H4Y 9728   3.204   4.074   5.890  0.7067  0.7808  0.7711
   97SAPE   C35 9729   3.204   4.238   5.756 -0.1207 -0.6117 -0.3639
   97SAPE   H5X 9730   3.295   4.297   5.779 -0.4139 -0.3589  0.1535
   97SAPE   H5Y 9731   3.144   4.321   5.714  0.5761 -0.0529 -0.2737
   97SAPE   C36 9732   3.230   4.144   5.639  0.3995  0.5846  0.1966
   97SAPE   H6X 9733   3.138   4.089   5.610  1.5820 -2.1870  1.3779
   97SAPE   H6Y 9734   3.299   4.063   5.671  0.5781  0.1494 -1.1985
   97SAPE   C37 9735   3.288   4.212   5.516 -0.9056  0.7881  0.4560
   97SAPE   H7X 9736   3.376   4.276   5.536 -0.7057  1.9717 -3.4118
   97SAPE   H7Y 9737   3.217   4.288   5.479  0.5223  0.6704 -2.8084
   97SAPE   C38 9738   3.321   4.114   5.398 -0.0112  0.2375 -0.2356
   97SAPE   H8X 9739   3.242   4.042   5.368 -1.5419  2.3627 -1.5592
   97SAPE   H8Y 9740   3.408   4.052   5.429  0.0683 -0.4371 -1.7281
   97SAPE   C39 9741   3.347   4.197   5.270 -0.0046 -0.4620 -0.5453
   97SAPE   H9X 9742   3.438   4.259   5.289  0.2390 -0.7412 -0.8123
   97SAPE   H9Y 9743   3.267   4.273   5.259  1.0608  0.6744 -0.8135
   97SAPE  C310 9744   3.357   4.111   5.150  0.2780  0.2783 -0.1325
   97SAPE  H10X 9745   3.260   4.059   5.144  1.6003 -2.2506 -1.0759
   97SAPE  H10Y 9746   3.435   4.034   5.171 -0.8266 -1.1708 -1.2141
   97SAPE  C311 9747   3.394   4.193   5.029 -0.1306 -0.6861  0.3995
   97SAPE  H11X 9748   3.476   4.265   5.050  0.5122 -1.3068  0.0710
   97SAPE  H11Y 9749   3.302   4.251   5.006 -0.0707 -1.4905 -2.2508
   97SAPE  C312 9750   3.414   4.112   4.904 -0.9185 -0.0023  0.7107
   97SAPE  H12X 9751   3.330   4.041   4.886  0.0049 -0.9871  0.2233
   97SAPE  H12Y 9752   3.503   4.046   4.902 -0.3848  0.6737  1.4644
   97SAPE  C313 9753   3.405   4.204   4.776 -0.8036 -0.0877 -0.3214
   97SAPE  H13X 9754   3.512   4.221   4.751 -0.4839  0.6761  1.4374
   97SAPE  H13Y 9755   3.366   4.307   4.787  0.5429  0.7951 -2.9615
   97SAPE  C314 9756   3.346   4.146   4.654 -0.2520  0.3010  0.1964
   97SAPE  H14X 9757   3.248   4.098   4.672 -0.2333 -0.2714 -1.1150
   97SAPE  H14Y 9758   3.413   4.062   4.625  2.6448  1.5969  2.5536
   97SAPE  C315 9759   3.332   4.244   4.537 -0.4393  0.3086  0.4288
   97SAPE  H15X 9760   3.425   4.301   4.517  1.8518 -3.4662 -0.9114
   97SAPE  H15Y 9761   3.250   4.316   4.556  0.1060  1.1063 -0.2047
   97SAPE  C316 9762   3.316   4.173   4.403  0.9981  0.9050  0.9566
   97SAPE  H16X 9763   3.410   4.117   4.383 -0.1003 -1.0157  0.9303
   97SAPE  H16Y 9764   3.309   4.256   4.330  5.0640  1.4252  0.9242
   97SAPE  C317 9765   3.194   4.076   4.393  0.4250 -0.7044  0.4845
   97SAPE  H17X 9766   3.120   4.108   4.469 -0.8768 -0.6604 -0.7665
   97SAPE  H17Y 9767   3.235   3.977   4.422  0.5402 -1.4396 -1.9660
   97SAPE  C318 9768   3.131   4.054   4.254  0.3801 -0.1194 -0.7225
   97SAPE  H18X 9769   3.055   3.973   4.260  2.4640 -2.1850 -0.7076
   97SAPE  H18Y 9770   3.206   4.010   4.186 -0.1266  0.2250 -1.5245
   97SAPE  H18Z 9771   3.097   4.149   4.206  1.3539  0.8355  0.4255
   98SAPE     N 9772   3.808   4.323   6.603 -0.3676  0.7207 -0.1868
   98SAPE   HN1 9773   3.831   4.416   6.645  0.4667  0.3094  0.2825
   98SAPE   HN2 9774   3.755   4.261   6.668  2.0442  0.2548  1.4488
   98SAPE   HN3 9775   3.898   4.277   6.581 -1.7497 -2.0702 -0.4075
   98SAPE   C12 9776   3.728   4.357   6.478 -0.0578 -0.0025 -0.7848
   98SAPE  H12A 9777   3.772   4.442   6.423  1.4477  0.3731  0.8964
   98SAPE  H12B 9778   3.625   4.384   6.508 -0.3293 -1.5853 -0.1982
   98SAPE   C11 9779   3.728   4.241   6.382  0.2060 -1.1000 -0.4182
   98SAPE  H11A 9780   3.830   4.242   6.338 -0.3461 -0.0690 -1.7302
   98SAPE  H11B 9781   3.651   4.254   6.304 -0.5387  4.6126  0.8753
   98SAPE     P 9782   3.613   4.052   6.524  0.3854  0.3207 -0.2064
   98SAPE   O13 9783   3.641   3.908   6.537 -0.2606  0.2706  0.1346
   98SAPE   O14 9784   3.605   4.133   6.651  0.0082 -0.0092 -0.5333
   98SAPE   O12 9785   3.723   4.111   6.435  0.1456 -0.5143  0.1332
   98SAPE   O11 9786   3.479   4.084   6.439  0.1980  0.3770 -0.0679
   98SAPE    C1 9787   3.350   4.036   6.489  0.2420  0.4546 -0.1334
   98SAPE    HA 9788   3.348   4.059   6.598  2.0213 -0.1731  0.0634
   98SAPE    HB 9789   3.275   4.107   6.447 -0.9198 -0.8521 -0.3837
   98SAPE    C2 9790   3.326   3.896   6.443  0.1936  0.2655  0.0036
   98SAPE    HS 9791   3.401   3.830   6.491 -0.2554  0.1372  0.5351
   98SAPE   O21 9792   3.350   3.902   6.301 -0.3504  0.0001  0.3829
   98SAPE   C21 9793   3.365   3.788   6.238 -0.0472  0.1833  0.1573
   98SAPE   O22 9794   3.368   3.676   6.287  0.7733 -0.7201  0.0063
   98SAPE   C22 9795   3.379   3.816   6.089  0.0425  0.4270 -0.3259
   98SAPE   H2R 9796   3.393   3.723   6.031 -2.7726 -0.3610  0.1427
   98SAPE   H2S 9797   3.288   3.866   6.050  0.5640 -0.6240 -3.0590
   98SAPE    C3 9798   3.189   3.836   6.470  0.1621 -0.2018  0.2139
   98SAPE    HX 9799   3.216   3.797   6.571 -0.0243 -0.7788  0.0459
   98SAPE    HY 9800   3.170   3.751   6.402  0.1091  0.8184 -1.0707
   98SAPE   O31 9801   3.088   3.938   6.468 -0.0227 -0.0708 -0.4513
   98SAPE   C31 9802   2.973   3.901   6.524  0.1580  0.0839 -0.5135
   98SAPE   O32 9803   2.965   3.791   6.578 -0.0899 -1.2322  0.2897
   98SAPE   C32 9804   2.876   4.011   6.515  0.2472  0.1855  0.2235
   98SAPE   H2X 9805   2.909   4.096   6.451 -1.4388  0.7333  0.0209
   98SAPE   H2Y 9806   2.862   4.048   6.619 -0.1406  0.2413  0.1542
   98SAPE   C23 9807   3.504   3.906   6.069 -0.3360 -0.3253 -0.4786
   98SAPE   H3R 9808   3.582   3.835   6.104 -0.9378 -0.7048  0.1301
   98SAPE   H3S 9809   3.515   3.995   6.134 -1.3940 -1.4062  1.2664
   98SAPE   C24 9810   3.518   3.949   5.917 -0.0818 -0.6066  0.5723
   98SAPE   H4R 9811   3.433   4.016   5.895  0.8883  0.3180 -0.4469
   98SAPE   H4S 9812   3.502   3.851   5.866  1.1419 -0.0900 -0.8539
   98SAPE   C25 9813   3.658   3.995   5.870  0.1765 -0.4621 -0.5643
   98SAPE   H5R 9814   3.744   3.940   5.912  0.0788  0.2607  0.6297
   98SAPE   C26 9815   3.694   4.109   5.806  0.9345 -0.1219 -1.1112
   98SAPE   H6R 9816   3.801   4.122   5.780  0.9281  0.3159 -0.9290
   98SAPE   C27 9817   3.601   4.215   5.760 -0.3992 -0.2849 -1.1540
   98SAPE   H7R 9818   3.569   4.264   5.854 -1.2131 -0.5760 -1.2712
   98SAPE   H7S 9819   3.508   4.171   5.718  1.0673 -2.5051 -2.3184
   98SAPE   C28 9820   3.645   4.310   5.655  0.3054 -0.2153 -0.2085
   98SAPE   H8R 9821   3.719   4.261   5.589  0.2433  0.2679 -0.6416
   98SAPE   C29 9822   3.639   4.446   5.663 -0.3767 -0.3550 -0.2162
   98SAPE   H9R 9823   3.689   4.504   5.584  2.1672 -0.2628  1.3485
   98SAPE  C210 9824   3.570   4.531   5.767 -0.3144  0.2603 -0.0083
   98SAPE  H10R 9825   3.603   4.497   5.867  0.7803  2.0639  0.2819
   98SAPE  H10S 9826   3.461   4.514   5.758 -1.0096  2.8102  2.4146
   98SAPE  C211 9827   3.600   4.675   5.767  0.1665  0.2123  0.2385
   98SAPE  H11R 9828   3.681   4.708   5.833  1.2510  1.6477 -1.6971
   98SAPE  C212 9829   3.562   4.770   5.675  0.0576  0.4516 -0.9061
   98SAPE  H12R 9830   3.602   4.871   5.690  4.0270 -1.1672  0.8304
   98SAPE  C213 9831   3.458   4.759   5.571  0.8722  0.2282 -0.5361
   98SAPE  H13R 9832   3.367   4.793   5.626  0.2206 -0.2536 -1.2842
   98SAPE  H13S 9833   3.425   4.658   5.537  2.3191  0.4642 -2.8627
   98SAPE  C214 9834   3.472   4.847   5.447 -0.1202 -0.4646  0.0775
   98SAPE  H14R 9835   3.430   4.948   5.435  1.6056  0.0918 -1.9237
   98SAPE  C215 9836   3.534   4.796   5.337 -0.9434 -0.2232 -0.0304
   98SAPE  H15R 9837   3.539   4.857   5.245  2.0569 -2.4390 -1.5000
   98SAPE  C216 9838   3.602   4.659   5.331 -0.5050  0.5155  0.0551
   98SAPE  H16R 9839   3.529   4.576   5.336 -1.1125  1.1096  1.5187
   98SAPE  H16S 9840   3.671   4.635   5.415 -2.1464 -1.4049  0.9350
   98SAPE  C217 9841   3.686   4.639   5.201 -0.2497 -0.6656 -0.1993
   98SAPE  H17R 9842   3.759   4.557   5.214  0.3917  0.1425  1.5331
   98SAPE  H17S 9843   3.746   4.727   5.170  0.3925 -0.9885  0.1132
   98SAPE  C218 9844   3.595   4.601   5.082  0.0945  0.6774 -0.2562
   98SAPE  H18R 9845   3.507   4.668   5.069 -0.9837 -0.3059  1.5478
   98SAPE  H18S 9846   3.541   4.508   5.110  1.6113 -0.3467 -0.6451
   98SAPE  C219 9847   3.674   4.578   4.955 -0.3347 -0.4505 -0.7645
   98SAPE  H19R 9848   3.757   4.506   4.971  0.7445  1.0442  0.6578
   98SAPE  H19S 9849   3.720   4.678   4.940 -2.1016  0.6794  0.9072
   98SAPE  C220 9850   3.594   4.526   4.830  0.1663 -0.5111  0.1586
   98SAPE  H20R 9851   3.657   4.514   4.739 -0.4097 -3.1660  0.0130
   98SAPE  H20S 9852   3.513   4.598   4.805  0.7538  0.9219  2.0971
   98SAPE  H20T 9853   3.552   4.424   4.844  0.3379 -0.6270 -0.1648
   98SAPE   C33 9854   2.735   3.961   6.473 -0.1998  0.7806 -0.2817
   98SAPE   H3X 9855   2.656   4.032   6.506  0.0893  0.6752  0.6637
   98SAPE   H3Y 9856   2.714   3.870   6.535  2.8507  1.2508  1.6360
   98SAPE   C34 9857   2.721   3.936   6.316 -0.1319 -0.2198  0.1065
   98SAPE   H4X 9858   2.631   3.884   6.276  1.1540 -1.2077 -1.6686
   98SAPE   H4Y 9859   2.808   3.869   6.299 -0.5752 -1.5282  2.6230
   98SAPE   C35 9860   2.722   4.068   6.236 -0.5349  0.4116 -0.8688
   98SAPE   H5X 9861   2.805   4.138   6.261 -1.3687  1.0846  0.0568
   98SAPE   H5Y 9862   2.640   4.129   6.277 -1.4866 -1.0576 -0.4991
   98SAPE   C36 9863   2.714   4.057   6.085 -0.1858 -0.4590 -0.4248
   98SAPE   H6X 9864   2.656   3.966   6.059 -1.4440  0.1394  0.1752
   98SAPE   H6Y 9865   2.816   4.051   6.043  0.6654  2.8241  0.8121
   98SAPE   C37 9866   2.646   4.191   6.027  0.5603  0.9978  0.1667
   98SAPE   H7X 9867   2.691   4.285   6.066  1.0175  0.2108  1.6355
   98SAPE   H7Y 9868   2.542   4.201   6.065  0.4119  0.8046 -0.1840
   98SAPE   C38 9869   2.631   4.189   5.872  0.2253 -0.4582 -0.1846
   98SAPE   H8X 9870   2.566   4.106   5.841 -1.8969  0.7154  0.9137
   98SAPE   H8Y 9871   2.730   4.181   5.822  0.5396  0.1227  0.3244
   98SAPE   C39 9872   2.579   4.322   5.807 -0.5423 -0.4135  0.3959
   98SAPE   H9X 9873   2.653   4.405   5.808 -2.3742  1.3942 -1.7801
   98SAPE   H9Y 9874   2.483   4.354   5.851  0.4165  0.5650  1.8526
   98SAPE  C310 9875   2.559   4.316   5.652  0.8125 -0.3631 -0.2045
   98SAPE  H10X 9876   2.490   4.232   5.628  2.2389 -1.1726 -1.6089
   98SAPE  H10Y 9877   2.664   4.296   5.621  1.8147  2.6477  0.7881
   98SAPE  C311 9878   2.506   4.446   5.579 -1.1732  0.6617  0.6878
   98SAPE  H11X 9879   2.561   4.535   5.617 -0.7708  0.8132 -0.2181
   98SAPE  H11Y 9880   2.396   4.459   5.588 -1.3106  0.0603 -0.0215
   98SAPE  C312 9881   2.540   4.448   5.428 -0.1756 -0.2246  0.0326
   98SAPE  H12X 9882   2.488   4.367   5.374 -2.7940  1.8228 -0.7469
   98SAPE  H12Y 9883   2.649   4.430   5.415 -0.1039 -0.2899  0.7068
   98SAPE  C313 9884   2.515   4.589   5.363  0.4237 -0.5590  0.3801
   98SAPE  H13X 9885   2.540   4.671   5.434 -1.7970 -0.4888  1.1707
   98SAPE  H13Y 9886   2.404   4.585   5.353  0.4111  0.2085  0.1625
   98SAPE  C314 9887   2.574   4.610   5.220 -0.5945 -0.0280  0.0221
   98SAPE  H14X 9888   2.680   4.640   5.235  0.8551 -4.0789 -0.9008
   98SAPE  H14Y 9889   2.516   4.691   5.170 -1.7027 -3.0076 -3.9620
   98SAPE  C315 9890   2.583   4.487   5.131  0.0830 -0.2027 -0.1879
   98SAPE  H15X 9891   2.496   4.420   5.146  0.3899 -0.2036  2.0064
   98SAPE  H15Y 9892   2.663   4.421   5.172 -1.2390 -2.1618 -0.6100
   98SAPE  C316 9893   2.614   4.523   4.975  0.3270  0.1697 -0.2072
   98SAPE  H16X 9894   2.672   4.436   4.936 -0.1452  0.2981 -1.2379
   98SAPE  H16Y 9895   2.680   4.612   4.968 -2.6850  2.4552 -1.9552
   98SAPE  C317 9896   2.485   4.558   4.898 -0.8983 -0.0240 -0.2373
   98SAPE  H17X 9897   2.433   4.642   4.948 -1.3361 -0.0494 -0.6463
   98SAPE  H17Y 9898   2.417   4.473   4.918  1.1040 -0.9115  4.1218
   98SAPE  C318 9899   2.524   4.575   4.756  0.6152  0.1366  0.5685
   98SAPE  H18X 9900   2.604   4.650   4.738  0.1212  0.8146  1.1161
   98SAPE  H18Y 9901   2.436   4.602   4.693  0.8908 -0.2921 -0.0071
   98SAPE  H18Z 9902   2.566   4.479   4.719  2.8054  1.7390 -1.3979
   99SAPE     N 9903   2.389   3.370   6.835  0.5837 -0.5679 -0.0891
   99SAPE   HN1 9904   2.466   3.359   6.904 -1.3939 -0.7880  2.2533
   99SAPE   HN2 9905   2.306   3.400   6.891  0.1672 -1.0235 -0.4436
   99SAPE   HN3 9906   2.366   3.276   6.797 -0.5851  0.6733 -2.7088
   99SAPE   C12 9907   2.419   3.456   6.713 -0.3581 -0.1279 -0.0393
   99SAPE  H12A 9908   2.436   3.559   6.751  1.0774 -1.0404  1.9968
   99SAPE  H12B 9909   2.329   3.456   6.648 -0.4567  2.0779  0.0130
   99SAPE   C11 9910   2.545   3.407   6.640  0.2312  0.5103 -0.6115
   99SAPE  H11A 9911   2.556   3.473   6.551  0.4780 -1.1624 -1.8706
   99SAPE  H11B 9912   2.534   3.303   6.604  0.5236  0.3485 -0.2370
   99SAPE     P 9913   2.776   3.305   6.725 -0.4365  0.2274  0.0434
   99SAPE   O13 9914   2.862   3.338   6.838 -1.0810  0.4944 -0.6115
   99SAPE   O14 9915   2.709   3.176   6.726 -0.2986  0.0192 -0.5985
   99SAPE   O12 9916   2.666   3.420   6.715  0.1817 -0.3492  0.2201
   99SAPE   O11 9917   2.866   3.320   6.598 -0.3136 -0.4874  0.1826
   99SAPE    C1 9918   2.886   3.444   6.529 -0.4651 -0.2904 -0.6976
   99SAPE    HA 9919   2.830   3.521   6.586  1.0825  0.2188  0.1795
   99SAPE    HB 9920   2.995   3.462   6.536 -0.3528 -0.4565 -1.8471
   99SAPE    C2 9921   2.848   3.450   6.380  0.0325  0.5604 -0.0008
   99SAPE    HS 9922   2.740   3.478   6.375 -0.1128 -0.2010 -1.9212
   99SAPE   O21 9923   2.872   3.326   6.298 -0.2467 -0.5820  0.1383
   99SAPE   C21 9924   2.779   3.236   6.297 -0.0318 -0.1777 -0.5088
   99SAPE   O22 9925   2.673   3.241   6.354 -0.6634  0.5136 -0.2370
   99SAPE   C22 9926   2.823   3.117   6.210 -0.4823 -0.0000  0.4620
   99SAPE   H2R 9927   2.870   3.044   6.280 -0.4679 -0.9686 -0.5302
   99SAPE   H2S 9928   2.737   3.073   6.155 -0.8256 -0.9050  1.6881
   99SAPE    C3 9929   2.922   3.571   6.315 -0.0912  0.1924  0.8905
   99SAPE    HX 9930   3.028   3.557   6.346  1.0156 -3.1788 -3.4228
   99SAPE    HY 9931   2.892   3.668   6.358  0.6394  0.3917  0.9722
   99SAPE   O31 9932   2.908   3.563   6.174 -0.5701 -0.2117 -0.0140
   99SAPE   C31 9933   2.987   3.654   6.116 -0.0390 -0.2873  0.0664
   99SAPE   O32 9934   3.072   3.722   6.168  0.4416  0.5875 -0.0934
   99SAPE   C32 9935   2.976   3.647   5.963 -0.4761 -0.2965 -0.3869
   99SAPE   H2X 9936   2.873   3.687   5.950 -1.5135 -0.2826  5.1056
   99SAPE   H2Y 9937   2.978   3.543   5.926  0.3673  0.5876 -3.0112
   99SAPE   C23 9938   2.936   3.159   6.110  0.5569  0.2907 -0.3785
   99SAPE   H3R 9939   2.952   3.064   6.054 -0.1441 -1.0808  1.6651
   99SAPE   H3S 9940   3.025   3.177   6.173 -1.5165  0.2408  2.7771
   99SAPE   C24 9941   2.893   3.263   6.010 -0.5851 -0.0965 -0.3181
   99SAPE   H4R 9942   2.886   3.361   6.063  1.3029 -0.3716  0.4923
   99SAPE   H4S 9943   2.796   3.230   5.968 -0.0378 -1.1544 -0.7729
   99SAPE   C25 9944   3.002   3.277   5.900 -0.0712  0.6130 -0.5507
   99SAPE   H5R 9945   3.103   3.263   5.943 -0.4686  1.9805  0.9312
   99SAPE   C26 9946   2.989   3.311   5.767 -0.6266 -0.0628  0.0765
   99SAPE   H6R 9947   3.073   3.311   5.696 -0.3634 -0.2663  0.3845
   99SAPE   C27 9948   2.857   3.337   5.695  0.5156  0.7853  0.3215
   99SAPE   H7R 9949   2.781   3.350   5.775 -0.0877  1.9122 -0.4074
   99SAPE   H7S 9950   2.820   3.241   5.654 -2.1830  1.4215  1.0674
   99SAPE   C28 9951   2.843   3.451   5.593  0.3583  0.4819  0.3088
   99SAPE   H8R 9952   2.809   3.541   5.647  0.0995 -0.9965  2.7156
   99SAPE   C29 9953   2.869   3.455   5.461 -0.3609  0.0943 -0.4779
   99SAPE   H9R 9954   2.851   3.549   5.407  2.0161  0.4129 -0.8195
   99SAPE  C210 9955   2.908   3.341   5.374 -0.6848  0.1189  0.1915
   99SAPE  H10R 9956   2.818   3.286   5.337  0.0196 -1.8030  1.1990
   99SAPE  H10S 9957   2.960   3.262   5.431 -0.2194  0.1614 -0.1591
   99SAPE  C211 9958   3.000   3.371   5.256 -0.3262  0.2600  0.4590
   99SAPE  H11R 9959   3.107   3.349   5.268 -0.0958  0.1219 -1.4498
   99SAPE  C212 9960   2.973   3.440   5.141 -0.3192 -0.0556  0.7381
   99SAPE  H12R 9961   3.045   3.438   5.058 -1.5294  0.6568 -0.3634
   99SAPE  C213 9962   2.834   3.500   5.111 -0.6468 -0.0080  0.5828
   99SAPE  H13R 9963   2.836   3.605   5.075 -0.4906  0.0859  0.8597
   99SAPE  H13S 9964   2.766   3.505   5.200 -1.9627 -1.7292 -0.2554
   99SAPE  C214 9965   2.749   3.409   5.021 -0.0828 -0.1534  0.1516
   99SAPE  H14R 9966   2.740   3.303   5.050  2.4627 -0.6939 -0.8181
   99SAPE  C215 9967   2.680   3.448   4.914 -0.2616  0.5324  0.1114
   99SAPE  H15R 9968   2.622   3.369   4.865 -0.5222  0.0961  1.0990
   99SAPE  C216 9969   2.679   3.580   4.844  0.6262  0.0496  0.7180
   99SAPE  H16R 9970   2.722   3.656   4.913 -2.8742  0.9382  2.1671
   99SAPE  H16S 9971   2.574   3.610   4.823  0.2490 -0.8504  1.2484
   99SAPE  C217 9972   2.761   3.585   4.718 -0.3823  0.4866  0.6918
   99SAPE  H17R 9973   2.748   3.488   4.665 -0.8352  0.7369  0.3309
   99SAPE  H17S 9974   2.871   3.582   4.734 -0.2188 -2.0935 -0.3437
   99SAPE  C218 9975   2.730   3.707   4.624  0.0283  0.7266  0.2676
   99SAPE  H18R 9976   2.762   3.809   4.655  1.7192  0.5801 -0.8814
   99SAPE  H18S 9977   2.619   3.715   4.612  0.1564 -0.3647 -2.0520
   99SAPE  C219 9978   2.777   3.682   4.479  0.7281 -0.0611 -0.4397
   99SAPE  H19R 9979   2.687   3.668   4.416 -0.3702 -1.3187  1.3097
   99SAPE  H19S 9980   2.845   3.594   4.467  2.9909  1.7822 -2.2091
   99SAPE  C220 9981   2.861   3.788   4.422 -0.3701  0.4835  0.7549
   99SAPE  H20R 9982   2.806   3.883   4.407 -2.0975 -0.1088  2.8660
   99SAPE  H20S 9983   2.891   3.759   4.319 -1.1013  0.5210  0.5298
   99SAPE  H20T 9984   2.946   3.814   4.489  1.1644  1.0237 -1.2916
   99SAPE   C33 9985   3.093   3.732   5.895 -0.1027  0.4147 -0.4997
   99SAPE   H3X 9986   3.189   3.680   5.914 -0.3505  0.0939 -0.1231
   99SAPE   H3Y 9987   3.114   3.834   5.935  0.0132  1.2684 -2.6017
   99SAPE   C34 9988   3.068   3.738   5.744 -0.0250  0.2667  0.5653
   99SAPE   H4X 9989   3.063   3.637   5.699 -0.5954  0.4899  0.1145
   99SAPE   H4Y 9990   3.151   3.799   5.702  0.3465  0.1006  1.0451
   99SAPE   C35 9991   2.937   3.814   5.701 -0.2558  0.4163  0.6052
   99SAPE   H5X 9992   2.924   3.907   5.762 -0.9411  1.2702 -0.7881
   99SAPE   H5Y 9993   2.855   3.750   5.739  1.3098 -1.2659  1.3228
   99SAPE   C36 9994   2.946   3.836   5.554 -0.2434 -0.2077  0.9459
   99SAPE   H6X 9995   2.926   3.738   5.507 -1.4152  0.6536 -0.4468
   99SAPE   H6Y 9996   3.040   3.880   5.514  0.5464 -0.9518  1.9241
   99SAPE   C37 9997   2.838   3.938   5.492 -0.1417 -0.6154 -0.7874
   99SAPE   H7X 9998   2.863   4.030   5.549 -1.3794  0.5382 -2.0171
   99SAPE   H7Y 9999   2.734   3.905   5.517  0.2747  0.4081  2.8041
   99SAPE   C3810000   2.855   3.949   5.338 -0.0051 -0.2363 -0.7348
   99SAPE   H8X10001   2.771   4.016   5.308  0.4462  1.2205  1.0684
   99SAPE   H8Y10002   2.847   3.851   5.285 -0.1748 -0.8892  0.4639
   99SAPE   C3910003   2.989   4.018   5.293 -0.4946 -0.5157 -0.0281
   99SAPE   H9X10004   3.064   3.936   5.291  0.7720  0.6122 -1.9115
   99SAPE   H9Y10005   3.027   4.089   5.370 -0.5503 -0.0206 -0.4495
   99SAPE  C31010006   2.980   4.098   5.163  0.1555 -0.0141  0.4315
   99SAPE  H10X10007   3.065   4.170   5.158  0.7701 -0.7756 -0.6041
   99SAPE  H10Y10008   2.899   4.172   5.179 -0.7370 -0.7751 -0.4561
   99SAPE  C31110009   2.959   4.015   5.029 -0.9956 -0.0122 -0.9146
   99SAPE  H11X10010   2.867   3.951   5.033  1.0634 -3.2548 -1.4237
   99SAPE  H11Y10011   3.041   3.942   5.047 -0.7121  0.1942 -1.3794
   99SAPE  C31210012   2.974   4.096   4.895  0.0428  0.2214  0.2972
   99SAPE  H12X10013   2.990   4.022   4.814 -1.4250  0.1389  0.0464
   99SAPE  H12Y10014   3.061   4.164   4.905  1.0404 -1.2031  1.9120
   99SAPE  C31310015   2.846   4.167   4.875  0.0560 -0.5030 -0.0296
   99SAPE  H13X10016   2.819   4.215   4.971 -0.2188 -0.7904  0.0402
   99SAPE  H13Y10017   2.768   4.088   4.868  0.6813 -1.2661  1.1125
   99SAPE  C31410018   2.832   4.264   4.757  0.8660  0.4849 -0.3783
   99SAPE  H14X10019   2.882   4.361   4.782  2.5072 -0.6109  0.8086
   99SAPE  H14Y10020   2.726   4.298   4.753  1.4280  2.2486 -1.2478
   99SAPE  C31510021   2.862   4.206   4.612  0.2961  0.9634 -0.4782
   99SAPE  H15X10022   2.821   4.103   4.607 -0.3611  1.2782 -3.1954
   99SAPE  H15Y10023   2.973   4.213   4.609  0.3116  0.7472 -0.4393
   99SAPE  C31610024   2.787   4.284   4.505  0.0201  0.3153  0.7006
   99SAPE  H16X10025   2.831   4.386   4.497  1.9331 -0.5065  0.1423
   99SAPE  H16Y10026   2.685   4.304   4.543 -0.1963  2.2487 -0.7778
   99SAPE  C31710027   2.795   4.207   4.367 -0.1827  0.4162 -0.3521
   99SAPE  H17X10028   2.738   4.112   4.373 -0.5636  0.7372  2.3015
   99SAPE  H17Y10029   2.898   4.182   4.333 -0.9241 -2.1645 -0.9538
   99SAPE  C31810030   2.732   4.291   4.258  0.1497  0.0365 -0.1372
   99SAPE  H18X10031   2.727   4.229   4.166 -2.0462  0.4675 -0.3397
   99SAPE  H18Y10032   2.800   4.377   4.241  1.0792 -0.6546 -0.0297
   99SAPE  H18Z10033   2.629   4.320   4.285  0.7351 -0.2802  2.8676
  100SAPE     N10034   6.533   3.126   6.450 -0.6670 -0.3976  0.5814
  100SAPE   HN110035   6.486   3.166   6.366  1.9606  0.5088 -0.5596
  100SAPE   HN210036   6.610   3.063   6.419 -2.0678 -2.1893  0.5851
  100SAPE   HN310037   6.468   3.082   6.518 -0.4901  0.1932  1.1360
  100SAPE   C1210038   6.609   3.239   6.507  0.5187 -0.2784 -0.1885
  100SAPE  H12A10039   6.586   3.328   6.446 -0.3677  0.2996  0.9462
  100SAPE  H12B10040   6.717   3.212   6.496  0.6558  0.3288 -0.3577
  100SAPE   C1110041   6.575   3.245   6.661 -0.0646 -0.1745  0.2104
  100SAPE  H11A10042   6.643   3.315   6.716  1.2765  0.8860 -2.6137
  100SAPE  H11B10043   6.577   3.147   6.713  1.9033 -0.0363  0.4878
  100SAPE     P10044   6.389   3.428   6.656 -0.2398 -0.4438 -0.3800
  100SAPE   O1310045   6.277   3.446   6.748  0.1379  0.1452  0.3180
  100SAPE   O1410046   6.493   3.536   6.651 -0.4376 -0.5561 -0.6350
  100SAPE   O1210047   6.448   3.291   6.679  0.7874 -0.2141  0.2786
  100SAPE   O1110048   6.333   3.413   6.510 -0.2019  0.0410  0.7530
  100SAPE    C110049   6.192   3.389   6.478  0.9989  0.1408 -1.0904
  100SAPE    HA10050   6.155   3.310   6.546 -0.0736 -0.1311 -1.9592
  100SAPE    HB10051   6.134   3.481   6.499  0.4334 -0.3986 -0.2407
  100SAPE    C210052   6.156   3.335   6.335 -0.2393 -0.3623 -1.4283
  100SAPE    HS10053   6.174   3.226   6.337 -1.0477 -0.5953  2.7882
  100SAPE   O2110054   6.232   3.410   6.236 -0.5859  0.1142 -0.6396
  100SAPE   C2110055   6.352   3.354   6.213  0.3393 -0.2221 -0.6561
  100SAPE   O2210056   6.396   3.246   6.251  0.4613  0.0454  0.2696
  100SAPE   C2210057   6.438   3.457   6.139  0.2148 -0.9146 -0.1427
  100SAPE   H2R10058   6.388   3.489   6.045  0.2964  1.1995  0.4689
  100SAPE   H2S10059   6.439   3.550   6.200 -1.2705 -1.3200  0.5302
  100SAPE    C310060   6.007   3.355   6.318  0.2599  0.1975 -0.1525
  100SAPE    HX10061   5.973   3.457   6.346  0.2993  0.2214 -0.1920
  100SAPE    HY10062   5.952   3.287   6.387 -1.5175  0.7312 -0.9777
  100SAPE   O3110063   5.958   3.336   6.179 -0.7169 -0.0530 -0.7770
  100SAPE   C3110064   5.945   3.209   6.143  0.0714  0.7549 -0.1267
  100SAPE   O3210065   5.971   3.110   6.211  0.3563  0.4614 -0.5697
  100SAPE   C3210066   5.920   3.208   5.992 -0.1014 -0.7080 -0.5033
  100SAPE   H2X10067   5.941   3.304   5.941 -0.7528 -0.8794 -1.1091
  100SAPE   H2Y10068   5.814   3.179   5.976  0.5909 -2.1912 -2.8770
  100SAPE   C2310069   6.587   3.413   6.123 -0.0343 -0.2766  0.2176
  100SAPE   H3R10070   6.585   3.310   6.080 -1.9117 -0.9053  1.6705
  100SAPE   H3S10071   6.633   3.409   6.223 -0.9094  2.5576  0.8452
  100SAPE   C2410072   6.670   3.498   6.030  0.9902 -0.5632 -0.0732
  100SAPE   H4R10073   6.627   3.506   5.928  2.1840 -0.7155 -0.5994
  100SAPE   H4S10074   6.767   3.445   6.033  1.4498  0.2889  0.4597
  100SAPE   C2510075   6.693   3.634   6.078 -0.2696 -0.2538  0.9418
  100SAPE   H5R10076   6.723   3.648   6.183  1.2889  1.1722  0.3500
  100SAPE   C2610077   6.701   3.744   5.999  1.2293 -0.2507 -0.3878
  100SAPE   H6R10078   6.711   3.842   6.048 -1.6698  0.3892 -0.8469
  100SAPE   C2710079   6.686   3.748   5.852  0.3060 -0.0231  0.4862
  100SAPE   H7R10080   6.710   3.649   5.809 -2.0056 -0.9266  1.1240
  100SAPE   H7S10081   6.757   3.827   5.819  0.9437 -0.0211  1.7920
  100SAPE   C2810082   6.553   3.802   5.827 -0.3967  0.2897  0.8100
  100SAPE   H8R10083   6.481   3.791   5.910 -1.3287  1.4587  0.2041
  100SAPE   C2910084   6.518   3.861   5.713 -0.5270 -0.9290 -0.5638
  100SAPE   H9R10085   6.408   3.873   5.714 -0.5204 -0.3441  2.1200
  100SAPE  C21010086   6.605   3.892   5.597  0.1870  0.0154  0.0223
  100SAPE  H10R10087   6.550   3.860   5.506 -0.3884  0.8481  0.0762
  100SAPE  H10S10088   6.703   3.840   5.593  0.3040  0.1162  1.1970
  100SAPE  C21110089   6.632   4.035   5.573 -1.0228  0.1983 -0.4204
  100SAPE  H11R10090   6.661   4.087   5.665 -1.9767 -0.9027  0.5473
  100SAPE  C21210091   6.617   4.106   5.461  0.1994  0.2200 -0.4084
  100SAPE  H12R10092   6.632   4.215   5.459  2.3235 -0.0262 -2.4013
  100SAPE  C21310093   6.588   4.043   5.324 -0.5457  0.0952 -0.3545
  100SAPE  H13R10094   6.481   4.050   5.293 -0.7158 -3.0350 -0.7611
  100SAPE  H13S10095   6.612   3.935   5.314 -1.1143 -0.3440  2.3135
  100SAPE  C21410096   6.672   4.104   5.209  0.0935  0.5960  1.3436
  100SAPE  H14R10097   6.748   4.041   5.161  0.1656  1.4825  0.2417
  100SAPE  C21510098   6.650   4.226   5.168  0.1612 -0.8371 -0.1346
  100SAPE  H15R10099   6.709   4.264   5.083 -0.4192  1.5985  0.4795
  100SAPE  C21610100   6.536   4.321   5.206  0.0700 -0.3340  0.0880
  100SAPE  H16R10101   6.456   4.271   5.264  1.1169 -0.7678  1.2254
  100SAPE  H16S10102   6.482   4.362   5.119  0.8714  1.2754  0.3158
  100SAPE  C21710103   6.584   4.446   5.277 -0.0564 -0.4121 -0.0399
  100SAPE  H17R10104   6.648   4.509   5.212  2.7577 -2.7122  0.3298
  100SAPE  H17S10105   6.638   4.417   5.370  0.3770  1.3363  0.2930
  100SAPE  C21810106   6.477   4.534   5.343 -0.5110 -0.5466  0.5469
  100SAPE  H18R10107   6.418   4.478   5.418 -0.1408 -0.9811  0.5163
  100SAPE  H18S10108   6.410   4.562   5.259 -0.5862  0.2471  0.8599
  100SAPE  C21910109   6.534   4.668   5.395 -0.4554  0.8708  0.3054
  100SAPE  H19R10110   6.471   4.759   5.384 -0.7417  0.7045  0.5723
  100SAPE  H19S10111   6.609   4.705   5.322 -0.5178  1.4590  0.5371
  100SAPE  C22010112   6.592   4.649   5.532  0.5736 -0.2010  0.1722
  100SAPE  H20R10113   6.625   4.743   5.581  3.6568 -1.0241 -0.1726
  100SAPE  H20S10114   6.683   4.587   5.527  2.0208  1.8467 -0.1333
  100SAPE  H20T10115   6.523   4.603   5.605 -0.0783 -2.5427 -1.7777
  100SAPE   C3310116   5.997   3.102   5.906  0.2522 -0.0689  0.3361
  100SAPE   H3X10117   5.961   2.999   5.929  0.6865 -0.5846 -1.1808
  100SAPE   H3Y10118   6.100   3.119   5.944  0.0463  0.3935  0.7007
  100SAPE   C3410119   6.003   3.134   5.758  0.6941 -0.3447  0.5623
  100SAPE   H4X10120   6.083   3.077   5.707  0.8887  3.0382 -3.5069
  100SAPE   H4Y10121   6.039   3.235   5.728 -1.6365  0.5077  0.3706
  100SAPE   C3510122   5.879   3.086   5.682  0.0835 -0.6684  0.4161
  100SAPE   H5X10123   5.896   3.094   5.572 -0.5867 -2.3176  0.1519
  100SAPE   H5Y10124   5.794   3.156   5.700  0.3951 -0.0422 -0.4551
  100SAPE   C3610125   5.844   2.936   5.697  0.0245  0.5637  0.4079
  100SAPE   H6X10126   5.823   2.911   5.804 -0.4018 -0.0079  0.1921
  100SAPE   H6Y10127   5.939   2.883   5.679 -0.9143 -0.9134 -0.3609
  100SAPE   C3710128   5.728   2.884   5.606  0.1745 -0.1612 -0.7232
  100SAPE   H7X10129   5.757   2.890   5.499  0.8969  1.1262 -0.4748
  100SAPE   H7Y10130   5.644   2.952   5.631  2.5278  1.7340  2.8980
  100SAPE   C3810131   5.693   2.734   5.624 -0.4304 -0.7864  0.0486
  100SAPE   H8X10132   5.652   2.717   5.726 -1.7004 -2.6041 -0.7248
  100SAPE   H8Y10133   5.783   2.675   5.600  0.4337  1.0977 -1.6632
  100SAPE   C3910134   5.595   2.694   5.518 -0.4127 -0.3094 -0.0147
  100SAPE   H9X10135   5.661   2.711   5.430  1.4537  0.2127  1.4260
  100SAPE   H9Y10136   5.511   2.766   5.511  0.7870  1.1332  0.0332
  100SAPE  C31010137   5.529   2.554   5.542  0.0368  0.1168  0.5827
  100SAPE  H10X10138   5.469   2.556   5.635  0.7484  1.6822  1.0419
  100SAPE  H10Y10139   5.611   2.479   5.553  0.1870 -0.2713 -2.4858
  100SAPE  C31110140   5.422   2.524   5.432 -0.6050  0.1436 -0.9039
  100SAPE  H11X10141   5.351   2.607   5.413 -0.3716  0.9000  1.2095
  100SAPE  H11Y10142   5.352   2.446   5.470 -1.2434  3.2986  5.8405
  100SAPE  C31210143   5.479   2.485   5.292 -0.2426  0.2641  1.0036
  100SAPE  H12X10144   5.544   2.395   5.293 -0.1775  0.1978 -1.6894
  100SAPE  H12Y10145   5.548   2.561   5.252 -0.2885 -0.2151 -0.0211
  100SAPE  C31310146   5.375   2.453   5.179 -0.9211  0.6395  0.6715
  100SAPE  H13X10147   5.314   2.546   5.166  0.4013  1.2210 -2.1153
  100SAPE  H13Y10148   5.308   2.373   5.217 -0.1822 -1.3141 -1.8444
  100SAPE  C31410149   5.437   2.423   5.037  0.9593  0.2055  0.8425
  100SAPE  H14X10150   5.510   2.340   5.028  0.8101  0.0349  1.1861
  100SAPE  H14Y10151   5.484   2.517   5.004  0.2321  0.3229  0.0930
  100SAPE  C31510152   5.327   2.393   4.931  0.1085  0.5746  0.0328
  100SAPE  H15X10153   5.240   2.460   4.951 -0.7019 -0.2248 -0.7533
  100SAPE  H15Y10154   5.299   2.287   4.952 -2.5134  0.8148 -1.7224
  100SAPE  C31610155   5.373   2.406   4.795  0.0232 -0.2374 -0.1879
  100SAPE  H16X10156   5.474   2.359   4.792 -0.2503 -1.0271  1.4963
  100SAPE  H16Y10157   5.372   2.515   4.776 -0.5424 -0.0722  0.7442
  100SAPE  C31710158   5.285   2.343   4.691  0.9779  0.1269 -0.2764
  100SAPE  H17X10159   5.190   2.398   4.674 -0.5978 -2.5774 -0.7281
  100SAPE  H17Y10160   5.265   2.236   4.713 -0.3487  0.3238 -0.4645
  100SAPE  C31810161   5.352   2.345   4.549 -0.0475 -0.3695 -0.1108
  100SAPE  H18X10162   5.280   2.293   4.482  1.3416 -1.4199 -0.8220
  100SAPE  H18Y10163   5.453   2.299   4.551  0.1866  0.1580  1.0037
  100SAPE  H18Z10164   5.358   2.451   4.515 -2.2193 -0.1859 -0.0795
  101SAPE     N10165   6.095   4.250   6.632 -0.2227 -0.0207  0.0559
  101SAPE   HN110166   6.014   4.315   6.626 -0.2853 -0.1991 -1.2932
  101SAPE   HN210167   6.059   4.168   6.685  0.6886 -1.7659 -1.8695
  101SAPE   HN310168   6.167   4.292   6.695 -0.5647  0.8916 -0.1518
  101SAPE   C1210169   6.150   4.208   6.501  0.5425 -0.5606 -0.2709
  101SAPE  H12A10170   6.075   4.141   6.453 -0.6130 -0.2886  1.0912
  101SAPE  H12B10171   6.247   4.160   6.526  2.0333  1.4995 -1.7883
  101SAPE   C1110172   6.172   4.325   6.401  0.0272  0.4373 -0.6532
  101SAPE  H11A10173   6.071   4.370   6.391 -0.3779  0.1745  1.6233
  101SAPE  H11B10174   6.218   4.304   6.302  0.1607  0.3418 -0.5715
  101SAPE     P10175   6.412   4.415   6.469 -0.1123  0.1757  0.1303
  101SAPE   O1310176   6.458   4.530   6.546 -0.1918 -0.1609 -0.0872
  101SAPE   O1410177   6.456   4.281   6.520  0.0576 -0.2022  0.5950
  101SAPE   O1210178   6.252   4.424   6.461 -0.0400 -0.0181 -0.2066
  101SAPE   O1110179   6.457   4.424   6.327  0.7525 -0.3173  0.3425
  101SAPE    C110180   6.402   4.532   6.242  0.1167  0.7643 -0.9816
  101SAPE    HA10181   6.294   4.511   6.227  0.8368 -2.4160 -2.7203
  101SAPE    HB10182   6.407   4.631   6.292 -0.9343  0.0139  0.6750
  101SAPE    C210183   6.470   4.552   6.103  0.5722  0.5136 -0.0656
  101SAPE    HS10184   6.418   4.631   6.045 -0.5480 -2.0954 -2.8372
  101SAPE   O2110185   6.481   4.437   6.015 -0.1749  0.1170 -0.0504
  101SAPE   C2110186   6.363   4.394   5.978  0.0980  0.7655  0.4618
  101SAPE   O2210187   6.254   4.416   6.025 -0.0924  0.2453  0.1314
  101SAPE   C2210188   6.384   4.306   5.850  0.1297 -0.6051 -0.2446
  101SAPE   H2R10189   6.440   4.373   5.781 -1.9855  0.5114 -0.9570
  101SAPE   H2S10190   6.445   4.221   5.886 -0.4640 -0.5763  0.8700
  101SAPE    C310191   6.614   4.599   6.131 -0.7717 -0.9300 -0.0017
  101SAPE    HX10192   6.659   4.514   6.187 -0.9698  0.0646  1.7364
  101SAPE    HY10193   6.615   4.688   6.198  1.1805 -0.3562 -0.7272
  101SAPE   O3110194   6.671   4.616   5.997  0.3542  0.0639  0.0234
  101SAPE   C3110195   6.796   4.634   6.007 -0.2090 -0.1572 -0.1091
  101SAPE   O3210196   6.864   4.634   6.107  0.0301 -1.5343 -0.6222
  101SAPE   C3210197   6.858   4.658   5.869  0.2106  0.6961 -0.1616
  101SAPE   H2X10198   6.774   4.668   5.798 -0.1411 -0.0792  0.1290
  101SAPE   H2Y10199   6.915   4.568   5.838  0.8450  1.3801 -1.0338
  101SAPE   C2310200   6.255   4.255   5.771  0.1500 -0.5950 -0.7287
  101SAPE   H3R10201   6.177   4.334   5.766 -0.5794 -1.2785 -0.3929
  101SAPE   H3S10202   6.210   4.178   5.837  0.7357 -0.8227 -0.5929
  101SAPE   C2410203   6.285   4.198   5.630  0.2970  0.3233  0.1648
  101SAPE   H4R10204   6.367   4.125   5.646  0.5138  0.4392 -0.3820
  101SAPE   H4S10205   6.345   4.270   5.569  0.0599  0.8708  0.5701
  101SAPE   C2510206   6.165   4.142   5.555  0.0801 -0.1983  0.4382
  101SAPE   H5R10207   6.149   4.035   5.575  1.6733 -1.0090 -2.0484
  101SAPE   C2610208   6.098   4.215   5.464  0.5748 -0.1955 -0.1941
  101SAPE   H6R10209   6.011   4.164   5.419  0.1874  0.5617 -0.3111
  101SAPE   C2710210   6.140   4.351   5.421  0.0231  0.3735  0.1386
  101SAPE   H7R10211   6.241   4.355   5.377 -1.5873  1.0659 -3.9239
  101SAPE   H7S10212   6.137   4.418   5.510  1.7016 -0.6199  0.9892
  101SAPE   C2810213   6.049   4.406   5.310  0.4460 -0.4893  0.3473
  101SAPE   H8R10214   5.963   4.466   5.340  0.4234  0.7906 -2.0473
  101SAPE   C2910215   6.055   4.377   5.182  0.3564  0.6647  0.1608
  101SAPE   H9R10216   5.980   4.414   5.110 -2.1040  0.7779  2.6280
  101SAPE  C21010217   6.160   4.282   5.120  0.1521 -0.6313 -1.1146
  101SAPE  H10R10218   6.239   4.240   5.186 -0.0645 -0.4417 -0.7279
  101SAPE  H10S10219   6.211   4.344   5.043 -0.7834  0.9855 -0.4908
  101SAPE  C21110220   6.078   4.167   5.061 -0.1105 -0.4299  0.0006
  101SAPE  H11R10221   5.971   4.159   5.089 -0.6608  2.4173 -0.9879
  101SAPE  C21210222   6.133   4.087   4.966  0.2076  0.0227  0.0864
  101SAPE  H12R10223   6.080   3.994   4.939  0.2246 -0.1531  0.6553
  101SAPE  C21310224   6.270   4.095   4.912  0.4035  0.0085 -0.2670
  101SAPE  H13R10225   6.296   4.203   4.906  1.2660 -0.0931  1.1446
  101SAPE  H13S10226   6.265   4.054   4.809  0.0321 -0.4141 -0.0838
  101SAPE  C21410227   6.365   4.009   4.994  0.7644 -0.2609 -0.5143
  101SAPE  H14R10228   6.395   4.061   5.086 -1.0071  0.5699 -0.3619
  101SAPE  C21510229   6.393   3.884   4.965 -0.1172 -0.3633 -0.3400
  101SAPE  H15R10230   6.451   3.829   5.040 -1.2046  0.3641  1.1028
  101SAPE  C21610231   6.360   3.804   4.845  0.1937 -0.3492  0.1677
  101SAPE  H16R10232   6.318   3.860   4.759 -0.9542  0.2973  1.1074
  101SAPE  H16S10233   6.278   3.733   4.869  0.7326 -0.9140  0.3466
  101SAPE  C21710234   6.486   3.724   4.802 -1.0165 -0.3311  0.3339
  101SAPE  H17R10235   6.528   3.665   4.886  2.4955 -0.2781 -1.2122
  101SAPE  H17S10236   6.568   3.795   4.776 -2.7588  1.6920  0.1397
  101SAPE  C21810237   6.465   3.641   4.674 -0.9633  0.1208 -0.1444
  101SAPE  H18R10238   6.412   3.701   4.597 -0.0313 -0.3728 -1.2007
  101SAPE  H18S10239   6.392   3.560   4.696 -0.1027  0.1253  3.4408
  101SAPE  C21910240   6.583   3.586   4.601  0.7395  0.1442 -0.0063
  101SAPE  H19R10241   6.539   3.526   4.519  1.6323  1.1846 -1.2833
  101SAPE  H19S10242   6.650   3.518   4.659 -1.2116 -2.1953 -0.3530
  101SAPE  C22010243   6.662   3.703   4.539  0.5822 -0.0536 -0.0196
  101SAPE  H20R10244   6.584   3.770   4.496  1.7091 -0.5645 -3.0824
  101SAPE  H20S10245   6.743   3.672   4.469  0.2016  0.3396 -0.6464
  101SAPE  H20T10246   6.710   3.762   4.621 -0.6446  0.5559  0.2823
  101SAPE   C3310247   6.975   4.763   5.858  0.5864  0.1434  0.3595
  101SAPE   H3X10248   7.042   4.745   5.945  0.0081 -0.5394  0.6679
  101SAPE   H3Y10249   6.938   4.868   5.866  0.2949  0.1822 -1.1300
  101SAPE   C3410250   7.057   4.751   5.724  0.7276 -0.0735  0.5642
  101SAPE   H4X10251   7.094   4.648   5.703  2.1563  0.2769  1.2064
  101SAPE   H4Y10252   7.142   4.822   5.721 -0.1170  0.9736  0.8064
  101SAPE   C3510253   6.963   4.778   5.605  0.5278  0.4337  0.5963
  101SAPE   H5X10254   6.934   4.886   5.608  1.1506  0.6495 -0.6141
  101SAPE   H5Y10255   6.867   4.721   5.612  0.2658  0.8740  0.6600
  101SAPE   C3610256   7.027   4.732   5.469 -0.4895  0.0342 -0.2974
  101SAPE   H6X10257   7.027   4.622   5.479 -0.1291 -0.0114 -0.7531
  101SAPE   H6Y10258   7.133   4.764   5.460 -0.8240  1.3114  0.0191
  101SAPE   C3710259   6.931   4.764   5.358  0.1222 -0.5301  0.2145
  101SAPE   H7X10260   6.871   4.854   5.385 -0.6271 -2.0549  4.4035
  101SAPE   H7Y10261   6.862   4.678   5.344  1.0479 -1.4212  0.9310
  101SAPE   C3810262   7.004   4.785   5.229 -0.0567  0.5507  0.9857
  101SAPE   H8X10263   7.097   4.725   5.228 -1.9060 -2.6172 -1.6360
  101SAPE   H8Y10264   7.041   4.890   5.235  1.4582  0.0807  0.3901
  101SAPE   C3910265   6.917   4.740   5.099 -0.4620 -0.1192 -0.0425
  101SAPE   H9X10266   6.821   4.793   5.114 -0.2602  0.7067 -1.4554
  101SAPE   H9Y10267   6.906   4.630   5.099 -1.0162 -0.1514  3.0709
  101SAPE  C31010268   6.985   4.782   4.973 -0.2576 -0.0452 -0.1340
  101SAPE  H10X10269   7.087   4.739   4.984 -1.2147 -2.1127  1.3441
  101SAPE  H10Y10270   6.985   4.893   4.966  0.6527  0.0770  1.3166
  101SAPE  C31110271   6.917   4.715   4.857 -0.6475  0.0187  0.3224
  101SAPE  H11X10272   6.809   4.736   4.840 -0.8395 -1.9923 -1.3826
  101SAPE  H11Y10273   6.924   4.605   4.840 -0.3918  0.1340 -0.3258
  101SAPE  C31210274   7.001   4.741   4.728 -0.0138  0.1572 -0.3196
  101SAPE  H12X10275   7.101   4.693   4.736  0.2367  0.4305 -1.5902
  101SAPE  H12Y10276   7.019   4.851   4.728  3.0520 -0.2572  0.2064
  101SAPE  C31310277   6.936   4.677   4.600  0.2566 -0.3231 -0.6357
  101SAPE  H13X10278   6.827   4.699   4.593 -0.0124 -1.9137 -1.9361
  101SAPE  H13Y10279   6.936   4.567   4.613  0.1114 -0.1787  0.8227
  101SAPE  C31410280   7.008   4.716   4.473 -0.0597  0.9521 -0.6693
  101SAPE  H14X10281   7.112   4.678   4.478 -0.7144 -0.8114  0.5709
  101SAPE  H14Y10282   6.992   4.826   4.477 -1.6309  0.7394 -0.4551
  101SAPE  C31510283   6.955   4.668   4.337  0.4207 -0.7387  0.1528
  101SAPE  H15X10284   6.851   4.707   4.331  0.4273 -0.1486  2.5336
  101SAPE  H15Y10285   6.932   4.560   4.349 -3.3403  0.0866  1.9701
  101SAPE  C31610286   7.034   4.698   4.209  0.1719 -0.1534 -0.9105
  101SAPE  H16X10287   7.059   4.806   4.208 -1.0800  0.3065  2.5395
  101SAPE  H16Y10288   6.962   4.678   4.127 -1.5732 -4.8855  1.3479
  101SAPE  C31710289   7.168   4.617   4.209 -0.3070 -0.3159  0.6079
  101SAPE  H17X10290   7.143   4.511   4.232 -0.1687  0.0408  2.6683
  101SAPE  H17Y10291   7.237   4.643   4.292  1.4328 -1.0435 -0.5663
  101SAPE  C31810292   7.238   4.621   4.074  0.6443 -0.0346 -0.1116
  101SAPE  H18X10293   7.233   4.727   4.041  4.0590  0.1111 -0.5475
  101SAPE  H18Y10294   7.181   4.559   4.002  0.4487  1.7625 -1.5859
  101SAPE  H18Z10295   7.340   4.579   4.089 -0.0154 -2.3798 -1.7661
  102SAPE     N10296   4.291   4.631   6.638 -0.1918  0.6614  0.5668
  102SAPE   HN110297   4.380   4.598   6.680 -0.7966 -1.1086  0.5330
  102SAPE   HN210298   4.305   4.711   6.572 -0.4130 -0.7109 -1.2329
  102SAPE   HN310299   4.235   4.665   6.718 -0.8141  0.7649  0.0966
  102SAPE   C1210300   4.204   4.525   6.575 -0.6230 -0.3739 -0.3128
  102SAPE  H12A10301   4.172   4.452   6.653 -0.3752 -0.5785 -0.4017
  102SAPE  H12B10302   4.275   4.474   6.506  1.1937 -1.6611  2.3432
  102SAPE   C1110303   4.089   4.594   6.496 -0.6188 -0.7611 -0.0269
  102SAPE  H11A10304   4.016   4.514   6.473 -1.7287  0.1098  0.4027
  102SAPE  H11B10305   4.123   4.634   6.398 -0.5747  0.7350  0.5725
  102SAPE     P10306   3.884   4.712   6.598 -0.0676  0.1155 -0.1828
  102SAPE   O1310307   3.840   4.579   6.656  0.5300  0.0406 -0.8592
  102SAPE   O1410308   3.863   4.832   6.679  0.0718 -0.9793 -0.0845
  102SAPE   O1210309   4.036   4.701   6.571 -0.6102 -0.0771  0.0005
  102SAPE   O1110310   3.825   4.727   6.455  0.4910 -0.0934 -0.2717
  102SAPE    C110311   3.681   4.745   6.445 -0.0928 -0.4154  0.0738
  102SAPE    HA10312   3.620   4.652   6.448 -3.6531  1.7139 -0.7205
  102SAPE    HB10313   3.636   4.812   6.522  1.1914 -1.3263  1.6752
  102SAPE    C210314   3.649   4.810   6.308 -0.3157  0.1891 -0.0265
  102SAPE    HS10315   3.540   4.792   6.304 -0.0249 -1.4523 -1.7920
  102SAPE   O2110316   3.726   4.736   6.210  0.2797 -0.6665  0.4038
  102SAPE   C2110317   3.710   4.612   6.185 -0.1738 -0.2077 -0.2290
  102SAPE   O2210318   3.617   4.537   6.221 -0.3438  0.1814 -0.1774
  102SAPE   C2210319   3.840   4.554   6.118  0.0941 -0.0932 -0.1900
  102SAPE   H2R10320   3.879   4.641   6.059  0.0011 -0.2612 -0.5036
  102SAPE   H2S10321   3.916   4.538   6.197  0.3914 -0.6461 -0.5793
  102SAPE    C310322   3.705   4.956   6.298 -0.2197 -0.9391  0.2288
  102SAPE    HX10323   3.815   4.952   6.280  0.0846 -0.8824  1.9646
  102SAPE    HY10324   3.697   5.012   6.393 -3.4478 -0.3975 -0.2376
  102SAPE   O3110325   3.639   5.024   6.189 -0.0084 -0.6511 -0.4038
  102SAPE   C3110326   3.631   5.157   6.200 -0.0144 -0.5778  0.4246
  102SAPE   O3210327   3.696   5.224   6.279 -0.3395  0.2955 -0.0193
  102SAPE   C3210328   3.547   5.225   6.096  0.2863  0.3899 -0.5768
  102SAPE   H2X10329   3.579   5.332   6.095  1.4446  0.1208  1.9831
  102SAPE   H2Y10330   3.441   5.202   6.121  0.5082  0.9891  0.9819
  102SAPE   C2310331   3.828   4.419   6.037  0.2925  0.4063 -0.6473
  102SAPE   H3R10332   3.746   4.429   5.963  0.1685 -0.1947 -0.5956
  102SAPE   H3S10333   3.816   4.335   6.108 -1.1767  0.4857 -0.7791
  102SAPE   C2410334   3.955   4.385   5.958 -0.2942  0.0945 -0.2171
  102SAPE   H4R10335   3.953   4.280   5.922  1.5328 -0.7813  2.0110
  102SAPE   H4S10336   4.028   4.401   6.040 -2.0766 -0.3776  1.5499
  102SAPE   C2510337   3.975   4.471   5.833  0.5722 -0.5394  0.2988
  102SAPE   H5R10338   3.947   4.577   5.847 -2.3541 -1.4189  1.8619
  102SAPE   C2610339   4.012   4.433   5.711  0.5670 -0.5495  0.6556
  102SAPE   H6R10340   4.020   4.509   5.633  0.9919  0.4906  1.6813
  102SAPE   C2710341   4.051   4.292   5.662  0.3639  0.1077 -0.6632
  102SAPE   H7R10342   3.973   4.249   5.596  0.6580 -0.9019 -0.3628
  102SAPE   H7S10343   4.074   4.220   5.743  1.9706 -2.3464 -3.1465
  102SAPE   C2810344   4.178   4.309   5.593 -0.1192  0.0011 -0.1866
  102SAPE   H8R10345   4.266   4.334   5.654 -1.9873  3.2696  1.4493
  102SAPE   C2910346   4.188   4.324   5.462  0.3714 -0.3245  0.3509
  102SAPE   H9R10347   4.286   4.326   5.413  0.3332 -1.4565  0.2153
  102SAPE  C21010348   4.071   4.321   5.364 -0.0830 -0.7781 -0.6946
  102SAPE  H10R10349   3.973   4.292   5.407 -0.1141 -0.4312 -0.5242
  102SAPE  H10S10350   4.100   4.255   5.280  1.1292 -0.2329 -0.7359
  102SAPE  C21110351   4.051   4.461   5.308 -0.3053  0.3046 -0.3514
  102SAPE  H11R10352   4.010   4.531   5.382  0.5833  0.2793  0.1850
  102SAPE  C21210353   4.075   4.511   5.188 -0.1934 -0.4894 -0.1497
  102SAPE  H12R10354   4.056   4.619   5.176 -1.8932 -0.9041 -1.7231
  102SAPE  C21310355   4.124   4.428   5.072  0.3341 -0.1343 -0.8763
  102SAPE  H13R10356   4.089   4.323   5.083 -0.0185 -0.1043 -1.6196
  102SAPE  H13S10357   4.234   4.444   5.069  0.0009  3.6257  0.9029
  102SAPE  C21410358   4.078   4.469   4.935 -0.1788 -0.2009 -0.3185
  102SAPE  H14R10359   3.990   4.535   4.936 -0.1602 -0.0946  2.6945
  102SAPE  C21510360   4.137   4.439   4.814 -0.0718 -0.0941 -0.2337
  102SAPE  H15R10361   4.096   4.473   4.717  0.0747 -2.9106 -1.3889
  102SAPE  C21610362   4.256   4.346   4.796 -0.0931  0.0408  0.6093
  102SAPE  H16R10363   4.300   4.308   4.890  0.0120  0.6386  0.8045
  102SAPE  H16S10364   4.339   4.403   4.748  0.2797  0.7158  2.0308
  102SAPE  C21710365   4.223   4.224   4.706  0.2909  0.4494 -0.8859
  102SAPE  H17R10366   4.215   4.265   4.603  2.9059  2.0866 -0.5314
  102SAPE  H17S10367   4.138   4.161   4.740  1.4581 -1.1694 -0.8655
  102SAPE  C21810368   4.342   4.124   4.691 -0.1702 -0.6807 -0.4201
  102SAPE  H18R10369   4.371   4.093   4.794  1.3418  0.7121 -0.3919
  102SAPE  H18S10370   4.436   4.165   4.650 -1.0402 -0.9480 -2.8484
  102SAPE  C21910371   4.290   4.007   4.607 -0.0374 -0.5157 -0.3962
  102SAPE  H19R10372   4.241   4.039   4.513  0.1635 -2.9046 -1.3641
  102SAPE  H19S10373   4.221   3.952   4.675 -1.0179  0.2223 -0.7737
  102SAPE  C22010374   4.410   3.920   4.575 -0.0272  0.2114 -0.3615
  102SAPE  H20R10375   4.486   3.959   4.504  1.1585 -3.2337 -1.2261
  102SAPE  H20S10376   4.377   3.822   4.533  0.4795 -0.8896  1.6938
  102SAPE  H20T10377   4.464   3.880   4.663 -1.0427 -0.9165 -0.2132
  102SAPE   C3310378   3.579   5.188   5.952  0.3675  0.1062  0.5426
  102SAPE   H3X10379   3.535   5.086   5.947  0.1533  0.2049  0.3923
  102SAPE   H3Y10380   3.689   5.184   5.937  0.3363 -0.0664  0.3453
  102SAPE   C3410381   3.493   5.278   5.860  0.3581  0.2748  0.4934
  102SAPE   H4X10382   3.541   5.378   5.858  0.8754  0.0398  0.8784
  102SAPE   H4Y10383   3.398   5.299   5.914  0.6213  2.7952  0.0956
  102SAPE   C3510384   3.487   5.235   5.712  0.1921 -0.4123 -0.3304
  102SAPE   H5X10385   3.400   5.167   5.695 -1.3947  1.4361  0.0234
  102SAPE   H5Y10386   3.588   5.194   5.690 -0.0317 -1.0342 -0.2259
  102SAPE   C3610387   3.476   5.359   5.616  1.0705  0.3989  0.1361
  102SAPE   H6X10388   3.579   5.400   5.626  0.7668  0.8293  1.8442
  102SAPE   H6Y10389   3.410   5.439   5.655  1.3905  0.6654  0.1325
  102SAPE   C3710390   3.436   5.329   5.470 -0.1571  0.1639 -0.2860
  102SAPE   H7X10391   3.433   5.428   5.419  3.4261 -0.0952 -1.2722
  102SAPE   H7Y10392   3.342   5.270   5.465 -0.0533 -0.1447  1.0659
  102SAPE   C3810393   3.546   5.249   5.395 -0.3200 -0.5377 -0.4985
  102SAPE   H8X10394   3.586   5.160   5.448 -1.2561 -2.0316 -2.1819
  102SAPE   H8Y10395   3.629   5.322   5.385 -1.7285  1.0965 -0.6358
  102SAPE   C3910396   3.490   5.193   5.262 -0.2142  0.7020 -0.2164
  102SAPE   H9X10397   3.434   5.275   5.211 -0.3920  0.9043  0.2978
  102SAPE   H9Y10398   3.419   5.109   5.279  0.4737  0.0249 -0.6629
  102SAPE  C31010399   3.599   5.142   5.172  0.0535 -0.6355  0.0832
  102SAPE  H10X10400   3.614   5.036   5.201 -0.5075 -0.8840 -0.5012
  102SAPE  H10Y10401   3.690   5.205   5.183 -2.0243  2.4787  0.5640
  102SAPE  C31110402   3.562   5.136   5.026 -0.1556 -0.0870  0.2249
  102SAPE  H11X10403   3.523   5.237   5.005 -2.5202 -0.7302  1.2125
  102SAPE  H11Y10404   3.484   5.060   5.005 -0.0169 -0.1173 -0.1785
  102SAPE  C31210405   3.683   5.097   4.928  0.8542 -0.3613 -0.1049
  102SAPE  H12X10406   3.698   4.987   4.932 -1.4718 -0.7050  0.3219
  102SAPE  H12Y10407   3.779   5.147   4.956  0.8042  0.2368 -0.9682
  102SAPE  C31310408   3.658   5.111   4.775 -0.0583  0.0956  0.0108
  102SAPE  H13X10409   3.744   5.053   4.738 -0.9981 -0.7152 -0.9840
  102SAPE  H13Y10410   3.670   5.221   4.760  1.9946 -0.0909  0.0433
  102SAPE  C31410411   3.530   5.065   4.720  0.0296  0.4302  0.0267
  102SAPE  H14X10412   3.449   5.139   4.734 -1.4932 -0.6738 -2.3227
  102SAPE  H14Y10413   3.510   4.968   4.771  1.6390 -1.0369 -1.9568
  102SAPE  C31510414   3.554   5.037   4.572 -0.6118 -0.2987  0.5863
  102SAPE  H15X10415   3.454   5.009   4.533 -0.5461  2.5952 -2.1622
  102SAPE  H15Y10416   3.625   4.955   4.549 -1.2412 -0.4727 -0.8765
  102SAPE  C31610417   3.592   5.170   4.498 -0.2613  0.0082  0.4573
  102SAPE  H16X10418   3.699   5.190   4.523  0.5835 -1.5348 -1.6833
  102SAPE  H16Y10419   3.522   5.249   4.533  1.4521  1.7029  0.2103
  102SAPE  C31710420   3.593   5.155   4.346  0.6369 -0.2492 -0.0387
  102SAPE  H17X10421   3.641   5.066   4.301  0.2832  0.5002 -2.0059
  102SAPE  H17Y10422   3.648   5.246   4.313 -0.2506  0.2531 -0.1638
  102SAPE  C31810423   3.457   5.159   4.282 -0.1916 -0.2018 -0.5525
  102SAPE  H18X10424   3.381   5.164   4.362  1.9771  0.2159  1.5759
  102SAPE  H18Y10425   3.449   5.069   4.217 -0.4304 -1.0254  0.5866
  102SAPE  H18Z10426   3.448   5.241   4.208 -0.6707  0.7451  0.5351
  103SAPE     N10427   5.323   0.276   2.151 -0.3688  0.4126 -0.1243
  103SAPE   HN110428   5.387   0.324   2.084 -0.5748 -0.1110 -0.7022
  103SAPE   HN210429   5.384   0.222   2.215  0.1320  0.1140 -0.8347
  103SAPE   HN310430   5.257   0.212   2.102 -2.8027  2.5404  0.1335
  103SAPE   C1210431   5.227   0.345   2.234 -0.1939  0.2753 -0.2346
  103SAPE  H12A10432   5.277   0.392   2.322  0.6858 -1.3414  0.1680
  103SAPE  H12B10433   5.154   0.269   2.269  0.6073 -0.8077 -0.8737
  103SAPE   C1110434   5.159   0.456   2.149 -0.5853  0.5487 -0.0147
  103SAPE  H11A10435   5.087   0.503   2.219 -1.7820 -4.0769  2.2715
  103SAPE  H11B10436   5.096   0.409   2.070  0.9025 -1.8302  0.1025
  103SAPE     P10437   5.209   0.708   2.088  0.7679  0.0618  0.5954
  103SAPE   O1310438   5.339   0.789   2.090 -0.2545 -0.0024 -0.1063
  103SAPE   O1410439   5.116   0.734   1.970 -0.8031 -0.5759 -0.2652
  103SAPE   O1210440   5.255   0.549   2.097  0.0041 -0.1287  0.3296
  103SAPE   O1110441   5.135   0.736   2.224 -0.8586  0.3982 -0.2847
  103SAPE    C110442   5.194   0.746   2.353  0.5011 -0.0361 -0.0160
  103SAPE    HA10443   5.254   0.654   2.373  1.9001  0.6495 -0.9604
  103SAPE    HB10444   5.268   0.828   2.355  0.4814 -0.0294  1.2677
  103SAPE    C210445   5.095   0.772   2.475 -0.4277 -0.0546  0.0943
  103SAPE    HS10446   5.160   0.777   2.566  0.7054 -4.9494 -0.1625
  103SAPE   O2110447   4.998   0.670   2.483  0.1314 -0.0940  0.0608
  103SAPE   C2110448   5.022   0.534   2.488 -0.1075  0.0632  0.4223
  103SAPE   O2210449   5.131   0.486   2.505  0.4348  0.1974  0.1231
  103SAPE   C2210450   4.892   0.454   2.456  0.0179 -0.5708 -0.4095
  103SAPE   H2R10451   4.822   0.519   2.398  0.8719  1.1871  0.4712
  103SAPE   H2S10452   4.935   0.369   2.399 -0.8082 -0.9198 -0.5238
  103SAPE    C310453   5.029   0.912   2.448 -0.5158  0.2736 -0.2584
  103SAPE    HX10454   4.963   0.901   2.359  0.0704  1.3571 -0.8422
  103SAPE    HY10455   5.101   0.992   2.422  0.2248  0.0280  0.9370
  103SAPE   O3110456   4.963   0.951   2.571  0.5280 -0.1075  0.0075
  103SAPE   C3110457   4.841   0.908   2.592 -0.6922  0.1405  0.7179
  103SAPE   O3210458   4.768   0.852   2.508  0.1871  0.5063 -0.5450
  103SAPE   C3210459   4.799   0.948   2.737  0.2054  0.5962  0.6124
  103SAPE   H2X10460   4.711   0.881   2.750  2.2104 -2.6369 -0.9783
  103SAPE   H2Y10461   4.784   1.058   2.735  2.1916  0.9112  0.7099
  103SAPE   C2310462   4.807   0.395   2.573 -0.1906  0.9087 -0.0203
  103SAPE   H3R10463   4.879   0.343   2.639 -2.1785 -1.7867  0.2054
  103SAPE   H3S10464   4.753   0.313   2.521 -0.6838  1.1524  0.0927
  103SAPE   C2410465   4.712   0.488   2.643 -0.8581 -0.2873 -0.6113
  103SAPE   H4R10466   4.634   0.524   2.573 -0.2279  0.7770 -0.7822
  103SAPE   H4S10467   4.762   0.575   2.691 -1.4779  0.4620 -1.3116
  103SAPE   C2510468   4.630   0.413   2.749  0.1827  0.0570 -0.2250
  103SAPE   H5R10469   4.564   0.335   2.707  0.6586 -0.4944  0.0462
  103SAPE   C2610470   4.612   0.451   2.882 -0.1195  0.7322 -0.1862
  103SAPE   H6R10471   4.533   0.403   2.941  1.1122  2.3502  3.0138
  103SAPE   C2710472   4.664   0.570   2.962 -0.0126  0.1713  0.3137
  103SAPE   H7R10473   4.582   0.614   3.023 -0.4314  1.7138 -1.2677
  103SAPE   H7S10474   4.704   0.651   2.897 -1.5647  0.3308 -0.4814
  103SAPE   C2810475   4.774   0.515   3.047 -0.4174 -0.0696  0.2145
  103SAPE   H8R10476   4.868   0.492   2.993 -1.0937 -1.1726 -0.5381
  103SAPE   C2910477   4.770   0.483   3.176  0.0792  0.1549 -0.4809
  103SAPE   H9R10478   4.860   0.442   3.225 -0.9040 -0.4350  0.8947
  103SAPE  C21010479   4.658   0.519   3.271 -0.1030  1.2902 -0.5713
  103SAPE  H10R10480   4.628   0.425   3.323 -0.0822  2.3997  1.5425
  103SAPE  H10S10481   4.571   0.548   3.210 -0.0450  0.1243 -1.2384
  103SAPE  C21110482   4.704   0.631   3.364 -0.1803  0.1581 -0.3658
  103SAPE  H11R10483   4.714   0.732   3.319 -1.3912 -0.0631 -1.1866
  103SAPE  C21210484   4.739   0.628   3.499 -0.2100  0.7285 -0.0307
  103SAPE  H12R10485   4.777   0.717   3.550 -1.7293  1.4364 -0.0872
  103SAPE  C21310486   4.750   0.499   3.575 -0.4829  0.1323 -0.8476
  103SAPE  H13R10487   4.757   0.408   3.512 -0.3612 -0.7847  0.4602
  103SAPE  H13S10488   4.644   0.486   3.605 -1.0052 -0.1822 -2.6984
  103SAPE  C21410489   4.857   0.487   3.686  0.5769 -0.1410  0.0287
  103SAPE  H14R10490   4.912   0.577   3.715  0.0926  0.3123 -0.4435
  103SAPE  C21510491   4.898   0.375   3.750  0.0871 -0.0346  0.2128
  103SAPE  H15R10492   4.983   0.386   3.819 -0.1884 -0.5721  0.6394
  103SAPE  C21610493   4.815   0.243   3.734 -0.1114 -0.5776 -0.2645
  103SAPE  H16R10494   4.871   0.161   3.684  0.8531 -1.0676  1.5225
  103SAPE  H16S10495   4.720   0.255   3.677  0.0650 -1.4400 -0.7468
  103SAPE  C21710496   4.789   0.167   3.862 -0.0239  0.5722  0.6242
  103SAPE  H17R10497   4.886   0.153   3.915 -1.5609  1.1933  3.8534
  103SAPE  H17S10498   4.751   0.066   3.839 -0.9898  0.7068  1.5472
  103SAPE  C21810499   4.690   0.242   3.949  1.0520 -0.1438 -0.8829
  103SAPE  H18R10500   4.589   0.216   3.910  0.8991 -3.1448  1.1966
  103SAPE  H18S10501   4.716   0.350   3.937 -0.2802  0.1153 -1.6952
  103SAPE  C21910502   4.701   0.203   4.094  0.5812 -0.0574 -0.1827
  103SAPE  H19R10503   4.807   0.225   4.118  1.2247 -1.2424 -1.8078
  103SAPE  H19S10504   4.689   0.094   4.107  0.8979  0.0975  1.7782
  103SAPE  C22010505   4.604   0.279   4.187  0.4601 -0.3625  0.0801
  103SAPE  H20R10506   4.500   0.259   4.154  0.5158 -0.3829 -0.0836
  103SAPE  H20S10507   4.627   0.388   4.194 -1.7884  0.1074  1.5526
  103SAPE  H20T10508   4.598   0.240   4.291 -0.2373  1.7429  0.8927
  103SAPE   C3310509   4.912   0.910   2.833  0.0312 -0.0510  0.0748
  103SAPE   H3X10510   4.997   0.981   2.830  1.2963 -1.5238 -2.3780
  103SAPE   H3Y10511   4.954   0.816   2.791 -0.5204 -0.5163  0.5402
  103SAPE   C3410512   4.866   0.895   2.978  0.2990 -0.5504  0.5637
  103SAPE   H4X10513   4.954   0.889   3.046  0.4684 -1.1811  0.2936
  103SAPE   H4Y10514   4.821   0.795   2.995 -0.7101 -0.1923  0.0361
  103SAPE   C3510515   4.766   0.990   3.029 -0.2234  0.1166  0.0366
  103SAPE   H5X10516   4.676   0.977   2.965  0.2589  0.9315 -0.8382
  103SAPE   H5Y10517   4.799   1.094   3.009 -0.5074  0.4057  1.0409
  103SAPE   C3610518   4.726   0.976   3.176  0.4175  0.3193 -0.1866
  103SAPE   H6X10519   4.697   0.871   3.197  0.1238  0.9242  2.8913
  103SAPE   H6Y10520   4.641   1.046   3.194  0.1398  0.3023 -1.3541
  103SAPE   C3710521   4.839   1.006   3.276 -0.5164  0.3808 -0.2550
  103SAPE   H7X10522   4.875   1.110   3.260 -0.0691  0.0299 -1.6050
  103SAPE   H7Y10523   4.922   0.936   3.251 -2.5155 -1.3492 -2.4048
  103SAPE   C3810524   4.790   1.016   3.422  0.5215 -0.0681  0.5821
  103SAPE   H8X10525   4.723   0.931   3.442  0.9906 -0.3834  0.8472
  103SAPE   H8Y10526   4.739   1.115   3.430 -0.1042 -0.4398  1.2370
  103SAPE   C3910527   4.909   1.004   3.514  0.4445 -0.4155 -0.0182
  103SAPE   H9X10528   4.979   1.091   3.517 -0.7262  0.5489  0.9809
  103SAPE   H9Y10529   4.958   0.912   3.476 -0.5995 -1.0591  0.1591
  103SAPE  C31010530   4.861   0.985   3.662 -0.1706 -0.3569  0.4450
  103SAPE  H10X10531   4.762   0.936   3.655 -2.7578  4.3041  0.6558
  103SAPE  H10Y10532   4.846   1.089   3.698 -0.1091 -0.0660 -0.3549
  103SAPE  C31110533   4.966   0.913   3.746  0.5271  0.4063  0.0277
  103SAPE  H11X10534   5.067   0.956   3.728  0.5504  0.3623  0.0532
  103SAPE  H11Y10535   4.980   0.804   3.732  0.5874  0.1975  1.5074
  103SAPE  C31210536   4.939   0.930   3.894 -0.5668 -0.5973  0.8390
  103SAPE  H12X10537   4.929   1.035   3.928  1.5646 -0.4158  1.0174
  103SAPE  H12Y10538   5.028   0.885   3.942  0.7890  0.9119 -0.1379
  103SAPE  C31310539   4.815   0.849   3.939  0.0529 -0.2579 -0.2846
  103SAPE  H13X10540   4.818   0.749   3.890  2.6424  0.2424 -1.2777
  103SAPE  H13Y10541   4.720   0.905   3.925  1.0618  1.5647 -0.1747
  103SAPE  C31410542   4.823   0.811   4.093  0.2921  0.1267  0.5393
  103SAPE  H14X10543   4.923   0.764   4.106  0.4247  0.4613  0.7344
  103SAPE  H14Y10544   4.741   0.736   4.101  0.1112  0.2306 -0.2160
  103SAPE  C31510545   4.798   0.937   4.183  0.0887  0.2660  0.4588
  103SAPE  H15X10546   4.691   0.961   4.161 -1.2940 -3.0506  2.6341
  103SAPE  H15Y10547   4.865   1.019   4.151 -0.7935  1.4949  1.6541
  103SAPE  C31610548   4.819   0.899   4.330 -0.0799  0.2956 -0.7122
  103SAPE  H16X10549   4.921   0.858   4.349  1.1787  3.2680 -0.4443
  103SAPE  H16Y10550   4.759   0.807   4.350  1.1740 -0.8691 -2.1180
  103SAPE  C31710551   4.781   1.016   4.432  0.9045 -0.0654  0.3184
  103SAPE  H17X10552   4.677   1.044   4.404  0.2959 -2.1343  0.3670
  103SAPE  H17Y10553   4.854   1.092   4.395  1.0262  0.4267  1.5177
  103SAPE  C31810554   4.777   0.998   4.584 -0.2218  0.5570 -0.9493
  103SAPE  H18X10555   4.694   0.926   4.599 -0.9305  1.8498  1.8092
  103SAPE  H18Y10556   4.770   1.093   4.642  4.4892 -0.1234  1.2270
  103SAPE  H18Z10557   4.867   0.946   4.623 -0.4786  1.9236  1.6437
  104SAPE     N10558   4.670   1.853   2.236  0.4823 -0.0205 -1.1913
  104SAPE   HN110559   4.599   1.917   2.196  1.4598  0.3612 -2.3713
  104SAPE   HN210560   4.682   1.762   2.186  1.5271 -0.1857 -0.6699
  104SAPE   HN310561   4.640   1.833   2.333 -0.6248 -0.4429 -1.5941
  104SAPE   C1210562   4.800   1.928   2.256  0.1979  0.0913 -0.3358
  104SAPE  H12A10563   4.788   2.011   2.328 -1.8858 -0.3480 -0.1214
  104SAPE  H12B10564   4.830   1.977   2.160  0.5890  0.4265 -0.0463
  104SAPE   C1110565   4.908   1.843   2.311 -0.5174 -0.3042  0.1013
  104SAPE  H11A10566   4.867   1.779   2.393 -1.6964  0.6014  0.2462
  104SAPE  H11B10567   4.983   1.909   2.360  0.8320 -1.5437 -0.1927
  104SAPE     P10568   5.077   1.809   2.116 -0.2632  0.1843 -0.3164
  104SAPE   O1310569   5.148   1.706   2.037 -0.1719 -0.2562 -0.3863
  104SAPE   O1410570   5.025   1.921   2.037  0.1341 -0.2245 -0.3978
  104SAPE   O1210571   4.962   1.751   2.210 -0.0194  0.0083 -0.3057
  104SAPE   O1110572   5.184   1.864   2.222 -0.0275 -0.1103  0.9706
  104SAPE    C110573   5.263   1.784   2.307 -0.5500 -0.0148 -0.4149
  104SAPE    HA10574   5.243   1.677   2.287 -1.6606  0.3242 -1.2404
  104SAPE    HB10575   5.370   1.810   2.294 -0.6146  1.1574  1.1285
  104SAPE    C210576   5.238   1.820   2.453  0.4001 -0.3324 -0.0771
  104SAPE    HS10577   5.128   1.811   2.465  0.2014  0.2819 -1.2709
  104SAPE   O2110578   5.281   1.959   2.455  0.2085  0.0729  0.4472
  104SAPE   C2110579   5.205   2.039   2.523  0.3416  0.4648  1.1460
  104SAPE   O2210580   5.110   2.000   2.591 -0.4191  1.1357  0.1737
  104SAPE   C2210581   5.248   2.186   2.509  0.5365  0.5307 -0.0970
  104SAPE   H2R10582   5.358   2.196   2.512  0.9053 -2.4406  2.9890
  104SAPE   H2S10583   5.213   2.223   2.411  1.1948  2.3195  0.3145
  104SAPE    C310584   5.321   1.734   2.550  0.1568  0.1051  0.0628
  104SAPE    HX10585   5.423   1.713   2.511 -0.0078 -2.0596  0.6666
  104SAPE    HY10586   5.270   1.636   2.567 -1.7205  1.3205  1.9797
  104SAPE   O3110587   5.339   1.797   2.681 -0.0576  0.4877  0.0146
  104SAPE   C3110588   5.244   1.787   2.771  0.0329 -0.5745  0.1326
  104SAPE   O3210589   5.137   1.731   2.752  0.2832 -0.4492 -0.2175
  104SAPE   C3210590   5.295   1.861   2.897 -0.4406  0.7217  0.1652
  104SAPE   H2X10591   5.265   1.967   2.883 -1.4044  0.3866 -0.4058
  104SAPE   H2Y10592   5.406   1.855   2.897 -0.2852  2.5458 -1.2728
  104SAPE   C2310593   5.189   2.281   2.610  0.4669 -0.7918  0.3156
  104SAPE   H3R10594   5.079   2.269   2.612  0.4053 -0.2452  0.6581
  104SAPE   H3S10595   5.200   2.389   2.586 -2.1985 -0.0470  1.9984
  104SAPE   C2410596   5.249   2.273   2.752  0.3725  0.6075 -0.1514
  104SAPE   H4R10597   5.229   2.171   2.791 -0.6888  0.6806 -0.4672
  104SAPE   H4S10598   5.189   2.344   2.812  0.2619  0.7056 -0.3781
  104SAPE   C2510599   5.398   2.296   2.758  0.0130  0.6747 -0.0081
  104SAPE   H5R10600   5.446   2.311   2.660  0.5882 -1.2659 -0.0714
  104SAPE   C2610601   5.475   2.290   2.872 -0.3583  0.0570 -0.3213
  104SAPE   H6R10602   5.573   2.339   2.865  0.3858 -1.2631  0.5193
  104SAPE   C2710603   5.423   2.259   3.007  0.5284  0.1745 -0.6916
  104SAPE   H7R10604   5.508   2.219   3.068  1.2961  2.4117 -0.1911
  104SAPE   H7S10605   5.348   2.177   3.004 -1.6404  2.1201 -1.9527
  104SAPE   C2810606   5.357   2.381   3.075 -0.7165 -0.2415 -0.5478
  104SAPE   H8R10607   5.322   2.461   3.008  0.2741 -1.2462 -2.3395
  104SAPE   C2910608   5.326   2.394   3.206 -0.4734 -0.6954  0.2754
  104SAPE   H9R10609   5.296   2.493   3.243  0.3672  0.3195 -1.6017
  104SAPE  C21010610   5.340   2.292   3.316 -0.1594 -0.2472  0.1967
  104SAPE  H10R10611   5.412   2.212   3.288  0.7090  0.3275  0.7099
  104SAPE  H10S10612   5.240   2.243   3.319  0.9328 -2.5772  1.9367
  104SAPE  C21110613   5.371   2.344   3.453  0.8681 -0.6621 -0.6433
  104SAPE  H11R10614   5.473   2.386   3.461 -0.2531  2.6124 -1.6850
  104SAPE  C21210615   5.284   2.382   3.546  0.0492 -0.8522  0.3925
  104SAPE  H12R10616   5.330   2.416   3.640 -0.9952 -0.1219  0.6694
  104SAPE  C21310617   5.133   2.357   3.539 -0.2852 -0.8437 -0.8363
  104SAPE  H13R10618   5.121   2.281   3.618  2.7299 -0.1406  0.4292
  104SAPE  H13S10619   5.106   2.313   3.440  1.5437  0.1911 -1.8729
  104SAPE  C21410620   5.057   2.479   3.575 -0.3430 -0.8485 -0.5790
  104SAPE  H14R10621   5.018   2.544   3.495  1.1403  2.1340  0.9553
  104SAPE  C21510622   5.016   2.518   3.693  0.3176  0.2080 -0.3072
  104SAPE  H15R10623   4.970   2.618   3.698 -3.7406 -1.5217  1.5717
  104SAPE  C21610624   5.042   2.462   3.827 -0.0803 -0.6151  0.2816
  104SAPE  H16R10625   5.084   2.544   3.887  0.8386 -1.3361  0.6533
  104SAPE  H16S10626   5.129   2.393   3.831  1.4985  1.2168 -1.0019
  104SAPE  C21710627   4.925   2.396   3.903  0.9104 -0.7012  0.0706
  104SAPE  H17R10628   4.963   2.394   4.008 -0.6861 -1.4185  0.6706
  104SAPE  H17S10629   4.887   2.298   3.867 -1.3615  0.4922 -0.9762
  104SAPE  C21810630   4.798   2.487   3.911 -0.0724 -0.1384 -0.2133
  104SAPE  H18R10631   4.714   2.434   3.959  0.4854 -1.0758 -0.2520
  104SAPE  H18S10632   4.769   2.509   3.806 -0.1035 -0.9487 -0.3767
  104SAPE  C21910633   4.804   2.611   3.995 -0.3279 -0.6970  0.0815
  104SAPE  H19R10634   4.716   2.669   3.957  0.0874  0.3526  0.6769
  104SAPE  H19S10635   4.893   2.671   3.968 -1.4214  1.0111  0.0847
  104SAPE  C22010636   4.794   2.597   4.155  0.6932 -0.9482 -0.1648
  104SAPE  H20R10637   4.850   2.515   4.205  0.4992  0.7542  3.0514
  104SAPE  H20S10638   4.687   2.573   4.171  0.4504 -0.2295 -0.6196
  104SAPE  H20T10639   4.818   2.699   4.190  0.9057 -0.4298 -1.7142
  104SAPE   C3310640   5.234   1.818   3.028  0.9057  0.9759 -0.2309
  104SAPE   H3X10641   5.311   1.781   3.099  2.9919  1.3521 -2.1914
  104SAPE   H3Y10642   5.158   1.739   3.011 -0.0375  1.7401  0.3287
  104SAPE   C3410643   5.152   1.928   3.102  0.2434  0.8323 -0.4658
  104SAPE   H4X10644   5.049   1.887   3.105  0.6153 -0.1225  2.8045
  104SAPE   H4Y10645   5.149   2.024   3.045 -0.3689 -0.3446 -2.5080
  104SAPE   C3510646   5.192   1.938   3.246 -0.6139  0.0891 -0.0352
  104SAPE   H5X10647   5.283   1.998   3.268  0.5533 -1.8236  0.7182
  104SAPE   H5Y10648   5.220   1.837   3.283 -1.7144 -1.2559 -2.6148
  104SAPE   C3610649   5.079   1.990   3.338  0.0767  0.8466 -0.3483
  104SAPE   H6X10650   4.987   1.932   3.317  0.3746  0.3550 -0.3092
  104SAPE   H6Y10651   5.067   2.099   3.322  1.0310  1.1362  0.7669
  104SAPE   C3710652   5.115   1.958   3.485  0.1558  0.3071 -0.6385
  104SAPE   H7X10653   5.203   2.017   3.517  0.5534  0.8662 -2.6641
  104SAPE   H7Y10654   5.140   1.849   3.486 -0.7785  0.0417 -2.4725
  104SAPE   C3810655   5.001   1.996   3.578 -0.1191 -0.4087 -0.5944
  104SAPE   H8X10656   4.904   1.946   3.558 -1.4722  0.6077  2.8150
  104SAPE   H8Y10657   4.984   2.104   3.557  1.8096  0.1739  0.5491
  104SAPE   C3910658   5.050   1.985   3.726  0.2534 -0.5399  0.9746
  104SAPE   H9X10659   5.116   2.071   3.751 -0.0650 -0.9430  3.4201
  104SAPE   H9Y10660   5.118   1.898   3.738 -0.8796 -1.2060  2.8280
  104SAPE  C31010661   4.937   1.971   3.829  0.2461 -0.3365  0.6873
  104SAPE  H10X10662   4.868   1.891   3.796 -0.2140 -0.0988  1.0716
  104SAPE  H10Y10663   4.883   2.066   3.845  0.1254  0.1570 -2.1368
  104SAPE  C31110664   5.015   1.921   3.957  0.1426 -0.2709 -0.0038
  104SAPE  H11X10665   5.100   1.990   3.976 -1.9684  1.5953  3.7961
  104SAPE  H11Y10666   5.059   1.820   3.942 -0.5714 -1.2468  3.4892
  104SAPE  C31210667   4.922   1.923   4.075 -0.2814 -0.6892  0.3317
  104SAPE  H12X10668   4.829   1.872   4.043 -1.2490  1.4536 -0.5278
  104SAPE  H12Y10669   4.882   2.024   4.102  0.4900 -0.3460  0.2342
  104SAPE  C31310670   4.979   1.861   4.200  0.6222 -0.6715  0.0533
  104SAPE  H13X10671   5.040   1.933   4.259 -1.6789 -1.1485  3.3341
  104SAPE  H13Y10672   5.023   1.761   4.183 -1.2514 -1.1685 -2.4217
  104SAPE  C31410673   4.855   1.825   4.291 -0.5226  0.2766  0.1695
  104SAPE  H14X10674   4.803   1.736   4.250  0.5724 -0.1111 -0.4334
  104SAPE  H14Y10675   4.784   1.910   4.285 -1.4657 -0.5763 -1.7928
  104SAPE  C31510676   4.911   1.804   4.429  1.5456  0.0729  0.3321
  104SAPE  H15X10677   4.946   1.903   4.467 -1.9050  1.2370  0.8703
  104SAPE  H15Y10678   4.990   1.727   4.416 -0.4566 -2.3427  1.7664
  104SAPE  C31610679   4.806   1.737   4.531 -0.3784 -0.2628  0.5035
  104SAPE  H16X10680   4.869   1.720   4.621 -0.2838  1.2601  0.7616
  104SAPE  H16Y10681   4.755   1.650   4.486  0.3882  0.2021 -1.3596
  104SAPE  C31710682   4.702   1.831   4.582  0.3214 -0.3717 -0.5083
  104SAPE  H17X10683   4.636   1.862   4.498 -1.3909 -0.1253  0.8494
  104SAPE  H17Y10684   4.754   1.924   4.612  0.6351  0.0192 -2.1728
  104SAPE  C31810685   4.624   1.776   4.705 -0.0435  0.3186 -0.3399
  104SAPE  H18X10686   4.702   1.762   4.783 -2.7308  1.2515  2.7317
  104SAPE  H18Y10687   4.572   1.680   4.683  2.0487 -0.5406 -2.0135
  104SAPE  H18Z10688   4.541   1.844   4.731 -1.3121 -1.8495  1.6552
  105SAPE     N10689   1.604   6.466   2.582 -0.3769 -0.2814 -0.7592
  105SAPE   HN110690   1.591   6.363   2.582 -2.5642 -0.0512  0.0753
  105SAPE   HN210691   1.532   6.498   2.514  0.7936  2.1147 -0.9886
  105SAPE   HN310692   1.692   6.496   2.534 -1.3412  2.1470 -1.1826
  105SAPE   C1210693   1.594   6.521   2.716  0.3756  0.3277  0.2121
  105SAPE  H12A10694   1.682   6.483   2.771  0.2831  0.1388  0.2303
  105SAPE  H12B10695   1.508   6.471   2.765 -0.1917  1.6780  0.6530
  105SAPE   C1110696   1.598   6.674   2.712 -0.7111  0.8268  0.2759
  105SAPE  H11A10697   1.696   6.705   2.671 -0.1093  0.5502  1.4796
  105SAPE  H11B10698   1.601   6.701   2.819  2.1078 -2.4467  1.1786
  105SAPE     P10699   1.363   6.786   2.697  0.3561 -0.0201 -0.6315
  105SAPE   O1310700   1.297   6.873   2.592 -0.6102  0.0421  0.4011
  105SAPE   O1410701   1.281   6.672   2.745 -0.5514 -0.2912  0.2707
  105SAPE   O1210702   1.497   6.737   2.635 -0.2792  0.4955  0.1996
  105SAPE   O1110703   1.412   6.876   2.822 -0.4901  0.0656 -0.2623
  105SAPE    C110704   1.418   7.019   2.814  0.3532 -0.5270 -0.2733
  105SAPE    HA10705   1.320   7.054   2.776  0.2471  0.5801  0.9690
  105SAPE    HB10706   1.431   7.067   2.913  2.1715 -0.6370 -0.4337
  105SAPE    C210707   1.540   7.068   2.728  0.0552 -0.0243 -0.0338
  105SAPE    HS10708   1.539   7.005   2.637 -2.0817  1.0770 -0.8484
  105SAPE   O2110709   1.659   7.040   2.802  0.6074 -0.2086  0.1076
  105SAPE   C2110710   1.776   7.064   2.743  0.4205  0.2680 -0.5225
  105SAPE   O2210711   1.796   7.105   2.627  0.0328  0.7442  0.1117
  105SAPE   C2210712   1.884   7.021   2.840  0.2307 -0.5311  0.5485
  105SAPE   H2R10713   1.841   7.024   2.943  0.7398 -0.4357  0.7644
  105SAPE   H2S10714   1.919   6.917   2.821  0.1592 -0.6145  0.8716
  105SAPE    C310715   1.523   7.215   2.685  0.0666  0.1482 -0.4058
  105SAPE    HX10716   1.426   7.221   2.630  0.7614 -2.5085 -2.1033
  105SAPE    HY10717   1.598   7.250   2.611  0.7205  0.1791  0.2581
  105SAPE   O3110718   1.525   7.304   2.800 -0.5717 -0.3249  0.3239
  105SAPE   C3110719   1.540   7.433   2.760  0.2801 -0.0457 -0.9117
  105SAPE   O3210720   1.551   7.464   2.647 -0.5833  0.0892 -0.1175
  105SAPE   C3210721   1.559   7.526   2.875  0.8534  0.7363 -0.3482
  105SAPE   H2X10722   1.576   7.465   2.966  0.2255  1.5510  0.3335
  105SAPE   H2Y10723   1.469   7.585   2.903  1.3205  1.9184 -1.2378
  105SAPE   C2310724   2.018   7.103   2.824 -0.0421 -0.5530 -0.7160
  105SAPE   H3R10725   2.057   7.072   2.725  0.5448 -0.2365 -0.5839
  105SAPE   H3S10726   2.087   7.069   2.904  2.0208  1.3951 -1.5747
  105SAPE   C2410727   1.992   7.255   2.841 -0.0757 -0.3699  0.1837
  105SAPE   H4R10728   1.937   7.261   2.937  0.7452  0.2482  0.6266
  105SAPE   H4S10729   1.919   7.288   2.764  1.0221  0.1143 -0.6757
  105SAPE   C2510730   2.115   7.346   2.852  0.3768 -0.2951 -0.0812
  105SAPE   H5R10731   2.157   7.387   2.758 -0.0067  0.0164 -0.1227
  105SAPE   C2610732   2.176   7.389   2.964 -0.3087 -0.2124 -0.1711
  105SAPE   H6R10733   2.251   7.470   2.960 -0.5283  0.2361  2.6358
  105SAPE   C2710734   2.134   7.356   3.113 -0.6298 -0.5801  0.8205
  105SAPE   H7R10735   2.067   7.268   3.126  2.7847 -3.2906  1.5170
  105SAPE   H7S10736   2.074   7.442   3.150  0.2904  0.7232 -0.5848
  105SAPE   C2810737   2.256   7.335   3.198  0.1011 -0.5455 -0.5807
  105SAPE   H8R10738   2.334   7.273   3.151  1.8199  1.5531 -0.6234
  105SAPE   C2910739   2.261   7.401   3.319 -0.4765 -0.1904 -0.3912
  105SAPE   H9R10740   2.350   7.384   3.382 -0.3627 -2.0045 -0.9694
  105SAPE  C21010741   2.151   7.484   3.384 -0.5143 -0.4725  0.1277
  105SAPE  H10R10742   2.056   7.428   3.394 -1.0377  0.4705  0.5781
  105SAPE  H10S10743   2.121   7.562   3.312 -0.9937 -2.1360 -1.5392
  105SAPE  C21110744   2.204   7.557   3.505  0.5641  0.5612 -0.2754
  105SAPE  H11R10745   2.216   7.666   3.496  0.6456  0.6414  0.7029
  105SAPE  C21210746   2.196   7.499   3.624  0.0978 -0.5388  0.3737
  105SAPE  H12R10747   2.214   7.557   3.716 -0.6237 -3.0473  2.1731
  105SAPE  C21310748   2.146   7.358   3.650  0.2793  0.2299 -0.4311
  105SAPE  H13R10749   2.117   7.299   3.560  0.8022  3.4845 -2.9641
  105SAPE  H13S10750   2.053   7.367   3.711 -0.3862 -1.4602 -1.1258
  105SAPE  C21410751   2.244   7.269   3.730  0.0654 -0.5634  0.7274
  105SAPE  H14R10752   2.320   7.212   3.674  1.0007  0.4114  0.9638
  105SAPE  C21510753   2.247   7.269   3.870 -0.0411  0.1335 -0.0309
  105SAPE  H15R10754   2.317   7.202   3.923 -1.2180  0.3545  1.9131
  105SAPE  C21610755   2.159   7.346   3.969 -0.2853 -0.0685  0.7005
  105SAPE  H16R10756   2.099   7.290   4.044  1.2754 -0.5984  1.5999
  105SAPE  H16S10757   2.080   7.407   3.919  0.8076  1.0323  0.2727
  105SAPE  C21710758   2.238   7.447   4.046  0.6322  0.2017 -0.0347
  105SAPE  H17R10759   2.169   7.498   4.117 -0.1966 -0.9938  0.0530
  105SAPE  H17S10760   2.282   7.522   3.977  0.3146  0.9536  0.5623
  105SAPE  C21810761   2.347   7.387   4.136  0.4351 -0.4490  0.3498
  105SAPE  H18R10762   2.413   7.325   4.071  1.7703 -0.5585  1.7755
  105SAPE  H18S10763   2.305   7.314   4.208  0.6727  0.4367  1.4159
  105SAPE  C21910764   2.431   7.492   4.209  0.0601 -0.3857  0.0295
  105SAPE  H19R10765   2.485   7.550   4.131  2.9542 -2.9534 -0.0781
  105SAPE  H19S10766   2.517   7.450   4.265  0.9884  0.9403 -0.3459
  105SAPE  C22010767   2.367   7.600   4.301  0.1446 -0.2312  0.0801
  105SAPE  H20R10768   2.295   7.662   4.244 -2.6467 -2.1661  1.3053
  105SAPE  H20S10769   2.438   7.676   4.341 -0.2710  1.3411 -2.0184
  105SAPE  H20T10770   2.315   7.556   4.389 -0.6761 -0.8631 -0.7072
  105SAPE   C3310771   1.677   7.629   2.852 -0.5377  0.1132  0.1540
  105SAPE   H3X10772   1.689   7.690   2.944 -1.2009 -0.3462  0.5474
  105SAPE   H3Y10773   1.661   7.699   2.767  2.1563  0.1744 -0.4158
  105SAPE   C3410774   1.820   7.570   2.824 -0.1207 -0.0898  0.1690
  105SAPE   H4X10775   1.801   7.511   2.732  1.7245 -0.9248  0.2811
  105SAPE   H4Y10776   1.855   7.500   2.903  1.5095 -0.5173 -0.8923
  105SAPE   C3510777   1.927   7.678   2.808  0.1512 -0.3148 -0.0239
  105SAPE   H5X10778   1.904   7.738   2.717  0.0532 -0.4826 -0.1107
  105SAPE   H5Y10779   2.028   7.635   2.791 -0.1870 -0.8282 -0.7971
  105SAPE   C3610780   1.954   7.776   2.932  0.2567 -0.2926 -0.5791
  105SAPE   H6X10781   1.877   7.856   2.923  0.0258 -0.3234  0.9674
  105SAPE   H6Y10782   2.053   7.822   2.909  0.2567  0.0591  0.0919
  105SAPE   C3710783   1.970   7.721   3.084  0.2164  0.1374  0.4136
  105SAPE   H7X10784   2.056   7.650   3.080  0.8538  0.9329 -1.9989
  105SAPE   H7Y10785   1.873   7.672   3.104 -0.3878  0.9286 -0.4925
  105SAPE   C3810786   1.986   7.829   3.189 -0.0818  0.2870  0.1888
  105SAPE   H8X10787   1.967   7.784   3.289  1.1979 -0.7157  0.0149
  105SAPE   H8Y10788   1.927   7.922   3.179  1.3007  1.4548  2.0180
  105SAPE   C3910789   2.131   7.880   3.203  0.2748 -0.2603 -0.4269
  105SAPE   H9X10790   2.171   7.902   3.101  1.4423  0.0829  0.0816
  105SAPE   H9Y10791   2.198   7.811   3.259  0.9043  0.4615 -0.2756
  105SAPE  C31010792   2.146   7.998   3.305 -0.5613 -0.2952 -0.2666
  105SAPE  H10X10793   2.069   8.073   3.279  1.1951  1.5400 -0.4285
  105SAPE  H10Y10794   2.246   8.043   3.283 -1.4684  2.0399  0.1541
  105SAPE  C31110795   2.123   7.953   3.453 -0.4132 -0.2368 -0.5829
  105SAPE  H11X10796   2.176   7.858   3.478 -2.2386 -1.5854 -1.5349
  105SAPE  H11Y10797   2.014   7.933   3.462 -0.6862  0.9392 -1.1203
  105SAPE  C31210798   2.140   8.066   3.547 -0.4547 -0.5590 -0.2713
  105SAPE  H12X10799   2.058   8.138   3.525 -2.1876 -1.8323  1.5768
  105SAPE  H12Y10800   2.245   8.098   3.529 -0.6940  0.1195 -0.5010
  105SAPE  C31310801   2.119   8.028   3.692 -0.2284  0.1528  0.7606
  105SAPE  H13X10802   2.013   8.037   3.723  0.0545  1.2139  1.4704
  105SAPE  H13Y10803   2.156   8.110   3.757 -0.9650  1.1343 -0.0248
  105SAPE  C31410804   2.169   7.884   3.736  0.7437 -0.1864  1.3507
  105SAPE  H14X10805   2.277   7.879   3.710  0.4149 -1.0286  0.0089
  105SAPE  H14Y10806   2.122   7.806   3.671 -0.6291  0.9937  0.8839
  105SAPE  C31510807   2.155   7.850   3.885 -0.3913  0.5419  0.1058
  105SAPE  H15X10808   2.226   7.767   3.905 -0.0756  0.4016 -1.4163
  105SAPE  H15Y10809   2.053   7.820   3.916 -0.6572 -0.8312 -1.8554
  105SAPE  C31610810   2.197   7.959   3.985  0.1497 -0.3890  0.1397
  105SAPE  H16X10811   2.124   8.043   3.978 -0.4584 -0.9590 -0.6637
  105SAPE  H16Y10812   2.297   7.987   3.946 -0.7431  2.6386 -0.1718
  105SAPE  C31710813   2.213   7.929   4.132 -0.1875  0.7556 -0.5150
  105SAPE  H17X10814   2.288   7.849   4.149  1.1871  2.4328  1.7145
  105SAPE  H17Y10815   2.117   7.893   4.177 -0.2083  0.8216 -0.5070
  105SAPE  C31810816   2.265   8.043   4.217 -0.0562 -0.4706 -0.5181
  105SAPE  H18X10817   2.283   8.004   4.319  0.7473  0.3933 -0.3188
  105SAPE  H18Y10818   2.190   8.126   4.226  1.7394  1.1818 -0.1748
  105SAPE  H18Z10819   2.355   8.090   4.172  0.2218  0.0568  0.5533
  106SAPE     N10820   1.332   4.787   1.876 -0.1313  0.4959  0.0265
  106SAPE   HN110821   1.337   4.726   1.792  1.9759  0.2895  0.2282
  106SAPE   HN210822   1.259   4.861   1.869 -0.8866 -0.2083  0.3072
  106SAPE   HN310823   1.429   4.822   1.893 -0.2222  0.1462  1.4491
  106SAPE   C1210824   1.316   4.690   1.995  0.1674  0.5694 -1.0046
  106SAPE  H12A10825   1.229   4.634   1.955 -0.7600  1.7069 -0.6230
  106SAPE  H12B10826   1.299   4.748   2.088  0.9241  0.6070 -0.8854
  106SAPE   C1110827   1.440   4.591   2.014  0.2647 -0.8730  0.2623
  106SAPE  H11A10828   1.471   4.536   1.922  2.6675 -0.5479  0.8175
  106SAPE  H11B10829   1.401   4.510   2.080 -0.5999 -2.9891 -2.6168
  106SAPE     P10830   1.689   4.610   2.065 -0.2730  0.4256  0.3299
  106SAPE   O1310831   1.695   4.465   2.057 -0.0435  0.1282  0.2079
  106SAPE   O1410832   1.767   4.689   1.971  0.1883 -0.1340 -0.1254
  106SAPE   O1210833   1.546   4.667   2.067  0.4839  0.3542  0.1604
  106SAPE   O1110834   1.739   4.650   2.207  0.0701  0.2172  0.4062
  106SAPE    C110835   1.827   4.759   2.231  0.2242  0.3331 -0.0149
  106SAPE    HA10836   1.929   4.756   2.186  0.2773  2.8238 -0.1529
  106SAPE    HB10837   1.778   4.841   2.175 -1.5818  1.0395  2.4171
  106SAPE    C210838   1.837   4.797   2.381  0.2546 -0.4365  0.1580
  106SAPE    HS10839   1.833   4.908   2.381 -1.0823 -0.4529 -1.3088
  106SAPE   O2110840   1.949   4.735   2.445  1.0410 -0.0804 -0.0889
  106SAPE   C2110841   2.070   4.795   2.436 -0.6621 -0.5190  0.3913
  106SAPE   O2210842   2.098   4.898   2.380 -0.5024  0.5745  0.6225
  106SAPE   C2210843   2.162   4.719   2.537 -0.3662 -0.3457 -0.5904
  106SAPE   H2R10844   2.096   4.668   2.610  0.9289 -0.8731  0.2398
  106SAPE   H2S10845   2.205   4.644   2.467  1.2793 -0.9646  1.0072
  106SAPE    C310846   1.707   4.745   2.461  0.0833 -0.0249 -0.3704
  106SAPE    HX10847   1.712   4.634   2.457 -0.9500 -0.1045  0.3098
  106SAPE    HY10848   1.610   4.762   2.411  0.0347 -1.7003 -0.8996
  106SAPE   O3110849   1.704   4.795   2.595 -0.1407  0.3536  0.0795
  106SAPE   C3110850   1.642   4.901   2.632 -0.2038 -0.9093  0.2923
  106SAPE   O3210851   1.572   4.972   2.560 -0.9502  0.3460 -0.5618
  106SAPE   C3210852   1.647   4.928   2.784 -0.1695  0.0222  0.4541
  106SAPE   H2X10853   1.549   4.898   2.828 -0.5417 -3.5658 -2.3585
  106SAPE   H2Y10854   1.655   5.039   2.794 -0.4033  0.1597 -0.7089
  106SAPE   C2310855   2.270   4.809   2.600  0.0896 -0.4577 -0.1230
  106SAPE   H3R10856   2.332   4.861   2.524  1.5648  1.2962  2.1653
  106SAPE   H3S10857   2.338   4.748   2.663  0.2753  0.2749  0.3963
  106SAPE   C2410858   2.215   4.916   2.692  0.1868 -0.3445  0.2504
  106SAPE   H4R10859   2.136   4.982   2.650  3.0689  3.2873  0.0286
  106SAPE   H4S10860   2.308   4.975   2.708  1.1055 -1.8019  0.4416
  106SAPE   C2510861   2.164   4.841   2.815 -0.2182 -0.3481 -0.3120
  106SAPE   H5R10862   2.075   4.779   2.801 -1.0473  0.2301  1.9898
  106SAPE   C2610863   2.199   4.854   2.941  0.4168  0.5087  0.1852
  106SAPE   H6R10864   2.161   4.783   3.015  0.3384  1.8788  1.4936
  106SAPE   C2710865   2.305   4.943   3.012 -0.2870 -0.3228  0.1938
  106SAPE   H7R10866   2.299   5.040   2.959 -2.2876 -0.7694 -0.4746
  106SAPE   H7S10867   2.402   4.892   2.992  0.9047  2.4588 -1.7263
  106SAPE   C2810868   2.269   4.959   3.154  0.3171 -0.3927 -0.2230
  106SAPE   H8R10869   2.264   4.864   3.210 -2.0061  0.5318  1.2734
  106SAPE   C2910870   2.231   5.061   3.231 -0.4092 -1.5719  0.3991
  106SAPE   H9R10871   2.197   5.045   3.334  0.0088 -1.1894  0.5987
  106SAPE  C21010872   2.220   5.206   3.186 -0.2510  0.2814 -0.0318
  106SAPE  H10R10873   2.179   5.205   3.082 -3.1940 -2.6116  0.9924
  106SAPE  H10S10874   2.321   5.251   3.191  0.0862  0.0302 -2.8548
  106SAPE  C21110875   2.122   5.270   3.276 -0.1250 -0.4353  0.5221
  106SAPE  H11R10876   2.126   5.244   3.382  1.6893  0.9210  0.8180
  106SAPE  C21210877   2.019   5.356   3.230 -1.1034  0.3600 -0.3380
  106SAPE  H12R10878   1.944   5.387   3.305 -1.0814  1.5514 -0.7903
  106SAPE  C21310879   1.982   5.406   3.096 -0.9055 -0.3236  0.0101
  106SAPE  H13R10880   2.077   5.443   3.053 -0.9200 -0.7580 -0.3965
  106SAPE  H13S10881   1.919   5.495   3.115 -0.6875 -0.1171 -0.2336
  106SAPE  C21410882   1.926   5.315   2.990 -0.3458  0.4292 -0.7747
  106SAPE  H14R10883   1.871   5.232   3.036 -0.0570 -0.5375 -2.1126
  106SAPE  C21510884   1.959   5.297   2.860  0.8616 -0.4351 -0.5513
  106SAPE  H15R10885   1.893   5.224   2.810 -0.4815  0.5365 -0.2572
  106SAPE  C21610886   2.056   5.379   2.785 -0.3320 -0.2273  0.2526
  106SAPE  H16R10887   2.102   5.464   2.839 -0.6833 -0.7173  1.3458
  106SAPE  H16S10888   2.005   5.418   2.693  0.3414 -2.2035 -1.0122
  106SAPE  C21710889   2.179   5.293   2.728  0.2310  0.9237  0.1220
  106SAPE  H17R10890   2.139   5.221   2.653 -1.3462  2.2168 -0.3377
  106SAPE  H17S10891   2.234   5.245   2.812 -1.3146  1.9727  1.8100
  106SAPE  C21810892   2.275   5.374   2.640 -0.3430 -0.3984 -0.3747
  106SAPE  H18R10893   2.323   5.462   2.688  2.4124 -2.2439  0.5142
  106SAPE  H18S10894   2.220   5.400   2.547  0.4594  0.4824 -0.6200
  106SAPE  C21910895   2.410   5.301   2.609  0.1164 -0.3953 -0.8872
  106SAPE  H19R10896   2.453   5.268   2.706 -1.6461  0.3703  0.2104
  106SAPE  H19S10897   2.467   5.385   2.565  2.0960 -0.9561  0.4844
  106SAPE  C22010898   2.397   5.182   2.510  0.1270 -0.4704  1.3969
  106SAPE  H20R10899   2.492   5.126   2.498  0.8164  1.2024 -2.1192
  106SAPE  H20S10900   2.360   5.221   2.413  0.2418 -3.4416  0.0271
  106SAPE  H20T10901   2.318   5.112   2.545 -0.7173 -0.4565 -0.3883
  106SAPE   C3310902   1.756   4.857   2.871  1.1850 -0.0108 -0.0660
  106SAPE   H3X10903   1.848   4.850   2.810  1.1094 -0.2256 -0.1565
  106SAPE   H3Y10904   1.728   4.750   2.887  2.3131 -0.7839 -2.7274
  106SAPE   C3410905   1.771   4.932   3.009  0.0594  0.0066  0.2018
  106SAPE   H4X10906   1.679   4.961   3.063  0.7922  1.1622  0.8683
  106SAPE   H4Y10907   1.812   5.028   2.971 -0.6911 -0.0779 -0.8869
  106SAPE   C3510908   1.847   4.848   3.112 -0.2408 -0.4685 -0.3219
  106SAPE   H5X10909   1.949   4.835   3.071 -0.1870 -0.7294 -0.1119
  106SAPE   H5Y10910   1.803   4.746   3.118 -0.0128 -0.5040  1.1624
  106SAPE   C3610911   1.851   4.903   3.255  0.1435 -0.0200 -0.4286
  106SAPE   H6X10912   1.909   4.998   3.252 -0.1939  0.2379  0.6876
  106SAPE   H6Y10913   1.901   4.825   3.316 -0.3438  0.2569  0.3391
  106SAPE   C3710914   1.714   4.928   3.322 -0.1644 -0.1197 -0.3370
  106SAPE   H7X10915   1.639   4.850   3.299  1.7183 -1.9897 -0.4747
  106SAPE   H7Y10916   1.665   5.023   3.291  1.1067  0.4687 -0.6288
  106SAPE   C3810917   1.732   4.935   3.478  1.0174 -0.0299  0.2465
  106SAPE   H8X10918   1.642   4.989   3.514  1.3702  0.0912  0.9611
  106SAPE   H8Y10919   1.828   4.983   3.505  1.5917 -1.7709  1.4723
  106SAPE   C3910920   1.728   4.801   3.544 -0.0114  0.2049  0.1965
  106SAPE   H9X10921   1.814   4.739   3.509  0.9265  0.7612  1.4394
  106SAPE   H9Y10922   1.643   4.745   3.499 -0.5525  0.6198  0.6969
  106SAPE  C31010923   1.725   4.790   3.699  0.0072  0.6110 -0.2006
  106SAPE  H10X10924   1.641   4.852   3.738  1.0080  1.3322  0.8857
  106SAPE  H10Y10925   1.813   4.846   3.738  0.1067  0.7160 -0.5658
  106SAPE  C31110926   1.722   4.649   3.750  0.2882  0.2206  0.9153
  106SAPE  H11X10927   1.808   4.598   3.702 -0.4444  1.7406 -2.2900
  106SAPE  H11Y10928   1.625   4.607   3.714  1.1550  0.2118 -1.6455
  106SAPE  C31210929   1.730   4.623   3.900  0.4566 -0.2004  0.3587
  106SAPE  H12X10930   1.693   4.522   3.926 -1.3935  0.8485  2.0646
  106SAPE  H12Y10931   1.659   4.699   3.940  0.3879 -0.5595  0.9262
  106SAPE  C31310932   1.862   4.643   3.967  0.1082 -0.7860  0.0256
  106SAPE  H13X10933   1.899   4.744   3.939  0.7166 -1.0450 -0.1050
  106SAPE  H13Y10934   1.934   4.577   3.915  1.2018 -0.0758  0.5897
  106SAPE  C31410935   1.870   4.606   4.114  0.1739 -0.4381 -0.0766
  106SAPE  H14X10936   1.805   4.671   4.177  0.4836 -1.3162  1.1954
  106SAPE  H14Y10937   1.977   4.635   4.124 -0.8368  3.9265  0.0989
  106SAPE  C31510938   1.840   4.465   4.157  0.7558 -0.1531  0.6752
  106SAPE  H15X10939   1.736   4.437   4.130  0.8525  0.8663 -0.9475
  106SAPE  H15Y10940   1.860   4.470   4.266 -2.3488 -2.5604  1.4919
  106SAPE  C31610941   1.922   4.361   4.085  0.3302 -0.2033 -0.3166
  106SAPE  H16X10942   2.026   4.399   4.089 -0.0482  0.7861  0.4145
  106SAPE  H16Y10943   1.885   4.358   3.980  0.9214  0.5877 -0.5518
  106SAPE  C31710944   1.926   4.223   4.148  0.3508 -0.7434 -0.6606
  106SAPE  H17X10945   1.822   4.188   4.163  0.4990 -0.6806  0.6341
  106SAPE  H17Y10946   1.974   4.234   4.248 -0.7294 -3.0371  0.1886
  106SAPE  C31810947   2.008   4.117   4.070 -0.1914  0.6059 -0.1861
  106SAPE  H18X10948   1.963   4.102   3.970 -1.5794 -0.6992  0.6004
  106SAPE  H18Y10949   2.013   4.024   4.130 -1.5300  0.1365 -0.7785
  106SAPE  H18Z10950   2.113   4.151   4.057  0.6343 -2.6120 -3.4726
  107SAPE     N10951   4.841   5.088   2.804 -0.5815  0.3287  0.0618
  107SAPE   HN110952   4.765   5.156   2.784 -0.6354  0.0883 -0.5507
  107SAPE   HN210953   4.786   5.006   2.838 -1.0265  1.2017  1.5840
  107SAPE   HN310954   4.912   5.115   2.876 -3.0847  2.9523  1.8122
  107SAPE   C1210955   4.929   5.070   2.684 -0.8217 -0.1479  0.2635
  107SAPE  H12A10956   4.869   5.038   2.596  4.0132 -0.9630 -3.1740
  107SAPE  H12B10957   4.999   4.986   2.703 -1.1468 -0.3358  0.6346
  107SAPE   C1110958   5.015   5.195   2.653  0.1774  0.3500 -0.1769
  107SAPE  H11A10959   5.071   5.179   2.558  2.9309  1.0869  1.2142
  107SAPE  H11B10960   5.085   5.208   2.738 -0.7850  2.5351  0.3621
  107SAPE     P10961   4.891   5.393   2.530 -0.1462  0.3646  0.1935
  107SAPE   O1310962   5.007   5.473   2.489  0.2678  0.1788 -0.3050
  107SAPE   O1410963   4.838   5.304   2.422 -0.1030 -0.3746 -0.2534
  107SAPE   O1210964   4.934   5.307   2.658  0.4804 -0.2633  0.7005
  107SAPE   O1110965   4.768   5.490   2.574 -0.0327 -0.0240  0.3792
  107SAPE    C110966   4.783   5.615   2.633 -0.0070 -0.3373 -0.5536
  107SAPE    HA10967   4.863   5.680   2.590  0.4481  0.0648  0.8345
  107SAPE    HB10968   4.685   5.666   2.644 -0.0196 -0.7991  2.5935
  107SAPE    C210969   4.826   5.614   2.786  0.3230 -0.8709  0.2713
  107SAPE    HS10970   4.828   5.720   2.821  1.7736 -0.4335 -1.0176
  107SAPE   O2110971   4.947   5.549   2.804 -0.3727 -0.2129  0.0969
  107SAPE   C2110972   5.054   5.620   2.785 -0.3644 -0.2318 -0.4176
  107SAPE   O2210973   5.069   5.733   2.745  0.7407 -0.1857 -0.1614
  107SAPE   C2210974   5.177   5.541   2.839  0.1118 -0.6146 -0.3651
  107SAPE   H2R10975   5.186   5.444   2.786  0.7382 -0.4511 -0.5608
  107SAPE   H2S10976   5.272   5.596   2.824 -0.0219 -0.0187  0.7965
  107SAPE    C310977   4.720   5.537   2.873 -0.2795 -0.1978  0.1422
  107SAPE    HX10978   4.746   5.432   2.848 -2.2655 -0.5471 -0.6274
  107SAPE    HY10979   4.615   5.557   2.843 -1.2098 -2.8372  1.3371
  107SAPE   O3110980   4.729   5.576   3.014 -0.0046  0.3313  0.0573
  107SAPE   C3110981   4.718   5.471   3.095  0.0640  0.3477 -0.3022
  107SAPE   O3210982   4.684   5.357   3.064  0.3794  0.2498 -0.4406
  107SAPE   C3210983   4.732   5.514   3.236 -0.4913 -0.4607  0.1998
  107SAPE   H2X10984   4.639   5.543   3.288 -0.1601 -0.4717  0.8179
  107SAPE   H2Y10985   4.790   5.609   3.234 -0.1328 -0.6391  1.3869
  107SAPE   C2310986   5.160   5.521   2.993 -0.4228 -0.3278  0.3782
  107SAPE   H3R10987   5.061   5.478   3.019 -1.0076  0.1089 -1.0119
  107SAPE   H3S10988   5.173   5.616   3.049 -0.6007 -0.7058  1.0652
  107SAPE   C2410989   5.260   5.418   3.050  0.1517  0.0810 -0.4813
  107SAPE   H4R10990   5.235   5.319   3.006 -0.4427  0.5364 -1.1884
  107SAPE   H4S10991   5.241   5.419   3.159 -1.7148  1.9273 -0.7586
  107SAPE   C2510992   5.403   5.458   3.024 -0.0708  0.3373 -0.0640
  107SAPE   H5R10993   5.438   5.450   2.920 -3.9767 -0.8272 -1.4424
  107SAPE   C2610994   5.486   5.504   3.119  0.8551 -0.4383 -0.7204
  107SAPE   H6R10995   5.589   5.528   3.089  0.7702  0.6901 -0.1644
  107SAPE   C2710996   5.447   5.528   3.262  0.1726  0.5371  0.1574
  107SAPE   H7R10997   5.337   5.542   3.272  0.1267  0.8327 -0.6711
  107SAPE   H7S10998   5.477   5.633   3.282  1.5404  0.0909  0.5845
  107SAPE   C2810999   5.511   5.438   3.367  1.0893 -0.0939  0.2498
  107SAPE   H8R11000   5.476   5.334   3.371 -0.0725  0.2974  0.4450
  107SAPE   C2911001   5.592   5.475   3.464  0.4439  0.2419 -0.0090
  107SAPE   H9R11002   5.644   5.400   3.525  1.9181  0.2404 -1.2241
  107SAPE  C21011003   5.651   5.615   3.487 -0.0578 -0.0243  0.2351
  107SAPE  H10R11004   5.623   5.682   3.404  0.4197  0.4785  0.4771
  107SAPE  H10S11005   5.761   5.608   3.476 -0.0477  1.9120 -1.2245
  107SAPE  C21111006   5.608   5.656   3.628  0.0175 -0.5806  0.1892
  107SAPE  H11R11007   5.503   5.687   3.638  0.1621 -0.9678  4.2139
  107SAPE  C21211008   5.692   5.678   3.731 -0.4487  0.0098  0.0046
  107SAPE  H12R11009   5.659   5.712   3.831 -0.1844  2.4139 -0.6506
  107SAPE  C21311010   5.839   5.649   3.738 -0.6996  0.1344  0.2537
  107SAPE  H13R11011   5.874   5.688   3.836 -0.4385  0.7355 -0.0732
  107SAPE  H13S11012   5.896   5.710   3.665  1.0795  1.2281  2.4154
  107SAPE  C21411013   5.888   5.513   3.725  0.1810  0.2439 -0.4803
  107SAPE  H14R11014   5.808   5.439   3.711  1.2277 -0.8091 -1.0947
  107SAPE  C21511015   6.014   5.469   3.750  0.1830 -0.2897 -0.0565
  107SAPE  H15R11016   6.045   5.364   3.743  0.6941 -0.2255  1.1642
  107SAPE  C21611017   6.132   5.553   3.781  0.7519 -0.0699  0.1362
  107SAPE  H16R11018   6.172   5.515   3.877  0.3713 -1.8785 -0.3929
  107SAPE  H16S11019   6.101   5.654   3.816  3.2107  0.5074  0.8583
  107SAPE  C21711020   6.236   5.566   3.663 -0.4339 -0.6140 -0.4993
  107SAPE  H17R11021   6.220   5.668   3.622 -0.7072 -0.9519 -1.2586
  107SAPE  H17S11022   6.220   5.498   3.576 -1.5767  0.8693 -1.4894
  107SAPE  C21811023   6.376   5.559   3.727 -0.6267 -0.5305 -0.1998
  107SAPE  H18R11024   6.408   5.464   3.776  2.7321  1.3473  1.6052
  107SAPE  H18S11025   6.374   5.634   3.810 -1.9517  1.1072 -1.6334
  107SAPE  C21911026   6.477   5.613   3.626  0.2072 -0.2334 -0.3514
  107SAPE  H19R11027   6.449   5.720   3.613 -1.0098 -0.3036  1.2905
  107SAPE  H19S11028   6.459   5.558   3.531 -1.4744 -0.2159 -0.0858
  107SAPE  C22011029   6.625   5.604   3.666  0.6649  0.4139 -0.4108
  107SAPE  H20R11030   6.670   5.664   3.585  0.1943  2.1353  0.5626
  107SAPE  H20S11031   6.664   5.500   3.673  1.0643  0.4883 -1.4440
  107SAPE  H20T11032   6.651   5.659   3.759  0.7127 -2.0544  1.1291
  107SAPE   C3311033   4.809   5.416   3.333  0.2620 -0.6080  0.2097
  107SAPE   H3X11034   4.894   5.365   3.282 -0.4353  0.1946 -1.8752
  107SAPE   H3Y11035   4.743   5.329   3.355 -0.6957 -0.1109 -0.6411
  107SAPE   C3411036   4.831   5.474   3.484  0.0261  0.4072  0.6917
  107SAPE   H4X11037   4.877   5.575   3.480 -2.0560  1.3813 -0.5084
  107SAPE   H4Y11038   4.892   5.396   3.534  0.9501  0.2529 -0.6271
  107SAPE   C3511039   4.698   5.497   3.560 -0.0640 -0.7485 -1.0295
  107SAPE   H5X11040   4.619   5.530   3.489  0.3150  0.1584 -1.0383
  107SAPE   H5Y11041   4.714   5.586   3.625 -1.1673 -0.4966 -1.0817
  107SAPE   C3611042   4.671   5.375   3.655  0.5261  0.1894 -0.4554
  107SAPE   H6X11043   4.760   5.311   3.674  0.0939  0.3000  2.4038
  107SAPE   H6Y11044   4.577   5.323   3.626 -0.0697  1.0230 -0.0475
  107SAPE   C3711045   4.636   5.428   3.797  0.5021 -0.0523  0.3716
  107SAPE   H7X11046   4.577   5.521   3.783  2.0387  1.0805  1.1719
  107SAPE   H7Y11047   4.733   5.465   3.835  0.7295  1.5837 -1.6288
  107SAPE   C3811048   4.571   5.320   3.881  0.1894  0.3810  0.1492
  107SAPE   H8X11049   4.482   5.288   3.823  0.3315 -0.1956  0.2440
  107SAPE   H8Y11050   4.521   5.360   3.971  1.1429 -0.4055  1.0607
  107SAPE   C3911051   4.662   5.209   3.917  0.2647 -0.4578  0.5836
  107SAPE   H9X11052   4.754   5.246   3.967  1.1388 -1.2720 -0.3396
  107SAPE   H9Y11053   4.691   5.150   3.827  3.1956  0.1646  1.0263
  107SAPE  C31011054   4.592   5.103   4.004 -0.6506 -0.9917 -0.5273
  107SAPE  H10X11055   4.489   5.078   3.971 -0.2924 -2.2667 -0.7094
  107SAPE  H10Y11056   4.586   5.148   4.106 -0.3682  0.6095 -1.1790
  107SAPE  C31111057   4.670   4.975   4.021  0.1641 -0.0168 -0.1850
  107SAPE  H11X11058   4.775   4.985   4.056  0.6771  0.4173 -1.7722
  107SAPE  H11Y11059   4.684   4.950   3.913  0.6958  1.0338 -0.3803
  107SAPE  C31211060   4.592   4.870   4.098 -0.4425 -0.5217  0.1168
  107SAPE  H12X11061   4.648   4.774   4.104  0.4171 -0.0666 -0.4480
  107SAPE  H12Y11062   4.492   4.861   4.050 -0.9513  1.8040  0.6034
  107SAPE  C31311063   4.572   4.911   4.247  0.7681 -0.2958 -0.6212
  107SAPE  H13X11064   4.512   5.002   4.267  1.9442 -0.2209  3.5922
  107SAPE  H13Y11065   4.674   4.918   4.289  1.1481  0.7321 -1.6633
  107SAPE  C31411066   4.501   4.804   4.331  0.1712  0.7252 -0.5457
  107SAPE  H14X11067   4.499   4.835   4.438 -1.3450 -1.5609  0.1555
  107SAPE  H14Y11068   4.546   4.702   4.331  0.0183  0.6593 -0.2941
  107SAPE  C31511069   4.359   4.787   4.292  0.1101 -0.1514 -0.2342
  107SAPE  H15X11070   4.338   4.745   4.191 -1.0491  1.1290 -0.5544
  107SAPE  H15Y11071   4.312   4.888   4.292 -2.9484 -1.4696 -0.5036
  107SAPE  C31611072   4.281   4.708   4.390  1.0362  0.5137 -0.3933
  107SAPE  H16X11073   4.182   4.757   4.401  1.5335  1.1116  1.7890
  107SAPE  H16Y11074   4.329   4.682   4.487  0.4458  2.1667  0.3886
  107SAPE  C31711075   4.236   4.569   4.333 -0.3805 -0.5299  0.0306
  107SAPE  H17X11076   4.329   4.513   4.308  0.6575  1.5236 -0.9739
  107SAPE  H17Y11077   4.182   4.580   4.236 -0.4047 -1.5070 -0.0741
  107SAPE  C31811078   4.147   4.489   4.428  0.4424 -0.5713  0.5258
  107SAPE  H18X11079   4.068   4.555   4.471  0.7655 -0.1819  0.5281
  107SAPE  H18Y11080   4.213   4.469   4.515  0.1144  1.0369  1.1803
  107SAPE  H18Z11081   4.114   4.390   4.391  0.6450 -1.1038  1.7296
  108SAPE     N11082   2.996   0.913   1.997  0.2219  0.4845 -0.1980
  108SAPE   HN111083   2.965   0.976   2.074 -1.0560 -0.7481  0.3368
  108SAPE   HN211084   2.991   0.813   2.025  2.9042 -0.2171 -1.7899
  108SAPE   HN311085   3.100   0.920   1.993  0.3705  0.0994  1.7588
  108SAPE   C1211086   2.919   0.932   1.868  0.6876 -0.1865  0.3558
  108SAPE  H12A11087   2.969   0.863   1.796  0.7618  1.5520 -1.3518
  108SAPE  H12B11088   2.939   1.031   1.823  1.2848 -0.8503 -0.9050
  108SAPE   C1111089   2.773   0.893   1.885 -0.0820  0.6430  0.6388
  108SAPE  H11A11090   2.760   0.783   1.891 -2.1916  0.6540 -1.7470
  108SAPE  H11B11091   2.723   0.919   1.789 -1.6432 -0.5576  1.0663
  108SAPE     P11092   2.630   1.086   1.969  0.2604  0.2424 -0.1221
  108SAPE   O1311093   2.680   1.149   1.850  0.4203  0.3427  0.7214
  108SAPE   O1411094   2.487   1.040   1.956  0.1086 -0.2870  0.2577
  108SAPE   O1211095   2.709   0.959   2.000  0.2955  0.5338  0.5780
  108SAPE   O1111096   2.635   1.166   2.098 -0.0603  0.2157  0.6217
  108SAPE    C111097   2.626   1.310   2.100  0.7214  0.6437  0.2000
  108SAPE    HA11098   2.721   1.364   2.117 -0.0331  2.3003 -0.6047
  108SAPE    HB11099   2.585   1.349   2.004  0.2358 -3.1230 -1.2998
  108SAPE    C211100   2.517   1.332   2.206 -0.2921 -0.2858  0.4744
  108SAPE    HS11101   2.498   1.441   2.220  0.9628 -0.0950  0.8517
  108SAPE   O2111102   2.566   1.274   2.330 -0.3220 -0.1001  0.4447
  108SAPE   C2111103   2.661   1.350   2.396 -0.1578 -0.3320 -0.1096
  108SAPE   O2211104   2.720   1.444   2.351  0.2427  0.6117  0.9423
  108SAPE   C2211105   2.704   1.282   2.526 -0.8400  0.5186 -0.1067
  108SAPE   H2R11106   2.605   1.264   2.573 -0.2103 -0.2124  0.9631
  108SAPE   H2S11107   2.742   1.181   2.497 -4.1800 -1.2614  1.1771
  108SAPE    C311108   2.389   1.258   2.159 -0.2404 -0.1382 -0.4270
  108SAPE    HX11109   2.414   1.152   2.180 -1.0350 -0.3310 -0.4351
  108SAPE    HY11110   2.375   1.270   2.050  0.7436  0.4159 -0.5009
  108SAPE   O3111111   2.275   1.304   2.232  0.3883  0.4951  0.1248
  108SAPE   C3111112   2.230   1.415   2.188  0.3569  0.5389 -0.5030
  108SAPE   O3211113   2.275   1.479   2.097 -0.2764 -0.5580  0.1270
  108SAPE   C3211114   2.119   1.464   2.279  0.1403  0.6593  0.2241
  108SAPE   H2X11115   2.031   1.396   2.282  0.9223 -0.4040  4.4076
  108SAPE   H2Y11116   2.077   1.559   2.240 -0.8041  0.7359  1.3691
  108SAPE   C2311117   2.805   1.361   2.607  0.2490 -1.0015 -0.1053
  108SAPE   H3R11118   2.759   1.453   2.649  1.4765  0.3362 -1.5816
  108SAPE   H3S11119   2.897   1.380   2.548 -0.4609  0.3634 -0.8065
  108SAPE   C2411120   2.852   1.281   2.724 -0.0417 -0.1236 -0.5028
  108SAPE   H4R11121   2.908   1.192   2.688 -4.2724 -2.9939 -0.7918
  108SAPE   H4S11122   2.767   1.243   2.785  0.8281 -0.1390  0.7353
  108SAPE   C2511123   2.936   1.368   2.807  0.5171 -0.4235 -0.4594
  108SAPE   H5R11124   2.974   1.460   2.760  3.9572 -0.7107  1.4089
  108SAPE   C2611125   2.983   1.335   2.933  0.4739  0.0177  0.5857
  108SAPE   H6R11126   3.043   1.408   2.990  1.4752  0.4303 -0.9479
  108SAPE   C2711127   2.939   1.207   3.004 -0.2027  0.0450 -0.1440
  108SAPE   H7R11128   3.032   1.149   3.015  0.6550  1.3291 -0.4253
  108SAPE   H7S11129   2.867   1.151   2.940 -2.1361  1.7597  0.4193
  108SAPE   C2811130   2.867   1.244   3.140  0.0840 -0.4937  0.3082
  108SAPE   H8R11131   2.769   1.292   3.127  0.9584  0.9895 -1.3125
  108SAPE   C2911132   2.915   1.239   3.264 -0.0440 -0.3532  0.0010
  108SAPE   H9R11133   2.851   1.258   3.351 -1.3337 -0.2068 -0.9423
  108SAPE  C21011134   3.048   1.175   3.300 -0.4586 -0.5341  0.4309
  108SAPE  H10R11135   3.117   1.176   3.213 -2.0314 -1.3369 -0.8694
  108SAPE  H10S11136   3.031   1.072   3.337 -0.9687 -1.2900 -1.7509
  108SAPE  C21111137   3.116   1.252   3.419  0.1229  0.2174  0.1845
  108SAPE  H11R11138   3.182   1.333   3.384 -0.8066  1.1162  0.4590
  108SAPE  C21211139   3.095   1.235   3.551 -0.5117 -0.7172 -0.4765
  108SAPE  H12R11140   3.140   1.300   3.627 -1.7472 -0.7169  0.2870
  108SAPE  C21311141   2.998   1.137   3.618 -0.1460 -0.0843 -0.4491
  108SAPE  H13R11142   3.041   1.035   3.616 -2.1511 -1.0783  2.1685
  108SAPE  H13S11143   2.910   1.119   3.553 -0.4904  2.0163 -0.6302
  108SAPE  C21411144   2.951   1.177   3.760  0.1525 -0.2556  0.0596
  108SAPE  H14R11145   2.878   1.259   3.764  0.2898 -0.0736 -0.8121
  108SAPE  C21511146   3.010   1.137   3.874  0.2740 -0.5223  0.2482
  108SAPE  H15R11147   2.960   1.151   3.971  1.2574 -1.6543  0.9372
  108SAPE  C21611148   3.122   1.045   3.871 -0.5075 -0.3411 -0.1200
  108SAPE  H16R11149   3.171   1.037   3.771  0.7118  1.1796  0.3231
  108SAPE  H16S11150   3.076   0.948   3.900 -0.2766 -0.0137  1.3965
  108SAPE  C21711151   3.227   1.088   3.980  0.3102  0.2423  0.6641
  108SAPE  H17R11152   3.192   1.088   4.085 -2.3734  0.9970 -0.1580
  108SAPE  H17S11153   3.254   1.194   3.962  0.6732  0.0442 -0.0163
  108SAPE  C21811154   3.352   0.998   3.971 -0.1798  0.5539  0.3531
  108SAPE  H18R11155   3.376   0.993   3.862  0.5758 -1.9596  0.5749
  108SAPE  H18S11156   3.324   0.894   3.997  0.9575  0.7686  2.6230
  108SAPE  C21911157   3.472   1.049   4.045  0.1426 -0.1462  0.4027
  108SAPE  H19R11158   3.492   1.133   3.975 -1.2082 -0.7268 -0.7524
  108SAPE  H19S11159   3.562   0.985   4.036  0.0214 -0.0865 -2.1938
  108SAPE  C22011160   3.442   1.100   4.186 -0.6691  0.1640  0.1249
  108SAPE  H20R11161   3.368   1.182   4.175 -0.2476  0.6738  1.0081
  108SAPE  H20S11162   3.538   1.137   4.228  0.8542 -1.7697 -1.4224
  108SAPE  H20T11163   3.395   1.015   4.240 -0.0638  0.2629  0.8195
  108SAPE   C3311164   2.167   1.485   2.420  0.3810  0.2090 -0.3455
  108SAPE   H3X11165   2.211   1.394   2.466  0.0686  0.1133 -0.2308
  108SAPE   H3Y11166   2.076   1.508   2.479  0.1940  0.5453 -0.7598
  108SAPE   C3411167   2.263   1.600   2.428  0.2049 -0.2005 -0.0239
  108SAPE   H4X11168   2.206   1.694   2.410 -2.1532 -1.4292  0.5634
  108SAPE   H4Y11169   2.354   1.596   2.364  1.9337  2.9170  1.9788
  108SAPE   C3511170   2.306   1.623   2.574 -0.0451  0.4675  0.1243
  108SAPE   H5X11171   2.378   1.706   2.593  1.5307 -0.8676  0.2504
  108SAPE   H5Y11172   2.210   1.630   2.629 -0.5438 -0.9442 -0.5022
  108SAPE   C3611173   2.373   1.502   2.636  0.1350 -0.0261 -0.3517
  108SAPE   H6X11174   2.429   1.457   2.551  0.0772 -0.8103  0.0128
  108SAPE   H6Y11175   2.292   1.432   2.663 -1.5821  1.7997 -0.5607
  108SAPE   C3711176   2.446   1.530   2.768  0.4030  0.4093  0.0195
  108SAPE   H7X11177   2.385   1.596   2.833  0.5816 -1.4267  2.1499
  108SAPE   H7Y11178   2.542   1.569   2.727  1.6295 -3.0944 -0.8190
  108SAPE   C3811179   2.478   1.395   2.840 -0.2043 -0.2106  0.0744
  108SAPE   H8X11180   2.549   1.339   2.776  0.5437  2.7461 -1.8859
  108SAPE   H8Y11181   2.381   1.342   2.847  0.1572 -1.0283 -0.9211
  108SAPE   C3911182   2.547   1.424   2.982 -0.2707 -0.9043  1.0528
  108SAPE   H9X11183   2.633   1.495   2.978 -0.0063 -1.2159  1.1747
  108SAPE   H9Y11184   2.589   1.322   2.997 -3.2739 -2.6656 -1.2494
  108SAPE  C31011185   2.447   1.478   3.088  0.7126 -0.3073 -0.6055
  108SAPE  H10X11186   2.354   1.417   3.085 -0.7348  1.7485  0.4067
  108SAPE  H10Y11187   2.418   1.582   3.065 -0.3859 -0.1015  1.4493
  108SAPE  C31111188   2.500   1.483   3.232  0.3740 -0.6766 -0.6071
  108SAPE  H11X11189   2.423   1.549   3.278 -1.0611 -2.3909 -0.4499
  108SAPE  H11Y11190   2.597   1.537   3.236  0.0413 -0.1009 -0.1141
  108SAPE  C31211191   2.512   1.357   3.318 -0.6440  1.4742  0.3039
  108SAPE  H12X11192   2.595   1.294   3.282 -0.6683  0.8323  1.3372
  108SAPE  H12Y11193   2.417   1.300   3.311  0.8822 -1.2704  0.6325
  108SAPE  C31311194   2.545   1.409   3.459 -0.2663  0.4829 -0.1620
  108SAPE  H13X11195   2.467   1.480   3.492 -1.9140 -1.1999 -0.2771
  108SAPE  H13Y11196   2.645   1.458   3.464 -1.2205  2.6103 -0.9875
  108SAPE  C31411197   2.543   1.301   3.566  0.0585  0.3954  0.5530
  108SAPE  H14X11198   2.631   1.239   3.538 -3.1881 -4.5242 -0.0203
  108SAPE  H14Y11199   2.450   1.240   3.565 -1.2727  2.3664 -0.2788
  108SAPE  C31511200   2.552   1.348   3.711  0.0295  0.3992  0.0639
  108SAPE  H15X11201   2.476   1.426   3.730  0.5159  0.9555 -0.2296
  108SAPE  H15Y11202   2.656   1.386   3.725 -0.5108  2.1155 -0.3653
  108SAPE  C31611203   2.547   1.247   3.819 -0.6894  0.8869  0.7467
  108SAPE  H16X11204   2.618   1.165   3.792 -0.1672  1.5926 -0.0867
  108SAPE  H16Y11205   2.445   1.205   3.826 -0.3112 -0.5719 -1.5981
  108SAPE  C31711206   2.577   1.290   3.961  0.0201  0.0417  0.1466
  108SAPE  H17X11207   2.678   1.337   3.971 -0.4276  0.6437  2.1583
  108SAPE  H17Y11208   2.578   1.203   4.030 -0.7279  0.1532  0.3095
  108SAPE  C31811209   2.484   1.382   4.028  0.4864 -0.3872 -0.0211
  108SAPE  H18X11210   2.394   1.339   4.078 -0.8919  2.2824 -0.0094
  108SAPE  H18Y11211   2.439   1.451   3.954  0.1724 -0.2712  0.2759
  108SAPE  H18Z11212   2.538   1.449   4.098  0.4906 -0.7324  0.3095
  109SAPE     N11213   1.442   0.411   2.215  0.0160 -0.4418  0.2448
  109SAPE   HN111214   1.528   0.456   2.176 -1.2937  1.3777 -0.6963
  109SAPE   HN211215   1.453   0.308   2.214  0.6278 -0.4346 -2.6226
  109SAPE   HN311216   1.369   0.444   2.149  0.5457  1.5343  0.5663
  109SAPE   C1211217   1.410   0.463   2.352  0.2237 -0.2776 -0.4599
  109SAPE  H12A11218   1.495   0.431   2.415 -1.0526 -2.7719  0.1223
  109SAPE  H12B11219   1.322   0.419   2.403  1.9001 -1.0243  1.9763
  109SAPE   C1111220   1.398   0.611   2.355 -1.1040  0.8409  0.1193
  109SAPE  H11A11221   1.492   0.654   2.316 -0.1417 -0.3341  1.0781
  109SAPE  H11B11222   1.391   0.639   2.463  2.8522 -1.4293  1.1400
  109SAPE     P11223   1.141   0.637   2.328 -0.1364 -0.0830 -0.2474
  109SAPE   O1311224   1.083   0.544   2.230  0.2619  0.2987 -0.1518
  109SAPE   O1411225   1.141   0.584   2.468  0.1761  0.2126 -0.0349
  109SAPE   O1211226   1.290   0.656   2.274  0.2935 -0.5985  0.7828
  109SAPE   O1111227   1.072   0.780   2.315  0.5310 -0.2496 -0.1931
  109SAPE    C111228   1.138   0.900   2.334  0.3160 -0.3141 -0.0742
  109SAPE    HA11229   1.237   0.896   2.282  0.9959 -0.8110  1.2094
  109SAPE    HB11230   1.080   0.975   2.277  0.0637  0.2735  0.9381
  109SAPE    C211231   1.158   0.963   2.472 -1.3736  0.4807 -0.1945
  109SAPE    HS11232   1.176   1.072   2.460  0.2033  0.2649  0.0221
  109SAPE   O2111233   1.270   0.899   2.539  0.4157  0.3249  0.6369
  109SAPE   C2111234   1.393   0.919   2.489  0.2417  0.1061  0.7256
  109SAPE   O2211235   1.418   0.981   2.388 -0.3053 -0.5637  0.2932
  109SAPE   C2211236   1.509   0.871   2.589  0.9444  0.3338  0.4947
  109SAPE   H2R11237   1.463   0.820   2.677  1.4177 -0.1112  0.4873
  109SAPE   H2S11238   1.577   0.801   2.537  0.7324  1.6254 -1.6123
  109SAPE    C311239   1.031   0.961   2.562  0.5587  0.4668 -0.2099
  109SAPE    HX11240   1.007   0.855   2.581 -0.1615  0.5649 -0.5353
  109SAPE    HY11241   0.952   1.001   2.494 -1.4085 -1.6295  0.7369
  109SAPE   O3111242   1.044   1.049   2.680  0.1452 -0.1648 -0.4479
  109SAPE   C3111243   1.106   0.992   2.780 -0.3653 -0.5522 -0.7457
  109SAPE   O3211244   1.155   0.879   2.788 -0.7241  0.1442 -0.0695
  109SAPE   C3211245   1.119   1.096   2.891 -0.5511 -0.2819  0.2280
  109SAPE   H2X11246   1.017   1.141   2.891 -0.9556 -1.1699 -1.0813
  109SAPE   H2Y11247   1.199   1.170   2.869  0.8968 -1.7865  0.2627
  109SAPE   C2311248   1.597   0.981   2.649  0.6870 -0.1860  0.3730
  109SAPE   H3R11249   1.626   1.042   2.561 -0.3722 -0.3056 -0.0640
  109SAPE   H3S11250   1.694   0.955   2.696  2.1316  3.6343 -0.0803
  109SAPE   C2411251   1.513   1.085   2.735  0.9901  0.0405  0.7125
  109SAPE   H4R11252   1.441   1.034   2.803  0.9093  0.4865  0.9669
  109SAPE   H4S11253   1.451   1.147   2.666 -0.7157 -1.6586  0.6280
  109SAPE   C2511254   1.602   1.172   2.819  0.1432 -0.1035 -0.8741
  109SAPE   H5R11255   1.624   1.268   2.771  1.9051 -1.0567 -2.0763
  109SAPE   C2611256   1.661   1.145   2.935 -0.4112 -0.4395  0.3752
  109SAPE   H6R11257   1.716   1.224   2.988 -1.8905  0.8185  0.1131
  109SAPE   C2711258   1.633   1.027   3.015  0.6244 -0.1816 -0.3220
  109SAPE   H7R11259   1.723   0.995   3.072  0.3289  0.8486  0.7713
  109SAPE   H7S11260   1.618   0.947   2.940 -0.7966  1.5735 -2.0000
  109SAPE   C2811261   1.502   1.045   3.088 -0.2874 -0.0731 -0.0757
  109SAPE   H8R11262   1.420   1.079   3.024  0.3443 -2.1696 -2.1372
  109SAPE   C2911263   1.472   1.018   3.216  0.4071  0.8093 -0.6383
  109SAPE   H9R11264   1.370   1.039   3.251 -0.3178 -0.7057 -1.7226
  109SAPE  C21011265   1.554   0.943   3.317 -0.0329  0.2869  0.8852
  109SAPE  H10R11266   1.557   0.992   3.417 -1.1147 -0.4484  1.2995
  109SAPE  H10S11267   1.661   0.939   3.287 -1.0404 -1.0429 -3.1695
  109SAPE  C21111268   1.514   0.796   3.331 -0.0074  0.7175 -0.3036
  109SAPE  H11R11269   1.450   0.757   3.250  1.0667  0.5805 -1.1105
  109SAPE  C21211270   1.527   0.722   3.438  0.2174  0.5093 -0.0265
  109SAPE  H12R11271   1.487   0.620   3.432 -0.0784  0.4471  2.0084
  109SAPE  C21311272   1.601   0.751   3.565 -0.1917 -0.1489 -0.3418
  109SAPE  H13R11273   1.549   0.720   3.659  0.5776  1.0449  0.5068
  109SAPE  H13S11274   1.597   0.861   3.579 -1.0808 -0.2685  0.4627
  109SAPE  C21411275   1.750   0.719   3.557 -0.5421 -0.6340 -0.5374
  109SAPE  H14R11276   1.815   0.795   3.510 -0.2146 -1.7702 -1.9951
  109SAPE  C21511277   1.813   0.637   3.635 -0.4317 -0.1567 -0.6116
  109SAPE  H15R11278   1.923   0.633   3.627 -0.3300 -1.1078  0.9044
  109SAPE  C21611279   1.752   0.542   3.731  0.0997 -0.5243  0.0198
  109SAPE  H16R11280   1.788   0.438   3.714 -1.5578 -0.7900 -2.3423
  109SAPE  H16S11281   1.641   0.536   3.727  0.1008 -0.0340 -1.1473
  109SAPE  C21711282   1.791   0.578   3.873  0.3514  0.0050 -0.1582
  109SAPE  H17R11283   1.752   0.678   3.901  3.0843  1.0876  0.1381
  109SAPE  H17S11284   1.901   0.592   3.865  0.1085  1.4903 -1.1003
  109SAPE  C21811285   1.764   0.473   3.980 -0.4202 -0.2400 -0.5630
  109SAPE  H18R11286   1.791   0.372   3.942 -3.5602 -1.1450 -0.6734
  109SAPE  H18S11287   1.658   0.486   4.012 -0.0503 -0.2196  0.6953
  109SAPE  C21911288   1.838   0.500   4.113  0.5381  0.4260 -0.1087
  109SAPE  H19R11289   1.941   0.533   4.089  0.4335  1.5212  0.8810
  109SAPE  H19S11290   1.829   0.405   4.171  1.0221  0.9626  0.8690
  109SAPE  C22011291   1.775   0.620   4.196 -0.3184 -0.0225 -0.5530
  109SAPE  H20R11292   1.759   0.709   4.131  1.8409  1.7054  1.1323
  109SAPE  H20S11293   1.853   0.648   4.270  0.0182 -2.8135  0.2705
  109SAPE  H20T11294   1.685   0.587   4.252  1.4902 -1.3100  1.7650
  109SAPE   C3311295   1.136   1.034   3.031  0.0600 -0.2428 -0.1574
  109SAPE   H3X11296   1.150   1.118   3.103 -0.3940 -1.5618  1.5233
  109SAPE   H3Y11297   1.218   0.960   3.025 -0.6672 -1.0144 -0.6842
  109SAPE   C3411298   1.009   0.974   3.086  0.2608  0.0868 -0.0515
  109SAPE   H4X11299   0.971   0.917   2.998 -0.5315 -0.6840  0.7717
  109SAPE   H4Y11300   0.926   1.044   3.112 -1.0879 -1.8119  1.0043
  109SAPE   C3511301   1.018   0.871   3.205  0.5089 -0.0960 -0.2606
  109SAPE   H5X11302   1.069   0.782   3.162  1.0025  0.5229 -0.9889
  109SAPE   H5Y11303   0.919   0.834   3.240  1.4328 -0.6831  1.8883
  109SAPE   C3611304   1.080   0.926   3.329 -0.2371  0.1713 -0.0361
  109SAPE   H6X11305   1.001   0.990   3.375  0.7481  1.9375 -0.7181
  109SAPE   H6Y11306   1.166   0.993   3.311 -0.2156 -0.2261 -1.5920
  109SAPE   C3711307   1.130   0.815   3.427  0.3146  0.5276  0.4263
  109SAPE   H7X11308   1.195   0.741   3.375  1.5506  1.5413  0.4683
  109SAPE   H7Y11309   1.045   0.757   3.468  0.5861  1.0447  1.7683
  109SAPE   C3811310   1.207   0.869   3.548 -0.5922  0.6839  0.2458
  109SAPE   H8X11311   1.143   0.953   3.583 -1.8882 -1.3188  3.0486
  109SAPE   H8Y11312   1.305   0.911   3.518 -0.1140  0.0637  0.9029
  109SAPE   C3911313   1.223   0.759   3.655  0.0331 -0.0110  0.3067
  109SAPE   H9X11314   1.278   0.674   3.608 -0.1150  0.9256 -1.6760
  109SAPE   H9Y11315   1.117   0.734   3.674  0.3840 -0.9044  1.1807
  109SAPE  C31011316   1.282   0.815   3.785  0.2457  0.8098 -0.2265
  109SAPE  H10X11317   1.248   0.919   3.798 -0.7070  0.2880  1.8247
  109SAPE  H10Y11318   1.393   0.818   3.775  0.3709  1.8687  1.2298
  109SAPE  C31111319   1.242   0.731   3.907  0.1776  0.0927 -0.2916
  109SAPE  H11X11320   1.290   0.632   3.897  1.3255  0.4666  1.1388
  109SAPE  H11Y11321   1.131   0.720   3.911  0.2856 -2.1529 -1.9008
  109SAPE  C31211322   1.295   0.792   4.038 -0.7982 -0.7432  0.1543
  109SAPE  H12X11323   1.395   0.836   4.017 -0.3575 -2.1345 -0.8632
  109SAPE  H12Y11324   1.317   0.715   4.114  1.2786  0.1967  0.5872
  109SAPE  C31311325   1.194   0.897   4.105 -0.0640  1.1567  0.0761
  109SAPE  H13X11326   1.094   0.857   4.133 -0.0765  1.3334  0.2894
  109SAPE  H13Y11327   1.170   0.970   4.025  2.5131  0.6206 -1.2773
  109SAPE  C31411328   1.251   0.954   4.226  0.0762  0.2778 -0.1852
  109SAPE  H14X11329   1.208   1.055   4.242 -0.7873  0.0047 -0.7213
  109SAPE  H14Y11330   1.362   0.953   4.236  0.3416 -2.1925 -2.4362
  109SAPE  C31511331   1.201   0.884   4.362 -0.3712 -0.5945  0.7674
  109SAPE  H15X11332   1.090   0.894   4.352 -0.3184 -1.7013 -1.9183
  109SAPE  H15Y11333   1.222   0.949   4.449  1.6654  0.0015 -0.1305
  109SAPE  C31611334   1.246   0.744   4.389 -0.6288  0.0914  0.4750
  109SAPE  H16X11335   1.230   0.698   4.289 -3.0868  2.5379 -0.4116
  109SAPE  H16Y11336   1.187   0.693   4.468  1.1481  0.8674  2.4097
  109SAPE  C31711337   1.392   0.736   4.432  0.3753  0.2144  0.5099
  109SAPE  H17X11338   1.406   0.802   4.520 -3.5472 -0.5008  1.8445
  109SAPE  H17Y11339   1.468   0.768   4.358 -0.0232  1.4589  0.6113
  109SAPE  C31811340   1.438   0.599   4.470 -0.3226  0.2273 -0.1334
  109SAPE  H18X11341   1.449   0.542   4.375  2.7261 -1.9526  1.3777
  109SAPE  H18Y11342   1.368   0.544   4.536  0.0995 -0.9974 -0.6833
  109SAPE  H18Z11343   1.541   0.597   4.510 -0.6409  1.4478  0.8403
  110SAPE     N11344   0.762   3.068   2.428 -0.1367 -0.3256  0.4068
  110SAPE   HN111345   0.763   3.146   2.360 -1.0549  1.3564  2.2130
  110SAPE   HN211346   0.772   3.110   2.523  1.8371  0.2554 -0.0136
  110SAPE   HN311347   0.831   2.996   2.400  0.1583  1.0715 -2.9029
  110SAPE   C1211348   0.623   3.012   2.411  0.8897 -0.0843  0.8343
  110SAPE  H12A11349   0.635   2.961   2.313 -0.0562 -1.3677  1.3571
  110SAPE  H12B11350   0.555   3.100   2.409  0.5508 -0.2910  2.0812
  110SAPE   C1111351   0.595   2.903   2.510  0.2060  0.4746 -0.5379
  110SAPE  H11A11352   0.501   2.847   2.493  0.0419 -0.3526  2.6156
  110SAPE  H11B11353   0.573   2.960   2.603 -1.6603  1.3831 -1.4805
  110SAPE     P11354   0.700   2.668   2.470 -0.0920 -0.6000  0.0833
  110SAPE   O1311355   0.582   2.658   2.376 -0.2097 -0.7716 -0.1485
  110SAPE   O1411356   0.834   2.630   2.423 -0.1755 -0.3021  0.4991
  110SAPE   O1211357   0.710   2.815   2.533 -0.3002  0.2652  0.1251
  110SAPE   O1111358   0.664   2.579   2.587  0.7193 -0.0393  0.2430
  110SAPE    C111359   0.719   2.597   2.716 -0.6859 -0.8870 -0.0414
  110SAPE    HA11360   0.715   2.700   2.756 -0.6760 -1.2400  0.9016
  110SAPE    HB11361   0.660   2.536   2.788  1.7632 -0.1039  2.8803
  110SAPE    C211362   0.875   2.550   2.728 -0.4408 -0.1030 -0.5250
  110SAPE    HS11363   0.944   2.632   2.699  1.0157 -0.1734  2.3770
  110SAPE   O2111364   0.883   2.435   2.649  0.2727 -0.6250 -0.4478
  110SAPE   C2111365   1.008   2.414   2.591  0.0909  0.9870 -0.1556
  110SAPE   O2211366   1.107   2.475   2.621  1.3618 -0.2123 -0.1685
  110SAPE   C2211367   0.990   2.307   2.485 -0.0337 -0.9372 -0.1579
  110SAPE   H2R11368   0.882   2.304   2.462 -0.3085  0.4380  0.8008
  110SAPE   H2S11369   1.035   2.349   2.392 -2.3552 -1.1646 -1.4442
  110SAPE    C311370   0.904   2.516   2.879 -0.3785  0.1717  0.4272
  110SAPE    HX11371   0.854   2.420   2.906  0.5202 -0.0988  1.1882
  110SAPE    HY11372   1.012   2.499   2.896 -0.1393 -0.8823 -1.8899
  110SAPE   O3111373   0.858   2.628   2.968  0.2029  0.7205 -0.0121
  110SAPE   C3111374   0.935   2.747   2.953  0.0808  0.7355  0.2112
  110SAPE   O3211375   1.045   2.753   2.901  0.1382 -0.5351  0.6401
  110SAPE   C3211376   0.866   2.860   3.019  0.2048  0.5886 -0.3921
  110SAPE   H2X11377   0.767   2.825   3.056 -0.4981  0.5655 -2.1764
  110SAPE   H2Y11378   0.839   2.946   2.953  0.4318  0.9755  0.0157
  110SAPE   C2311379   1.056   2.176   2.526 -0.5484  0.1032 -0.3477
  110SAPE   H3R11380   1.165   2.199   2.524 -0.6450  0.6998  0.5009
  110SAPE   H3S11381   1.040   2.092   2.455  0.9028 -1.7543  1.3825
  110SAPE   C2411382   1.012   2.133   2.672 -0.6958  0.4327 -0.0348
  110SAPE   H4R11383   0.926   2.192   2.710 -1.8068  0.4826 -2.4201
  110SAPE   H4S11384   1.103   2.140   2.735 -0.2725 -2.0525 -0.2896
  110SAPE   C2511385   0.969   1.982   2.665  0.2025  0.2998 -0.0269
  110SAPE   H5R11386   0.886   1.964   2.595  0.5374 -2.6828  0.2196
  110SAPE   C2611387   1.015   1.880   2.742 -0.1049  0.8678  0.6467
  110SAPE   H6R11388   0.969   1.780   2.735  0.9453  0.3549  0.8652
  110SAPE   C2711389   1.128   1.893   2.846  0.1579  0.2480  0.2057
  110SAPE   H7R11390   1.115   1.817   2.927 -2.0533 -0.7485 -0.9929
  110SAPE   H7S11391   1.130   1.997   2.886  1.6372 -0.8065  3.2291
  110SAPE   C2811392   1.252   1.868   2.770 -0.3814  0.3353 -0.6091
  110SAPE   H8R11393   1.244   1.810   2.677  2.3344  1.8273 -1.9113
  110SAPE   C2911394   1.373   1.927   2.802  0.2484 -0.0025  0.5412
  110SAPE   H9R11395   1.459   1.899   2.739 -0.8657 -2.0131 -0.1808
  110SAPE  C21011396   1.401   2.029   2.905  0.3363  1.0992  0.1010
  110SAPE  H10R11397   1.502   2.017   2.949 -0.0601  0.5439  0.8770
  110SAPE  H10S11398   1.339   2.021   2.997  1.8574  0.3696  1.1139
  110SAPE  C21111399   1.376   2.171   2.845 -0.1504  0.8606  0.1598
  110SAPE  H11R11400   1.394   2.177   2.737  2.0330 -2.1731  0.2168
  110SAPE  C21211401   1.341   2.277   2.916 -0.0505  0.2896  0.1420
  110SAPE  H12R11402   1.350   2.374   2.864 -0.7244 -0.3420 -1.1902
  110SAPE  C21311403   1.319   2.296   3.066 -0.1879  0.0526  0.2516
  110SAPE  H13R11404   1.405   2.358   3.100  0.5565 -0.6791 -0.2734
  110SAPE  H13S11405   1.343   2.200   3.116 -1.7330  0.8407  2.7058
  110SAPE  C21411406   1.184   2.336   3.117 -0.1528 -0.6743  0.8307
  110SAPE  H14R11407   1.164   2.444   3.105 -1.7520 -0.8416  1.7018
  110SAPE  C21511408   1.087   2.268   3.166 -0.0414 -0.2911 -0.3516
  110SAPE  H15R11409   0.991   2.320   3.180  0.1745  0.0162 -0.0084
  110SAPE  C21611410   1.099   2.119   3.182 -0.2043  0.1125  1.0912
  110SAPE  H16R11411   1.191   2.081   3.133 -1.3710  3.3828 -4.5978
  110SAPE  H16S11412   1.021   2.062   3.127  2.0017 -1.1309 -0.9298
  110SAPE  C21711413   1.099   2.088   3.332 -0.1377 -0.9100 -0.1742
  110SAPE  H17R11414   0.995   2.100   3.369  0.0289  0.2788 -0.0714
  110SAPE  H17S11415   1.174   2.144   3.392  1.8032  0.1212 -3.3619
  110SAPE  C21811416   1.130   1.942   3.362 -0.9413  0.2184  0.7985
  110SAPE  H18R11417   1.230   1.925   3.316 -0.3524  0.3761  2.0026
  110SAPE  H18S11418   1.062   1.880   3.300 -1.2802  1.2073  0.1457
  110SAPE  C21911419   1.122   1.915   3.516  0.6979  0.1909 -0.1832
  110SAPE  H19R11420   1.023   1.945   3.555 -1.5190 -3.0500 -2.7260
  110SAPE  H19S11421   1.193   1.989   3.557 -0.2739  0.3876  1.1817
  110SAPE  C22011422   1.152   1.773   3.554 -0.1251  0.4609  0.4873
  110SAPE  H20R11423   1.235   1.734   3.491 -1.7817  3.5654 -4.1367
  110SAPE  H20S11424   1.069   1.706   3.522  0.7148 -0.0496 -0.7320
  110SAPE  H20T11425   1.169   1.760   3.663 -3.6148  0.4405  1.1373
  110SAPE   C3311426   0.942   2.922   3.138 -0.1622 -0.2879 -0.4695
  110SAPE   H3X11427   0.895   3.020   3.157 -0.8169 -0.4958 -0.9805
  110SAPE   H3Y11428   1.047   2.940   3.106  0.2556 -2.4898 -0.5305
  110SAPE   C3411429   0.917   2.829   3.264 -0.9325 -0.6908  0.5574
  110SAPE   H4X11430   0.967   2.734   3.236  1.4933  0.7979 -0.5831
  110SAPE   H4Y11431   0.808   2.820   3.282 -0.9774 -1.1560  0.0630
  110SAPE   C3511432   0.971   2.895   3.398 -0.5420 -0.2297 -0.1410
  110SAPE   H5X11433   0.930   2.997   3.407  0.6949  0.3145 -0.4725
  110SAPE   H5Y11434   1.082   2.906   3.397 -0.6412  1.2789  1.1799
  110SAPE   C3611435   0.934   2.826   3.533  0.3615 -0.3613  0.0603
  110SAPE   H6X11436   0.987   2.728   3.542  3.4206  1.1214 -0.5146
  110SAPE   H6Y11437   0.825   2.811   3.514  1.0207 -0.9270 -4.2819
  110SAPE   C3711438   0.954   2.903   3.666  0.4257  0.5224  0.2412
  110SAPE   H7X11439   0.902   3.001   3.657  0.1270  0.3846  0.4441
  110SAPE   H7Y11440   1.060   2.918   3.694  0.3301  0.4210  0.6707
  110SAPE   C3811441   0.886   2.834   3.784  0.2749  0.4421  0.6814
  110SAPE   H8X11442   0.780   2.813   3.759  0.9525 -0.8537 -1.3319
  110SAPE   H8Y11443   0.910   2.900   3.870 -0.2764 -0.2560  1.3782
  110SAPE   C3911444   0.958   2.699   3.819 -0.1402 -0.7354  0.3429
  110SAPE   H9X11445   1.067   2.711   3.838 -0.1907 -1.6009  1.2820
  110SAPE   H9Y11446   0.942   2.631   3.733  1.5807  1.9433 -2.2764
  110SAPE  C31011447   0.898   2.638   3.951  0.2978 -0.4936 -0.8563
  110SAPE  H10X11448   0.949   2.543   3.979  0.3072 -0.6740 -1.4609
  110SAPE  H10Y11449   0.791   2.610   3.945  0.0457 -0.1913  1.3946
  110SAPE  C31111450   0.898   2.737   4.075  0.0485  0.0734 -0.3473
  110SAPE  H11X11451   0.795   2.776   4.076 -0.7602 -1.4927 -4.4606
  110SAPE  H11Y11452   0.968   2.819   4.046  0.5093  0.2114  1.0634
  110SAPE  C31211453   0.957   2.688   4.204  0.0102  0.0144 -0.5169
  110SAPE  H12X11454   0.901   2.607   4.255  0.9006 -0.4308 -0.2134
  110SAPE  H12Y11455   0.953   2.762   4.287  0.2889 -0.6872  0.1382
  110SAPE  C31311456   1.111   2.658   4.194 -0.2653  0.0284 -0.4909
  110SAPE  H13X11457   1.161   2.757   4.205  0.5381 -0.3682 -0.5275
  110SAPE  H13Y11458   1.137   2.631   4.090  1.6896  1.0464 -0.3188
  110SAPE  C31411459   1.158   2.553   4.291 -0.5262 -0.3994 -0.3153
  110SAPE  H14X11460   1.153   2.600   4.391  2.0921  2.7960 -1.4794
  110SAPE  H14Y11461   1.267   2.538   4.273 -0.3548 -0.4410  0.6910
  110SAPE  C31511462   1.097   2.413   4.289 -0.1898  0.0535  0.1082
  110SAPE  H15X11463   1.120   2.364   4.193 -1.6987 -1.3834  0.4315
  110SAPE  H15Y11464   0.986   2.414   4.289 -0.1967  0.5216  0.8721
  110SAPE  C31611465   1.150   2.323   4.393 -0.3591  0.0819 -0.0053
  110SAPE  H16X11466   1.102   2.360   4.486 -0.0296  0.4709  0.0122
  110SAPE  H16Y11467   1.260   2.317   4.405 -0.4473  0.2026  0.9395
  110SAPE  C31711468   1.114   2.178   4.362  0.0282  0.0308  0.6735
  110SAPE  H17X11469   1.175   2.133   4.280 -2.7079 -2.1733 -0.3144
  110SAPE  H17Y11470   1.008   2.179   4.329  0.5511 -1.0076 -1.2441
  110SAPE  C31811471   1.130   2.086   4.488 -0.1691 -0.2556  0.1368
  110SAPE  H18X11472   1.225   2.111   4.540 -1.5381  1.5423  1.9192
  110SAPE  H18Y11473   1.122   1.978   4.463 -0.4821 -0.4787  1.1496
  110SAPE  H18Z11474   1.062   2.114   4.571  1.6168  0.4629  1.4375
  111SAPE     N11475   1.941   5.178   2.134 -0.2255  0.1536  1.2818
  111SAPE   HN111476   1.880   5.191   2.217 -3.4292  1.5890 -1.0331
  111SAPE   HN211477   1.878   5.201   2.054 -0.3600 -3.7199  0.0817
  111SAPE   HN311478   1.982   5.085   2.116  1.9090  1.5069 -1.6759
  111SAPE   C1211479   2.055   5.280   2.147 -0.8331 -0.0290 -0.1800
  111SAPE  H12A11480   2.097   5.300   2.046 -1.7871 -0.2841 -0.6381
  111SAPE  H12B11481   2.134   5.247   2.217  0.2037 -0.3064 -1.4225
  111SAPE   C1111482   1.999   5.417   2.204  0.4117 -0.1330 -0.0033
  111SAPE  H11A11483   2.074   5.499   2.210  0.9990 -0.6918  0.3822
  111SAPE  H11B11484   1.942   5.399   2.298  0.0446  0.9084 -0.0096
  111SAPE     P11485   1.745   5.468   2.133 -0.2011 -0.1379  0.0387
  111SAPE   O1311486   1.673   5.572   2.062 -0.3181 -0.4146  0.0429
  111SAPE   O1411487   1.695   5.328   2.114  0.1437 -0.4324 -0.3649
  111SAPE   O1211488   1.905   5.478   2.112 -0.5143 -0.1501 -0.6322
  111SAPE   O1111489   1.729   5.504   2.282  0.3994  0.1657 -0.3766
  111SAPE    C111490   1.773   5.633   2.333  0.2213 -1.1877 -0.1659
  111SAPE    HA11491   1.852   5.677   2.269  1.4969 -1.4639  1.1875
  111SAPE    HB11492   1.692   5.709   2.328  2.3007  1.1653 -0.1224
  111SAPE    C211493   1.827   5.612   2.476  0.1514  0.1529  0.2118
  111SAPE    HS11494   1.894   5.524   2.473  0.2315  0.2367 -0.4490
  111SAPE   O2111495   1.720   5.588   2.569 -0.1401 -0.0152 -0.0989
  111SAPE   C2111496   1.699   5.457   2.597 -0.3135 -0.0284  0.0116
  111SAPE   O2211497   1.772   5.362   2.574  0.1087  0.3081 -0.0291
  111SAPE   C2211498   1.573   5.448   2.680  0.6182  0.1239 -0.2293
  111SAPE   H2R11499   1.534   5.548   2.707  1.0452  0.3176 -0.3171
  111SAPE   H2S11500   1.505   5.389   2.615  0.9107  1.2865 -1.6367
  111SAPE    C311501   1.911   5.742   2.525  0.5080  0.9253 -0.5152
  111SAPE    HX11502   1.854   5.834   2.502  0.7968  0.5970 -2.7286
  111SAPE    HY11503   2.000   5.752   2.460 -0.0057  1.7408 -1.1124
  111SAPE   O3111504   1.958   5.732   2.667  0.2431  0.2469  0.2727
  111SAPE   C3111505   1.877   5.782   2.760 -0.1096  0.2791  0.4335
  111SAPE   O3211506   1.770   5.833   2.733 -0.3902  0.2859 -0.3485
  111SAPE   C3211507   1.936   5.748   2.900  0.7290 -0.4951 -0.1780
  111SAPE   H2X11508   2.001   5.658   2.901  0.8905 -0.4449  3.1564
  111SAPE   H2Y11509   1.845   5.713   2.953  1.6571 -2.5028  0.1814
  111SAPE   C2311510   1.588   5.377   2.820  0.1307 -0.2144  0.3948
  111SAPE   H3R11511   1.689   5.398   2.861 -0.5595  0.2968  1.9003
  111SAPE   H3S11512   1.578   5.269   2.798 -1.4831 -0.1700  0.8017
  111SAPE   C2411513   1.482   5.421   2.928 -0.1360 -1.1422  0.3665
  111SAPE   H4R11514   1.469   5.344   3.007 -2.2028 -0.1969  1.0037
  111SAPE   H4S11515   1.380   5.427   2.884 -0.0928  0.4117  0.4469
  111SAPE   C2511516   1.530   5.557   2.988 -0.6842  0.2273 -0.5684
  111SAPE   H5R11517   1.502   5.644   2.928  0.0991  1.4308  0.7326
  111SAPE   C2611518   1.584   5.567   3.111 -0.0000  0.3680 -0.2455
  111SAPE   H6R11519   1.615   5.668   3.143  0.9578 -0.4322  1.5423
  111SAPE   C2711520   1.617   5.453   3.204  0.1983  0.5353 -0.0605
  111SAPE   H7R11521   1.686   5.379   3.159  2.6626  1.2647  2.2802
  111SAPE   H7S11522   1.524   5.393   3.213  0.3855  0.1215 -0.8042
  111SAPE   C2811523   1.685   5.492   3.333 -0.2069 -0.3690 -1.1316
  111SAPE   H8R11524   1.771   5.561   3.329 -0.3612 -0.2090 -1.9232
  111SAPE   C2911525   1.664   5.441   3.455  0.0219  0.4119  0.6139
  111SAPE   H9R11526   1.711   5.480   3.547 -2.0173  2.6253  0.8171
  111SAPE  C21011527   1.580   5.319   3.494  0.0122 -0.4672 -0.2864
  111SAPE  H10R11528   1.644   5.251   3.554 -0.2489 -0.0871  0.4232
  111SAPE  H10S11529   1.559   5.267   3.398  2.5744 -1.7701 -0.2285
  111SAPE  C21111530   1.442   5.338   3.561  0.8322  0.1933  0.2080
  111SAPE  H11R11531   1.369   5.395   3.502 -2.3640 -1.7968  1.9540
  111SAPE  C21211532   1.396   5.277   3.674 -0.5615 -0.7084 -1.1467
  111SAPE  H12R11533   1.292   5.286   3.709 -0.6053 -2.1617 -0.8466
  111SAPE  C21311534   1.491   5.189   3.754 -0.2329  0.3891 -0.9833
  111SAPE  H13R11535   1.587   5.239   3.780 -1.2856  1.9349  0.1086
  111SAPE  H13S11536   1.511   5.095   3.699  1.5095  0.2418 -0.1586
  111SAPE  C21411537   1.417   5.133   3.877 -0.5592 -0.3579  0.2788
  111SAPE  H14R11538   1.322   5.080   3.856  1.5462 -2.9429 -4.2202
  111SAPE  C21511539   1.465   5.131   4.002  0.5590 -0.7143 -0.5812
  111SAPE  H15R11540   1.393   5.095   4.077 -0.8773  1.1758 -0.9867
  111SAPE  C21611541   1.601   5.180   4.055  0.3280 -0.0979 -0.2476
  111SAPE  H16R11542   1.579   5.237   4.148 -0.7347 -1.3672  0.2993
  111SAPE  H16S11543   1.643   5.257   3.986 -0.7963 -0.0850 -0.9295
  111SAPE  C21711544   1.700   5.055   4.088  0.4729 -0.3025  0.7141
  111SAPE  H17R11545   1.728   5.018   3.987  2.0641  1.3161  0.5028
  111SAPE  H17S11546   1.646   4.978   4.147 -1.5676 -0.4875 -1.2362
  111SAPE  C21811547   1.833   5.103   4.141  0.2696  0.4432  0.5732
  111SAPE  H18R11548   1.820   5.158   4.236 -0.4588  0.3403  0.5382
  111SAPE  H18S11549   1.885   5.164   4.064 -0.6550 -0.1491 -0.5618
  111SAPE  C21911550   1.918   4.977   4.179 -0.1133 -0.6547 -0.6457
  111SAPE  H19R11551   1.946   4.933   4.081 -0.3104 -2.1696 -0.0493
  111SAPE  H19S11552   1.844   4.910   4.228  0.2202  0.4438  1.4672
  111SAPE  C22011553   2.035   4.996   4.271 -0.1813 -0.2147 -0.3213
  111SAPE  H20R11554   2.004   5.056   4.359  1.5041  1.0658 -0.5612
  111SAPE  H20S11555   2.106   5.066   4.223 -1.6558 -0.7400 -3.5032
  111SAPE  H20T11556   2.098   4.906   4.287 -0.7978 -0.4107  1.1965
  111SAPE   C3311557   2.015   5.861   2.981  0.5859  0.3593 -0.7316
  111SAPE   H3X11558   1.937   5.941   2.984  0.2588  0.0087  0.4470
  111SAPE   H3Y11559   2.102   5.905   2.927  3.6919 -2.3549  1.6925
  111SAPE   C3411560   2.048   5.828   3.122  0.1246 -0.0763  0.7664
  111SAPE   H4X11561   2.133   5.759   3.105 -1.4128 -1.6427 -1.1226
  111SAPE   H4Y11562   1.961   5.780   3.173 -1.3409  0.8813 -0.7377
  111SAPE   C3511563   2.101   5.944   3.203 -0.2954  0.1713 -0.1674
  111SAPE   H5X11564   2.015   6.014   3.217 -1.1862 -1.0435  0.7176
  111SAPE   H5Y11565   2.181   5.986   3.139 -0.1445 -1.4576 -1.0997
  111SAPE   C3611566   2.154   5.901   3.342  0.5741 -0.6008 -0.2922
  111SAPE   H6X11567   2.206   5.984   3.393  0.4427  0.5929 -2.0025
  111SAPE   H6Y11568   2.209   5.805   3.329  0.5760 -0.6890  0.3373
  111SAPE   C3711569   2.033   5.852   3.426  0.3391  0.0806  0.7737
  111SAPE   H7X11570   1.988   5.760   3.383 -0.9684  2.0554 -2.4854
  111SAPE   H7Y11571   1.956   5.932   3.415  0.3082 -0.0644 -0.2194
  111SAPE   C3811572   2.074   5.838   3.578 -0.3499 -0.1979 -0.5866
  111SAPE   H8X11573   1.987   5.868   3.640 -1.4423 -2.2100 -1.0422
  111SAPE   H8Y11574   2.157   5.909   3.600 -0.8655  0.0208  0.7486
  111SAPE   C3911575   2.119   5.700   3.623 -0.2304 -0.0096  0.8881
  111SAPE   H9X11576   2.149   5.703   3.730 -2.1771  0.1747  1.4668
  111SAPE   H9Y11577   2.205   5.653   3.569 -0.1804 -0.4856  1.3701
  111SAPE  C31011578   2.011   5.597   3.610 -0.1168  0.2176 -0.1818
  111SAPE  H10X11579   1.982   5.578   3.504  2.4940 -0.0495 -0.9275
  111SAPE  H10Y11580   1.914   5.626   3.656  0.1493  1.5816 -0.4493
  111SAPE  C31111581   2.065   5.466   3.672  0.7889 -0.0235  0.7574
  111SAPE  H11X11582   2.086   5.486   3.780  0.7687 -0.2164  0.7982
  111SAPE  H11Y11583   2.166   5.440   3.633 -0.1839 -1.3421 -1.0373
  111SAPE  C31211584   1.965   5.346   3.655  0.4702 -0.8974  0.6949
  111SAPE  H12X11585   1.935   5.319   3.551 -0.8107  0.9220  0.5517
  111SAPE  H12Y11586   1.874   5.384   3.706  1.9901  1.1527  2.0228
  111SAPE  C31311587   2.013   5.224   3.735 -0.0480  0.8156  0.5530
  111SAPE  H13X11588   1.929   5.170   3.784 -0.1533 -0.0891 -0.5702
  111SAPE  H13Y11589   2.066   5.247   3.830 -0.6221 -1.3327  1.4586
  111SAPE  C31411590   2.080   5.116   3.650 -0.4240  0.0814  0.2741
  111SAPE  H14X11591   2.188   5.142   3.646 -0.5918  1.0253  1.3639
  111SAPE  H14Y11592   2.034   5.106   3.550 -1.2547  1.0566  0.5433
  111SAPE  C31511593   2.070   4.965   3.696 -0.4013 -0.4060 -0.3017
  111SAPE  H15X11594   1.961   4.943   3.687 -0.9041  1.2833  1.1683
  111SAPE  H15Y11595   2.100   4.965   3.803 -1.3656 -2.1368  0.0066
  111SAPE  C31611596   2.158   4.869   3.619 -0.0506  0.0339  0.2858
  111SAPE  H16X11597   2.154   4.868   3.507  0.8581  0.7020  0.2340
  111SAPE  H16Y11598   2.111   4.771   3.644  0.9798 -0.7729 -0.8274
  111SAPE  C31711599   2.312   4.863   3.654  0.5845  0.8696 -0.2294
  111SAPE  H17X11600   2.317   4.841   3.762  2.8074  0.6315 -0.3303
  111SAPE  H17Y11601   2.353   4.966   3.647  1.0739  0.7707  1.0103
  111SAPE  C31811602   2.396   4.760   3.583 -0.5237  0.4015  0.3178
  111SAPE  H18X11603   2.352   4.661   3.606 -0.5207  0.6370  1.3942
  111SAPE  H18Y11604   2.501   4.759   3.619 -0.4513 -1.1935  0.1131
  111SAPE  H18Z11605   2.393   4.772   3.473 -1.6702 -0.9927  0.1758
  112SAPE     N11606   4.385   2.705   2.110 -0.2337 -0.3909 -0.1394
  112SAPE   HN111607   4.369   2.604   2.090 -0.5910 -1.0312  2.8945
  112SAPE   HN211608   4.331   2.719   2.197 -3.1723  0.3909 -1.9391
  112SAPE   HN311609   4.349   2.754   2.025  2.6362 -1.3258 -2.0725
  112SAPE   C1211610   4.534   2.734   2.126  0.8588 -0.7064 -0.3014
  112SAPE  H12A11611   4.548   2.827   2.187 -1.4864 -0.0361 -0.6763
  112SAPE  H12B11612   4.578   2.751   2.026  0.5785 -0.6568 -0.4188
  112SAPE   C1111613   4.602   2.615   2.187 -0.3789  0.1591 -0.5356
  112SAPE  H11A11614   4.574   2.612   2.294 -3.2260  0.5119 -1.1934
  112SAPE  H11B11615   4.712   2.631   2.182 -0.4546  1.4199  1.0315
  112SAPE     P11616   4.618   2.354   2.163 -0.2335  0.0225 -0.0180
  112SAPE   O1311617   4.544   2.251   2.095  0.1875  0.6352 -0.1530
  112SAPE   O1411618   4.762   2.368   2.145  0.5251 -0.2970 -0.5736
  112SAPE   O1211619   4.563   2.495   2.119  0.1045  0.5205  0.1470
  112SAPE   O1111620   4.575   2.335   2.316  0.0308  0.6328 -0.1032
  112SAPE    C111621   4.440   2.351   2.363 -0.3075  0.6791  0.0751
  112SAPE    HA11622   4.419   2.459   2.353  1.4429  0.9392 -1.2352
  112SAPE    HB11623   4.372   2.288   2.301 -1.6725  1.1337  1.0562
  112SAPE    C211624   4.415   2.316   2.514 -0.4072  0.0001 -0.5761
  112SAPE    HS11625   4.313   2.344   2.546  0.6026  1.7677  1.3719
  112SAPE   O2111626   4.518   2.378   2.592 -0.4335 -0.0501  0.5075
  112SAPE   C2111627   4.496   2.506   2.611  0.0883 -0.3134 -1.3455
  112SAPE   O2211628   4.403   2.571   2.567  0.1995 -0.2367 -0.0386
  112SAPE   C2211629   4.598   2.564   2.705 -0.7435 -0.0524  0.4192
  112SAPE   H2R11630   4.629   2.482   2.774  0.2633  1.4060  1.7767
  112SAPE   H2S11631   4.682   2.608   2.648 -0.7304 -1.9126 -1.1126
  112SAPE    C311632   4.425   2.162   2.543  0.0916 -0.9733 -0.3639
  112SAPE    HX11633   4.535   2.149   2.536  0.5833  1.9885  0.6960
  112SAPE    HY11634   4.379   2.107   2.459 -0.3003 -0.0189 -0.7828
  112SAPE   O3111635   4.358   2.121   2.666  0.1381 -0.0548 -0.8248
  112SAPE   C3111636   4.368   1.992   2.686 -0.1866  0.3482 -0.0113
  112SAPE   O3211637   4.442   1.916   2.619  0.0474  0.2009 -0.5155
  112SAPE   C3211638   4.286   1.942   2.799 -0.3779 -0.7634 -0.8563
  112SAPE   H2X11639   4.196   1.890   2.761 -1.3396  1.0265 -1.1356
  112SAPE   H2Y11640   4.250   2.026   2.862 -0.2277 -0.3169 -1.3536
  112SAPE   C2311641   4.540   2.692   2.781 -0.2417  1.3326  0.1978
  112SAPE   H3R11642   4.519   2.767   2.702 -2.5410 -1.3469 -1.9447
  112SAPE   H3S11643   4.621   2.723   2.851 -1.3817 -0.4640  2.4614
  112SAPE   C2411644   4.415   2.678   2.854 -0.3542  0.5066 -0.7917
  112SAPE   H4R11645   4.420   2.590   2.922  2.3932  0.1047 -1.4105
  112SAPE   H4S11646   4.338   2.678   2.774 -0.9580 -0.4167 -0.2388
  112SAPE   C2511647   4.378   2.796   2.936  1.0133 -0.4587  0.2002
  112SAPE   H5R11648   4.326   2.874   2.878  0.9203 -0.2413  0.5663
  112SAPE   C2611649   4.396   2.821   3.066  0.1129  0.0233 -0.1384
  112SAPE   H6R11650   4.349   2.914   3.101 -0.2907  0.2350 -1.1961
  112SAPE   C2711651   4.455   2.739   3.169  0.5984 -0.2115  0.4195
  112SAPE   H7R11652   4.565   2.759   3.175  0.2667  2.7971 -1.3079
  112SAPE   H7S11653   4.445   2.632   3.142 -1.4254 -0.2591  1.2565
  112SAPE   C2811654   4.385   2.757   3.303 -0.2343  0.6352  0.2900
  112SAPE   H8R11655   4.280   2.726   3.302 -0.2752  0.7669  0.3933
  112SAPE   C2911656   4.442   2.789   3.421  0.0215  0.1898 -0.2365
  112SAPE   H9R11657   4.377   2.773   3.508 -1.3644 -0.1798 -1.2895
  112SAPE  C21011658   4.584   2.829   3.440 -0.4661 -0.3816  0.5874
  112SAPE  H10R11659   4.590   2.940   3.447 -0.4344 -0.4409  1.5969
  112SAPE  H10S11660   4.653   2.805   3.356 -1.2037 -0.4997  0.0113
  112SAPE  C21111661   4.653   2.761   3.554 -0.0684 -0.4370  0.3322
  112SAPE  H11R11662   4.645   2.652   3.543  0.1482 -0.5303  1.0836
  112SAPE  C21211663   4.732   2.818   3.649 -0.3426  0.1752 -1.0847
  112SAPE  H12R11664   4.769   2.750   3.728 -1.2226  0.4980 -0.3823
  112SAPE  C21311665   4.763   2.962   3.667  0.2658  0.6616 -0.7584
  112SAPE  H13R11666   4.684   3.020   3.719  2.6844  2.7576  0.7881
  112SAPE  H13S11667   4.775   3.000   3.563 -3.1912 -2.8181 -2.7186
  112SAPE  C21411668   4.889   2.962   3.758  0.1014 -0.2591  0.2492
  112SAPE  H14R11669   4.978   2.912   3.718 -0.7923 -0.8695 -1.0618
  112SAPE  C21511670   4.902   3.007   3.881 -0.0220 -0.5170 -0.2015
  112SAPE  H15R11671   5.001   2.998   3.928  1.1040  0.6247 -2.2167
  112SAPE  C21611672   4.801   3.078   3.974 -1.6555 -0.2183 -0.0849
  112SAPE  H16R11673   4.696   3.060   3.945 -1.6346 -3.0315  1.2253
  112SAPE  H16S11674   4.810   3.188   3.974 -0.2893 -0.3079  0.4076
  112SAPE  C21711675   4.824   3.017   4.114  0.6303 -0.2187  0.6084
  112SAPE  H17R11676   4.931   2.990   4.125  0.1859 -3.0268 -0.9638
  112SAPE  H17S11677   4.761   2.928   4.134 -1.8824  1.3817  0.1981
  112SAPE  C21811678   4.771   3.120   4.216 -0.3021  0.0150 -0.0646
  112SAPE  H18R11679   4.666   3.141   4.188 -0.4527 -0.3056  0.2522
  112SAPE  H18S11680   4.824   3.218   4.218 -0.0663 -0.1118  0.0462
  112SAPE  C21911681   4.782   3.057   4.357 -0.0543 -1.1262 -0.8752
  112SAPE  H19R11682   4.891   3.068   4.372 -0.2749 -0.3547  0.3569
  112SAPE  H19S11683   4.756   2.949   4.355 -0.3041 -1.1648  1.5551
  112SAPE  C22011684   4.718   3.149   4.459  0.7379  0.3180  0.2814
  112SAPE  H20R11685   4.607   3.145   4.451  0.5937 -0.9825  2.1391
  112SAPE  H20S11686   4.752   3.253   4.444  1.0858  0.4092  1.5755
  112SAPE  H20T11687   4.733   3.117   4.564 -1.1543 -1.0219  0.1944
  112SAPE   C3311688   4.376   1.846   2.883 -0.2736  0.0959  0.0377
  112SAPE   H3X11689   4.452   1.905   2.938  0.8594  1.0466 -2.3744
  112SAPE   H3Y11690   4.425   1.763   2.826  1.4182 -0.6592  2.4225
  112SAPE   C3411691   4.297   1.774   2.991 -0.2806  0.1364  0.8461
  112SAPE   H4X11692   4.370   1.713   3.048  0.1305  1.0291  1.2885
  112SAPE   H4Y11693   4.232   1.704   2.935 -1.4577  0.1645  2.1164
  112SAPE   C3511694   4.217   1.856   3.091  0.0247 -0.1016  0.5623
  112SAPE   H5X11695   4.108   1.833   3.091 -0.0638  0.2680 -0.4879
  112SAPE   H5Y11696   4.221   1.965   3.069 -1.8787 -0.3144 -1.1337
  112SAPE   C3611697   4.265   1.849   3.240 -0.8173  0.4891  0.4816
  112SAPE   H6X11698   4.373   1.875   3.245 -1.5429  3.6618  1.9058
  112SAPE   H6Y11699   4.260   1.745   3.278 -0.3895  0.1627 -0.3232
  112SAPE   C3711700   4.182   1.939   3.333  0.3343  0.3661  0.7011
  112SAPE   H7X11701   4.077   1.907   3.312  0.4973 -1.6722  2.5908
  112SAPE   H7Y11702   4.198   2.045   3.304  2.1696 -0.3748 -1.2164
  112SAPE   C3811703   4.206   1.921   3.477 -0.7294 -0.4876 -0.3821
  112SAPE   H8X11704   4.313   1.935   3.502 -0.4677  0.4242 -1.8635
  112SAPE   H8Y11705   4.185   1.816   3.506 -0.2120 -0.4855  0.0272
  112SAPE   C3911706   4.119   2.022   3.563 -0.0035  0.2095  0.9599
  112SAPE   H9X11707   4.012   2.014   3.536  0.0115  1.2881  0.5329
  112SAPE   H9Y11708   4.147   2.127   3.540  2.3913  0.3817  4.0156
  112SAPE  C31011709   4.131   1.980   3.709 -0.4176 -0.0588 -0.0941
  112SAPE  H10X11710   4.241   1.986   3.725 -0.3212 -0.9721 -0.3350
  112SAPE  H10Y11711   4.101   1.874   3.726  0.8059 -0.6974 -1.6476
  112SAPE  C31111712   4.055   2.073   3.801 -0.2165  0.2203 -0.3564
  112SAPE  H11X11713   3.947   2.056   3.781 -0.4304  1.3261 -0.2407
  112SAPE  H11Y11714   4.086   2.175   3.770  0.6874  0.1385  0.2423
  112SAPE  C31211715   4.090   2.049   3.950  0.8773 -0.0364  0.6655
  112SAPE  H12X11716   4.198   2.071   3.958  1.7928 -3.4461 -0.6534
  112SAPE  H12Y11717   4.081   1.943   3.980  1.7965 -0.5083 -0.6835
  112SAPE  C31311718   3.994   2.118   4.052 -0.6436  0.4231 -0.6734
  112SAPE  H13X11719   3.887   2.114   4.020 -1.8456  0.9960  2.8114
  112SAPE  H13Y11720   4.034   2.222   4.053  1.0678 -0.1978  1.1149
  112SAPE  C31411721   4.004   2.075   4.201 -0.3057  0.1509 -0.3763
  112SAPE  H14X11722   3.978   2.156   4.272  0.8853  0.0848  0.1616
  112SAPE  H14Y11723   4.110   2.056   4.230 -0.8172  0.9652  2.2970
  112SAPE  C31511724   3.922   1.950   4.227 -0.1743 -0.3882  1.0486
  112SAPE  H15X11725   3.937   1.890   4.135  0.1036  1.9716 -0.5390
  112SAPE  H15Y11726   3.814   1.974   4.241 -0.8076  1.0822 -4.2087
  112SAPE  C31611727   3.966   1.857   4.346 -0.0527 -0.2105  0.5827
  112SAPE  H16X11728   3.932   1.896   4.444 -1.1149  1.2460 -0.3214
  112SAPE  H16Y11729   4.075   1.839   4.334 -0.0695  1.1349 -2.4782
  112SAPE  C31711730   3.899   1.723   4.316  0.0859 -0.4448 -0.2291
  112SAPE  H17X11731   3.959   1.641   4.360  2.1690  1.0328 -0.1350
  112SAPE  H17Y11732   3.893   1.698   4.208 -1.0695 -1.3498  0.0269
  112SAPE  C31811733   3.754   1.720   4.372  0.6358  0.1683 -0.2248
  112SAPE  H18X11734   3.717   1.616   4.363 -1.3134  0.9578 -2.5415
  112SAPE  H18Y11735   3.693   1.789   4.309 -0.0389 -1.4834 -1.4487
  112SAPE  H18Z11736   3.743   1.748   4.479  1.7448  2.3114 -0.6118
  113SAPE     N11737   2.808   4.294   1.934  0.5117 -0.0118  0.4680
  113SAPE   HN111738   2.879   4.219   1.924  0.6996 -0.0111  1.6773
  113SAPE   HN211739   2.730   4.282   1.866 -0.6585  2.7906  1.1420
  113SAPE   HN311740   2.858   4.378   1.898 -3.0396  1.2783 -2.0792
  113SAPE   C1211741   2.745   4.315   2.077 -0.0508  0.5007  0.2268
  113SAPE  H12A11742   2.660   4.387   2.082 -1.0517 -0.7411  2.3712
  113SAPE  H12B11743   2.828   4.350   2.142  0.6730  1.5855 -1.2292
  113SAPE   C1111744   2.692   4.181   2.130  0.4013 -0.4462 -0.0117
  113SAPE  H11A11745   2.606   4.143   2.070 -1.2138  0.1487  1.8237
  113SAPE  H11B11746   2.647   4.194   2.230  1.6668 -2.5030  0.8976
  113SAPE     P11747   2.852   4.017   2.277 -0.4968 -0.3068  0.5289
  113SAPE   O1311748   2.803   3.883   2.283 -0.5128 -0.0607  1.0919
  113SAPE   O1411749   3.002   4.036   2.284  0.0271 -0.0404  0.0674
  113SAPE   O1211750   2.796   4.087   2.145 -0.3084  0.4223  0.6003
  113SAPE   O1111751   2.794   4.101   2.399 -0.3659 -0.0007 -0.1290
  113SAPE    C111752   2.684   4.071   2.477  0.3227 -0.2012 -0.6370
  113SAPE    HA11753   2.618   4.160   2.489  0.0339 -0.4483 -0.3696
  113SAPE    HB11754   2.614   3.995   2.435 -0.7983  0.4965 -0.0968
  113SAPE    C211755   2.730   4.026   2.619  0.1500 -0.2259  0.0023
  113SAPE    HS11756   2.773   4.118   2.664 -1.6742 -0.4325  2.4117
  113SAPE   O2111757   2.813   3.905   2.614  0.8852  0.2269  0.1387
  113SAPE   C2111758   2.940   3.922   2.635  0.0281 -0.4851 -0.2735
  113SAPE   O2211759   3.001   4.025   2.658  0.0390 -0.0163 -0.1746
  113SAPE   C2211760   3.009   3.787   2.642 -0.3047 -0.2389  0.2648
  113SAPE   H2R11761   2.933   3.706   2.650 -1.5905  0.9272  0.2827
  113SAPE   H2S11762   3.050   3.770   2.540  3.3020 -2.8246  1.9564
  113SAPE    C311763   2.612   3.994   2.715  0.1832 -0.6348  0.2635
  113SAPE    HX11764   2.553   3.910   2.673 -1.5013  1.7812 -2.5926
  113SAPE    HY11765   2.549   4.084   2.700  0.8418 -0.3169 -0.6980
  113SAPE   O3111766   2.646   3.989   2.852  0.1277  0.2941  0.1296
  113SAPE   C3111767   2.655   3.868   2.899  0.0061 -0.4164  0.6406
  113SAPE   O3211768   2.636   3.765   2.837  0.0826 -0.6309  0.2160
  113SAPE   C3211769   2.694   3.872   3.052  0.2307  0.6417 -0.1301
  113SAPE   H2X11770   2.746   3.966   3.078 -1.2798  1.7358 -0.8633
  113SAPE   H2Y11771   2.762   3.786   3.068  0.2592  0.9781  1.7367
  113SAPE   C2311772   3.113   3.768   2.752  0.0297 -0.6621 -0.2318
  113SAPE   H3R11773   3.160   3.862   2.786  0.4578 -1.4936  1.6447
  113SAPE   H3S11774   3.199   3.710   2.713  0.9293 -0.3339  1.1796
  113SAPE   C2411775   3.050   3.692   2.877 -0.3546 -0.1444 -0.4618
  113SAPE   H4R11776   3.002   3.607   2.826  0.7008 -1.2502  0.3282
  113SAPE   H4S11777   2.971   3.751   2.929 -1.6238 -0.2583 -2.2123
  113SAPE   C2511778   3.148   3.647   2.986 -0.0984 -0.2100  0.1093
  113SAPE   H5R11779   3.196   3.735   3.030  0.6659  0.1014 -1.2741
  113SAPE   C2611780   3.190   3.519   3.017 -0.4800 -1.1521  0.3591
  113SAPE   H6R11781   3.268   3.504   3.094 -0.9970 -0.3595  1.0579
  113SAPE   C2711782   3.140   3.391   2.963  0.3790 -0.8626  0.4017
  113SAPE   H7R11783   3.125   3.395   2.853 -4.5664 -3.4882  0.7036
  113SAPE   H7S11784   3.037   3.383   3.004 -0.0854 -0.8066 -0.7163
  113SAPE   C2811785   3.210   3.262   3.001 -0.2897  0.2838  0.3000
  113SAPE   H8R11786   3.270   3.202   2.931  0.7408  2.5733 -0.8911
  113SAPE   C2911787   3.216   3.209   3.124  0.3450 -0.6468  0.5828
  113SAPE   H9R11788   3.262   3.110   3.137  0.2442 -0.8737 -0.6938
  113SAPE  C21011789   3.163   3.268   3.252 -0.1219 -0.6966  0.5290
  113SAPE  H10R11790   3.074   3.329   3.225  1.0838  0.7685 -0.3552
  113SAPE  H10S11791   3.227   3.344   3.301 -2.5046  0.2440  2.3759
  113SAPE  C21111792   3.117   3.168   3.354 -0.0167  0.9229 -0.1736
  113SAPE  H11R11793   3.057   3.086   3.310  0.8597 -0.1166  0.5252
  113SAPE  C21211794   3.145   3.166   3.482  0.1472  0.1806 -0.3443
  113SAPE  H12R11795   3.116   3.080   3.544  0.0072  0.3053 -0.2348
  113SAPE  C21311796   3.239   3.265   3.549 -0.0701  0.2542 -0.5276
  113SAPE  H13R11797   3.337   3.282   3.498  0.4758 -2.6620 -0.6228
  113SAPE  H13S11798   3.267   3.226   3.649  0.1683  0.3554 -0.5525
  113SAPE  C21411799   3.169   3.400   3.573 -0.7372  0.0598  0.3326
  113SAPE  H14R11800   3.148   3.460   3.483  0.6679  1.2872  0.7852
  113SAPE  C21511801   3.141   3.461   3.687  0.2648 -0.0354  0.1176
  113SAPE  H15R11802   3.096   3.561   3.673  1.6546  0.6035  0.0089
  113SAPE  C21611803   3.156   3.412   3.831  0.0017 -0.6348  0.4249
  113SAPE  H16R11804   3.167   3.301   3.839  2.1525 -0.4719  0.2550
  113SAPE  H16S11805   3.063   3.441   3.883  0.2597  1.3571 -0.1384
  113SAPE  C21711806   3.282   3.475   3.902 -0.3774 -0.0902  0.0030
  113SAPE  H17R11807   3.280   3.586   3.901  2.3377  0.0615  1.8969
  113SAPE  H17S11808   3.378   3.458   3.850 -0.7079  1.1934 -1.0799
  113SAPE  C21811809   3.297   3.439   4.043  0.0679 -0.0599 -0.5284
  113SAPE  H18R11810   3.210   3.474   4.103 -0.3064  0.3235 -1.2925
  113SAPE  H18S11811   3.390   3.494   4.070 -0.3351  1.6258 -2.3429
  113SAPE  C21911812   3.320   3.291   4.076 -0.3461 -0.9132  0.3031
  113SAPE  H19R11813   3.398   3.239   4.018 -0.9799 -0.7541 -0.7156
  113SAPE  H19S11814   3.224   3.239   4.052 -2.4230  1.5794  2.5093
  113SAPE  C22011815   3.340   3.280   4.229  0.1123 -0.3206 -0.3588
  113SAPE  H20R11816   3.248   3.319   4.276 -1.2834 -0.8864 -2.5103
  113SAPE  H20S11817   3.438   3.317   4.266 -0.9872  1.6460  0.7613
  113SAPE  H20T11818   3.342   3.173   4.258  1.4469  0.7408  4.3738
  113SAPE   C3311819   2.563   3.845   3.134 -0.3327 -0.2560  0.2986
  113SAPE   H3X11820   2.514   3.749   3.106 -0.1352  0.3837 -2.4974
  113SAPE   H3Y11821   2.487   3.924   3.114  0.1309 -0.1825 -1.3432
  113SAPE   C3411822   2.592   3.834   3.285 -0.2665 -0.1431 -0.6372
  113SAPE   H4X11823   2.639   3.926   3.326  0.2529 -2.1534  4.0170
  113SAPE   H4Y11824   2.668   3.754   3.301 -0.0154  0.0693 -0.7669
  113SAPE   C3511825   2.469   3.815   3.368  0.2859  0.0360  0.9258
  113SAPE   H5X11826   2.450   3.705   3.368 -0.0597  0.0915  1.2824
  113SAPE   H5Y11827   2.375   3.861   3.330  0.0475 -0.1508  1.2796
  113SAPE   C3611828   2.490   3.869   3.502 -0.1022  0.3223 -0.6362
  113SAPE   H6X11829   2.507   3.978   3.492 -0.4552  0.2986 -1.5887
  113SAPE   H6Y11830   2.577   3.820   3.552  0.1771 -0.3129 -1.7048
  113SAPE   C3711831   2.363   3.849   3.584 -0.2824  0.5670 -1.0863
  113SAPE   H7X11832   2.347   3.739   3.593  1.2194  0.3049 -1.2736
  113SAPE   H7Y11833   2.278   3.900   3.535  1.0652  2.4892 -1.5590
  113SAPE   C3811834   2.398   3.898   3.731  0.3564 -0.0014  0.6266
  113SAPE   H8X11835   2.495   3.849   3.757  0.1071 -1.4511 -0.9961
  113SAPE   H8Y11836   2.431   4.003   3.720  1.5945 -0.4923 -0.7918
  113SAPE   C3911837   2.289   3.875   3.829 -0.6902 -0.1807  0.5814
  113SAPE   H9X11838   2.188   3.892   3.787 -0.0365 -0.1512 -1.0651
  113SAPE   H9Y11839   2.308   3.941   3.917  3.2361 -1.3011  0.7501
  113SAPE  C31011840   2.293   3.733   3.890  0.4578  0.7913  0.3422
  113SAPE  H10X11841   2.402   3.716   3.899  0.4452  1.3961  2.1539
  113SAPE  H10Y11842   2.249   3.666   3.814  2.5012 -2.1972  1.6051
  113SAPE  C31111843   2.214   3.719   4.017 -0.3704 -0.0448 -0.4755
  113SAPE  H11X11844   2.104   3.724   4.004 -0.4158  0.4688  0.0372
  113SAPE  H11Y11845   2.245   3.798   4.089 -0.8030  0.5570 -0.9338
  113SAPE  C31211846   2.251   3.598   4.097  0.5963  0.5194  0.3443
  113SAPE  H12X11847   2.350   3.599   4.147  1.2221  1.8948 -0.8436
  113SAPE  H12Y11848   2.254   3.507   4.033  0.6234 -0.7337  2.0681
  113SAPE  C31311849   2.149   3.568   4.212 -0.6887  0.0366 -0.1456
  113SAPE  H13X11850   2.043   3.548   4.183 -1.0370  1.3805  0.1248
  113SAPE  H13Y11851   2.124   3.650   4.284 -0.3485  0.1721 -0.1831
  113SAPE  C31411852   2.193   3.445   4.295  0.7071 -0.2801  0.0091
  113SAPE  H14X11853   2.253   3.377   4.230 -0.0900 -1.6908  0.7083
  113SAPE  H14Y11854   2.108   3.379   4.322  2.4958 -2.5129  0.4901
  113SAPE  C31511855   2.278   3.481   4.414 -0.5084 -0.2487  0.0553
  113SAPE  H15X11856   2.383   3.500   4.384  0.1198  1.4552  2.9108
  113SAPE  H15Y11857   2.284   3.393   4.482  2.0069 -0.6702 -0.6193
  113SAPE  C31611858   2.225   3.596   4.499 -0.4305 -0.4421  0.2507
  113SAPE  H16X11859   2.119   3.580   4.528 -0.9895 -0.0218 -1.4301
  113SAPE  H16Y11860   2.236   3.694   4.448  0.2163 -0.4090  0.4449
  113SAPE  C31711861   2.291   3.607   4.634  0.1374 -0.1009 -0.1840
  113SAPE  H17X11862   2.273   3.706   4.682  1.5873  1.2591 -2.2300
  113SAPE  H17Y11863   2.402   3.608   4.625  0.4866  1.8152  2.9116
  113SAPE  C31811864   2.263   3.484   4.722 -0.2744  0.3612  0.3333
  113SAPE  H18X11865   2.307   3.510   4.821  2.8279 -0.3980 -0.7360
  113SAPE  H18Y11866   2.328   3.399   4.691  1.9440  1.3086  2.0951
  113SAPE  H18Z11867   2.154   3.470   4.712 -0.3100  1.2605 -0.8089
  114SAPE     N11868   6.901   4.201   2.089  0.3036 -0.6646 -0.7236
  114SAPE   HN111869   6.905   4.291   2.037 -2.2740  0.6994  1.2027
  114SAPE   HN211870   6.997   4.180   2.122  0.5694  0.3427 -0.8417
  114SAPE   HN311871   6.898   4.132   2.011  2.4928 -1.6592 -0.0065
  114SAPE   C1211872   6.793   4.170   2.190  0.0114  0.8071 -0.3116
  114SAPE  H12A11873   6.756   4.067   2.171  1.0034  0.1623  1.1214
  114SAPE  H12B11874   6.715   4.248   2.175  0.5816  1.3014 -0.7579
  114SAPE   C1111875   6.851   4.181   2.331  0.5297 -0.3400  0.5688
  114SAPE  H11A11876   6.764   4.155   2.394 -0.7374 -1.0685 -1.3876
  114SAPE  H11B11877   6.890   4.282   2.356 -2.1517  0.2151  2.9685
  114SAPE     P11878   7.055   4.091   2.460 -0.0342  0.2372  0.0792
  114SAPE   O1311879   7.078   3.961   2.527  0.2773  0.1101 -0.0737
  114SAPE   O1411880   7.160   4.168   2.390  0.1149  0.2023  0.3364
  114SAPE   O1211881   6.947   4.073   2.348  0.0412  0.3925  0.1882
  114SAPE   O1111882   6.987   4.202   2.553  0.6153  0.1081 -0.3195
  114SAPE    C111883   7.058   4.311   2.612 -0.1041 -0.4203 -0.2753
  114SAPE    HA11884   7.160   4.282   2.645  0.5244  2.1602  0.2344
  114SAPE    HB11885   7.074   4.389   2.535  1.2851  2.3750  2.6357
  114SAPE    C211886   6.973   4.384   2.714  0.0365  0.8411 -0.5611
  114SAPE    HS11887   7.043   4.459   2.756 -0.2568 -0.2449  2.0667
  114SAPE   O2111888   6.915   4.301   2.817 -0.0226 -0.5582  0.2909
  114SAPE   C2111889   7.013   4.229   2.883  0.4914 -0.4622  0.2491
  114SAPE   O2211890   7.131   4.243   2.882 -0.5816  0.0235  0.6941
  114SAPE   C2211891   6.936   4.135   2.978 -0.0278 -0.5781 -0.1009
  114SAPE   H2R11892   6.843   4.177   3.022  0.4548 -0.0686  0.4259
  114SAPE   H2S11893   6.908   4.044   2.920  1.8932 -1.3233  0.0913
  114SAPE    C311894   6.864   4.471   2.637  0.1937  0.3773  0.6356
  114SAPE    HX11895   6.807   4.400   2.573 -3.2963  1.4653  2.2987
  114SAPE    HY11896   6.922   4.547   2.580 -1.0500  1.4415  0.7331
  114SAPE   O3111897   6.779   4.537   2.733 -0.4339 -0.3909 -0.3342
  114SAPE   C3111898   6.661   4.488   2.753 -0.3461  0.0388  0.4898
  114SAPE   O3211899   6.609   4.395   2.696  0.2401 -0.5037  0.0909
  114SAPE   C3211900   6.600   4.574   2.865 -0.8150  0.1739  0.4302
  114SAPE   H2X11901   6.599   4.676   2.822  0.5953 -0.3887 -1.0150
  114SAPE   H2Y11902   6.654   4.582   2.962 -1.3682  1.5235  0.6578
  114SAPE   C2311903   7.032   4.088   3.097 -0.0042  0.2688  0.2901
  114SAPE   H3R11904   7.022   4.174   3.167  0.4801  0.1493  0.5088
  114SAPE   H3S11905   7.140   4.080   3.073  0.1386  0.2621  0.9105
  114SAPE   C2411906   6.992   3.963   3.174  0.3429 -1.0594 -0.1918
  114SAPE   H4R11907   7.070   3.953   3.253 -0.9134  2.0841  1.6289
  114SAPE   H4S11908   6.991   3.877   3.103  0.5231  1.3029 -3.2441
  114SAPE   C2511909   6.856   3.978   3.234  0.1470 -0.0445  0.1030
  114SAPE   H5R11910   6.775   3.967   3.160  2.4941 -2.1410 -2.3980
  114SAPE   C2611911   6.835   3.986   3.365  0.6927 -0.0208  0.0471
  114SAPE   H6R11912   6.730   3.994   3.398  0.5537  3.0454 -0.8537
  114SAPE   C2711913   6.948   3.999   3.471  0.4487  0.2190 -0.2624
  114SAPE   H7R11914   6.899   4.049   3.558  0.1755 -0.1169 -0.2231
  114SAPE   H7S11915   7.022   4.070   3.429 -0.3113  0.2383 -1.6262
  114SAPE   C2811916   7.011   3.866   3.511 -0.1104  0.6775  0.0473
  114SAPE   H8R11917   7.081   3.831   3.434  1.1868  4.2685 -0.5878
  114SAPE   C2911918   6.984   3.789   3.618  0.3315  0.3850  0.3778
  114SAPE   H9R11919   7.040   3.695   3.630  0.7387  0.4304 -0.9563
  114SAPE  C21011920   6.890   3.807   3.730  0.3987 -0.1019 -0.1479
  114SAPE  H10R11921   6.817   3.727   3.752  0.4628 -0.5200 -1.3579
  114SAPE  H10S11922   6.820   3.892   3.711 -2.7998 -2.7493 -1.0434
  114SAPE  C21111923   6.968   3.843   3.858  0.6909  0.1402  0.1623
  114SAPE  H11R11924   7.050   3.915   3.844 -0.6434  1.7153  0.2429
  114SAPE  C21211925   6.934   3.805   3.986 -0.5487 -0.0572  0.5195
  114SAPE  H12R11926   7.004   3.825   4.069  2.1954 -0.0442 -1.6424
  114SAPE  C21311927   6.821   3.709   4.017  0.2042  0.3740  0.4365
  114SAPE  H13R11928   6.740   3.726   3.943  0.1759  0.4725  0.4904
  114SAPE  H13S11929   6.774   3.730   4.115  0.3761  2.0527  0.1819
  114SAPE  C21411930   6.844   3.561   4.016 -0.6098  0.0109  0.0053
  114SAPE  H14R11931   6.945   3.522   3.996 -0.7063  0.1151 -0.7046
  114SAPE  C21511932   6.745   3.472   4.040 -0.3530 -0.1418 -0.3932
  114SAPE  H15R11933   6.761   3.364   4.037 -2.5696 -0.4889 -2.5257
  114SAPE  C21611934   6.601   3.503   4.088 -0.1552  0.2570  0.4934
  114SAPE  H16R11935   6.532   3.474   4.006 -2.2061 -0.8303  2.5099
  114SAPE  H16S11936   6.588   3.613   4.089 -1.3377  0.2459 -2.7139
  114SAPE  C21711937   6.563   3.422   4.211  0.2643 -0.5235  0.0935
  114SAPE  H17R11938   6.488   3.478   4.270  0.8170 -0.2377  0.5321
  114SAPE  H17S11939   6.644   3.429   4.287 -1.3792 -0.5222  1.9438
  114SAPE  C21811940   6.513   3.279   4.183  0.2067  0.2831  0.7685
  114SAPE  H18R11941   6.574   3.220   4.112 -1.0777 -0.5436  0.3284
  114SAPE  H18S11942   6.412   3.278   4.137  0.0031 -4.6160  0.7633
  114SAPE  C21911943   6.503   3.201   4.316 -0.2624  0.1623 -0.6639
  114SAPE  H19R11944   6.408   3.232   4.364 -0.2579 -1.8872  0.8315
  114SAPE  H19S11945   6.590   3.218   4.384 -1.2365 -2.0016  1.2660
  114SAPE  C22011946   6.500   3.052   4.294  0.1423  0.5229  0.4651
  114SAPE  H20R11947   6.594   3.005   4.258  0.2997 -0.6795  2.2661
  114SAPE  H20S11948   6.414   3.027   4.229  0.3343 -2.4200  1.1983
  114SAPE  H20T11949   6.474   3.011   4.394  0.0844  1.4105  0.8201
  114SAPE   C3311950   6.454   4.525   2.897  0.6679 -0.1599 -0.1871
  114SAPE   H3X11951   6.387   4.513   2.809 -1.2261  1.2938  0.9769
  114SAPE   H3Y11952   6.411   4.608   2.957  1.9238 -1.1613  2.2491
  114SAPE   C3411953   6.433   4.407   2.985  0.7675  0.0052 -0.1294
  114SAPE   H4X11954   6.506   4.335   2.942  1.0770  1.2925 -1.8423
  114SAPE   H4Y11955   6.332   4.365   2.963  1.3044 -1.1628 -0.4546
  114SAPE   C3511956   6.457   4.432   3.136  0.4815  0.1708 -0.7488
  114SAPE   H5X11957   6.366   4.477   3.180  1.6512  2.1800 -0.2484
  114SAPE   H5Y11958   6.543   4.501   3.145 -0.9658  1.8551  0.9997
  114SAPE   C3611959   6.506   4.316   3.232  0.4980  0.1129 -0.6468
  114SAPE   H6X11960   6.597   4.277   3.182  1.2331  2.3993 -1.2154
  114SAPE   H6Y11961   6.430   4.234   3.224  0.7420 -0.0514 -1.3994
  114SAPE   C3711962   6.529   4.347   3.375  0.3084  0.0875 -0.4046
  114SAPE   H7X11963   6.445   4.408   3.415  1.6832  1.6966  0.1417
  114SAPE   H7Y11964   6.618   4.413   3.388 -1.9190  3.1294  0.5702
  114SAPE   C3811965   6.533   4.209   3.456 -0.0864 -0.4711  0.9468
  114SAPE   H8X11966   6.629   4.163   3.425  1.2197  3.0918 -0.9586
  114SAPE   H8Y11967   6.459   4.134   3.422  0.2708 -0.4469  0.1078
  114SAPE   C3911968   6.525   4.243   3.609  0.2535  0.0390 -0.4923
  114SAPE   H9X11969   6.423   4.280   3.631  0.5330  1.1063 -0.9285
  114SAPE   H9Y11970   6.605   4.318   3.626 -0.3051  0.8531 -1.3586
  114SAPE  C31011971   6.549   4.112   3.679  0.4676 -0.0856 -0.1979
  114SAPE  H10X11972   6.643   4.071   3.637  0.5631 -0.2288  0.1528
  114SAPE  H10Y11973   6.466   4.047   3.643  1.7207 -1.3779 -0.8749
  114SAPE  C31111974   6.545   4.127   3.824 -0.4151 -0.0405  0.8124
  114SAPE  H11X11975   6.458   4.184   3.863 -0.6530 -0.6799  1.2325
  114SAPE  H11Y11976   6.635   4.179   3.863  0.6151 -1.1167 -0.0627
  114SAPE  C31211977   6.532   3.993   3.891  0.8683 -0.1982  0.4390
  114SAPE  H12X11978   6.618   3.930   3.861  0.7697  0.5195 -1.5115
  114SAPE  H12Y11979   6.449   3.930   3.854 -0.0783 -0.3244  2.6786
  114SAPE  C31311980   6.525   3.994   4.042 -0.1613  0.1341  0.0241
  114SAPE  H13X11981   6.604   4.061   4.082 -0.7472 -0.2320  1.8538
  114SAPE  H13Y11982   6.537   3.889   4.077  0.6253 -0.2408 -1.2816
  114SAPE  C31411983   6.389   4.041   4.097  0.1523 -0.4552  0.3601
  114SAPE  H14X11984   6.305   3.986   4.049 -0.8421  1.2505  0.0797
  114SAPE  H14Y11985   6.386   4.150   4.075 -0.3261 -0.4254  0.5572
  114SAPE  C31511986   6.377   4.005   4.245 -1.0992 -0.4749  0.6018
  114SAPE  H15X11987   6.455   4.059   4.302 -1.0746  0.0972  0.0283
  114SAPE  H15Y11988   6.390   3.896   4.265 -1.6606 -0.6647 -0.0195
  114SAPE  C31611989   6.249   4.064   4.303  0.2104 -0.0016 -0.5766
  114SAPE  H16X11990   6.161   4.033   4.241 -0.1098  2.1155 -1.2668
  114SAPE  H16Y11991   6.254   4.174   4.291  2.1421  0.1468  1.0935
  114SAPE  C31711992   6.222   4.019   4.455  0.0291  0.0232 -0.2084
  114SAPE  H17X11993   6.118   4.038   4.487  0.3869 -1.6251  2.1467
  114SAPE  H17Y11994   6.297   4.066   4.522  0.2850 -0.6672 -0.0042
  114SAPE  C31811995   6.227   3.871   4.482 -0.0500 -0.6097  0.0256
  114SAPE  H18X11996   6.191   3.856   4.586  0.6436 -1.4905  0.1573
  114SAPE  H18Y11997   6.333   3.837   4.483  0.4068  0.6371  2.6400
  114SAPE  H18Z11998   6.169   3.809   4.411 -1.2978  2.8954 -2.2846
  115SAPE     N11999   6.411   5.004   2.482  0.9656  0.1735  0.2865
  115SAPE   HN112000   6.491   4.950   2.441  1.8177 -0.0650  2.1544
  115SAPE   HN212001   6.385   5.082   2.418  1.8399 -1.1299 -1.7931
  115SAPE   HN312002   6.447   5.051   2.567  0.7857 -0.7991  0.9083
  115SAPE   C1212003   6.284   4.924   2.493  0.3486  0.3807 -0.0411
  115SAPE  H12A12004   6.207   4.993   2.534  1.0336  0.7168  0.7025
  115SAPE  H12B12005   6.297   4.839   2.563 -0.5499  0.9511  0.8416
  115SAPE   C1112006   6.249   4.868   2.353 -0.1536 -0.5996 -0.0858
  115SAPE  H11A12007   6.197   4.949   2.297  1.7624  0.3847 -0.5354
  115SAPE  H11B12008   6.176   4.786   2.369 -0.7388  0.2357  1.8713
  115SAPE     P12009   6.404   4.676   2.273  0.0578 -0.1738  0.1274
  115SAPE   O1312010   6.318   4.611   2.165  0.2181 -0.4050 -0.5172
  115SAPE   O1412011   6.549   4.679   2.252 -0.2217  0.6495  0.2120
  115SAPE   O1212012   6.359   4.823   2.269  0.1406  0.1000 -0.3770
  115SAPE   O1112013   6.375   4.629   2.415  0.2468 -0.1086 -0.3620
  115SAPE    C112014   6.298   4.511   2.442  0.5180  0.7075 -0.0696
  115SAPE    HA12015   6.303   4.431   2.366 -0.7196  0.9267 -0.3852
  115SAPE    HB12016   6.341   4.464   2.534  2.5059 -0.3296 -1.4423
  115SAPE    C212017   6.145   4.524   2.470 -0.0105  0.3258 -0.0938
  115SAPE    HS12018   6.103   4.561   2.374  0.0622  0.0468 -0.2325
  115SAPE   O2112019   6.122   4.616   2.579 -0.7139  0.0261  0.0891
  115SAPE   C2112020   6.003   4.614   2.629  0.4786 -0.9849 -0.9102
  115SAPE   O2212021   5.899   4.576   2.584 -0.1908 -0.4082  0.4145
  115SAPE   C2212022   6.015   4.673   2.775  0.2573  0.5448 -0.1424
  115SAPE   H2R12023   5.948   4.602   2.829  0.3837  0.3701 -0.2114
  115SAPE   H2S12024   6.116   4.665   2.819 -0.4569  0.9462  1.6367
  115SAPE    C312025   6.097   4.378   2.486  0.7513 -0.1308 -0.9510
  115SAPE    HX12026   6.134   4.315   2.403  2.9028  1.4333 -1.2842
  115SAPE    HY12027   5.986   4.379   2.479  0.5156  2.6038  1.4338
  115SAPE   O3112028   6.143   4.329   2.608 -0.2959  0.0920  0.2668
  115SAPE   C3112029   6.138   4.193   2.627 -0.2020  1.0117 -0.1731
  115SAPE   O3212030   6.097   4.120   2.541 -0.4593  0.0712 -0.2818
  115SAPE   C3212031   6.180   4.147   2.768  0.3159  0.4979 -0.0133
  115SAPE   H2X12032   6.285   4.175   2.791 -0.1705  2.1747  0.2540
  115SAPE   H2Y12033   6.180   4.036   2.758  2.2572  0.3560  1.0993
  115SAPE   C2312034   5.962   4.816   2.784  0.5766 -0.3018 -0.0274
  115SAPE   H3R12035   5.852   4.804   2.770  0.3451  1.7416 -0.2569
  115SAPE   H3S12036   5.996   4.876   2.697 -0.1509 -1.0092 -0.8295
  115SAPE   C2412037   5.988   4.881   2.922  0.3969  0.4718  0.1829
  115SAPE   H4R12038   5.968   4.990   2.910 -0.1241  0.2410 -1.2525
  115SAPE   H4S12039   6.097   4.873   2.942  0.6899  1.5988 -0.8570
  115SAPE   C2512040   5.900   4.828   3.032  0.0542  0.4880  0.0052
  115SAPE   H5R12041   5.793   4.829   3.008 -0.4523 -1.0805  1.9558
  115SAPE   C2612042   5.944   4.771   3.147  0.6954 -0.6271 -0.7820
  115SAPE   H6R12043   5.862   4.737   3.211 -2.1289  2.6943 -2.3434
  115SAPE   C2712044   6.084   4.768   3.203 -0.2924  0.0774  0.4685
  115SAPE   H7R12045   6.096   4.844   3.283  0.1077  0.0400  0.4485
  115SAPE   H7S12046   6.162   4.790   3.126  0.2885  0.0497  1.0388
  115SAPE   C2812047   6.117   4.632   3.262 -0.3382  0.0371 -0.4804
  115SAPE   H8R12048   6.161   4.556   3.195  3.1243 -0.7064  2.3120
  115SAPE   C2912049   6.122   4.597   3.394  0.4050 -0.6393 -0.2123
  115SAPE   H9R12050   6.132   4.489   3.406  1.2802 -0.5937 -0.4350
  115SAPE  C21012051   6.077   4.685   3.513 -0.8455 -0.1474  0.7198
  115SAPE  H10R12052   6.014   4.766   3.470  0.4878  1.9653  2.5131
  115SAPE  H10S12053   6.161   4.740   3.561  0.5805  0.1487 -1.9255
  115SAPE  C21112054   6.008   4.605   3.617  0.0669 -0.2339  0.5105
  115SAPE  H11R12055   5.961   4.513   3.577 -0.2477 -0.5811  1.6410
  115SAPE  C21212056   5.991   4.622   3.753 -0.3005 -0.1061 -0.1600
  115SAPE  H12R12057   5.942   4.539   3.806 -1.6442  0.0946 -1.0503
  115SAPE  C21312058   6.039   4.739   3.838 -0.3845 -0.5294  0.2245
  115SAPE  H13R12059   5.958   4.758   3.912 -1.1604  0.5500 -0.8677
  115SAPE  H13S12060   6.042   4.833   3.779  1.5506  0.2341  1.4307
  115SAPE  C21412061   6.173   4.701   3.899 -0.2551  0.0121 -0.0384
  115SAPE  H14R12062   6.213   4.616   3.842  1.2953  1.4845 -1.2740
  115SAPE  C21512063   6.220   4.746   4.014  0.1261 -0.3664  0.8067
  115SAPE  H15R12064   6.320   4.715   4.047  0.6771  0.6445  0.1343
  115SAPE  C21612065   6.160   4.860   4.087 -0.2898  0.9646 -0.2241
  115SAPE  H16R12066   6.069   4.894   4.033 -0.6538  1.9108  0.9275
  115SAPE  H16S12067   6.242   4.934   4.087  0.6098 -0.0120 -0.7818
  115SAPE  C21712068   6.116   4.818   4.229 -0.0346  0.6474 -0.0310
  115SAPE  H17R12069   6.202   4.767   4.277 -0.4352  0.1613  0.1852
  115SAPE  H17S12070   6.023   4.757   4.236 -0.9178  2.0861  1.4591
  115SAPE  C21812071   6.099   4.941   4.324  0.4314  0.0036  0.3018
  115SAPE  H18R12072   6.014   5.001   4.286  2.3929  1.1262 -2.6395
  115SAPE  H18S12073   6.191   5.003   4.322  1.4968 -1.5273 -0.7725
  115SAPE  C21912074   6.064   4.887   4.461  0.1893 -0.7106 -0.9512
  115SAPE  H19R12075   6.157   4.836   4.492  0.4827 -0.3242 -1.1864
  115SAPE  H19S12076   5.979   4.815   4.459  0.3047 -1.0285  1.9400
  115SAPE  C22012077   6.014   4.998   4.551  0.2261  0.2647 -0.2491
  115SAPE  H20R12078   6.002   4.960   4.655 -2.0953 -0.0470 -0.5821
  115SAPE  H20S12079   5.915   5.041   4.525 -1.0069 -1.6266  1.0129
  115SAPE  H20T12080   6.082   5.086   4.551 -0.5357  0.9007 -2.1967
  115SAPE   C3312081   6.083   4.182   2.886 -0.0512  0.4589  0.5468
  115SAPE   H3X12082   5.984   4.135   2.868 -1.4667  3.8665 -1.4100
  115SAPE   H3Y12083   6.072   4.292   2.887  0.6720  0.5662 -0.9443
  115SAPE   C3412084   6.131   4.138   3.026 -0.2126 -0.3149 -0.1628
  115SAPE   H4X12085   6.240   4.153   3.039 -0.3643 -0.8655  2.2613
  115SAPE   H4Y12086   6.123   4.028   3.035 -3.7656 -0.1877 -0.2018
  115SAPE   C3512087   6.057   4.213   3.153  0.3361  0.9096  0.0489
  115SAPE   H5X12088   5.949   4.190   3.148 -0.0733  2.7893 -0.5703
  115SAPE   H5Y12089   6.076   4.321   3.131  3.2279  0.0086 -2.6398
  115SAPE   C3612090   6.128   4.177   3.277  0.1127  0.6318  0.4290
  115SAPE   H6X12091   6.229   4.222   3.273 -0.3686  1.6537 -2.0268
  115SAPE   H6Y12092   6.152   4.068   3.275 -2.4945 -0.0088  0.4225
  115SAPE   C3712093   6.050   4.202   3.410 -0.1637 -1.1837  0.3296
  115SAPE   H7X12094   5.965   4.131   3.418 -1.5103  0.2676 -0.5526
  115SAPE   H7Y12095   6.005   4.304   3.402  0.8048 -0.6240  1.5980
  115SAPE   C3812096   6.143   4.198   3.528  0.1127 -0.2456  0.5052
  115SAPE   H8X12097   6.228   4.268   3.512 -0.4225  0.1160 -0.9537
  115SAPE   H8Y12098   6.193   4.099   3.531  1.9193  0.6388  0.7384
  115SAPE   C3912099   6.070   4.220   3.662 -0.3232  0.0669 -0.3236
  115SAPE   H9X12100   6.000   4.134   3.668  1.0045 -1.0236  0.2326
  115SAPE   H9Y12101   6.019   4.318   3.664 -0.9616 -0.2420  2.3065
  115SAPE  C31012102   6.170   4.202   3.772 -0.5877 -0.1757 -0.2364
  115SAPE  H10X12103   6.268   4.246   3.745  0.0663 -0.5731  1.3845
  115SAPE  H10Y12104   6.177   4.095   3.802  1.6076 -0.3759 -1.2946
  115SAPE  C31112105   6.139   4.293   3.892 -0.6252  0.3557  0.4864
  115SAPE  H11X12106   6.096   4.389   3.857 -0.8008 -0.5673 -2.0727
  115SAPE  H11Y12107   6.233   4.312   3.949 -0.7571  1.0345  0.4923
  115SAPE  C31212108   6.058   4.221   4.002 -0.3371 -1.0329  0.5491
  115SAPE  H12X12109   6.123   4.138   4.037 -0.4794 -0.7577  1.5034
  115SAPE  H12Y12110   5.961   4.184   3.964 -0.0030  0.1069 -1.5672
  115SAPE  C31312111   6.025   4.314   4.124 -0.1808 -0.2428  0.1363
  115SAPE  H13X12112   6.113   4.368   4.166  2.2058 -1.5610 -2.7358
  115SAPE  H13Y12113   5.980   4.247   4.201 -0.6713  1.1862  1.1334
  115SAPE  C31412114   5.914   4.420   4.100  0.0646  0.0667  0.3393
  115SAPE  H14X12115   5.835   4.383   4.031  3.0003 -2.3589 -2.0043
  115SAPE  H14Y12116   5.953   4.512   4.052 -0.6961  0.1940 -0.0528
  115SAPE  C31512117   5.856   4.465   4.235  0.1532 -0.4242 -0.4987
  115SAPE  H15X12118   5.934   4.514   4.297 -0.7886  0.7733 -0.2143
  115SAPE  H15Y12119   5.806   4.383   4.290 -0.0357  0.5802  0.8902
  115SAPE  C31612120   5.746   4.565   4.205  0.3987 -0.3894  0.0312
  115SAPE  H16X12121   5.688   4.512   4.127  0.7760  3.5503 -3.2782
  115SAPE  H16Y12122   5.790   4.654   4.156 -1.4145  0.2248 -0.5756
  115SAPE  C31712123   5.649   4.591   4.322  0.6350  0.6288  0.0442
  115SAPE  H17X12124   5.707   4.624   4.411 -0.6781  3.4042 -0.0163
  115SAPE  H17Y12125   5.611   4.493   4.356 -0.5904  0.6441 -1.1887
  115SAPE  C31812126   5.542   4.685   4.275 -0.3253 -0.6350 -0.9479
  115SAPE  H18X12127   5.469   4.710   4.355  0.8412 -0.2745  0.0437
  115SAPE  H18Y12128   5.483   4.656   4.186  1.2122  0.5294 -2.4077
  115SAPE  H18Z12129   5.591   4.784   4.261  0.0429 -0.6616  0.0401
  116SAPE     N12130   2.569   0.625   2.112  0.8928  0.5234 -0.5406
  116SAPE   HN112131   2.500   0.703   2.124  0.9454  0.5527 -0.4243
  116SAPE   HN212132   2.597   0.616   2.013  3.4708 -0.5347  0.2152
  116SAPE   HN312133   2.532   0.537   2.153 -0.5125  0.9958 -0.7219
  116SAPE   C1212134   2.682   0.658   2.188  0.1370 -0.9637  0.2383
  116SAPE  H12A12135   2.644   0.683   2.289 -0.5455  1.7185 -0.5917
  116SAPE  H12B12136   2.728   0.753   2.151 -1.9009 -0.1679 -0.3847
  116SAPE   C1112137   2.790   0.547   2.216  0.2520  0.0199  0.1886
  116SAPE  H11A12138   2.738   0.465   2.270  0.2424 -0.2579 -0.2432
  116SAPE  H11B12139   2.865   0.589   2.288 -0.3641  1.1940  0.1701
  116SAPE     P12140   2.989   0.525   2.048 -0.2686  0.0045 -0.1673
  116SAPE   O1312141   3.020   0.479   1.912  0.1412 -0.1351 -0.2646
  116SAPE   O1412142   3.031   0.662   2.072 -0.6870 -0.1269 -0.5188
  116SAPE   O1212143   2.834   0.504   2.084 -1.0622  0.6741  0.5937
  116SAPE   O1112144   3.070   0.445   2.157  0.2153  0.2460  0.0297
  116SAPE    C112145   3.107   0.308   2.138  1.3787 -0.3770 -0.5256
  116SAPE    HA12146   3.039   0.257   2.066  0.7015 -0.4278  0.1379
  116SAPE    HB12147   3.214   0.300   2.105  1.3399 -1.0549 -0.5141
  116SAPE    C212148   3.097   0.219   2.275  0.1180 -0.2260  1.2482
  116SAPE    HS12149   3.111   0.112   2.250 -0.1503 -0.3448  1.5906
  116SAPE   O2112150   2.971   0.235   2.342  0.2659 -0.4059 -0.3243
  116SAPE   C2112151   2.864   0.190   2.280 -0.6186 -0.4337  0.5077
  116SAPE   O2212152   2.864   0.133   2.171 -0.1500 -0.2446 -0.1314
  116SAPE   C2212153   2.747   0.216   2.376  0.7407  0.0750  0.6064
  116SAPE   H2R12154   2.780   0.285   2.456 -1.2801  0.3178  1.2900
  116SAPE   H2S12155   2.674   0.268   2.310  0.0039 -3.2222 -1.4377
  116SAPE    C312156   3.204   0.267   2.375 -0.2912  0.2622  0.5516
  116SAPE    HX12157   3.173   0.364   2.419  1.0420  0.4226  1.1547
  116SAPE    HY12158   3.297   0.282   2.316  0.8784 -2.6532  1.4959
  116SAPE   O3112159   3.220   0.175   2.484  0.2492  0.0697 -0.2363
  116SAPE   C3112160   3.327   0.098   2.487  0.1809 -0.3719  0.6965
  116SAPE   O3212161   3.400   0.084   2.391 -0.0081  0.2421 -0.0356
  116SAPE   C3212162   3.339   0.034   2.619  0.4631 -0.5816 -1.4020
  116SAPE   H2X12163   3.300  -0.068   2.598  2.7289 -1.1281 -3.4817
  116SAPE   H2Y12164   3.277   0.093   2.689 -1.0788 -1.1948 -2.2097
  116SAPE   C2312165   2.693   0.085   2.422 -0.3557  0.5361  0.1192
  116SAPE   H3R12166   2.671   0.019   2.336  0.6474  0.5051 -0.1357
  116SAPE   H3S12167   2.602   0.101   2.483  0.7940 -0.9466  2.3802
  116SAPE   C2412168   2.784   0.009   2.526  0.0085 -0.5467  0.4718
  116SAPE   H4R12169   2.880  -0.020   2.479  0.1324 -0.9909  1.0047
  116SAPE   H4S12170   2.725  -0.083   2.547  0.0930 -0.5295  0.7850
  116SAPE   C2512171   2.815   0.098   2.645 -0.1370  0.5536  0.7876
  116SAPE   H5R12172   2.835   0.201   2.613  0.7297  0.2364  0.2629
  116SAPE   C2612173   2.819   0.064   2.778 -0.0161  0.7021  0.5285
  116SAPE   H6R12174   2.849   0.133   2.858 -0.5903  0.7842  0.6779
  116SAPE   C2712175   2.781  -0.067   2.835  0.3885  0.2777 -0.2402
  116SAPE   H7R12176   2.695  -0.107   2.779 -1.2715  3.6135 -0.3190
  116SAPE   H7S12177   2.727  -0.056   2.932  1.4535 -1.2107  0.5708
  116SAPE   C2812178   2.902  -0.155   2.858 -0.0053  0.0374  0.6216
  116SAPE   H8R12179   2.919  -0.227   2.777  0.6907  0.7718  0.1103
  116SAPE   C2912180   2.990  -0.147   2.955 -0.3624  0.8463 -0.8379
  116SAPE   H9R12181   3.074  -0.217   2.940  1.6350  3.3508 -2.0383
  116SAPE  C21012182   2.996  -0.058   3.078 -0.1583 -0.3543  0.0157
  116SAPE  H10R12183   2.976   0.045   3.043  2.1662  0.6122  1.3180
  116SAPE  H10S12184   3.102  -0.048   3.109 -0.5168  2.9808  0.4943
  116SAPE  C21112185   2.899  -0.081   3.191  0.2552  0.0364  0.8146
  116SAPE  H11R12186   2.801  -0.117   3.155  0.5886 -1.4296  1.3002
  116SAPE  C21212187   2.924  -0.066   3.325 -0.0033 -0.9851  0.9806
  116SAPE  H12R12188   2.845  -0.089   3.398  0.7701 -3.1727  1.1818
  116SAPE  C21312189   3.054  -0.020   3.380 -0.7651 -0.1740 -0.1833
  116SAPE  H13R12190   3.082   0.079   3.338 -0.8968 -0.0817 -0.0566
  116SAPE  H13S12191   3.132  -0.085   3.336 -1.2304 -1.0313  0.2451
  116SAPE  C21412192   3.060  -0.008   3.532 -0.2704 -0.1996  0.3052
  116SAPE  H14R12193   2.999   0.073   3.576 -0.0982 -0.7595  1.6391
  116SAPE  C21512194   3.138  -0.073   3.624 -0.1648  0.3166  0.8315
  116SAPE  H15R12195   3.132  -0.041   3.729  1.5095  2.5009  0.3256
  116SAPE  C21612196   3.232  -0.189   3.581  0.1286 -0.1800 -0.3554
  116SAPE  H16R12197   3.267  -0.192   3.476  2.8178 -0.2856  0.4803
  116SAPE  H16S12198   3.176  -0.278   3.619  0.0073  0.6675  1.5537
  116SAPE  C21712199   3.362  -0.186   3.668  0.3486  1.0015 -0.1484
  116SAPE  H17R12200   3.407  -0.287   3.677  0.8736  1.2907  0.5744
  116SAPE  H17S12201   3.335  -0.158   3.772  0.6168  2.5082 -0.4547
  116SAPE  C21812202   3.452  -0.080   3.608  0.4879  0.3200 -0.0277
  116SAPE  H18R12203   3.473  -0.002   3.684 -1.0637  0.4334  0.3040
  116SAPE  H18S12204   3.404  -0.028   3.523  2.5342  2.6861  0.1369
  116SAPE  C21912205   3.588  -0.125   3.545 -0.0922 -0.2067 -0.7468
  116SAPE  H19R12206   3.575  -0.221   3.492  2.3077 -0.3762 -1.1173
  116SAPE  H19S12207   3.664  -0.138   3.625  2.1860 -1.2076 -2.9404
  116SAPE  C22012208   3.638  -0.031   3.434 -0.3217 -0.5002  0.3688
  116SAPE  H20R12209   3.700   0.055   3.468  2.1467 -2.3730  0.9616
  116SAPE  H20S12210   3.552   0.005   3.374  0.8441 -0.5496 -1.4096
  116SAPE  H20T12211   3.701  -0.088   3.362 -1.0126 -0.2775 -0.4197
  116SAPE   C3312212   3.484   0.016   2.670  0.4397  0.4376  0.3127
  116SAPE   H3X12213   3.503   0.104   2.735 -0.7733  2.4037 -1.8090
  116SAPE   H3Y12214   3.563   0.006   2.593 -0.2926  0.9860 -0.5348
  116SAPE   C3412215   3.505  -0.109   2.760  0.1825  0.3060 -0.1579
  116SAPE   H4X12216   3.614  -0.111   2.786 -0.0323  0.0277  0.7468
  116SAPE   H4Y12217   3.487  -0.198   2.697  0.8208  0.0076  0.0723
  116SAPE   C3512218   3.423  -0.116   2.886  0.4451 -0.5530  0.6708
  116SAPE   H5X12219   3.320  -0.090   2.853  0.9610  1.1051  0.2360
  116SAPE   H5Y12220   3.465  -0.043   2.958  2.7968  0.9316 -1.9727
  116SAPE   C3612221   3.422  -0.251   2.954 -0.3585  0.3806 -0.0186
  116SAPE   H6X12222   3.518  -0.300   2.925 -0.4244 -0.3076  0.8437
  116SAPE   H6Y12223   3.354  -0.320   2.900  0.5409  0.5628 -1.4319
  116SAPE   C3712224   3.417  -0.245   3.109  0.0344 -0.6194 -0.5158
  116SAPE   H7X12225   3.349  -0.161   3.131 -0.0057 -1.0027  0.9183
  116SAPE   H7Y12226   3.513  -0.222   3.161 -0.9921 -0.7113  1.5247
  116SAPE   C3812227   3.366  -0.370   3.188  0.6271  0.5642  0.2838
  116SAPE   H8X12228   3.357  -0.341   3.295  2.5039  0.5639  0.4748
  116SAPE   H8Y12229   3.438  -0.454   3.175  1.3448  1.0780  0.8469
  116SAPE   C3912230   3.222  -0.419   3.133 -0.0084  0.3764  0.2614
  116SAPE   H9X12231   3.236  -0.451   3.027  1.9822  0.3321  0.5040
  116SAPE   H9Y12232   3.156  -0.329   3.129  0.6823  0.8982  0.4781
  116SAPE  C31012233   3.170  -0.538   3.217 -0.0430 -0.4568 -0.1920
  116SAPE  H10X12234   3.254  -0.609   3.230  2.0346  2.2933  3.7500
  116SAPE  H10Y12235   3.088  -0.589   3.163 -1.3020  0.6145  0.6202
  116SAPE  C31112236   3.120  -0.494   3.351 -0.1907  0.5623 -0.0974
  116SAPE  H11X12237   3.030  -0.432   3.333 -0.0245  0.9555  0.4059
  116SAPE  H11Y12238   3.191  -0.429   3.407 -0.2765  1.3580 -0.8877
  116SAPE  C31212239   3.085  -0.596   3.456 -0.1001  0.1922 -0.7318
  116SAPE  H12X12240   3.013  -0.672   3.416  0.3428 -0.1555 -0.8746
  116SAPE  H12Y12241   3.030  -0.543   3.537  1.9635  1.7955 -0.2805
  116SAPE  C31312242   3.205  -0.650   3.529  0.2604  0.4020  0.4261
  116SAPE  H13X12243   3.245  -0.563   3.587 -0.8415  0.6823  0.7880
  116SAPE  H13Y12244   3.286  -0.688   3.463 -0.6401  2.3814 -1.9688
  116SAPE  C31412245   3.160  -0.758   3.627  0.4963 -0.5517  0.1089
  116SAPE  H14X12246   3.116  -0.843   3.571 -0.9448  0.3633 -0.2279
  116SAPE  H14Y12247   3.083  -0.704   3.687  2.4157  1.3794  0.9742
  116SAPE  C31512248   3.273  -0.789   3.717  0.0229 -0.3394  0.1002
  116SAPE  H15X12249   3.278  -0.709   3.794  0.0754  0.8104 -1.0681
  116SAPE  H15Y12250   3.364  -0.795   3.654  0.5781  3.1717  0.3867
  116SAPE  C31612251   3.256  -0.928   3.788  0.6588  0.1564 -0.6538
  116SAPE  H16X12252   3.317  -0.938   3.880  0.1975  1.2079 -0.2227
  116SAPE  H16Y12253   3.275  -1.010   3.715 -0.4722 -2.4262  1.7801
  116SAPE  C31712254   3.112  -0.954   3.837 -0.1384 -0.8013  0.2330
  116SAPE  H17X12255   3.040  -0.946   3.753  2.6811 -1.1947 -2.3709
  116SAPE  H17Y12256   3.097  -0.875   3.914  0.3027  0.7719 -1.2420
  116SAPE  C31812257   3.093  -1.091   3.905 -0.0171  0.3786 -0.5288
  116SAPE  H18X12258   3.082  -1.179   3.839 -0.8756  0.8510 -1.0430
  116SAPE  H18Y12259   2.995  -1.080   3.956  0.4630  0.8647  0.3125
  116SAPE  H18Z12260   3.159  -1.100   3.993 -0.8684  0.8554  0.1744
  117SOPE     N12261   3.773   6.887   5.930 -0.0813  0.9639  0.1213
  117SOPE   HN112262   3.764   6.866   5.829  0.1135  2.1366 -0.1515
  117SOPE   HN212263   3.873   6.890   5.959 -0.5765  1.5903  1.9659
  117SOPE   HN312264   3.738   6.798   5.971 -0.6810  0.5338 -1.2814
  117SOPE   C1212265   3.680   7.005   5.951  1.0129 -0.5736  0.7488
  117SOPE  H12A12266   3.681   7.068   5.860  0.5981 -0.0077  1.1325
  117SOPE  H12B12267   3.723   7.067   6.032 -0.2066  0.4333  0.6530
  117SOPE   C1112268   3.539   6.958   5.983 -0.5526  0.1107 -0.2049
  117SOPE  H11A12269   3.498   6.904   5.895  0.1759 -2.3928  0.8815
  117SOPE  H11B12270   3.474   7.047   5.991  0.0184  0.7655 -2.3106
  117SOPE     P12271   3.529   6.732   6.116  0.4505 -0.2144  0.0085
  117SOPE   O1312272   3.517   6.688   6.258  0.0351  0.1897 -0.3431
  117SOPE   O1412273   3.632   6.672   6.035  0.0522 -1.1334  0.3395
  117SOPE   O1212274   3.538   6.888   6.113  0.1302  0.4072  0.3067
  117SOPE   O1112275   3.399   6.698   6.045  1.0809  0.1491  0.4201
  117SOPE    C112276   3.274   6.772   6.065 -0.3297  0.4016  0.7948
  117SOPE    HA12277   3.288   6.876   6.100 -0.7763  0.2289  1.5198
  117SOPE    HB12278   3.213   6.715   6.138 -1.3737 -0.4236 -0.6789
  117SOPE    C212279   3.192   6.761   5.936  0.2905  0.0748 -0.0740
  117SOPE    HS12280   3.203   6.653   5.912  2.4929 -0.0526  1.2076
  117SOPE   O2112281   3.255   6.844   5.832  0.0174  0.3998 -0.2700
  117SOPE   C2112282   3.269   6.786   5.705 -0.0071  0.2025 -0.2007
  117SOPE   O2212283   3.233   6.677   5.673 -0.2098  0.0341 -0.2366
  117SOPE   C2212284   3.344   6.894   5.618  0.2702 -0.3022 -0.2921
  117SOPE   H2R12285   3.453   6.888   5.636  0.4058  3.0131  0.5724
  117SOPE   H2S12286   3.299   6.992   5.645 -0.9899 -0.5241 -1.4620
  117SOPE    C312287   3.041   6.808   5.958 -0.3666  0.1877 -0.6197
  117SOPE    HX12288   3.047   6.915   5.988 -0.8452 -0.1654  0.8312
  117SOPE    HY12289   2.986   6.754   6.038 -0.8773  2.4608  0.6653
  117SOPE   O3112290   2.967   6.789   5.831  0.9277 -0.2283 -0.3818
  117SOPE   C3112291   2.955   6.896   5.751  0.7070 -0.4426  0.3072
  117SOPE   O3212292   3.016   7.001   5.760 -0.0992  0.3494  0.3580
  117SOPE   C3212293   2.850   6.863   5.646  0.0951 -0.2722 -0.4226
  117SOPE   H2X12294   2.765   6.805   5.687 -0.3673  1.9576  1.9574
  117SOPE   H2Y12295   2.894   6.800   5.565  0.1218  0.3210 -0.8734
  117SOPE   C2312296   3.314   6.868   5.470 -0.1928  0.7347 -0.4555
  117SOPE   H3R12297   3.205   6.870   5.449 -0.3222 -0.5667 -0.0418
  117SOPE   H3S12298   3.350   6.768   5.435 -0.4654  0.3573  0.3149
  117SOPE   C2412299   3.386   6.973   5.383 -0.0128  0.3075  0.4143
  117SOPE   H4R12300   3.340   7.073   5.394  2.1259  1.4286 -0.2886
  117SOPE   H4S12301   3.488   6.988   5.424 -0.1753 -0.4433  1.1177
  117SOPE   C2512302   3.370   6.936   5.232  0.2057  0.2811  0.3364
  117SOPE   H5R12303   3.421   6.841   5.204 -1.5237  0.2082 -3.0892
  117SOPE   H5S12304   3.263   6.914   5.214 -0.0311  2.4436 -1.2755
  117SOPE   C2612305   3.405   7.056   5.139  0.4105 -0.1069 -0.4376
  117SOPE   H6R12306   3.392   7.144   5.206  2.2990  0.5696 -0.9010
  117SOPE   H6S12307   3.512   7.046   5.110  1.0653  1.6631  1.1087
  117SOPE   C2712308   3.315   7.062   5.019  0.1232 -0.4943  0.3453
  117SOPE   H7R12309   3.355   6.988   4.947  1.0911  1.3887 -1.1479
  117SOPE   H7S12310   3.211   7.041   5.050 -0.0386  1.3951  1.2768
  117SOPE   C2812311   3.313   7.203   4.947 -0.1899 -0.5604  0.9927
  117SOPE   H8R12312   3.232   7.189   4.872 -1.4551 -2.3264  2.5993
  117SOPE   H8S12313   3.286   7.284   5.018  0.8467 -1.0211  1.9389
  117SOPE   C2912314   3.449   7.222   4.888 -0.1434 -0.1101  0.4037
  117SOPE   H9112315   3.530   7.199   4.959 -0.9516 -0.9485  1.0907
  117SOPE  C21012316   3.479   7.251   4.751  0.3472 -0.2506 -0.6956
  117SOPE  H10112317   3.581   7.273   4.717  0.7402 -0.5622  0.2384
  117SOPE  C21112318   3.384   7.275   4.643  0.0294 -0.4728 -0.1837
  117SOPE  H11R12319   3.387   7.377   4.599  0.5574  0.2177  1.3722
  117SOPE  H11S12320   3.283   7.270   4.690  0.3330 -0.4960  0.4729
  117SOPE  C21212321   3.399   7.192   4.518  0.1705 -0.3607  0.7757
  117SOPE  H12R12322   3.502   7.212   4.481 -1.0580  1.2005 -2.1610
  117SOPE  H12S12323   3.326   7.226   4.442 -0.7661  0.0648  1.8433
  117SOPE  C21312324   3.370   7.039   4.528 -0.3744 -0.4295 -0.0568
  117SOPE  H13R12325   3.274   7.026   4.583  0.4005  1.1780  1.7907
  117SOPE  H13S12326   3.443   6.992   4.598  0.1234 -1.1668 -1.0394
  117SOPE  C21412327   3.392   6.974   4.387  0.1760  0.1069 -0.4187
  117SOPE  H14R12328   3.475   7.026   4.335  0.5675 -2.4249 -2.5712
  117SOPE  H14S12329   3.298   6.986   4.330 -0.0347  0.5778  0.0208
  117SOPE  C21512330   3.411   6.817   4.377 -0.0252 -0.1473 -0.1906
  117SOPE  H15R12331   3.425   6.799   4.268  0.0465  0.0483 -0.2140
  117SOPE  H15S12332   3.314   6.768   4.404  0.6100 -1.7030 -0.6216
  117SOPE  C21612333   3.534   6.751   4.448 -0.4763 -0.3683  0.0307
  117SOPE  H16R12334   3.529   6.642   4.426  0.3415 -0.8491  2.0729
  117SOPE  H16S12335   3.524   6.751   4.558  2.1350  0.2588  0.3275
  117SOPE  C21712336   3.660   6.822   4.413  0.0699  0.0753  0.0380
  117SOPE  H17R12337   3.665   6.926   4.451  1.0012  0.1029 -0.1289
  117SOPE  H17S12338   3.672   6.821   4.303 -0.8444 -2.5557 -0.1227
  117SOPE  C21812339   3.769   6.732   4.483 -0.3609  0.7014 -0.2919
  117SOPE  H18R12340   3.865   6.789   4.482 -0.4546  0.8595 -0.5050
  117SOPE  H18S12341   3.783   6.636   4.429  1.5791  0.4861  0.5193
  117SOPE  H18T12342   3.740   6.708   4.588 -3.5984 -1.1097 -1.4686
  117SOPE   C3312343   2.781   6.990   5.582 -0.0979  0.5340 -0.3686
  117SOPE   H3X12344   2.856   7.057   5.534 -0.3225  1.8697  1.0574
  117SOPE   H3Y12345   2.720   7.049   5.654  1.5649  2.6165 -0.5663
  117SOPE   C3412346   2.685   6.947   5.470  0.1884 -0.1720 -0.1841
  117SOPE   H4X12347   2.614   6.872   5.510  0.2934 -0.2290 -0.1032
  117SOPE   H4Y12348   2.742   6.905   5.384  1.4187  0.2129  0.4210
  117SOPE   C3512349   2.590   7.066   5.423 -0.1157  0.3811 -0.4733
  117SOPE   H5X12350   2.644   7.162   5.440  1.1169 -0.4787  0.6538
  117SOPE   H5Y12351   2.490   7.068   5.471 -0.9017  1.1541 -2.0615
  117SOPE   C3612352   2.548   7.045   5.272 -0.9452  0.0770  0.2760
  117SOPE   H6X12353   2.512   6.942   5.253  0.1925 -0.4043  0.6152
  117SOPE   H6Y12354   2.648   7.050   5.224 -0.8444 -3.0106 -0.0478
  117SOPE   C3712355   2.457   7.157   5.225  0.2326 -0.2289  0.1105
  117SOPE   H7X12356   2.520   7.249   5.233  1.8879 -1.4269  1.8044
  117SOPE   H7Y12357   2.371   7.156   5.295  0.6440 -0.8740  0.6128
  117SOPE   C3812358   2.412   7.148   5.070 -0.0242 -0.3174  0.2355
  117SOPE   H8X12359   2.309   7.187   5.057 -0.7768 -2.2042  0.2775
  117SOPE   H8Y12360   2.413   7.038   5.054 -0.5980  0.1258 -4.1376
  117SOPE   C3912361   2.533   7.202   4.990  0.2658 -0.9222 -0.0700
  117SOPE   H9X12362   2.628   7.152   5.017  0.2474 -1.3834 -0.8330
  117SOPE   H9Y12363   2.544   7.309   5.020  0.9008 -1.0257  0.0856
  117SOPE  C31012364   2.500   7.202   4.838  0.5571 -0.3408  1.1745
  117SOPE  H10X12365   2.406   7.256   4.812  0.0324 -1.0642  1.5330
  117SOPE  H10Y12366   2.468   7.102   4.801  0.6020  0.4466 -1.1705
  117SOPE  C31112367   2.614   7.265   4.754  0.2251 -0.3320 -0.1862
  117SOPE  H11X12368   2.693   7.189   4.774  0.4185  0.6750  3.8571
  117SOPE  H11Y12369   2.649   7.367   4.782  0.5346  0.5240 -3.2629
  117SOPE  C31212370   2.582   7.269   4.601 -0.0901  0.1779 -0.6735
  117SOPE  H12X12371   2.670   7.319   4.555  1.2877  0.0133  1.6211
  117SOPE  H12Y12372   2.484   7.319   4.585 -0.7545 -0.8708  0.0124
  117SOPE  C31312373   2.573   7.128   4.538  0.5239  1.1125  0.2225
  117SOPE  H13X12374   2.484   7.074   4.577 -0.5830  0.6040 -2.7070
  117SOPE  H13Y12375   2.654   7.057   4.563  1.2916  1.9976  0.2792
  117SOPE  C31412376   2.552   7.128   4.389  0.1501 -0.4827  0.1183
  117SOPE  H14X12377   2.643   7.148   4.328 -0.7022  0.2646 -0.9538
  117SOPE  H14Y12378   2.496   7.222   4.372  1.6023  0.9804  2.7207
  117SOPE  C31512379   2.472   7.010   4.335  0.2477 -0.0401 -0.1038
  117SOPE  H15X12380   2.367   7.020   4.370 -0.2539 -0.7814 -1.3135
  117SOPE  H15Y12381   2.531   6.917   4.350 -3.1260 -2.6527 -1.6287
  117SOPE  C31612382   2.468   7.019   4.182 -0.5875  0.0218 -0.2828
  117SOPE  H16X12383   2.573   7.026   4.146  0.1666 -1.2753  1.4935
  117SOPE  H16Y12384   2.410   7.106   4.144  0.1446  0.4786 -0.3854
  117SOPE  C31712385   2.402   6.889   4.132 -0.0494  0.2563  0.7970
  117SOPE  H17X12386   2.295   6.884   4.160  0.2702 -3.1161  1.8456
  117SOPE  H17Y12387   2.437   6.799   4.186  0.8434  0.8684  1.2587
  117SOPE  C31812388   2.428   6.879   3.978  0.4937  0.3390  0.6453
  117SOPE  H18X12389   2.350   6.814   3.933  1.1777  0.4183 -0.6955
  117SOPE  H18Y12390   2.524   6.830   3.951  0.0733  1.0769 -2.6016
  117SOPE  H18Z12391   2.422   6.983   3.941 -0.8405  0.4782  1.1879
  118SOPE     N12392   1.854   2.270   6.864  0.3528  0.1301 -0.0360
  118SOPE   HN112393   1.772   2.263   6.799  1.1179  0.4683 -1.0621
  118SOPE   HN212394   1.871   2.188   6.925 -0.3274 -0.6279 -0.8324
  118SOPE   HN312395   1.836   2.357   6.918 -0.0214  0.7413 -1.1247
  118SOPE   C1212396   1.970   2.307   6.777 -0.1964 -0.9807 -0.9804
  118SOPE  H12A12397   2.057   2.286   6.844  0.3319 -0.7262 -1.5726
  118SOPE  H12B12398   1.963   2.414   6.751 -0.6203 -0.5051  0.9202
  118SOPE   C1112399   1.976   2.211   6.659 -1.0670  0.3053 -0.4769
  118SOPE  H11A12400   2.006   2.111   6.696 -0.1235  0.5623 -0.5182
  118SOPE  H11B12401   2.060   2.251   6.598  0.0243 -0.3364  0.5716
  118SOPE     P12402   1.797   2.073   6.542  0.2644  0.1003  0.4644
  118SOPE   O1312403   1.679   2.109   6.459 -0.1397  0.1273  0.1269
  118SOPE   O1412404   1.780   1.989   6.660  0.1662  0.6435  0.5399
  118SOPE   O1212405   1.853   2.215   6.588 -0.7922 -0.0962 -0.0515
  118SOPE   O1112406   1.914   1.998   6.461  0.0344 -0.0956 -0.6634
  118SOPE    C112407   1.914   2.012   6.312  0.1412  0.1152  0.1449
  118SOPE    HA12408   1.815   1.995   6.265  0.8609 -0.8289 -1.0916
  118SOPE    HB12409   1.971   1.925   6.273 -1.0685  0.0273 -1.5340
  118SOPE    C212410   2.000   2.129   6.265 -0.3655  0.0579 -0.4588
  118SOPE    HS12411   1.964   2.226   6.307  1.3817 -0.6926  3.2303
  118SOPE   O2112412   2.003   2.116   6.122 -0.3070 -0.4491  0.0582
  118SOPE   C2112413   1.910   2.197   6.060 -0.6359 -0.7648 -0.5503
  118SOPE   O2212414   1.840   2.275   6.115 -0.7035 -0.0908  0.1905
  118SOPE   C2212415   1.922   2.187   5.904 -0.5618  0.4574 -0.1281
  118SOPE   H2R12416   1.927   2.078   5.883  1.1305  0.5892 -0.5471
  118SOPE   H2S12417   2.027   2.215   5.879 -0.4848  0.1490 -0.1522
  118SOPE    C312418   2.147   2.118   6.323  0.1631 -0.4144  0.0573
  118SOPE    HX12419   2.192   2.019   6.299  1.2405  0.2157 -0.6414
  118SOPE    HY12420   2.148   2.128   6.433  1.7731 -2.1432  0.2478
  118SOPE   O3112421   2.230   2.219   6.258 -0.3549 -0.0427  0.2229
  118SOPE   C3112422   2.210   2.340   6.303 -0.5846  0.4383  0.1765
  118SOPE   O3212423   2.137   2.374   6.385 -0.0548 -0.3082  0.0065
  118SOPE   C3212424   2.300   2.431   6.222 -0.1960  0.1849 -0.1146
  118SOPE   H2X12425   2.381   2.369   6.177 -0.5351 -1.6495  1.6558
  118SOPE   H2Y12426   2.335   2.510   6.291  0.4821  0.3889 -0.6802
  118SOPE   C2312427   1.815   2.260   5.823 -0.0748 -0.3790 -0.3410
  118SOPE   H3R12428   1.818   2.369   5.846  0.2470 -0.7550  1.6448
  118SOPE   H3S12429   1.712   2.224   5.845  0.4836 -0.7744  1.9684
  118SOPE   C2412430   1.840   2.244   5.678  0.6434  0.0420  0.3843
  118SOPE   H4R12431   1.767   2.308   5.623  2.7390  1.1480 -1.2640
  118SOPE   H4S12432   1.947   2.260   5.652  0.7459 -0.7925  0.2547
  118SOPE   C2512433   1.824   2.092   5.624  0.4098 -0.3268  0.3265
  118SOPE   H5R12434   1.896   2.020   5.670 -0.5809 -1.4243  0.2191
  118SOPE   H5S12435   1.727   2.076   5.676  0.6388 -0.6426  0.6620
  118SOPE   C2612436   1.826   2.074   5.470  0.1158  0.0221 -0.1466
  118SOPE   H6R12437   1.763   2.153   5.423 -0.8770 -0.1647  0.8398
  118SOPE   H6S12438   1.927   2.096   5.428  0.4114  1.0227  1.0306
  118SOPE   C2712439   1.779   1.927   5.426 -0.0476  0.0580 -0.5044
  118SOPE   H7R12440   1.856   1.856   5.462  2.6486  3.5457  1.1792
  118SOPE   H7S12441   1.685   1.917   5.485  0.1458  0.1218 -0.1821
  118SOPE   C2812442   1.754   1.916   5.271 -0.3153 -0.0937 -0.2974
  118SOPE   H8R12443   1.732   2.009   5.215  1.9228 -0.1979 -1.4857
  118SOPE   H8S12444   1.857   1.899   5.231  0.1575  1.1758  0.3335
  118SOPE   C2912445   1.677   1.794   5.234  0.2035 -0.4031  0.6240
  118SOPE   H9112446   1.704   1.696   5.275 -1.5850 -0.0418  2.8886
  118SOPE  C21012447   1.574   1.803   5.156 -0.0433  0.1358  0.1983
  118SOPE  H10112448   1.502   1.722   5.136 -0.1008 -0.3175  2.0394
  118SOPE  C21112449   1.517   1.925   5.092  0.8053 -0.3480 -0.7498
  118SOPE  H11R12450   1.592   2.006   5.088 -0.4378  1.1578  2.7434
  118SOPE  H11S12451   1.443   1.972   5.160  1.7797  1.2109 -0.7287
  118SOPE  C21212452   1.461   1.903   4.940 -0.1883 -0.5251 -0.4520
  118SOPE  H12R12453   1.389   1.818   4.944  0.5292 -1.3478 -2.7690
  118SOPE  H12S12454   1.539   1.872   4.867  0.4679  1.0239 -0.4417
  118SOPE  C21312455   1.392   2.025   4.875  0.5164  0.7017 -0.4722
  118SOPE  H13R12456   1.372   1.987   4.772  2.3003 -1.4072 -0.1186
  118SOPE  H13S12457   1.462   2.111   4.867 -0.5154  1.5690 -0.3449
  118SOPE  C21412458   1.261   2.064   4.942 -0.1223  0.5310 -0.0658
  118SOPE  H14R12459   1.217   2.155   4.896 -2.2389 -0.2871  0.2099
  118SOPE  H14S12460   1.281   2.086   5.049 -3.7805 -0.5450  0.9947
  118SOPE  C21512461   1.149   1.964   4.952  0.1311  0.5191  0.6278
  118SOPE  H15R12462   1.192   1.867   4.984 -0.1990  0.4076  0.7321
  118SOPE  H15S12463   1.102   1.943   4.853  1.8270 -2.2711  0.3044
  118SOPE  C21612464   1.046   1.999   5.056 -0.2090 -0.1041 -0.2721
  118SOPE  H16R12465   0.988   2.093   5.042 -0.3929  0.0060  1.0579
  118SOPE  H16S12466   1.107   2.022   5.147 -0.7102 -0.9442  0.2875
  118SOPE  C21712467   0.945   1.890   5.089  0.5850 -0.4844 -0.3421
  118SOPE  H17R12468   0.901   1.905   5.190  1.5346  1.5509 -0.1827
  118SOPE  H17S12469   0.998   1.792   5.081 -0.8373 -1.2645 -0.6835
  118SOPE  C21812470   0.828   1.895   4.985 -0.1132  0.4728  0.2408
  118SOPE  H18R12471   0.751   1.817   4.999  0.9476 -0.4490  1.0420
  118SOPE  H18S12472   0.866   1.867   4.884  0.3769  2.0426 -0.0449
  118SOPE  H18T12473   0.776   1.993   4.980 -0.9774 -0.0084 -0.2622
  118SOPE   C3312474   2.218   2.501   6.116 -0.5679  0.4658  0.2790
  118SOPE   H3X12475   2.252   2.607   6.113  2.3224 -0.3766  0.5211
  118SOPE   H3Y12476   2.109   2.502   6.138 -0.4333 -0.7356  1.1065
  118SOPE   C3412477   2.216   2.426   5.984  0.4122  1.3662 -0.7012
  118SOPE   H4X12478   2.204   2.318   6.004 -0.0641  1.6807  0.8966
  118SOPE   H4Y12479   2.321   2.431   5.947  0.7150  1.3609  0.1232
  118SOPE   C3512480   2.127   2.480   5.872 -0.5482  0.2200 -0.2607
  118SOPE   H5X12481   2.028   2.516   5.909  0.1263 -0.4681  2.3751
  118SOPE   H5Y12482   2.104   2.397   5.802 -0.1635 -1.9471  2.0792
  118SOPE   C3612483   2.182   2.592   5.788 -0.3488  0.0066  0.1331
  118SOPE   H6X12484   2.293   2.600   5.791 -0.0039 -3.6965  1.5001
  118SOPE   H6Y12485   2.158   2.684   5.845  2.4072  0.8706  0.0538
  118SOPE   C3712486   2.128   2.593   5.645  0.5227 -0.0968  0.4139
  118SOPE   H7X12487   2.151   2.506   5.579 -2.8151 -0.7626 -0.0552
  118SOPE   H7Y12488   2.178   2.684   5.603  1.8729 -0.7861  0.4690
  118SOPE   C3812489   1.974   2.594   5.641 -0.3581 -0.4599 -0.3155
  118SOPE   H8X12490   1.944   2.690   5.688 -0.5283 -0.6051 -0.1289
  118SOPE   H8Y12491   1.928   2.508   5.694  0.2416 -2.9994 -3.5676
  118SOPE   C3912492   1.908   2.600   5.503 -0.4932 -0.1315  0.4450
  118SOPE   H9X12493   1.944   2.692   5.454  0.8275 -1.4448 -1.1832
  118SOPE   H9Y12494   1.802   2.597   5.538 -0.5039 -2.3767  0.4017
  118SOPE  C31012495   1.924   2.480   5.409  0.2040 -1.2164 -0.1803
  118SOPE  H10X12496   1.894   2.386   5.460  0.2684 -1.4847 -0.6298
  118SOPE  H10Y12497   2.027   2.463   5.372 -0.3198 -1.0428 -1.7856
  118SOPE  C31112498   1.843   2.492   5.277  0.3472 -0.6359  0.1001
  118SOPE  H11X12499   1.876   2.587   5.229  2.6209 -0.5960  1.5774
  118SOPE  H11Y12500   1.736   2.489   5.306  0.0848  2.5893 -0.1801
  118SOPE  C31212501   1.876   2.365   5.191 -0.0848  0.2137  0.2188
  118SOPE  H12X12502   1.854   2.277   5.255 -1.2948  2.1298  2.6368
  118SOPE  H12Y12503   1.980   2.372   5.153 -0.6013 -0.4284 -1.3842
  118SOPE  C31312504   1.787   2.359   5.071  0.5408  0.3255 -0.0172
  118SOPE  H13X12505   1.787   2.455   5.015 -4.2156 -0.9333 -2.7464
  118SOPE  H13Y12506   1.681   2.337   5.094  0.3012 -0.7108 -1.9164
  118SOPE  C31412507   1.826   2.251   4.976  0.0091 -0.3558 -0.2315
  118SOPE  H14X12508   1.841   2.155   5.029 -1.0182  0.1695  1.0672
  118SOPE  H14Y12509   1.919   2.272   4.919 -0.6566  0.7068 -0.9734
  118SOPE  C31512510   1.712   2.221   4.873  0.0470  0.2760 -0.2169
  118SOPE  H15X12511   1.622   2.182   4.926  0.3749 -0.2505 -0.0409
  118SOPE  H15Y12512   1.749   2.133   4.816  1.7145  1.2446 -0.6816
  118SOPE  C31612513   1.670   2.332   4.781  0.4524 -0.7989  0.0329
  118SOPE  H16X12514   1.760   2.368   4.727  0.4246 -1.0368 -0.1742
  118SOPE  H16Y12515   1.637   2.407   4.856  1.8736 -0.7055  0.5798
  118SOPE  C31712516   1.561   2.297   4.676 -0.3501 -0.8766  0.7749
  118SOPE  H17X12517   1.460   2.309   4.721 -0.6104  0.4342 -0.0958
  118SOPE  H17Y12518   1.583   2.192   4.649  3.8019 -0.6134  2.4060
  118SOPE  C31812519   1.569   2.371   4.540  0.1076 -0.2177 -0.1667
  118SOPE  H18X12520   1.526   2.316   4.454 -0.0169 -1.4049  0.6352
  118SOPE  H18Y12521   1.678   2.383   4.525  0.2509 -1.5604 -0.3555
  118SOPE  H18Z12522   1.535   2.477   4.545 -0.2962 -0.3459 -0.2061
  119SOPE     N12523   3.745   1.007   6.507  0.5676  0.1149  0.5112
  119SOPE   HN112524   3.696   0.915   6.500  2.6324 -0.9750 -0.5090
  119SOPE   HN212525   3.688   1.052   6.581 -0.4675  1.0573 -0.8052
  119SOPE   HN312526   3.740   1.048   6.412  0.2001 -0.2485  0.3683
  119SOPE   C1212527   3.885   0.985   6.556  0.4263 -0.3039  0.2368
  119SOPE  H12A12528   3.899   0.874   6.550  0.2596 -0.4781  2.2530
  119SOPE  H12B12529   3.880   1.001   6.666  0.0997  0.8795  0.0592
  119SOPE   C1112530   3.978   1.062   6.468  0.2061 -0.8624  0.0455
  119SOPE  H11A12531   3.963   1.035   6.361 -0.0266 -0.1859 -0.0961
  119SOPE  H11B12532   4.079   1.045   6.511  2.0862  2.3427 -2.6511
  119SOPE     P12533   4.033   1.316   6.540 -0.4279  0.5129  0.3857
  119SOPE   O1312534   4.085   1.275   6.675  0.4851 -0.0556 -0.1698
  119SOPE   O1412535   3.979   1.450   6.522 -0.0851  0.7276  0.1241
  119SOPE   O1212536   3.944   1.204   6.481  0.0989 -0.1486 -0.7313
  119SOPE   O1112537   4.163   1.292   6.452  0.1021  0.1810  0.1252
  119SOPE    C112538   4.165   1.306   6.312 -0.2593  0.4851  0.1356
  119SOPE    HA12539   4.062   1.321   6.273  0.6698  0.8917 -2.3566
  119SOPE    HB12540   4.225   1.221   6.272 -1.5736 -1.2897  1.7901
  119SOPE    C212541   4.256   1.437   6.275  0.0727  0.2838 -0.4875
  119SOPE    HS12542   4.245   1.502   6.364  0.5742 -1.7960  1.1844
  119SOPE   O2112543   4.206   1.494   6.153 -0.0594  0.5812  0.4410
  119SOPE   C2112544   4.255   1.615   6.144  0.3693 -0.4141  0.4576
  119SOPE   O2212545   4.340   1.669   6.216  0.5066 -0.4199  0.5723
  119SOPE   C2212546   4.187   1.678   6.022  0.5479 -0.0478 -0.0105
  119SOPE   H2R12547   4.080   1.661   6.047  0.2784  1.0117 -0.3571
  119SOPE   H2S12548   4.204   1.616   5.932  0.5870  0.8129 -0.6142
  119SOPE    C312549   4.400   1.387   6.267  1.0131  0.2109  0.2951
  119SOPE    HX12550   4.424   1.322   6.354  0.9277 -2.0917 -1.2856
  119SOPE    HY12551   4.467   1.475   6.266 -0.5241  1.4155  0.7864
  119SOPE   O3112552   4.420   1.326   6.140 -0.2729 -0.0307 -0.2952
  119SOPE   C3112553   4.486   1.203   6.130  0.4366 -0.4877 -0.1658
  119SOPE   O3212554   4.501   1.129   6.223 -0.1268  0.5043  0.5622
  119SOPE   C3212555   4.514   1.185   5.982 -0.6573 -0.3448  1.1505
  119SOPE   H2X12556   4.484   1.275   5.922 -0.5375 -0.7169  0.5188
  119SOPE   H2Y12557   4.464   1.098   5.934  0.6625 -0.2818 -0.4229
  119SOPE   C2312558   4.216   1.827   5.996 -0.4564  0.2903 -0.2918
  119SOPE   H3R12559   4.321   1.837   5.963  0.5258  2.5948  2.9540
  119SOPE   H3S12560   4.211   1.885   6.091  1.4650 -0.3572  0.2490
  119SOPE   C2412561   4.132   1.888   5.883 -0.1870  0.2396 -0.1568
  119SOPE   H4R12562   4.026   1.890   5.914  0.2924  0.0259  1.5926
  119SOPE   H4S12563   4.170   1.992   5.870  1.8351 -0.5132 -0.7564
  119SOPE   C2512564   4.138   1.812   5.746 -0.6364  0.1080  0.8501
  119SOPE   H5R12565   4.244   1.789   5.721 -0.7220  0.4246  0.1892
  119SOPE   H5S12566   4.094   1.710   5.757  1.5636 -1.1265 -0.9760
  119SOPE   C2612567   4.081   1.884   5.619  0.4621  0.2151 -0.2118
  119SOPE   H6R12568   3.971   1.895   5.624  0.3086 -0.4428 -1.5945
  119SOPE   H6S12569   4.127   1.984   5.602 -2.3390  1.3865 -1.5009
  119SOPE   C2712570   4.098   1.798   5.492  0.7480  0.6938 -0.2912
  119SOPE   H7R12571   4.207   1.781   5.483  0.3289 -1.3638 -2.1441
  119SOPE   H7S12572   4.044   1.701   5.495  0.6578  0.7421 -0.3576
  119SOPE   C2812573   4.042   1.868   5.367  0.0874 -0.2568 -0.2324
  119SOPE   H8R12574   3.950   1.913   5.412 -0.9565 -1.8662 -0.6997
  119SOPE   H8S12575   4.109   1.953   5.341  1.9240 -1.2536  0.9887
  119SOPE   C2912576   4.004   1.779   5.248 -0.0442  0.3140  0.4785
  119SOPE   H9112577   4.074   1.771   5.164 -0.5435  1.0627 -0.0171
  119SOPE  C21012578   3.884   1.721   5.237  0.8039 -0.0325  0.2152
  119SOPE  H10112579   3.858   1.662   5.148  2.6293 -1.6730  0.7008
  119SOPE  C21112580   3.771   1.717   5.339 -0.1812  0.1923 -0.3183
  119SOPE  H11R12581   3.691   1.780   5.293  0.2276 -0.3221 -1.7787
  119SOPE  H11S12582   3.803   1.761   5.435 -1.2581 -0.8063  0.5291
  119SOPE  C21212583   3.716   1.578   5.367 -0.0686  0.2953  0.6101
  119SOPE  H12R12584   3.787   1.499   5.399 -1.2245 -2.1152 -2.2171
  119SOPE  H12S12585   3.681   1.542   5.267 -0.9693 -0.2841  1.1178
  119SOPE  C21312586   3.606   1.592   5.462  0.0364 -0.7564 -0.6719
  119SOPE  H13R12587   3.570   1.489   5.482 -1.5340 -0.3201 -1.1514
  119SOPE  H13S12588   3.528   1.648   5.407  1.2179  0.2657 -1.3620
  119SOPE  C21412589   3.628   1.674   5.591 -0.1081  0.2701 -0.5734
  119SOPE  H14R12590   3.530   1.698   5.638  0.4625 -0.3727  1.0439
  119SOPE  H14S12591   3.669   1.773   5.563  0.1951  0.1428 -0.5873
  119SOPE  C21512592   3.727   1.609   5.684 -0.1059  0.1659  0.0232
  119SOPE  H15R12593   3.827   1.595   5.640  0.1973  0.4380  0.6181
  119SOPE  H15S12594   3.689   1.506   5.702  2.1963 -0.9116 -0.9589
  119SOPE  C21612595   3.744   1.695   5.808  0.0897 -0.4778  0.0280
  119SOPE  H16R12596   3.650   1.748   5.836 -1.1780 -2.7133  0.2512
  119SOPE  H16S12597   3.811   1.778   5.776 -0.0190 -0.2873  0.2875
  119SOPE  C21712598   3.799   1.626   5.930 -0.5808  0.0123  0.2352
  119SOPE  H17R12599   3.900   1.585   5.909  0.4813  1.5105  2.0941
  119SOPE  H17S12600   3.727   1.547   5.960 -0.6001  0.2373  0.7870
  119SOPE  C21812601   3.822   1.711   6.059 -0.6352  0.1642 -0.3224
  119SOPE  H18R12602   3.842   1.818   6.038 -1.5076 -0.1046 -2.8542
  119SOPE  H18S12603   3.899   1.663   6.123 -1.4498  0.4773  0.9269
  119SOPE  H18T12604   3.719   1.702   6.099 -0.9878 -0.4642 -1.3204
  119SOPE   C3312605   4.664   1.177   5.960  0.1771 -0.2250 -0.2871
  119SOPE   H3X12606   4.717   1.119   6.038  2.5624  1.0352 -0.8785
  119SOPE   H3Y12607   4.707   1.277   5.980  1.7777 -1.1748  1.3378
  119SOPE   C3412608   4.705   1.134   5.819 -0.3622  0.3705  0.2225
  119SOPE   H4X12609   4.675   1.213   5.747 -0.9889  0.9806  1.1184
  119SOPE   H4Y12610   4.647   1.043   5.795 -0.3121 -0.2955  2.3752
  119SOPE   C3512611   4.856   1.110   5.815  0.6768 -0.1699 -0.0796
  119SOPE   H5X12612   4.874   1.019   5.875  1.1176 -0.4469 -0.6275
  119SOPE   H5Y12613   4.900   1.195   5.872  0.0087 -0.5474  1.0264
  119SOPE   C3612614   4.930   1.100   5.676 -0.2346 -0.0506  0.0626
  119SOPE   H6X12615   4.893   1.011   5.621 -0.1427 -1.0545  1.5529
  119SOPE   H6Y12616   5.038   1.096   5.704 -0.8169  0.1342  2.5706
  119SOPE   C3712617   4.902   1.232   5.604 -0.2753  0.0288 -0.4997
  119SOPE   H7X12618   4.899   1.317   5.676  2.7496  0.4963 -0.7863
  119SOPE   H7Y12619   4.808   1.212   5.549 -1.8033  2.4359  1.0283
  119SOPE   C3812620   5.000   1.249   5.484 -0.2608 -0.3429  0.2017
  119SOPE   H8X12621   5.016   1.147   5.442  1.8882 -1.6522  3.7703
  119SOPE   H8Y12622   5.095   1.284   5.528 -0.6972 -0.9911  1.7446
  119SOPE   C3912623   4.953   1.346   5.380  0.1540 -0.1333  0.1123
  119SOPE   H9X12624   4.931   1.438   5.438  1.2001  0.3684 -0.2669
  119SOPE   H9Y12625   4.861   1.300   5.337 -0.3952 -0.1381  1.2702
  119SOPE  C31012626   5.054   1.395   5.274  0.2582  0.3616  0.7968
  119SOPE  H10X12627   5.120   1.316   5.231  0.3422  0.3993  0.8559
  119SOPE  H10Y12628   5.113   1.469   5.333 -1.2033 -0.7125  3.8372
  119SOPE  C31112629   4.988   1.477   5.156  0.2521 -0.1389 -0.2543
  119SOPE  H11X12630   5.055   1.561   5.130  1.7659 -1.7777 -1.8707
  119SOPE  H11Y12631   4.896   1.532   5.188  0.1283 -0.0422 -0.7706
  119SOPE  C31212632   4.944   1.404   5.025 -0.0651  0.0435  0.7653
  119SOPE  H12X12633   4.859   1.333   5.031 -1.1042  1.0029 -1.4901
  119SOPE  H12Y12634   5.040   1.362   4.988 -0.0885  1.8085 -1.5151
  119SOPE  C31312635   4.908   1.504   4.909 -0.4243  0.4725  0.0472
  119SOPE  H13X12636   4.999   1.564   4.886  0.7931 -1.2144  0.2466
  119SOPE  H13Y12637   4.823   1.568   4.941  1.5693  3.0318  0.5316
  119SOPE  C31412638   4.876   1.434   4.778  0.0559 -0.0690  0.7734
  119SOPE  H14X12639   4.857   1.513   4.702  4.7528 -0.2666 -0.9569
  119SOPE  H14Y12640   4.797   1.356   4.782  2.2222 -2.3438  1.8612
  119SOPE  C31512641   4.994   1.363   4.715 -0.1745 -0.3173 -0.1161
  119SOPE  H15X12642   4.997   1.255   4.744 -1.2043 -0.4105 -0.3072
  119SOPE  H15Y12643   5.089   1.401   4.758 -0.8596 -0.9744  2.1066
  119SOPE  C31612644   4.998   1.397   4.562 -0.2582 -0.0899  0.6498
  119SOPE  H16X12645   5.014   1.507   4.559  1.7591 -0.3084  1.6643
  119SOPE  H16Y12646   4.909   1.352   4.513  0.9669 -1.8453 -0.0606
  119SOPE  C31712647   5.124   1.356   4.488  0.2569  0.1351  0.6929
  119SOPE  H17X12648   5.126   1.246   4.507 -0.4097  0.2021  1.2100
  119SOPE  H17Y12649   5.208   1.415   4.530 -1.0776  3.5573 -1.0674
  119SOPE  C31812650   5.112   1.397   4.336 -0.2848  1.2524  0.9694
  119SOPE  H18X12651   5.109   1.508   4.322 -0.4665  1.0865 -0.4636
  119SOPE  H18Y12652   5.020   1.355   4.289  0.0928  0.6706  0.7478
  119SOPE  H18Z12653   5.202   1.359   4.283 -0.6942 -0.8961  1.7231
  120SOPE     N12654   4.251   2.804   7.137  0.0160 -0.1197  0.8463
  120SOPE   HN112655   4.340   2.751   7.134  0.7440  1.0889 -0.1974
  120SOPE   HN212656   4.272   2.901   7.106 -1.5423 -0.2557 -0.8390
  120SOPE   HN312657   4.208   2.806   7.231  0.0613  1.2732  0.8660
  120SOPE   C1212658   4.149   2.743   7.044  0.1774 -0.0375  0.2707
  120SOPE  H12A12659   4.057   2.803   7.061  0.1202 -0.5491  1.9735
  120SOPE  H12B12660   4.125   2.638   7.070 -1.0242 -0.6998 -3.1349
  120SOPE   C1112661   4.194   2.749   6.905  0.1738  0.2416 -0.5162
  120SOPE  H11A12662   4.210   2.851   6.864  1.6887  0.9697  1.6577
  120SOPE  H11B12663   4.111   2.698   6.852 -0.5300  2.1256 -1.2785
  120SOPE     P12664   4.383   2.669   6.749 -0.0399  0.3171 -0.1203
  120SOPE   O1312665   4.446   2.530   6.735  0.1854 -0.4958  0.1688
  120SOPE   O1412666   4.465   2.791   6.731 -0.4816  0.0199 -0.4526
  120SOPE   O1212667   4.316   2.674   6.895 -0.3289  0.0861  0.2855
  120SOPE   O1112668   4.263   2.679   6.647 -0.5916 -0.1605 -0.3031
  120SOPE    C112669   4.198   2.567   6.607 -0.4695  0.4749  0.2533
  120SOPE    HA12670   4.109   2.601   6.549  0.9791  1.2544 -1.6029
  120SOPE    HB12671   4.167   2.500   6.690  0.4381 -0.4832 -0.1649
  120SOPE    C212672   4.275   2.495   6.489  0.2097 -0.0731  0.1845
  120SOPE    HS12673   4.375   2.457   6.519  0.9246  0.3946 -1.4555
  120SOPE   O2112674   4.295   2.583   6.382  0.4678 -0.2740 -0.4410
  120SOPE   C2112675   4.403   2.586   6.309 -0.1056 -0.2240 -0.3430
  120SOPE   O2212676   4.498   2.511   6.325  0.7605  0.6829 -0.3051
  120SOPE   C2212677   4.382   2.698   6.215 -0.9048 -0.6236 -0.0056
  120SOPE   H2R12678   4.402   2.793   6.270 -2.5428 -0.4519  0.3476
  120SOPE   H2S12679   4.276   2.711   6.183 -0.9545 -2.9413 -0.9414
  120SOPE    C312680   4.194   2.367   6.448 -0.5550  0.0414  0.6302
  120SOPE    HX12681   4.087   2.396   6.444 -0.5837 -0.1877 -0.3417
  120SOPE    HY12682   4.199   2.293   6.531 -1.7752  0.2378  0.8881
  120SOPE   O3112683   4.228   2.317   6.320  0.4254 -0.0282  0.0331
  120SOPE   C3112684   4.337   2.244   6.313  0.0928 -0.3466  0.1089
  120SOPE   O3212685   4.404   2.207   6.409  0.6029  0.1233 -0.9548
  120SOPE   C3212686   4.387   2.219   6.169  0.4479  0.4113 -0.4466
  120SOPE   H2X12687   4.346   2.306   6.113 -4.9886 -0.6000  1.4164
  120SOPE   H2Y12688   4.344   2.125   6.130  1.4966 -0.2514 -0.0487
  120SOPE   C2312689   4.466   2.681   6.086 -0.0832 -0.4500 -0.0552
  120SOPE   H3R12690   4.554   2.613   6.092  1.4411  1.2985 -1.4173
  120SOPE   H3S12691   4.494   2.779   6.041  0.9039 -0.6570  0.0846
  120SOPE   C2412692   4.398   2.604   5.969  0.0240  0.6994  0.4840
  120SOPE   H4R12693   4.359   2.507   6.008  0.9071 -0.2523 -0.8788
  120SOPE   H4S12694   4.309   2.655   5.926  0.1380 -2.1155 -3.7569
  120SOPE   C2512695   4.492   2.589   5.852  0.0071 -0.2576  0.1901
  120SOPE   H5R12696   4.539   2.689   5.839 -1.9779  0.7597  0.5076
  120SOPE   H5S12697   4.574   2.521   5.885 -1.3764 -2.4234 -0.6207
  120SOPE   C2612698   4.444   2.523   5.721 -0.6867  0.4236 -0.4102
  120SOPE   H6R12699   4.446   2.412   5.730  0.2102  0.5309  0.9076
  120SOPE   H6S12700   4.343   2.560   5.692 -0.9039  0.4517  0.3674
  120SOPE   C2712701   4.547   2.562   5.618 -0.2174 -0.9115  0.7594
  120SOPE   H7R12702   4.540   2.672   5.604 -0.5452 -0.9261  0.7949
  120SOPE   H7S12703   4.649   2.535   5.652  0.3491  2.2633  1.9760
  120SOPE   C2812704   4.527   2.507   5.468  0.3702  0.3399 -0.1404
  120SOPE   H8R12705   4.625   2.531   5.421 -0.1138 -1.8998 -2.5202
  120SOPE   H8S12706   4.521   2.397   5.478  1.3325  0.2771 -0.1666
  120SOPE   C2912707   4.413   2.563   5.395 -0.2022 -0.0988 -0.9216
  120SOPE   H9112708   4.322   2.564   5.456  0.8187  1.6546  0.6679
  120SOPE  C21012709   4.417   2.634   5.279 -0.8465  0.2004 -0.2308
  120SOPE  H10112710   4.330   2.671   5.224 -1.0742  3.0720  1.8682
  120SOPE  C21112711   4.539   2.662   5.200  0.3394 -0.9547  0.4041
  120SOPE  H11R12712   4.642   2.642   5.237  1.5016  1.7721 -1.0237
  120SOPE  H11S12713   4.545   2.773   5.194 -0.5039 -0.9419 -0.4142
  120SOPE  C21212714   4.538   2.620   5.054  0.2494  0.0259 -0.3753
  120SOPE  H12R12715   4.531   2.510   5.039 -1.2967  0.0269  0.1201
  120SOPE  H12S12716   4.637   2.636   5.006  0.1112 -1.0851 -1.0606
  120SOPE  C21312717   4.422   2.694   4.972  0.1564 -0.4292  0.4236
  120SOPE  H13R12718   4.442   2.801   4.992 -1.2217 -0.4685  2.2811
  120SOPE  H13S12719   4.324   2.655   5.008  0.2487 -0.1302  1.0028
  120SOPE  C21412720   4.440   2.663   4.822 -0.4322  0.2287 -0.0278
  120SOPE  H14R12721   4.434   2.553   4.806 -3.2496  0.2324  0.5541
  120SOPE  H14S12722   4.543   2.694   4.794 -0.3672 -0.0996 -0.1695
  120SOPE  C21512723   4.332   2.725   4.732  0.6732 -0.0630  0.1960
  120SOPE  H15R12724   4.360   2.831   4.715 -0.7720  0.4014  0.6368
  120SOPE  H15S12725   4.233   2.724   4.781  0.9242 -0.7846  0.7060
  120SOPE  C21612726   4.312   2.662   4.596 -0.7389 -0.0056  0.3013
  120SOPE  H16R12727   4.244   2.724   4.533 -0.4408 -0.0601 -0.0791
  120SOPE  H16S12728   4.266   2.562   4.607 -3.1338  0.8092 -1.3720
  120SOPE  C21712729   4.443   2.647   4.517  0.7200 -0.5348 -0.0287
  120SOPE  H17R12730   4.431   2.601   4.417  0.6465 -4.3573  1.5736
  120SOPE  H17S12731   4.513   2.580   4.572  0.8902  1.2273  2.0804
  120SOPE  C21812732   4.510   2.786   4.505 -0.1461  0.2588  0.5014
  120SOPE  H18R12733   4.560   2.797   4.604 -0.0528  1.3210  0.3462
  120SOPE  H18S12734   4.448   2.878   4.494  0.0439  0.2568 -0.7401
  120SOPE  H18T12735   4.595   2.786   4.433  0.6895  0.1751  1.4535
  120SOPE   C3312736   4.539   2.203   6.159  0.1842  0.0297  0.0823
  120SOPE   H3X12737   4.579   2.130   6.232 -2.2003 -2.4552 -0.9340
  120SOPE   H3Y12738   4.582   2.302   6.184 -2.1414  0.4983  2.5988
  120SOPE   C3412739   4.583   2.160   6.013 -0.4945 -0.0123 -0.5148
  120SOPE   H4X12740   4.691   2.188   6.016 -0.8736  1.4151  1.5281
  120SOPE   H4Y12741   4.539   2.230   5.939  1.0265  4.4248  2.4096
  120SOPE   C3512742   4.565   2.008   5.999 -0.2517  0.0644  0.1241
  120SOPE   H5X12743   4.461   1.971   6.012  0.7372 -2.7226  0.8656
  120SOPE   H5Y12744   4.638   1.954   6.063 -1.2200 -0.7017  0.6033
  120SOPE   C3612745   4.596   1.983   5.853  0.1417 -0.4503  0.4190
  120SOPE   H6X12746   4.606   1.874   5.832 -1.3699 -0.7090  0.9072
  120SOPE   H6Y12747   4.689   2.037   5.823  0.0968 -0.1055  0.8949
  120SOPE   C3712748   4.497   2.032   5.749 -0.6638 -0.4838  0.0827
  120SOPE   H7X12749   4.490   2.143   5.760 -0.7966 -0.4879  0.0499
  120SOPE   H7Y12750   4.391   2.001   5.763 -0.5899 -1.1371 -0.7538
  120SOPE   C3812751   4.545   2.017   5.600  0.0606  0.0982 -0.2261
  120SOPE   H8X12752   4.567   1.910   5.580  1.5081  0.6491 -1.9079
  120SOPE   H8Y12753   4.642   2.068   5.583 -0.5822  1.3418 -0.2771
  120SOPE   C3912754   4.442   2.084   5.504  0.3754 -0.2792  0.6880
  120SOPE   H9X12755   4.407   2.178   5.551  3.2085  0.5857  1.2452
  120SOPE   H9Y12756   4.357   2.013   5.502 -0.2603  0.4464  1.4789
  120SOPE  C31012757   4.504   2.086   5.372 -0.1945 -0.5659  0.5891
  120SOPE  H10X12758   4.539   1.986   5.340  0.0539 -0.2929  0.0044
  120SOPE  H10Y12759   4.596   2.148   5.372  1.3028 -2.5700  3.2688
  120SOPE  C31112760   4.400   2.136   5.276 -0.0372 -0.7750 -0.2823
  120SOPE  H11X12761   4.340   2.222   5.314  2.0272 -0.2730  2.0830
  120SOPE  H11Y12762   4.327   2.053   5.265  0.2487 -1.4222  2.1107
  120SOPE  C31212763   4.457   2.173   5.130 -0.7441 -0.0275 -1.0723
  120SOPE  H12X12764   4.508   2.079   5.103  1.1379 -0.4464  3.1631
  120SOPE  H12Y12765   4.533   2.252   5.150 -0.8117  0.2911 -2.0023
  120SOPE  C31312766   4.350   2.213   5.031 -0.5672  0.0808 -0.1034
  120SOPE  H13X12767   4.305   2.310   5.063 -2.2831 -0.2396 -1.3955
  120SOPE  H13Y12768   4.265   2.144   5.049 -1.7228  1.3313 -0.5246
  120SOPE  C31412769   4.402   2.203   4.890 -0.2968  0.3526 -0.0428
  120SOPE  H14X12770   4.432   2.099   4.864  0.7880  0.8407 -0.8189
  120SOPE  H14Y12771   4.492   2.268   4.897  1.2484 -1.6854  0.1465
  120SOPE  C31512772   4.310   2.250   4.771  0.4670 -0.2966 -0.0729
  120SOPE  H15X12773   4.351   2.244   4.668 -4.1199  0.6970 -2.2094
  120SOPE  H15Y12774   4.291   2.354   4.804 -0.1566 -0.5181  0.2823
  120SOPE  C31612775   4.165   2.183   4.763 -0.1553  0.5051 -0.0595
  120SOPE  H16X12776   4.103   2.225   4.681 -0.4361 -2.3093 -1.4135
  120SOPE  H16Y12777   4.106   2.223   4.849 -0.5299  0.3139 -0.2231
  120SOPE  C31712778   4.178   2.029   4.740  0.8193 -0.6968  0.2522
  120SOPE  H17X12779   4.072   2.009   4.713  0.8495 -0.1390 -0.2980
  120SOPE  H17Y12780   4.192   1.982   4.840  0.1591  2.3009  1.8696
  120SOPE  C31812781   4.281   1.977   4.646 -0.6132  0.2131 -0.2157
  120SOPE  H18X12782   4.378   2.024   4.675 -0.6521  0.8109 -1.0294
  120SOPE  H18Y12783   4.265   1.993   4.537 -2.0405 -2.2902 -0.4528
  120SOPE  H18Z12784   4.285   1.866   4.651 -1.8684  0.0911 -1.4507
  121SOPE     N12785   5.234   3.570   6.861 -1.0352 -0.0077  0.8692
  121SOPE   HN112786   5.323   3.623   6.871 -1.0039  0.4961 -1.5384
  121SOPE   HN212787   5.185   3.596   6.949 -1.1576  1.9427  0.2637
  121SOPE   HN312788   5.262   3.471   6.875 -0.8823 -0.2114 -0.7475
  121SOPE   C1212789   5.155   3.581   6.735 -0.0918  0.8058  0.3886
  121SOPE  H12A12790   5.154   3.483   6.684  0.0204 -0.7639  3.1954
  121SOPE  H12B12791   5.216   3.647   6.670 -1.5757  2.8916  0.9838
  121SOPE   C1112792   5.023   3.657   6.767  0.0743 -0.6926  0.5436
  121SOPE  H11A12793   4.956   3.597   6.831  1.2869 -1.7524  0.8495
  121SOPE  H11B12794   4.974   3.663   6.667  0.1546 -0.7131  0.5031
  121SOPE     P12795   4.964   3.919   6.777  0.3376  0.0443 -0.0564
  121SOPE   O1312796   5.054   4.012   6.703 -0.7241 -0.7439 -0.1348
  121SOPE   O1412797   4.908   3.973   6.903  0.3565  0.1677 -0.2879
  121SOPE   O1212798   5.051   3.792   6.816 -0.5435 -0.3825 -0.0380
  121SOPE   O1112799   4.852   3.866   6.686 -0.0351 -0.4884  0.0032
  121SOPE    C112800   4.802   3.951   6.575  0.8693  1.0900  0.4217
  121SOPE    HA12801   4.827   4.057   6.598  1.5421  0.8788  0.7050
  121SOPE    HB12802   4.691   3.950   6.573  0.8677  0.2798 -0.6307
  121SOPE    C212803   4.838   3.883   6.439 -0.3621 -0.3823  0.4140
  121SOPE    HS12804   4.806   3.778   6.453  0.6395 -0.3630  3.5678
  121SOPE   O2112805   4.977   3.898   6.416  0.0672 -0.0064  0.1657
  121SOPE   C2112806   5.035   3.788   6.377  0.5003 -0.3079 -0.0748
  121SOPE   O2212807   4.988   3.673   6.373 -0.1519  0.0856  0.1016
  121SOPE   C2212808   5.187   3.826   6.339 -0.3427  0.2198  0.2214
  121SOPE   H2R12809   5.243   3.731   6.326 -0.4438 -0.1477  2.2068
  121SOPE   H2S12810   5.238   3.890   6.413  1.8171  1.5507 -2.2475
  121SOPE    C312811   4.765   3.953   6.325 -0.0890 -0.9110  0.4857
  121SOPE    HX12812   4.823   4.047   6.320  2.3459 -2.3773 -2.9301
  121SOPE    HY12813   4.658   3.976   6.348  0.5168 -1.3715  4.5010
  121SOPE   O3112814   4.793   3.881   6.207  0.4569  0.5723  0.5352
  121SOPE   C3112815   4.696   3.862   6.118  0.2627 -0.2590  0.2824
  121SOPE   O3212816   4.581   3.894   6.133  0.4128  0.5756  0.8143
  121SOPE   C3212817   4.753   3.809   5.987  0.9563  0.1887 -0.2877
  121SOPE   H2X12818   4.801   3.712   6.013 -0.5307 -0.3831  0.4092
  121SOPE   H2Y12819   4.807   3.895   5.942  0.2553  1.5868  1.4153
  121SOPE   C2312820   5.192   3.911   6.206 -0.1094 -0.4591  0.3735
  121SOPE   H3R12821   5.301   3.932   6.198 -0.1767  1.9928  3.7748
  121SOPE   H3S12822   5.121   3.995   6.216  0.6946  0.1495  1.1289
  121SOPE   C2412823   5.156   3.826   6.082 -0.0713  0.1329 -0.1563
  121SOPE   H4R12824   5.214   3.732   6.092 -1.0189 -0.6988 -1.9233
  121SOPE   H4S12825   5.046   3.807   6.089 -0.3300  1.9694  1.4678
  121SOPE   C2512826   5.174   3.897   5.950 -0.0538 -0.6193 -0.0450
  121SOPE   H5R12827   5.099   3.978   5.945  0.0663 -0.3111  2.1380
  121SOPE   H5S12828   5.277   3.938   5.954 -0.4137  0.4669 -1.3748
  121SOPE   C2612829   5.171   3.806   5.829 -0.1054 -0.0551 -0.1115
  121SOPE   H6R12830   5.226   3.715   5.858  1.9032  0.9314 -0.6511
  121SOPE   H6S12831   5.064   3.799   5.799 -1.0440  3.7825  1.6734
  121SOPE   C2712832   5.263   3.866   5.719 -0.5747  0.8830 -0.4110
  121SOPE   H7R12833   5.235   3.972   5.703  2.6934  1.6557 -1.7890
  121SOPE   H7S12834   5.371   3.873   5.743 -0.9925  1.1746  1.4884
  121SOPE   C2812835   5.250   3.789   5.587  0.2485  0.3394 -0.2054
  121SOPE   H8R12836   5.324   3.832   5.516 -0.1951  2.2088  0.3844
  121SOPE   H8S12837   5.260   3.681   5.609 -1.9063 -0.3360 -2.2057
  121SOPE   C2912838   5.115   3.796   5.523 -0.2379  0.5187 -0.2768
  121SOPE   H9112839   5.032   3.830   5.587 -0.9034  1.9493 -1.8102
  121SOPE  C21012840   5.090   3.768   5.395 -0.4379  0.7143 -0.1335
  121SOPE  H10112841   4.988   3.758   5.356 -0.0270 -1.5921 -0.7384
  121SOPE  C21112842   5.196   3.737   5.295  0.2706  0.4012 -0.3195
  121SOPE  H11R12843   5.170   3.644   5.240 -0.3547  0.9665 -0.9996
  121SOPE  H11S12844   5.287   3.711   5.354 -1.2157 -1.8222  1.1420
  121SOPE  C21212845   5.218   3.862   5.212 -0.1692  0.2831 -0.0053
  121SOPE  H12R12846   5.289   3.930   5.263 -0.0602  1.6619 -1.8871
  121SOPE  H12S12847   5.125   3.908   5.174 -0.4047 -0.6013 -0.5248
  121SOPE  C21312848   5.290   3.822   5.083 -0.8028 -0.6626 -0.1168
  121SOPE  H13R12849   5.391   3.782   5.106 -0.0543 -1.0475 -3.5086
  121SOPE  H13S12850   5.319   3.917   5.033  1.4593 -0.9683  0.4861
  121SOPE  C21412851   5.220   3.741   4.975  0.5432 -0.2593 -0.0217
  121SOPE  H14R12852   5.109   3.746   4.980  0.5981 -0.3882  1.8716
  121SOPE  H14S12853   5.243   3.633   4.986  3.6162  0.2591 -0.3559
  121SOPE  C21512854   5.251   3.785   4.827  0.0822 -0.4087 -0.2034
  121SOPE  H15R12855   5.361   3.777   4.816  0.0611 -2.8136  0.6710
  121SOPE  H15S12856   5.216   3.890   4.818  0.0189 -0.5530 -1.9520
  121SOPE  C21612857   5.181   3.705   4.713 -0.6434 -0.8262  0.6489
  121SOPE  H16R12858   5.073   3.730   4.720 -0.4347 -0.1710  1.6577
  121SOPE  H16S12859   5.198   3.597   4.734 -1.8157 -0.6816  2.6041
  121SOPE  C21712860   5.231   3.743   4.568 -0.0614 -0.0472 -0.0939
  121SOPE  H17R12861   5.184   3.666   4.504  0.2529  1.6581 -2.5331
  121SOPE  H17S12862   5.338   3.715   4.568 -0.0064  0.1600 -0.1249
  121SOPE  C21812863   5.201   3.886   4.515  0.0876  0.2903  0.3866
  121SOPE  H18R12864   5.091   3.896   4.508  0.2320  1.7823 -0.4078
  121SOPE  H18S12865   5.248   3.902   4.415  1.9971 -0.5987  1.0857
  121SOPE  H18T12866   5.236   3.963   4.587  0.2241  0.9134 -0.3298
  121SOPE   C3312867   4.638   3.772   5.881  0.4112  0.7825 -0.0669
  121SOPE   H3X12868   4.582   3.867   5.867 -0.8732  0.1897  0.8545
  121SOPE   H3Y12869   4.566   3.698   5.923 -0.0318  0.2888 -1.6002
  121SOPE   C3412870   4.684   3.725   5.741 -0.5272 -0.1201  0.3124
  121SOPE   H4X12871   4.762   3.646   5.753  2.3103  2.1903 -1.3187
  121SOPE   H4Y12872   4.721   3.813   5.683 -2.9285  2.8486  2.9234
  121SOPE   C3512873   4.587   3.661   5.638  0.0739 -0.1615 -0.7844
  121SOPE   H5X12874   4.503   3.728   5.611  0.0751  1.2718  2.2806
  121SOPE   H5Y12875   4.540   3.572   5.684 -0.0015  0.4827  0.4243
  121SOPE   C3612876   4.656   3.626   5.505  0.3541  0.1541 -0.0989
  121SOPE   H6X12877   4.690   3.521   5.521 -0.3996  0.1321  1.6039
  121SOPE   H6Y12878   4.748   3.687   5.505  1.3348 -1.2615 -0.3336
  121SOPE   C3712879   4.552   3.636   5.390 -0.7082 -0.1068 -0.4919
  121SOPE   H7X12880   4.525   3.740   5.362  1.9447  0.8477  0.1308
  121SOPE   H7Y12881   4.460   3.576   5.406 -0.6056 -0.0783  0.2230
  121SOPE   C3812882   4.623   3.594   5.264 -0.0168  0.2050 -0.9076
  121SOPE   H8X12883   4.694   3.508   5.271 -0.7500 -0.2819  1.2244
  121SOPE   H8Y12884   4.679   3.682   5.225 -2.0639  1.5135 -1.0361
  121SOPE   C3912885   4.523   3.559   5.151  0.4454 -0.0068 -0.1387
  121SOPE   H9X12886   4.437   3.629   5.146  0.1537 -0.1631  1.7554
  121SOPE   H9Y12887   4.486   3.455   5.169 -0.7034 -0.1812 -3.0477
  121SOPE  C31012888   4.587   3.560   5.012 -0.4685  0.5810  0.6058
  121SOPE  H10X12889   4.686   3.511   5.023  0.3852  2.0311 -0.1915
  121SOPE  H10Y12890   4.601   3.669   4.993 -0.3226  0.8471  2.1102
  121SOPE  C31112891   4.498   3.504   4.900  0.0383 -0.5905  0.0788
  121SOPE  H11X12892   4.410   3.568   4.879  0.2605 -0.1328  0.5310
  121SOPE  H11Y12893   4.463   3.403   4.932 -1.2331 -0.7809 -1.7252
  121SOPE  C31212894   4.578   3.481   4.769 -0.4682 -0.5330  0.1451
  121SOPE  H12X12895   4.503   3.445   4.696 -0.6667 -3.0237  1.4701
  121SOPE  H12Y12896   4.655   3.401   4.780  0.5003  0.0705 -1.8558
  121SOPE  C31312897   4.642   3.612   4.712  0.4066 -0.6717  0.3326
  121SOPE  H13X12898   4.729   3.656   4.765 -0.1190  0.9187 -0.0454
  121SOPE  H13Y12899   4.554   3.681   4.717 -0.2548 -1.4786 -0.0002
  121SOPE  C31412900   4.686   3.587   4.564  0.1365 -0.2765 -0.3361
  121SOPE  H14X12901   4.584   3.574   4.521 -0.3344  0.6444  0.4713
  121SOPE  H14Y12902   4.741   3.491   4.559  0.5003  0.0031 -2.4510
  121SOPE  C31512903   4.773   3.691   4.505  0.0225  0.2689  0.0344
  121SOPE  H15X12904   4.858   3.699   4.576  0.4300  0.0739 -0.4243
  121SOPE  H15Y12905   4.719   3.788   4.516  1.8354  1.2480  0.7358
  121SOPE  C31612906   4.828   3.666   4.364  0.1249  0.2069 -0.3847
  121SOPE  H16X12907   4.887   3.572   4.353  0.1916  0.2469 -0.3732
  121SOPE  H16Y12908   4.898   3.746   4.332  0.8623 -0.2308  0.1036
  121SOPE  C31712909   4.717   3.641   4.254 -0.5310 -0.6664  0.5513
  121SOPE  H17X12910   4.669   3.542   4.267 -1.8890 -0.2827 -1.1852
  121SOPE  H17Y12911   4.781   3.632   4.163  0.1900  0.4304  0.9290
  121SOPE  C31812912   4.618   3.752   4.248  0.2527  0.5062 -0.2019
  121SOPE  H18X12913   4.549   3.748   4.161 -0.9304 -0.3888  0.7470
  121SOPE  H18Y12914   4.676   3.846   4.245 -0.2129  0.8124 -3.3068
  121SOPE  H18Z12915   4.552   3.747   4.338  0.9753 -3.1315  0.2810
  122SOPE     N12916   3.425   3.487   6.491  0.1250  0.2337 -0.1959
  122SOPE   HN112917   3.442   3.528   6.397 -1.0548 -0.4458 -0.7238
  122SOPE   HN212918   3.447   3.553   6.568 -2.7998 -0.7105  1.6152
  122SOPE   HN312919   3.484   3.402   6.501  0.2491  0.3793  0.3415
  122SOPE   C1212920   3.282   3.460   6.488  0.4439 -0.0393  0.4580
  122SOPE  H12A12921   3.223   3.547   6.453  1.1708 -0.2054 -1.3169
  122SOPE  H12B12922   3.248   3.435   6.591 -0.1340  0.4432  0.3871
  122SOPE   C1112923   3.238   3.342   6.394  0.4193  0.1911 -0.4286
  122SOPE  H11A12924   3.241   3.385   6.292 -2.8442 -0.6540 -0.9749
  122SOPE  H11B12925   3.132   3.323   6.420  0.3965  0.9477  0.0793
  122SOPE     P12926   3.281   3.105   6.496  0.5983  0.5547 -0.0200
  122SOPE   O1312927   3.161   3.142   6.584  0.2568  0.5084  0.8335
  122SOPE   O1412928   3.401   3.073   6.575 -0.1817 -0.1044 -0.8203
  122SOPE   O1212929   3.321   3.222   6.400 -0.0590 -0.3631 -0.2244
  122SOPE   O1112930   3.238   2.988   6.405  0.3811  0.3480  0.0233
  122SOPE    C112931   3.337   2.931   6.322 -0.7168 -0.4278 -0.1590
  122SOPE    HA12932   3.421   2.892   6.384 -0.0014  2.9176  1.2083
  122SOPE    HB12933   3.367   3.005   6.245 -3.0984  0.5732 -0.2000
  122SOPE    C212934   3.297   2.813   6.233 -0.1551  0.4376  0.3767
  122SOPE    HS12935   3.245   2.735   6.293  0.4765 -0.3521 -0.0858
  122SOPE   O2112936   3.416   2.757   6.165  0.2513  0.0088  0.6816
  122SOPE   C2112937   3.404   2.624   6.145 -0.6888  0.1565  0.4291
  122SOPE   O2212938   3.312   2.549   6.172 -0.3280 -0.7435 -0.1285
  122SOPE   C2212939   3.543   2.573   6.094  0.7943  0.6049  0.6292
  122SOPE   H2R12940   3.606   2.545   6.181 -0.3319 -1.1210  0.9356
  122SOPE   H2S12941   3.605   2.651   6.044  1.6840 -0.8906 -0.6936
  122SOPE    C312942   3.198   2.852   6.123 -0.7320  0.3199 -0.7178
  122SOPE    HX12943   3.114   2.898   6.179 -2.4545 -2.2123 -1.0243
  122SOPE    HY12944   3.141   2.763   6.088 -0.6639  0.8318 -2.2128
  122SOPE   O3112945   3.245   2.947   6.023 -0.0197 -0.4484 -0.6423
  122SOPE   C3112946   3.257   2.887   5.903  0.2887 -0.2538  0.8204
  122SOPE   O3212947   3.227   2.771   5.873 -0.3486  0.2246  0.3468
  122SOPE   C3212948   3.319   2.983   5.803  0.3652 -0.0625  0.0493
  122SOPE   H2X12949   3.418   3.009   5.847  0.2846  1.5748 -0.6707
  122SOPE   H2Y12950   3.259   3.075   5.790  2.9954  1.8524  0.6923
  122SOPE   C2312951   3.523   2.455   6.001 -0.5020  0.3779 -0.0297
  122SOPE   H3R12952   3.481   2.366   6.052 -0.9263 -0.0904 -1.1647
  122SOPE   H3S12953   3.627   2.432   5.970  0.2484  0.1812  2.4382
  122SOPE   C2412954   3.452   2.491   5.873  0.0924 -0.1043  0.5831
  122SOPE   H4R12955   3.380   2.414   5.838  0.4714 -0.2941  0.2142
  122SOPE   H4S12956   3.402   2.589   5.888  3.0445  1.5457  0.4033
  122SOPE   C2512957   3.541   2.510   5.751 -0.0760  0.0665 -0.3460
  122SOPE   H5R12958   3.590   2.610   5.757  1.6034 -0.8263  2.2491
  122SOPE   H5S12959   3.629   2.444   5.737 -0.3200 -0.0538 -1.4031
  122SOPE   C2612960   3.455   2.509   5.622  0.0609 -0.4049  0.0234
  122SOPE   H6R12961   3.411   2.408   5.606  1.4372 -0.9182 -0.7182
  122SOPE   H6S12962   3.380   2.591   5.620 -1.7025 -1.9659 -0.9674
  122SOPE   C2712963   3.547   2.522   5.494  1.1512 -0.2195  0.6674
  122SOPE   H7R12964   3.618   2.606   5.514  0.2829  0.5827  0.4394
  122SOPE   H7S12965   3.601   2.428   5.468  1.0856  0.1888 -1.0435
  122SOPE   C2812966   3.467   2.561   5.369 -0.1721 -0.8039 -0.1846
  122SOPE   H8R12967   3.391   2.480   5.364 -1.3617  0.2314  0.5036
  122SOPE   H8S12968   3.414   2.654   5.398  3.6008  0.7519  2.4875
  122SOPE   C2912969   3.550   2.585   5.242  0.1806 -0.7518  0.2295
  122SOPE   H9112970   3.630   2.661   5.240 -1.7576  1.3891  0.6117
  122SOPE  C21012971   3.510   2.533   5.127  0.6099  0.5260 -0.3872
  122SOPE  H10112972   3.579   2.539   5.042  0.3091  1.1850 -0.5892
  122SOPE  C21112973   3.418   2.417   5.101  0.0049  0.4213 -0.1295
  122SOPE  H11R12974   3.323   2.456   5.060 -1.6280 -1.1952  1.9024
  122SOPE  H11S12975   3.381   2.365   5.192 -1.9841  0.3154 -0.9642
  122SOPE  C21212976   3.490   2.311   5.016  0.0217  0.0841 -0.0927
  122SOPE  H12R12977   3.457   2.208   5.041 -0.2868  0.5981  1.7621
  122SOPE  H12S12978   3.600   2.308   5.030  0.2588 -0.1405 -1.7543
  122SOPE  C21312979   3.460   2.334   4.867  0.3748 -0.1601 -0.2892
  122SOPE  H13R12980   3.461   2.444   4.853 -0.6815 -0.1409 -0.2769
  122SOPE  H13S12981   3.357   2.296   4.852  0.8791 -1.2618 -1.1621
  122SOPE  C21412982   3.560   2.265   4.771  0.1232  0.1304  0.3480
  122SOPE  H14R12983   3.558   2.154   4.771 -2.8404  0.0528 -1.3901
  122SOPE  H14S12984   3.660   2.289   4.811  0.3719  0.0839 -0.2340
  122SOPE  C21512985   3.552   2.306   4.624  0.5036 -0.5131 -0.2718
  122SOPE  H15R12986   3.599   2.406   4.606  0.8765 -0.7751 -0.7786
  122SOPE  H15S12987   3.446   2.326   4.597  0.7091  0.5654 -0.3295
  122SOPE  C21612988   3.603   2.193   4.528 -0.1343 -0.1211 -0.4382
  122SOPE  H16R12989   3.581   2.210   4.420 -1.2024  0.4208 -0.1494
  122SOPE  H16S12990   3.552   2.099   4.558  2.5957 -1.3275  0.8167
  122SOPE  C21712991   3.755   2.186   4.553  0.1677  0.1084 -0.2676
  122SOPE  H17R12992   3.801   2.105   4.493 -0.0435 -0.2694  0.0812
  122SOPE  H17S12993   3.783   2.160   4.657 -0.4988  2.2706  0.5028
  122SOPE  C21812994   3.831   2.315   4.521  0.1722 -0.1682 -0.0332
  122SOPE  H18R12995   3.811   2.357   4.420  2.2669 -1.3106 -0.9931
  122SOPE  H18S12996   3.941   2.304   4.522  0.1512 -0.3644  0.6244
  122SOPE  H18T12997   3.810   2.389   4.601  2.2291  0.9517 -0.4528
  122SOPE   C3312998   3.342   2.924   5.664 -0.2840  0.6778 -0.0906
  122SOPE   H3X12999   3.244   2.905   5.615 -1.2005 -0.1831  1.9610
  122SOPE   H3Y13000   3.400   2.830   5.672 -2.3378 -0.4841  1.9299
  122SOPE   C3413001   3.426   3.004   5.572 -0.1941 -0.2406  0.2602
  122SOPE   H4X13002   3.534   2.985   5.590  0.3235 -0.7398 -2.7431
  122SOPE   H4Y13003   3.396   3.111   5.584 -2.3404 -0.9716  2.0917
  122SOPE   C3513004   3.410   2.964   5.427  0.5032 -0.1014  0.0280
  122SOPE   H5X13005   3.308   2.964   5.383 -0.4407  1.9492  2.0170
  122SOPE   H5Y13006   3.439   2.857   5.427 -0.6959 -0.4387 -0.1745
  122SOPE   C3613007   3.496   3.043   5.328  0.4853  0.0144  0.6764
  122SOPE   H6X13008   3.591   3.079   5.373 -0.8086  1.3105  2.5023
  122SOPE   H6Y13009   3.454   3.144   5.313 -0.8370 -0.6307 -0.1121
  122SOPE   C3713010   3.495   2.983   5.193  0.0952  0.1081  0.0860
  122SOPE   H7X13011   3.394   2.965   5.151  0.8894 -1.8168 -1.1783
  122SOPE   H7Y13012   3.554   2.889   5.193  1.4617  0.8567 -2.8144
  122SOPE   C3813013   3.552   3.072   5.084  0.0185 -0.7029  0.1344
  122SOPE   H8X13014   3.663   3.058   5.084  0.4109  1.9401  0.6884
  122SOPE   H8Y13015   3.534   3.179   5.109  2.3868 -0.6507  1.9614
  122SOPE   C3913016   3.505   3.041   4.944  0.2631 -0.0812 -0.1705
  122SOPE   H9X13017   3.396   3.023   4.933  0.1000  0.9372 -0.3345
  122SOPE   H9Y13018   3.555   2.943   4.934 -2.7920 -1.6088 -2.0539
  122SOPE  C31013019   3.538   3.135   4.830  0.2739  0.2588 -0.1547
  122SOPE  H10X13020   3.604   3.207   4.884  0.1055 -0.7895  1.5139
  122SOPE  H10Y13021   3.443   3.186   4.803 -1.3061 -0.9031  2.7093
  122SOPE  C31113022   3.616   3.068   4.716 -0.6816 -0.3463  0.2223
  122SOPE  H11X13023   3.698   3.000   4.748 -0.7220 -0.8876 -0.7580
  122SOPE  H11Y13024   3.666   3.150   4.660  0.6228 -1.0600  0.3048
  122SOPE  C31213025   3.531   2.985   4.618 -0.0204  0.5390 -0.1197
  122SOPE  H12X13026   3.438   3.045   4.601  0.2583  1.2726  0.8377
  122SOPE  H12Y13027   3.489   2.897   4.672 -0.5010 -0.2205 -1.6738
  122SOPE  C31313028   3.598   2.937   4.488 -0.6099 -0.8742 -0.5617
  122SOPE  H13X13029   3.674   2.864   4.524 -0.0350 -0.1165 -0.2045
  122SOPE  H13Y13030   3.666   3.021   4.463 -0.7194 -0.5550  0.1889
  122SOPE  C31413031   3.503   2.912   4.371 -0.1780  0.2476 -0.1088
  122SOPE  H14X13032   3.567   2.857   4.299 -0.8086  0.0118 -0.4953
  122SOPE  H14Y13033   3.467   3.012   4.338  2.2143  0.3050 -2.9459
  122SOPE  C31513034   3.394   2.809   4.415 -0.9295  0.6024 -0.7023
  122SOPE  H15X13035   3.346   2.846   4.509 -0.0536 -1.0657  0.4435
  122SOPE  H15Y13036   3.448   2.713   4.427  4.6483  3.4644  0.6465
  122SOPE  C31613037   3.274   2.792   4.326 -0.2748 -0.1279  0.1365
  122SOPE  H16X13038   3.216   2.707   4.369  1.0279 -0.7621  0.7171
  122SOPE  H16Y13039   3.307   2.761   4.225  0.4008 -0.7067  0.5186
  122SOPE  C31713040   3.207   2.926   4.330  0.0471  0.6046  0.3600
  122SOPE  H17X13041   3.250   2.995   4.254 -0.6810 -1.0419 -1.6387
  122SOPE  H17Y13042   3.213   2.976   4.430  3.1229 -0.6876  0.9408
  122SOPE  C31813043   3.056   2.921   4.294 -0.6997 -0.9785 -0.2172
  122SOPE  H18X13044   3.010   3.021   4.309  0.5739 -0.2279 -1.1489
  122SOPE  H18Y13045   3.006   2.840   4.352 -1.0065 -1.5051 -1.1899
  122SOPE  H18Z13046   3.042   2.892   4.187  3.2791 -0.7455 -0.9624
  123SOPE     N13047   1.149   5.895   2.037 -0.0336  0.5471 -0.1372
  123SOPE   HN113048   1.151   5.911   1.934  1.6532 -2.8319 -0.7741
  123SOPE   HN213049   1.199   5.968   2.092 -0.2459 -0.9874  2.2285
  123SOPE   HN313050   1.186   5.799   2.050 -1.6953 -0.1348 -0.1579
  123SOPE   C1213051   1.005   5.882   2.092 -0.5561 -0.3956  0.2304
  123SOPE  H12A13052   0.990   5.942   2.185 -1.2172 -3.0281  1.9359
  123SOPE  H12B13053   0.984   5.773   2.095 -0.0743 -0.5289 -0.8934
  123SOPE   C1113054   0.906   5.941   1.999 -0.1815 -0.2258  0.8723
  123SOPE  H11A13055   0.802   5.923   2.036 -0.8054  0.8559 -0.2918
  123SOPE  H11B13056   0.916   5.904   1.895  2.2687  4.0168 -0.6479
  123SOPE     P13057   0.840   6.191   1.977 -0.3666  0.2519 -0.6176
  123SOPE   O1313058   0.744   6.158   1.870  0.0276 -0.2264 -0.1053
  123SOPE   O1413059   0.905   6.322   1.966  0.0400 -0.2768 -0.0739
  123SOPE   O1213060   0.936   6.082   1.987 -0.4884 -0.1231 -0.3531
  123SOPE   O1113061   0.773   6.187   2.109 -0.2171  0.0057 -0.4486
  123SOPE    C113062   0.844   6.235   2.227 -0.1214  0.6645 -0.3019
  123SOPE    HA13063   0.846   6.346   2.220  0.1115  0.9184  2.5727
  123SOPE    HB13064   0.946   6.191   2.232 -0.2348  0.1952 -1.7289
  123SOPE    C213065   0.776   6.208   2.361  0.1124  0.6750 -0.9484
  123SOPE    HS13066   0.850   6.229   2.440 -0.4353  1.7841 -0.7148
  123SOPE   O2113067   0.739   6.067   2.363  0.3296 -0.3915 -0.0070
  123SOPE   C2113068   0.734   6.014   2.491  0.3532  0.4127 -0.0167
  123SOPE   O2213069   0.746   6.062   2.593  0.1495  0.3840 -0.8401
  123SOPE   C2213070   0.696   5.858   2.471 -1.5580  0.6454  0.7953
  123SOPE   H2R13071   0.788   5.800   2.492 -0.4458  1.8402 -0.6041
  123SOPE   H2S13072   0.677   5.835   2.364 -0.7002 -2.6157  1.2240
  123SOPE    C313073   0.651   6.309   2.383 -0.4747  0.2584  0.0053
  123SOPE    HX13074   0.592   6.293   2.289 -3.9725  0.9165  1.8901
  123SOPE    HY13075   0.678   6.417   2.376 -0.0173  0.1136 -0.5119
  123SOPE   O3113076   0.559   6.272   2.490  0.0709 -0.5301  0.3004
  123SOPE   C3113077   0.585   6.329   2.604  0.1414 -0.5857 -0.3138
  123SOPE   O3213078   0.668   6.423   2.620  0.4302 -0.1156  0.3207
  123SOPE   C3213079   0.511   6.249   2.721 -0.4026  0.2136 -0.1249
  123SOPE   H2X13080   0.590   6.195   2.777  0.4827 -2.2298 -3.4357
  123SOPE   H2Y13081   0.455   6.174   2.662  1.1973 -0.5191 -0.7816
  123SOPE   C2313082   0.567   5.817   2.540 -0.2952  0.1153 -0.7245
  123SOPE   H3R13083   0.527   5.721   2.501  3.9962 -2.4648  0.6209
  123SOPE   H3S13084   0.501   5.904   2.518  1.4441  1.6698 -0.0228
  123SOPE   C2413085   0.603   5.779   2.687 -0.4919  0.3601  0.2139
  123SOPE   H4R13086   0.707   5.744   2.700 -1.4760 -2.3159  1.6171
  123SOPE   H4S13087   0.605   5.870   2.750  1.1768  1.8905 -1.9119
  123SOPE   C2513088   0.512   5.668   2.747 -0.1728  0.2954  0.3414
  123SOPE   H5R13089   0.405   5.689   2.729  0.1894  0.5679 -1.8110
  123SOPE   H5S13090   0.529   5.582   2.677 -0.6883 -0.4566  1.1270
  123SOPE   C2613091   0.554   5.630   2.886  0.2960  0.1215 -0.1741
  123SOPE   H6R13092   0.495   5.541   2.919 -2.1129  1.1239 -1.4855
  123SOPE   H6S13093   0.663   5.619   2.902 -0.0923  0.4708  3.5759
  123SOPE   C2713094   0.490   5.731   2.981  0.6767  0.4498 -0.3813
  123SOPE   H7R13095   0.555   5.821   2.984 -0.9269  1.6033  1.6755
  123SOPE   H7S13096   0.388   5.761   2.950  0.1607 -2.0421 -1.3755
  123SOPE   C2813097   0.476   5.673   3.121  0.6059 -0.1924 -0.0809
  123SOPE   H8R13098   0.420   5.753   3.175 -3.3603 -1.4738 -1.9015
  123SOPE   H8S13099   0.409   5.584   3.122 -0.2498  0.4353 -0.1836
  123SOPE   C2913100   0.609   5.652   3.194  0.1218 -0.2216  0.3938
  123SOPE   H9113101   0.683   5.732   3.179  0.9482 -1.1190 -0.4979
  123SOPE  C21013102   0.646   5.553   3.273 -0.1938  0.8663 -0.2362
  123SOPE  H10113103   0.752   5.553   3.303  0.5216 -0.6598 -2.4666
  123SOPE  C21113104   0.572   5.427   3.312 -0.4896  0.5968  0.4304
  123SOPE  H11R13105   0.648   5.348   3.326  0.9141  2.0998  1.6355
  123SOPE  H11S13106   0.495   5.394   3.239  0.3960 -0.9821  0.1812
  123SOPE  C21213107   0.486   5.450   3.437 -0.7417  0.6523 -0.5361
  123SOPE  H12R13108   0.421   5.360   3.446  0.2007 -0.0082 -0.1774
  123SOPE  H12S13109   0.427   5.544   3.431 -0.5648  0.8229  0.2683
  123SOPE  C21313110   0.574   5.439   3.569 -0.0896 -0.0855 -0.1646
  123SOPE  H13R13111   0.640   5.527   3.582 -0.7663  0.5969 -1.2182
  123SOPE  H13S13112   0.639   5.350   3.551  0.0477  0.1802 -1.0002
  123SOPE  C21413113   0.484   5.417   3.691  0.3281  0.2042  0.2698
  123SOPE  H14R13114   0.419   5.508   3.692 -1.1664 -0.8275 -0.1505
  123SOPE  H14S13115   0.556   5.440   3.773  0.1914 -0.2089  0.5102
  123SOPE  C21513116   0.383   5.301   3.703 -0.1476 -0.2554 -0.2188
  123SOPE  H15R13117   0.438   5.210   3.670  1.2671  0.6207 -0.3833
  123SOPE  H15S13118   0.300   5.321   3.632 -0.1383 -1.2853 -0.5450
  123SOPE  C21613119   0.318   5.287   3.845 -0.6180 -0.0201 -0.1956
  123SOPE  H16R13120   0.244   5.204   3.839  0.1730 -0.6502 -3.1196
  123SOPE  H16S13121   0.274   5.387   3.867  3.1150  2.6095 -3.2795
  123SOPE  C21713122   0.422   5.244   3.949 -0.6778 -0.1621 -0.5332
  123SOPE  H17R13123   0.469   5.340   3.979  0.1934 -0.1767 -1.7673
  123SOPE  H17S13124   0.497   5.184   3.892  0.4334  0.4954  0.2058
  123SOPE  C21813125   0.383   5.154   4.065 -0.0462  0.7547  0.1943
  123SOPE  H18R13126   0.474   5.116   4.117 -0.6266 -0.1028  0.6119
  123SOPE  H18S13127   0.332   5.066   4.020 -0.4185  1.5388 -0.9566
  123SOPE  H18T13128   0.319   5.206   4.139  0.0710  0.8509  0.2292
  123SOPE   C3313129   0.425   6.349   2.805  0.3733 -0.9532 -0.2513
  123SOPE   H3X13130   0.335   6.380   2.748  0.4224  0.4453  0.3828
  123SOPE   H3Y13131   0.487   6.441   2.818  0.0462 -1.0486  2.4430
  123SOPE   C3413132   0.390   6.295   2.942  0.0996 -0.2195 -0.1248
  123SOPE   H4X13133   0.343   6.377   3.001  1.3619 -0.1255  0.8029
  123SOPE   H4Y13134   0.489   6.269   2.986 -0.0235 -0.8715 -0.2263
  123SOPE   C3513135   0.292   6.179   2.935  0.0057  0.5523 -0.9536
  123SOPE   H5X13136   0.322   6.084   2.886 -0.2403  0.1552 -0.3658
  123SOPE   H5Y13137   0.201   6.194   2.873 -1.0707 -3.7300 -0.7923
  123SOPE   C3613138   0.227   6.145   3.075  0.0528 -0.0697 -0.1500
  123SOPE   H6X13139   0.160   6.058   3.061  0.6510 -0.3395 -1.4205
  123SOPE   H6Y13140   0.167   6.228   3.120  0.0064 -0.6304  0.8580
  123SOPE   C3713141   0.340   6.096   3.168  0.6224  0.0202  0.0982
  123SOPE   H7X13142   0.420   6.174   3.172  1.5709 -0.7061 -2.7333
  123SOPE   H7Y13143   0.383   6.012   3.110  0.2411 -1.0234  1.2846
  123SOPE   C3813144   0.278   6.052   3.303 -0.7490 -0.0798  0.1634
  123SOPE   H8X13145   0.365   6.016   3.362 -1.4548 -0.7585  0.8034
  123SOPE   H8Y13146   0.217   5.961   3.290 -0.9021  0.0857 -0.3003
  123SOPE   C3913147   0.203   6.159   3.382 -0.8408 -0.4269  0.1288
  123SOPE   H9X13148   0.107   6.174   3.330 -0.2536 -1.3067 -1.2648
  123SOPE   H9Y13149   0.262   6.252   3.368 -0.0839 -0.7669  0.9009
  123SOPE  C31013150   0.189   6.111   3.529  0.2707  0.2866 -0.1955
  123SOPE  H10X13151   0.174   6.001   3.540  1.0815  0.3276  1.6899
  123SOPE  H10Y13152   0.101   6.155   3.581  1.0649  0.6854  0.8536
  123SOPE  C31113153   0.314   6.144   3.614  0.5781  0.4056  0.5052
  123SOPE  H11X13154   0.335   6.252   3.604 -0.9312  0.7412  0.7491
  123SOPE  H11Y13155   0.401   6.090   3.570  0.1018  0.9729 -1.2311
  123SOPE  C31213156   0.291   6.113   3.763  0.3547  0.1658  0.9576
  123SOPE  H12X13157   0.259   6.009   3.784  0.8541 -0.2898 -0.4291
  123SOPE  H12Y13158   0.211   6.182   3.797 -0.8741 -1.3169  1.1527
  123SOPE  C31313159   0.423   6.128   3.839  0.5948 -0.2331 -0.5046
  123SOPE  H13X13160   0.462   6.231   3.825  1.8704 -0.7687 -1.0194
  123SOPE  H13Y13161   0.500   6.052   3.813  2.3485  1.1347  0.4809
  123SOPE  C31413162   0.403   6.115   3.986 -0.6561 -0.3510 -0.1468
  123SOPE  H14X13163   0.370   6.014   4.017 -2.2002  0.0766 -0.3156
  123SOPE  H14Y13164   0.323   6.190   4.003 -0.1424 -0.1598  1.6268
  123SOPE  C31513165   0.525   6.146   4.080  0.5056 -0.3018  0.3375
  123SOPE  H15X13166   0.525   6.251   4.116 -1.4434 -0.1783  0.1015
  123SOPE  H15Y13167   0.620   6.124   4.027 -0.2231  1.8866 -2.1129
  123SOPE  C31613168   0.518   6.049   4.197  0.5469 -0.0576  0.0382
  123SOPE  H16X13169   0.553   5.949   4.162  0.0567 -0.2062 -0.0252
  123SOPE  H16Y13170   0.409   6.053   4.217  0.5535  1.3723 -0.1038
  123SOPE  C31713171   0.592   6.100   4.321  0.1584 -0.0816 -0.2154
  123SOPE  H17X13172   0.545   6.038   4.401 -0.8015  0.5580 -0.2715
  123SOPE  H17Y13173   0.565   6.207   4.333 -1.2456 -0.3539 -0.6722
  123SOPE  C31813174   0.747   6.088   4.318 -0.2830  0.3204 -0.7549
  123SOPE  H18X13175   0.799   6.144   4.238 -0.4528 -0.6667 -1.5837
  123SOPE  H18Y13176   0.782   5.982   4.324 -0.3138  0.3178 -0.6149
  123SOPE  H18Z13177   0.787   6.146   4.404 -1.1214 -0.3771  0.1407
  124SOPE     N13178   1.560   2.121   2.102  0.1276  0.3786  0.5719
  124SOPE   HN113179   1.606   2.034   2.134 -2.4107 -0.9006  1.0697
  124SOPE   HN213180   1.459   2.095   2.105  0.5714 -1.4043  0.8065
  124SOPE   HN313181   1.593   2.138   2.005 -2.3592  3.3869  0.0632
  124SOPE   C1213182   1.602   2.219   2.202 -0.0825 -0.4199  0.1197
  124SOPE  H12A13183   1.593   2.197   2.310  1.4405  0.4501  0.4397
  124SOPE  H12B13184   1.534   2.303   2.176  0.3708 -0.5663 -1.6708
  124SOPE   C1113185   1.746   2.264   2.187 -0.2235  0.0512  0.4882
  124SOPE  H11A13186   1.815   2.182   2.216 -0.7794  0.4117  3.0423
  124SOPE  H11B13187   1.768   2.347   2.257 -1.3058  1.8698 -1.2091
  124SOPE     P13188   1.916   2.358   2.011 -0.0713 -0.0326 -0.2547
  124SOPE   O1313189   1.893   2.496   1.966 -0.8387  0.3532  0.0901
  124SOPE   O1413190   1.972   2.263   1.907  0.2640 -0.2835  0.6547
  124SOPE   O1213191   1.771   2.303   2.050  0.3338  0.4678 -0.3143
  124SOPE   O1113192   1.998   2.354   2.141 -0.0632 -0.0376 -0.1426
  124SOPE    C113193   2.099   2.259   2.157 -0.0393 -0.0897 -0.3940
  124SOPE    HA13194   2.181   2.265   2.083 -0.7220  2.2936 -1.0752
  124SOPE    HB13195   2.054   2.158   2.163  0.0216 -0.2013 -1.5844
  124SOPE    C213196   2.167   2.291   2.295 -0.2693 -0.5650 -0.9266
  124SOPE    HS13197   2.228   2.201   2.320 -0.5920 -0.4923  0.1605
  124SOPE   O2113198   2.069   2.331   2.393  0.3097  0.0540 -0.1976
  124SOPE   C2113199   2.011   2.224   2.446 -0.3367 -0.6127  1.0029
  124SOPE   O2213200   2.025   2.109   2.407 -0.0443 -0.3565  0.0040
  124SOPE   C2213201   1.929   2.268   2.567 -0.0959  0.2246  0.0178
  124SOPE   H2R13202   1.912   2.373   2.533  1.7557  0.0728 -1.5834
  124SOPE   H2S13203   2.011   2.277   2.642  0.9654  3.6130 -1.3309
  124SOPE    C313204   2.269   2.404   2.272 -1.0994  0.6227 -1.2400
  124SOPE    HX13205   2.221   2.492   2.223  0.2436  2.5974  0.7825
  124SOPE    HY13206   2.353   2.366   2.211 -0.6234 -1.6881  0.7252
  124SOPE   O3113207   2.322   2.456   2.396  0.0911  0.4540  0.2365
  124SOPE   C3113208   2.266   2.560   2.456 -0.4013  0.4749 -0.2146
  124SOPE   O3213209   2.174   2.625   2.415 -0.1392 -0.3820 -0.3670
  124SOPE   C3213210   2.336   2.586   2.588  0.4272 -0.4192 -0.3847
  124SOPE   H2X13211   2.319   2.690   2.624 -2.0751 -1.4360  1.7336
  124SOPE   H2Y13212   2.443   2.572   2.561  0.4342 -0.0691 -0.5457
  124SOPE   C2313213   1.802   2.185   2.585 -0.1984  0.4838  0.2477
  124SOPE   H3R13214   1.835   2.079   2.573 -0.5158  0.3178  0.7888
  124SOPE   H3S13215   1.735   2.215   2.502 -1.0278  0.7244  0.9934
  124SOPE   C2413216   1.727   2.203   2.717  0.0309  0.1351 -0.8152
  124SOPE   H4R13217   1.646   2.274   2.692  0.3122  1.0951  0.8386
  124SOPE   H4S13218   1.682   2.106   2.749  0.2201  0.5606  0.8379
  124SOPE   C2513219   1.807   2.265   2.827  0.1817 -0.4632  0.0020
  124SOPE   H5R13220   1.888   2.190   2.842  0.7645 -0.1188 -1.2966
  124SOPE   H5S13221   1.849   2.364   2.799 -1.4934  0.7315  1.4926
  124SOPE   C2613222   1.735   2.289   2.957  0.4839 -0.7543 -0.0817
  124SOPE   H6R13223   1.740   2.395   2.989 -2.6239 -1.2052  2.4165
  124SOPE   H6S13224   1.625   2.271   2.953 -0.1448  2.0934  1.5709
  124SOPE   C2713225   1.788   2.215   3.080 -0.3980  0.0856 -0.3297
  124SOPE   H7R13226   1.770   2.105   3.076  1.8082 -0.3578  0.6588
  124SOPE   H7S13227   1.897   2.231   3.089 -0.3570 -0.8146  1.1403
  124SOPE   C2813228   1.701   2.266   3.199 -0.2043 -1.1867  0.1055
  124SOPE   H8R13229   1.738   2.367   3.228  1.5136 -0.7783 -3.0502
  124SOPE   H8S13230   1.592   2.277   3.177 -0.6651 -1.0753  2.2056
  124SOPE   C2913231   1.725   2.174   3.315 -0.1880 -0.1327  0.6001
  124SOPE   H9113232   1.830   2.159   3.342  0.2672  3.1819  1.1506
  124SOPE  C21013233   1.638   2.125   3.403  0.3946  0.5677  0.1025
  124SOPE  H10113234   1.685   2.053   3.472  1.5007 -0.9569 -2.0844
  124SOPE  C21113235   1.491   2.151   3.412  0.4645  0.2075  1.3215
  124SOPE  H11R13236   1.436   2.060   3.382  2.0067 -1.2950  2.7871
  124SOPE  H11S13237   1.452   2.217   3.332 -2.3304  0.3401  2.6696
  124SOPE  C21213238   1.435   2.204   3.552 -0.5946  0.6046  0.1938
  124SOPE  H12R13239   1.325   2.209   3.538 -0.4147  0.5117 -1.4334
  124SOPE  H12S13240   1.485   2.293   3.594  1.3646 -0.4407  0.2259
  124SOPE  C21313241   1.456   2.100   3.662 -1.0625  0.2802  0.3780
  124SOPE  H13R13242   1.561   2.098   3.698 -1.3412 -2.5009  1.2740
  124SOPE  H13S13243   1.408   2.004   3.633 -1.4587  0.1517  1.4121
  124SOPE  C21413244   1.375   2.143   3.785  0.1459 -0.1089  0.9056
  124SOPE  H14R13245   1.269   2.132   3.756  0.5572 -2.1169  0.0304
  124SOPE  H14S13246   1.391   2.250   3.813 -0.8276  0.0925  0.7223
  124SOPE  C21513247   1.406   2.075   3.921 -0.0805  0.5639 -0.4414
  124SOPE  H15R13248   1.348   2.128   4.000 -0.8715 -0.7072 -0.1333
  124SOPE  H15S13249   1.512   2.085   3.952  0.5457 -0.9579 -1.9520
  124SOPE  C21613250   1.369   1.923   3.917 -0.0682 -0.1304 -0.6356
  124SOPE  H16R13251   1.440   1.863   3.856  0.1897 -1.7011  1.1167
  124SOPE  H16S13252   1.270   1.914   3.867 -0.5993  1.8181 -0.0514
  124SOPE  C21713253   1.363   1.864   4.058  0.4749 -0.3142  0.1011
  124SOPE  H17R13254   1.292   1.779   4.069 -0.8315  0.8526  1.0857
  124SOPE  H17S13255   1.313   1.947   4.112  0.2150  0.2556 -0.9834
  124SOPE  C21813256   1.503   1.839   4.130 -0.4864  0.1443  0.4515
  124SOPE  H18R13257   1.557   1.775   4.057 -0.8917 -0.6367  0.8306
  124SOPE  H18S13258   1.483   1.788   4.227 -2.0827  0.9112  0.5535
  124SOPE  H18T13259   1.560   1.934   4.138 -0.4930  0.0933  1.1442
  124SOPE   C3313260   2.291   2.484   2.700  0.0971 -0.7283 -0.9284
  124SOPE   H3X13261   2.303   2.380   2.662 -3.7676 -0.8373 -2.3265
  124SOPE   H3Y13262   2.183   2.507   2.710  0.3578 -0.2169  1.1707
  124SOPE   C3413263   2.358   2.513   2.835 -0.2130  0.1115  0.2633
  124SOPE   H4X13264   2.353   2.624   2.840  0.6244  0.1644  0.0507
  124SOPE   H4Y13265   2.468   2.498   2.827 -0.2680  0.4126 -1.4683
  124SOPE   C3513266   2.292   2.458   2.963 -0.0213  0.2420 -0.2567
  124SOPE   H5X13267   2.184   2.442   2.944  0.0065 -0.7966  0.3734
  124SOPE   H5Y13268   2.295   2.540   3.037  2.2975 -0.8414  0.9647
  124SOPE   C3613269   2.347   2.337   3.024  0.2603 -0.4240 -0.4229
  124SOPE   H6X13270   2.453   2.343   3.058  0.5329 -2.8023 -0.7412
  124SOPE   H6Y13271   2.352   2.257   2.948  0.8401  2.1826 -3.3503
  124SOPE   C3713272   2.269   2.297   3.154  0.7608 -0.3334  0.1827
  124SOPE   H7X13273   2.168   2.259   3.129  1.6379 -2.3047 -0.5622
  124SOPE   H7Y13274   2.256   2.385   3.220  1.4031  0.1335 -0.3105
  124SOPE   C3813275   2.342   2.198   3.243 -0.7293 -0.3069  0.0154
  124SOPE   H8X13276   2.446   2.239   3.241 -0.8454  0.1350 -3.2999
  124SOPE   H8Y13277   2.346   2.100   3.189  2.2905  0.8164 -2.0838
  124SOPE   C3913278   2.291   2.194   3.384 -0.2959  0.2139  0.1339
  124SOPE   H9X13279   2.185   2.161   3.378 -0.4769  0.7102  0.5651
  124SOPE   H9Y13280   2.286   2.296   3.428  1.0676 -1.3398  4.3143
  124SOPE  C31013281   2.372   2.110   3.482  0.1632  0.3416  0.3298
  124SOPE  H10X13282   2.483   2.115   3.471 -0.0602  0.2871 -2.6885
  124SOPE  H10Y13283   2.341   2.007   3.456 -0.7565  0.9732 -1.1963
  124SOPE  C31113284   2.344   2.127   3.634  0.1003  0.1310 -0.1261
  124SOPE  H11X13285   2.369   2.226   3.678  1.3517 -0.0102 -0.4729
  124SOPE  H11Y13286   2.400   2.042   3.680 -0.7286 -0.5129 -0.2811
  124SOPE  C31213287   2.193   2.114   3.672 -0.4023 -0.0258  0.7402
  124SOPE  H12X13288   2.150   2.028   3.617  0.4397  0.0297 -0.0349
  124SOPE  H12Y13289   2.143   2.206   3.633 -1.1250 -0.3492  0.8850
  124SOPE  C31313290   2.169   2.101   3.828 -0.3080  0.2481  0.0444
  124SOPE  H13X13291   2.222   2.185   3.878  1.6296 -0.8849  0.0267
  124SOPE  H13Y13292   2.213   2.002   3.855 -1.6478 -0.3113  0.2254
  124SOPE  C31413293   2.018   2.110   3.862  0.4404  0.2617 -0.2537
  124SOPE  H14X13294   1.960   2.028   3.815 -1.1106  0.0914  1.8542
  124SOPE  H14Y13295   1.980   2.204   3.818 -0.9522 -0.5096 -0.7602
  124SOPE  C31513296   1.976   2.097   4.008  0.0358  0.0370  0.4342
  124SOPE  H15X13297   2.050   2.143   4.077  0.4686 -1.2926  0.8810
  124SOPE  H15Y13298   1.978   1.988   4.028  0.2314 -0.1124 -0.3842
  124SOPE  C31613299   1.833   2.145   4.049 -0.0063  0.5187  0.2648
  124SOPE  H16X13300   1.763   2.097   3.977  2.8209  0.8929 -3.0079
  124SOPE  H16Y13301   1.824   2.255   4.037  1.7268  0.7192  0.4851
  124SOPE  C31713302   1.805   2.107   4.195  0.0506 -0.7061 -0.3020
  124SOPE  H17X13303   1.895   2.147   4.246  0.0584  0.2935 -1.0577
  124SOPE  H17Y13304   1.804   1.998   4.216  1.1343 -0.5295  0.7407
  124SOPE  C31813305   1.677   2.178   4.246  0.4545  0.2466 -0.1480
  124SOPE  H18X13306   1.693   2.285   4.273  2.7246  0.0330 -0.5026
  124SOPE  H18Y13307   1.636   2.129   4.337 -0.8685  1.1052 -0.2478
  124SOPE  H18Z13308   1.597   2.178   4.169 -0.5427 -0.5176  0.8553
  125SOPE     N13309   6.383   2.581   2.116 -0.1228  0.5454 -0.4054
  125SOPE   HN113310   6.312   2.551   2.046  1.1874  1.1794 -2.0917
  125SOPE   HN213311   6.474   2.549   2.079 -0.1092  0.5958 -0.4158
  125SOPE   HN313312   6.372   2.524   2.202  3.1562  1.1718  0.5654
  125SOPE   C1213313   6.371   2.728   2.142 -0.0419  0.0356  0.0571
  125SOPE  H12A13314   6.399   2.784   2.050 -0.3467 -1.7742 -1.1763
  125SOPE  H12B13315   6.450   2.743   2.219  1.8277 -0.1373 -1.7403
  125SOPE   C1113316   6.240   2.771   2.201  0.1050 -0.5248 -0.0211
  125SOPE  H11A13317   6.239   2.882   2.195 -1.2535 -0.5951 -2.1844
  125SOPE  H11B13318   6.234   2.746   2.309 -3.0123  0.4287  0.1455
  125SOPE     P13319   6.031   2.606   2.179  0.0047  0.2933 -0.2649
  125SOPE   O1313320   6.108   2.480   2.181 -0.3515  0.6383  0.1277
  125SOPE   O1413321   5.907   2.605   2.101  0.3345  0.1551  0.1980
  125SOPE   O1213322   6.132   2.714   2.126  0.2102 -0.0733  0.2751
  125SOPE   O1113323   5.995   2.648   2.326 -0.6898  0.3266  0.4492
  125SOPE    C113324   5.969   2.785   2.355 -0.3744 -0.3547  0.3299
  125SOPE    HA13325   5.893   2.821   2.283 -1.3088 -0.6994  1.1177
  125SOPE    HB13326   6.059   2.850   2.356  1.2643 -2.4709  1.3526
  125SOPE    C213327   5.925   2.799   2.503  0.0949 -0.1825 -0.5969
  125SOPE    HS13328   5.884   2.902   2.509  3.5965  1.2981  0.6016
  125SOPE   O2113329   6.042   2.777   2.588  0.0969 -0.5224 -0.4618
  125SOPE   C2113330   6.105   2.887   2.611 -0.5322  0.0735  0.8090
  125SOPE   O2213331   6.101   2.994   2.549 -0.2363  0.0341 -0.7088
  125SOPE   C2213332   6.194   2.863   2.734 -0.8884 -0.1932 -0.4115
  125SOPE   H2R13333   6.228   2.958   2.782  1.7962 -2.3178  2.2349
  125SOPE   H2S13334   6.290   2.825   2.695  0.8151  1.9335  1.4065
  125SOPE    C313335   5.815   2.699   2.527  0.8399 -0.5742 -0.4395
  125SOPE    HX13336   5.843   2.592   2.528 -1.2060 -1.1652  1.1064
  125SOPE    HY13337   5.735   2.704   2.449  0.6490  0.3206 -0.2057
  125SOPE   O3113338   5.753   2.734   2.653  0.2717  0.0360  0.3549
  125SOPE   C3113339   5.638   2.670   2.681 -0.1638  0.3469 -0.1615
  125SOPE   O3213340   5.591   2.583   2.607 -0.3910  0.0804 -0.2633
  125SOPE   C3213341   5.575   2.732   2.805 -0.0796 -0.8317  0.1563
  125SOPE   H2X13342   5.593   2.841   2.791  0.4062 -1.0583 -1.1192
  125SOPE   H2Y13343   5.640   2.704   2.891  0.4140  0.9033  0.3938
  125SOPE   C2313344   6.122   2.777   2.838 -0.1426  0.0722 -0.5107
  125SOPE   H3R13345   6.067   2.693   2.789 -0.5016  1.0912 -1.9469
  125SOPE   H3S13346   6.039   2.831   2.889 -0.9956 -2.8260  1.4431
  125SOPE   C2413347   6.216   2.725   2.949  0.0924 -0.2772 -0.0090
  125SOPE   H4R13348   6.182   2.626   2.986 -1.9037  1.0016  1.8492
  125SOPE   H4S13349   6.312   2.703   2.899  1.2988  0.7401  1.7519
  125SOPE   C2513350   6.240   2.829   3.065 -0.3756 -0.2740  0.0698
  125SOPE   H5R13351   6.346   2.829   3.100  0.4181 -0.4060 -2.1760
  125SOPE   H5S13352   6.233   2.922   3.005 -1.9461  0.2258  0.9806
  125SOPE   C2613353   6.139   2.835   3.175 -0.3008 -0.0953  0.4676
  125SOPE   H6R13354   6.145   2.927   3.237  0.0066 -2.6604  4.6476
  125SOPE   H6S13355   6.036   2.819   3.138 -0.4026 -1.4248  1.2371
  125SOPE   C2713356   6.168   2.730   3.284  0.3381  0.3290 -0.6094
  125SOPE   H7R13357   6.174   2.626   3.244  1.6134 -0.3616  1.2267
  125SOPE   H7S13358   6.262   2.744   3.341  0.3248  0.5160 -0.6328
  125SOPE   C2813359   6.060   2.738   3.393 -0.4829  0.3693 -0.2351
  125SOPE   H8R13360   6.090   2.826   3.454  1.9902  0.7774 -1.8920
  125SOPE   H8S13361   5.969   2.774   3.341  0.0766  1.0868 -0.7578
  125SOPE   C2913362   6.013   2.610   3.473 -0.2782  0.2498  0.2844
  125SOPE   H9113363   5.917   2.574   3.433  0.3492 -1.8746  0.5452
  125SOPE  C21013364   6.061   2.548   3.582  0.1361 -0.9695  0.7309
  125SOPE  H10113365   6.010   2.459   3.621 -1.9667  0.2428  0.8763
  125SOPE  C21113366   6.187   2.596   3.649  0.0823  0.0602 -0.0998
  125SOPE  H11R13367   6.239   2.678   3.594  2.4132 -1.0101  0.3737
  125SOPE  H11S13368   6.252   2.507   3.633 -0.0523 -0.0748  0.1158
  125SOPE  C21213369   6.173   2.643   3.792  0.1029  0.1505  0.8880
  125SOPE  H12R13370   6.269   2.671   3.842 -0.0499  1.2842  0.5879
  125SOPE  H12S13371   6.116   2.574   3.858  0.3184  2.3057  3.5042
  125SOPE  C21313372   6.101   2.774   3.815 -0.1044  0.1389  1.0365
  125SOPE  H13R13373   5.995   2.755   3.788  0.5488 -3.7357  0.6448
  125SOPE  H13S13374   6.137   2.857   3.750 -2.8770  0.8266  0.2268
  125SOPE  C21413375   6.107   2.823   3.962 -0.5346  0.1405  0.3054
  125SOPE  H14R13376   6.213   2.842   3.990  0.0534 -0.9653 -1.0548
  125SOPE  H14S13377   6.048   2.754   4.025 -0.3438  0.2029  0.5512
  125SOPE  C21513378   6.025   2.952   3.972  0.4649  0.1931 -0.1115
  125SOPE  H15R13379   5.919   2.920   3.973  0.2489  0.8703  0.9973
  125SOPE  H15S13380   6.039   3.026   3.890 -0.5581 -2.0081 -2.4039
  125SOPE  C21613381   6.058   3.030   4.106  0.7299  0.3579 -0.2049
  125SOPE  H16R13382   6.156   3.082   4.095  1.3192 -0.6859  0.0571
  125SOPE  H16S13383   6.051   2.957   4.189  0.3413  1.8008  1.0911
  125SOPE  C21713384   5.952   3.138   4.136  0.1910 -0.3186  0.0400
  125SOPE  H17R13385   5.858   3.095   4.177 -0.4940  0.9828 -0.0969
  125SOPE  H17S13386   5.932   3.205   4.049  0.1349  3.2008  2.5362
  125SOPE  C21813387   5.996   3.247   4.243  0.3825 -0.5169  0.7257
  125SOPE  H18R13388   6.085   3.296   4.199  0.1388 -0.9157 -0.2406
  125SOPE  H18S13389   6.019   3.201   4.342 -2.2964  0.4403  1.8727
  125SOPE  H18T13390   5.916   3.323   4.250 -1.1304 -1.9776  0.0650
  125SOPE   C3313391   5.425   2.703   2.825 -0.5113  0.0080 -0.1689
  125SOPE   H3X13392   5.411   2.703   2.936  0.3443 -0.5131 -0.0525
  125SOPE   H3Y13393   5.402   2.600   2.793 -1.7932  0.1279  0.2933
  125SOPE   C3413394   5.332   2.801   2.755  0.2764  0.1864 -0.0891
  125SOPE   H4X13395   5.328   2.767   2.649  1.1621 -1.4747  0.3854
  125SOPE   H4Y13396   5.357   2.909   2.764 -2.5427  0.8060  1.3434
  125SOPE   C3513397   5.187   2.799   2.815  0.2974 -0.1901  0.5505
  125SOPE   H5X13398   5.126   2.883   2.777  0.7061 -0.9838 -2.0417
  125SOPE   H5Y13399   5.194   2.810   2.926  3.2189 -1.7633  0.5973
  125SOPE   C3613400   5.102   2.675   2.779 -0.3620  0.9226 -0.0952
  125SOPE   H6X13401   5.150   2.579   2.809 -2.7937  0.0732  1.3889
  125SOPE   H6Y13402   5.099   2.673   2.668  0.9086  2.0832 -0.1713
  125SOPE   C3713403   4.962   2.673   2.833 -0.3885 -0.6601 -0.3821
  125SOPE   H7X13404   4.906   2.577   2.828 -0.9897 -0.4594  1.5084
  125SOPE   H7Y13405   4.909   2.755   2.781  0.4484  0.2334  0.1509
  125SOPE   C3813406   4.947   2.728   2.982  0.4874 -0.0077 -0.1879
  125SOPE   H8X13407   4.838   2.741   3.001  0.5968 -0.9112  1.1420
  125SOPE   H8Y13408   4.997   2.827   2.987  2.5893 -0.9004 -2.1275
  125SOPE   C3913409   5.000   2.636   3.094 -0.3732 -0.4198 -0.9180
  125SOPE   H9X13410   5.103   2.604   3.068  0.1803  0.6904 -0.1889
  125SOPE   H9Y13411   4.930   2.552   3.112 -0.3742 -0.1970  0.1865
  125SOPE  C31013412   4.998   2.704   3.231 -0.7606  0.6117 -0.1542
  125SOPE  H10X13413   5.018   2.631   3.312 -0.5648  1.3985  0.5243
  125SOPE  H10Y13414   4.898   2.750   3.249  0.1028  1.4816  3.0873
  125SOPE  C31113415   5.114   2.800   3.241  0.1649  0.3148 -0.0297
  125SOPE  H11X13416   5.124   2.844   3.140  2.8191 -1.4302 -0.6106
  125SOPE  H11Y13417   5.205   2.739   3.261  0.1583  0.4175  0.3144
  125SOPE  C31213418   5.111   2.902   3.353  0.4566  0.2093 -0.3765
  125SOPE  H12X13419   5.115   2.843   3.447  0.9725  0.2589 -0.3640
  125SOPE  H12Y13420   5.011   2.951   3.347  0.0978 -0.4863 -0.1882
  125SOPE  C31313421   5.212   3.017   3.332  0.2578  0.1478  0.0576
  125SOPE  H13X13422   5.188   3.081   3.244 -1.7947  0.3837  0.7382
  125SOPE  H13Y13423   5.313   2.975   3.312  0.8022  2.2784 -2.1760
  125SOPE  C31413424   5.225   3.097   3.465 -0.1258 -0.2089 -0.4281
  125SOPE  H14X13425   5.247   3.033   3.553  0.2826  0.6430  0.1040
  125SOPE  H14Y13426   5.121   3.126   3.489 -1.1056 -2.0433 -2.1665
  125SOPE  C31513427   5.340   3.209   3.467  0.2946  0.9334 -0.0448
  125SOPE  H15X13428   5.327   3.286   3.388  0.6154  1.5161  0.4638
  125SOPE  H15Y13429   5.442   3.169   3.448  0.6407  2.5546 -1.9534
  125SOPE  C31613430   5.341   3.285   3.603 -0.4479  1.2090 -0.3309
  125SOPE  H16X13431   5.340   3.206   3.681 -0.5083 -0.1120 -1.6155
  125SOPE  H16Y13432   5.237   3.323   3.613 -0.8714 -0.1852  0.9453
  125SOPE  C31713433   5.446   3.394   3.599 -0.3020 -0.7608 -0.4117
  125SOPE  H17X13434   5.439   3.447   3.502  1.5958  0.1428 -0.1018
  125SOPE  H17Y13435   5.548   3.348   3.593 -0.7831 -1.7748 -1.2117
  125SOPE  C31813436   5.437   3.495   3.714 -0.2554  0.0074 -0.2965
  125SOPE  H18X13437   5.526   3.561   3.717 -1.4785  1.8943 -2.6192
  125SOPE  H18Y13438   5.417   3.445   3.811 -1.0984  1.0857  0.0954
  125SOPE  H18Z13439   5.355   3.567   3.692  1.7633  3.0393  1.4717
  126SOPE     N13440   6.927   0.519   2.412 -0.1445 -0.6341  0.3122
  126SOPE   HN113441   6.900   0.618   2.429  1.0303  0.0076 -1.3366
  126SOPE   HN213442   6.851   0.464   2.366 -0.5944 -0.8180  1.2503
  126SOPE   HN313443   6.940   0.480   2.507  3.2588 -0.5448  0.0183
  126SOPE   C1213444   7.057   0.511   2.339  0.5980  0.1790  0.1520
  126SOPE  H12A13445   7.115   0.420   2.365  1.8808  1.5562  2.4810
  126SOPE  H12B13446   7.122   0.596   2.368 -0.2722  1.4165 -1.3681
  126SOPE   C1113447   7.035   0.536   2.190 -0.0410  0.4080 -0.1404
  126SOPE  H11A13448   6.944   0.598   2.171 -1.9653 -2.5095 -1.1648
  126SOPE  H11B13449   7.024   0.434   2.148  2.1853 -0.2557  0.7599
  126SOPE     P13450   7.277   0.538   2.090 -0.1404 -0.0013 -0.4446
  126SOPE   O1313451   7.336   0.635   1.999 -0.0598 -0.4872  0.9221
  126SOPE   O1413452   7.266   0.398   2.049 -0.2349 -0.0759 -0.0428
  126SOPE   O1213453   7.144   0.598   2.131  0.6452  0.4215 -0.3113
  126SOPE   O1113454   7.361   0.551   2.220 -0.0309  0.2456 -0.3098
  126SOPE    C113455   7.447   0.662   2.253  0.3362 -0.9631 -0.0212
  126SOPE    HA13456   7.400   0.754   2.213  0.2536 -0.7791  0.4996
  126SOPE    HB13457   7.541   0.643   2.196  0.8535  0.6654  0.2276
  126SOPE    C213458   7.465   0.676   2.406  0.5145 -0.1313 -0.2311
  126SOPE    HS13459   7.494   0.576   2.444 -1.5955 -0.4258  0.7471
  126SOPE   O2113460   7.333   0.706   2.453  0.1839 -0.5111 -0.4790
  126SOPE   C2113461   7.304   0.695   2.576 -0.4259 -0.0813 -0.0044
  126SOPE   O2213462   7.368   0.638   2.663 -0.4112 -0.3785  0.2829
  126SOPE   C2213463   7.174   0.782   2.603  0.0152 -0.3542  0.1519
  126SOPE   H2R13464   7.106   0.758   2.518 -0.9822  4.5208 -0.7345
  126SOPE   H2S13465   7.193   0.888   2.576 -2.2693  0.1851  0.4172
  126SOPE    C313466   7.569   0.786   2.457 -0.7342 -0.8816 -0.5387
  126SOPE    HX13467   7.530   0.884   2.420 -0.7768 -0.4960  0.5004
  126SOPE    HY13468   7.663   0.772   2.399  0.3237 -1.5133  1.2626
  126SOPE   O3113469   7.587   0.790   2.599 -0.3644  0.0417  0.6202
  126SOPE   C3113470   7.681   0.717   2.653 -0.0383 -0.8569 -0.4134
  126SOPE   O3213471   7.756   0.644   2.592 -0.5469 -0.5102 -0.3081
  126SOPE   C3213472   7.691   0.765   2.790 -0.5079  0.3802 -0.2088
  126SOPE   H2X13473   7.736   0.866   2.804  0.6252 -0.3301  1.8130
  126SOPE   H2Y13474   7.765   0.696   2.838  0.1031  0.5746 -0.8610
  126SOPE   C2313475   7.112   0.759   2.741 -0.3543  0.6198 -0.6045
  126SOPE   H3R13476   7.025   0.824   2.762 -0.2922  0.3601  0.5759
  126SOPE   H3S13477   7.183   0.772   2.826 -0.2391 -0.8495 -0.4422
  126SOPE   C2413478   7.062   0.616   2.756 -0.1118 -0.2976  0.7861
  126SOPE   H4R13479   6.988   0.592   2.677 -1.0124  1.9773  0.8694
  126SOPE   H4S13480   7.138   0.538   2.735 -0.0674  0.3059 -1.5331
  126SOPE   C2513481   7.004   0.591   2.896 -0.4919  0.3396  0.0651
  126SOPE   H5R13482   6.951   0.684   2.925  0.5999  1.0691 -0.2348
  126SOPE   H5S13483   6.937   0.503   2.905 -0.7130  0.3926 -0.9457
  126SOPE   C2613484   7.122   0.574   3.000 -0.2202 -0.2081 -0.1284
  126SOPE   H6R13485   7.188   0.508   2.940 -0.0834 -0.5802  0.4238
  126SOPE   H6S13486   7.175   0.670   3.018  1.6034 -1.4875  1.9063
  126SOPE   C2713487   7.082   0.505   3.128  0.2790  0.9756  0.4385
  126SOPE   H7R13488   7.041   0.406   3.100  1.7204  0.7902 -1.1385
  126SOPE   H7S13489   7.151   0.485   3.213 -1.3177 -0.6641  1.4363
  126SOPE   C2813490   6.963   0.583   3.198 -0.1670  0.4313  0.2542
  126SOPE   H8R13491   6.878   0.596   3.128 -0.5114 -1.2886  0.2975
  126SOPE   H8S13492   6.930   0.513   3.279  1.7133 -0.1516  0.5579
  126SOPE   C2913493   6.997   0.726   3.239 -0.0190 -0.0841  0.6551
  126SOPE   H9113494   6.991   0.793   3.152 -2.2991  0.4602  1.1652
  126SOPE  C21013495   7.040   0.763   3.360  0.5691  0.6326 -0.4718
  126SOPE  H10113496   7.048   0.872   3.363 -1.6317  0.8183  0.9814
  126SOPE  C21113497   7.044   0.683   3.490 -0.3212 -0.1011 -0.4404
  126SOPE  H11R13498   6.985   0.589   3.480  0.2163 -0.8849  2.7802
  126SOPE  H11S13499   7.008   0.745   3.575  3.3404  0.5056  0.8632
  126SOPE  C21213500   7.181   0.631   3.536 -0.1444 -0.4560  0.0348
  126SOPE  H12R13501   7.243   0.721   3.558 -2.5268  1.3129 -0.0334
  126SOPE  H12S13502   7.232   0.565   3.462  0.4316 -1.7898  1.5652
  126SOPE  C21313503   7.182   0.561   3.670  0.8444 -0.1495 -0.2807
  126SOPE  H13R13504   7.135   0.629   3.745 -3.0915 -0.3002 -2.3422
  126SOPE  H13S13505   7.283   0.531   3.703  0.1533 -1.4544  0.7718
  126SOPE  C21413506   7.109   0.425   3.672 -0.2791  0.7820  0.4187
  126SOPE  H14R13507   7.140   0.358   3.588 -1.1933  1.7610 -0.7503
  126SOPE  H14S13508   6.998   0.435   3.668 -0.2443  1.0016 -0.0963
  126SOPE  C21513509   7.131   0.350   3.805 -0.2480  0.0796 -0.2627
  126SOPE  H15R13510   7.086   0.409   3.889  2.5173  2.7980 -0.4944
  126SOPE  H15S13511   7.240   0.334   3.821 -0.2397  0.3949  0.0135
  126SOPE  C21613512   7.068   0.209   3.805 -0.2066 -0.5090  0.3837
  126SOPE  H16R13513   7.066   0.167   3.908  0.5407 -1.0204  0.1958
  126SOPE  H16S13514   7.136   0.145   3.745  0.6745  2.0546 -1.5231
  126SOPE  C21713515   6.927   0.205   3.741  0.6072  0.4482 -0.0941
  126SOPE  H17R13516   6.905   0.097   3.738  0.2174  0.4353  1.9327
  126SOPE  H17S13517   6.922   0.257   3.643 -1.4271 -1.3105 -0.9967
  126SOPE  C21813518   6.820   0.271   3.833 -0.1606  0.1991 -0.0485
  126SOPE  H18R13519   6.725   0.266   3.776 -0.0508  0.5864 -0.2733
  126SOPE  H18S13520   6.850   0.377   3.847 -0.5068  0.2179  0.5635
  126SOPE  H18T13521   6.821   0.222   3.932  1.5691 -0.2138 -0.2371
  126SOPE   C3313522   7.564   0.751   2.871  0.1964 -0.5578 -0.5891
  126SOPE   H3X13523   7.517   0.650   2.879  1.7531 -1.2837 -0.1191
  126SOPE   H3Y13524   7.493   0.830   2.840 -0.6477 -1.7396 -1.7814
  126SOPE   C3413525   7.581   0.778   3.025  0.1131  0.7382  0.2795
  126SOPE   H4X13526   7.648   0.867   3.025 -0.0405  0.8636  1.7498
  126SOPE   H4Y13527   7.645   0.700   3.071 -1.4815 -0.1768  0.9826
  126SOPE   C3513528   7.445   0.789   3.095 -0.0193  0.2514  0.0476
  126SOPE   H5X13529   7.405   0.686   3.108 -2.5175  1.1250 -0.1737
  126SOPE   H5Y13530   7.367   0.835   3.031 -0.5147 -3.0242 -1.9216
  126SOPE   C3613531   7.437   0.863   3.231  0.0942 -0.3386 -0.8680
  126SOPE   H6X13532   7.329   0.851   3.255  0.8391 -0.9725  2.8946
  126SOPE   H6Y13533   7.477   0.967   3.221 -0.6272 -0.1632 -1.9841
  126SOPE   C3713534   7.532   0.783   3.332  0.0975 -0.7784  0.5240
  126SOPE   H7X13535   7.637   0.783   3.296  0.5075 -1.3377  1.6610
  126SOPE   H7Y13536   7.502   0.676   3.345  3.8928 -1.9914  0.5278
  126SOPE   C3813537   7.551   0.864   3.469  0.8809 -0.2677  0.2453
  126SOPE   H8X13538   7.456   0.875   3.525  0.1071 -1.3637 -0.7944
  126SOPE   H8Y13539   7.593   0.965   3.450 -0.1816  0.1588  0.0897
  126SOPE   C3913540   7.641   0.794   3.569 -0.2245 -0.4649 -0.2864
  126SOPE   H9X13541   7.684   0.859   3.648 -0.4425 -0.5988 -0.0540
  126SOPE   H9Y13542   7.733   0.753   3.523  1.4380 -0.1206  2.5340
  126SOPE  C31013543   7.590   0.674   3.636  0.3428  0.1315  0.1465
  126SOPE  H10X13544   7.557   0.615   3.549 -0.5287  0.0016  0.5572
  126SOPE  H10Y13545   7.496   0.687   3.694 -0.2885 -1.9280 -0.3442
  126SOPE  C31113546   7.702   0.600   3.719 -0.0174 -0.1294 -0.5547
  126SOPE  H11X13547   7.803   0.630   3.684 -1.3065  1.5732 -3.1102
  126SOPE  H11Y13548   7.699   0.493   3.688  0.5819  0.4354 -2.7702
  126SOPE  C31213549   7.687   0.603   3.872 -0.4350  0.0338  0.0454
  126SOPE  H12X13550   7.588   0.556   3.893 -1.0547  0.9175 -0.7811
  126SOPE  H12Y13551   7.693   0.706   3.912 -0.5736  1.1746 -2.6251
  126SOPE  C31313552   7.798   0.512   3.935 -0.6880  0.4645 -0.2618
  126SOPE  H13X13553   7.900   0.528   3.894 -0.1656 -0.9387  0.4523
  126SOPE  H13Y13554   7.770   0.409   3.905 -1.0413 -0.3201  2.5048
  126SOPE  C31413555   7.804   0.537   4.086  0.0102  0.0616 -0.0018
  126SOPE  H14X13556   7.702   0.544   4.130  0.5302  1.2463  1.1161
  126SOPE  H14Y13557   7.837   0.642   4.103  1.6210 -0.5399  0.7374
  126SOPE  C31513558   7.894   0.442   4.161  0.1317  0.0285  0.2926
  126SOPE  H15X13559   7.977   0.422   4.091 -0.1195  2.0759 -0.6513
  126SOPE  H15Y13560   7.841   0.344   4.169  1.5915 -0.6748  2.7405
  126SOPE  C31613561   7.942   0.498   4.293  0.5337  0.9687  0.6053
  126SOPE  H16X13562   7.859   0.514   4.364  0.5900  0.5411  0.7699
  126SOPE  H16Y13563   8.005   0.587   4.271  0.4872  0.7705 -0.3588
  126SOPE  C31713564   8.037   0.401   4.376  0.5468  0.8420  0.6965
  126SOPE  H17X13565   8.073   0.452   4.467  4.7726  1.3919 -1.0743
  126SOPE  H17Y13566   8.124   0.388   4.308  0.9274 -0.1829  1.3602
  126SOPE  C31813567   7.972   0.263   4.407 -0.7677 -0.2626 -0.2338
  126SOPE  H18X13568   7.968   0.189   4.324 -0.7034 -0.3805 -0.1308
  126SOPE  H18Y13569   7.872   0.276   4.454 -0.5693  0.2306  0.0556
  126SOPE  H18Z13570   8.042   0.224   4.483  1.3497 -1.0521 -2.4473
  127SOPE     N13571   6.842   6.575   2.185  0.9458  0.5218  0.3978
  127SOPE   HN113572   6.883   6.639   2.114  0.0677  0.4075 -0.2205
  127SOPE   HN213573   6.875   6.477   2.179  1.4999  0.5959  1.7326
  127SOPE   HN313574   6.741   6.567   2.166  0.8346  3.0722 -0.5415
  127SOPE   C1213575   6.864   6.606   2.334 -0.4260  0.1116  1.0356
  127SOPE  H12A13576   6.820   6.533   2.405  1.1755 -0.7904  1.1679
  127SOPE  H12B13577   6.806   6.700   2.341 -1.9482 -0.2557 -3.2337
  127SOPE   C1113578   7.014   6.626   2.359 -0.3480  0.0916 -0.6213
  127SOPE  H11A13579   7.063   6.528   2.342 -1.2789 -0.6880  0.9200
  127SOPE  H11B13580   7.019   6.638   2.470 -1.8614 -2.1060 -0.2493
  127SOPE     P13581   7.066   6.873   2.332 -0.4691 -0.2656  0.0043
  127SOPE   O1313582   6.930   6.920   2.347  0.5820 -0.2681 -0.0307
  127SOPE   O1413583   7.159   6.956   2.251 -0.4068 -0.1104 -0.3216
  127SOPE   O1213584   7.074   6.725   2.279 -0.2051 -0.1544  0.2450
  127SOPE   O1113585   7.128   6.857   2.477  0.1576 -0.7110  0.1101
  127SOPE    C113586   7.107   6.961   2.575 -0.9705  0.0859 -0.1073
  127SOPE    HA13587   7.038   6.929   2.655 -1.5140  2.0270  0.2471
  127SOPE    HB13588   7.070   7.055   2.528 -1.4122 -0.6298 -1.2044
  127SOPE    C213589   7.239   6.996   2.644 -0.7176  0.5954 -0.2585
  127SOPE    HS13590   7.317   7.024   2.570  1.7700  1.9040  2.6232
  127SOPE   O2113591   7.296   6.880   2.710  0.5493 -0.7492  0.6411
  127SOPE   C2113592   7.416   6.883   2.764 -0.3391  0.1114  0.1179
  127SOPE   O2213593   7.491   6.978   2.745 -0.2659 -0.1574  0.5402
  127SOPE   C2213594   7.444   6.761   2.843 -0.1592  0.0625  0.7215
  127SOPE   H2R13595   7.545   6.723   2.818 -0.0719 -0.1893  1.4261
  127SOPE   H2S13596   7.383   6.677   2.804 -0.1626  1.3637 -2.4045
  127SOPE    C313597   7.227   7.123   2.733 -0.2028 -0.6320  0.8689
  127SOPE    HX13598   7.194   7.206   2.668  3.0671  0.8053  0.8340
  127SOPE    HY13599   7.330   7.153   2.764  0.4983 -2.6116  0.6343
  127SOPE   O3113600   7.125   7.099   2.830  0.7526 -0.5633  0.1763
  127SOPE   C3113601   7.177   7.095   2.954  0.6263  0.6338  0.0589
  127SOPE   O3213602   7.295   7.105   2.983  0.5082 -0.1207  0.3547
  127SOPE   C3213603   7.060   7.058   3.043 -0.1927 -0.1904 -0.1249
  127SOPE   H2X13604   7.028   6.956   3.015 -3.2399  1.0897 -1.7563
  127SOPE   H2Y13605   6.966   7.104   3.006  0.5120  0.3265 -1.3325
  127SOPE   C2313606   7.426   6.773   2.995 -0.0233  0.2484 -0.0287
  127SOPE   H3R13607   7.333   6.821   3.032  1.1368  0.5392  2.7637
  127SOPE   H3S13608   7.499   6.845   3.039 -2.2113  2.8323 -0.3551
  127SOPE   C2413609   7.434   6.635   3.054  0.0081  0.0356  0.6807
  127SOPE   H4R13610   7.349   6.570   3.025  0.7069 -0.1878 -0.9611
  127SOPE   H4S13611   7.521   6.596   2.997  1.1778  1.5706  1.3116
  127SOPE   C2513612   7.454   6.635   3.204 -0.3717  0.0525 -0.0304
  127SOPE   H5R13613   7.542   6.703   3.214  1.0862 -1.6018 -1.0361
  127SOPE   H5S13614   7.376   6.687   3.262  1.3524  0.4634  2.0589
  127SOPE   C2613615   7.488   6.501   3.268  0.2037 -0.0902  0.0006
  127SOPE   H6R13616   7.403   6.438   3.236  1.5440 -0.0772 -4.0497
  127SOPE   H6S13617   7.579   6.465   3.217  1.4951  1.7313  0.9044
  127SOPE   C2713618   7.507   6.505   3.419 -0.2465 -0.9712 -0.5607
  127SOPE   H7R13619   7.433   6.566   3.475  0.4116 -2.4448  2.1211
  127SOPE   H7S13620   7.504   6.398   3.451  2.1446 -1.4899 -1.8266
  127SOPE   C2813621   7.645   6.565   3.457 -0.2427  0.8271 -0.3974
  127SOPE   H8R13622   7.710   6.524   3.377 -1.1241 -0.9993 -0.2487
  127SOPE   H8S13623   7.628   6.674   3.454 -0.8526  0.7830  0.7138
  127SOPE   C2913624   7.702   6.517   3.591  0.3017 -0.3011  0.2069
  127SOPE   H9113625   7.630   6.515   3.674  0.5840 -1.3347  0.4548
  127SOPE  C21013626   7.833   6.496   3.615 -0.0843  1.1172  0.3367
  127SOPE  H10113627   7.861   6.477   3.720  1.6258 -0.6155 -0.3800
  127SOPE  C21113628   7.944   6.489   3.512 -0.9016 -0.4164  0.5026
  127SOPE  H11R13629   8.029   6.557   3.534  0.2935 -1.8380  0.4729
  127SOPE  H11S13630   7.913   6.511   3.408  0.6115 -1.0814 -0.1185
  127SOPE  C21213631   8.025   6.351   3.503 -0.1082  0.4990 -0.2455
  127SOPE  H12R13632   8.096   6.357   3.417  0.5763  1.2591  0.3602
  127SOPE  H12S13633   7.951   6.269   3.487  1.0848 -0.8846  1.0429
  127SOPE  C21313634   8.107   6.326   3.639  0.1280  0.1389  0.0642
  127SOPE  H13R13635   8.047   6.359   3.727 -2.4324 -0.4726 -1.3635
  127SOPE  H13S13636   8.210   6.368   3.636  0.4759 -0.7201 -1.0821
  127SOPE  C21413637   8.140   6.179   3.655 -0.7408  0.3563 -0.2525
  127SOPE  H14R13638   8.206   6.164   3.743 -1.5714 -0.3494  0.2698
  127SOPE  H14S13639   8.210   6.145   3.577  1.1232  1.5510  0.8221
  127SOPE  C21513640   8.026   6.075   3.652 -0.1543  0.2884  0.3135
  127SOPE  H15R13641   7.965   6.086   3.559  1.1213 -0.2792 -0.6091
  127SOPE  H15S13642   7.958   6.086   3.740 -0.9317  1.3290 -0.3832
  127SOPE  C21613643   8.081   5.923   3.651 -0.3494  0.1982  0.2611
  127SOPE  H16R13644   8.154   5.906   3.569 -0.9601  1.2559 -0.5267
  127SOPE  H16S13645   7.999   5.852   3.627  1.2284 -2.0166  1.1063
  127SOPE  C21713646   8.147   5.890   3.780 -0.0020  0.1227 -0.2579
  127SOPE  H17R13647   8.079   5.907   3.866  0.1486  3.0241 -0.6289
  127SOPE  H17S13648   8.231   5.960   3.799  0.1758 -0.0628 -0.3558
  127SOPE  C21813649   8.208   5.751   3.780  0.3627  0.1570 -0.1781
  127SOPE  H18R13650   8.121   5.683   3.794  0.1712  0.1443 -1.3196
  127SOPE  H18S13651   8.284   5.736   3.860 -0.3729 -1.7890  0.1902
  127SOPE  H18T13652   8.256   5.729   3.683 -1.1343 -0.7189 -0.7518
  127SOPE   C3313653   7.082   7.071   3.195 -0.8026  0.2820  1.0216
  127SOPE   H3X13654   7.150   7.152   3.227  0.0987 -0.6435  1.4997
  127SOPE   H3Y13655   7.150   6.987   3.223  1.1830  0.5700 -2.3915
  127SOPE   C3413656   6.954   7.088   3.274  0.1270  0.0005 -0.0522
  127SOPE   H4X13657   6.899   7.177   3.236 -0.8933 -0.3563  0.5638
  127SOPE   H4Y13658   6.962   7.115   3.381  0.0549  1.8573 -0.4816
  127SOPE   C3513659   6.870   6.965   3.271  0.7815 -0.1817 -0.4566
  127SOPE   H5X13660   6.915   6.871   3.310  1.1825  1.1584  2.5945
  127SOPE   H5Y13661   6.850   6.950   3.162 -1.3956  1.7048 -0.3636
  127SOPE   C3613662   6.737   6.980   3.348 -0.1776  0.1023 -0.0975
  127SOPE   H6X13663   6.678   7.040   3.276  0.4582  0.0022 -0.7176
  127SOPE   H6Y13664   6.761   7.039   3.439 -2.6110 -0.8102  1.2287
  127SOPE   C3713665   6.659   6.856   3.383  0.1447  0.7919 -0.3542
  127SOPE   H7X13666   6.723   6.771   3.414 -0.4558  1.4265  2.9638
  127SOPE   H7Y13667   6.614   6.828   3.285 -1.2652  1.7086  0.0029
  127SOPE   C3813668   6.548   6.877   3.489  0.1131 -0.2620  0.4799
  127SOPE   H8X13669   6.512   6.776   3.518  0.2850 -1.3198 -2.6067
  127SOPE   H8Y13670   6.455   6.923   3.449 -1.7992 -2.3144  2.2961
  127SOPE   C3913671   6.601   6.934   3.619  0.2213  0.2564  0.0417
  127SOPE   H9X13672   6.607   7.044   3.607  4.4280  0.3526  1.3303
  127SOPE   H9Y13673   6.702   6.894   3.645 -0.1894  0.4805  2.1762
  127SOPE  C31013674   6.518   6.883   3.749 -0.7809  0.9810  0.2756
  127SOPE  H10X13675   6.513   6.773   3.736 -0.4186  0.9118  0.7152
  127SOPE  H10Y13676   6.413   6.918   3.741 -0.5817  1.3638 -0.8907
  127SOPE  C31113677   6.585   6.929   3.873 -0.2245  0.1815 -0.5970
  127SOPE  H11X13678   6.594   7.039   3.867 -2.1971  0.4105 -0.1093
  127SOPE  H11Y13679   6.688   6.887   3.883  0.0875  1.3842  1.9972
  127SOPE  C31213680   6.514   6.890   4.007  0.0569  0.1491 -0.0647
  127SOPE  H12X13681   6.526   6.779   4.006 -1.6072 -0.0755  0.9185
  127SOPE  H12Y13682   6.407   6.919   3.995  0.7999  2.4717 -1.7762
  127SOPE  C31313683   6.576   6.960   4.128  0.2102 -0.4179 -0.6655
  127SOPE  H13X13684   6.548   7.067   4.113  4.0432  0.8403 -0.0546
  127SOPE  H13Y13685   6.687   6.949   4.121  1.0976  3.9930  2.4090
  127SOPE  C31413686   6.529   6.915   4.262 -0.2493 -0.6845 -0.2267
  127SOPE  H14X13687   6.419   6.929   4.263 -0.2281 -0.0714 -2.1413
  127SOPE  H14Y13688   6.579   6.967   4.346  1.2829 -1.6392 -0.5201
  127SOPE  C31513689   6.548   6.768   4.296 -0.4476 -0.4866 -0.6729
  127SOPE  H15X13690   6.655   6.761   4.323 -0.5925  2.1369  0.9265
  127SOPE  H15Y13691   6.519   6.705   4.209 -0.9837 -0.7636 -0.3047
  127SOPE  C31613692   6.469   6.736   4.419  0.1923 -0.4994  0.1236
  127SOPE  H16X13693   6.361   6.757   4.407  0.4361 -0.2946 -2.1501
  127SOPE  H16Y13694   6.510   6.810   4.491  0.0807  0.2884 -0.6110
  127SOPE  C31713695   6.486   6.600   4.480  0.4911 -0.2881 -1.0768
  127SOPE  H17X13696   6.428   6.531   4.414  1.4402 -0.8895 -1.3127
  127SOPE  H17Y13697   6.428   6.594   4.574 -0.4284 -0.2418 -1.6313
  127SOPE  C31813698   6.630   6.549   4.516  0.3156 -0.6344  0.6133
  127SOPE  H18X13699   6.694   6.558   4.426  1.7328 -1.5840  1.4832
  127SOPE  H18Y13700   6.623   6.442   4.546 -0.6182 -0.6026  0.5147
  127SOPE  H18Z13701   6.681   6.604   4.598 -1.1054 -1.0539  1.8103
  128SOPE     N13702   4.386   6.006   2.307  0.0512 -0.3962 -0.3946
  128SOPE   HN113703   4.358   6.091   2.359  0.5137 -0.6389  0.2664
  128SOPE   HN213704   4.395   5.931   2.379  0.8323  0.3696  0.3215
  128SOPE   HN313705   4.482   6.008   2.269 -0.2585 -1.8879 -1.3784
  128SOPE   C1213706   4.282   5.957   2.208  0.4031  0.2158 -0.5123
  128SOPE  H12A13707   4.262   6.030   2.127  0.0058  1.3160  0.5642
  128SOPE  H12B13708   4.192   5.947   2.272 -0.3769 -1.2147 -1.7492
  128SOPE   C1113709   4.310   5.813   2.164 -0.4917  0.3978 -0.6100
  128SOPE  H11A13710   4.392   5.812   2.089  0.2090 -1.5882  0.1040
  128SOPE  H11B13711   4.220   5.778   2.109 -1.5685  0.2614  1.1464
  128SOPE     P13712   4.328   5.575   2.262 -0.8526  0.1729 -0.3521
  128SOPE   O1313713   4.451   5.521   2.333 -0.0510  0.1535  0.4453
  128SOPE   O1413714   4.313   5.539   2.118  0.3601  0.4132 -0.2028
  128SOPE   O1213715   4.339   5.731   2.275  0.0429 -0.2016 -0.0917
  128SOPE   O1113716   4.202   5.530   2.346 -0.3798 -0.0244 -0.0475
  128SOPE    C113717   4.099   5.628   2.382 -0.5333  0.3630 -0.3644
  128SOPE    HA13718   4.011   5.562   2.394  1.2123 -2.3707 -1.3935
  128SOPE    HB13719   4.089   5.706   2.303 -0.8725 -0.2479 -0.9302
  128SOPE    C213720   4.135   5.689   2.511 -0.5460 -0.7304  0.5727
  128SOPE    HS13721   4.229   5.746   2.494 -2.8105  3.0703 -0.6102
  128SOPE   O2113722   4.151   5.589   2.610  0.3456  0.0936  0.1081
  128SOPE   C2113723   4.260   5.597   2.680  0.3997  0.0808  0.1597
  128SOPE   O2213724   4.356   5.666   2.666 -0.0303  0.0035 -0.1368
  128SOPE   C2213725   4.249   5.480   2.794 -0.3645 -0.0154  0.2206
  128SOPE   H2R13726   4.308   5.395   2.753  2.1151  1.3415  0.7827
  128SOPE   H2S13727   4.141   5.454   2.802  0.0451 -1.9284 -0.0573
  128SOPE    C313728   4.025   5.792   2.553  0.3149 -1.1607 -0.0856
  128SOPE    HX13729   3.937   5.730   2.581  0.5021 -0.1946  3.0289
  128SOPE    HY13730   3.990   5.858   2.471  0.6338 -0.6307  0.1936
  128SOPE   O3113731   4.059   5.871   2.673  0.3804  0.7073  0.5564
  128SOPE   C3113732   4.132   5.982   2.646  0.2872 -0.2238  0.2523
  128SOPE   O3213733   4.180   6.007   2.536 -0.3698 -0.3416  0.4050
  128SOPE   C3213734   4.149   6.060   2.774 -0.3916 -0.1614 -0.1519
  128SOPE   H2X13735   4.133   5.997   2.865  1.5293 -0.3460  0.1095
  128SOPE   H2Y13736   4.073   6.141   2.770  2.2678  2.9103  3.5816
  128SOPE   C2313737   4.301   5.539   2.931  0.7860  0.1405  0.0544
  128SOPE   H3R13738   4.245   5.634   2.941 -3.0320 -1.6819 -1.5583
  128SOPE   H3S13739   4.411   5.552   2.939  0.9639 -0.7450 -0.7490
  128SOPE   C2413740   4.247   5.453   3.043  0.4086 -0.3891  0.7814
  128SOPE   H4R13741   4.137   5.434   3.045  0.0768  1.3397  0.1874
  128SOPE   H4S13742   4.294   5.354   3.021  0.8877  0.1842 -0.9434
  128SOPE   C2513743   4.280   5.515   3.173  0.0064  0.5709  1.3871
  128SOPE   H5R13744   4.384   5.554   3.163  0.3971 -0.2288  2.1600
  128SOPE   H5S13745   4.213   5.599   3.202  0.0489  0.6987  1.1112
  128SOPE   C2613746   4.267   5.417   3.290 -0.1900  0.4413 -0.1558
  128SOPE   H6R13747   4.162   5.381   3.298 -0.3429  0.6400 -1.0820
  128SOPE   H6S13748   4.321   5.321   3.279 -1.0522 -0.3513  1.9291
  128SOPE   C2713749   4.323   5.466   3.425 -0.7948  0.3927 -0.0179
  128SOPE   H7R13750   4.331   5.374   3.487 -1.5069 -1.0976 -2.0383
  128SOPE   H7S13751   4.426   5.499   3.399 -1.1304  1.2764 -0.2454
  128SOPE   C2813752   4.255   5.583   3.496  0.3480  0.0303 -0.2329
  128SOPE   H8R13753   4.313   5.591   3.590  1.0699 -2.0878 -0.4413
  128SOPE   H8S13754   4.258   5.678   3.439  1.0764  1.3710  1.9130
  128SOPE   C2913755   4.116   5.545   3.514  0.3170 -0.1582 -0.9353
  128SOPE   H9113756   4.056   5.578   3.427 -1.5953 -1.1219 -0.0467
  128SOPE  C21013757   4.065   5.462   3.608  0.5537  0.1273  1.2387
  128SOPE  H10113758   3.957   5.444   3.600  0.9617 -1.5099 -2.4663
  128SOPE  C21113759   4.148   5.388   3.712  0.4382 -0.0340 -0.2756
  128SOPE  H11R13760   4.229   5.452   3.754 -0.6202  1.0928  0.0840
  128SOPE  H11S13761   4.190   5.304   3.653  0.3241 -0.9557  0.9209
  128SOPE  C21213762   4.077   5.342   3.846 -0.4226 -0.0798 -0.5225
  128SOPE  H12R13763   4.151   5.292   3.912  0.8640  0.4164 -1.5354
  128SOPE  H12S13764   3.990   5.276   3.825 -1.4793  0.6072  1.5060
  128SOPE  C21313765   4.019   5.460   3.923 -0.3921 -0.4561  0.9316
  128SOPE  H13R13766   3.945   5.511   3.856 -1.3322 -0.8359  1.6532
  128SOPE  H13S13767   4.096   5.535   3.949 -1.4814  0.5099  1.4931
  128SOPE  C21413768   3.960   5.424   4.058  0.0984  0.5764  0.1949
  128SOPE  H14R13769   4.044   5.388   4.121  0.5334  0.5868 -0.3745
  128SOPE  H14S13770   3.887   5.340   4.061  1.3519 -0.6238 -1.4260
  128SOPE  C21513771   3.909   5.550   4.132  0.0686 -0.6204 -0.0260
  128SOPE  H15R13772   3.819   5.593   4.084 -0.6170 -0.4603  1.3380
  128SOPE  H15S13773   3.993   5.623   4.132 -1.5099  1.3308  1.0583
  128SOPE  C21613774   3.869   5.526   4.283 -1.0612 -0.2226  0.0462
  128SOPE  H16R13775   3.962   5.491   4.333 -0.5905  1.7643  0.6497
  128SOPE  H16S13776   3.790   5.448   4.286 -2.5756  1.1489 -2.0147
  128SOPE  C21713777   3.826   5.657   4.352 -0.0724 -0.0485 -0.2615
  128SOPE  H17R13778   3.716   5.674   4.345  0.2567  2.7821  0.0586
  128SOPE  H17S13779   3.873   5.732   4.285  1.6548 -2.1820 -1.5440
  128SOPE  C21813780   3.883   5.666   4.491 -0.3763  0.1896  0.0230
  128SOPE  H18R13781   3.846   5.754   4.549 -2.1846 -0.3881 -0.1780
  128SOPE  H18S13782   3.993   5.653   4.489 -0.3530 -0.0363 -3.2981
  128SOPE  H18T13783   3.855   5.569   4.537 -0.6518 -0.1596 -0.8608
  128SOPE   C3313784   4.292   6.117   2.787 -0.1859 -0.5580 -0.1699
  128SOPE   H3X13785   4.282   6.215   2.839 -1.2915 -0.8017  0.1158
  128SOPE   H3Y13786   4.351   6.140   2.697  0.1101  1.5860  0.5124
  128SOPE   C3413787   4.381   6.027   2.870 -0.0668  0.0485 -0.1146
  128SOPE   H4X13788   4.487   6.042   2.843  0.4972 -1.0032  1.3780
  128SOPE   H4Y13789   4.363   5.920   2.844 -0.0076  0.5007 -2.1486
  128SOPE   C3513790   4.367   6.047   3.025  0.1093  0.2249 -0.2228
  128SOPE   H5X13791   4.263   6.024   3.056 -0.1164 -1.6607 -2.1670
  128SOPE   H5Y13792   4.377   6.156   3.043  1.6194  0.3632 -1.6932
  128SOPE   C3613793   4.471   5.954   3.100 -0.4303  0.2955  0.6620
  128SOPE   H6X13794   4.577   5.985   3.083 -0.4714 -0.4028 -1.1624
  128SOPE   H6Y13795   4.462   5.854   3.053  0.3235  0.3511  0.3710
  128SOPE   C3713796   4.444   5.961   3.248  0.0231 -0.2664  0.7708
  128SOPE   H7X13797   4.347   5.916   3.277 -0.1195 -0.2903  0.2648
  128SOPE   H7Y13798   4.455   6.070   3.270  3.7175 -0.2931 -0.3158
  128SOPE   C3813799   4.549   5.884   3.328 -0.0596 -0.3573 -0.0505
  128SOPE   H8X13800   4.642   5.880   3.268  0.3979 -1.3450  0.7185
  128SOPE   H8Y13801   4.508   5.782   3.341 -0.7041  0.0105  0.9916
  128SOPE   C3913802   4.583   5.944   3.470 -0.0692 -0.1793  0.0987
  128SOPE   H9X13803   4.555   6.051   3.478  1.2734  0.1613  0.4699
  128SOPE   H9Y13804   4.692   5.934   3.488 -0.1573  2.2119  2.5109
  128SOPE  C31013805   4.508   5.872   3.582 -0.0180 -0.3588 -0.6993
  128SOPE  H10X13806   4.480   5.766   3.562 -0.2501 -0.2952 -0.7092
  128SOPE  H10Y13807   4.411   5.924   3.597  0.8028  0.2540  4.4844
  128SOPE  C31113808   4.584   5.873   3.722 -0.4414 -0.5169 -0.1769
  128SOPE  H11X13809   4.609   5.980   3.740 -3.9156  0.9103 -2.5837
  128SOPE  H11Y13810   4.675   5.810   3.716  0.0644  0.3034 -1.7319
  128SOPE  C31213811   4.492   5.823   3.839 -0.2804 -0.3282 -0.1949
  128SOPE  H12X13812   4.456   5.721   3.813  0.2574 -0.8793  1.1434
  128SOPE  H12Y13813   4.402   5.889   3.839 -1.1686 -1.5112  0.0065
  128SOPE  C31313814   4.561   5.820   3.977 -1.1469 -0.0212  0.2857
  128SOPE  H13X13815   4.594   5.924   3.997  0.2242 -0.5944  1.1758
  128SOPE  H13Y13816   4.647   5.750   3.965 -0.4157  0.4556  2.2105
  128SOPE  C31413817   4.471   5.771   4.091 -0.4781  0.1418 -0.2456
  128SOPE  H14X13818   4.543   5.768   4.176  1.2335 -0.9686 -1.6592
  128SOPE  H14Y13819   4.420   5.674   4.075 -3.3211  1.1469  1.9671
  128SOPE  C31513820   4.356   5.865   4.131  0.4089 -0.3587 -0.5791
  128SOPE  H15X13821   4.281   5.885   4.052 -0.7213  1.0188  0.7760
  128SOPE  H15Y13822   4.399   5.962   4.164  0.8015 -1.0440  1.0330
  128SOPE  C31613823   4.290   5.816   4.266 -0.1315 -0.2361 -0.2623
  128SOPE  H16X13824   4.372   5.779   4.330 -0.5883 -0.6102  0.1077
  128SOPE  H16Y13825   4.216   5.735   4.254 -0.7011  0.2043  0.2435
  128SOPE  C31713826   4.207   5.926   4.334  0.0693 -0.1095 -0.2050
  128SOPE  H17X13827   4.258   6.025   4.332  0.3759 -0.2771 -2.4157
  128SOPE  H17Y13828   4.192   5.914   4.444 -0.1052  1.2288 -0.0639
  128SOPE  C31813829   4.075   5.957   4.269  0.3824 -0.4782  0.5504
  128SOPE  H18X13830   4.011   5.867   4.263 -0.5355  0.1583  0.5891
  128SOPE  H18Y13831   4.092   5.990   4.164  0.1118 -0.8882  0.3753
  128SOPE  H18Z13832   4.014   6.039   4.313  0.9397  0.1700  0.1299
  129OSM      N13833   3.246   6.410   6.281 -0.6682  0.0691 -0.0175
  129OSM    C1513834   3.265   6.430   6.140  0.1188 -0.4294  0.8668
  129OSM   H15A13835   3.169   6.456   6.097 -0.5209  0.8208  2.9152
  129OSM   H15B13836   3.287   6.338   6.088 -1.7560 -0.9748  0.9832
  129OSM   H15C13837   3.331   6.509   6.106  0.4151 -1.3747 -0.8698
  129OSM    C1413838   3.387   6.380   6.338  0.5410 -0.4289  0.5397
  129OSM   H14A13839   3.377   6.366   6.444  1.2438 -1.1287  0.5294
  129OSM   H14B13840   3.451   6.465   6.322  1.3874 -1.0807  0.3730
  129OSM   H14C13841   3.431   6.289   6.298  0.6650 -0.1772  0.0992
  129OSM    C1313842   3.220   6.546   6.338 -0.4394  0.2677  0.2714
  129OSM   H13A13843   3.298   6.610   6.300 -1.8685  1.6068 -0.5117
  129OSM   H13B13844   3.219   6.540   6.446 -2.3878  0.9311  0.3144
  129OSM   H13C13845   3.123   6.585   6.313 -0.1913  0.7303  0.0237
  129OSM    C1213846   3.145   6.306   6.318 -0.2301  0.1612 -0.0078
  129OSM   H12A13847   3.140   6.304   6.425  0.8038 -0.2050  0.0418
  129OSM   H12B13848   3.181   6.211   6.281 -1.8140 -0.3243 -0.3915
  129OSM    C1113849   2.999   6.318   6.266  0.2015  0.9113  0.5911
  129OSM   H11A13850   2.943   6.223   6.272  1.0631  0.3128 -0.5465
  129OSM   H11B13851   3.012   6.314   6.156 -0.1662 -0.4765  0.5802
  129OSM      P13852   2.880   6.550   6.254 -0.0062  0.2510 -0.0689
  129OSM    O1313853   2.736   6.551   6.295  0.3425  0.2195  0.2502
  129OSM    O1413854   2.956   6.676   6.275 -0.7809  0.4955  0.3579
  129OSM    O1113855   2.889   6.517   6.102  0.0340  0.7194  0.3470
  129OSM    O1213856   2.943   6.426   6.329  0.8803 -0.1136 -0.0588
  129OSM    C1S13857   2.789   6.470   6.011  0.5289  0.1354  1.3000
  129OSM    H1S13858   2.684   6.502   6.030  0.5441  0.6241  0.5852
  129OSM    H1T13859   2.776   6.361   6.026 -1.7809  0.4662  2.1907
  129OSM     NF13860   2.707   6.461   5.773 -0.0440  0.2412 -0.2162
  129OSM    HNF13861   2.709   6.369   5.735 -1.7795  1.0067 -2.3137
  129OSM    C2S13862   2.819   6.498   5.860  0.3439 -0.0969  0.2260
  129OSM    H2S13863   2.826   6.609   5.854 -2.3620  0.0872 -1.0627
  129OSM    C3S13864   2.949   6.431   5.820 -0.4058  0.0989  0.0980
  129OSM    H3S13865   2.934   6.321   5.805  0.2845  0.0162  0.0130
  129OSM     O313866   3.058   6.451   5.908  0.0242  0.0723  0.2122
  129OSM    HO313867   3.019   6.490   5.986  1.9216 -2.1194  2.3924
  129OSM    C4S13868   2.989   6.475   5.684  0.1360  0.6184  0.1864
  129OSM    H4S13869   3.013   6.581   5.664  1.6024  0.3139  0.1916
  129OSM    C5S13870   2.980   6.392   5.573  0.3723  0.4976  0.2313
  129OSM    H5S13871   2.944   6.289   5.584  0.5888  0.4615  0.6020
  129OSM    C6S13872   3.017   6.440   5.436  0.2238  0.6198  0.2458
  129OSM    H6S13873   2.921   6.456   5.382  1.0093  2.4553 -0.6842
  129OSM    H6T13874   3.063   6.352   5.385 -0.5432 -0.4881  1.3960
  129OSM    C7S13875   3.095   6.569   5.423  0.5483  0.2445 -0.1731
  129OSM    H7S13876   3.193   6.540   5.467  0.0585  0.1810  0.8827
  129OSM    H7T13877   3.067   6.655   5.486  1.2770 -0.3195  0.9547
  129OSM    C8S13878   3.106   6.606   5.277 -0.4454 -0.3941  0.0934
  129OSM    H8S13879   3.104   6.511   5.220 -1.2424  0.5367 -1.5071
  129OSM    H8T13880   3.208   6.651   5.269 -0.8824  0.6320  0.0869
  129OSM    C9S13881   3.003   6.711   5.228  0.0831  0.6924  0.3512
  129OSM    H9S13882   3.017   6.807   5.281 -0.3776 -0.6776  3.1448
  129OSM    H9T13883   2.900   6.679   5.254 -0.9631  4.1902  0.9264
  129OSM   C10S13884   3.022   6.745   5.081 -0.3672  0.0514  0.0942
  129OSM   H10S13885   2.977   6.668   5.015  1.4690  0.7139 -2.0635
  129OSM   H10T13886   3.131   6.749   5.058 -0.7296  0.2652 -1.6940
  129OSM   C11S13887   2.950   6.875   5.038 -0.5463  0.4939  0.0280
  129OSM   H11S13888   2.976   6.964   5.100  1.7377 -0.3882  0.4673
  129OSM   H11T13889   2.840   6.867   5.045 -0.3354 -0.9972  4.2301
  129OSM   C12S13890   2.990   6.922   4.900  0.5454 -0.7208 -0.1436
  129OSM   H12S13891   2.930   6.862   4.829 -1.8088 -0.4396  1.5129
  129OSM   H12T13892   3.100   6.904   4.893  0.8818  1.2694 -0.6083
  129OSM   C13S13893   2.960   7.074   4.871 -0.1353 -0.3972  0.3552
  129OSM   H13S13894   3.031   7.143   4.921  2.1221 -1.0763 -1.7042
  129OSM   H13T13895   2.857   7.094   4.907 -0.6390 -1.2144 -0.5784
  129OSM   C14S13896   2.971   7.108   4.723 -0.2121  0.6479  0.1840
  129OSM   H14S13897   2.901   7.051   4.659  2.2113 -1.0928 -1.0946
  129OSM   H14T13898   3.070   7.079   4.681 -1.0862 -0.5407 -1.1430
  129OSM   C15S13899   2.970   7.259   4.690  0.0544  0.4115 -0.2800
  129OSM   H15S13900   3.060   7.296   4.743 -1.2719  0.7270  1.8702
  129OSM   H15T13901   2.883   7.304   4.742  0.8787  0.4355  1.0956
  129OSM   C16S13902   2.982   7.304   4.544  0.1829  0.7023  0.0528
  129OSM   H16S13903   2.892   7.291   4.480  1.5200  1.8720 -2.1834
  129OSM   H16T13904   3.065   7.256   4.488 -0.5554 -0.8754  0.2765
  129OSM   C17S13905   3.001   7.456   4.525 -0.0901 -0.5505  0.4987
  129OSM   H17S13906   3.017   7.492   4.421  0.1853  2.2785  1.4326
  129OSM   H17T13907   3.099   7.475   4.574 -0.7046  3.1681  0.5808
  129OSM   C18S13908   2.893   7.546   4.582 -0.2941  0.5889 -0.9909
  129OSM   H18S13909   2.809   7.547   4.510 -0.5578  0.2224 -0.6944
  129OSM   H18T13910   2.922   7.652   4.596  0.7007  0.2702 -0.4556
  129OSM   H18U13911   2.864   7.517   4.686  0.0023  0.1331 -1.0318
  129OSM    C1F13912   2.600   6.545   5.758 -0.5120  0.0956  0.5224
  129OSM     OF13913   2.606   6.660   5.801 -0.2361  0.0492 -0.5141
  129OSM    C2F13914   2.485   6.500   5.686  0.9163 -0.2196  0.4263
  129OSM    H2F13915   2.399   6.511   5.756 -2.3768  0.6058 -3.3288
  129OSM    H2G13916   2.498   6.391   5.669  1.1378 -0.0969 -0.2483
  129OSM    C3F13917   2.439   6.581   5.564 -0.3577 -0.1123  0.1852
  129OSM    H3F13918   2.404   6.685   5.582  1.0815  0.4287 -0.0519
  129OSM    H3G13919   2.355   6.516   5.532  0.7591 -0.3785 -2.4105
  129OSM    C4F13920   2.533   6.584   5.442  0.8150  0.1857 -0.2216
  129OSM    H4F13921   2.562   6.480   5.415 -0.3239  0.4799 -2.8434
  129OSM    H4G13922   2.624   6.644   5.460 -1.0206  3.7287 -1.7076
  129OSM    C5F13923   2.461   6.644   5.317  0.7430  0.2487  0.3517
  129OSM    H5F13924   2.458   6.754   5.335  1.9276 -0.1371  3.5518
  129OSM    H5G13925   2.356   6.611   5.300  1.0766  0.1239 -1.8049
  129OSM    C6F13926   2.525   6.621   5.179 -0.2969  0.5302  0.5263
  129OSM    H6F13927   2.528   6.513   5.154  3.9209 -0.1831  3.1490
  129OSM    H6G13928   2.629   6.657   5.194 -0.6719  1.7773  0.2816
  129OSM    C7F13929   2.459   6.711   5.073 -0.1135  0.3245  0.2620
  129OSM    H7F13930   2.441   6.813   5.112  1.2175  0.3426  0.9189
  129OSM    H7G13931   2.362   6.664   5.047  0.4762 -1.7351  1.4985
  129OSM    C8F13932   2.543   6.701   4.936 -1.2299 -0.1913 -0.2527
  129OSM    H8F13933   2.487   6.644   4.858 -0.4325  1.6777 -2.3047
  129OSM    H8G13934   2.629   6.632   4.944 -1.1901 -0.3748 -1.8849
  129OSM    C9F13935   2.590   6.838   4.881 -0.4030 -0.2536 -1.0250
  129OSM    H9F13936   2.541   6.926   4.924 -1.2574 -0.8723 -0.7154
  129OSM   C10F13937   2.641   6.845   4.759  0.3960  0.5604 -0.6068
  129OSM   H10F13938   2.679   6.945   4.737 -0.1495  1.0129  0.4450
  129OSM   C11F13939   2.669   6.727   4.673 -0.0072 -0.0769  0.0739
  129OSM   H11F13940   2.655   6.627   4.720  2.4316 -0.4069  0.2073
  129OSM   H11G13941   2.771   6.737   4.630  1.2415  0.9893  3.0680
  129OSM   C12F13942   2.574   6.719   4.549  0.4922  0.2091 -0.3304
  129OSM   H12F13943   2.613   6.644   4.478  0.6583 -1.2003  1.2022
  129OSM   H12G13944   2.576   6.817   4.496 -2.2046 -0.6093 -2.1951
  129OSM   C13F13945   2.424   6.701   4.588 -0.2195 -0.8328  0.2863
  129OSM   H13F13946   2.407   6.787   4.656 -1.0214 -0.7524 -0.0019
  129OSM   H13G13947   2.419   6.607   4.648 -0.8785  1.6364  4.4785
  129OSM   C14F13948   2.328   6.686   4.471  0.1681  0.2809  0.2565
  129OSM   H14F13949   2.363   6.754   4.390  1.3300  1.3361  1.6008
  129OSM   H14G13950   2.226   6.703   4.509 -0.0643 -1.5865  0.5932
  129OSM   C15F13951   2.335   6.539   4.415  0.0749  0.2795 -0.7856
  129OSM   H15F13952   2.325   6.462   4.495  1.3818  0.9260  0.0326
  129OSM   H15G13953   2.426   6.522   4.356  2.5534  0.7699  2.5752
  129OSM   C16F13954   2.214   6.515   4.324  0.0829  0.5763  0.2788
  129OSM   H16F13955   2.157   6.609   4.311 -0.6935  0.3599  1.9389
  129OSM   H16G13956   2.151   6.431   4.359 -1.1176  1.5357  0.4754
  129OSM   C17F13957   2.274   6.469   4.177  0.5256 -0.2589  0.3589
  129OSM   H17F13958   2.322   6.370   4.191 -0.6391 -1.0161 -0.8605
  129OSM   H17G13959   2.353   6.540   4.141 -1.4846  0.2436 -3.5864
  129OSM   C18F13960   2.174   6.465   4.062 -0.2750 -0.2321  0.1233
  129OSM   H18F13961   2.086   6.399   4.078  0.4533 -1.2947 -0.0893
  129OSM   H18G13962   2.217   6.433   3.964  0.3221 -2.3306  0.9977
  129OSM   H18H13963   2.121   6.562   4.051 -2.2317 -1.3357 -0.7408
  130OSM      N13964   1.374   1.681   6.456  0.1619  0.3120  0.9429
  130OSM    C1513965   1.248   1.673   6.397  0.5839 -0.5954  0.8847
  130OSM   H15A13966   1.168   1.675   6.470  0.3312 -0.9295  0.6179
  130OSM   H15B13967   1.232   1.583   6.340 -0.9576 -0.5837  1.2756
  130OSM   H15C13968   1.229   1.747   6.320 -0.4160 -1.0276  0.7016
  130OSM    C1413969   1.373   1.809   6.532  0.1158  0.8386 -0.3629
  130OSM   H14A13970   1.459   1.821   6.597 -1.3823  0.0256  1.8941
  130OSM   H14B13971   1.292   1.803   6.602 -1.1774  0.4452 -1.8490
  130OSM   H14C13972   1.351   1.896   6.472 -0.0845  1.3561  0.4474
  130OSM    C1313973   1.374   1.559   6.540 -0.3391 -0.0208  0.6753
  130OSM   H13A13974   1.442   1.574   6.623  0.7605 -0.5780 -0.0944
  130OSM   H13B13975   1.406   1.474   6.482  0.6812 -0.2578  1.5562
  130OSM   H13C13976   1.280   1.540   6.588 -1.0004 -1.1870 -0.9927
  130OSM    C1213977   1.493   1.684   6.355  0.0064  0.1105  0.2403
  130OSM   H12A13978   1.468   1.759   6.281 -3.1719 -2.2039 -1.2541
  130OSM   H12B13979   1.498   1.589   6.304  0.7020 -1.4151  2.9781
  130OSM    C1113980   1.638   1.709   6.418  1.0161 -0.1182  0.0234
  130OSM   H11A13981   1.639   1.808   6.468 -1.4467 -0.9504  1.9405
  130OSM   H11B13982   1.704   1.711   6.329 -1.3940  1.1957 -1.8488
  130OSM      P13983   1.702   1.459   6.460 -0.2837  0.0696  0.2965
  130OSM    O1313984   1.759   1.388   6.578  0.7190  0.0078 -0.9433
  130OSM    O1413985   1.587   1.391   6.395  1.0455 -0.1052 -0.0270
  130OSM    O1113986   1.811   1.493   6.357  0.1816  0.4226 -0.2884
  130OSM    O1213987   1.670   1.607   6.506 -0.6923 -0.2651 -0.0004
  130OSM    C1S13988   1.864   1.391   6.272  0.1886  0.8058  0.6303
  130OSM    H1S13989   1.807   1.296   6.276  1.2540  0.1196 -0.0489
  130OSM    H1T13990   1.967   1.362   6.300  0.4372 -1.3412 -2.0958
  130OSM     NF13991   1.895   1.313   6.040  0.3596 -0.5883 -0.3144
  130OSM    HNF13992   1.983   1.301   5.994 -0.0601 -1.8675 -0.8409
  130OSM    C2S13993   1.865   1.430   6.115  0.6960  0.4255  0.7343
  130OSM    H2S13994   1.765   1.469   6.087  1.2734  1.0414 -0.5306
  130OSM    C3S13995   1.975   1.543   6.103 -0.1092 -0.3044  0.3952
  130OSM    H3S13996   2.073   1.504   6.138 -0.6937 -1.5165  0.7446
  130OSM     O313997   1.966   1.667   6.172  0.1345 -0.3610  0.4177
  130OSM    HO313998   1.903   1.648   6.242 -1.4228  2.7280  0.0382
  130OSM    C4S13999   2.010   1.579   5.950  0.0036  0.3958 -0.2007
  130OSM    H4S14000   2.094   1.515   5.918  1.7385  1.7086  1.4332
  130OSM    C5S14001   1.959   1.673   5.872 -0.2326  0.7251  0.7949
  130OSM    H5S14002   1.887   1.739   5.921  1.1034  2.3900  0.6305
  130OSM    C6S14003   2.016   1.707   5.737 -0.1538 -0.1366  0.5803
  130OSM    H6S14004   2.023   1.817   5.721 -1.1851 -0.2109 -0.5437
  130OSM    H6T14005   1.934   1.681   5.667 -0.5815 -1.4440  1.5213
  130OSM    C7S14006   2.156   1.655   5.695 -0.2973  0.0546 -0.0360
  130OSM    H7S14007   2.163   1.545   5.708  0.1972 -0.6361 -4.5424
  130OSM    H7T14008   2.236   1.687   5.765 -0.4054  1.8163 -0.6712
  130OSM    C8S14009   2.185   1.683   5.548 -0.8113  0.4935  0.3740
  130OSM    H8S14010   2.291   1.656   5.527 -1.1264  0.3812 -1.2595
  130OSM    H8T14011   2.191   1.794   5.536  2.3675  0.2905 -1.1579
  130OSM    C9S14012   2.091   1.621   5.444 -0.5890  0.0618 -0.3712
  130OSM    H9S14013   1.984   1.648   5.454 -1.2351 -2.0533 -1.0757
  130OSM    H9T14014   2.095   1.510   5.454  0.0950  0.2618  2.9543
  130OSM   C10S14015   2.122   1.659   5.296  0.2894 -0.1739 -0.0723
  130OSM   H10S14016   2.217   1.604   5.277 -0.0460 -0.2331 -1.7027
  130OSM   H10T14017   2.147   1.767   5.295  0.2723 -0.1727 -0.2555
  130OSM   C11S14018   2.009   1.633   5.200  0.4500 -0.0048  0.2341
  130OSM   H11S14019   1.931   1.711   5.212 -0.7960 -1.3153  0.9304
  130OSM   H11T14020   1.959   1.542   5.240  1.8061 -0.8926 -0.0043
  130OSM   C12S14021   2.042   1.611   5.053  0.7140 -0.6264 -0.9560
  130OSM   H12S14022   1.951   1.564   5.010 -1.3231  0.5991  1.7042
  130OSM   H12T14023   2.120   1.532   5.054  1.7479  0.3662  0.2958
  130OSM   C13S14024   2.073   1.743   4.972  0.2478  0.4057  0.4968
  130OSM   H13S14025   2.180   1.760   4.996  0.6843 -1.9047  0.4150
  130OSM   H13T14026   2.005   1.824   5.007  0.3809  0.0726  1.5865
  130OSM   C14S14027   2.054   1.712   4.829  0.5515 -0.5058 -0.1336
  130OSM   H14S14028   1.947   1.689   4.813  0.5291 -1.6474  1.3842
  130OSM   H14T14029   2.119   1.624   4.811 -0.6585 -1.1593 -1.4503
  130OSM   C15S14030   2.109   1.828   4.742  0.4675  0.1793  0.0713
  130OSM   H15S14031   2.215   1.838   4.775  0.0023 -1.2787  2.2556
  130OSM   H15T14032   2.053   1.920   4.767  1.1183 -0.2196  3.5621
  130OSM   C16S14033   2.101   1.802   4.592  0.6258  0.3414  0.6521
  130OSM   H16S14034   1.999   1.762   4.571 -0.8938  4.2772 -0.3489
  130OSM   H16T14035   2.155   1.708   4.568 -1.0923 -0.4880 -0.1354
  130OSM   C17S14036   2.136   1.923   4.508 -0.3612 -0.5785 -0.4003
  130OSM   H17S14037   2.245   1.942   4.518 -0.6089  1.5273 -1.1197
  130OSM   H17T14038   2.085   2.009   4.557 -1.4762  0.5619 -3.3595
  130OSM   C18S14039   2.105   1.904   4.360 -0.5106  0.6357  0.7666
  130OSM   H18S14040   1.998   1.885   4.342 -0.0581  0.5583 -2.4666
  130OSM   H18T14041   2.151   1.820   4.305  1.8958  1.5954  1.1569
  130OSM   H18U14042   2.126   1.998   4.304  0.3907  0.8430  1.4161
  130OSM    C1F14043   1.808   1.208   6.045 -0.2451 -0.4647 -0.2566
  130OSM     OF14044   1.691   1.223   6.072  0.4344 -0.3713 -0.3518
  130OSM    C2F14045   1.863   1.067   6.008 -0.2334 -0.3166  0.8290
  130OSM    H2F14046   1.865   0.999   6.096 -1.2146  0.2085  1.2700
  130OSM    H2G14047   1.970   1.084   5.982 -0.4317 -0.0178  0.1807
  130OSM    C3F14048   1.791   0.999   5.885  0.9176 -0.1524  0.5711
  130OSM    H3F14049   1.693   1.049   5.878  2.0751  2.0187 -1.3175
  130OSM    H3G14050   1.767   0.894   5.913  1.0508 -0.2743  0.2396
  130OSM    C4F14051   1.878   0.998   5.760 -0.3181 -0.4167 -0.6562
  130OSM    H4F14052   1.826   0.924   5.695 -0.3167  1.1552 -2.4962
  130OSM    H4G14053   1.979   0.954   5.778 -0.3942 -0.8867 -1.3497
  130OSM    C5F14054   1.899   1.132   5.694  0.2271  0.7550 -0.0959
  130OSM    H5F14055   1.944   1.206   5.764 -0.6303  4.4098 -3.0416
  130OSM    H5G14056   1.803   1.177   5.658  0.3697 -0.1608 -1.6924
  130OSM    C6F14057   1.994   1.145   5.568  0.2675 -0.6850 -0.2622
  130OSM    H6F14058   2.099   1.116   5.592  1.8712  2.4897 -2.7267
  130OSM    H6G14059   1.996   1.254   5.548  1.0272  0.1069  3.3884
  130OSM    C7F14060   1.959   1.047   5.452 -0.0672  0.1024  0.1225
  130OSM    H7F14061   1.854   1.037   5.418 -0.0013 -0.7516  0.1437
  130OSM    H7G14062   1.982   0.949   5.500  1.3756 -0.1785 -1.0647
  130OSM    C8F14063   2.053   1.060   5.330  0.3418  0.0349 -0.1994
  130OSM    H8F14064   2.049   0.967   5.269  1.2401  0.7035 -1.3360
  130OSM    H8G14065   2.158   1.066   5.366  0.0461 -0.9523  0.8636
  130OSM    C9F14066   2.020   1.177   5.246  0.3081  0.3013 -0.3040
  130OSM    H9F14067   2.009   1.268   5.308  0.1428  1.5678 -2.1045
  130OSM   C10F14068   2.003   1.189   5.112 -0.0610 -0.3608 -0.4212
  130OSM   H10F14069   1.991   1.292   5.076 -0.2347  0.1014  0.8893
  130OSM   C11F14070   2.010   1.080   5.010  0.1635 -0.1997 -0.5995
  130OSM   H11F14071   1.910   1.073   4.963 -0.0747 -0.2685 -0.0843
  130OSM   H11G14072   2.031   0.979   5.051 -0.8971 -0.4076 -0.5489
  130OSM   C12F14073   2.117   1.111   4.906  0.5068  0.0647 -0.5222
  130OSM   H12F14074   2.109   1.025   4.836  0.8089 -0.5524  0.1831
  130OSM   H12G14075   2.216   1.088   4.951 -0.2094 -0.1739  0.9831
  130OSM   C13F14076   2.118   1.242   4.836  0.4481  0.1297  0.0922
  130OSM   H13F14077   2.201   1.228   4.763  1.6908 -0.2738  1.5258
  130OSM   H13G14078   2.144   1.324   4.907  0.1001  1.0071 -0.7612
  130OSM   C14F14079   1.981   1.265   4.762 -0.6711  0.3647  0.2277
  130OSM   H14F14080   1.907   1.297   4.838 -0.1009  1.2665  0.4131
  130OSM   H14G14081   1.948   1.169   4.716  1.4969  0.5241 -1.8593
  130OSM   C15F14082   1.994   1.363   4.647  0.0915  0.7828  0.0756
  130OSM   H15F14083   2.074   1.324   4.580 -1.9691 -0.3263 -1.8908
  130OSM   H15G14084   2.037   1.462   4.674 -1.6092  1.2495  1.1800
  130OSM   C16F14085   1.867   1.365   4.556  0.9665  0.5247 -0.2022
  130OSM   H16F14086   1.784   1.384   4.627  0.3791  0.3654 -0.8409
  130OSM   H16G14087   1.837   1.265   4.516 -1.1668  1.4084 -0.9142
  130OSM   C17F14088   1.866   1.478   4.458 -0.4933  0.5691 -0.7363
  130OSM   H17F14089   1.955   1.501   4.395 -0.2237 -0.5062 -0.7755
  130OSM   H17G14090   1.841   1.559   4.530  0.9403 -0.9262  1.5692
  130OSM   C18F14091   1.755   1.465   4.357  0.0056 -0.8013 -0.0622
  130OSM   H18F14092   1.775   1.377   4.292  0.7174 -1.4269  0.9732
  130OSM   H18G14093   1.748   1.556   4.294  2.3076 -0.4916  0.0402
  130OSM   H18H14094   1.658   1.440   4.407 -0.4178  0.2260 -0.3462
  131OSM      N14095   1.569   6.322   6.694  0.3042  0.4493  0.0556
  131OSM    C1514096   1.586   6.309   6.843  0.1445  0.7559  0.3855
  131OSM   H15A14097   1.689   6.291   6.872  0.5730  1.2293 -0.7852
  131OSM   H15B14098   1.518   6.246   6.899 -1.1930  2.3868  0.6500
  131OSM   H15C14099   1.570   6.402   6.894 -0.6637 -0.0877  1.7436
  131OSM    C1414100   1.437   6.375   6.673 -0.3442 -0.1177 -0.5629
  131OSM   H14A14101   1.416   6.472   6.717 -1.0815 -0.2951 -0.5171
  131OSM   H14B14102   1.361   6.309   6.714  1.3573 -3.5349 -2.5067
  131OSM   H14C14103   1.410   6.390   6.570 -0.7555 -0.1060 -0.4558
  131OSM    C1314104   1.661   6.411   6.623  0.0160  0.3476 -0.1608
  131OSM   H13A14105   1.759   6.377   6.652 -0.1439 -0.3819 -0.4308
  131OSM   H13B14106   1.651   6.517   6.638 -0.3010  0.0143  2.3158
  131OSM   H13C14107   1.657   6.393   6.516 -0.1767 -0.5292 -0.0196
  131OSM    C1214108   1.574   6.182   6.630 -0.3817  0.7736  0.2678
  131OSM   H12A14109   1.502   6.112   6.669 -0.6139  0.6359 -0.3991
  131OSM   H12B14110   1.673   6.142   6.643 -0.0018  0.7692 -2.0838
  131OSM    C1114111   1.544   6.172   6.474  0.4161  0.2842 -0.3517
  131OSM   H11A14112   1.459   6.236   6.440 -0.1464  0.2980  0.9987
  131OSM   H11B14113   1.505   6.070   6.457  4.2074 -1.8284  2.3779
  131OSM      P14114   1.766   6.080   6.389  0.5517 -0.1279  0.0941
  131OSM    O1314115   1.888   6.115   6.315 -0.3190 -0.5238 -0.2973
  131OSM    O1414116   1.783   6.013   6.523 -0.0311 -0.0373  0.1025
  131OSM    O1114117   1.701   5.962   6.300  0.4505 -1.0735  0.0577
  131OSM    O1214118   1.659   6.198   6.388 -0.7804  0.4322 -0.5339
  131OSM    C1S14119   1.634   5.996   6.180  0.6633  0.4290  0.2597
  131OSM    H1S14120   1.585   6.095   6.173 -2.5404 -1.1238 -1.3692
  131OSM    H1T14121   1.537   5.942   6.174  0.3088  1.0281  0.5396
  131OSM     NF14122   1.668   6.049   5.944  0.7563 -0.6046 -0.0897
  131OSM    HNF14123   1.627   6.003   5.866  2.2414 -1.2709 -0.5139
  131OSM    C2S14124   1.722   5.975   6.058 -0.2862 -0.6433  0.7219
  131OSM    H2S14125   1.825   6.008   6.081  0.0201 -0.2285 -1.0950
  131OSM    C3S14126   1.731   5.823   6.036 -0.2325  0.8592  0.3854
  131OSM    H3S14127   1.629   5.794   6.005 -0.3136  1.1565  0.3652
  131OSM     O314128   1.754   5.753   6.154 -0.3507  0.3425 -0.3339
  131OSM    HO314129   1.694   5.795   6.217 -2.2044 -4.2875  1.4450
  131OSM    C4S14130   1.824   5.777   5.926 -0.0183 -0.3849  0.1693
  131OSM    H4S14131   1.931   5.800   5.939 -0.1721 -0.5226  1.7922
  131OSM    C5S14132   1.781   5.708   5.820 -0.4597  0.5800 -0.1166
  131OSM    H5S14133   1.678   5.668   5.818 -0.2823 -0.1661  2.6110
  131OSM    C6S14134   1.874   5.651   5.718  0.2732 -0.3258  0.4479
  131OSM    H6S14135   1.863   5.541   5.706 -0.2162 -0.3377  0.9651
  131OSM    H6T14136   1.982   5.661   5.741  0.8104 -0.5477 -1.7855
  131OSM    C7S14137   1.865   5.700   5.572  0.2013 -0.0021 -0.4621
  131OSM    H7S14138   1.860   5.811   5.577 -2.5082 -0.0995  1.8009
  131OSM    H7T14139   1.762   5.695   5.529  0.2494  3.3990 -1.2823
  131OSM    C8S14140   1.966   5.633   5.480 -0.5105 -0.0470  0.2092
  131OSM    H8S14141   1.968   5.524   5.501 -2.2105 -0.1651 -0.0856
  131OSM    H8T14142   2.057   5.693   5.498 -2.2025  2.7965 -0.0684
  131OSM    C9S14143   1.932   5.628   5.331  0.2406  0.3938  0.2798
  131OSM    H9S14144   1.823   5.612   5.315  0.1563  1.9566 -1.0226
  131OSM    H9T14145   1.963   5.532   5.285 -1.3474 -0.0129 -0.0103
  131OSM   C10S14146   1.976   5.745   5.246 -0.1539  0.2094 -0.0156
  131OSM   H10S14147   2.085   5.765   5.258  0.1213 -1.2814  0.2815
  131OSM   H10T14148   1.933   5.839   5.284  1.0880  1.0802 -0.7042
  131OSM   C11S14149   1.948   5.736   5.091  0.0774  0.3625 -0.4878
  131OSM   H11S14150   1.847   5.692   5.077  0.0106  0.2127  0.3918
  131OSM   H11T14151   2.021   5.658   5.059  0.1072 -0.6295  1.7736
  131OSM   C12S14152   1.982   5.868   5.012  0.2092 -0.2998 -0.1503
  131OSM   H12S14153   2.086   5.900   5.031 -0.2383  1.7160 -0.8457
  131OSM   H12T14154   1.910   5.951   5.031 -2.1745 -1.2683 -3.8795
  131OSM   C13S14155   1.982   5.832   4.859 -0.0958 -0.7198 -0.8236
  131OSM   H13S14156   2.030   5.734   4.839  1.6281  0.0702 -0.7425
  131OSM   H13T14157   2.040   5.914   4.812 -1.2826 -0.2285 -1.4654
  131OSM   C14S14158   1.841   5.835   4.797  0.5104 -0.2690 -0.1426
  131OSM   H14S14159   1.812   5.942   4.793 -2.5371 -1.0336 -0.6444
  131OSM   H14T14160   1.767   5.792   4.868 -0.5734  0.1786 -0.9716
  131OSM   C15S14161   1.829   5.761   4.667 -0.1565 -0.1951  0.2850
  131OSM   H15S14162   1.811   5.655   4.694 -0.4871 -0.0078  0.8058
  131OSM   H15T14163   1.927   5.765   4.616 -1.1180 -1.4348 -1.8074
  131OSM   C16S14164   1.722   5.811   4.572  0.4886 -0.1797 -1.1547
  131OSM   H16S14165   1.756   5.911   4.538 -0.7677  0.2830 -1.1070
  131OSM   H16T14166   1.625   5.817   4.625 -0.5276 -2.6779 -2.5457
  131OSM   C17S14167   1.695   5.734   4.448  0.7962  0.6837 -0.9739
  131OSM   H17S14168   1.681   5.629   4.482  0.3354  0.6087 -1.3773
  131OSM   H17T14169   1.791   5.732   4.393  2.4237 -1.0316  1.7069
  131OSM   C18S14170   1.580   5.789   4.359  0.0217  0.2244 -0.0645
  131OSM   H18S14171   1.490   5.792   4.424  0.4159  0.6994  0.4628
  131OSM   H18T14172   1.564   5.732   4.264  1.6104  0.6890 -0.6465
  131OSM   H18U14173   1.597   5.894   4.327  0.6679 -0.5078 -2.3873
  131OSM    C1F14174   1.670   6.184   5.942 -0.9720 -0.0799  0.3548
  131OSM     OF14175   1.734   6.246   6.033 -0.4278  0.7099 -0.4148
  131OSM    C2F14176   1.599   6.241   5.828  0.4171  0.4550 -0.3730
  131OSM    H2F14177   1.492   6.222   5.855  0.7072 -0.4776  0.2002
  131OSM    H2G14178   1.614   6.185   5.733  0.5397 -0.9800  0.4534
  131OSM    C3F14179   1.619   6.391   5.804 -0.0476 -0.3862 -0.4297
  131OSM    H3F14180   1.724   6.416   5.779 -0.5420  0.2997 -1.9329
  131OSM    H3G14181   1.587   6.454   5.890 -1.5049 -0.6198 -0.7825
  131OSM    C4F14182   1.544   6.444   5.677  1.0499 -0.3369  0.2358
  131OSM    H4F14183   1.461   6.507   5.715  0.5946 -0.6591 -0.2072
  131OSM    H4G14184   1.499   6.360   5.621 -2.1600  0.9185  0.7181
  131OSM    C5F14185   1.649   6.511   5.586  0.1007 -0.0142  0.9289
  131OSM    H5F14186   1.721   6.433   5.552 -1.2640 -0.8109 -0.2726
  131OSM    H5G14187   1.702   6.591   5.640  0.5504  0.6936 -0.5131
  131OSM    C6F14188   1.602   6.560   5.449  0.4247  0.2705  0.4154
  131OSM    H6F14189   1.516   6.624   5.481  0.0338 -0.9289  1.8988
  131OSM    H6G14190   1.554   6.480   5.389  1.8811 -0.6757  0.4828
  131OSM    C7F14191   1.704   6.627   5.364  0.0081  0.8749  0.4537
  131OSM    H7F14192   1.805   6.586   5.385 -1.8923 -4.9353  0.2779
  131OSM    H7G14193   1.699   6.736   5.384 -1.0302  1.0871 -0.8217
  131OSM    C8F14194   1.690   6.609   5.211 -0.0853  0.0724 -0.0653
  131OSM    H8F14195   1.692   6.500   5.191 -1.9345  0.0985 -0.6511
  131OSM    H8G14196   1.778   6.660   5.167  0.5150 -0.9432 -0.0488
  131OSM    C9F14197   1.563   6.670   5.175  0.1085 -0.5946 -0.0041
  131OSM    H9F14198   1.474   6.622   5.217  0.2871  0.7719  2.0836
  131OSM   C10F14199   1.546   6.764   5.083 -0.3252 -0.0174  0.5074
  131OSM   H10F14200   1.445   6.794   5.052 -1.0176 -3.2998 -0.8702
  131OSM   C11F14201   1.651   6.827   4.987  1.0274  0.3466  0.4613
  131OSM   H11F14202   1.756   6.810   5.019  1.5577  1.4762 -0.6184
  131OSM   H11G14203   1.634   6.936   4.985  1.3455  0.4598  2.1890
  131OSM   C12F14204   1.640   6.764   4.843 -0.0541  0.2118 -0.7653
  131OSM   H12F14205   1.544   6.796   4.799 -0.8051 -0.4507  0.3495
  131OSM   H12G14206   1.637   6.653   4.842 -1.6498  0.2460 -0.9663
  131OSM   C13F14207   1.748   6.819   4.759 -0.4317  0.1063  0.5508
  131OSM   H13F14208   1.839   6.776   4.805  0.0786 -1.9652 -2.1502
  131OSM   H13G14209   1.740   6.930   4.753 -1.8080  0.0344  0.6183
  131OSM   C14F14210   1.739   6.760   4.617 -0.1019 -0.4869 -0.4983
  131OSM   H14F14211   1.640   6.788   4.575 -0.0896  1.0203  0.3881
  131OSM   H14G14212   1.741   6.649   4.614 -3.3625 -0.6266 -2.7494
  131OSM   C15F14213   1.858   6.806   4.524  0.5824 -0.2828 -0.1395
  131OSM   H15F14214   1.950   6.777   4.579  0.2183 -1.6312 -0.2087
  131OSM   H15G14215   1.862   6.916   4.511 -0.7457 -0.2229 -0.1270
  131OSM   C16F14216   1.847   6.740   4.381 -0.1870  0.3955 -0.0031
  131OSM   H16F14217   1.747   6.740   4.333  0.1068 -2.0520 -0.7157
  131OSM   H16G14218   1.881   6.635   4.388 -0.6188  0.3117  1.1312
  131OSM   C17F14219   1.939   6.808   4.281  0.8943 -0.7919 -0.2778
  131OSM   H17F14220   1.954   6.743   4.192  1.9018  0.9464 -1.4330
  131OSM   H17G14221   2.037   6.837   4.324 -1.1183 -0.0078  4.4193
  131OSM   C18F14222   1.872   6.921   4.210 -0.5150 -0.0813 -0.3147
  131OSM   H18F14223   1.867   7.012   4.273  0.2132  0.3273 -0.8287
  131OSM   H18G14224   1.768   6.902   4.177 -0.3904 -0.8806 -0.2755
  131OSM   H18H14225   1.921   6.961   4.118 -0.3280 -3.7120 -1.9667
  132OSM      N14226   2.097   1.719   6.627  0.2285 -0.2870  0.1232
  132OSM    C1514227   2.126   1.647   6.500  0.4276  0.7760  0.1704
  132OSM   H15A14228   2.077   1.705   6.424 -1.8649  0.4119  1.2999
  132OSM   H15B14229   2.092   1.544   6.499  2.5326  0.0031 -1.3315
  132OSM   H15C14230   2.232   1.656   6.477  0.6628 -0.0443  0.8639
  132OSM    C1414231   1.948   1.712   6.658  0.2770  0.4927 -0.3276
  132OSM   H14A14232   1.884   1.760   6.586 -1.1509 -1.7964 -0.6878
  132OSM   H14B14233   1.923   1.744   6.758 -1.2998  0.4984 -0.7049
  132OSM   H14C14234   1.916   1.609   6.646 -0.2517  0.6940 -0.6459
  132OSM    C1314235   2.172   1.650   6.734 -0.1108 -0.5080 -0.0033
  132OSM   H13A14236   2.280   1.656   6.725  0.1539 -1.8567  1.7826
  132OSM   H13B14237   2.159   1.544   6.748  1.2355 -0.5053  1.6045
  132OSM   H13C14238   2.147   1.680   6.835 -0.7646 -0.3591 -0.2033
  132OSM    C1214239   2.129   1.868   6.620  0.4361  1.1610  0.1596
  132OSM   H12A14240   2.078   1.911   6.705  0.7818 -1.9167  2.0974
  132OSM   H12B14241   2.075   1.899   6.533  0.1648  0.8481  0.2133
  132OSM    C1114242   2.273   1.903   6.623 -0.3848  0.1426  0.2119
  132OSM   H11A14243   2.322   1.858   6.534  1.0032 -0.0178  1.0221
  132OSM   H11B14244   2.312   1.866   6.721 -0.1634  1.0530  0.4791
  132OSM      P14245   2.395   2.126   6.681 -0.7282  0.5301  0.0525
  132OSM    O1314246   2.379   2.271   6.646 -0.2034  0.4118  0.0168
  132OSM    O1414247   2.402   2.092   6.822 -0.3983 -0.1165  0.4439
  132OSM    O1114248   2.519   2.072   6.595 -0.3010 -0.2450 -0.1486
  132OSM    O1214249   2.273   2.047   6.615 -0.1384  0.4889  0.2190
  132OSM    C1S14250   2.526   2.112   6.463 -0.6650  0.1418  0.6646
  132OSM    H1S14251   2.529   2.222   6.452  2.1676 -0.0723 -1.8680
  132OSM    H1T14252   2.433   2.082   6.410 -0.4172  2.7554 -1.4524
  132OSM     NF14253   2.629   2.074   6.241 -1.0663 -0.1997  0.1493
  132OSM    HNF14254   2.613   1.989   6.191 -0.8396  0.3167 -0.8225
  132OSM    C2S14255   2.652   2.054   6.382  0.1719  0.0411 -0.6050
  132OSM    H2S14256   2.744   2.111   6.408 -1.0017  0.9719  1.8200
  132OSM    C3S14257   2.674   1.900   6.413  0.2378 -0.0587 -0.1791
  132OSM    H3S14258   2.586   1.843   6.376  0.1033  0.7629 -1.1865
  132OSM     O314259   2.682   1.858   6.552  0.2988 -0.3522 -0.2925
  132OSM    HO314260   2.651   1.933   6.603 -0.9055 -0.5407 -0.7124
  132OSM    C4S14261   2.802   1.845   6.346  0.1052  0.2029 -0.1848
  132OSM    H4S14262   2.895   1.896   6.374  0.8844 -1.2317 -0.0620
  132OSM    C5S14263   2.803   1.746   6.252 -0.0585 -0.3277  0.9740
  132OSM    H5S14264   2.714   1.688   6.223 -1.6053  2.5572 -0.4519
  132OSM    C6S14265   2.922   1.717   6.176  0.2359  0.4901  0.4212
  132OSM    H6S14266   2.943   1.608   6.188 -0.3547  0.3094 -0.1304
  132OSM    H6T14267   3.014   1.772   6.205 -0.3355  0.7457  1.8370
  132OSM    C7S14268   2.890   1.756   6.031  0.0546  0.2714 -0.0524
  132OSM    H7S14269   2.794   1.709   6.002 -0.1031  1.8935 -2.4998
  132OSM    H7T14270   2.954   1.711   5.952  0.2784  0.5137 -0.0108
  132OSM    C8S14271   2.892   1.906   5.992 -0.6105 -0.4454  0.5089
  132OSM    H8S14272   2.996   1.943   5.992 -0.6521 -0.2855 -0.8291
  132OSM    H8T14273   2.829   1.958   6.067  1.0651 -1.1053  2.4515
  132OSM    C9S14274   2.841   1.926   5.852  0.2030  0.5505 -0.2904
  132OSM    H9S14275   2.801   2.029   5.839 -0.9080  0.1582 -0.0814
  132OSM    H9T14276   2.751   1.871   5.818  1.1707 -0.0844 -2.0037
  132OSM   C10S14277   2.941   1.905   5.738 -0.2066 -0.4431  0.1315
  132OSM   H10S14278   2.977   1.800   5.747  0.3480 -0.2771 -0.0850
  132OSM   H10T14279   3.029   1.965   5.768 -0.0133 -0.2429 -0.8235
  132OSM   C11S14280   2.890   1.931   5.601  0.0841  0.1930 -0.2344
  132OSM   H11S14281   2.795   1.879   5.578  0.8397 -1.2577 -0.2414
  132OSM   H11T14282   2.971   1.882   5.542  0.8626 -1.0753  1.7708
  132OSM   C12S14283   2.889   2.084   5.559  0.3884 -0.0390 -0.3192
  132OSM   H12S14284   2.989   2.132   5.553 -0.2975  1.3590 -0.8847
  132OSM   H12T14285   2.820   2.137   5.628  1.1141  0.9191 -0.3078
  132OSM   C13S14286   2.825   2.096   5.420 -0.2024  0.6639  0.1838
  132OSM   H13S14287   2.722   2.054   5.430  0.7291 -1.6245  0.6754
  132OSM   H13T14288   2.865   2.033   5.338 -0.5992  2.4731 -1.4649
  132OSM   C14S14289   2.829   2.241   5.365  0.0726  0.3548 -1.5159
  132OSM   H14S14290   2.931   2.273   5.334 -0.0589  1.4813 -0.8396
  132OSM   H14T14291   2.799   2.310   5.447  0.8361  0.4674 -1.3253
  132OSM   C15S14292   2.734   2.259   5.246  0.1935  0.1868  0.8360
  132OSM   H15S14293   2.633   2.244   5.291  0.0753  1.0034  0.8448
  132OSM   H15T14294   2.749   2.195   5.157  0.6916  2.0342 -0.4551
  132OSM   C16S14295   2.726   2.405   5.202  0.0645 -0.6975 -0.5292
  132OSM   H16S14296   2.822   2.443   5.159  0.8487 -1.1854  0.7356
  132OSM   H16T14297   2.705   2.466   5.292  2.2277 -1.2437  0.4060
  132OSM   C17S14298   2.608   2.423   5.110 -0.4069  0.4718  0.3705
  132OSM   H17S14299   2.518   2.378   5.156 -1.6316  1.3696 -1.0379
  132OSM   H17T14300   2.635   2.355   5.026 -1.0586  1.5446 -0.7345
  132OSM   C18S14301   2.575   2.562   5.072  0.1179  0.4107 -0.4800
  132OSM   H18S14302   2.660   2.589   5.005  1.1676 -2.1696 -0.2886
  132OSM   H18T14303   2.553   2.615   5.167 -1.3594 -1.3673  0.2227
  132OSM   H18U14304   2.479   2.542   5.019 -0.3137 -0.9683  0.7525
  132OSM    C1F14305   2.632   2.192   6.174 -0.1297  0.2833 -0.1320
  132OSM     OF14306   2.645   2.298   6.236 -0.2189 -0.4497 -0.0283
  132OSM    C2F14307   2.636   2.194   6.026  0.7709  0.5914  0.0891
  132OSM    H2F14308   2.546   2.144   5.984  0.4042  0.3910  1.0750
  132OSM    H2G14309   2.728   2.138   5.999 -0.0807 -1.3755  1.0869
  132OSM    C3F14310   2.647   2.341   5.972 -0.4842  0.5285  0.3575
  132OSM    H3F14311   2.742   2.388   6.005  1.5823 -1.4154 -2.3555
  132OSM    H3G14312   2.558   2.397   6.009 -1.7449  0.7225 -2.6920
  132OSM    C4F14313   2.625   2.347   5.822 -0.1546  0.1081 -0.3136
  132OSM    H4F14314   2.526   2.302   5.801 -0.2785 -0.6789  1.7666
  132OSM    H4G14315   2.706   2.278   5.789  0.1176 -0.4711  1.4575
  132OSM    C5F14316   2.632   2.496   5.777  0.7159  0.0251  0.3404
  132OSM    H5F14317   2.735   2.532   5.757 -0.2288  2.0622 -1.2274
  132OSM    H5G14318   2.612   2.567   5.860  0.5993 -0.2332  0.5338
  132OSM    C6F14319   2.560   2.531   5.648  0.7747  0.0424 -0.1508
  132OSM    H6F14320   2.470   2.466   5.652  2.7790 -2.8679  0.7568
  132OSM    H6G14321   2.636   2.493   5.575  0.5717 -0.4931 -0.0924
  132OSM    C7F14322   2.532   2.674   5.632 -0.5872 -0.0469 -0.4952
  132OSM    H7F14323   2.618   2.742   5.653 -0.4757 -0.5691  0.8505
  132OSM    H7G14324   2.460   2.706   5.711  0.3144  0.4498  0.1400
  132OSM    C8F14325   2.473   2.696   5.495  0.2011  0.3784  1.0712
  132OSM    H8F14326   2.386   2.627   5.483  1.8667 -2.0235  1.8848
  132OSM    H8G14327   2.549   2.654   5.426 -0.9670 -1.9835  1.1274
  132OSM    C9F14328   2.446   2.836   5.464  0.6025 -0.7722  0.7186
  132OSM    H9F14329   2.517   2.909   5.506  2.0274 -1.2727 -0.7007
  132OSM   C10F14330   2.334   2.890   5.407 -0.3859  0.0432 -0.1358
  132OSM   H10F14331   2.354   2.994   5.377 -0.1462 -0.3011 -1.2228
  132OSM   C11F14332   2.225   2.808   5.352 -0.6440  0.6442  0.4982
  132OSM   H11F14333   2.128   2.825   5.402 -1.0899  2.0332 -0.7651
  132OSM   H11G14334   2.237   2.698   5.359  0.7406  0.5926 -1.7418
  132OSM   C12F14335   2.188   2.848   5.203  0.4644 -0.2956 -0.0389
  132OSM   H12F14336   2.281   2.844   5.143  0.0470  0.0657 -0.7156
  132OSM   H12G14337   2.152   2.953   5.203  0.2685 -0.1599  4.4111
  132OSM   C13F14338   2.083   2.756   5.142 -0.1750  0.1372  0.2518
  132OSM   H13F14339   1.995   2.753   5.210 -0.7411 -1.1037 -0.4828
  132OSM   H13G14340   2.110   2.650   5.122  0.2314  0.5562 -1.6384
  132OSM   C14F14341   2.034   2.806   5.011 -0.1928 -0.0435  0.4841
  132OSM   H14F14342   2.117   2.802   4.938  1.3156 -1.6478  2.1733
  132OSM   H14G14343   1.996   2.910   5.008  1.2528  0.5112  0.9835
  132OSM   C15F14344   1.937   2.700   4.953 -0.3148 -0.3286 -0.1495
  132OSM   H15F14345   1.859   2.694   5.032  2.2684 -1.3321  2.5474
  132OSM   H15G14346   1.993   2.604   4.945 -1.2817 -0.9505  0.2476
  132OSM   C16F14347   1.882   2.738   4.814 -0.8059 -0.0412  0.3189
  132OSM   H16F14348   1.969   2.742   4.745  0.3675  2.6246  1.7684
  132OSM   H16G14349   1.849   2.844   4.816 -2.3472 -0.5004  1.6279
  132OSM   C17F14350   1.770   2.647   4.760 -0.8804 -0.3141  0.7744
  132OSM   H17F14351   1.687   2.632   4.833  0.0700 -0.7329  1.7977
  132OSM   H17G14352   1.806   2.543   4.744 -0.6296 -0.1095 -0.0493
  132OSM   C18F14353   1.687   2.706   4.642  0.2284 -0.2620 -0.2516
  132OSM   H18F14354   1.610   2.634   4.607  1.6185 -1.8962 -0.0594
  132OSM   H18G14355   1.755   2.727   4.555 -2.5636  0.3929 -2.4241
  132OSM   H18H14356   1.647   2.806   4.669  0.0778 -0.9289  2.1754
  133OSM      N14357   0.671   1.695   6.860  0.1411 -0.3847 -0.1245
  133OSM    C1514358   0.780   1.596   6.815  0.0895  0.6355  0.1715
  133OSM   H15A14359   0.825   1.531   6.888  0.7996  0.3935 -0.4753
  133OSM   H15B14360   0.854   1.661   6.770  0.4032 -0.2444 -0.6095
  133OSM   H15C14361   0.744   1.522   6.745 -1.6814 -0.3179  1.9995
  133OSM    C1414362   0.567   1.624   6.930  0.1228  0.1914  0.3675
  133OSM   H14A14363   0.603   1.585   7.024  0.7706  1.6471  0.7619
  133OSM   H14B14364   0.525   1.550   6.863 -2.0934  1.3294  0.3875
  133OSM   H14C14365   0.490   1.697   6.954  0.2125  0.0709  1.0332
  133OSM    C1314366   0.731   1.799   6.951  0.1142 -0.0194 -0.4008
  133OSM   H13A14367   0.807   1.855   6.899 -0.7898 -1.6138 -3.7106
  133OSM   H13B14368   0.787   1.750   7.029  1.1062  0.7428 -0.6276
  133OSM   H13C14369   0.659   1.867   6.994  0.0638 -0.6768  0.5885
  133OSM    C1214370   0.619   1.761   6.732 -0.5532  0.0978 -0.6480
  133OSM   H12A14371   0.567   1.848   6.768 -2.1830 -0.6443 -1.0657
  133OSM   H12B14372   0.547   1.687   6.697  0.2336 -1.4386  0.8260
  133OSM    C1114373   0.720   1.798   6.618 -0.4535 -0.9261  0.0676
  133OSM   H11A14374   0.670   1.858   6.539  1.2476  0.1447 -0.2341
  133OSM   H11B14375   0.757   1.706   6.567  2.5974 -0.7419  1.7546
  133OSM      P14376   0.964   1.877   6.588 -0.3849 -0.3660 -0.1462
  133OSM    O1314377   1.052   1.965   6.667  0.1178  0.0975  0.9771
  133OSM    O1414378   1.009   1.743   6.556 -0.0968  0.7009 -0.4033
  133OSM    O1114379   0.919   1.962   6.461  0.1256 -0.3132  0.8482
  133OSM    O1214380   0.829   1.870   6.669  0.0497 -0.3326 -0.0278
  133OSM    C1S14381   1.008   1.972   6.343  0.0483 -0.0105 -0.6265
  133OSM    H1S14382   1.090   1.897   6.339  0.7562  0.6987  0.4336
  133OSM    H1T14383   1.077   2.056   6.363 -1.2950  0.6113  1.8764
  133OSM     NF14384   1.034   1.962   6.101  0.7219 -0.3326  0.3162
  133OSM    HNF14385   1.075   2.044   6.062 -0.5060  0.5324  0.7552
  133OSM    C2S14386   0.932   1.974   6.207 -0.4816  0.0174 -0.0866
  133OSM    H2S14387   0.867   1.884   6.210 -0.7759  0.1888 -1.0833
  133OSM    C3S14388   0.845   2.099   6.193  0.7126  0.4411 -0.2624
  133OSM    H3S14389   0.915   2.186   6.197  0.0544  1.0381 -1.3832
  133OSM     O314390   0.751   2.118   6.300 -0.6075  0.1001  0.1782
  133OSM    HO314391   0.797   2.072   6.370 -2.3587 -0.1199  1.2263
  133OSM    C4S14392   0.775   2.118   6.061  0.6607 -0.7548  0.3684
  133OSM    H4S14393   0.812   2.206   6.007  1.4106 -1.3158 -0.0431
  133OSM    C5S14394   0.660   2.069   6.019  0.4883  0.3010  0.3531
  133OSM    H5S14395   0.598   2.001   6.080  2.4828 -3.0591 -1.1013
  133OSM    C6S14396   0.601   2.092   5.883  0.4337 -0.5929 -0.4038
  133OSM    H6S14397   0.493   2.114   5.893 -0.0218 -2.0672 -1.7242
  133OSM    H6T14398   0.604   1.997   5.826 -0.5058 -0.1954 -1.1300
  133OSM    C7S14399   0.653   2.208   5.788  0.4275 -0.0551 -0.3157
  133OSM    H7S14400   0.764   2.214   5.797  0.4840 -1.3597  0.1660
  133OSM    H7T14401   0.594   2.294   5.825 -1.7359 -1.2838 -0.7481
  133OSM    C8S14402   0.606   2.212   5.639 -0.2890 -0.1591  0.0347
  133OSM    H8S14403   0.495   2.206   5.633 -0.4691  2.4771 -0.3853
  133OSM    H8T14404   0.654   2.126   5.588 -0.9711 -0.3084 -0.3702
  133OSM    C9S14405   0.654   2.341   5.569 -0.9661  0.4656  0.0185
  133OSM    H9S14406   0.765   2.347   5.571 -0.9365 -0.0619  0.0435
  133OSM    H9T14407   0.612   2.423   5.631  0.6314  1.0015  0.4177
  133OSM   C10S14408   0.593   2.348   5.427 -0.2402 -0.6978  0.1115
  133OSM   H10S14409   0.642   2.433   5.374 -0.6823 -0.1194  0.6277
  133OSM   H10T14410   0.485   2.370   5.435  0.3463  2.6892  0.3024
  133OSM   C11S14411   0.647   2.238   5.329  0.6512 -0.0959  0.1890
  133OSM   H11S14412   0.583   2.147   5.331 -0.3011  0.3575 -3.1701
  133OSM   H11T14413   0.753   2.212   5.347 -0.3397 -4.1348  1.1920
  133OSM   C12S14414   0.636   2.292   5.177 -0.2062  0.1465 -0.4813
  133OSM   H12S14415   0.537   2.337   5.158 -0.9925 -1.9271 -1.6580
  133OSM   H12T14416   0.651   2.200   5.116  2.7996  1.0510 -1.3076
  133OSM   C13S14417   0.752   2.383   5.137  0.5677 -0.2442 -0.3903
  133OSM   H13S14418   0.849   2.332   5.153  0.9566 -0.0793 -2.0555
  133OSM   H13T14419   0.750   2.472   5.204  0.1647 -2.1466  2.3054
  133OSM   C14S14420   0.722   2.426   4.990 -0.5027 -0.1574  0.6352
  133OSM   H14S14421   0.801   2.500   4.965 -1.4584  0.8503  0.5227
  133OSM   H14T14422   0.627   2.479   4.970 -0.7382 -0.7295  0.2033
  133OSM   C15S14423   0.729   2.311   4.886 -0.8394  0.8554 -0.0249
  133OSM   H15S14424   0.636   2.252   4.870  0.4540 -1.2813  0.0157
  133OSM   H15T14425   0.800   2.233   4.920 -0.1305  1.8831  0.9135
  133OSM   C16S14426   0.778   2.347   4.741  0.4163  0.1652 -0.0558
  133OSM   H16S14427   0.799   2.251   4.689  1.8844  0.4323  0.0058
  133OSM   H16T14428   0.880   2.392   4.745  0.5679 -0.2300  0.7242
  133OSM   C17S14429   0.679   2.432   4.661 -0.2602  0.1855  0.1518
  133OSM   H17S14430   0.669   2.526   4.719  0.9433  0.0198  0.6616
  133OSM   H17T14431   0.586   2.372   4.655 -0.3579  0.2492  0.8818
  133OSM   C18S14432   0.741   2.468   4.525  0.8746 -0.3792 -0.4062
  133OSM   H18S14433   0.804   2.560   4.530 -0.6232  0.5990  3.0094
  133OSM   H18T14434   0.654   2.480   4.457 -1.5274 -0.6121  2.4471
  133OSM   H18U14435   0.799   2.380   4.488  0.2489 -0.5108 -1.0832
  133OSM    C1F14436   1.102   1.846   6.087 -0.6403  0.0381 -0.8833
  133OSM     OF14437   1.062   1.745   6.149 -0.3338 -0.4246  0.0403
  133OSM    C2F14438   1.228   1.852   6.008 -1.1508 -0.0115 -0.8564
  133OSM    H2F14439   1.296   1.891   6.086 -1.0537  2.0261 -1.8970
  133OSM    H2G14440   1.218   1.928   5.928 -0.9412  1.3234  0.3538
  133OSM    C3F14441   1.288   1.711   5.967 -0.0775 -0.4274  0.7607
  133OSM    H3F14442   1.208   1.654   5.915 -0.4817 -0.6327  1.5912
  133OSM    H3G14443   1.316   1.641   6.048 -1.6794  0.3293  2.0243
  133OSM    C4F14444   1.409   1.727   5.869  0.1156 -0.3607  0.7375
  133OSM    H4F14445   1.479   1.800   5.916  0.6553  0.7887 -1.7009
  133OSM    H4G14446   1.379   1.785   5.779  1.4985 -1.4626 -0.4854
  133OSM    C5F14447   1.477   1.586   5.835  0.4685 -0.8185 -0.0400
  133OSM    H5F14448   1.405   1.543   5.761  1.6094 -2.3921 -0.2746
  133OSM    H5G14449   1.479   1.534   5.933  0.6054  2.5108  1.8851
  133OSM    C6F14450   1.603   1.612   5.761 -0.2314  0.6625 -0.3494
  133OSM    H6F14451   1.692   1.627   5.827  0.2250  0.6751 -0.9606
  133OSM    H6G14452   1.587   1.699   5.694 -0.2973  0.2939 -0.8175
  133OSM    C7F14453   1.641   1.484   5.677  0.5319 -0.2544 -0.0187
  133OSM    H7F14454   1.589   1.392   5.711 -0.3073  0.4364  0.5817
  133OSM    H7G14455   1.746   1.454   5.701  0.9083  0.2962 -0.9404
  133OSM    C8F14456   1.636   1.516   5.519  0.8035 -0.1938  0.9265
  133OSM    H8F14457   1.692   1.609   5.495 -0.4742  0.8970  2.0245
  133OSM    H8G14458   1.527   1.530   5.508  1.1639  1.9554 -0.3529
  133OSM    C9F14459   1.690   1.402   5.440 -0.4746  0.4839  0.6075
  133OSM    H9F14460   1.794   1.377   5.465 -0.3922 -0.2230 -0.3690
  133OSM   C10F14461   1.640   1.337   5.337 -0.0767  0.7077 -0.4407
  133OSM   H10F14462   1.700   1.255   5.296 -0.3678 -0.0053  0.5243
  133OSM   C11F14463   1.511   1.365   5.254  0.6351  0.1690  0.0991
  133OSM   H11F14464   1.470   1.465   5.280  0.1127 -0.6052  2.5009
  133OSM   H11G14465   1.433   1.295   5.290  1.5377 -0.8215  0.1748
  133OSM   C12F14466   1.532   1.353   5.103  0.1011  0.5660 -0.0003
  133OSM   H12F14467   1.436   1.371   5.049 -0.4586 -0.6373  0.5674
  133OSM   H12G14468   1.562   1.248   5.082 -2.0181  0.5135 -3.7983
  133OSM   C13F14469   1.644   1.453   5.059  0.3429  0.0670 -0.2527
  133OSM   H13F14470   1.741   1.440   5.112 -0.6513 -0.7146  1.4737
  133OSM   H13G14471   1.613   1.553   5.097  2.2376  2.1129 -3.5376
  133OSM   C14F14472   1.661   1.476   4.907  0.1105 -0.1507 -0.3988
  133OSM   H14F14473   1.704   1.384   4.863 -1.7298  0.0894 -2.9810
  133OSM   H14G14474   1.735   1.556   4.886 -1.0980  0.7159 -1.5617
  133OSM   C15F14475   1.531   1.526   4.842 -0.0756 -0.5766 -0.9979
  133OSM   H15F14476   1.485   1.606   4.904  0.6071  0.7408 -2.1266
  133OSM   H15G14477   1.455   1.445   4.841  0.1982 -0.9631  1.8512
  133OSM   C16F14478   1.550   1.569   4.700  0.3253 -0.9873  0.0786
  133OSM   H16F14479   1.571   1.476   4.642  0.0248 -1.3175  0.4971
  133OSM   H16G14480   1.638   1.636   4.687  1.3477 -2.6550 -2.4337
  133OSM   C17F14481   1.428   1.643   4.644  1.2370  0.3712 -0.3139
  133OSM   H17F14482   1.397   1.727   4.711 -0.2932  0.3273 -0.9265
  133OSM   H17G14483   1.341   1.574   4.643  1.2294  0.3874 -1.4203
  133OSM   C18F14484   1.438   1.693   4.500  0.0543 -0.0857 -0.7693
  133OSM   H18F14485   1.339   1.731   4.467  1.5539  3.4921 -1.5930
  133OSM   H18G14486   1.476   1.609   4.437  1.5379 -0.2055  0.2368
  133OSM   H18H14487   1.516   1.772   4.499  1.3883 -1.3377  0.0176
  134OSM      N14488   0.555   5.983   7.019  0.5897 -0.5248  0.2154
  134OSM    C1514489   0.426   5.921   6.964  0.1198 -0.9265  0.1119
  134OSM   H15A14490   0.349   5.994   6.986  0.5656 -0.5936  0.6020
  134OSM   H15B14491   0.412   5.825   7.011  3.2126 -0.7372  1.6746
  134OSM   H15C14492   0.429   5.909   6.857 -1.2793 -0.7160  0.0309
  134OSM    C1414493   0.536   5.984   7.162  0.4957 -0.0100 -0.1997
  134OSM   H14A14494   0.482   5.898   7.200  1.8095 -2.0618 -2.7013
  134OSM   H14B14495   0.476   6.071   7.186  1.3766  0.3876  0.6163
  134OSM   H14C14496   0.629   5.997   7.215  0.6386  0.9283 -0.6508
  134OSM    C1314497   0.670   5.894   6.995  1.4552 -0.0117 -0.0934
  134OSM   H13A14498   0.765   5.937   7.023  0.5727  2.1931 -0.2776
  134OSM   H13B14499   0.676   5.869   6.890  1.7711 -1.5574  0.2635
  134OSM   H13C14500   0.653   5.799   7.042  0.8574  0.9589  1.7729
  134OSM    C1214501   0.571   6.129   6.968  0.0187  0.5140 -0.3587
  134OSM   H12A14502   0.573   6.122   6.861 -0.6927  0.3968 -0.3686
  134OSM   H12B14503   0.659   6.179   7.005 -0.9920  0.9982  1.5385
  134OSM    C1114504   0.458   6.233   6.989  0.7783  0.0059  0.2577
  134OSM   H11A14505   0.497   6.337   6.985 -3.1192  1.6990  0.6619
  134OSM   H11B14506   0.414   6.221   7.091  1.9236  1.5205  0.9808
  134OSM      P14507   0.387   6.246   6.743 -0.0017 -0.0225  0.2135
  134OSM    O1314508   0.492   6.349   6.723 -0.1050  0.3557 -0.4218
  134OSM    O1414509   0.403   6.114   6.677 -0.3352 -0.1093 -0.0947
  134OSM    O1114510   0.251   6.304   6.696  0.6104 -0.1109 -0.1743
  134OSM    O1214511   0.359   6.221   6.893  0.0203  0.4527  0.2268
  134OSM    C1S14512   0.236   6.363   6.567  0.3117  0.1379  0.3025
  134OSM    H1S14513   0.314   6.436   6.538 -0.3065  0.8035  0.2563
  134OSM    H1T14514   0.147   6.430   6.563 -0.5220 -0.9457  0.2097
  134OSM     NF14515   0.194   6.337   6.332  0.4262  0.0631  0.2451
  134OSM    HNF14516   0.096   6.341   6.316  0.3737  0.1307  0.5651
  134OSM    C2S14517   0.208   6.256   6.459 -0.6712 -0.5217 -0.2959
  134OSM    H2S14518   0.298   6.192   6.454 -1.1985 -1.2156 -1.1475
  134OSM    C3S14519   0.095   6.164   6.494  0.0938 -0.6587 -0.5461
  134OSM    H3S14520   0.007   6.229   6.482  0.0939  0.0062  2.3206
  134OSM     O314521   0.089   6.114   6.630  0.1099  0.3332 -0.0933
  134OSM    HO314522   0.171   6.139   6.674 -1.2462  1.2016  2.1189
  134OSM    C4S14523   0.093   6.050   6.396 -0.3534 -0.3088 -0.1785
  134OSM    H4S14524   0.031   6.071   6.308 -0.0789 -0.5749 -0.4363
  134OSM    C5S14525   0.164   5.935   6.387 -0.1825  0.1981 -0.0900
  134OSM    H5S14526   0.246   5.934   6.461  0.4112  1.6655 -0.6746
  134OSM    C6S14527   0.179   5.847   6.267  0.4684 -0.4903 -0.1231
  134OSM    H6S14528   0.131   5.747   6.283 -0.5042 -0.3264 -1.7397
  134OSM    H6T14529   0.285   5.827   6.242  1.0550  2.3803 -0.2567
  134OSM    C7S14530   0.127   5.909   6.135  0.5885 -0.4101 -0.2486
  134OSM    H7S14531   0.175   6.009   6.133 -0.0543 -0.0747 -2.5326
  134OSM    H7T14532   0.017   5.927   6.139  0.5595 -0.8192  1.1795
  134OSM    C8S14533   0.147   5.821   6.015  0.5780 -0.0076 -0.2850
  134OSM    H8S14534   0.079   5.734   6.026 -1.3607  1.4182 -0.5799
  134OSM    H8T14535   0.254   5.793   6.021  0.2846 -0.8149  1.7874
  134OSM    C9S14536   0.114   5.886   5.884 -0.2304  0.3147 -0.2244
  134OSM    H9S14537   0.174   5.977   5.860  0.7135 -0.6112 -1.5488
  134OSM    H9T14538   0.006   5.908   5.868 -0.2134 -0.1470 -1.0485
  134OSM   C10S14539   0.153   5.786   5.772  0.1600 -0.2044  0.1457
  134OSM   H10S14540   0.142   5.682   5.810 -1.5612 -0.2730 -0.4693
  134OSM   H10T14541   0.264   5.794   5.771  0.4526 -3.0921  0.6408
  134OSM   C11S14542   0.077   5.825   5.642 -0.5455 -0.0694 -0.1751
  134OSM   H11S14543   0.076   5.935   5.631  0.9631  0.1532  1.5079
  134OSM   H11T14544  -0.029   5.792   5.647 -1.6151  3.1085  0.1578
  134OSM   C12S14545   0.149   5.761   5.523 -0.3312  0.0372  0.1396
  134OSM   H12S14546   0.085   5.679   5.483  1.0526 -1.3874  0.7177
  134OSM   H12T14547   0.246   5.724   5.561 -0.0674 -0.3615 -0.8836
  134OSM   C13S14548   0.178   5.846   5.397  0.3082 -0.0253  0.0495
  134OSM   H13S14549   0.261   5.914   5.424  0.1644 -0.2673  1.1606
  134OSM   H13T14550   0.092   5.913   5.375  0.4038 -0.5423 -2.0646
  134OSM   C14S14551   0.219   5.761   5.270 -0.1119  0.8161  0.5532
  134OSM   H14S14552   0.133   5.690   5.265  0.8107 -0.4875  2.2688
  134OSM   H14T14553   0.304   5.696   5.299 -1.4012 -0.6702  1.1478
  134OSM   C15S14554   0.236   5.836   5.138 -0.2239  0.0218  0.1958
  134OSM   H15S14555   0.318   5.909   5.155  1.4494 -1.4722 -1.0323
  134OSM   H15T14556   0.139   5.888   5.122  0.5841  1.4000 -0.3463
  134OSM   C16S14557   0.283   5.751   5.024 -0.1609  0.0315 -0.1277
  134OSM   H16S14558   0.357   5.672   5.052  1.5174  1.4713 -0.3476
  134OSM   H16T14559   0.338   5.811   4.948 -0.2577  0.0454 -0.1858
  134OSM   C17S14560   0.177   5.680   4.938  0.3582  0.4125 -0.0660
  134OSM   H17S14561   0.122   5.760   4.884 -0.9853 -0.7602 -0.5099
  134OSM   H17T14562   0.105   5.630   5.007 -1.0097  1.1927 -0.8775
  134OSM   C18S14563   0.242   5.579   4.843 -0.7139 -0.0964  0.0679
  134OSM   H18S14564   0.292   5.643   4.767  0.6534 -1.0710  0.1099
  134OSM   H18T14565   0.169   5.511   4.796  0.8288 -2.5154  0.9715
  134OSM   H18U14566   0.322   5.526   4.899 -0.2637 -0.8841 -1.2792
  134OSM    C1F14567   0.287   6.398   6.258 -0.2731  0.4564 -0.9326
  134OSM     OF14568   0.403   6.396   6.295  0.4641  0.1438  0.3701
  134OSM    C2F14569   0.251   6.442   6.124  0.1786 -0.0726 -0.1744
  134OSM    H2F14570   0.194   6.534   6.149  0.1369  0.3784 -1.8023
  134OSM    H2G14571   0.185   6.364   6.081 -0.1140 -0.6775  1.2976
  134OSM    C3F14572   0.376   6.477   6.035 -0.2719  0.2354 -0.0761
  134OSM    H3F14573   0.454   6.397   6.037  1.5496  1.9478  0.7361
  134OSM    H3G14574   0.426   6.559   6.091 -1.2527  0.3800  0.6111
  134OSM    C4F14575   0.346   6.534   5.893 -0.1600 -0.5101 -0.1257
  134OSM    H4F14576   0.277   6.466   5.839  0.0343  0.1038 -1.1738
  134OSM    H4G14577   0.447   6.531   5.848  0.8201  0.8940  1.7962
  134OSM    C5F14578   0.297   6.683   5.902  0.4353 -0.6077 -1.1774
  134OSM    H5F14579   0.377   6.736   5.958  1.1998 -0.2360 -2.5656
  134OSM    H5G14580   0.200   6.693   5.955  2.5306 -1.1723  3.1548
  134OSM    C6F14581   0.294   6.751   5.767  0.0337 -0.3427 -1.0192
  134OSM    H6F14582   0.375   6.713   5.701  1.7159 -0.1685  0.8500
  134OSM    H6G14583   0.317   6.859   5.781  1.0734 -0.7021  0.2371
  134OSM    C7F14584   0.159   6.730   5.686 -0.8621 -0.4864 -0.3108
  134OSM    H7F14585   0.072   6.777   5.737 -0.1810  0.4046  0.0520
  134OSM    H7G14586   0.139   6.622   5.671  0.8382 -0.7550 -0.9168
  134OSM    C8F14587   0.163   6.809   5.555  0.1897 -0.2494 -0.0338
  134OSM    H8F14588   0.251   6.771   5.499  1.1664  0.4845  0.9582
  134OSM    H8G14589   0.172   6.919   5.570  0.0500 -0.2972  0.4158
  134OSM    C9F14590   0.034   6.788   5.479  0.4704 -0.0657 -0.4631
  134OSM    H9F14591  -0.047   6.859   5.499  0.9330 -0.0589  1.5580
  134OSM   C10F14592   0.009   6.698   5.380 -0.0046  0.4368 -0.0721
  134OSM   H10F14593  -0.091   6.700   5.335 -0.2742 -1.9018  0.3126
  134OSM   C11F14594   0.100   6.580   5.356 -0.0838  0.1627  0.3217
  134OSM   H11F14595   0.048   6.484   5.378 -0.9930  0.2186 -1.4135
  134OSM   H11G14596   0.193   6.591   5.415  0.3251 -0.1654 -0.2499
  134OSM   C12F14597   0.143   6.576   5.209  0.1941  0.0648  0.3496
  134OSM   H12F14598   0.064   6.585   5.132  1.8074  2.4757 -1.1570
  134OSM   H12G14599   0.188   6.474   5.207  1.1727  0.4910  0.5978
  134OSM   C13F14600   0.252   6.682   5.173 -0.0171  0.8271  0.6679
  134OSM   H13F14601   0.340   6.666   5.238 -1.1366  0.2634  2.0919
  134OSM   H13G14602   0.208   6.784   5.172 -0.7294  0.5341 -0.4736
  134OSM   C14F14603   0.311   6.657   5.032  0.2724 -0.1126  0.1506
  134OSM   H14F14604   0.241   6.699   4.957  1.5457  0.1593 -0.9179
  134OSM   H14G14605   0.333   6.548   5.030  0.3227 -0.0917 -0.5000
  134OSM   C15F14606   0.442   6.739   5.011  0.6445  0.3587  0.1406
  134OSM   H15F14607   0.530   6.695   5.064 -0.5586 -1.9790  0.3351
  134OSM   H15G14608   0.421   6.835   5.063 -0.8404 -0.5896  1.3835
  134OSM   C16F14609   0.474   6.757   4.865  0.3784 -0.2404  0.1550
  134OSM   H16F14610   0.383   6.763   4.801  0.7249 -2.1151 -0.5883
  134OSM   H16G14611   0.531   6.668   4.831  0.2206 -1.6045  3.2116
  134OSM   C17F14612   0.570   6.871   4.836  0.1766  0.4552  0.1759
  134OSM   H17F14613   0.657   6.866   4.904  1.3770  1.6604 -1.1981
  134OSM   H17G14614   0.513   6.964   4.861 -0.2534 -0.1906  1.6869
  134OSM   C18F14615   0.625   6.869   4.697 -0.1281 -0.6480 -0.4726
  134OSM   H18F14616   0.699   6.952   4.692 -0.2795 -0.4198  0.8633
  134OSM   H18G14617   0.541   6.878   4.625  0.6359  1.6711 -1.1548
  134OSM   H18H14618   0.678   6.772   4.684 -1.6169 -1.6178  0.4259
  135OSM      N14619   0.962   5.494   6.467  0.0807 -0.0556  0.1042
  135OSM    C1514620   1.067   5.546   6.551  0.0361 -0.0406  0.5512
  135OSM   H15A14621   1.166   5.512   6.524  0.5217  2.1472 -0.7280
  135OSM   H15B14622   1.058   5.515   6.654  0.3293 -0.5430  0.4252
  135OSM   H15C14623   1.069   5.653   6.536 -1.8876  0.0595  0.7587
  135OSM    C1414624   1.009   5.439   6.339  0.1908  0.2028 -0.2849
  135OSM   H14A14625   1.082   5.360   6.354 -1.3774 -1.1463  0.5823
  135OSM   H14B14626   1.052   5.520   6.283  0.0259  0.6882  0.2780
  135OSM   H14C14627   0.928   5.395   6.283 -0.6178 -0.3395  1.2286
  135OSM    C1314628   0.908   5.381   6.548  0.3807  0.1755  0.1253
  135OSM   H13A14629   0.834   5.416   6.619 -1.0671  0.3188 -1.3886
  135OSM   H13B14630   0.987   5.335   6.605 -0.4537 -1.8598 -0.2782
  135OSM   H13C14631   0.866   5.304   6.485  0.6456  0.7436 -0.7675
  135OSM    C1214632   0.849   5.585   6.443  0.3824 -0.2569 -0.4296
  135OSM   H12A14633   0.814   5.619   6.539 -0.9456  1.3090 -1.4177
  135OSM   H12B14634   0.771   5.533   6.390  0.4683  0.4858 -1.3108
  135OSM    C1114635   0.876   5.718   6.367  0.1398  0.5926 -0.0176
  135OSM   H11A14636   0.779   5.771   6.363 -0.1838 -0.0466 -1.2609
  135OSM   H11B14637   0.904   5.688   6.264 -0.5680  0.9069 -0.3028
  135OSM      P14638   0.963   5.955   6.438  0.1256 -0.1796  0.3210
  135OSM    O1314639   1.017   5.997   6.567 -0.0435 -0.0388  0.0679
  135OSM    O1414640   1.022   6.018   6.315 -0.2716  0.6146  0.1957
  135OSM    O1114641   0.815   5.982   6.434  0.3145 -0.9386  0.8914
  135OSM    O1214642   0.978   5.800   6.424 -0.4074 -0.2263  0.3941
  135OSM    C1S14643   0.750   6.111   6.446 -0.4193  0.1481 -0.0525
  135OSM    H1S14644   0.813   6.188   6.495 -1.3914 -1.3051  3.8972
  135OSM    H1T14645   0.660   6.106   6.512 -1.6105  2.7344 -1.3310
  135OSM     NF14646   0.666   6.306   6.311 -0.0750 -0.0045 -0.0036
  135OSM    HNF14647   0.568   6.325   6.322 -0.3028 -1.0761 -0.0120
  135OSM    C2S14648   0.699   6.164   6.308  0.0970  0.2221 -0.5701
  135OSM    H2S14649   0.780   6.152   6.233  0.6226  0.9071 -0.1309
  135OSM    C3S14650   0.582   6.073   6.257 -0.1467  1.1249 -0.1323
  135OSM    H3S14651   0.492   6.086   6.321  0.2655  4.0250 -0.0204
  135OSM     O314652   0.617   5.929   6.255  0.3001 -0.1073 -0.1838
  135OSM    HO314653   0.690   5.918   6.315  1.4421  2.1268 -1.0504
  135OSM    C4S14654   0.531   6.100   6.114 -0.1368  0.1261 -0.0987
  135OSM    H4S14655   0.426   6.131   6.107 -0.3405 -0.3009  0.8601
  135OSM    C5S14656   0.599   6.077   5.996 -0.0355  0.5765  0.2402
  135OSM    H5S14657   0.704   6.042   5.997  0.7447  2.7406  1.8124
  135OSM    C6S14658   0.534   6.090   5.861  0.3648 -0.3646 -0.0381
  135OSM    H6S14659   0.433   6.044   5.856 -1.1241  2.6553  0.1029
  135OSM    H6T14660   0.590   6.029   5.786  0.2580 -1.7016  0.9269
  135OSM    C7S14661   0.524   6.233   5.799  0.3550 -0.4169  0.0705
  135OSM    H7S14662   0.627   6.274   5.810  0.7900 -1.8026  1.5200
  135OSM    H7T14663   0.439   6.286   5.846 -1.0782 -3.1159  0.7403
  135OSM    C8S14664   0.491   6.238   5.653  0.2838  1.2024  0.4149
  135OSM    H8S14665   0.542   6.150   5.607 -0.7451 -0.4127  2.2247
  135OSM    H8T14666   0.532   6.331   5.609  1.0231  0.3901 -0.6865
  135OSM    C9S14667   0.344   6.219   5.610 -0.0102  0.6513  0.1581
  135OSM    H9S14668   0.277   6.279   5.675 -0.9322  0.9149 -1.0024
  135OSM    H9T14669   0.324   6.110   5.614  0.1938  0.6453  1.4340
  135OSM   C10S14670   0.309   6.253   5.461  0.0892  0.0167 -0.0656
  135OSM   H10S14671   0.290   6.362   5.463  0.3223  0.0723 -0.6466
  135OSM   H10T14672   0.216   6.202   5.430  1.0137 -1.1313 -1.0931
  135OSM   C11S14673   0.418   6.208   5.363 -0.0375 -0.7140 -0.9084
  135OSM   H11S14674   0.404   6.100   5.343 -0.6047 -0.6577 -0.8289
  135OSM   H11T14675   0.521   6.216   5.403 -0.6309 -0.2825  0.5899
  135OSM   C12S14676   0.415   6.277   5.226 -0.2864 -0.0892 -0.3566
  135OSM   H12S14677   0.463   6.377   5.237 -0.2414  0.0163 -1.4162
  135OSM   H12T14678   0.311   6.295   5.192 -1.4751 -2.3769  1.7823
  135OSM   C13S14679   0.497   6.194   5.133  0.2503  0.2143  0.9265
  135OSM   H13S14680   0.467   6.220   5.029  2.4042 -1.5116 -0.1963
  135OSM   H13T14681   0.470   6.087   5.152 -1.9480  0.5445  0.0156
  135OSM   C14S14682   0.651   6.193   5.140 -0.3846 -0.4144 -1.3550
  135OSM   H14S14683   0.677   6.130   5.228 -1.1954  0.6146 -0.3513
  135OSM   H14T14684   0.685   6.299   5.145 -1.1579 -0.2326  0.9438
  135OSM   C15S14685   0.718   6.133   5.017 -0.0501  0.4533 -0.0018
  135OSM   H15S14686   0.674   6.032   5.005  0.7372  0.0704  0.2803
  135OSM   H15T14687   0.828   6.129   5.031  0.1115  1.6417 -0.8109
  135OSM   C16S14688   0.688   6.201   4.885 -0.6443 -0.2107  0.1273
  135OSM   H16S14689   0.579   6.191   4.866 -0.2341 -0.2978 -2.5229
  135OSM   H16T14690   0.734   6.155   4.795 -0.6847 -0.6457  0.3291
  135OSM   C17S14691   0.747   6.342   4.875  0.5441 -0.2382  0.9807
  135OSM   H17S14692   0.857   6.331   4.879  0.4693 -2.5639 -1.0635
  135OSM   H17T14693   0.703   6.396   4.962 -0.5432 -2.1049  1.6383
  135OSM   C18S14694   0.705   6.403   4.744  0.2607  0.0802 -0.1739
  135OSM   H18S14695   0.595   6.397   4.741  0.3489 -2.1886 -0.8742
  135OSM   H18T14696   0.752   6.351   4.657 -0.5011 -0.7511 -0.1022
  135OSM   H18U14697   0.741   6.508   4.746  0.8033 -0.1065  1.2094
  135OSM    C1F14698   0.756   6.402   6.336 -0.2627  0.2544 -0.4741
  135OSM     OF14699   0.875   6.373   6.330  0.1080 -0.4946  0.3192
  135OSM    C2F14700   0.707   6.542   6.374  0.7410  0.1988 -0.5472
  135OSM    H2F14701   0.752   6.566   6.473 -0.4131 -0.4898  0.1559
  135OSM    H2G14702   0.598   6.558   6.384  1.3228  3.5776  2.6085
  135OSM    C3F14703   0.775   6.641   6.273  0.8015  0.2212 -0.2012
  135OSM    H3F14704   0.884   6.623   6.269  1.1239  2.1583 -1.7203
  135OSM    H3G14705   0.766   6.740   6.322  1.0012  0.5218 -0.7662
  135OSM    C4F14706   0.703   6.645   6.145 -0.5956  0.4502  0.1859
  135OSM    H4F14707   0.702   6.541   6.107 -2.9419  0.0741  1.1294
  135OSM    H4G14708   0.602   6.690   6.145 -0.4984  0.7618  2.0760
  135OSM    C5F14709   0.779   6.712   6.033  0.3957  0.3097  0.0512
  135OSM    H5F14710   0.884   6.677   6.025  0.1383 -0.4599 -0.1349
  135OSM    H5G14711   0.773   6.822   6.039  0.3710  0.3116  0.0000
  135OSM    C6F14712   0.708   6.688   5.894 -0.2510 -0.1015  0.2330
  135OSM    H6F14713   0.598   6.706   5.892 -0.1019  1.1314  1.2914
  135OSM    H6G14714   0.722   6.582   5.866 -1.7308 -1.2459  3.2937
  135OSM    C7F14715   0.768   6.779   5.791  0.2924  1.0129  0.2975
  135OSM    H7F14716   0.873   6.754   5.762 -0.5913  0.5118 -2.7518
  135OSM    H7G14717   0.769   6.888   5.812  0.1436  1.7442 -2.9616
  135OSM    C8F14718   0.675   6.787   5.664  0.5671 -0.3179  0.0847
  135OSM    H8F14719   0.731   6.852   5.595  1.8733 -1.3999  0.0840
  135OSM    H8G14720   0.586   6.850   5.686  0.4002 -0.9392  1.2958
  135OSM    C9F14721   0.633   6.650   5.612  1.0237 -0.6090  0.2941
  135OSM    H9F14722   0.545   6.607   5.662  0.3725 -1.4103 -1.4645
  135OSM   C10F14723   0.682   6.592   5.501  0.6390  0.4924 -0.6296
  135OSM   H10F14724   0.646   6.495   5.466 -0.6150  1.5590 -2.4217
  135OSM   C11F14725   0.780   6.652   5.406 -1.1062 -0.0893 -0.0195
  135OSM   H11F14726   0.878   6.615   5.443 -1.7018 -1.5595  0.1603
  135OSM   H11G14727   0.778   6.762   5.422 -0.1471 -0.0253 -0.2274
  135OSM   C12F14728   0.776   6.620   5.259 -0.1634  0.4288  0.2567
  135OSM   H12F14729   0.700   6.688   5.215 -0.1271 -1.2053 -2.5608
  135OSM   H12G14730   0.750   6.513   5.246  3.2312 -0.6211  0.8963
  135OSM   C13F14731   0.912   6.648   5.198 -0.0948 -0.2569  0.1884
  135OSM   H13F14732   0.984   6.569   5.229  0.8175  1.2146  2.0398
  135OSM   H13G14733   0.961   6.744   5.226 -0.0928 -0.6097  1.4739
  135OSM   C14F14734   0.905   6.623   5.046 -0.2823 -0.6866  0.2673
  135OSM   H14F14735   0.818   6.667   4.993 -0.1572 -2.5411 -1.6104
  135OSM   H14G14736   0.889   6.514   5.035 -1.8579 -0.5910  1.3156
  135OSM   C15F14737   1.036   6.670   4.969 -0.1470 -0.2882 -0.4394
  135OSM   H15F14738   1.130   6.620   4.999  0.3870 -1.1620 -3.2858
  135OSM   H15G14739   1.064   6.774   4.995 -2.5513  0.4445 -0.4834
  135OSM   C16F14740   1.020   6.655   4.814 -0.3743  0.0662  0.3168
  135OSM   H16F14741   0.939   6.729   4.795 -1.5911 -1.0127  1.0916
  135OSM   H16G14742   0.980   6.555   4.786  0.6621  0.2343 -1.9348
  135OSM   C17F14743   1.146   6.695   4.729  0.8200  0.3232 -0.3351
  135OSM   H17F14744   1.211   6.606   4.733  0.5400  0.1441  0.2273
  135OSM   H17G14745   1.190   6.784   4.778  0.6208 -1.0687  2.5303
  135OSM   C18F14746   1.083   6.708   4.582 -0.3131 -0.0318 -0.1533
  135OSM   H18F14747   0.996   6.777   4.572  1.6833  2.6163 -0.5200
  135OSM   H18G14748   1.060   6.607   4.543 -0.9100 -0.4765  1.3017
  135OSM   H18H14749   1.169   6.757   4.531 -0.3424 -0.2838 -0.4487
  136OSM      N14750   3.571   0.358   6.704 -0.4042  0.1318 -0.3321
  136OSM    C1514751   3.585   0.313   6.849  0.6676 -0.1912  0.2464
  136OSM   H15A14752   3.654   0.374   6.906  1.3233  1.0884 -1.8176
  136OSM   H15B14753   3.620   0.211   6.845  0.3605 -0.2647 -2.8117
  136OSM   H15C14754   3.488   0.318   6.895 -0.0875 -1.3476 -1.1484
  136OSM    C1414755   3.493   0.258   6.626 -0.7224  0.3404  0.0636
  136OSM   H14A14756   3.544   0.166   6.604 -1.3137 -0.2385  1.0173
  136OSM   H14B14757   3.470   0.294   6.527  2.3062  1.8465 -0.1938
  136OSM   H14C14758   3.395   0.237   6.666 -0.5442 -0.9418 -0.1197
  136OSM    C1314759   3.493   0.482   6.711  0.7498 -0.5684 -0.2218
  136OSM   H13A14760   3.540   0.552   6.778 -0.9145  0.9326 -0.5466
  136OSM   H13B14761   3.390   0.482   6.742  0.5903 -0.0216 -0.7308
  136OSM   H13C14762   3.482   0.532   6.616 -2.0932 -1.3064 -0.3751
  136OSM    C1214763   3.707   0.381   6.642  0.3140 -0.0696  0.0669
  136OSM   H12A14764   3.755   0.286   6.629 -1.8712 -1.3013  0.5044
  136OSM   H12B14765   3.764   0.442   6.710  1.1921  0.3060 -0.9696
  136OSM    C1114766   3.708   0.453   6.503 -0.0139 -0.0176  0.1946
  136OSM   H11A14767   3.653   0.391   6.429  0.0062  0.0349  0.1357
  136OSM   H11B14768   3.809   0.479   6.464  0.0604  1.4188  1.2708
  136OSM      P14769   3.565   0.648   6.392 -0.3410 -0.0334 -0.0790
  136OSM    O1314770   3.427   0.599   6.415 -0.0226 -0.1945 -0.1138
  136OSM    O1414771   3.582   0.794   6.391 -0.5200 -0.4086 -0.2430
  136OSM    O1114772   3.623   0.579   6.264 -0.1041  0.8966  0.2784
  136OSM    O1214773   3.649   0.578   6.509 -0.1346  0.3162 -0.3510
  136OSM    C1S14774   3.556   0.590   6.137 -0.0136 -0.2404 -0.1116
  136OSM    H1S14775   3.514   0.692   6.128  3.2502  1.3035  0.5905
  136OSM    H1T14776   3.481   0.510   6.119 -2.5654  1.3135  2.8119
  136OSM     NF14777   3.636   0.642   5.909 -0.0921 -0.1089  0.0291
  136OSM    HNF14778   3.616   0.587   5.829 -0.5764  1.4652 -0.9788
  136OSM    C2S14779   3.664   0.566   6.026  0.7150 -0.2133 -0.4882
  136OSM    H2S14780   3.762   0.610   6.055  1.1450  0.0997 -2.3043
  136OSM    C3S14781   3.696   0.421   6.013 -0.5995  0.2456 -0.5149
  136OSM    H3S14782   3.612   0.361   5.970 -1.3381  1.7052 -1.1791
  136OSM     O314783   3.712   0.355   6.135 -0.1823 -0.6404 -0.5155
  136OSM    HO314784   3.692   0.421   6.202  1.6213  0.3165 -0.8710
  136OSM    C4S14785   3.814   0.391   5.912  0.2067 -0.2985 -0.1523
  136OSM    H4S14786   3.795   0.412   5.806  0.5401 -0.3773 -0.2302
  136OSM    C5S14787   3.930   0.326   5.935  0.3835 -0.2597 -0.0887
  136OSM    H5S14788   3.958   0.296   6.037  1.8180  0.4419 -0.2528
  136OSM    C6S14789   4.044   0.313   5.839 -0.7081 -0.1599 -0.4168
  136OSM    H6S14790   4.056   0.204   5.819 -0.2613  0.2284 -2.5313
  136OSM    H6T14791   4.135   0.331   5.900 -1.9639  2.7405  0.7958
  136OSM    C7S14792   4.041   0.387   5.706 -0.4366  0.3068  0.0778
  136OSM    H7S14793   4.032   0.495   5.733  1.4453  0.1663  1.4748
  136OSM    H7T14794   3.948   0.351   5.656  0.2015 -1.4602  0.1096
  136OSM    C8S14795   4.169   0.375   5.611  0.0786 -0.5678  0.1915
  136OSM    H8S14796   4.170   0.269   5.577  1.7051 -0.0320 -1.5789
  136OSM    H8T14797   4.261   0.395   5.670  1.3548 -2.4501 -1.0305
  136OSM    C9S14798   4.155   0.470   5.494 -0.0590 -0.3922 -0.9001
  136OSM    H9S14799   4.198   0.567   5.527  2.0625 -0.8704 -2.0705
  136OSM    H9T14800   4.046   0.483   5.474 -0.1674  2.6149  1.0902
  136OSM   C10S14801   4.232   0.432   5.375 -0.0611 -0.1212 -0.0982
  136OSM   H10S14802   4.208   0.328   5.343  0.7346  0.2263 -1.9529
  136OSM   H10T14803   4.339   0.437   5.404  0.4810 -0.6934 -1.9078
  136OSM   C11S14804   4.207   0.534   5.268  0.3342  0.2850 -0.4024
  136OSM   H11S14805   4.250   0.631   5.300  2.5432  0.1657 -2.6586
  136OSM   H11T14806   4.099   0.550   5.247  0.5874  1.0152 -1.2193
  136OSM   C12S14807   4.290   0.500   5.141 -0.4704  0.4665  0.6298
  136OSM   H12S14808   4.249   0.402   5.108 -0.7549  1.1064 -1.0275
  136OSM   H12T14809   4.398   0.499   5.168 -0.5659  1.4375  1.1072
  136OSM   C13S14810   4.283   0.593   5.022  0.0978 -0.0337  0.4306
  136OSM   H13S14811   4.341   0.683   5.051 -1.2518  0.9107  0.2973
  136OSM   H13T14812   4.177   0.611   4.996  0.1086 -0.3915  0.1387
  136OSM   C14S14813   4.357   0.539   4.897  0.0056 -0.9138  0.1886
  136OSM   H14S14814   4.309   0.442   4.871 -0.3790  0.0455 -3.0410
  136OSM   H14T14815   4.464   0.529   4.924  0.3520 -0.0840 -0.8333
  136OSM   C15S14816   4.366   0.646   4.782 -0.1217  0.0375 -0.1945
  136OSM   H15S14817   4.370   0.745   4.831  2.1602 -0.2999  0.3997
  136OSM   H15T14818   4.267   0.653   4.731 -0.4599  1.7987  0.6310
  136OSM   C16S14819   4.471   0.619   4.681 -0.2575 -0.8963  0.3703
  136OSM   H16S14820   4.563   0.579   4.729  0.8390  0.3482 -0.6106
  136OSM   H16T14821   4.497   0.708   4.620 -2.1614 -0.4525  0.1478
  136OSM   C17S14822   4.427   0.515   4.579 -0.3350 -0.7804  0.1387
  136OSM   H17S14823   4.343   0.556   4.519  0.9288  1.1445 -0.4226
  136OSM   H17T14824   4.381   0.423   4.622 -2.9395 -0.5673 -1.9451
  136OSM   C18S14825   4.540   0.454   4.481 -0.1887  0.1818  0.0225
  136OSM   H18S14826   4.624   0.419   4.545  1.1399  1.4185 -0.9871
  136OSM   H18T14827   4.569   0.539   4.415 -0.6317  2.0252  2.0664
  136OSM   H18U14828   4.488   0.374   4.425 -0.6198  0.8544 -0.5607
  136OSM    C1F14829   3.636   0.782   5.905 -0.1829  0.5677 -0.2364
  136OSM     OF14830   3.653   0.848   6.007 -0.9111  0.0959  0.0830
  136OSM    C2F14831   3.616   0.848   5.772  0.2060  0.4096  0.0745
  136OSM    H2F14832   3.513   0.824   5.738  0.7401  0.5094 -1.7476
  136OSM    H2G14833   3.676   0.798   5.693 -1.4228 -1.0877 -0.2822
  136OSM    C3F14834   3.633   1.001   5.767 -0.3901  0.3511  0.2149
  136OSM    H3F14835   3.735   1.038   5.791 -0.1734 -0.5901  0.8008
  136OSM    H3G14836   3.553   1.038   5.835  1.2555  2.6033  1.0381
  136OSM    C4F14837   3.606   1.057   5.628  0.2545  0.0943  0.1582
  136OSM    H4F14838   3.595   1.167   5.635 -0.9204  0.1036 -1.3906
  136OSM    H4G14839   3.506   1.018   5.597  0.6847 -2.8155  1.9851
  136OSM    C5F14840   3.713   1.043   5.518  0.5549  0.7726  0.2385
  136OSM    H5F14841   3.754   0.940   5.524  3.3880  1.8038  0.4468
  136OSM    H5G14842   3.802   1.104   5.548  0.9040  0.3454  0.0828
  136OSM    C6F14843   3.668   1.067   5.373 -0.2330 -0.4413  0.0656
  136OSM    H6F14844   3.587   0.992   5.356  0.2285 -1.0095  0.3389
  136OSM    H6G14845   3.741   1.034   5.296 -0.2577  0.0824 -0.1815
  136OSM    C7F14846   3.623   1.208   5.340  0.4283 -0.4456 -0.5862
  136OSM    H7F14847   3.714   1.271   5.333  0.6915 -0.7691 -0.0905
  136OSM    H7G14848   3.570   1.250   5.429  1.6326  0.5863 -0.3267
  136OSM    C8F14849   3.526   1.227   5.218 -0.4147 -0.4137 -0.5332
  136OSM    H8F14850   3.503   1.335   5.230 -0.7173 -0.7140  2.3517
  136OSM    H8G14851   3.437   1.164   5.200 -0.2287 -0.8314 -0.0095
  136OSM    C9F14852   3.600   1.227   5.091  0.1060 -0.0392  0.3137
  136OSM    H9F14853   3.685   1.158   5.076 -0.3944 -0.2219 -2.0893
  136OSM   C10F14854   3.567   1.298   4.986  0.4056 -0.3338  0.0723
  136OSM   H10F14855   3.634   1.289   4.899  0.9786 -0.3949  0.5198
  136OSM   C11F14856   3.442   1.389   4.978 -0.1659 -0.5104  0.0658
  136OSM   H11F14857   3.409   1.437   5.072 -2.4071  0.9714 -1.3605
  136OSM   H11G14858   3.357   1.330   4.938  0.2357 -0.9581 -0.1323
  136OSM   C12F14859   3.466   1.509   4.880 -0.0442  1.1651  0.4512
  136OSM   H12F14860   3.368   1.558   4.863 -0.1975  0.6259 -0.2433
  136OSM   H12G14861   3.501   1.472   4.781  1.1249 -0.9283  1.5646
  136OSM   C13F14862   3.573   1.604   4.929 -0.1740 -0.0587 -0.4679
  136OSM   H13F14863   3.668   1.547   4.932 -0.2238 -0.1172  0.0693
  136OSM   H13G14864   3.542   1.634   5.031 -1.7415 -1.0662 -0.6075
  136OSM   C14F14865   3.580   1.745   4.854 -0.1047  0.9693  0.4730
  136OSM   H14F14866   3.479   1.792   4.851 -0.5666  0.0025  0.4670
  136OSM   H14G14867   3.614   1.745   4.748 -1.7308  1.5706 -0.0884
  136OSM   C15F14868   3.685   1.825   4.933  0.2573 -0.3285 -0.1272
  136OSM   H15F14869   3.784   1.775   4.934  0.2830 -0.3325  1.8357
  136OSM   H15G14870   3.641   1.825   5.035  0.9088 -2.3629  0.2096
  136OSM   C16F14871   3.695   1.971   4.882  0.0567 -1.0231  0.0546
  136OSM   H16F14872   3.601   2.026   4.902  1.2763  0.5023  1.9547
  136OSM   H16G14873   3.713   1.967   4.772  0.9980 -3.1069  0.2452
  136OSM   C17F14874   3.801   2.059   4.947  0.2381 -0.5276 -0.1825
  136OSM   H17F14875   3.797   2.166   4.917 -0.4366 -0.3422  0.5325
  136OSM   H17G14876   3.904   2.026   4.920 -0.1161 -0.1240 -2.1733
  136OSM   C18F14877   3.777   2.063   5.102  0.0267 -0.0084  0.6249
  136OSM   H18F14878   3.677   2.100   5.131  0.1260 -1.7838  3.6547
  136OSM   H18G14879   3.862   2.115   5.151  2.2628 -2.1016 -0.7972
  136OSM   H18H14880   3.769   1.957   5.135  0.8761 -0.2770  0.0249
  137OSM      N14881   4.119   5.952   6.513 -0.3934  0.3949  0.7570
  137OSM    C1514882   4.011   5.985   6.399 -0.3550 -0.6094  0.0968
  137OSM   H15A14883   3.913   5.991   6.446 -0.6062 -2.8816 -0.0232
  137OSM   H15B14884   3.995   5.904   6.329 -1.4231 -0.9383  0.6897
  137OSM   H15C14885   4.035   6.078   6.351  0.7906 -0.7654  0.3428
  137OSM    C1414886   4.136   6.078   6.591 -0.2799  0.2878 -0.2502
  137OSM   H14A14887   4.039   6.109   6.628 -1.4656 -0.6440 -2.3848
  137OSM   H14B14888   4.190   6.149   6.531  0.6083  0.6413  0.9198
  137OSM   H14C14889   4.201   6.059   6.675 -0.9749  0.5040  0.3492
  137OSM    C1314890   4.073   5.841   6.600  0.1093  0.5556  1.5367
  137OSM   H13A14891   4.074   5.745   6.549  1.4773  1.9810 -1.3967
  137OSM   H13B14892   3.969   5.853   6.628  0.7848  0.8983  4.0742
  137OSM   H13C14893   4.122   5.838   6.696  1.7408  0.3111  0.7287
  137OSM    C1214894   4.250   5.919   6.432 -0.1162  0.1114 -0.0220
  137OSM   H12A14895   4.227   5.836   6.367  0.5002  0.9270 -1.3201
  137OSM   H12B14896   4.330   5.887   6.498  0.8866  0.4126 -1.0715
  137OSM    C1114897   4.301   6.038   6.342  0.6204  0.0891  0.3380
  137OSM   H11A14898   4.218   6.079   6.281 -0.3060  1.8696  2.6661
  137OSM   H11B14899   4.377   5.995   6.273  0.5842  0.2582  0.1926
  137OSM      P14900   4.496   6.123   6.504  0.0776  0.2534  0.2616
  137OSM    O1314901   4.525   6.242   6.584 -0.7426 -0.6243 -0.2466
  137OSM    O1414902   4.492   5.999   6.579 -0.1698  0.6559 -0.5580
  137OSM    O1114903   4.597   6.112   6.392 -0.9112  0.1757 -0.4710
  137OSM    O1214904   4.360   6.151   6.419  0.1449 -0.1907  0.7172
  137OSM    C1S14905   4.619   6.224   6.305  0.4759 -0.4179  0.2946
  137OSM    H1S14906   4.664   6.308   6.361 -0.1418 -0.9041  1.5560
  137OSM    H1T14907   4.520   6.260   6.269 -0.0559 -2.3745 -0.3418
  137OSM     NF14908   4.708   6.308   6.087 -0.2550 -0.3595  0.3325
  137OSM    HNF14909   4.645   6.312   6.009  0.0256  1.0704  0.1533
  137OSM    C2S14910   4.699   6.192   6.178  0.2077 -0.3511  0.5692
  137OSM    H2S14911   4.797   6.153   6.213  0.4685  0.1703  0.4329
  137OSM    C3S14912   4.632   6.061   6.114  0.1177  0.2600 -0.0110
  137OSM    H3S14913   4.525   6.088   6.098 -0.8425 -1.9973  1.8858
  137OSM     O314914   4.642   5.944   6.199 -0.1124 -0.0067 -0.3384
  137OSM    HO314915   4.666   5.984   6.283  1.4870  1.4163 -1.4204
  137OSM    C4S14916   4.690   6.024   5.979  0.5229  0.3934  0.9221
  137OSM    H4S14917   4.787   5.972   5.992  0.1380  0.0532  2.8605
  137OSM    C5S14918   4.632   6.027   5.858  0.7078  0.6950  0.0442
  137OSM    H5S14919   4.535   6.079   5.851  1.1768  1.4350 -1.0775
  137OSM    C6S14920   4.694   5.976   5.731  0.4431  0.3117  0.4209
  137OSM    H6S14921   4.634   5.886   5.702 -0.2513  0.3907  1.5465
  137OSM    H6T14922   4.798   5.939   5.744  0.6198 -0.7499 -2.9178
  137OSM    C7S14923   4.701   6.078   5.616  0.2939 -0.1965 -0.0114
  137OSM    H7S14924   4.784   6.147   5.645 -0.1599  0.8152 -1.0352
  137OSM    H7T14925   4.611   6.140   5.598  0.3512  0.5453  2.0351
  137OSM    C8S14926   4.740   6.024   5.477  0.1320 -0.2030  0.5529
  137OSM    H8S14927   4.654   5.971   5.432 -0.1500  0.5405  0.1998
  137OSM    H8T14928   4.821   5.949   5.484 -0.5612 -1.1024 -0.6449
  137OSM    C9S14929   4.776   6.129   5.369 -0.1139 -0.0343 -1.1704
  137OSM    H9S14930   4.808   6.076   5.277  1.5059 -0.8718 -0.1881
  137OSM    H9T14931   4.859   6.185   5.418  0.8150 -1.3996 -1.1267
  137OSM   C10S14932   4.659   6.210   5.317 -0.0976  0.4696 -0.1430
  137OSM   H10S14933   4.632   6.305   5.368 -1.2563 -0.6717  1.4759
  137OSM   H10T14934   4.561   6.158   5.321 -0.4013  1.0554  3.2040
  137OSM   C11S14935   4.677   6.250   5.165 -0.3253  0.1766  0.0009
  137OSM   H11S14936   4.580   6.287   5.123 -0.0994 -1.4801 -2.1950
  137OSM   H11T14937   4.706   6.159   5.108 -0.3435 -0.6635  1.3074
  137OSM   C12S14938   4.790   6.360   5.148  1.1012 -0.2408 -0.4704
  137OSM   H12S14939   4.879   6.318   5.199  1.5092  0.0463 -0.9364
  137OSM   H12T14940   4.754   6.451   5.202 -0.9559 -0.2902 -1.6493
  137OSM   C13S14941   4.833   6.380   5.003 -0.0260  1.1093 -0.0991
  137OSM   H13S14942   4.744   6.401   4.940 -0.6807  0.3800  0.5512
  137OSM   H13T14943   4.878   6.284   4.970 -0.9660  0.7859 -0.4727
  137OSM   C14S14944   4.928   6.503   4.977  0.8672  0.4079 -0.6842
  137OSM   H14S14945   5.023   6.476   5.026 -0.6166  0.7825  2.6398
  137OSM   H14T14946   4.881   6.594   5.020  0.4531 -0.0630 -0.1279
  137OSM   C15S14947   4.939   6.526   4.825  0.2237  0.0278 -0.5630
  137OSM   H15S14948   5.005   6.613   4.805 -1.7094  2.2186  1.8947
  137OSM   H15T14949   4.838   6.555   4.790  0.2160 -2.2627 -2.7553
  137OSM   C16S14950   4.993   6.404   4.749  0.5542  0.2239 -0.0868
  137OSM   H16S14951   4.911   6.330   4.740  0.3562  0.1345  1.9030
  137OSM   H16T14952   5.074   6.353   4.807 -0.0807 -1.2187 -0.4395
  137OSM   C17S14953   5.042   6.452   4.610  0.0157  0.7247 -0.3111
  137OSM   H17S14954   5.126   6.524   4.619 -0.6532  1.5827 -0.7676
  137OSM   H17T14955   4.954   6.515   4.583 -0.4833  1.1573  2.0405
  137OSM   C18S14956   5.064   6.346   4.509 -0.6910  0.4942  0.4354
  137OSM   H18S14957   5.142   6.276   4.544  0.6081  1.1146 -1.0610
  137OSM   H18T14958   5.095   6.390   4.411 -0.9657 -0.4902 -0.1152
  137OSM   H18U14959   4.969   6.292   4.490 -0.5735  0.1041  0.9350
  137OSM    C1F14960   4.783   6.419   6.112  0.8857  0.3299 -0.1766
  137OSM     OF14961   4.870   6.425   6.199  0.3099  0.4323  0.3652
  137OSM    C2F14962   4.747   6.528   6.022  0.0775 -0.6218 -0.4121
  137OSM    H2F14963   4.800   6.624   6.035  0.2721 -0.5557 -1.6186
  137OSM    H2G14964   4.639   6.549   6.036  0.4996  0.5265  1.3934
  137OSM    C3F14965   4.782   6.498   5.871 -0.3144 -0.2895  0.3216
  137OSM    H3F14966   4.707   6.423   5.839  2.6304 -2.9499 -0.7640
  137OSM    H3G14967   4.882   6.452   5.856 -0.7329 -1.3492  0.7112
  137OSM    C4F14968   4.764   6.623   5.783 -0.0004  0.1537  0.1702
  137OSM    H4F14969   4.818   6.714   5.819  0.5049  0.0015 -0.1765
  137OSM    H4G14970   4.656   6.645   5.773  0.3595  1.4668 -1.3143
  137OSM    C5F14971   4.823   6.594   5.640 -0.0738 -0.4683  0.4663
  137OSM    H5F14972   4.747   6.520   5.608 -0.4532  0.0304  0.1791
  137OSM    H5G14973   4.922   6.545   5.642 -0.6940 -1.7424  2.3470
  137OSM    C6F14974   4.805   6.708   5.538 -0.1972 -0.1997  0.0127
  137OSM    H6F14975   4.851   6.796   5.588  0.5715 -0.5823 -0.0067
  137OSM    H6G14976   4.699   6.735   5.522 -0.4820 -1.2637  0.0593
  137OSM    C7F14977   4.873   6.663   5.417 -0.4081  0.5165  0.9859
  137OSM    H7F14978   4.808   6.597   5.357  1.5420  1.6085 -2.6748
  137OSM    H7G14979   4.966   6.608   5.442  0.7451  2.2646  0.7608
  137OSM    C8F14980   4.913   6.783   5.320  0.6046 -0.5108 -0.4817
  137OSM    H8F14981   4.965   6.844   5.397 -0.9183 -0.4063  0.5015
  137OSM    H8G14982   4.819   6.831   5.288  0.6331  1.4150  1.9605
  137OSM    C9F14983   5.007   6.728   5.215  0.3073  0.3569 -0.0479
  137OSM    H9F14984   4.999   6.622   5.186 -1.0259  0.7587 -1.3026
  137OSM   C10F14985   5.112   6.797   5.166  0.6956  0.0139  0.3922
  137OSM   H10F14986   5.180   6.737   5.104  0.6786  0.4825 -0.0849
  137OSM   C11F14987   5.154   6.940   5.190 -0.0173  0.3004 -0.2670
  137OSM   H11F14988   5.257   6.954   5.149  0.5544 -0.5195  0.8389
  137OSM   H11G14989   5.139   6.973   5.295  4.9671  1.7430  0.2583
  137OSM   C12F14990   5.074   7.033   5.104 -0.2046 -0.1606  0.7982
  137OSM   H12F14991   5.110   7.133   5.134  2.5303 -0.7985 -0.1191
  137OSM   H12G14992   4.968   7.029   5.139  0.1308  1.4353  2.0860
  137OSM   C13F14993   5.083   7.017   4.956  0.6835  0.5110  0.4241
  137OSM   H13F14994   5.190   6.999   4.932  1.0300  1.5453  1.1398
  137OSM   H13G14995   5.046   7.116   4.922 -1.9441  0.0105  1.5955
  137OSM   C14F14996   4.981   6.917   4.889  0.2572  0.2664  0.0407
  137OSM   H14F14997   4.879   6.951   4.917 -0.7114 -2.4968  0.1682
  137OSM   H14G14998   4.991   6.812   4.926  1.4255  0.1059 -0.6961
  137OSM   C15F14999   4.994   6.906   4.738  0.7366 -0.0589 -0.4877
  137OSM   H15F15000   4.941   6.994   4.697 -1.4755 -0.4102  1.3863
  137OSM   H15G15001   4.928   6.824   4.704 -1.2005  0.5982  1.4455
  137OSM   C16F15002   5.136   6.882   4.692  0.2332 -0.4746 -0.2580
  137OSM   H16F15003   5.164   6.784   4.735 -2.8942 -0.3985  2.2669
  137OSM   H16G15004   5.210   6.957   4.728 -0.3224  1.1791 -2.3033
  137OSM   C17F15005   5.148   6.857   4.540 -0.0146 -0.2418 -0.2448
  137OSM   H17F15006   5.091   6.765   4.515 -2.1660  0.7587  0.7474
  137OSM   H17G15007   5.255   6.833   4.524  0.0444 -1.1097  1.2839
  137OSM   C18F15008   5.097   6.970   4.448 -0.5391 -0.0189  0.6294
  137OSM   H18F15009   4.990   6.989   4.474 -0.7273  0.1802 -0.2802
  137OSM   H18G15010   5.097   6.949   4.339  0.8014  0.8613  0.4404
  137OSM   H18H15011   5.160   7.060   4.462 -0.7416  0.2244 -0.0334
  138OSM      N15012   1.759   4.990   6.662 -0.3771  0.5153  0.0877
  138OSM    C1515013   1.768   5.020   6.512 -0.8342  0.1005 -0.0702
  138OSM   H15A15014   1.829   5.106   6.486  0.1369  0.0802  1.9016
  138OSM   H15B15015   1.672   5.025   6.464 -1.4258 -1.1154  0.9241
  138OSM   H15C15016   1.836   4.947   6.470 -0.4568  1.0406 -1.1326
  138OSM    C1415017   1.652   5.080   6.719  0.1373  0.8621 -0.0488
  138OSM   H14A15018   1.634   5.052   6.821 -0.8966  1.5216 -0.0389
  138OSM   H14B15019   1.568   5.055   6.655  1.5155  1.0392 -2.0289
  138OSM   H14C15020   1.676   5.185   6.717 -0.7592  1.0977  0.8712
  138OSM    C1315021   1.717   4.845   6.673  0.4395 -0.4356 -0.5635
  138OSM   H13A15022   1.610   4.838   6.667  0.4363 -3.3611  1.2017
  138OSM   H13B15023   1.742   4.806   6.771  0.2953  0.4864 -0.1441
  138OSM   H13C15024   1.772   4.786   6.603 -1.6910 -2.3149 -0.7553
  138OSM    C1215025   1.888   5.030   6.733  0.0714  0.3062  0.1962
  138OSM   H12A15026   1.883   5.007   6.838 -1.4883 -1.6768 -0.2508
  138OSM   H12B15027   1.900   5.137   6.731  1.4327  0.1691 -1.2260
  138OSM    C1115028   2.016   4.953   6.694 -0.5680  0.0799  0.3377
  138OSM   H11A15029   2.089   4.977   6.774 -1.2350  1.3655  0.5750
  138OSM   H11B15030   2.070   4.989   6.604  2.2530 -0.5378  1.6606
  138OSM      P15031   2.127   4.721   6.661  0.1342  0.3428 -0.0991
  138OSM    O1315032   2.252   4.774   6.728 -0.1896  0.0810  0.7345
  138OSM    O1415033   2.100   4.575   6.677  0.1228  0.4009  0.2884
  138OSM    O1115034   2.135   4.764   6.508 -0.4385  0.2854  0.3762
  138OSM    O1215035   1.998   4.807   6.698 -0.2526 -0.2389 -0.5902
  138OSM    C1S15036   2.039   4.716   6.412  0.0988 -0.7130  0.1516
  138OSM    H1S15037   1.939   4.761   6.431  0.1557 -0.1892 -0.7572
  138OSM    H1T15038   2.015   4.608   6.424  0.2237 -0.5279  2.6595
  138OSM     NF15039   1.975   4.749   6.170  0.1977 -0.0891 -0.7401
  138OSM    HNF15040   1.980   4.672   6.107 -0.1509 -1.7655  1.1575
  138OSM    C2S15041   2.086   4.758   6.269 -0.1764  0.0047 -0.3736
  138OSM    H2S15042   2.119   4.864   6.274 -0.8588  0.2639 -1.0630
  138OSM    C3S15043   2.198   4.662   6.234 -0.4216 -0.3047  0.5826
  138OSM    H3S15044   2.153   4.563   6.211  3.1050 -2.6770  2.9047
  138OSM     O315045   2.303   4.648   6.328 -0.0642  0.1398  0.4392
  138OSM    HO315046   2.267   4.685   6.409 -0.0008  0.4080  0.3465
  138OSM    C4S15047   2.261   4.719   6.107  0.1796 -0.4188  0.1100
  138OSM    H4S15048   2.277   4.828   6.111 -0.7421 -0.2847  2.9231
  138OSM    C5S15049   2.293   4.643   5.999  0.6216 -0.2471 -0.4660
  138OSM    H5S15050   2.269   4.536   5.993 -1.6549  0.2175 -0.3787
  138OSM    C6S15051   2.361   4.695   5.878 -0.5147  0.3049  0.0525
  138OSM    H6S15052   2.322   4.644   5.788  1.1812 -1.3634  0.2026
  138OSM    H6T15053   2.467   4.665   5.863  0.6063  3.0862  1.5665
  138OSM    C7S15054   2.352   4.848   5.858 -1.2012  0.4818 -0.6324
  138OSM    H7S15055   2.398   4.909   5.939 -1.6769 -1.3174  1.0896
  138OSM    H7T15056   2.245   4.875   5.869 -1.7446 -1.5007 -0.6502
  138OSM    C8S15057   2.399   4.894   5.718 -0.5825 -0.5914 -0.0522
  138OSM    H8S15058   2.377   5.002   5.706 -1.3051 -0.6289  0.7655
  138OSM    H8T15059   2.347   4.832   5.642 -1.2461 -1.5027  1.0960
  138OSM    C9S15060   2.553   4.885   5.703 -0.2314 -0.0413  0.5874
  138OSM    H9S15061   2.588   4.781   5.722 -1.0777 -0.1116  1.8454
  138OSM    H9T15062   2.596   4.951   5.781 -0.5176 -0.9804  1.5582
  138OSM   C10S15063   2.611   4.930   5.572  0.1273  0.4744  0.0716
  138OSM   H10S15064   2.569   4.864   5.493 -0.8114 -0.2389  1.1337
  138OSM   H10T15065   2.717   4.897   5.577 -0.1980 -0.6694 -0.1339
  138OSM   C11S15066   2.584   5.075   5.540  0.4374  0.7383 -0.8436
  138OSM   H11S15067   2.630   5.143   5.616  2.2293 -0.7464 -0.5406
  138OSM   H11T15068   2.473   5.087   5.542  0.5555  2.4178 -2.0464
  138OSM   C12S15069   2.620   5.116   5.403 -0.3083  0.9317  0.9282
  138OSM   H12S15070   2.730   5.113   5.387 -0.2102  0.4499  1.6743
  138OSM   H12T15071   2.607   5.225   5.385  0.4385  1.0691  1.1841
  138OSM   C13S15072   2.575   5.028   5.291  0.5940 -0.8190 -0.4102
  138OSM   H13S15073   2.471   5.065   5.283  1.4338  2.1169  0.9290
  138OSM   H13T15074   2.561   4.921   5.317  0.7956 -0.8355 -0.3678
  138OSM   C14S15075   2.636   5.043   5.158 -0.1165  0.6272 -0.3000
  138OSM   H14S15076   2.736   4.994   5.151 -2.2083 -4.2940  0.0278
  138OSM   H14T15077   2.648   5.153   5.147  2.1620  0.7179  2.0847
  138OSM   C15S15078   2.556   4.997   5.044  0.0901  0.6725 -0.4628
  138OSM   H15S15079   2.454   5.039   5.048 -0.7132 -1.1229 -1.1555
  138OSM   H15T15080   2.550   4.887   5.061  0.3708  0.8501  0.8966
  138OSM   C16S15081   2.627   5.024   4.908  0.2996  0.1678 -0.5321
  138OSM   H16S15082   2.666   5.127   4.924 -0.5724  0.7086 -1.7325
  138OSM   H16T15083   2.548   5.034   4.831  1.0353  0.8177 -1.2162
  138OSM   C17S15084   2.737   4.928   4.879  0.1414 -0.0310 -0.6095
  138OSM   H17S15085   2.693   4.833   4.842 -1.9254  0.8171 -0.4384
  138OSM   H17T15086   2.795   4.907   4.972  0.0178  0.1746 -0.4845
  138OSM   C18S15087   2.831   4.976   4.774  0.1200 -0.1082 -0.0921
  138OSM   H18S15088   2.864   5.081   4.788  2.0014 -0.7621  0.8677
  138OSM   H18T15089   2.771   4.966   4.681 -3.3658  0.0797  1.9621
  138OSM   H18U15090   2.926   4.922   4.753  0.0125  0.2028 -1.4262
  138OSM    C1F15091   1.857   4.820   6.171 -0.6422  0.0494 -0.7625
  138OSM     OF15092   1.822   4.890   6.261  0.0620 -0.5190  0.5814
  138OSM    C2F15093   1.770   4.803   6.051 -0.4317  0.4295  0.2584
  138OSM    H2F15094   1.749   4.698   6.022 -1.1448  0.7237 -0.3224
  138OSM    H2G15095   1.828   4.855   5.972  1.3671  1.4503  2.1381
  138OSM    C3F15096   1.632   4.877   6.059 -0.3058 -0.4040 -0.3999
  138OSM    H3F15097   1.656   4.984   6.075  2.1564 -0.9118 -0.3533
  138OSM    H3G15098   1.576   4.844   6.149  2.1619 -0.9771  1.0345
  138OSM    C4F15099   1.538   4.873   5.938 -0.5495  0.4059  0.0590
  138OSM    H4F15100   1.519   4.770   5.902 -2.3558  0.1415  1.6332
  138OSM    H4G15101   1.595   4.926   5.858 -1.2820  0.1489 -0.6400
  138OSM    C5F15102   1.404   4.941   5.971  0.0452 -0.9335  0.1429
  138OSM    H5F15103   1.430   5.042   6.010  1.0921 -1.5842  1.1941
  138OSM    H5G15104   1.342   4.886   6.045 -1.2634 -0.9428 -0.9282
  138OSM    C6F15105   1.328   4.954   5.839  0.1227  0.3791 -0.0379
  138OSM    H6F15106   1.394   4.981   5.754 -0.3704 -0.7491 -0.7885
  138OSM    H6G15107   1.252   5.035   5.849 -0.6938 -0.3959  0.1648
  138OSM    C7F15108   1.244   4.834   5.792 -0.1620 -0.6580 -0.2392
  138OSM    H7F15109   1.221   4.776   5.884  1.6913  0.0622  0.7327
  138OSM    H7G15110   1.303   4.768   5.725 -0.4315 -0.6284 -0.5107
  138OSM    C8F15111   1.110   4.853   5.716 -0.0928 -0.1866 -0.3444
  138OSM    H8F15112   1.114   4.948   5.659  0.4460 -0.4764 -0.8089
  138OSM    H8G15113   1.039   4.877   5.798  0.3058  0.1142 -0.0822
  138OSM    C9F15114   1.064   4.723   5.645  0.6798 -0.1000  0.2688
  138OSM    H9F15115   1.031   4.642   5.711 -1.5425  0.9787  0.5756
  138OSM   C10F15116   1.016   4.704   5.519  0.4171 -0.6543 -0.0088
  138OSM   H10F15117   0.993   4.605   5.476  1.8257 -0.7808 -0.5041
  138OSM   C11F15118   1.008   4.813   5.411 -0.0788  0.3836  0.3737
  138OSM   H11F15119   1.082   4.894   5.428  0.8373 -0.4524  0.4647
  138OSM   H11G15120   0.904   4.852   5.404 -0.7993 -1.6721 -2.2380
  138OSM   C12F15121   1.072   4.753   5.283  0.7083  0.2992 -0.2271
  138OSM   H12F15122   1.016   4.661   5.257 -2.6838  1.4164  2.4193
  138OSM   H12G15123   1.178   4.726   5.303  0.5690 -1.6310 -1.8091
  138OSM   C13F15124   1.084   4.859   5.174  0.5004 -0.4288 -0.5253
  138OSM   H13F15125   1.147   4.940   5.217  0.6932 -0.2402 -1.1436
  138OSM   H13G15126   0.980   4.899   5.165  0.4469 -0.6410 -0.8595
  138OSM   C14F15127   1.139   4.807   5.043 -0.8374  0.6187  0.2030
  138OSM   H14F15128   1.074   4.729   4.997 -0.0659 -0.3476  0.7217
  138OSM   H14G15129   1.232   4.750   5.061 -1.6006 -1.3701 -1.6388
  138OSM   C15F15130   1.151   4.923   4.957 -0.4554 -1.4954  0.1390
  138OSM   H15F15131   1.227   4.996   4.993  0.6485 -2.1713 -0.7780
  138OSM   H15G15132   1.059   4.980   4.930  1.2137  1.3962  0.0897
  138OSM   C16F15133   1.200   4.880   4.814 -0.0981 -0.1622 -0.4409
  138OSM   H16F15134   1.127   4.807   4.772  1.4060 -2.3839  0.5674
  138OSM   H16G15135   1.301   4.834   4.822  0.3226  1.0229  1.5276
  138OSM   C17F15136   1.209   5.004   4.728  0.1923 -0.2946  0.2877
  138OSM   H17F15137   1.284   5.071   4.775  1.1886  0.5150 -2.2866
  138OSM   H17G15138   1.107   5.046   4.715 -0.3665 -1.8835 -0.7842
  138OSM   C18F15139   1.261   4.981   4.589 -0.5383  0.3565  0.2950
  138OSM   H18F15140   1.179   4.940   4.526 -1.6767 -1.6322  2.9087
  138OSM   H18G15141   1.336   4.899   4.595 -0.3828  0.2792 -1.9176
  138OSM   H18H15142   1.303   5.071   4.540  0.3299  0.4505  1.1794
  139OSM      N15143   2.943   2.883   6.649  0.1715 -0.0570  0.6158
  139OSM    C1515144   2.901   3.004   6.576  0.4600  0.2592 -0.4911
  139OSM   H15A15145   2.977   3.078   6.560 -2.3080  3.4915  0.1625
  139OSM   H15B15146   2.828   3.052   6.640  0.8413 -1.2785  1.1889
  139OSM   H15C15147   2.861   2.980   6.479  1.1610 -0.0311 -0.7094
  139OSM    C1415148   3.010   2.932   6.776 -0.1340  0.0233 -0.2034
  139OSM   H14A15149   2.940   2.973   6.847  0.1420  0.5780 -0.2430
  139OSM   H14B15150   3.091   3.003   6.766 -2.9290  3.7311  0.9787
  139OSM   H14C15151   3.050   2.851   6.835 -0.7918  1.1173  1.8720
  139OSM    C1315152   2.825   2.796   6.682 -0.0149 -0.8505  0.3042
  139OSM   H13A15153   2.873   2.702   6.703  3.9513  0.9008 -0.0355
  139OSM   H13B15154   2.759   2.789   6.596 -1.4777  0.9177  1.2114
  139OSM   H13C15155   2.772   2.837   6.767  1.4288 -1.2992  1.4703
  139OSM    C1215156   3.041   2.809   6.563 -0.1333  0.3691  0.3502
  139OSM   H12A15157   3.103   2.876   6.505 -0.0024 -0.0452  0.0014
  139OSM   H12B15158   2.991   2.755   6.484  1.7238 -0.7626 -0.1298
  139OSM    C1115159   3.137   2.704   6.636  0.0954  0.7329 -0.3712
  139OSM   H11A15160   3.196   2.745   6.720  1.0243  0.4245 -0.8641
  139OSM   H11B15161   3.200   2.656   6.558  0.9172  0.7128  0.2945
  139OSM      P15162   3.093   2.456   6.714 -0.0387  0.1172  0.1411
  139OSM    O1315163   3.231   2.423   6.669  0.1519 -0.3925  0.0209
  139OSM    O1415164   3.062   2.422   6.855 -0.3719 -0.2535  0.7559
  139OSM    O1115165   2.989   2.379   6.616  0.2302  0.3093 -0.0301
  139OSM    O1215166   3.055   2.602   6.694 -0.1638 -0.5937 -0.0808
  139OSM    C1S15167   2.904   2.446   6.522 -0.2704 -0.4638  0.2820
  139OSM    H1S15168   2.892   2.554   6.548  1.9200  0.0670 -0.6895
  139OSM    H1T15169   2.806   2.394   6.515  1.0599 -3.0737  0.0945
  139OSM     NF15170   2.885   2.509   6.277 -0.5058  0.1854  0.1046
  139OSM    HNF15171   2.802   2.456   6.265  0.2697 -2.0302  3.1462
  139OSM    C2S15172   2.967   2.440   6.378 -0.7890  0.4623  0.1301
  139OSM    H2S15173   3.068   2.486   6.386 -0.7023  0.1954  0.6114
  139OSM    C3S15174   2.999   2.287   6.350 -0.1428 -0.9449 -0.3318
  139OSM    H3S15175   2.899   2.237   6.351 -0.9774  0.6062 -1.5823
  139OSM     O315176   3.073   2.215   6.445 -0.1859  0.0849 -1.1257
  139OSM    HO315177   3.060   2.268   6.524 -2.0853 -2.1250  0.1778
  139OSM    C4S15178   3.061   2.285   6.224 -0.1512 -0.8505 -0.2312
  139OSM    H4S15179   3.147   2.353   6.208  0.0103 -1.2061 -0.9054
  139OSM    C5S15180   3.009   2.221   6.117 -0.6373  0.2934  0.3166
  139OSM    H5S15181   2.926   2.150   6.128 -0.6066  0.6065  3.8474
  139OSM    C6S15182   3.070   2.231   5.980 -0.0130  0.4472 -0.2476
  139OSM    H6S15183   3.041   2.148   5.912  0.8211  0.4830 -0.6660
  139OSM    H6T15184   3.180   2.221   5.989 -0.1594 -0.8426  0.3886
  139OSM    C7S15185   3.041   2.361   5.908 -0.6725 -0.3881 -0.0116
  139OSM    H7S15186   3.097   2.443   5.958 -3.0811  0.0325  2.2261
  139OSM    H7T15187   2.935   2.396   5.916 -0.5425  0.1633 -0.6336
  139OSM    C8S15188   3.078   2.355   5.757 -0.2346  0.3598 -0.0510
  139OSM    H8S15189   3.010   2.291   5.696  1.7021 -1.1603 -0.7114
  139OSM    H8T15190   3.178   2.308   5.757 -1.1724 -1.7785  0.1801
  139OSM    C9S15191   3.075   2.486   5.681 -0.1288  0.4404 -0.3414
  139OSM    H9S15192   3.141   2.563   5.726  0.8367 -0.4309 -0.2268
  139OSM    H9T15193   2.973   2.530   5.689 -0.7463 -0.6617 -1.7007
  139OSM   C10S15194   3.105   2.471   5.528 -0.0651 -0.0337 -0.2556
  139OSM   H10S15195   3.028   2.412   5.474 -0.2980  0.1551 -0.1317
  139OSM   H10T15196   3.202   2.420   5.518  1.3749  1.9003  2.4662
  139OSM   C11S15197   3.112   2.603   5.453 -0.0826 -0.0813 -0.2899
  139OSM   H11S15198   3.205   2.656   5.480 -0.0548 -1.0181  1.6731
  139OSM   H11T15199   3.034   2.676   5.483  1.2208  0.8010  1.1159
  139OSM   C12S15200   3.104   2.582   5.304  0.8896 -0.1906  0.1677
  139OSM   H12S15201   3.010   2.531   5.275 -0.1992  1.9806 -0.3742
  139OSM   H12T15202   3.180   2.513   5.260  0.1402 -0.9868  0.0998
  139OSM   C13S15203   3.100   2.712   5.222  0.1646  0.1092  0.1758
  139OSM   H13S15204   3.184   2.771   5.263 -0.0289  1.1768 -0.9108
  139OSM   H13T15205   3.014   2.780   5.241 -0.9228 -0.6226 -1.8375
  139OSM   C14S15206   3.126   2.677   5.073  0.1048 -0.0528  0.1689
  139OSM   H14S15207   3.225   2.640   5.039  0.0471 -0.2080  0.1687
  139OSM   H14T15208   3.108   2.777   5.029  0.9435 -0.5459 -1.3853
  139OSM   C15S15209   3.006   2.597   5.011 -0.2601 -0.1143 -0.0504
  139OSM   H15S15210   2.908   2.647   5.028 -0.7834 -0.9468 -0.5473
  139OSM   H15T15211   3.012   2.495   5.055 -1.7103  0.5032  1.7342
  139OSM   C16S15212   3.028   2.591   4.854  0.0028  0.4505 -0.0195
  139OSM   H16S15213   3.099   2.506   4.841 -0.6384 -0.1272  0.2117
  139OSM   H16T15214   3.073   2.677   4.800 -0.5367 -1.4457 -3.7807
  139OSM   C17S15215   2.905   2.546   4.780  0.5267 -0.3951  0.1980
  139OSM   H17S15216   2.848   2.459   4.816 -0.2929  0.5808  1.3482
  139OSM   H17T15217   2.937   2.520   4.676 -1.5981  1.6489 -1.0710
  139OSM   C18S15218   2.811   2.670   4.766 -0.7932  0.3374 -0.6321
  139OSM   H18S15219   2.776   2.702   4.866 -0.6671  0.3586 -0.5950
  139OSM   H18T15220   2.719   2.630   4.718 -0.0957 -2.3381  0.0561
  139OSM   H18U15221   2.853   2.755   4.709  0.0485  1.1033  1.0668
  139OSM    C1F15222   2.895   2.637   6.262  0.3030 -0.3177  0.0275
  139OSM     OF15223   2.993   2.699   6.309  0.9477 -0.1130 -0.5301
  139OSM    C2F15224   2.785   2.707   6.187  0.9797 -0.6770  0.8387
  139OSM    H2F15225   2.736   2.783   6.251  0.8592 -0.1898  0.1825
  139OSM    H2G15226   2.703   2.634   6.171 -2.5641  2.8210  1.5986
  139OSM    C3F15227   2.836   2.774   6.061 -0.1233  0.9697  0.0452
  139OSM    H3F15228   2.897   2.691   6.018 -0.0170  0.9697  0.1961
  139OSM    H3G15229   2.905   2.851   6.100  1.0465  0.2415 -0.5343
  139OSM    C4F15230   2.722   2.827   5.965 -0.2614 -0.4719 -0.1145
  139OSM    H4F15231   2.667   2.896   6.033  1.9126  1.8869 -0.5693
  139OSM    H4G15232   2.651   2.753   5.923  0.9376 -0.2608 -2.7505
  139OSM    C5F15233   2.779   2.917   5.852 -0.1171 -0.0923 -0.7278
  139OSM    H5F15234   2.839   2.990   5.912 -1.3794  0.0394  0.4376
  139OSM    H5G15235   2.703   2.972   5.792  1.0845  2.4318 -0.0998
  139OSM    C6F15236   2.885   2.845   5.766  0.6389  0.2101  0.0191
  139OSM    H6F15237   2.847   2.749   5.726 -0.0186  0.3100  0.3935
  139OSM    H6G15238   2.977   2.826   5.827 -0.1111  0.6856  1.3509
  139OSM    C7F15239   2.935   2.923   5.641 -0.2500 -0.0470 -0.6184
  139OSM    H7F15240   3.023   2.864   5.607  0.5278 -1.2347  3.0033
  139OSM    H7G15241   2.984   3.017   5.672  0.3093 -0.5216 -0.0485
  139OSM    C8F15242   2.843   2.952   5.523 -0.0394 -0.3241 -0.0462
  139OSM    H8F15243   2.899   3.024   5.459 -1.9533  0.9157 -0.4277
  139OSM    H8G15244   2.750   3.003   5.556 -0.2655  0.6176 -1.9602
  139OSM    C9F15245   2.802   2.831   5.443 -1.4302 -0.3335  0.1968
  139OSM    H9F15246   2.833   2.734   5.486  1.2601  0.8465  1.1518
  139OSM   C10F15247   2.741   2.827   5.322 -0.5589  0.3841  0.0522
  139OSM   H10F15248   2.743   2.726   5.279 -0.1864 -0.9131  2.9066
  139OSM   C11F15249   2.687   2.939   5.243 -0.6801  0.2649 -0.6205
  139OSM   H11F15250   2.701   3.038   5.291  2.7711 -0.0953 -0.6106
  139OSM   H11G15251   2.582   2.913   5.218 -0.2660 -0.1546 -2.0475
  139OSM   C12F15252   2.733   2.950   5.097 -0.4141  0.3967 -1.0683
  139OSM   H12F15253   2.658   2.994   5.027 -2.1288  0.8670  0.9550
  139OSM   H12G15254   2.755   2.849   5.057 -0.7038 -0.2722  0.3762
  139OSM   C13F15255   2.873   3.027   5.088  0.8639 -0.3226 -0.0089
  139OSM   H13F15256   2.952   2.956   5.122 -0.0114 -2.0243 -1.3305
  139OSM   H13G15257   2.866   3.124   5.141 -3.3565 -0.6724  0.4389
  139OSM   C14F15258   2.914   3.052   4.936  0.0737  0.5874  0.5543
  139OSM   H14F15259   2.839   3.114   4.882 -0.2000  1.5816  2.0123
  139OSM   H14G15260   2.934   2.951   4.894 -0.5115  0.1190  1.3714
  139OSM   C15F15261   3.046   3.124   4.916  0.3333  0.4995 -0.5310
  139OSM   H15F15262   3.131   3.062   4.954 -1.9340 -2.7308 -0.3329
  139OSM   H15G15263   3.038   3.217   4.976 -0.0616 -0.1741  0.4880
  139OSM   C16F15264   3.081   3.159   4.773  0.0513 -0.5479  0.0902
  139OSM   H16F15265   3.061   3.066   4.715 -0.6415 -1.2906  1.4723
  139OSM   H16G15266   3.189   3.183   4.784 -0.3285  0.4086  2.1756
  139OSM   C17F15267   3.001   3.268   4.700 -0.0117 -0.0833  0.3590
  139OSM   H17F15268   3.009   3.363   4.757 -0.6288 -0.0184  0.3518
  139OSM   H17G15269   2.899   3.226   4.690  0.3583 -0.5992 -1.6641
  139OSM   C18F15270   3.049   3.287   4.557 -0.3974  0.0474 -0.8415
  139OSM   H18F15271   2.989   3.347   4.486 -4.2024 -2.7307 -0.2788
  139OSM   H18G15272   3.053   3.185   4.512  2.7620 -0.5313  0.4427
  139OSM   H18H15273   3.154   3.324   4.552 -0.5713  0.4348 -2.0334
  140OSM      N15274   4.893   5.907   6.800  0.3047 -0.2209  0.9222
  140OSM    C1515275   4.897   5.884   6.950 -0.7109  0.4962 -0.1605
  140OSM   H15A15276   4.805   5.858   7.000  0.3269 -0.3935  1.3645
  140OSM   H15B15277   4.925   5.968   7.013  0.4057 -0.6155  0.8872
  140OSM   H15C15278   4.964   5.805   6.980 -0.2343  0.5537 -1.0285
  140OSM    C1415279   4.798   6.012   6.761 -0.4260 -0.5660  0.2298
  140OSM   H14A15280   4.835   6.101   6.810  2.2296 -0.3156 -1.9722
  140OSM   H14B15281   4.694   6.004   6.790 -1.4509  0.7972 -2.6344
  140OSM   H14C15282   4.816   6.050   6.661 -1.1163 -0.4331  0.1456
  140OSM    C1315283   5.033   5.936   6.758 -0.3571 -0.0527  0.3078
  140OSM   H13A15284   5.099   5.854   6.779 -0.4720  0.0948  1.2917
  140OSM   H13B15285   5.074   6.018   6.816  0.6548 -0.4256  0.1388
  140OSM   H13C15286   5.044   5.953   6.652 -0.4832 -2.2526 -0.0956
  140OSM    C1215287   4.853   5.783   6.727  0.1275  0.1264  0.1609
  140OSM   H12A15288   4.757   5.753   6.766  0.0841  0.0275 -0.0242
  140OSM   H12B15289   4.914   5.704   6.766  2.1747  1.3126 -0.5059
  140OSM    C1115290   4.830   5.789   6.576  0.4239 -0.2770 -0.4113
  140OSM   H11A15291   4.757   5.871   6.556 -0.4116 -0.7588  0.5471
  140OSM   H11B15292   4.779   5.698   6.539  1.4539 -1.4275  0.9088
  140OSM      P15293   5.052   5.707   6.473 -0.1625  0.1097 -0.2928
  140OSM    O1315294   5.153   5.745   6.367 -0.1447  0.5871  0.1735
  140OSM    O1415295   5.105   5.664   6.604  0.0200  0.0163 -0.3262
  140OSM    O1115296   4.970   5.594   6.404  0.4915 -0.0849 -0.4008
  140OSM    O1215297   4.946   5.826   6.493  0.4435  0.6020 -0.2677
  140OSM    C1S15298   4.899   5.610   6.288 -0.0848 -0.3065  1.0290
  140OSM    H1S15299   4.953   5.674   6.215  0.5517 -0.4850  1.3336
  140OSM    H1T15300   4.800   5.658   6.303 -0.3992 -0.9272  0.9859
  140OSM     NF15301   4.808   5.505   6.082 -0.4420  0.0159 -0.3462
  140OSM    HNF15302   4.711   5.526   6.068 -0.7472 -0.0642  1.3547
  140OSM    C2S15303   4.857   5.476   6.215 -0.1549 -0.4551  0.6665
  140OSM    H2S15304   4.944   5.407   6.203 -1.4296 -2.2235  1.2214
  140OSM    C3S15305   4.749   5.405   6.306 -0.7737 -0.2934 -0.2562
  140OSM    H3S15306   4.672   5.484   6.319 -0.1943  0.3185 -0.5420
  140OSM     O315307   4.801   5.397   6.439 -0.0917  0.2476 -0.4454
  140OSM    HO315308   4.875   5.458   6.448  3.9249 -4.3318  3.4575
  140OSM    C4S15309   4.678   5.288   6.256 -0.0684 -0.2737  0.4299
  140OSM    H4S15310   4.570   5.306   6.244  0.4720  2.4268 -1.0088
  140OSM    C5S15311   4.733   5.175   6.252 -0.4010  0.5741  0.4129
  140OSM    H5S15312   4.829   5.162   6.304  0.0199  1.1642 -0.2119
  140OSM    C6S15313   4.684   5.033   6.216  0.5597  0.5740  0.2025
  140OSM    H6S15314   4.574   5.045   6.201  0.7791  3.6897  0.4779
  140OSM    H6T15315   4.706   4.953   6.290  1.0014 -1.2519 -1.7973
  140OSM    C7S15316   4.745   4.983   6.080  0.0712  0.4863  0.0063
  140OSM    H7S15317   4.845   4.941   6.105  0.2564  0.1950 -1.1922
  140OSM    H7T15318   4.761   5.066   6.009 -2.8462  1.4951  0.3942
  140OSM    C8S15319   4.663   4.868   6.017  0.1340  0.4403  0.6544
  140OSM    H8S15320   4.562   4.900   5.984  0.5552  0.3582 -0.8109
  140OSM    H8T15321   4.628   4.796   6.094  1.9757 -0.5334  0.6223
  140OSM    C9S15322   4.727   4.785   5.901  0.6168 -1.0198 -0.6302
  140OSM    H9S15323   4.673   4.689   5.882 -0.0008 -0.9662  0.6834
  140OSM    H9T15324   4.834   4.768   5.927  1.5523  2.1989 -1.9587
  140OSM   C10S15325   4.744   4.869   5.766 -0.3029  0.1280 -0.3121
  140OSM   H10S15326   4.797   4.965   5.779 -0.7730  0.4410 -0.6987
  140OSM   H10T15327   4.642   4.892   5.728 -0.6538 -0.2678  0.3633
  140OSM   C11S15328   4.828   4.787   5.663  0.2071 -0.0915 -0.5667
  140OSM   H11S15329   4.770   4.697   5.631  1.9146 -1.5341  0.2127
  140OSM   H11T15330   4.920   4.761   5.720 -0.0565  0.6739  0.2166
  140OSM   C12S15331   4.877   4.869   5.540  0.0370  0.4877  0.0126
  140OSM   H12S15332   4.955   4.938   5.580  0.2477  0.5018 -0.4243
  140OSM   H12T15333   4.786   4.923   5.505 -0.1578  1.8813  2.3877
  140OSM   C13S15334   4.942   4.785   5.431 -0.5218  0.7061  0.3598
  140OSM   H13S15335   5.036   4.742   5.470  0.7040  2.5050 -0.5121
  140OSM   H13T15336   4.970   4.852   5.347 -0.0876 -2.0541 -1.8487
  140OSM   C14S15337   4.851   4.666   5.376 -0.4516 -0.5055 -0.6932
  140OSM   H14S15338   4.760   4.719   5.341 -0.7110 -0.3295  0.2233
  140OSM   H14T15339   4.826   4.598   5.460  1.8146 -0.4316  0.1176
  140OSM   C15S15340   4.916   4.585   5.260  1.2520  0.3698  0.4275
  140OSM   H15S15341   4.849   4.501   5.230 -0.0015  1.1979  0.8259
  140OSM   H15T15342   5.014   4.559   5.306 -0.1693 -1.4976  2.6544
  140OSM   C16S15343   4.939   4.669   5.133 -0.2079 -0.2114  0.5602
  140OSM   H16S15344   5.010   4.749   5.163 -0.4618 -0.5674  2.1954
  140OSM   H16T15345   4.844   4.721   5.109 -1.4107 -2.6125 -0.1955
  140OSM   C17S15346   4.986   4.590   5.020 -0.1499 -0.4935  0.4571
  140OSM   H17S15347   4.906   4.514   5.008 -1.6890  1.1525 -0.1676
  140OSM   H17T15348   5.086   4.543   5.033  1.5222  2.6857  0.1137
  140OSM   C18S15349   4.981   4.664   4.882 -1.0636  0.4104  0.3762
  140OSM   H18S15350   5.075   4.722   4.872 -1.8591  1.4474 -1.4810
  140OSM   H18T15351   4.887   4.723   4.882 -0.9104  0.6634  1.1613
  140OSM   H18U15352   4.985   4.598   4.793  0.2321  2.7890 -1.4287
  140OSM    C1F15353   4.890   5.540   5.985  0.1627 -0.0691  0.2901
  140OSM     OF15354   5.012   5.557   6.008 -0.0697  0.0408  0.2638
  140OSM    C2F15355   4.829   5.555   5.845 -0.5809 -0.1187  0.2524
  140OSM    H2F15356   4.746   5.628   5.849  0.2914  1.0236 -1.1586
  140OSM    H2G15357   4.778   5.463   5.808  0.6267 -0.2881 -1.0854
  140OSM    C3F15358   4.928   5.610   5.736 -0.3353  0.6272 -0.6176
  140OSM    H3F15359   5.001   5.529   5.713 -0.5895 -0.1173  1.1089
  140OSM    H3G15360   4.981   5.700   5.774 -0.8990  0.7712 -0.1604
  140OSM    C4F15361   4.852   5.649   5.614  0.2768 -0.2672 -0.4192
  140OSM    H4F15362   4.801   5.744   5.640  0.9978  1.0444 -3.3744
  140OSM    H4G15363   4.769   5.577   5.601 -1.6053  1.1269  2.4750
  140OSM    C5F15364   4.944   5.668   5.487  0.3410  0.5355  0.0765
  140OSM    H5F15365   4.998   5.573   5.469 -0.0241 -0.1522  2.2561
  140OSM    H5G15366   5.013   5.753   5.506 -1.0134  1.8912 -0.8260
  140OSM    C6F15367   4.864   5.685   5.348  0.4945  0.4702 -0.1814
  140OSM    H6F15368   4.806   5.779   5.357 -0.2361  0.5277 -3.6797
  140OSM    H6G15369   4.790   5.602   5.346  1.0920 -0.0930 -2.5422
  140OSM    C7F15370   4.933   5.678   5.220 -0.4527 -0.0007  0.5882
  140OSM    H7F15371   4.979   5.578   5.210 -2.8003 -1.2398  1.4656
  140OSM    H7G15372   5.014   5.754   5.213 -0.1769 -0.4489 -3.1713
  140OSM    C8F15373   4.839   5.706   5.096 -1.0059  0.0174  0.7593
  140OSM    H8F15374   4.759   5.629   5.105 -0.2829 -0.7688  0.6078
  140OSM    H8G15375   4.891   5.669   5.005 -1.3298  0.0192  0.5728
  140OSM    C9F15376   4.812   5.853   5.079 -0.1629 -0.0221 -0.6819
  140OSM    H9F15377   4.751   5.892   5.162  2.0757 -0.2214  1.1591
  140OSM   C10F15378   4.845   5.934   4.974 -0.8159 -0.2314 -0.1411
  140OSM   H10F15379   4.791   6.027   4.955 -1.0520 -0.6038 -1.3594
  140OSM   C11F15380   4.944   5.906   4.863  0.6723 -0.1049  0.0978
  140OSM   H11F15381   4.990   5.806   4.856  1.2888  0.2836 -2.7810
  140OSM   H11G15382   5.033   5.973   4.867  0.8863 -0.3779 -0.0709
  140OSM   C12F15383   4.873   5.933   4.728 -0.0815 -0.2514  0.2569
  140OSM   H12F15384   4.799   6.016   4.731  0.4771  0.2766 -0.1567
  140OSM   H12G15385   4.831   5.837   4.693  0.1216  0.2363 -1.4200
  140OSM   C13F15386   4.970   5.976   4.615 -0.1955 -0.3312  0.3326
  140OSM   H13F15387   5.056   5.906   4.604 -0.2565 -0.2737 -0.5923
  140OSM   H13G15388   5.003   6.080   4.638  0.8730 -0.5459 -0.1373
  140OSM   C14F15389   4.909   5.971   4.468 -0.3141  0.3963 -0.2966
  140OSM   H14F15390   4.831   6.049   4.452  0.6826  0.8565 -3.9881
  140OSM   H14G15391   4.881   5.864   4.454  1.2689  0.1107 -1.5863
  140OSM   C15F15392   5.018   6.000   4.371 -0.3253  0.1424  0.4517
  140OSM   H15F15393   5.112   5.951   4.406 -0.5318  0.0547  0.8856
  140OSM   H15G15394   5.030   6.111   4.377 -2.6345  0.5859 -1.7172
  140OSM   C16F15395   4.995   5.957   4.222  0.2197 -0.0875  0.1754
  140OSM   H16F15396   4.989   5.846   4.227  0.6334 -0.0622  1.9044
  140OSM   H16G15397   5.076   5.992   4.155 -0.9976  1.7652 -0.4119
  140OSM   C17F15398   4.875   6.032   4.158  0.0416 -0.0495 -0.2839
  140OSM   H17F15399   4.872   6.139   4.188  1.0103 -0.1834  0.3299
  140OSM   H17G15400   4.786   5.985   4.206 -2.0530  2.0264 -1.9141
  140OSM   C18F15401   4.861   6.006   4.009 -0.2294  0.3069  0.6911
  140OSM   H18F15402   4.889   5.902   3.980  1.3652  1.4767 -2.4967
  140OSM   H18G15403   4.934   6.081   3.973  0.1351  0.7514  2.2761
  140OSM   H18H15404   4.765   6.027   3.957  0.3855 -4.3923 -3.0463
  141OSM      N15405   5.145   5.301   6.732 -0.3831 -0.4470  0.4438
  141OSM    C1515406   5.040   5.392   6.676  0.3680  0.2291 -0.2595
  141OSM   H15A15407   4.965   5.334   6.624 -1.5510  2.7334 -0.4591
  141OSM   H15B15408   5.086   5.467   6.614 -1.4802  0.0141 -1.9995
  141OSM   H15C15409   5.002   5.441   6.765  1.7168 -1.1632  1.1492
  141OSM    C1415410   5.231   5.381   6.817  0.1010 -0.0392 -1.2288
  141OSM   H14A15411   5.157   5.435   6.875  1.4844 -0.4054  1.0187
  141OSM   H14B15412   5.295   5.448   6.763  3.4253 -1.6998  0.3779
  141OSM   H14C15413   5.292   5.314   6.876  1.0394  1.2070 -0.7583
  141OSM    C1315414   5.072   5.199   6.814  0.0182  0.3254 -0.5764
  141OSM   H13A15415   5.142   5.158   6.885 -0.4839  0.3880 -0.0378
  141OSM   H13B15416   5.020   5.125   6.755  0.8342 -0.0046 -0.8847
  141OSM   H13C15417   4.983   5.238   6.863  0.2572  0.7757 -0.4905
  141OSM    C1215418   5.229   5.224   6.626 -0.4535 -0.0087  0.3374
  141OSM   H12A15419   5.172   5.152   6.569 -0.1818 -1.7500  2.1483
  141OSM   H12B15420   5.306   5.172   6.680 -0.0104 -0.4268 -0.6671
  141OSM    C1115421   5.304   5.311   6.524 -0.1694 -0.5272 -0.3195
  141OSM   H11A15422   5.243   5.401   6.505  0.6180  0.2203  0.6104
  141OSM   H11B15423   5.314   5.244   6.436 -0.9240 -0.1689 -0.6793
  141OSM      P15424   5.556   5.266   6.591  0.5129  0.1028 -0.6469
  141OSM    O1315425   5.665   5.343   6.657 -0.5875 -0.3544  0.0169
  141OSM    O1415426   5.515   5.137   6.645  0.6489  0.2409 -0.0572
  141OSM    O1115427   5.597   5.243   6.441 -0.5507 -0.4402 -0.6879
  141OSM    O1215428   5.427   5.355   6.577 -0.0229  0.1796 -0.3415
  141OSM    C1S15429   5.597   5.361   6.357 -0.1269  0.1775  0.5652
  141OSM    H1S15430   5.642   5.450   6.408  1.2801 -0.8479  1.1809
  141OSM    H1T15431   5.491   5.385   6.334  0.7438  1.6860 -2.2657
  141OSM     NF15432   5.698   5.455   6.144 -0.7625 -0.4688 -0.1406
  141OSM    HNF15433   5.626   5.479   6.080  0.3571 -1.1124 -1.7126
  141OSM    C2S15434   5.667   5.334   6.217  0.2159 -0.2487  0.2874
  141OSM    H2S15435   5.768   5.291   6.237  0.8005  0.5366 -0.8659
  141OSM    C3S15436   5.582   5.240   6.122 -0.9233 -0.1724  0.0202
  141OSM    H3S15437   5.495   5.302   6.092 -1.2252 -0.3644  0.4882
  141OSM     O315438   5.530   5.129   6.189 -0.1138 -0.6667 -0.1223
  141OSM    HO315439   5.531   5.157   6.281 -3.2500 -0.0296 -0.1695
  141OSM    C4S15440   5.651   5.190   5.994 -0.0912  0.2051 -0.3668
  141OSM    H4S15441   5.610   5.229   5.900  0.9567  1.8970 -0.1791
  141OSM    C5S15442   5.743   5.094   5.978  0.2069 -0.1414  0.1359
  141OSM    H5S15443   5.787   5.037   6.061 -1.4861  0.2642  1.3412
  141OSM    C6S15444   5.796   5.041   5.849  0.7296  0.2504  0.2580
  141OSM    H6S15445   5.798   4.930   5.847  2.2823  0.2623  0.3919
  141OSM    H6T15446   5.901   5.075   5.843  0.2773  1.4685 -1.5648
  141OSM    C7S15447   5.720   5.083   5.724  0.1387 -0.4819 -0.9093
  141OSM    H7S15448   5.717   5.193   5.710  1.6364 -0.3409 -0.2985
  141OSM    H7T15449   5.614   5.050   5.725 -0.0274  0.0499 -0.3207
  141OSM    C8S15450   5.801   5.043   5.600 -0.1458 -0.2315 -0.7594
  141OSM    H8S15451   5.801   4.932   5.596  0.0313 -0.3677  1.7236
  141OSM    H8T15452   5.910   5.057   5.618 -0.5442  0.5855  1.2682
  141OSM    C9S15453   5.766   5.123   5.474  0.0480  0.1824 -0.2511
  141OSM    H9S15454   5.811   5.224   5.474 -2.0744  1.1890  0.3310
  141OSM    H9T15455   5.655   5.127   5.465  0.0042  0.9926  0.5352
  141OSM   C10S15456   5.804   5.045   5.346  1.0014 -0.5927  0.0395
  141OSM   H10S15457   5.799   4.938   5.376  0.7264 -0.8662 -0.9178
  141OSM   H10T15458   5.910   5.063   5.319  0.7675  1.1813  0.1884
  141OSM   C11S15459   5.742   5.082   5.205 -0.1318  0.7032 -0.5179
  141OSM   H11S15460   5.741   5.191   5.189  0.1778  0.9816  1.1791
  141OSM   H11T15461   5.634   5.054   5.211  0.0588  0.2160  1.9946
  141OSM   C12S15462   5.805   4.999   5.096 -1.0942  0.4367 -0.1363
  141OSM   H12S15463   5.809   4.893   5.128  0.1194  0.1835 -1.0469
  141OSM   H12T15464   5.912   5.028   5.083 -0.7356 -1.5209 -2.2011
  141OSM   C13S15465   5.739   5.014   4.960  0.3110  0.3233 -0.0564
  141OSM   H13S15466   5.745   5.116   4.919 -0.7631 -0.5541 -2.6055
  141OSM   H13T15467   5.629   4.998   4.968  0.0761  1.4470 -0.8460
  141OSM   C14S15468   5.786   4.912   4.851 -0.2935  0.5494 -0.2109
  141OSM   H14S15469   5.752   4.816   4.895  1.8685  0.0675  0.4882
  141OSM   H14T15470   5.896   4.917   4.841 -0.2492 -0.1113 -0.0751
  141OSM   C15S15471   5.722   4.943   4.715  0.3482 -0.5027  0.0542
  141OSM   H15S15472   5.765   4.870   4.643 -1.6323  1.0575 -2.9265
  141OSM   H15T15473   5.752   5.041   4.673 -0.6453 -0.1201  0.2084
  141OSM   C16S15474   5.565   4.933   4.709 -0.3347  0.3509 -0.8382
  141OSM   H16S15475   5.533   5.025   4.762  1.7288 -0.9463  3.0466
  141OSM   H16T15476   5.550   4.849   4.781  2.1559  2.1108  1.9883
  141OSM   C17S15477   5.513   4.919   4.570  0.3280 -0.3595  0.0903
  141OSM   H17S15478   5.555   4.837   4.508 -2.0223 -1.4469 -0.1790
  141OSM   H17T15479   5.524   5.016   4.518  1.3105  0.6854  2.1454
  141OSM   C18S15480   5.361   4.890   4.575 -0.1928  0.3739 -0.5690
  141OSM   H18S15481   5.322   4.938   4.667  1.0659  0.1556  0.1010
  141OSM   H18T15482   5.335   4.782   4.573  2.5530 -0.3708 -0.0461
  141OSM   H18U15483   5.314   4.924   4.480 -1.4084 -0.7261 -0.3939
  141OSM    C1F15484   5.790   5.545   6.191 -0.3850  0.1574 -0.8549
  141OSM     OF15485   5.855   5.522   6.300  0.0757 -0.0961  0.6043
  141OSM    C2F15486   5.795   5.674   6.118 -0.1255  0.5511  0.3701
  141OSM    H2F15487   5.862   5.644   6.035 -1.9367 -0.4818 -0.7993
  141OSM    H2G15488   5.848   5.750   6.179  1.0215  2.3251 -2.6415
  141OSM    C3F15489   5.649   5.721   6.067  0.3798 -0.4983 -0.3158
  141OSM    H3F15490   5.586   5.708   6.158 -0.4089 -2.1034 -1.0486
  141OSM    H3G15491   5.613   5.672   5.974  0.8636  0.6551 -1.1448
  141OSM    C4F15492   5.634   5.869   6.023 -0.2312 -0.1572 -0.0378
  141OSM    H4F15493   5.679   5.934   6.101  3.0043 -1.8233 -0.3182
  141OSM    H4G15494   5.525   5.891   6.017 -0.5111 -1.4709 -0.0734
  141OSM    C5F15495   5.699   5.903   5.890 -0.3354 -0.2409  0.6515
  141OSM    H5F15496   5.661   5.838   5.808  1.3584 -0.8713  0.3114
  141OSM    H5G15497   5.810   5.903   5.893 -0.1766 -3.8261 -0.5711
  141OSM    C6F15498   5.662   6.041   5.850 -0.0116  0.0208  0.5488
  141OSM    H6F15499   5.649   6.113   5.934 -2.3262 -1.3661  1.4949
  141OSM    H6G15500   5.564   6.036   5.798  1.6653 -2.6067 -2.7797
  141OSM    C7F15501   5.767   6.098   5.754 -0.4407  0.1125 -0.2158
  141OSM    H7F15502   5.864   6.109   5.807 -0.2131 -0.4031 -0.5231
  141OSM    H7G15503   5.735   6.202   5.735  1.9963  1.1116  0.6723
  141OSM    C8F15504   5.787   6.028   5.623 -0.6429 -0.4826 -0.5634
  141OSM    H8F15505   5.686   6.021   5.579 -1.3373  1.5369  0.5760
  141OSM    H8G15506   5.829   5.929   5.650  1.0450  0.5025  0.6979
  141OSM    C9F15507   5.889   6.098   5.536 -0.0595  0.3568 -0.0762
  141OSM    H9F15508   5.991   6.097   5.578 -0.3303 -1.1186  0.5883
  141OSM   C10F15509   5.869   6.154   5.418  0.4588  0.0627 -0.0428
  141OSM   H10F15510   5.952   6.194   5.358 -1.2165 -2.6114 -4.7175
  141OSM   C11F15511   5.739   6.167   5.350 -0.3419  0.5982 -0.1045
  141OSM   H11F15512   5.749   6.272   5.317  3.3649  0.1203 -0.8471
  141OSM   H11G15513   5.648   6.162   5.415 -0.9039  0.2661 -0.9076
  141OSM   C12F15514   5.711   6.069   5.231 -0.2467  0.3012 -0.5802
  141OSM   H12F15515   5.605   6.092   5.208 -1.1697 -1.2354  1.7109
  141OSM   H12G15516   5.708   5.964   5.266 -3.0071 -0.0014 -1.4241
  141OSM   C13F15517   5.802   6.079   5.105 -0.0066  0.2173 -0.4504
  141OSM   H13F15518   5.784   5.996   5.034  2.9063  0.3443 -1.4751
  141OSM   H13G15519   5.907   6.070   5.141  0.0144 -0.7425 -0.7338
  141OSM   C14F15520   5.787   6.203   5.014  0.2646  0.2882  0.0414
  141OSM   H14F15521   5.795   6.290   5.082  2.8680 -0.3802  0.6816
  141OSM   H14G15522   5.683   6.202   4.975 -0.2873 -0.3255  1.4444
  141OSM   C15F15523   5.878   6.214   4.894  0.0007 -0.2998  0.2320
  141OSM   H15F15524   5.978   6.236   4.937 -0.4858 -0.2157  1.3370
  141OSM   H15G15525   5.856   6.310   4.841 -0.3156 -1.1756 -1.2810
  141OSM   C16F15526   5.877   6.103   4.792  0.5895 -0.2458 -0.3244
  141OSM   H16F15527   5.891   6.004   4.842 -0.6363 -1.2645 -1.9255
  141OSM   H16G15528   5.958   6.109   4.717  1.9023 -1.9487  0.8598
  141OSM   C17F15529   5.746   6.094   4.709  0.4101 -0.4517  0.8365
  141OSM   H17F15530   5.728   6.200   4.682 -0.0226 -0.4397  1.1617
  141OSM   H17G15531   5.664   6.068   4.779 -0.1341 -2.0159 -0.2957
  141OSM   C18F15532   5.760   6.019   4.576 -0.4105 -0.3498  0.1974
  141OSM   H18F15533   5.667   6.024   4.516  0.6109  0.2622 -1.3964
  141OSM   H18G15534   5.792   5.913   4.583 -0.7267 -0.4300  0.4920
  141OSM   H18H15535   5.844   6.065   4.519  1.1315 -1.5359  1.3789
  142OSM      N15536   5.997   5.256   6.583 -0.4878 -0.2548 -0.4260
  142OSM    C1515537   6.055   5.335   6.467 -0.1553 -0.2155 -0.2224
  142OSM   H15A15538   6.110   5.268   6.402 -2.1562 -0.0133 -2.2386
  142OSM   H15B15539   6.131   5.403   6.503 -0.6321  0.2145 -0.0206
  142OSM   H15C15540   5.980   5.382   6.405  2.6519  2.0236 -2.1945
  142OSM    C1415541   6.101   5.164   6.633  0.4921  0.4450  0.9342
  142OSM   H14A15542   6.183   5.227   6.666  0.4127  0.7677  0.5164
  142OSM   H14B15543   6.143   5.096   6.560  1.9981 -0.4404  2.5396
  142OSM   H14C15544   6.076   5.107   6.721 -1.4796  0.6778  0.5759
  142OSM    C1315545   5.965   5.340   6.695  0.5792  0.4276  0.1424
  142OSM   H13A15546   5.894   5.417   6.667  0.4835  0.4574  0.4580
  142OSM   H13B15547   6.048   5.389   6.743  1.1977  2.0145 -2.3564
  142OSM   H13C15548   5.905   5.291   6.770  1.1208  0.6558  0.7323
  142OSM    C1215549   5.873   5.179   6.532 -0.4103  1.0332  0.2166
  142OSM   H12A15550   5.807   5.257   6.495  1.1822  1.5135 -1.8184
  142OSM   H12B15551   5.826   5.128   6.615 -1.6691  0.8509 -0.5790
  142OSM    C1115552   5.886   5.067   6.422  0.2723  0.3407 -0.4574
  142OSM   H11A15553   5.906   5.099   6.318  4.0441  0.5124  0.2126
  142OSM   H11B15554   5.787   5.016   6.425  0.4680 -0.5822 -4.2621
  142OSM      P15555   5.980   4.824   6.487  0.2941 -0.5772  0.5356
  142OSM    O1315556   6.111   4.772   6.527 -0.2336 -0.1192  0.0996
  142OSM    O1415557   5.863   4.805   6.578 -0.3076  0.4438 -0.2947
  142OSM    O1115558   5.941   4.760   6.343 -0.8258  0.3382  0.2752
  142OSM    O1215559   5.998   4.977   6.449  0.2407  0.4632 -0.0671
  142OSM    C1S15560   5.989   4.627   6.309  0.6516  0.2155 -0.2015
  142OSM    H1S15561   5.932   4.549   6.365  3.0279 -0.2898  1.6829
  142OSM    H1T15562   6.095   4.607   6.335  0.2388 -0.4717  1.0688
  142OSM     NF15563   5.982   4.471   6.110  0.0394  0.6422  0.4177
  142OSM    HNF15564   6.077   4.461   6.084  0.6457  3.6878  1.0841
  142OSM    C2S15565   5.967   4.606   6.153 -0.1627 -0.4521 -0.2308
  142OSM    H2S15566   5.865   4.646   6.140 -0.0659 -0.5591 -1.3877
  142OSM    C3S15567   6.066   4.707   6.080 -0.3890 -0.2001 -0.1654
  142OSM    H3S15568   6.167   4.662   6.095  1.3742  2.7980 -2.0825
  142OSM     O315569   6.066   4.839   6.128 -0.1536  0.4309  0.1175
  142OSM    HO315570   6.027   4.819   6.213 -0.2013 -1.1203 -0.2279
  142OSM    C4S15571   6.042   4.717   5.934  0.5089 -0.0466  0.0607
  142OSM    H4S15572   5.940   4.752   5.913  0.8082  1.0210  0.2956
  142OSM    C5S15573   6.128   4.696   5.830  0.0243  0.4830  0.7343
  142OSM    H5S15574   6.230   4.662   5.849 -0.0951 -0.6143 -0.4159
  142OSM    C6S15575   6.088   4.700   5.680 -0.0709  0.7118 -1.3088
  142OSM    H6S15576   5.977   4.705   5.677 -0.1579 -0.9016 -1.7833
  142OSM    H6T15577   6.119   4.606   5.628 -1.5742  0.6144 -2.1087
  142OSM    C7S15578   6.140   4.819   5.601 -0.4958  0.0487  0.0025
  142OSM    H7S15579   6.250   4.823   5.612 -0.5753  0.3862  0.7296
  142OSM    H7T15580   6.106   4.920   5.633 -0.8217 -0.3536  0.9641
  142OSM    C8S15581   6.090   4.805   5.450  0.1550 -0.8077  0.5057
  142OSM    H8S15582   5.987   4.841   5.428  0.5774 -0.6907 -1.5407
  142OSM    H8T15583   6.101   4.702   5.410  1.5761  0.5921 -3.1344
  142OSM    C9S15584   6.178   4.900   5.363  0.3161  0.6404 -0.2400
  142OSM    H9S15585   6.284   4.867   5.365  0.4506  1.0041 -0.9715
  142OSM    H9T15586   6.176   5.005   5.402  0.3358  1.6869 -2.8926
  142OSM   C10S15587   6.141   4.894   5.217  0.1551  0.2012  0.8227
  142OSM   H10S15588   6.136   5.000   5.186 -1.7687  0.4980  1.9780
  142OSM   H10T15589   6.039   4.852   5.207  0.4274 -0.1790 -0.5737
  142OSM   C11S15590   6.220   4.794   5.133 -0.2238 -0.9710  0.0942
  142OSM   H11S15591   6.225   4.697   5.187  3.4410 -0.8070  0.3528
  142OSM   H11T15592   6.325   4.828   5.119 -0.4477 -0.3030 -0.0066
  142OSM   C12S15593   6.153   4.776   4.994 -0.6736  0.0842 -1.5234
  142OSM   H12S15594   6.145   4.876   4.945  0.2378  0.7181 -0.4080
  142OSM   H12T15595   6.048   4.741   5.002 -0.5436 -0.0542 -0.2655
  142OSM   C13S15596   6.234   4.689   4.906  0.2175 -0.0445  0.3295
  142OSM   H13S15597   6.230   4.584   4.942  0.6187  0.3730  1.6383
  142OSM   H13T15598   6.340   4.713   4.887  0.1696  0.6404  0.8959
  142OSM   C14S15599   6.171   4.690   4.765  0.2034  0.1985  0.3929
  142OSM   H14S15600   6.181   4.784   4.708 -1.1069 -1.0013 -1.9994
  142OSM   H14T15601   6.064   4.659   4.768  0.3594 -0.4756 -0.5658
  142OSM   C15S15602   6.242   4.597   4.674 -0.1229 -0.5553 -0.3241
  142OSM   H15S15603   6.353   4.609   4.674 -0.0940 -0.7654 -1.0727
  142OSM   H15T15604   6.213   4.611   4.568  2.6893  1.1102 -0.9810
  142OSM   C16S15605   6.218   4.454   4.712  0.7750 -0.3737 -0.3267
  142OSM   H16S15606   6.243   4.428   4.817 -3.6421 -0.9792  0.7830
  142OSM   H16T15607   6.284   4.392   4.648 -0.0086  0.2033 -1.7447
  142OSM   C17S15608   6.071   4.403   4.699 -0.2270 -0.3460 -0.2400
  142OSM   H17S15609   6.005   4.458   4.770 -0.5047 -1.1955  0.1703
  142OSM   H17T15610   6.071   4.299   4.736  0.3341 -0.4787 -0.6057
  142OSM   C18S15611   6.016   4.410   4.561  0.7572 -0.1744  0.3052
  142OSM   H18S15612   5.916   4.366   4.539  1.0345 -0.2194 -0.9923
  142OSM   H18T15613   6.066   4.347   4.484 -0.2301 -2.3654  1.3563
  142OSM   H18U15614   6.013   4.510   4.513  0.8002 -0.8760 -1.2228
  142OSM    C1F15615   5.899   4.374   6.136  0.4521  0.0310  0.2945
  142OSM     OF15616   5.786   4.398   6.189 -0.3262  0.1015 -0.5112
  142OSM    C2F15617   5.940   4.234   6.089  1.1641 -0.1291  0.3391
  142OSM    H2F15618   5.891   4.166   6.163 -2.2304  1.2857 -0.4350
  142OSM    H2G15619   6.048   4.207   6.093  0.8093 -1.8625 -0.8320
  142OSM    C3F15620   5.887   4.193   5.944  0.0939  0.4994 -0.3470
  142OSM    H3F15621   5.929   4.253   5.860  0.7640 -2.4564 -2.3037
  142OSM    H3G15622   5.778   4.216   5.936  0.2392  1.1883 -0.4547
  142OSM    C4F15623   5.910   4.050   5.908  0.1646  0.0437  0.7217
  142OSM    H4F15624   5.857   3.985   5.981  0.5571  0.4799  1.4050
  142OSM    H4G15625   6.018   4.027   5.914  0.6317  2.1459  1.2599
  142OSM    C5F15626   5.859   4.018   5.764  0.5754 -1.0723  0.2058
  142OSM    H5F15627   5.904   3.922   5.731 -0.1741 -1.8896  1.5076
  142OSM    H5G15628   5.911   4.088   5.694 -1.2876 -0.7101 -0.8860
  142OSM    C6F15629   5.713   3.998   5.746  0.1693 -0.1435 -0.0496
  142OSM    H6F15630   5.667   4.098   5.754  1.2196  0.4497 -1.1015
  142OSM    H6G15631   5.675   3.945   5.836 -1.0652  2.3131  0.9705
  142OSM    C7F15632   5.676   3.931   5.610  0.5933  0.1405 -0.0432
  142OSM    H7F15633   5.567   3.913   5.615  0.2765  1.5935 -1.0494
  142OSM    H7G15634   5.729   3.833   5.608  1.4986  0.6040 -2.1299
  142OSM    C8F15635   5.708   4.003   5.482  0.4184  0.8088  0.7695
  142OSM    H8F15636   5.812   3.978   5.453 -0.3434  1.3465 -2.9136
  142OSM    H8G15637   5.724   4.108   5.515  4.7452 -0.1530  2.4947
  142OSM    C9F15638   5.599   3.985   5.377 -0.7127 -0.0393 -0.4884
  142OSM    H9F15639   5.496   3.971   5.412 -0.3104 -0.3699  0.6119
  142OSM   C10F15640   5.617   3.990   5.243 -0.4168  1.2037  0.3237
  142OSM   H10F15641   5.528   3.972   5.180 -1.4427 -0.4116  2.1144
  142OSM   C11F15642   5.749   4.000   5.165 -0.9107  0.6359  0.6758
  142OSM   H11F15643   5.799   3.901   5.175  0.3728  0.7984 -2.7004
  142OSM   H11G15644   5.814   4.076   5.211 -1.4812  1.8292 -0.4214
  142OSM   C12F15645   5.730   4.025   5.012 -0.4002  0.4119 -0.7694
  142OSM   H12F15646   5.819   4.065   4.959 -1.5240  2.0590 -1.5084
  142OSM   H12G15647   5.655   4.106   5.008 -1.6905 -0.7265 -0.3400
  142OSM   C13F15648   5.674   3.908   4.934  0.3316 -0.0268  0.4643
  142OSM   H13F15649   5.609   3.843   4.996 -0.4707  0.1643 -0.1580
  142OSM   H13G15650   5.758   3.839   4.910  0.5995  0.0879  1.0767
  142OSM   C14F15651   5.604   3.944   4.805  0.1327  0.2468  0.3783
  142OSM   H14F15652   5.525   4.020   4.825 -0.6511 -0.7155  1.0576
  142OSM   H14G15653   5.563   3.860   4.745 -0.8068  0.9930 -0.0555
  142OSM   C15F15654   5.701   4.017   4.707  0.2691  0.7285 -0.0392
  142OSM   H15F15655   5.788   3.953   4.682 -2.2039 -2.8665 -0.2816
  142OSM   H15G15656   5.740   4.116   4.739 -3.1549  2.6189 -1.1796
  142OSM   C16F15657   5.632   4.054   4.576  0.1722 -0.1489 -0.6381
  142OSM   H16F15658   5.546   4.117   4.607  0.4469 -0.9158  1.9164
  142OSM   H16G15659   5.577   3.975   4.520 -1.8256  1.4746 -1.1006
  142OSM   C17F15660   5.720   4.138   4.491 -0.1941  0.5025 -0.0471
  142OSM   H17F15661   5.785   4.207   4.549  0.1439 -0.5838  0.8878
  142OSM   H17G15662   5.657   4.194   4.418  0.0303 -0.6192 -1.1329
  142OSM   C18F15663   5.811   4.058   4.402  0.8463 -0.0977  0.5350
  142OSM   H18F15664   5.860   3.978   4.461  0.1624  0.9660  2.6370
  142OSM   H18G15665   5.881   4.129   4.352  1.2949  0.3262  1.7385
  142OSM   H18H15666   5.744   4.017   4.323  1.0313  0.4358  0.0951
  143OSM      N15667   6.676   1.035   7.061  0.3114 -0.0692  0.2421
  143OSM    C1515668   6.734   0.931   7.156 -0.0017 -0.0407  0.2250
  143OSM   H15A15669   6.776   0.974   7.246  0.9132 -0.6845  0.1198
  143OSM   H15B15670   6.803   0.864   7.107 -1.5041 -1.5760  0.1253
  143OSM   H15C15671   6.654   0.865   7.186 -0.3563 -0.3947 -1.3962
  143OSM    C1415672   6.581   1.116   7.140  0.4205  0.6098  0.6926
  143OSM   H14A15673   6.510   1.056   7.194 -0.8820 -0.3773 -1.9225
  143OSM   H14B15674   6.537   1.186   7.070 -0.6267 -1.4010 -0.7583
  143OSM   H14C15675   6.640   1.166   7.215  1.9697 -1.2657  0.8087
  143OSM    C1315676   6.788   1.127   7.019  0.1726  0.5019 -0.0957
  143OSM   H13A15677   6.860   1.058   6.978  1.3405  1.3249  0.4856
  143OSM   H13B15678   6.839   1.171   7.104  2.1864  1.9842 -1.9399
  143OSM   H13C15679   6.758   1.200   6.945 -1.8195 -1.6615 -1.5168
  143OSM    C1215680   6.598   0.970   6.948 -1.0894  0.2459 -0.2621
  143OSM   H12A15681   6.541   1.042   6.889  1.5209  0.2682 -3.0082
  143OSM   H12B15682   6.517   0.920   6.999  0.2932 -0.6912  1.0638
  143OSM    C1115683   6.687   0.888   6.853 -0.2148  0.2903  0.1766
  143OSM   H11A15684   6.612   0.857   6.777 -0.9210  2.6868 -0.1805
  143OSM   H11B15685   6.725   0.797   6.906 -1.5517 -1.1874 -1.2800
  143OSM      P15686   6.948   0.917   6.771  0.6886 -0.1399 -0.2077
  143OSM    O1315687   7.036   0.945   6.890  0.4194 -0.1749 -0.4204
  143OSM    O1415688   6.958   0.774   6.725  0.1160 -0.0566  0.3422
  143OSM    O1115689   6.989   1.007   6.648  0.8481 -0.1255 -0.0316
  143OSM    O1215690   6.795   0.963   6.786 -0.0163 -0.1315 -0.5994
  143OSM    C1S15691   6.903   1.028   6.535  0.0600  0.4434  0.4480
  143OSM    H1S15692   6.861   1.131   6.537  1.5763  1.0927  1.2258
  143OSM    H1T15693   6.818   0.957   6.528  0.1144  0.2151  1.7538
  143OSM     NF15694   6.908   1.041   6.280 -0.0141 -0.4123  0.2348
  143OSM    HNF15695   6.865   0.962   6.239 -0.5407 -0.1057  0.1880
  143OSM    C2S15696   6.991   1.023   6.401 -0.6078  0.6768  0.1333
  143OSM    H2S15697   7.073   1.098   6.401 -0.5292  0.6019 -0.8231
  143OSM    C3S15698   7.075   0.885   6.412  0.5799 -0.2606 -0.1773
  143OSM    H3S15699   7.011   0.809   6.461 -1.2769  0.8664 -0.7432
  143OSM     O315700   7.191   0.893   6.493  0.2064 -1.0147 -0.1227
  143OSM    HO315701   7.164   0.958   6.557 -0.0910  0.5283 -1.7243
  143OSM    C4S15702   7.125   0.848   6.274  0.3719  0.8528 -0.5584
  143OSM    H4S15703   7.202   0.919   6.240 -0.7328  2.4628  0.1706
  143OSM    C5S15704   7.067   0.764   6.186 -0.0509 -0.3621  0.0972
  143OSM    H5S15705   6.971   0.719   6.216 -0.7390  1.0535  0.0674
  143OSM    C6S15706   7.109   0.746   6.047 -0.1147 -0.4153  0.7455
  143OSM    H6S15707   7.201   0.803   6.026 -1.1172  0.9459 -0.1209
  143OSM    H6T15708   7.032   0.801   5.988  2.6372  2.3788 -0.4750
  143OSM    C7S15709   7.145   0.598   6.004 -0.3599 -1.1462  0.3902
  143OSM    H7S15710   7.048   0.547   5.985 -0.4208 -0.3073 -1.8895
  143OSM    H7T15711   7.202   0.543   6.082  1.7709  1.1935  0.6386
  143OSM    C8S15712   7.216   0.598   5.862  0.6384 -0.0512 -0.0510
  143OSM    H8S15713   7.243   0.492   5.843 -2.1457 -0.8572 -0.0428
  143OSM    H8T15714   7.310   0.657   5.865  1.6395 -1.5218 -1.1461
  143OSM    C9S15715   7.130   0.653   5.749  0.3492  0.3475 -0.2785
  143OSM    H9S15716   7.074   0.746   5.774 -0.4476 -0.3295  0.5563
  143OSM    H9T15717   7.053   0.574   5.736 -3.0330  3.1846  0.7592
  143OSM   C10S15718   7.205   0.662   5.616  0.6004 -0.1183 -0.2047
  143OSM   H10S15719   7.270   0.573   5.599  1.2145  0.0446  1.1584
  143OSM   H10T15720   7.267   0.753   5.607  0.0270  0.2962  0.0087
  143OSM   C11S15721   7.104   0.665   5.494 -0.6574 -0.1501 -0.0583
  143OSM   H11S15722   7.029   0.742   5.521 -1.4811 -1.2722  0.9081
  143OSM   H11T15723   7.051   0.568   5.503 -2.5214  1.0238  3.6224
  143OSM   C12S15724   7.186   0.673   5.362 -0.1168  0.6467 -0.1966
  143OSM   H12S15725   7.275   0.607   5.358  0.7746  1.8444 -4.5273
  143OSM   H12T15726   7.224   0.776   5.350  0.8769  0.0936 -2.2193
  143OSM   C13S15727   7.111   0.649   5.229 -0.5481 -0.2071  0.3080
  143OSM   H13S15728   7.038   0.732   5.215 -0.5264 -0.4551 -1.6554
  143OSM   H13T15729   7.058   0.552   5.228  1.4796 -1.3728 -0.7658
  143OSM   C14S15730   7.212   0.659   5.116 -0.0293 -0.0249 -0.1489
  143OSM   H14S15731   7.283   0.575   5.100  0.3899  0.4680 -0.9494
  143OSM   H14T15732   7.284   0.744   5.125  1.1958 -1.1486  1.3559
  143OSM   C15S15733   7.149   0.693   4.980 -0.4962 -0.4979  0.3596
  143OSM   H15S15734   7.062   0.627   4.957 -1.1106 -0.1798  1.6506
  143OSM   H15T15735   7.222   0.660   4.904 -1.4529  0.6222 -1.1042
  143OSM   C16S15736   7.111   0.832   4.956 -0.3927  0.5024 -0.4622
  143OSM   H16S15737   7.200   0.898   4.963  1.1801 -0.7794 -5.0727
  143OSM   H16T15738   7.044   0.888   5.025  0.1726  0.7866 -0.1344
  143OSM   C17S15739   7.058   0.861   4.816 -0.3648  0.2216 -0.8237
  143OSM   H17S15740   7.045   0.971   4.819  0.8940  0.3957  2.2627
  143OSM   H17T15741   6.952   0.829   4.812 -0.7829  0.9450  2.2080
  143OSM   C18S15742   7.138   0.800   4.697  0.5011  1.3258 -0.2284
  143OSM   H18S15743   7.246   0.825   4.700  0.7162  0.5094  2.7679
  143OSM   H18T15744   7.108   0.844   4.600 -0.5242  1.6727  0.2276
  143OSM   H18U15745   7.127   0.692   4.676 -1.7641  1.4830 -0.1594
  143OSM    C1F15746   6.855   1.167   6.253  0.6930  0.4244 -0.1507
  143OSM     OF15747   6.908   1.265   6.304  0.2522 -0.0524  0.4523
  143OSM    C2F15748   6.744   1.176   6.156 -0.0907 -1.0963 -0.0162
  143OSM    H2F15749   6.667   1.244   6.198  0.6379  0.5085 -1.1802
  143OSM    H2G15750   6.695   1.077   6.144 -2.2461 -0.2536  1.2074
  143OSM    C3F15751   6.786   1.250   6.025 -0.4325  0.3832 -0.9994
  143OSM    H3F15752   6.845   1.342   6.044  0.0136  0.2168 -1.5568
  143OSM    H3G15753   6.686   1.282   5.987  0.0009 -1.2592 -3.8095
  143OSM    C4F15754   6.862   1.157   5.925  0.3470 -0.3315  0.0636
  143OSM    H4F15755   6.822   1.056   5.946 -1.3526  0.2194 -0.3468
  143OSM    H4G15756   6.968   1.160   5.955  0.0329 -0.2066  1.1945
  143OSM    C5F15757   6.813   1.181   5.785  0.1404  1.1088 -0.6477
  143OSM    H5F15758   6.713   1.132   5.776 -0.5646  1.7835  2.4482
  143OSM    H5G15759   6.887   1.128   5.721  0.4677 -0.0058  0.6201
  143OSM    C6F15760   6.811   1.322   5.735 -0.8042 -0.3294 -0.5477
  143OSM    H6F15761   6.912   1.367   5.746 -1.3515  1.5517 -2.3888
  143OSM    H6G15762   6.737   1.371   5.802 -2.5492 -1.9859 -1.1661
  143OSM    C7F15763   6.776   1.340   5.585 -0.2753 -0.6005 -0.2114
  143OSM    H7F15764   6.682   1.283   5.568 -0.6911 -0.0161  0.0703
  143OSM    H7G15765   6.855   1.287   5.529  0.1734 -1.8433  1.5015
  143OSM    C8F15766   6.764   1.491   5.536  0.0828  0.4425 -0.5545
  143OSM    H8F15767   6.747   1.492   5.426 -2.1820  0.4140 -0.2521
  143OSM    H8G15768   6.853   1.550   5.568  0.5772 -0.9838  0.7874
  143OSM    C9F15769   6.652   1.566   5.604  0.2021  1.0394  0.6632
  143OSM    H9F15770   6.637   1.544   5.710  2.2618 -2.6353  0.3446
  143OSM   C10F15771   6.578   1.660   5.547  0.2612  0.4320  0.7867
  143OSM   H10F15772   6.500   1.711   5.605  0.4103  1.5107  0.0795
  143OSM   C11F15773   6.585   1.701   5.399  0.0561 -0.1543  0.2410
  143OSM   H11F15774   6.680   1.680   5.345 -0.6939  0.2536 -1.2970
  143OSM   H11G15775   6.584   1.812   5.401  0.1128 -0.1586  1.6000
  143OSM   C12F15776   6.463   1.644   5.315  0.0706  0.4234 -0.0042
  143OSM   H12F15777   6.451   1.535   5.326 -1.6078  0.6832  1.0363
  143OSM   H12G15778   6.471   1.665   5.206 -0.0224  0.7777  0.0533
  143OSM   C13F15779   6.323   1.704   5.351 -0.3989  0.5397 -0.3186
  143OSM   H13F15780   6.335   1.811   5.378 -0.2273  0.8585 -1.5730
  143OSM   H13G15781   6.271   1.649   5.431 -0.4924  1.2746  0.1329
  143OSM   C14F15782   6.230   1.701   5.223 -0.1444 -0.1781  0.6320
  143OSM   H14F15783   6.286   1.753   5.143  0.8953 -0.6508  1.0293
  143OSM   H14G15784   6.143   1.768   5.238 -0.5055 -0.0721 -1.6349
  143OSM   C15F15785   6.172   1.559   5.186 -0.3989 -0.1402  0.3851
  143OSM   H15F15786   6.152   1.496   5.275  0.8240 -1.7826 -0.4408
  143OSM   H15G15787   6.250   1.499   5.135 -0.5279 -0.9401  1.1077
  143OSM   C16F15788   6.063   1.574   5.085  0.0584 -0.4165  0.5852
  143OSM   H16F15789   5.969   1.600   5.140 -0.6709  0.0001 -0.8138
  143OSM   H16G15790   6.036   1.477   5.039 -0.2550 -0.5055  0.9428
  143OSM   C17F15791   6.078   1.680   4.976 -0.2961 -0.1176  0.0857
  143OSM   H17F15792   6.166   1.644   4.918 -0.8618  0.1106 -0.9286
  143OSM   H17G15793   6.094   1.781   5.019 -0.0029 -0.7197  1.4708
  143OSM   C18F15794   5.958   1.697   4.881  0.6444 -0.1008 -0.0873
  143OSM   H18F15795   5.988   1.756   4.792  2.0166  0.1063  0.4956
  143OSM   H18G15796   5.872   1.754   4.921  1.4161  1.3954 -0.4737
  143OSM   H18H15797   5.930   1.594   4.849 -0.4804  0.4800 -1.0346
  144OSM      N15798   0.080   2.236   7.026 -0.2182 -0.3373  0.0929
  144OSM    C1515799  -0.037   2.304   6.959  0.2720 -0.5310 -0.0540
  144OSM   H15A15800  -0.009   2.337   6.860 -1.8257  0.6350 -0.3324
  144OSM   H15B15801  -0.066   2.393   7.014 -0.3240 -1.1301  0.6289
  144OSM   H15C15802  -0.119   2.234   6.948  0.1010 -0.4306  0.5455
  144OSM    C1415803   0.200   2.325   7.023  0.0135 -0.9619  0.6829
  144OSM   H14A15804   0.284   2.302   7.087  0.1280 -2.4247  0.0570
  144OSM   H14B15805   0.177   2.421   7.067 -0.6916 -0.3226 -0.9958
  144OSM   H14C15806   0.237   2.336   6.922  0.4497 -3.4947  0.4896
  144OSM    C1315807   0.048   2.222   7.174 -0.3143  0.0626  0.4075
  144OSM   H13A15808   0.029   2.319   7.218  2.5827  0.5326  0.7904
  144OSM   H13B15809   0.128   2.167   7.220  1.3261  1.6278 -0.4275
  144OSM   H13C15810  -0.044   2.165   7.179 -1.5770  1.8412 -1.0682
  144OSM    C1215811   0.105   2.104   6.953  0.0683  0.0290 -0.1403
  144OSM   H12A15812   0.019   2.040   6.969  0.3822  0.2168  2.9911
  144OSM   H12B15813   0.186   2.054   7.003 -0.8222 -2.2451 -0.8318
  144OSM    C1115814   0.131   2.100   6.799 -0.2378 -0.0800  1.0625
  144OSM   H11A15815   0.043   2.145   6.748  0.7478 -0.6528 -1.3098
  144OSM   H11B15816   0.128   1.992   6.771  0.1049 -0.0493  0.9018
  144OSM      P15817   0.387   2.087   6.760  0.2429 -0.3303 -0.1915
  144OSM    O1315818   0.487   2.191   6.769 -0.0129  0.5589 -0.5702
  144OSM    O1415819   0.379   1.981   6.865  0.6592  0.2613  0.2751
  144OSM    O1115820   0.406   2.020   6.611 -0.2387  0.0899 -0.1925
  144OSM    O1215821   0.255   2.161   6.757  0.9170 -0.0128  0.1988
  144OSM    C1S15822   0.335   2.082   6.502  0.3605 -0.6736 -0.5481
  144OSM    H1S15823   0.350   2.191   6.513  0.0015 -0.6846  0.1135
  144OSM    H1T15824   0.225   2.066   6.507  0.3513 -0.2801  1.2460
  144OSM     NF15825   0.340   2.070   6.248 -0.6338 -0.2944 -1.2505
  144OSM    HNF15826   0.255   2.049   6.202 -0.5736  0.5848 -1.7693
  144OSM    C2S15827   0.387   2.006   6.371 -1.0901 -0.7209 -0.0546
  144OSM    H2S15828   0.498   2.018   6.368 -1.2138  0.4753 -0.4118
  144OSM    C3S15829   0.366   1.853   6.375 -0.0715 -0.8411  0.3258
  144OSM    H3S15830   0.256   1.840   6.367 -0.0831 -0.8216  0.4564
  144OSM     O315831   0.415   1.791   6.492  0.2542  0.4111  0.7603
  144OSM    HO315832   0.435   1.863   6.552 -0.0908 -2.6996  5.0253
  144OSM    C4S15833   0.422   1.780   6.252 -0.0589  0.7712 -0.0394
  144OSM    H4S15834   0.350   1.719   6.196 -0.7248  2.4966 -1.1445
  144OSM    C5S15835   0.555   1.779   6.216 -0.3472  0.3572 -0.2635
  144OSM    H5S15836   0.630   1.835   6.274 -1.6475  0.8897  0.9675
  144OSM    C6S15837   0.608   1.700   6.101 -0.6989 -0.1024  0.4190
  144OSM    H6S15838   0.657   1.606   6.135  1.7917  1.3261  1.0517
  144OSM    H6T15839   0.690   1.755   6.050  0.1604 -1.2402  0.5364
  144OSM    C7S15840   0.511   1.650   5.994 -0.0645 -0.5230  0.4141
  144OSM    H7S15841   0.442   1.729   5.958 -0.2531  0.1391  2.1094
  144OSM    H7T15842   0.450   1.568   6.038  2.4063 -2.8816 -0.3573
  144OSM    C8S15843   0.563   1.585   5.865 -0.5755 -0.2688  0.3370
  144OSM    H8S15844   0.580   1.479   5.893 -1.8742 -0.2351  1.3555
  144OSM    H8T15845   0.643   1.651   5.826 -0.8739  2.3466  3.6743
  144OSM    C9S15846   0.467   1.589   5.741 -0.1611 -1.2263  0.3786
  144OSM    H9S15847   0.523   1.592   5.645 -1.7120 -1.5869 -0.5735
  144OSM    H9T15848   0.413   1.686   5.749  0.8622 -0.6090 -0.0661
  144OSM   C10S15849   0.360   1.478   5.731 -0.9399  0.5101 -0.1042
  144OSM   H10S15850   0.285   1.495   5.810  1.0109  0.2716  1.8962
  144OSM   H10T15851   0.416   1.387   5.759  0.1136  1.5294  1.2308
  144OSM   C11S15852   0.292   1.464   5.600 -0.1589  0.7258 -0.7462
  144OSM   H11S15853   0.209   1.391   5.601 -0.0444  0.5351 -2.3693
  144OSM   H11T15854   0.361   1.407   5.535  0.7954  0.5763  0.3664
  144OSM   C12S15855   0.234   1.590   5.536  0.2671 -0.8420 -0.0764
  144OSM   H12S15856   0.310   1.670   5.525 -1.3593  1.4384  3.4565
  144OSM   H12T15857   0.154   1.628   5.603  1.2032 -0.2258  0.7248
  144OSM   C13S15858   0.175   1.557   5.395  0.2622 -0.3721 -0.4990
  144OSM   H13S15859   0.093   1.482   5.403 -2.2952  2.1981 -0.8754
  144OSM   H13T15860   0.253   1.509   5.332  0.7154 -0.6056  0.2258
  144OSM   C14S15861   0.096   1.676   5.341 -0.1045 -1.0307  0.2619
  144OSM   H14S15862   0.163   1.763   5.324 -2.4357  0.7687 -0.1808
  144OSM   H14T15863   0.026   1.715   5.418 -1.3706  0.8979 -1.7690
  144OSM   C15S15864   0.023   1.649   5.210 -0.0904 -0.0818 -0.1643
  144OSM   H15S15865  -0.041   1.558   5.216 -1.7884  1.1467  2.3581
  144OSM   H15T15866   0.107   1.619   5.145 -0.6368 -0.1673 -0.8398
  144OSM   C16S15867  -0.054   1.773   5.157  0.1297  0.2646 -0.2959
  144OSM   H16S15868   0.012   1.862   5.148  0.4004  0.0885 -0.0603
  144OSM   H16T15869  -0.127   1.791   5.238  2.8048  0.1146  2.3325
  144OSM   C17S15870  -0.121   1.749   5.018  0.2797 -0.6633  0.0999
  144OSM   H17S15871  -0.189   1.661   5.015 -1.2490  0.4857 -0.7855
  144OSM   H17T15872  -0.039   1.714   4.952  0.9425  1.9938 -0.6349
  144OSM   C18S15873  -0.197   1.869   4.962 -0.7858 -0.1024 -0.1286
  144OSM   H18S15874  -0.226   1.850   4.856 -2.7059 -1.7127  0.6190
  144OSM   H18T15875  -0.119   1.948   4.963  0.0901 -0.8521 -2.2921
  144OSM   H18U15876  -0.288   1.889   5.022 -0.1123  2.7193  0.0701
  144OSM    C1F15877   0.355   2.203   6.228 -0.1830  0.0073 -0.7920
  144OSM     OF15878   0.438   2.272   6.291 -0.1113  0.4344 -0.7004
  144OSM    C2F15879   0.265   2.273   6.129 -0.6532 -0.7718  0.1627
  144OSM    H2F15880   0.194   2.330   6.193  0.8915 -0.2070  1.4317
  144OSM    H2G15881   0.204   2.197   6.076 -1.6971 -1.2539  1.9718
  144OSM    C3F15882   0.344   2.374   6.039 -0.7465  0.1891 -0.6119
  144OSM    H3F15883   0.452   2.350   6.029  0.1069  3.7568 -1.6748
  144OSM    H3G15884   0.343   2.480   6.073  0.5968  0.4898 -1.4439
  144OSM    C4F15885   0.281   2.378   5.898 -0.8986 -1.3372  0.1064
  144OSM    H4F15886   0.173   2.398   5.917 -0.5288 -0.9868  1.9859
  144OSM    H4G15887   0.298   2.284   5.841 -0.1022 -1.1917  0.0967
  144OSM    C5F15888   0.340   2.492   5.801 -0.6351  0.8685 -0.4953
  144OSM    H5F15889   0.450   2.479   5.800 -0.8302 -2.2951  2.1530
  144OSM    H5G15890   0.308   2.587   5.850  0.5776  0.0913  1.9836
  144OSM    C6F15891   0.290   2.483   5.662  0.4551  1.1308  0.1544
  144OSM    H6F15892   0.179   2.477   5.667  0.4342  1.7378  0.5588
  144OSM    H6G15893   0.323   2.383   5.627  1.0766  2.0775 -2.1349
  144OSM    C7F15894   0.333   2.607   5.585  0.2070 -0.3582 -0.0813
  144OSM    H7F15895   0.441   2.631   5.584 -0.2012  1.7850  1.6589
  144OSM    H7G15896   0.292   2.701   5.627 -0.7073  0.1768 -2.0358
  144OSM    C8F15897   0.286   2.594   5.440  0.1376  0.4879 -1.0686
  144OSM    H8F15898   0.203   2.520   5.444  1.7161 -1.3067  0.0288
  144OSM    H8G15899   0.351   2.533   5.374 -0.3876 -0.9583 -0.3001
  144OSM    C9F15900   0.253   2.732   5.385 -0.4148 -0.5009 -0.2005
  144OSM    H9F15901   0.202   2.793   5.460 -0.0252  1.9860 -1.8386
  144OSM   C10F15902   0.284   2.780   5.264  0.3882 -0.0766 -0.4747
  144OSM   H10F15903   0.238   2.880   5.250 -0.7839 -0.6296 -0.6691
  144OSM   C11F15904   0.342   2.718   5.142 -0.9590 -0.4410  0.7207
  144OSM   H11F15905   0.358   2.608   5.149 -0.0958 -0.3607  0.2124
  144OSM   H11G15906   0.441   2.765   5.123 -1.0008 -1.2633 -1.9997
  144OSM   C12F15907   0.247   2.755   5.029  0.5734 -0.4736  0.4302
  144OSM   H12F15908   0.279   2.713   4.931 -0.7188  0.7980 -0.5817
  144OSM   H12G15909   0.236   2.862   5.000  0.6313 -0.4039  0.6602
  144OSM   C13F15910   0.095   2.694   5.047 -0.2491  0.7834 -0.6951
  144OSM   H13F15911   0.049   2.750   5.131 -0.0287  0.3081 -0.2549
  144OSM   H13G15912   0.119   2.595   5.091 -1.1982  0.0205 -1.8385
  144OSM   C14F15913   0.007   2.695   4.919 -0.1571  0.7316 -0.6914
  144OSM   H14F15914  -0.092   2.650   4.942 -0.2980  1.0182 -0.7352
  144OSM   H14G15915   0.058   2.655   4.828 -0.4741  0.3751 -0.7150
  144OSM   C15F15916  -0.029   2.840   4.878 -0.4415  0.0511 -0.1627
  144OSM   H15F15917   0.060   2.906   4.873 -0.9294  0.7822  0.4701
  144OSM   H15G15918  -0.089   2.867   4.968 -1.3846 -1.9297 -0.1231
  144OSM   C16F15919  -0.118   2.840   4.751  0.3377 -0.7485  0.5001
  144OSM   H16F15920  -0.203   2.769   4.763 -1.8135  1.3609 -1.3506
  144OSM   H16G15921  -0.058   2.815   4.662  0.7475 -0.7802  0.7825
  144OSM   C17F15922  -0.177   2.976   4.706  0.7434  0.4747  0.1500
  144OSM   H17F15923  -0.098   3.045   4.670  0.7296  1.2638  1.5814
  144OSM   H17G15924  -0.210   3.025   4.800  2.0712 -3.1706  2.7423
  144OSM   C18F15925  -0.299   2.970   4.612 -0.1441 -0.5574  0.3922
  144OSM   H18F15926  -0.256   2.961   4.510  1.1664 -0.0407  0.8767
  144OSM   H18G15927  -0.370   3.056   4.619 -1.9785 -2.0785  1.3198
  144OSM   H18H15928  -0.361   2.879   4.626  0.9724 -1.2202  1.1506
  145OSM      N15929   6.791   1.609   6.373  0.0782 -0.6683 -0.2066
  145OSM    C1515930   6.730   1.488   6.430  0.3464 -0.4954  0.2210
  145OSM   H15A15931   6.672   1.429   6.360  2.1696 -0.4389 -1.4343
  145OSM   H15B15932   6.660   1.517   6.506  1.8263  0.9006  1.1118
  145OSM   H15C15933   6.808   1.424   6.467 -1.2192 -2.9337 -0.4411
  145OSM    C1415934   6.899   1.671   6.456 -0.1466  0.6668  0.5000
  145OSM   H14A15935   6.892   1.657   6.563 -0.4991  2.9954  0.8387
  145OSM   H14B15936   6.916   1.776   6.434 -0.0508  0.3722 -0.9213
  145OSM   H14C15937   6.993   1.629   6.422  0.1748  0.8634  1.1198
  145OSM    C1315938   6.853   1.574   6.241  0.1537  0.2927  0.2827
  145OSM   H13A15939   6.905   1.480   6.253  0.8880  0.7605  0.8441
  145OSM   H13B15940   6.918   1.650   6.201 -1.4217  0.3249 -2.4816
  145OSM   H13C15941   6.777   1.563   6.165  0.4545  0.7400 -0.0824
  145OSM    C1215942   6.692   1.717   6.347  0.2157  0.3351 -0.2779
  145OSM   H12A15943   6.636   1.741   6.436 -1.9890  0.4581 -1.5997
  145OSM   H12B15944   6.626   1.664   6.279  1.2164 -0.7618 -0.4051
  145OSM    C1115945   6.726   1.854   6.271 -0.1203  0.1294  0.5220
  145OSM   H11A15946   6.631   1.912   6.274 -0.1379  0.2275 -0.9898
  145OSM   H11B15947   6.761   1.835   6.167  0.7800 -0.3662  0.9003
  145OSM      P15948   6.882   2.060   6.270 -0.0788  0.9403  0.1260
  145OSM    O1315949   6.896   2.176   6.360  0.3493 -0.6754  0.6176
  145OSM    O1415950   7.004   2.008   6.204 -0.0141 -0.1221 -0.5456
  145OSM    O1115951   6.779   2.081   6.160 -0.0128 -0.7551 -0.8513
  145OSM    O1215952   6.818   1.933   6.350 -0.2259  0.3739  0.3473
  145OSM    C1S15953   6.669   2.170   6.182  0.3876  0.0522 -0.1219
  145OSM    H1S15954   6.701   2.250   6.252  3.3530 -2.0960  1.2003
  145OSM    H1T15955   6.584   2.110   6.222 -0.5006  0.0982 -1.8560
  145OSM     NF15956   6.531   2.356   6.099  0.0361  0.0683  0.2751
  145OSM    HNF15957   6.433   2.353   6.114  0.0160  1.0833  0.4437
  145OSM    C2S15958   6.612   2.239   6.057  0.2127 -0.8355 -0.6644
  145OSM    H2S15959   6.693   2.280   5.992 -1.3366 -0.1141 -2.2226
  145OSM    C3S15960   6.524   2.133   5.986 -0.0953  0.0738  0.1506
  145OSM    H3S15961   6.439   2.103   6.051  0.3043 -1.9061 -0.1727
  145OSM     O315962   6.578   2.003   5.955 -0.5585 -0.1205  0.0402
  145OSM    HO315963   6.662   2.007   6.000 -0.3646  1.6143 -0.4049
  145OSM    C4S15964   6.464   2.198   5.862  0.4948  0.4810 -0.1687
  145OSM    H4S15965   6.379   2.266   5.879 -0.3823 -0.7547  0.6228
  145OSM    C5S15966   6.496   2.193   5.735 -0.0151 -0.2340 -0.5737
  145OSM    H5S15967   6.574   2.120   5.707 -0.9356 -1.9361  1.0370
  145OSM    C6S15968   6.412   2.250   5.626  0.6271 -0.0556  0.0063
  145OSM    H6S15969   6.464   2.336   5.580 -2.0217  1.7118  0.1297
  145OSM    H6T15970   6.312   2.286   5.658  0.9703 -1.0364  2.4094
  145OSM    C7S15971   6.388   2.149   5.513  0.2648 -0.3664 -1.0221
  145OSM    H7S15972   6.335   2.057   5.547  1.6630 -0.8694 -0.1225
  145OSM    H7T15973   6.490   2.110   5.490  0.7200 -0.0175  0.2938
  145OSM    C8S15974   6.325   2.207   5.385 -0.5883 -0.3726  0.1341
  145OSM    H8S15975   6.390   2.293   5.359 -0.4722 -0.5234 -0.0798
  145OSM    H8T15976   6.221   2.228   5.419 -1.2094 -1.5127 -0.9752
  145OSM    C9S15977   6.330   2.100   5.274  0.6329 -0.7734  0.4898
  145OSM    H9S15978   6.251   2.025   5.295  0.5373 -0.4419  1.3103
  145OSM    H9T15979   6.428   2.047   5.276  0.3111 -1.3463  1.9744
  145OSM   C10S15980   6.291   2.151   5.136 -1.2149  0.1390  1.2401
  145OSM   H10S15981   6.362   2.232   5.110 -0.5330 -0.2844  1.7359
  145OSM   H10T15982   6.188   2.193   5.140 -1.1701  0.1579  3.1093
  145OSM   C11S15983   6.283   2.038   5.032  0.2337  0.6601 -0.1528
  145OSM   H11S15984   6.198   1.977   5.070  0.7350  0.2680  0.3518
  145OSM   H11T15985   6.370   1.971   5.047 -1.0078 -0.6059  1.8443
  145OSM   C12S15986   6.254   2.072   4.884  0.2408  0.2792  0.3094
  145OSM   H12S15987   6.152   2.117   4.880 -0.2870 -0.8436  0.6989
  145OSM   H12T15988   6.247   1.986   4.814 -2.7378  1.4562 -1.0393
  145OSM   C13S15989   6.354   2.172   4.817  0.3632  0.3468  0.2776
  145OSM   H13S15990   6.453   2.123   4.808 -1.0107 -2.4668 -0.8210
  145OSM   H13T15991   6.359   2.266   4.876 -3.3333 -0.3672  2.0027
  145OSM   C14S15992   6.297   2.220   4.684 -0.8714  0.0158 -0.1295
  145OSM   H14S15993   6.209   2.285   4.706 -0.5474  0.2048  0.6476
  145OSM   H14T15994   6.268   2.141   4.612  0.3192 -1.6103  1.1249
  145OSM   C15S15995   6.404   2.303   4.605 -0.4102 -0.4469 -0.0897
  145OSM   H15S15996   6.472   2.233   4.551  0.3755 -0.2085  0.5649
  145OSM   H15T15997   6.463   2.352   4.686 -1.9112  0.3628  0.5550
  145OSM   C16S15998   6.350   2.413   4.516 -0.5116 -0.0960  0.2652
  145OSM   H16S15999   6.298   2.488   4.579  1.4477  1.6609 -0.0929
  145OSM   H16T16000   6.268   2.365   4.458  0.6593 -0.4252 -1.1845
  145OSM   C17S16001   6.465   2.481   4.430 -0.1696 -0.0086 -0.1203
  145OSM   H17S16002   6.507   2.399   4.367 -3.5449 -2.3219  0.4143
  145OSM   H17T16003   6.547   2.512   4.498 -0.7769  0.5842  0.3521
  145OSM   C18S16004   6.420   2.601   4.359 -0.6502  0.0360 -0.3213
  145OSM   H18S16005   6.319   2.587   4.314  0.0661 -0.6206 -1.7998
  145OSM   H18T16006   6.488   2.623   4.274 -3.9039  0.2676 -3.0712
  145OSM   H18U16007   6.416   2.686   4.431  3.6764 -0.3717  0.6652
  145OSM    C1F16008   6.593   2.457   6.155 -0.3890  0.3698 -0.3864
  145OSM     OF16009   6.711   2.474   6.121 -0.6001  0.0760 -0.1917
  145OSM    C2F16010   6.519   2.529   6.270 -0.2217 -0.2426 -0.8154
  145OSM    H2F16011   6.583   2.509   6.359  0.6999 -1.6590 -1.7658
  145OSM    H2G16012   6.416   2.487   6.270 -0.1062 -0.6133 -2.8639
  145OSM    C3F16013   6.521   2.679   6.259  0.0131 -0.1658 -0.2631
  145OSM    H3F16014   6.622   2.720   6.280  0.0516  0.8120 -2.1469
  145OSM    H3G16015   6.458   2.717   6.342  1.2273  0.5551  0.3590
  145OSM    C4F16016   6.465   2.733   6.123 -0.6575 -0.2002 -0.2297
  145OSM    H4F16017   6.372   2.677   6.098  0.2660 -0.8258 -2.6457
  145OSM    H4G16018   6.535   2.717   6.038 -1.2667 -1.8028 -0.4741
  145OSM    C5F16019   6.433   2.886   6.143  0.5903 -0.3478 -0.0222
  145OSM    H5F16020   6.520   2.937   6.188 -0.9699  2.5027 -0.0363
  145OSM    H5G16021   6.352   2.887   6.219  0.0105 -2.0612 -0.5726
  145OSM    C6F16022   6.376   2.951   6.017  0.9235 -0.8518 -0.3605
  145OSM    H6F16023   6.316   3.041   6.041 -0.3645 -2.0882  1.2936
  145OSM    H6G16024   6.313   2.878   5.962 -1.4315  1.6945 -1.3298
  145OSM    C7F16025   6.490   3.004   5.928 -0.2155 -0.2243  0.1848
  145OSM    H7F16026   6.556   2.923   5.891 -0.8259 -0.5240 -0.2662
  145OSM    H7G16027   6.554   3.060   6.000  0.1674 -0.8448  0.3290
  145OSM    C8F16028   6.450   3.088   5.795  0.2650  0.6310  0.7487
  145OSM    H8F16029   6.348   3.053   5.772 -0.7295  2.9475  1.3464
  145OSM    H8G16030   6.515   3.057   5.710  1.6523 -0.7365  2.2472
  145OSM    C9F16031   6.443   3.238   5.809  0.0202 -0.0115  0.3059
  145OSM    H9F16032   6.441   3.280   5.911  1.1314  2.2678 -0.5272
  145OSM   C10F16033   6.438   3.325   5.701  0.3171  1.1287 -0.1842
  145OSM   H10F16034   6.423   3.432   5.724 -0.7470  1.9621 -4.0623
  145OSM   C11F16035   6.421   3.286   5.557 -0.1812  0.0641 -0.9142
  145OSM   H11F16036   6.474   3.193   5.526 -0.2685 -0.5341  0.6358
  145OSM   H11G16037   6.472   3.374   5.513  1.1945 -0.3071 -0.1232
  145OSM   C12F16038   6.277   3.257   5.525  0.1615 -0.7086  0.7354
  145OSM   H12F16039   6.212   3.343   5.548  1.6575  0.3643  1.1430
  145OSM   H12G16040   6.249   3.171   5.588 -1.0545 -0.6326  0.3145
  145OSM   C13F16041   6.251   3.217   5.375  0.5783  0.0696 -0.4266
  145OSM   H13F16042   6.312   3.129   5.346  1.1771  0.3802 -0.1352
  145OSM   H13G16043   6.288   3.305   5.316  2.2800 -0.7625 -0.6813
  145OSM   C14F16044   6.108   3.181   5.349 -0.0801  0.5062 -0.1767
  145OSM   H14F16045   6.035   3.260   5.378 -3.1615 -2.2530  0.1883
  145OSM   H14G16046   6.082   3.094   5.412 -0.3629  0.4155 -0.4144
  145OSM   C15F16047   6.080   3.144   5.200  0.0177  0.0166 -0.3007
  145OSM   H15F16048   6.146   3.057   5.178  1.4802  0.5580  1.6720
  145OSM   H15G16049   6.086   3.225   5.123  2.1057  0.6608  0.4577
  145OSM   C16F16050   5.929   3.098   5.197  0.4939  0.1220 -0.2275
  145OSM   H16F16051   5.868   3.173   5.252 -1.1815  0.4746 -2.4178
  145OSM   H16G16052   5.916   3.000   5.247  1.0989  0.1879  0.0651
  145OSM   C17F16053   5.870   3.103   5.054 -0.2524 -0.0797 -0.4211
  145OSM   H17F16054   5.928   3.035   4.988  0.6386  0.5551 -0.3256
  145OSM   H17G16055   5.879   3.203   5.007 -2.1500 -1.1256 -3.2339
  145OSM   C18F16056   5.722   3.054   5.041  0.2922  0.7859 -0.3812
  145OSM   H18F16057   5.685   3.088   4.942  0.2978 -1.9707 -1.4242
  145OSM   H18G16058   5.646   3.088   5.115  1.0922 -0.3135  0.9927
  145OSM   H18H16059   5.709   2.944   5.044 -3.9232  1.1274  0.5468
  146OSM      N16060   5.046   4.538   6.799  0.2372  0.1984 -0.3482
  146OSM    C1516061   4.964   4.508   6.674 -0.2354 -0.5554 -0.5233
  146OSM   H15A16062   4.938   4.403   6.674 -2.8020  0.0025  1.1084
  146OSM   H15B16063   5.013   4.544   6.585 -1.1981 -0.1772 -0.9121
  146OSM   H15C16064   4.880   4.572   6.697 -0.4909 -1.3217  0.7600
  146OSM    C1416065   4.983   4.471   6.919 -0.0889 -0.7624 -0.2322
  146OSM   H14A16066   4.981   4.364   6.927 -1.1268 -0.7581 -0.2170
  146OSM   H14B16067   4.878   4.499   6.916 -0.7577 -3.0098  0.2776
  146OSM   H14C16068   5.013   4.513   7.014 -1.3335 -0.5873  0.1057
  146OSM    C1316069   5.182   4.467   6.793 -0.3568  0.3722 -0.1544
  146OSM   H13A16070   5.238   4.504   6.878 -0.1737 -0.5244  0.1188
  146OSM   H13B16071   5.237   4.498   6.705  0.7329  0.6476  0.6049
  146OSM   H13C16072   5.170   4.361   6.809  0.2191  0.2743 -0.3805
  146OSM    C1216073   5.063   4.687   6.812  0.2583 -0.0765 -0.4929
  146OSM   H12A16074   5.105   4.705   6.910  0.8876 -1.5379 -0.4797
  146OSM   H12B16075   4.960   4.718   6.827  0.4829 -0.0738  1.2149
  146OSM    C1116076   5.128   4.768   6.697  0.6641 -0.5067 -0.6277
  146OSM   H11A16077   5.233   4.732   6.682  0.9281  0.6204 -1.6668
  146OSM   H11B16078   5.120   4.874   6.728 -0.5498 -0.5480 -0.7696
  146OSM      P16079   4.971   4.863   6.509  0.2163 -0.0811  0.3512
  146OSM    O1316080   4.912   4.805   6.386 -0.0097  0.0929  0.7998
  146OSM    O1416081   4.878   4.911   6.613 -0.4672 -0.1007  0.3914
  146OSM    O1116082   5.082   4.973   6.470  0.8894 -0.1139 -0.0723
  146OSM    O1216083   5.059   4.748   6.578 -0.0280 -0.4000 -0.1070
  146OSM    C1S16084   5.207   4.937   6.410  0.7151 -0.1326 -0.4132
  146OSM    H1S16085   5.244   4.837   6.439 -1.8292 -1.1848 -0.5430
  146OSM    H1T16086   5.291   5.005   6.436  1.0343 -0.8076  0.3329
  146OSM     NF16087   5.322   4.891   6.196 -1.0031 -1.0300  0.0400
  146OSM    HNF16088   5.399   4.953   6.190 -1.0334 -1.0149 -0.2176
  146OSM    C2S16089   5.206   4.956   6.251  0.3182 -0.3525  0.4774
  146OSM    H2S16090   5.112   4.910   6.212  1.0852 -0.6962 -1.0408
  146OSM    C3S16091   5.196   5.108   6.210  0.1769  0.3683 -0.2492
  146OSM    H3S16092   5.288   5.154   6.251  1.3082 -2.2692  0.3963
  146OSM     O316093   5.092   5.179   6.278 -0.2403 -0.0759 -0.2898
  146OSM    HO316094   5.064   5.124   6.351 -0.6714  1.1039  0.4656
  146OSM    C4S16095   5.196   5.133   6.054 -0.9572  0.3623 -0.6857
  146OSM    H4S16096   5.288   5.181   6.017 -1.3219  2.0856  0.5188
  146OSM    C5S16097   5.087   5.110   5.971  0.4645 -0.1065  0.2156
  146OSM    H5S16098   4.990   5.077   6.012 -0.8857  2.9920 -0.1970
  146OSM    C6S16099   5.092   5.121   5.823 -0.1787 -0.1399  0.0511
  146OSM    H6S16100   5.048   5.025   5.788 -0.4395  0.0259 -0.0798
  146OSM    H6T16101   5.191   5.127   5.772  0.0226 -0.1906  0.4287
  146OSM    C7S16102   4.988   5.237   5.787 -0.2302  0.3435  0.7135
  146OSM    H7S16103   5.035   5.335   5.812  0.1295  0.2790  0.3029
  146OSM    H7T16104   4.891   5.223   5.838  0.2851  1.7181  2.1279
  146OSM    C8S16105   4.942   5.240   5.645 -0.1517 -0.4257  0.0694
  146OSM    H8S16106   4.889   5.337   5.631 -0.1145 -0.8407 -3.8561
  146OSM    H8T16107   4.875   5.152   5.634 -0.3558 -0.8099  3.2479
  146OSM    C9S16108   5.046   5.244   5.543 -0.5358 -0.1580  0.2534
  146OSM    H9S16109   5.116   5.159   5.556 -0.1672  0.1977  0.6328
  146OSM    H9T16110   5.106   5.336   5.558 -0.3553 -0.5790  2.3827
  146OSM   C10S16111   4.994   5.234   5.407  0.5555 -0.2802 -0.4299
  146OSM   H10S16112   4.907   5.303   5.397  0.1765 -0.7692 -0.5529
  146OSM   H10T16113   4.963   5.130   5.384  0.1560  0.4233 -3.6774
  146OSM   C11S16114   5.099   5.268   5.299 -0.6039 -0.1701 -0.5727
  146OSM   H11S16115   5.186   5.200   5.300 -1.1449 -0.9403 -2.5494
  146OSM   H11T16116   5.133   5.369   5.333 -2.2890  0.7693 -1.5456
  146OSM   C12S16117   5.033   5.281   5.164 -0.3436  0.4557 -0.0214
  146OSM   H12S16118   4.934   5.329   5.177 -0.3641 -0.0250  1.8118
  146OSM   H12T16119   5.006   5.182   5.122  1.8560  0.1535 -0.8887
  146OSM   C13S16120   5.115   5.355   5.057 -0.0113  0.1794 -0.4414
  146OSM   H13S16121   5.214   5.307   5.046  0.9660  1.7492  1.0692
  146OSM   H13T16122   5.128   5.457   5.100  2.7406  0.0108 -0.6770
  146OSM   C14S16123   5.049   5.347   4.923 -0.2008 -0.3618 -0.4397
  146OSM   H14S16124   4.950   5.396   4.936  0.5094  1.1188 -0.3336
  146OSM   H14T16125   5.039   5.244   4.883  0.3855  0.1176 -1.8727
  146OSM   C15S16126   5.112   5.430   4.812 -0.2329  0.3551 -0.0701
  146OSM   H15S16127   5.211   5.395   4.775  0.1662  0.8330  0.5284
  146OSM   H15T16128   5.115   5.535   4.848 -0.9125 -0.0881  1.3252
  146OSM   C16S16129   5.023   5.430   4.686 -0.5256 -0.0299  0.2280
  146OSM   H16S16130   4.922   5.453   4.727 -1.4255 -3.1342 -0.0004
  146OSM   H16T16131   5.018   5.330   4.639 -0.1256 -0.1684  0.4713
  146OSM   C17S16132   5.087   5.513   4.575 -0.3419  0.5645  0.2195
  146OSM   H17S16133   5.060   5.464   4.478 -0.2828  0.1150  0.4284
  146OSM   H17T16134   5.198   5.513   4.585 -0.2733  1.8257 -0.2843
  146OSM   C18S16135   5.038   5.656   4.560 -0.0907  0.3740  0.1859
  146OSM   H18S16136   5.057   5.725   4.645 -0.0797  2.2812 -1.3029
  146OSM   H18T16137   4.929   5.650   4.540  0.4238 -0.4217 -2.7432
  146OSM   H18U16138   5.083   5.695   4.467 -2.8058 -1.2526 -1.9747
  146OSM    C1F16139   5.330   4.758   6.188 -0.3579 -0.4610  0.9909
  146OSM     OF16140   5.237   4.685   6.222 -0.3101  0.1350  0.4393
  146OSM    C2F16141   5.453   4.707   6.116  0.2853 -0.5312  0.1279
  146OSM    H2F16142   5.433   4.600   6.094  0.6175 -1.9102  5.2477
  146OSM    H2G16143   5.543   4.718   6.181 -0.6875  1.4929  1.2354
  146OSM    C3F16144   5.483   4.780   5.982  0.3725  0.2446  0.4470
  146OSM    H3F16145   5.585   4.753   5.947 -0.7692 -0.4375 -2.6448
  146OSM    H3G16146   5.484   4.887   6.013  2.6482 -0.2893  2.5991
  146OSM    C4F16147   5.372   4.760   5.876  0.5670  0.5700 -0.3492
  146OSM    H4F16148   5.275   4.796   5.917  0.8878  2.2784 -0.9783
  146OSM    H4G16149   5.366   4.652   5.852 -2.1490  1.1626 -2.9235
  146OSM    C5F16150   5.411   4.843   5.750  0.0212  0.1107 -0.4589
  146OSM    H5F16151   5.514   4.817   5.720  1.1261  1.3410  1.9667
  146OSM    H5G16152   5.411   4.945   5.794 -2.0779 -0.8016  2.0089
  146OSM    C6F16153   5.317   4.838   5.630 -0.5785  0.3945 -1.1790
  146OSM    H6F16154   5.218   4.882   5.654 -2.8570 -4.1087 -1.2546
  146OSM    H6G16155   5.306   4.733   5.594 -0.6433 -0.5282  1.3424
  146OSM    C7F16156   5.382   4.917   5.517  0.2347 -0.2220  0.2799
  146OSM    H7F16157   5.480   4.868   5.502 -0.1012 -0.6457 -0.5745
  146OSM    H7G16158   5.415   5.021   5.537 -1.1001  0.0286  1.3725
  146OSM    C8F16159   5.309   4.912   5.381 -0.7230 -0.3071  0.5587
  146OSM    H8F16160   5.227   4.987   5.381  0.3021  0.8718  1.5292
  146OSM    H8G16161   5.266   4.812   5.363  0.2892 -0.4512 -1.2042
  146OSM    C9F16162   5.406   4.942   5.260 -0.3759  0.5087  0.0668
  146OSM    H9F16163   5.424   5.047   5.232 -0.3213  0.6419  0.6023
  146OSM   C10F16164   5.449   4.838   5.180 -0.0347 -0.6948 -0.1730
  146OSM   H10F16165   5.516   4.873   5.100  0.4560  1.3257  1.0241
  146OSM   C11F16166   5.427   4.688   5.182 -0.0963 -0.4768  0.3167
  146OSM   H11F16167   5.391   4.650   5.084  0.1119 -0.8975  0.4031
  146OSM   H11G16168   5.349   4.654   5.253  1.0446 -1.6793  1.0396
  146OSM   C12F16169   5.555   4.616   5.222 -0.1867  0.2330 -0.7414
  146OSM   H12F16170   5.631   4.641   5.145 -0.5710 -1.1673 -1.6120
  146OSM   H12G16171   5.534   4.507   5.214 -0.9917  0.1488  1.6187
  146OSM   C13F16172   5.588   4.646   5.363 -0.3598 -0.3134 -0.2769
  146OSM   H13F16173   5.495   4.628   5.422 -0.6762 -0.5539 -0.8451
  146OSM   H13G16174   5.610   4.752   5.389  0.5629 -0.6698  0.4646
  146OSM   C14F16175   5.695   4.542   5.415  1.1699  0.2390  0.2979
  146OSM   H14F16176   5.648   4.441   5.415  2.2618 -0.3091  1.9051
  146OSM   H14G16177   5.782   4.531   5.347  3.4016 -1.4679  3.1771
  146OSM   C15F16178   5.751   4.571   5.550 -0.0109 -0.6113  0.1989
  146OSM   H15F16179   5.767   4.680   5.560  0.3199 -0.5030 -1.2636
  146OSM   H15G16180   5.853   4.526   5.556 -1.3176 -3.6564  2.1712
  146OSM   C16F16181   5.660   4.508   5.662 -0.6212  0.1476 -0.4587
  146OSM   H16F16182   5.651   4.398   5.645  0.2022 -0.0733  0.4150
  146OSM   H16G16183   5.559   4.554   5.664 -1.9277 -2.5272  0.3184
  146OSM   C17F16184   5.710   4.548   5.808  0.4477 -1.0147 -0.0013
  146OSM   H17F16185   5.725   4.658   5.809 -0.6027 -0.8037 -1.8211
  146OSM   H17G16186   5.816   4.514   5.813  1.3603  1.6235  0.0442
  146OSM   C18F16187   5.627   4.500   5.921  0.1879 -0.2901  0.4971
  146OSM   H18F16188   5.518   4.513   5.903  0.1701  0.4914  1.1286
  146OSM   H18G16189   5.656   4.549   6.016 -1.1898  0.2853  0.6500
  146OSM   H18H16190   5.640   4.390   5.933  0.4336 -0.3828 -0.5244
  147OSM      N16191   5.324   0.581   1.644 -0.0665  0.6527 -0.1122
  147OSM    C1516192   5.297   0.484   1.761  0.0506 -0.4432  0.4003
  147OSM   H15A16193   5.306   0.532   1.857 -0.4456  2.1970 -0.7769
  147OSM   H15B16194   5.373   0.408   1.755  1.2066  0.7166 -0.2043
  147OSM   H15C16195   5.195   0.451   1.746 -0.5183  1.1627  0.5677
  147OSM    C1416196   5.307   0.503   1.516 -0.4797 -0.4875  0.3445
  147OSM   H14A16197   5.335   0.562   1.430  0.0485  0.3197  1.0473
  147OSM   H14B16198   5.207   0.464   1.504  0.2869 -2.0122 -1.5679
  147OSM   H14C16199   5.384   0.427   1.514  2.2215  2.0655  0.3232
  147OSM    C1316200   5.228   0.692   1.658 -0.2224  0.1525  0.3334
  147OSM   H13A16201   5.225   0.737   1.756 -2.2037 -0.1018  0.4314
  147OSM   H13B16202   5.130   0.654   1.633 -0.5753  0.2452  1.5479
  147OSM   H13C16203   5.243   0.762   1.577  0.1019 -0.0357  0.2291
  147OSM    C1216204   5.475   0.628   1.659 -0.0585 -0.4619  0.8072
  147OSM   H12A16205   5.487   0.670   1.758  2.0890 -1.1008  0.8845
  147OSM   H12B16206   5.497   0.704   1.586 -2.5905 -1.1679 -0.7856
  147OSM    C1116207   5.588   0.516   1.640  0.1927  0.3080 -0.2186
  147OSM   H11A16208   5.686   0.564   1.660  0.6966 -0.9378  0.4215
  147OSM   H11B16209   5.587   0.508   1.530 -1.3677  1.2488 -0.3057
  147OSM      P16210   5.616   0.371   1.856  0.1806 -0.4778 -0.4130
  147OSM    O1316211   5.517   0.303   1.941  1.0245 -0.1107 -0.0262
  147OSM    O1416212   5.747   0.307   1.844 -0.2657  0.0732 -0.2973
  147OSM    O1116213   5.643   0.518   1.915  0.1734  0.2000 -0.3056
  147OSM    O1216214   5.557   0.395   1.716  0.2972  0.2721 -0.6580
  147OSM    C1S16215   5.606   0.550   2.044  0.5882 -0.1704 -0.0149
  147OSM    H1S16216   5.526   0.485   2.085  1.3678 -0.9150  0.3541
  147OSM    H1T16217   5.585   0.658   2.058  2.9042  0.3178 -0.0056
  147OSM     NF16218   5.683   0.557   2.274 -0.0479  0.0321  0.6653
  147OSM    HNF16219   5.697   0.651   2.302 -2.6137  0.6510  0.0717
  147OSM    C2S16220   5.726   0.526   2.142 -0.3453 -0.2132 -1.0148
  147OSM    H2S16221   5.752   0.418   2.135  0.8876  0.0627 -0.8677
  147OSM    C3S16222   5.848   0.622   2.097 -0.0412  0.7756 -0.0326
  147OSM    H3S16223   5.815   0.726   2.113 -1.2950  0.0571  2.5868
  147OSM     O316224   5.880   0.606   1.960 -0.0580 -0.3425  0.0455
  147OSM    HO316225   5.794   0.577   1.929 -0.4490  0.9040 -0.0679
  147OSM    C4S16226   5.976   0.597   2.175 -0.1330  0.4972  0.2384
  147OSM    H4S16227   6.033   0.505   2.151  0.2288  1.1610 -1.5832
  147OSM    C5S16228   6.029   0.671   2.278 -0.6552 -0.3523 -0.2263
  147OSM    H5S16229   5.965   0.749   2.320 -0.6398 -0.6889  0.4372
  147OSM    C6S16230   6.155   0.627   2.349 -0.5569  0.2038  0.6597
  147OSM    H6S16231   6.240   0.697   2.336  0.6947 -1.4680 -0.5848
  147OSM    H6T16232   6.193   0.535   2.300 -0.6065 -0.9751  2.7019
  147OSM    C7S16233   6.140   0.590   2.493  0.1139  1.7209  0.3401
  147OSM    H7S16234   6.105   0.679   2.550 -0.3621  0.8171  1.5105
  147OSM    H7T16235   6.242   0.568   2.529 -0.4022 -1.6223  0.0470
  147OSM    C8S16236   6.048   0.471   2.519 -0.1837 -0.2904  0.4128
  147OSM    H8S16237   6.104   0.375   2.513  1.9502  0.5189  4.2845
  147OSM    H8T16238   5.959   0.466   2.452 -1.3789 -2.0974  2.0050
  147OSM    C9S16239   5.976   0.482   2.653  0.3837  0.3659  0.3321
  147OSM    H9S16240   5.908   0.396   2.670  1.2760 -0.1339  1.5484
  147OSM    H9T16241   5.909   0.571   2.654  0.8229  0.7595  3.1496
  147OSM   C10S16242   6.069   0.484   2.774  0.1802  0.0160  0.5605
  147OSM   H10S16243   6.128   0.578   2.772  0.3592 -0.1019  0.1934
  147OSM   H10T16244   6.142   0.402   2.759 -0.7528 -0.6670 -0.3910
  147OSM   C11S16245   6.004   0.475   2.913 -0.2295  0.0309  0.0100
  147OSM   H11S16246   5.954   0.375   2.915 -1.1719  0.5003  0.6650
  147OSM   H11T16247   5.930   0.552   2.941  1.5424  1.7802  0.0544
  147OSM   C12S16248   6.098   0.467   3.034 -0.4355  0.5777 -0.3406
  147OSM   H12S16249   6.137   0.571   3.041  1.2481  0.0922 -1.6144
  147OSM   H12T16250   6.180   0.396   3.008 -2.1351 -1.4664 -0.3875
  147OSM   C13S16251   6.028   0.415   3.154 -0.8758  0.4050 -0.1861
  147OSM   H13S16252   5.996   0.310   3.141 -1.9840  0.7923 -0.7411
  147OSM   H13T16253   5.938   0.478   3.172  1.0955  3.4698 -0.2468
  147OSM   C14S16254   6.119   0.425   3.278  0.0076 -0.9038 -0.0652
  147OSM   H14S16255   6.155   0.528   3.300  0.3386 -1.0275 -0.0326
  147OSM   H14T16256   6.204   0.357   3.254  1.7503  1.2608 -0.3263
  147OSM   C15S16257   6.049   0.366   3.402  0.1681 -0.2369 -0.1684
  147OSM   H15S16258   6.034   0.259   3.377 -1.1086  0.1093 -0.9317
  147OSM   H15T16259   5.949   0.413   3.413 -0.9290 -1.8329 -2.5975
  147OSM   C16S16260   6.146   0.373   3.524  0.2607  0.1544  0.8458
  147OSM   H16S16261   6.181   0.477   3.537 -0.6764  1.0225 -2.5646
  147OSM   H16T16262   6.232   0.313   3.486 -0.3497 -0.6926  0.7613
  147OSM   C17S16263   6.091   0.306   3.645  0.5029  0.2510 -0.2136
  147OSM   H17S16264   6.026   0.223   3.611  0.3007 -0.4994  1.9039
  147OSM   H17T16265   6.020   0.377   3.692 -0.4632 -0.0855 -1.1319
  147OSM   C18S16266   6.200   0.283   3.757  1.3447  0.0400  0.1627
  147OSM   H18S16267   6.258   0.194   3.724  0.0044 -0.0307 -2.2862
  147OSM   H18T16268   6.158   0.247   3.853  0.5000 -3.4720 -1.3490
  147OSM   H18U16269   6.258   0.376   3.777  1.6993 -0.0742 -0.3043
  147OSM    C1F16270   5.614   0.476   2.348  0.1275  0.1856 -0.0959
  147OSM     OF16271   5.555   0.374   2.301 -0.0096  0.3084  0.1864
  147OSM    C2F16272   5.598   0.508   2.486 -0.8449  0.8562 -0.6440
  147OSM    H2F16273   5.524   0.591   2.494 -1.2053  0.3302  3.7966
  147OSM    H2G16274   5.691   0.549   2.531  0.5610 -1.5404 -1.2185
  147OSM    C3F16275   5.545   0.380   2.558  0.1679  0.3706 -0.1805
  147OSM    H3F16276   5.617   0.296   2.568  0.9759  1.1104  0.2556
  147OSM    H3G16277   5.447   0.352   2.514  0.4330 -1.4482  0.3137
  147OSM    C4F16278   5.513   0.410   2.704  0.4285  0.5800 -0.3822
  147OSM    H4F16279   5.600   0.433   2.770 -0.9131  1.8283  1.0207
  147OSM    H4G16280   5.481   0.313   2.746  0.1779 -0.1247 -2.1257
  147OSM    C5F16281   5.404   0.514   2.720 -0.0216  1.3018 -0.2794
  147OSM    H5F16282   5.323   0.476   2.655 -0.3968 -0.2396  1.0505
  147OSM    H5G16283   5.437   0.613   2.679 -0.3413  1.5733  0.1142
  147OSM    C6F16284   5.353   0.522   2.862 -0.9601  0.4202 -1.0201
  147OSM    H6F16285   5.427   0.581   2.921 -0.2742 -2.1674  0.8763
  147OSM    H6G16286   5.356   0.426   2.917 -1.4712  1.1418  0.3135
  147OSM    C7F16287   5.221   0.602   2.870  0.1052  0.9136 -0.6993
  147OSM    H7F16288   5.146   0.542   2.814  1.8174 -1.0266 -1.0221
  147OSM    H7G16289   5.239   0.691   2.806  0.6806  0.6756 -0.8770
  147OSM    C8F16290   5.172   0.635   3.012 -0.0102  0.2999 -0.2300
  147OSM    H8F16291   5.178   0.535   3.061  0.6926 -0.3794 -1.6682
  147OSM    H8G16292   5.066   0.667   3.010 -0.8020 -2.0544 -0.0303
  147OSM    C9F16293   5.253   0.741   3.071  0.5069 -0.3965 -0.7118
  147OSM    H9F16294   5.271   0.833   3.014 -0.9989  1.1203  1.1497
  147OSM   C10F16295   5.285   0.746   3.205  0.2104 -0.2001 -0.1700
  147OSM   H10F16296   5.353   0.831   3.222  1.0461 -0.4693 -1.9638
  147OSM   C11F16297   5.248   0.651   3.319  0.7498  1.3032 -0.2372
  147OSM   H11F16298   5.337   0.627   3.380  0.3164  0.8225  0.2064
  147OSM   H11G16299   5.220   0.551   3.281 -0.8321  1.4913  0.3793
  147OSM   C12F16300   5.133   0.715   3.408 -0.5987  0.4561  0.3920
  147OSM   H12F16301   5.042   0.710   3.344 -0.8858  0.1791  0.8190
  147OSM   H12G16302   5.166   0.817   3.438  1.7978  0.0314 -0.5928
  147OSM   C13F16303   5.119   0.638   3.534  0.7603 -0.2040 -0.8828
  147OSM   H13F16304   5.070   0.541   3.512 -0.7755  0.4175 -0.3510
  147OSM   H13G16305   5.043   0.696   3.591 -0.2130 -0.9435 -1.4021
  147OSM   C14F16306   5.241   0.633   3.623 -0.5728  0.3428  0.0806
  147OSM   H14F16307   5.291   0.732   3.612 -2.5639  1.2671 -1.2856
  147OSM   H14G16308   5.319   0.561   3.592  1.8063  2.1756  1.4550
  147OSM   C15F16309   5.211   0.613   3.767 -0.4800  0.0241  0.0538
  147OSM   H15F16310   5.186   0.505   3.768  1.5112 -0.5036 -1.1549
  147OSM   H15G16311   5.117   0.661   3.803 -0.6093 -1.6724  2.2131
  147OSM   C16F16312   5.330   0.628   3.857  0.2322 -0.3791 -0.3353
  147OSM   H16F16313   5.378   0.728   3.843  2.0522 -1.5802 -3.7524
  147OSM   H16G16314   5.404   0.554   3.821  0.1783 -0.4812 -0.2338
  147OSM   C17F16315   5.297   0.606   4.005  0.0056  0.4618  0.1918
  147OSM   H17F16316   5.255   0.504   4.018 -1.3835  0.9920  0.0340
  147OSM   H17G16317   5.215   0.681   4.016 -0.0189  0.7018 -1.4377
  147OSM   C18F16318   5.414   0.617   4.100  0.4691 -0.2631  0.6112
  147OSM   H18F16319   5.439   0.724   4.116  0.7508 -0.2651  0.2091
  147OSM   H18G16320   5.497   0.564   4.050 -0.6593  0.3554 -2.1109
  147OSM   H18H16321   5.391   0.552   4.187 -0.2198 -2.8198 -1.3324
  148OSM      N16322   5.804   6.849   1.896 -0.2869  0.0181  0.3312
  148OSM    C1516323   5.795   6.709   1.850 -0.3168  1.0589  0.3726
  148OSM   H15A16324   5.691   6.687   1.831 -0.2516 -0.3777  1.4782
  148OSM   H15B16325   5.839   6.634   1.914  0.6663  1.5031  0.2513
  148OSM   H15C16326   5.847   6.713   1.755  0.5665  0.6384  0.8274
  148OSM    C1416327   5.947   6.860   1.910 -0.1284  0.3729  0.5406
  148OSM   H14A16328   5.980   6.856   1.807 -1.6800  3.2509 -0.1649
  148OSM   H14B16329   5.989   6.783   1.973  1.1912 -1.5219 -2.4642
  148OSM   H14C16330   5.976   6.957   1.948 -3.4714  0.4557  3.4078
  148OSM    C1316331   5.760   6.947   1.790  0.0925  0.4884 -0.1108
  148OSM   H13A16332   5.798   7.043   1.821 -0.5682  0.7125 -0.0030
  148OSM   H13B16333   5.654   6.947   1.771  0.3667  1.0823 -1.7508
  148OSM   H13C16334   5.809   6.919   1.698  2.6837 -3.3612  2.1186
  148OSM    C1216335   5.726   6.874   2.019 -0.3031 -0.1233 -0.3886
  148OSM   H12A16336   5.742   6.792   2.087 -0.6029  0.9247  0.9975
  148OSM   H12B16337   5.618   6.873   2.010 -0.3557 -3.6692 -0.7546
  148OSM    C1116338   5.758   7.000   2.102  0.3321  0.2958  0.0311
  148OSM   H11A16339   5.685   7.017   2.184  2.9120  2.0056  2.1569
  148OSM   H11B16340   5.744   7.084   2.030  0.9329  0.7137  0.3912
  148OSM      P16341   5.920   6.907   2.275 -0.1962 -0.3691  0.5772
  148OSM    O1316342   5.793   6.855   2.336 -0.3799 -0.7900  0.2209
  148OSM    O1416343   6.015   6.800   2.239 -0.9226  0.2124  0.0388
  148OSM    O1116344   5.983   7.009   2.376  0.6552  0.4282  0.0285
  148OSM    O1216345   5.888   6.996   2.152 -0.0226 -0.1542 -0.5678
  148OSM    C1S16346   5.922   7.054   2.497 -0.2058  0.6806  1.2910
  148OSM    H1S16347   5.816   7.019   2.506  0.6353 -2.0850  1.5188
  148OSM    H1T16348   5.918   7.165   2.493 -2.2240  0.6212  0.0945
  148OSM     NF16349   5.938   7.041   2.748  0.6537  0.6097 -0.1629
  148OSM    HNF16350   6.004   7.077   2.813  1.9231  1.5180 -1.8758
  148OSM    C2S16351   5.993   6.996   2.623  0.2460  0.2019  0.0554
  148OSM    H2S16352   5.984   6.885   2.623  1.5512  0.0574 -1.6840
  148OSM    C3S16353   6.146   7.040   2.614  0.1786 -0.3652 -0.5556
  148OSM    H3S16354   6.145   7.149   2.592 -0.0677 -0.2731 -0.0948
  148OSM     O316355   6.221   6.976   2.512 -0.2941 -0.4131  0.0844
  148OSM    HO316356   6.147   6.941   2.463 -0.6251 -1.8894  1.5687
  148OSM    C4S16357   6.209   7.015   2.742 -0.4098 -0.8868 -0.5006
  148OSM    H4S16358   6.178   6.920   2.787 -1.0776 -0.1996  0.5041
  148OSM    C5S16359   6.296   7.096   2.818  0.7420  0.4705 -0.4521
  148OSM    H5S16360   6.318   7.197   2.781  1.3012  0.9046  1.0085
  148OSM    C6S16361   6.350   7.064   2.955  0.6148 -0.2236  0.2302
  148OSM    H6S16362   6.366   7.157   3.014  1.4113 -0.5648  0.5679
  148OSM    H6T16363   6.446   7.008   2.948 -0.1062 -1.5155  0.3248
  148OSM    C7S16364   6.260   6.964   3.030  0.3527  0.4907 -0.1793
  148OSM    H7S16365   6.253   6.872   2.968  2.2893  1.0219 -1.2836
  148OSM    H7T16366   6.158   7.007   3.020 -1.0624 -2.4745  0.3979
  148OSM    C8S16367   6.296   6.934   3.176 -0.3521  0.6210  0.0876
  148OSM    H8S16368   6.308   7.029   3.232  0.1286  2.4356 -2.8895
  148OSM    H8T16369   6.399   6.892   3.175  0.2820  2.1017  0.3198
  148OSM    C9S16370   6.211   6.826   3.255 -0.7007 -0.7245  0.2430
  148OSM    H9S16371   6.262   6.817   3.353  1.7738  0.2101 -0.8771
  148OSM    H9T16372   6.216   6.732   3.196  1.1642 -1.2604  1.1899
  148OSM   C10S16373   6.067   6.869   3.264 -0.4372 -0.9824  0.1727
  148OSM   H10S16374   6.030   6.857   3.160 -0.3917 -2.9797  0.3569
  148OSM   H10T16375   6.069   6.980   3.273  0.4274 -1.0746  1.4759
  148OSM   C11S16376   5.975   6.826   3.377 -0.7002 -0.3624  0.4017
  148OSM   H11S16377   5.991   6.718   3.359  0.8577 -0.1051  0.0394
  148OSM   H11T16378   5.870   6.860   3.362 -1.2021 -1.8434  0.3866
  148OSM   C12S16379   6.016   6.879   3.523  0.3406 -0.3020  0.2854
  148OSM   H12S16380   5.919   6.919   3.562 -1.0407 -1.7691 -1.4444
  148OSM   H12T16381   6.083   6.966   3.512  0.6204 -0.8250 -3.1644
  148OSM   C13S16382   6.084   6.769   3.615 -0.3243 -1.2186  0.2372
  148OSM   H13S16383   6.184   6.759   3.567 -0.5126 -0.6155 -0.2889
  148OSM   H13T16384   6.033   6.670   3.616 -2.2131 -0.2961 -0.3414
  148OSM   C14S16385   6.100   6.810   3.758 -0.3709  0.5331  0.2693
  148OSM   H14S16386   5.999   6.814   3.803 -0.0706  1.1526  0.9176
  148OSM   H14T16387   6.138   6.914   3.769 -0.2273  0.3223  2.1214
  148OSM   C15S16388   6.190   6.719   3.851  0.3570 -0.2880  0.6678
  148OSM   H15S16389   6.298   6.734   3.833 -0.1169  0.9165 -1.5393
  148OSM   H15T16390   6.151   6.619   3.820  0.7115 -0.5377  1.0172
  148OSM   C16S16391   6.153   6.731   4.000 -0.1341 -0.8335 -0.7716
  148OSM   H16S16392   6.043   6.731   4.014  0.1923  1.5883  3.0076
  148OSM   H16T16393   6.189   6.827   4.041 -1.0665 -0.9847  0.4613
  148OSM   C17S16394   6.206   6.616   4.090  0.0064 -0.3872 -0.1820
  148OSM   H17S16395   6.166   6.621   4.194  2.0016  1.0158  0.5900
  148OSM   H17T16396   6.315   6.633   4.095  0.3513 -2.6114  1.5429
  148OSM   C18S16397   6.177   6.479   4.028 -0.1175  0.2301 -0.7952
  148OSM   H18S16398   6.078   6.466   3.981  0.1224  0.2316 -1.3103
  148OSM   H18T16399   6.192   6.403   4.107 -2.6947  1.0942  0.6161
  148OSM   H18U16400   6.261   6.460   3.958  0.3583 -0.4635 -0.0614
  148OSM    C1F16401   5.807   7.022   2.784 -0.9486 -0.3172  0.1757
  148OSM     OF16402   5.729   6.953   2.727 -0.0426 -0.2995  1.1772
  148OSM    C2F16403   5.762   7.082   2.910 -0.4762  0.2371  0.1149
  148OSM    H2F16404   5.748   7.191   2.895  1.9881  0.4870 -0.8862
  148OSM    H2G16405   5.841   7.068   2.987 -2.3012 -0.8538  1.8612
  148OSM    C3F16406   5.645   7.007   2.978  0.2267  0.0192 -0.2601
  148OSM    H3F16407   5.684   6.904   2.991  0.5915 -0.0946 -2.0228
  148OSM    H3G16408   5.555   7.001   2.912  0.1051 -1.1254 -0.0224
  148OSM    C4F16409   5.607   7.066   3.117  0.1221  0.8890 -0.6750
  148OSM    H4F16410   5.660   7.002   3.192  0.4438 -0.1434 -1.7448
  148OSM    H4G16411   5.504   7.044   3.151  1.0485  0.4376  2.1478
  148OSM    C5F16412   5.637   7.209   3.137 -0.7007 -0.0314  0.3608
  148OSM    H5F16413   5.577   7.267   3.064 -1.1135  0.1121  0.8035
  148OSM    H5G16414   5.745   7.232   3.133  0.0354 -2.9024  1.1162
  148OSM    C6F16415   5.605   7.245   3.288  0.0566  0.6674  0.3855
  148OSM    H6F16416   5.650   7.172   3.360  0.9496  1.5167  0.7243
  148OSM    H6G16417   5.495   7.239   3.300 -0.2801 -2.2981 -2.6198
  148OSM    C7F16418   5.639   7.391   3.335 -0.4811 -0.3228  0.8289
  148OSM    H7F16419   5.595   7.456   3.256  0.4096 -1.4105 -0.6157
  148OSM    H7G16420   5.750   7.397   3.334 -0.4732  0.0494  2.1013
  148OSM    C8F16421   5.590   7.416   3.476  0.1153  0.7512  0.0812
  148OSM    H8F16422   5.635   7.354   3.556 -1.5027 -1.4273 -0.5984
  148OSM    H8G16423   5.480   7.400   3.472  0.2562 -0.1757 -0.4112
  148OSM    C9F16424   5.611   7.561   3.513 -0.2553 -0.3065 -0.0180
  148OSM    H9F16425   5.586   7.628   3.430 -0.2243 -3.4511 -2.7978
  148OSM   C10F16426   5.657   7.601   3.633 -0.6887  0.2900 -0.1214
  148OSM   H10F16427   5.666   7.710   3.640 -0.9036  0.3502 -0.7534
  148OSM   C11F16428   5.736   7.524   3.742 -0.3678 -0.0221  0.1396
  148OSM   H11F16429   5.790   7.440   3.695  1.6531  1.7905 -0.9133
  148OSM   H11G16430   5.667   7.489   3.823  0.9609 -1.0977  0.8469
  148OSM   C12F16431   5.852   7.610   3.798  0.3516 -0.1744  0.2746
  148OSM   H12F16432   5.816   7.697   3.856  2.9671  0.7864  0.5645
  148OSM   H12G16433   5.918   7.652   3.720 -0.6184 -0.3060 -0.6529
  148OSM   C13F16434   5.945   7.531   3.890  0.2863 -0.1562 -0.6046
  148OSM   H13F16435   6.031   7.599   3.910 -0.6581  1.1265 -0.7392
  148OSM   H13G16436   5.977   7.443   3.831  1.4885  0.6704 -1.2466
  148OSM   C14F16437   5.888   7.495   4.026  0.0363 -0.4668  0.4719
  148OSM   H14F16438   5.796   7.433   4.016  0.2808 -0.8020  0.3006
  148OSM   H14G16439   5.861   7.594   4.068 -0.3084 -0.1495 -0.4679
  148OSM   C15F16440   6.000   7.438   4.120  0.0275 -0.8825 -0.5192
  148OSM   H15F16441   6.091   7.501   4.131 -0.1364 -0.7709  0.2772
  148OSM   H15G16442   6.025   7.336   4.084 -1.1277 -1.1929 -0.5058
  148OSM   C16F16443   5.943   7.421   4.266 -0.4127 -0.2931 -0.1646
  148OSM   H16F16444   5.920   7.519   4.311  1.2201  0.2564 -0.4756
  148OSM   H16G16445   6.020   7.365   4.324 -0.6186  1.3121  1.7258
  148OSM   C17F16446   5.818   7.330   4.280  0.2493 -0.4755 -0.1074
  148OSM   H17F16447   5.858   7.247   4.343 -0.6512 -0.0556  1.0619
  148OSM   H17G16448   5.795   7.283   4.182  0.8478 -1.2187  0.1003
  148OSM   C18F16449   5.698   7.409   4.332  0.8451  0.0335  0.7666
  148OSM   H18F16450   5.610   7.345   4.350  0.0506  0.7336 -0.4552
  148OSM   H18G16451   5.666   7.491   4.264 -0.1764 -0.7228  0.3096
  148OSM   H18H16452   5.722   7.447   4.434  2.8111 -1.5652  0.9622
  149OSM      N16453   0.025   1.287   1.658  0.0696 -0.5939 -0.4879
  149OSM    C1516454  -0.057   1.293   1.532  0.0606 -0.0639  0.0608
  149OSM   H15A16455  -0.108   1.387   1.528 -2.0092 -1.1508 -0.6797
  149OSM   H15B16456  -0.127   1.211   1.535  0.6778 -0.6080  0.0738
  149OSM   H15C16457  -0.001   1.276   1.441 -0.0419  0.5683 -0.1244
  149OSM    C1416458   0.126   1.172   1.647  0.3419 -0.6845  0.4931
  149OSM   H14A16459   0.068   1.081   1.648  0.2544 -0.6306  1.3016
  149OSM   H14B16460   0.200   1.173   1.726  2.3998  4.3748 -1.1204
  149OSM   H14C16461   0.184   1.183   1.557 -0.1497 -1.7222  0.0335
  149OSM    C1316462   0.099   1.416   1.668 -0.0554 -0.2671 -0.1886
  149OSM   H13A16463   0.165   1.438   1.585 -0.5524 -0.8476 -0.7530
  149OSM   H13B16464   0.161   1.416   1.756 -0.7008  0.3999  0.2804
  149OSM   H13C16465   0.033   1.494   1.702 -2.0271  0.0589 -4.0894
  149OSM    C1216466  -0.070   1.263   1.773 -0.1266 -1.2058 -0.7862
  149OSM   H12A16467  -0.009   1.225   1.854 -0.9778  0.5889  0.7758
  149OSM   H12B16468  -0.137   1.181   1.750 -1.2302  0.3324 -3.5256
  149OSM    C1116469  -0.155   1.382   1.823  0.1547  0.9071 -0.7055
  149OSM   H11A16470  -0.228   1.335   1.893 -0.0337  3.6282  1.0522
  149OSM   H11B16471  -0.221   1.426   1.745 -0.4552  1.0024 -0.1463
  149OSM      P16472  -0.090   1.619   1.912  0.1641  0.5867  0.1021
  149OSM    O1316473   0.033   1.680   1.856  0.2462 -0.3772  0.6471
  149OSM    O1416474  -0.222   1.668   1.866 -0.4718  0.1670  0.0101
  149OSM    O1116475  -0.078   1.641   2.065  0.2706 -0.2636  0.0027
  149OSM    O1216476  -0.071   1.463   1.906  0.1053  0.0087  0.6931
  149OSM    C1S16477   0.015   1.582   2.149 -0.3725 -0.2167 -1.1543
  149OSM    H1S16478   0.116   1.615   2.116  0.1263  0.8519  1.2541
  149OSM    H1T16479   0.014   1.471   2.152  1.7871 -0.2804  1.5446
  149OSM     NF16480   0.112   1.593   2.374  0.4555  0.0341 -0.1229
  149OSM    HNF16481   0.079   1.530   2.445 -0.5844 -1.1943 -1.6407
  149OSM    C2S16482  -0.004   1.620   2.296 -0.8737 -0.0314 -0.2120
  149OSM    H2S16483  -0.028   1.729   2.301  0.4781  0.4069 -2.0890
  149OSM    C3S16484  -0.134   1.549   2.346  0.9301 -0.2439  0.2204
  149OSM    H3S16485  -0.128   1.439   2.331 -0.6967 -0.1279 -1.7300
  149OSM     O316486  -0.251   1.577   2.267  0.4471  0.4178  0.2490
  149OSM    HO316487  -0.221   1.624   2.190 -2.0099  2.1903  0.2367
  149OSM    C4S16488  -0.158   1.573   2.492  0.1882  0.4518 -0.6500
  149OSM    H4S16489  -0.132   1.485   2.553 -1.2697  0.8109  0.5375
  149OSM    C5S16490  -0.217   1.678   2.556  0.9150  0.2257  0.4105
  149OSM    H5S16491  -0.243   1.769   2.501 -0.1842 -0.5969 -0.4834
  149OSM    C6S16492  -0.257   1.689   2.709 -0.2256 -0.5875  1.2790
  149OSM    H6S16493  -0.360   1.731   2.700  0.6235  1.3505  0.1195
  149OSM    H6T16494  -0.179   1.750   2.759  0.4341 -0.5050  0.1912
  149OSM    C7S16495  -0.261   1.562   2.783 -1.0471 -0.2812  0.1886
  149OSM    H7S16496  -0.158   1.521   2.787 -1.0966 -0.7343 -2.0784
  149OSM    H7T16497  -0.323   1.487   2.729  0.7114 -1.2393 -0.6276
  149OSM    C8S16498  -0.318   1.585   2.924  0.2264 -0.4042 -0.9822
  149OSM    H8S16499  -0.326   1.491   2.982  1.0141  1.5135  2.5223
  149OSM    H8T16500  -0.421   1.626   2.936  0.4958 -0.4206  2.7096
  149OSM    C9S16501  -0.235   1.680   3.016 -0.0167 -0.2001 -0.1671
  149OSM    H9S16502  -0.231   1.785   2.982  0.8977 -0.2380 -0.1977
  149OSM    H9T16503  -0.130   1.645   3.003  0.3470  1.6371 -3.2070
  149OSM   C10S16504  -0.277   1.664   3.166  0.4545 -0.4910 -0.0184
  149OSM   H10S16505  -0.248   1.564   3.204  0.5709  0.4633  2.5923
  149OSM   H10T16506  -0.387   1.667   3.172  0.4269  0.2332 -0.7847
  149OSM   C11S16507  -0.197   1.766   3.246 -0.6096 -1.5556  0.9353
  149OSM   H11S16508  -0.248   1.864   3.232  1.2645 -0.6057  0.4388
  149OSM   H11T16509  -0.091   1.772   3.211 -1.6445  0.1655 -2.3323
  149OSM   C12S16510  -0.196   1.731   3.398 -0.4937 -0.4830  0.8599
  149OSM   H12S16511  -0.145   1.814   3.450  1.8311 -1.2111 -0.1105
  149OSM   H12T16512  -0.132   1.644   3.426 -0.0661  0.1012  1.7371
  149OSM   C13S16513  -0.338   1.723   3.450  0.4294 -0.1209  0.0270
  149OSM   H13S16514  -0.372   1.620   3.428 -2.1000  0.2214  1.8721
  149OSM   H13T16515  -0.405   1.785   3.388  0.9457 -2.4818 -3.1280
  149OSM   C14S16516  -0.361   1.753   3.599 -0.9271  0.2531 -1.1297
  149OSM   H14S16517  -0.327   1.853   3.633  0.3024 -1.0282  1.7699
  149OSM   H14T16518  -0.297   1.676   3.649 -2.2418 -1.1831 -1.5649
  149OSM   C15S16519  -0.503   1.723   3.652  0.2373  0.2426  0.0928
  149OSM   H15S16520  -0.561   1.652   3.589 -1.2808  1.0008  0.5840
  149OSM   H15T16521  -0.571   1.812   3.648  1.2462  1.0911  1.1111
  149OSM   C16S16522  -0.502   1.688   3.801 -0.3235 -0.1806  0.3897
  149OSM   H16S16523  -0.416   1.624   3.828  0.8741  2.2265  2.7082
  149OSM   H16T16524  -0.601   1.644   3.827  0.1730 -0.3300  2.1498
  149OSM   C17S16525  -0.481   1.814   3.900  0.2479  0.2584  0.7675
  149OSM   H17S16526  -0.533   1.899   3.850 -2.0116  1.0516  4.1379
  149OSM   H17T16527  -0.371   1.830   3.905  0.6893 -2.1765  0.1313
  149OSM   C18S16528  -0.550   1.789   4.030  0.1105 -0.0448  0.1393
  149OSM   H18S16529  -0.509   1.695   4.073 -0.2660  0.1753  1.0062
  149OSM   H18T16530  -0.656   1.757   4.018  0.4132 -0.7494 -0.7910
  149OSM   H18U16531  -0.539   1.875   4.100  0.5707  1.7090 -2.0000
  149OSM    C1F16532   0.227   1.651   2.355  0.0667 -0.5750 -0.1067
  149OSM     OF16533   0.239   1.747   2.272 -0.0355  0.3246 -0.7132
  149OSM    C2F16534   0.340   1.620   2.449 -0.0265 -0.2267 -0.0163
  149OSM    H2F16535   0.384   1.529   2.403  3.5873  2.8056 -3.3279
  149OSM    H2G16536   0.307   1.614   2.555  0.6912 -1.3856  0.1609
  149OSM    C3F16537   0.454   1.724   2.436 -0.9456 -0.6654  0.1959
  149OSM    H3F16538   0.428   1.822   2.483  2.7593  1.1971 -1.2636
  149OSM    H3G16539   0.467   1.743   2.327 -2.3823  2.0169  0.4138
  149OSM    C4F16540   0.593   1.675   2.480  0.7215 -0.3058 -0.0631
  149OSM    H4F16541   0.672   1.752   2.474 -1.5171  2.0067 -1.9077
  149OSM    H4G16542   0.616   1.587   2.415  3.6601  0.0398  0.3424
  149OSM    C5F16543   0.589   1.620   2.630  0.5031 -0.2711  0.3300
  149OSM    H5F16544   0.693   1.583   2.640  0.0992 -1.4951  0.2234
  149OSM    H5G16545   0.529   1.526   2.636  0.4212 -0.2446 -0.0437
  149OSM    C6F16546   0.557   1.732   2.731 -0.0139  0.1410 -0.2194
  149OSM    H6F16547   0.454   1.764   2.704 -0.4593 -1.6428 -0.7564
  149OSM    H6G16548   0.632   1.811   2.710  1.0710 -0.5517  0.9397
  149OSM    C7F16549   0.567   1.672   2.869  0.3849 -0.5223  0.2622
  149OSM    H7F16550   0.654   1.603   2.867 -0.9416 -2.2536 -1.0821
  149OSM    H7G16551   0.474   1.612   2.877  0.2101 -0.4050 -0.7378
  149OSM    C8F16552   0.578   1.764   2.991 -0.5061 -0.1613 -0.4285
  149OSM    H8F16553   0.551   1.712   3.086 -0.9970 -2.7400 -1.8859
  149OSM    H8G16554   0.493   1.833   2.974 -0.7575 -0.8295 -2.0584
  149OSM    C9F16555   0.713   1.847   3.005  0.7610  0.3832  0.1920
  149OSM    H9F16556   0.735   1.907   2.915  1.4863 -1.0660 -0.6396
  149OSM   C10F16557   0.785   1.865   3.109  0.1294 -0.0881  0.0472
  149OSM   H10F16558   0.870   1.935   3.104 -0.4133  0.5356 -0.8288
  149OSM   C11F16559   0.757   1.799   3.241  0.0739 -0.5584  0.2753
  149OSM   H11F16560   0.860   1.785   3.280  0.1807 -1.4958 -0.3167
  149OSM   H11G16561   0.717   1.697   3.218 -0.1790  0.0949 -2.5512
  149OSM   C12F16562   0.666   1.858   3.352 -0.7893  0.1631 -0.0384
  149OSM   H12F16563   0.572   1.879   3.296 -0.8586  3.0011  0.9723
  149OSM   H12G16564   0.687   1.964   3.377 -2.0538  0.1448  1.2681
  149OSM   C13F16565   0.634   1.761   3.469  1.0341  0.0089  0.5577
  149OSM   H13F16566   0.592   1.670   3.421  0.9863 -0.0795  0.7664
  149OSM   H13G16567   0.559   1.811   3.532 -0.0154  1.1419 -1.4919
  149OSM   C14F16568   0.752   1.746   3.567 -0.3162  0.2001  0.3181
  149OSM   H14F16569   0.765   1.851   3.602 -3.1215  0.9331 -0.6029
  149OSM   H14G16570   0.843   1.722   3.508  0.2100  0.0861  1.1665
  149OSM   C15F16571   0.732   1.640   3.673  0.7605  0.1819  0.4831
  149OSM   H15F16572   0.712   1.536   3.642  0.7965  0.4973 -0.6384
  149OSM   H15G16573   0.635   1.661   3.723  0.6546 -2.2514  1.4372
  149OSM   C16F16574   0.844   1.653   3.778 -0.4122 -0.2653  0.2965
  149OSM   H16F16575   0.864   1.755   3.814  2.0429 -0.7090  0.3654
  149OSM   H16G16576   0.931   1.632   3.712 -0.1786 -0.7068  0.7425
  149OSM   C17F16577   0.825   1.558   3.898  0.1152 -0.0814 -0.1163
  149OSM   H17F16578   0.798   1.456   3.863  0.1786  0.8582 -3.2566
  149OSM   H17G16579   0.730   1.593   3.944  0.4718  2.2644 -1.0017
  149OSM   C18F16580   0.946   1.556   3.992  0.0987  0.8591  0.6557
  149OSM   H18F16581   0.939   1.489   4.081  0.5097 -1.5261 -0.9831
  149OSM   H18G16582   0.962   1.660   4.025 -0.3747  1.9206 -2.1336
  149OSM   H18H16583   1.035   1.522   3.934 -1.5367 -3.5114  0.3137
  150OSM      N16584   3.369   2.093   2.013 -0.0251 -0.1026 -0.5392
  150OSM    C1516585   3.395   2.146   1.876 -0.1227  0.0338 -0.2563
  150OSM   H15A16586   3.429   2.062   1.816 -0.7791 -0.6213  0.2641
  150OSM   H15B16587   3.469   2.224   1.888 -0.3964  0.1729  0.6764
  150OSM   H15C16588   3.316   2.193   1.821  0.5701  0.7147 -0.6866
  150OSM    C1416589   3.255   1.983   2.000 -0.3097 -0.3653  0.6286
  150OSM   H14A16590   3.202   1.955   2.090 -0.7101 -1.6600  0.0226
  150OSM   H14B16591   3.293   1.892   1.956 -1.9876 -1.5501  1.4879
  150OSM   H14C16592   3.174   2.021   1.940 -0.1609  1.0008  1.2658
  150OSM    C1316593   3.504   2.030   2.058  0.5527  0.2828 -0.6394
  150OSM   H13A16594   3.590   2.095   2.055 -0.7917  2.2162  0.7032
  150OSM   H13B16595   3.516   1.945   1.992 -2.4881  1.0942 -2.4509
  150OSM   H13C16596   3.502   1.998   2.161  3.4659  1.3272 -0.1618
  150OSM    C1216597   3.327   2.209   2.102  0.4419  0.5562 -0.2857
  150OSM   H12A16598   3.294   2.163   2.194  1.1832 -1.4586 -0.9689
  150OSM   H12B16599   3.231   2.248   2.071 -0.1538 -1.0053 -0.5321
  150OSM    C1116600   3.432   2.319   2.133 -0.1440 -0.4553 -0.0027
  150OSM   H11A16601   3.518   2.264   2.177 -0.6340  0.0718  1.6866
  150OSM   H11B16602   3.393   2.396   2.203  1.0427  1.1419 -1.0181
  150OSM      P16603   3.627   2.409   1.985 -0.3443  0.1812  0.1303
  150OSM    O1316604   3.683   2.270   1.993 -0.2285  0.1416  0.1152
  150OSM    O1416605   3.634   2.487   1.861 -0.3664  0.7198  0.1134
  150OSM    O1116606   3.684   2.497   2.104  0.1489  0.9707 -0.2297
  150OSM    O1216607   3.471   2.395   2.022  0.6374  0.1334 -0.0823
  150OSM    C1S16608   3.621   2.611   2.163 -0.3371  0.3901 -0.1217
  150OSM    H1S16609   3.510   2.608   2.154 -0.5998  1.6825  2.0014
  150OSM    H1T16610   3.657   2.705   2.115 -2.4561  0.6557 -1.3173
  150OSM     NF16611   3.564   2.726   2.375 -0.0457  0.7949  0.1338
  150OSM    HNF16612   3.600   2.816   2.400  1.3409  0.3509 -0.1422
  150OSM    C2S16613   3.656   2.631   2.312  0.6388 -0.9565  0.4347
  150OSM    H2S16614   3.635   2.531   2.355 -0.8352 -2.1857 -2.7861
  150OSM    C3S16615   3.808   2.658   2.327  1.0054 -0.5401 -0.1827
  150OSM    H3S16616   3.825   2.758   2.281  0.9430 -0.2460  0.4342
  150OSM     O316617   3.896   2.565   2.265  0.7048  0.1321 -0.0995
  150OSM    HO316618   3.837   2.517   2.208  1.8810 -1.7521  0.1832
  150OSM    C4S16619   3.849   2.691   2.466  0.2244  0.1056 -0.6768
  150OSM    H4S16620   3.870   2.798   2.480  0.2912  0.1197 -0.8831
  150OSM    C5S16621   3.885   2.606   2.566  0.0151  0.6747  0.4415
  150OSM    H5S16622   3.888   2.497   2.550  2.0458  0.5302  1.5586
  150OSM    C6S16623   3.937   2.648   2.698 -0.5654 -0.1384  1.1531
  150OSM    H6S16624   3.875   2.729   2.743  2.5504  1.2965  3.2398
  150OSM    H6T16625   4.029   2.702   2.671 -0.3132 -0.2860  1.6918
  150OSM    C7S16626   3.976   2.523   2.784  0.4725  0.4202  0.6386
  150OSM    H7S16627   4.050   2.459   2.732 -1.0492 -0.6814 -0.2537
  150OSM    H7T16628   3.880   2.468   2.793 -0.0094  1.0265 -0.6783
  150OSM    C8S16629   4.032   2.568   2.917  0.3380  0.3649 -0.6553
  150OSM    H8S16630   3.973   2.649   2.964  1.2058  1.6779 -1.7740
  150OSM    H8T16631   4.138   2.603   2.917  1.0493 -1.4514  1.8370
  150OSM    C9S16632   4.038   2.445   3.006  0.4821 -0.2376  0.0062
  150OSM    H9S16633   4.110   2.370   2.965  0.0714 -1.6147  1.6708
  150OSM    H9T16634   3.940   2.394   3.021  1.0059 -1.2828  0.0134
  150OSM   C10S16635   4.083   2.483   3.151 -0.1324 -0.1218 -0.3043
  150OSM   H10S16636   4.176   2.544   3.154 -0.7674  0.8229  2.3467
  150OSM   H10T16637   4.099   2.390   3.210 -0.7947  0.2535  0.4855
  150OSM   C11S16638   3.968   2.554   3.223 -0.1488  0.6844 -0.5875
  150OSM   H11S16639   3.864   2.536   3.188 -0.4769  0.6272  0.3907
  150OSM   H11T16640   3.990   2.662   3.209 -2.5994  1.0214 -2.5509
  150OSM   C12S16641   3.972   2.525   3.376  0.0545 -0.5073  0.6679
  150OSM   H12S16642   3.911   2.606   3.422 -0.8094 -0.0251 -1.2184
  150OSM   H12T16643   4.076   2.534   3.415  0.5743 -0.8019 -0.6208
  150OSM   C13S16644   3.910   2.393   3.427  0.2144 -0.6319 -0.2334
  150OSM   H13S16645   3.960   2.317   3.365 -1.4846  0.5355 -3.2574
  150OSM   H13T16646   3.801   2.397   3.404  0.4754  3.1033 -1.5086
  150OSM   C14S16647   3.939   2.370   3.579 -0.3125 -0.6686 -0.3792
  150OSM   H14S16648   4.049   2.364   3.595 -0.4285 -1.9134  0.0446
  150OSM   H14T16649   3.905   2.268   3.608 -3.8182 -0.0378 -1.7917
  150OSM   C15S16650   3.866   2.466   3.680  0.6074  0.1547  0.3125
  150OSM   H15S16651   3.758   2.444   3.668  0.6007  0.9150 -1.2725
  150OSM   H15T16652   3.889   2.574   3.663 -1.9497  0.7798  0.3557
  150OSM   C16S16653   3.894   2.438   3.832  0.3836 -0.0788 -1.6325
  150OSM   H16S16654   3.992   2.485   3.857 -0.4920  1.9101 -1.6884
  150OSM   H16T16655   3.898   2.329   3.850 -2.0611 -0.2263 -1.7447
  150OSM   C17S16656   3.794   2.490   3.946  0.5148 -1.0175 -0.4444
  150OSM   H17S16657   3.697   2.437   3.948  0.9357 -1.9403 -2.0551
  150OSM   H17T16658   3.768   2.592   3.908  0.6502 -0.9574 -0.3781
  150OSM   C18S16659   3.858   2.502   4.080  0.3196  0.7953 -0.0931
  150OSM   H18S16660   3.802   2.575   4.143  1.9369  2.8463 -0.9002
  150OSM   H18T16661   3.960   2.546   4.069 -0.2931  2.4029  0.3854
  150OSM   H18U16662   3.866   2.405   4.132 -1.4337  0.9343  0.5009
  150OSM    C1F16663   3.434   2.694   2.406 -0.2544 -0.0727 -0.0063
  150OSM     OF16664   3.391   2.583   2.382  0.4580  0.3250  0.3474
  150OSM    C2F16665   3.359   2.804   2.474 -0.1994 -0.4363  0.4717
  150OSM    H2F16666   3.290   2.845   2.397  0.5631 -0.4409 -0.2328
  150OSM    H2G16667   3.443   2.875   2.489 -0.0218 -0.1938 -1.4231
  150OSM    C3F16668   3.289   2.761   2.606  0.0143 -0.0325 -0.3161
  150OSM    H3F16669   3.209   2.688   2.580 -1.2342  0.8998  0.7733
  150OSM    H3G16670   3.252   2.855   2.650  0.1507 -1.0379  2.0801
  150OSM    C4F16671   3.371   2.686   2.715 -0.6853 -0.2150 -0.2179
  150OSM    H4F16672   3.422   2.601   2.664  1.1455  0.4080  0.4788
  150OSM    H4G16673   3.303   2.653   2.796 -0.8369 -0.3008 -0.3788
  150OSM    C5F16674   3.481   2.771   2.794 -0.0918  0.2264  0.5050
  150OSM    H5F16675   3.530   2.842   2.723 -1.0860  0.3543 -0.0695
  150OSM    H5G16676   3.555   2.703   2.841  1.1557  0.7023 -0.6910
  150OSM    C6F16677   3.401   2.862   2.898 -0.6523 -0.1632 -0.7225
  150OSM    H6F16678   3.350   2.794   2.969 -1.0048  0.0043 -0.8116
  150OSM    H6G16679   3.321   2.914   2.841 -0.7958 -1.0720 -1.3728
  150OSM    C7F16680   3.489   2.966   2.979 -0.3489 -0.0049 -0.7388
  150OSM    H7F16681   3.424   3.018   3.053 -1.6577 -2.6920  0.1433
  150OSM    H7G16682   3.527   3.043   2.909 -1.4758 -0.8482 -2.3557
  150OSM    C8F16683   3.604   2.900   3.055  0.1108  0.2348  0.2684
  150OSM    H8F16684   3.680   2.868   2.981 -1.7545 -1.4641 -1.0626
  150OSM    H8G16685   3.573   2.802   3.098  1.7967 -0.8375 -0.8366
  150OSM    C9F16686   3.657   2.991   3.163  0.7257  0.1834 -0.5324
  150OSM    H9F16687   3.662   3.097   3.134 -0.7949  0.8702  1.4951
  150OSM   C10F16688   3.674   2.968   3.295  0.0749 -0.3868 -0.1477
  150OSM   H10F16689   3.712   3.051   3.355 -0.5764 -1.0199  1.2031
  150OSM   C11F16690   3.663   2.825   3.361 -0.0236 -0.1770 -0.2145
  150OSM   H11F16691   3.666   2.742   3.287  1.6191  0.8641 -1.3989
  150OSM   H11G16692   3.566   2.808   3.412  0.6795  0.3719  1.3897
  150OSM   C12F16693   3.765   2.796   3.468 -0.3923 -0.5392  0.5732
  150OSM   H12F16694   3.866   2.788   3.422 -0.0616 -0.1045  1.2173
  150OSM   H12G16695   3.749   2.698   3.519 -0.2549 -0.3796  0.9256
  150OSM   C13F16696   3.774   2.906   3.580 -0.5610 -0.3927  0.7115
  150OSM   H13F16697   3.675   2.941   3.613 -0.0900 -0.4041  2.1945
  150OSM   H13G16698   3.820   2.995   3.531 -2.2248 -0.1606 -0.5003
  150OSM   C14F16699   3.849   2.859   3.707 -0.0487 -0.2579  0.9118
  150OSM   H14F16700   3.807   2.765   3.750 -1.1211 -0.5740 -0.7395
  150OSM   H14G16701   3.844   2.943   3.779  0.7382  0.0866  0.5719
  150OSM   C15F16702   4.000   2.826   3.690  0.3449 -0.0160 -0.0616
  150OSM   H15F16703   4.056   2.903   3.633  0.4655  0.2807  0.4528
  150OSM   H15G16704   4.006   2.748   3.611  0.8519  0.4468 -0.4945
  150OSM   C16F16705   4.075   2.788   3.821  0.8704  0.3243 -0.0689
  150OSM   H16F16706   4.017   2.720   3.888  0.1174  2.1120  1.1759
  150OSM   H16G16707   4.072   2.887   3.871  0.4226  1.4624 -2.2373
  150OSM   C17F16708   4.219   2.751   3.795  0.0286  0.5708 -0.9609
  150OSM   H17F16709   4.271   2.823   3.730  0.0629  1.1211 -0.3332
  150OSM   H17G16710   4.227   2.653   3.743  1.0545 -1.1976  2.2718
  150OSM   C18F16711   4.295   2.727   3.924 -0.1764 -0.4506 -0.4595
  150OSM   H18F16712   4.299   2.819   3.986 -0.5044  0.7927 -2.2180
  150OSM   H18G16713   4.398   2.687   3.909  0.1400 -0.7340  2.1132
  150OSM   H18H16714   4.251   2.634   3.966 -0.0138 -1.7113 -2.9100
  151OSM      N16715   3.340   1.518   1.670 -0.5572  0.0714  0.2814
  151OSM    C1516716   3.352   1.378   1.616 -0.3325 -0.0451  0.2744
  151OSM   H15A16717   3.384   1.376   1.513  1.6347 -2.8599  0.8061
  151OSM   H15B16718   3.265   1.314   1.619  1.4673 -2.6363  1.3755
  151OSM   H15C16719   3.422   1.325   1.679  0.4398 -2.0528 -2.1075
  151OSM    C1416720   3.471   1.583   1.686  0.5268 -0.0708  0.0056
  151OSM   H14A16721   3.458   1.686   1.716 -0.3063 -0.0839 -0.2869
  151OSM   H14B16722   3.531   1.584   1.596 -0.6755 -0.7987 -0.8322
  151OSM   H14C16723   3.529   1.542   1.769 -1.0793 -0.9225  0.7564
  151OSM    C1316724   3.272   1.614   1.574 -0.3002  0.3444 -0.4650
  151OSM   H13A16725   3.249   1.700   1.636  2.2738 -0.7436  2.2007
  151OSM   H13B16726   3.176   1.575   1.543 -1.1683  0.3737  1.9785
  151OSM   H13C16727   3.337   1.646   1.494  0.6968 -0.3618  0.0401
  151OSM    C1216728   3.264   1.520   1.798 -0.0512 -0.4123 -0.2189
  151OSM   H12A16729   3.327   1.471   1.870  1.0015  0.8462 -0.2546
  151OSM   H12B16730   3.176   1.460   1.779 -0.3570 -0.6275  1.6501
  151OSM    C1116731   3.223   1.652   1.868  0.2893 -0.1513  0.5667
  151OSM   H11A16732   3.145   1.630   1.944  2.2438 -0.8040  2.4878
  151OSM   H11B16733   3.175   1.722   1.796 -1.8692 -1.2590  0.8506
  151OSM      P16734   3.395   1.643   2.062  0.1952 -0.3822  0.2825
  151OSM    O1316735   3.491   1.545   2.011  0.1339  0.2960 -0.0582
  151OSM    O1416736   3.450   1.751   2.149  0.4787  0.7686  0.6139
  151OSM    O1116737   3.276   1.566   2.119 -0.2467  0.6020 -0.2713
  151OSM    O1216738   3.332   1.710   1.934  0.0318 -0.0165  0.0508
  151OSM    C1S16739   3.286   1.495   2.250 -0.1070 -0.5650  0.4439
  151OSM    H1S16740   3.386   1.484   2.296 -0.5182  0.2405  1.5598
  151OSM    H1T16741   3.264   1.388   2.227  1.5461 -0.5345 -1.6024
  151OSM     NF16742   3.162   1.450   2.464  0.2162  0.4044  0.5106
  151OSM    HNF16743   3.089   1.383   2.448 -0.1427  1.2033 -1.5381
  151OSM    C2S16744   3.183   1.548   2.354  0.0808  0.3835  0.1526
  151OSM    H2S16745   3.221   1.641   2.402  0.2600  1.8833 -2.6740
  151OSM    C3S16746   3.046   1.594   2.301  0.2811 -0.6049 -0.1979
  151OSM    H3S16747   2.987   1.503   2.276 -0.6228  0.0678 -0.5441
  151OSM     O316748   3.043   1.671   2.181  0.1621 -0.5041  0.0487
  151OSM    HO316749   3.136   1.665   2.155  0.2969  0.7886  0.1554
  151OSM    C4S16750   2.959   1.659   2.405 -0.0609 -0.5271 -0.3710
  151OSM    H4S16751   2.883   1.596   2.453 -0.5740 -0.0134 -0.4931
  151OSM    C5S16752   2.955   1.788   2.439  0.4736 -0.1207 -0.1226
  151OSM    H5S16753   3.026   1.859   2.394 -0.2292  0.5289 -0.2241
  151OSM    C6S16754   2.856   1.846   2.542  0.6686 -0.2598 -0.2136
  151OSM    H6S16755   2.755   1.857   2.497  0.3486 -1.2623  0.2261
  151OSM    H6T16756   2.880   1.950   2.573 -2.0176  0.1064  0.8920
  151OSM    C7S16757   2.872   1.778   2.677 -0.0751 -0.1307 -0.1865
  151OSM    H7S16758   2.969   1.800   2.727 -0.6221 -1.4444  1.5838
  151OSM    H7T16759   2.866   1.667   2.675  1.0389 -0.2964  2.0728
  151OSM    C8S16760   2.780   1.837   2.786  0.3139  0.3212  0.0780
  151OSM    H8S16761   2.677   1.809   2.755  0.0573  2.6280 -1.3827
  151OSM    H8T16762   2.790   1.947   2.795 -0.4556  0.4044 -0.0417
  151OSM    C9S16763   2.803   1.766   2.921 -0.2775  0.1163 -0.1294
  151OSM    H9S16764   2.906   1.789   2.956 -1.1910  3.1234  0.9291
  151OSM    H9T16765   2.783   1.660   2.898 -2.5995  0.4329  0.2140
  151OSM   C10S16766   2.689   1.808   3.018  0.1207 -0.1593 -0.2878
  151OSM   H10S16767   2.599   1.746   2.994 -1.0707  1.5012 -0.3169
  151OSM   H10T16768   2.675   1.917   3.000  0.3061 -0.1047 -0.1032
  151OSM   C11S16769   2.718   1.796   3.166 -0.4566  0.6257 -0.8552
  151OSM   H11S16770   2.807   1.856   3.194  0.3783 -0.4971 -1.0164
  151OSM   H11T16771   2.745   1.690   3.184  0.9370  0.3999 -3.7385
  151OSM   C12S16772   2.609   1.831   3.272 -0.1370 -0.3192  0.0700
  151OSM   H12S16773   2.515   1.775   3.254 -0.0936 -0.4536  0.2494
  151OSM   H12T16774   2.599   1.941   3.266  1.1074 -0.0330  2.2485
  151OSM   C13S16775   2.668   1.794   3.414 -0.3652  0.9801  0.7085
  151OSM   H13S16776   2.748   1.866   3.440  0.8165  0.1428 -0.4827
  151OSM   H13T16777   2.705   1.690   3.412  3.7060  2.2515  0.7541
  151OSM   C14S16778   2.561   1.819   3.531  0.8416 -0.0740  0.3095
  151OSM   H14S16779   2.458   1.796   3.498 -0.2869  1.7872  2.2894
  151OSM   H14T16780   2.570   1.927   3.559 -0.0347  0.6183 -1.8779
  151OSM   C15S16781   2.584   1.737   3.658  0.5160 -0.1227 -0.0719
  151OSM   H15S16782   2.680   1.757   3.711  0.3607  1.1723 -0.2489
  151OSM   H15T16783   2.589   1.633   3.619  2.0044  0.2878 -1.0453
  151OSM   C16S16784   2.469   1.745   3.760  0.3642 -0.0788 -0.0472
  151OSM   H16S16785   2.398   1.661   3.749 -0.9294  1.1718 -1.9426
  151OSM   H16T16786   2.394   1.821   3.731 -3.1596 -1.3344  4.5358
  151OSM   C17S16787   2.494   1.777   3.908  0.5179 -0.7329  0.5598
  151OSM   H17S16788   2.540   1.878   3.907  1.6568 -1.2383  0.2528
  151OSM   H17T16789   2.562   1.695   3.939  2.8753  0.7872 -0.3745
  151OSM   C18S16790   2.379   1.759   4.011  0.8066 -0.2746 -0.1725
  151OSM   H18S16791   2.416   1.800   4.107 -0.4490 -0.0044  0.2077
  151OSM   H18T16792   2.349   1.654   4.027 -0.3641 -0.0486 -0.7535
  151OSM   H18U16793   2.295   1.822   3.976  1.7007  0.2665 -1.4510
  151OSM    C1F16794   3.263   1.430   2.548 -0.0180 -0.7317  0.2997
  151OSM     OF16795   3.368   1.500   2.546  0.6661  0.3029  0.4511
  151OSM    C2F16796   3.251   1.316   2.643  0.1504 -0.0524  0.0416
  151OSM    H2F16797   3.271   1.222   2.588 -0.5764 -0.7291  0.9106
  151OSM    H2G16798   3.147   1.302   2.679 -0.4689  1.5470 -1.0158
  151OSM    C3F16799   3.345   1.308   2.762 -0.7873 -0.0732  0.0904
  151OSM    H3F16800   3.299   1.374   2.840 -2.3099 -1.5096  0.4626
  151OSM    H3G16801   3.448   1.344   2.742  0.9201 -3.6296  1.6255
  151OSM    C4F16802   3.362   1.169   2.819 -0.1919 -0.0771 -0.2259
  151OSM    H4F16803   3.401   1.095   2.746 -3.1755  0.1872 -2.2694
  151OSM    H4G16804   3.265   1.142   2.865  0.3968  0.2164  1.2609
  151OSM    C5F16805   3.474   1.176   2.920 -0.4473  0.3129 -0.3620
  151OSM    H5F16806   3.550   1.247   2.883  0.2443 -0.1002  0.2379
  151OSM    H5G16807   3.531   1.081   2.930  1.8737  1.7180  0.5146
  151OSM    C6F16808   3.440   1.244   3.062 -0.5692 -0.1354 -0.0898
  151OSM    H6F16809   3.367   1.178   3.113  1.3085 -2.1267  0.1669
  151OSM    H6G16810   3.397   1.346   3.057 -0.7740 -0.1061  1.7714
  151OSM    C7F16811   3.565   1.260   3.150 -0.4030 -0.1195 -0.6273
  151OSM    H7F16812   3.622   1.340   3.097  1.7478 -0.5145  0.9427
  151OSM    H7G16813   3.628   1.169   3.152 -0.3736 -0.0895  0.9254
  151OSM    C8F16814   3.520   1.331   3.283 -0.2882 -0.4442  0.4499
  151OSM    H8F16815   3.426   1.388   3.266 -0.5131 -0.8379  0.3743
  151OSM    H8G16816   3.610   1.391   3.308 -0.4423 -0.6953  1.6404
  151OSM    C9F16817   3.499   1.239   3.398 -0.7573  0.0532 -0.2488
  151OSM    H9F16818   3.421   1.162   3.390  0.4379 -1.3383  0.9284
  151OSM   C10F16819   3.571   1.238   3.513 -0.3447 -0.0230  0.3789
  151OSM   H10F16820   3.536   1.172   3.594  2.6730 -1.5080  0.6212
  151OSM   C11F16821   3.685   1.328   3.559  0.0007  0.4553 -0.1918
  151OSM   H11F16822   3.703   1.412   3.489 -0.1601 -1.0208 -2.1067
  151OSM   H11G16823   3.782   1.274   3.554  1.6041  3.2654 -1.1729
  151OSM   C12F16824   3.680   1.376   3.704  0.1114 -0.4119  0.8174
  151OSM   H12F16825   3.776   1.426   3.726 -0.9239  2.1074 -0.0615
  151OSM   H12G16826   3.655   1.292   3.773 -0.4108 -0.4516  0.5871
  151OSM   C13F16827   3.585   1.498   3.726  0.3556  0.4817  0.8631
  151OSM   H13F16828   3.487   1.450   3.704  0.1493  1.3555 -0.2053
  151OSM   H13G16829   3.604   1.572   3.645  0.8108 -3.4397 -2.9514
  151OSM   C14F16830   3.586   1.564   3.862 -0.2213  0.1405  0.0722
  151OSM   H14F16831   3.539   1.665   3.865  3.6387  2.0832  1.1609
  151OSM   H14G16832   3.693   1.588   3.879  0.0116  1.4386 -2.6321
  151OSM   C15F16833   3.522   1.476   3.972  0.3212  0.8783 -0.4954
  151OSM   H15F16834   3.590   1.392   3.997 -2.5228 -1.4379  0.0643
  151OSM   H15G16835   3.420   1.437   3.948 -0.1434  1.1795  0.8760
  151OSM   C16F16836   3.501   1.550   4.103 -0.0040 -0.0275 -0.0644
  151OSM   H16F16837   3.428   1.632   4.086  0.7606  0.7382  0.2836
  151OSM   H16G16838   3.599   1.579   4.146 -0.1943  2.5652 -1.2053
  151OSM   C17F16839   3.434   1.471   4.211 -0.1783 -0.2893  0.3288
  151OSM   H17F16840   3.507   1.393   4.240  0.0959  0.3822  1.5380
  151OSM   H17G16841   3.339   1.427   4.172 -0.8129  0.6925  0.7056
  151OSM   C18F16842   3.382   1.555   4.327 -0.1721 -0.0735 -0.1914
  151OSM   H18F16843   3.308   1.632   4.296  0.5830  0.2018 -1.3610
  151OSM   H18G16844   3.460   1.606   4.388 -1.8932  2.9086 -0.2582
  151OSM   H18H16845   3.318   1.493   4.394 -1.3302 -0.4360 -1.5755
  152OSM      N16846   6.316   2.017   2.004 -0.5857  0.9302 -0.3394
  152OSM    C1516847   6.168   2.010   1.988  0.4630 -0.5400 -0.6456
  152OSM   H15A16848   6.134   1.962   1.897 -1.5929  0.1099 -0.2693
  152OSM   H15B16849   6.134   2.112   1.990  1.3344 -0.2546 -0.3161
  152OSM   H15C16850   6.128   1.964   2.078 -1.7496  0.6832 -0.9240
  152OSM    C1416851   6.376   1.879   2.005  0.7874 -0.2829  0.2708
  152OSM   H14A16852   6.351   1.834   1.910  0.0034 -3.3888  1.8140
  152OSM   H14B16853   6.326   1.819   2.080 -0.4580 -1.5225 -1.4675
  152OSM   H14C16854   6.483   1.872   2.018  0.7997 -3.6244 -0.7222
  152OSM    C1316855   6.349   2.100   1.882  0.1830 -0.2527  0.3371
  152OSM   H13A16856   6.309   2.065   1.788 -0.4171 -0.3397  0.6195
  152OSM   H13B16857   6.457   2.092   1.877  0.1212 -1.0605  0.3108
  152OSM   H13C16858   6.307   2.199   1.890  1.8988  0.7793 -1.9958
  152OSM    C1216859   6.353   2.092   2.124 -0.3632 -0.8576  0.1480
  152OSM   H12A16860   6.318   2.044   2.215  0.9858  0.4822  1.4459
  152OSM   H12B16861   6.300   2.186   2.122  0.0761 -0.6260 -1.5208
  152OSM    C1116862   6.497   2.142   2.138  0.1190  0.6580 -0.3263
  152OSM   H11A16863   6.567   2.067   2.097  0.1886  0.9341 -0.7133
  152OSM   H11B16864   6.527   2.155   2.244 -0.2262  0.3960 -0.1909
  152OSM      P16865   6.654   2.334   2.048  0.0850  0.1440 -0.1643
  152OSM    O1316866   6.701   2.303   1.913 -0.1765 -0.3571 -0.2600
  152OSM    O1416867   6.636   2.479   2.081  0.1458 -0.1281  0.3791
  152OSM    O1116868   6.746   2.263   2.158  0.2285 -0.1468 -0.3014
  152OSM    O1216869   6.506   2.261   2.065 -0.2759  0.0689  0.1200
  152OSM    C1S16870   6.726   2.311   2.296 -0.0354  0.3996 -1.2028
  152OSM    H1S16871   6.627   2.358   2.317 -0.3414 -0.7752  0.1201
  152OSM    H1T16872   6.797   2.392   2.319 -1.8037  2.0231 -1.1836
  152OSM     NF16873   6.703   2.245   2.530  0.0692  0.0471 -0.5246
  152OSM    HNF16874   6.773   2.250   2.601  1.4313  1.2899 -1.8692
  152OSM    C2S16875   6.751   2.204   2.399 -0.8358  0.3387 -0.3419
  152OSM    H2S16876   6.691   2.114   2.375  0.1599 -0.2802 -0.5298
  152OSM    C3S16877   6.898   2.158   2.399 -0.0818  0.1334  0.2028
  152OSM    H3S16878   6.971   2.230   2.442 -2.0326  2.2401  0.1677
  152OSM     O316879   6.947   2.146   2.265  0.4442  0.8597  0.0480
  152OSM    HO316880   6.887   2.199   2.212 -1.1646 -0.8726  0.0219
  152OSM    C4S16881   6.931   2.027   2.467  0.3390 -0.8640 -0.2717
  152OSM    H4S16882   6.863   1.944   2.440 -1.5236  0.4910  0.0747
  152OSM    C5S16883   7.016   2.012   2.569 -0.1955  0.3671  0.8264
  152OSM    H5S16884   7.059   2.102   2.615  0.7064  0.9484 -1.0482
  152OSM    C6S16885   7.045   1.877   2.634 -0.5238 -0.3176 -0.7262
  152OSM    H6S16886   7.122   1.817   2.581  1.8584  0.2369  1.8298
  152OSM    H6T16887   6.951   1.820   2.652 -1.3995  1.2558 -0.1355
  152OSM    C7S16888   7.074   1.902   2.781  0.0867 -0.0517  0.2717
  152OSM    H7S16889   6.979   1.941   2.824  0.0086  0.4334 -0.3258
  152OSM    H7T16890   7.156   1.976   2.792  0.7728 -0.5721 -1.0700
  152OSM    C8S16891   7.110   1.783   2.863  0.0939 -0.1144  0.5476
  152OSM    H8S16892   7.213   1.756   2.831  0.5044  0.0556  1.7001
  152OSM    H8T16893   7.060   1.687   2.837 -0.1445 -0.4347  2.1051
  152OSM    C9S16894   7.124   1.816   3.018  0.2188  0.3869  0.4858
  152OSM    H9S16895   7.030   1.861   3.056 -0.8096 -1.4591  0.2657
  152OSM    H9T16896   7.202   1.894   3.027  0.0514  0.7981 -1.2856
  152OSM   C10S16897   7.171   1.703   3.103 -0.1039 -0.1852  0.4004
  152OSM   H10S16898   7.253   1.636   3.069 -0.9951  0.7140 -4.2358
  152OSM   H10T16899   7.094   1.623   3.094 -0.7688  0.4889 -0.0567
  152OSM   C11S16900   7.177   1.737   3.247 -0.2194  0.3405  0.0395
  152OSM   H11S16901   7.098   1.811   3.273  1.5088  2.1649  0.3235
  152OSM   H11T16902   7.272   1.793   3.262 -1.1846  1.5379  2.2223
  152OSM   C12S16903   7.185   1.611   3.330  0.2559 -0.2836 -0.5830
  152OSM   H12S16904   7.278   1.550   3.321  0.3742 -0.3122  0.6822
  152OSM   H12T16905   7.096   1.550   3.304 -1.5608  1.7777  0.4742
  152OSM   C13S16906   7.170   1.647   3.476  0.7175  0.0919 -0.3622
  152OSM   H13S16907   7.070   1.692   3.495  1.5337  2.1830 -0.6804
  152OSM   H13T16908   7.236   1.736   3.484  2.3676 -0.8865 -2.3202
  152OSM   C14S16909   7.200   1.542   3.570  0.0978  0.2118 -0.1860
  152OSM   H14S16910   7.285   1.478   3.536 -1.4407 -2.6070  0.8982
  152OSM   H14T16911   7.115   1.470   3.573  2.4714 -2.7438  1.1179
  152OSM   C15S16912   7.228   1.608   3.708 -0.1619  0.3432 -0.7958
  152OSM   H15S16913   7.130   1.636   3.751  1.7051  0.5793  3.9228
  152OSM   H15T16914   7.297   1.694   3.715  1.2264 -0.8324  1.0601
  152OSM   C16S16915   7.274   1.502   3.807 -0.6609 -0.2473 -0.0838
  152OSM   H16S16916   7.361   1.457   3.755 -1.3523 -1.5915 -0.1104
  152OSM   H16T16917   7.188   1.432   3.816 -1.4570  0.5733 -1.0729
  152OSM   C17S16918   7.302   1.551   3.952  0.1563  0.2211 -0.4853
  152OSM   H17S16919   7.207   1.573   4.005  1.1312  1.0199  0.9906
  152OSM   H17T16920   7.368   1.640   3.966  1.5721 -0.9365  0.4251
  152OSM   C18S16921   7.366   1.446   4.039 -0.1225 -0.0648  0.6898
  152OSM   H18S16922   7.470   1.435   4.001 -0.9045 -0.7924 -1.3385
  152OSM   H18T16923   7.330   1.343   4.023  2.5272 -0.9136 -0.4407
  152OSM   H18U16924   7.355   1.467   4.148 -3.4031  2.0830  0.0834
  152OSM    C1F16925   6.578   2.288   2.561  0.1334  0.3904 -0.0965
  152OSM     OF16926   6.485   2.263   2.485 -0.5255 -0.2778  0.3061
  152OSM    C2F16927   6.561   2.359   2.685  0.0955  0.4521  0.1840
  152OSM    H2F16928   6.528   2.461   2.654 -3.3369 -0.7218 -0.4564
  152OSM    H2G16929   6.658   2.368   2.739  1.1677  1.1244 -1.7353
  152OSM    C3F16930   6.453   2.289   2.773  0.0410  0.1148  0.6553
  152OSM    H3F16931   6.509   2.197   2.802 -0.2978 -0.1722  0.4142
  152OSM    H3G16932   6.357   2.262   2.725 -1.2015  1.9097  2.0112
  152OSM    C4F16933   6.421   2.372   2.896  0.3073  0.2475  0.7777
  152OSM    H4F16934   6.352   2.457   2.881  1.8413  1.5887  1.1344
  152OSM    H4G16935   6.509   2.430   2.930 -0.7935  3.3526 -1.3060
  152OSM    C5F16936   6.361   2.296   3.019  0.0369 -0.5465  0.5104
  152OSM    H5F16937   6.411   2.197   3.031 -0.5678 -1.0192 -0.7454
  152OSM    H5G16938   6.253   2.288   2.996  0.1068  1.3924 -0.6845
  152OSM    C6F16939   6.368   2.381   3.147  0.2163 -0.6225  0.3637
  152OSM    H6F16940   6.291   2.340   3.216 -0.4123 -2.1138 -1.1717
  152OSM    H6G16941   6.356   2.488   3.119  2.1869 -0.9179 -2.0122
  152OSM    C7F16942   6.507   2.360   3.217  0.0125 -0.0774  0.1207
  152OSM    H7F16943   6.596   2.381   3.154 -1.2010 -0.1992 -1.7193
  152OSM    H7G16944   6.508   2.257   3.259 -1.4348 -0.6616 -1.1366
  152OSM    C8F16945   6.531   2.456   3.334 -0.2076  0.2931 -0.4973
  152OSM    H8F16946   6.441   2.447   3.400 -0.0167 -1.8546 -0.4620
  152OSM    H8G16947   6.544   2.559   3.296 -0.7958  0.0000 -1.5348
  152OSM    C9F16948   6.655   2.424   3.419 -0.0002 -0.1166  0.7890
  152OSM    H9F16949   6.751   2.425   3.364 -1.1694  0.7405 -1.3514
  152OSM   C10F16950   6.665   2.401   3.551  0.0904  0.1211  0.1840
  152OSM   H10F16951   6.764   2.407   3.597  0.4569  1.1702 -0.6973
  152OSM   C11F16952   6.559   2.409   3.652  0.3700  0.5099 -0.7086
  152OSM   H11F16953   6.520   2.306   3.669 -0.6080  1.1242  1.1549
  152OSM   H11G16954   6.475   2.468   3.610  0.0461  0.5950  0.0281
  152OSM   C12F16955   6.586   2.473   3.790  0.4020 -0.2935  0.3595
  152OSM   H12F16956   6.482   2.481   3.830 -0.2517  1.9472 -1.5365
  152OSM   H12G16957   6.624   2.575   3.767 -3.0268  0.4024 -3.4381
  152OSM   C13F16958   6.666   2.394   3.887  0.5059  0.1652  0.5548
  152OSM   H13F16959   6.766   2.375   3.843  0.5037  0.1147  0.5704
  152OSM   H13G16960   6.618   2.298   3.914  0.5470  0.0303  0.1508
  152OSM   C14F16961   6.696   2.469   4.019 -0.1473 -0.0064  0.3081
  152OSM   H14F16962   6.603   2.471   4.080  0.0871 -0.7539  0.7005
  152OSM   H14G16963   6.717   2.575   3.992 -0.0225  0.5539  2.4263
  152OSM   C15F16964   6.808   2.412   4.105 -0.5209 -0.2916 -0.0738
  152OSM   H15F16965   6.899   2.414   4.042  0.1606 -0.0485  0.8925
  152OSM   H15G16966   6.793   2.305   4.131  2.5448 -0.4091  1.7087
  152OSM   C16F16967   6.842   2.488   4.236  0.1220 -0.0943 -0.1974
  152OSM   H16F16968   6.746   2.482   4.292  0.7041  0.4133  0.9016
  152OSM   H16G16969   6.872   2.595   4.228  1.9497 -0.2484  2.8624
  152OSM   C17F16970   6.965   2.426   4.316  0.8315 -0.5155 -0.0735
  152OSM   H17F16971   7.042   2.440   4.237  0.8235  0.9965  0.1627
  152OSM   H17G16972   6.940   2.321   4.342 -1.0952 -0.0807 -0.0170
  152OSM   C18F16973   7.005   2.515   4.431 -0.1112 -0.3022 -0.1929
  152OSM   H18F16974   7.027   2.621   4.409 -1.7442 -0.1570 -1.3167
  152OSM   H18G16975   7.098   2.474   4.477 -0.5035 -0.6974  0.2640
  152OSM   H18H16976   6.934   2.519   4.516  0.3591 -1.0966  0.2513
  153OSM      N16977   0.807   2.537   2.101 -0.6390 -0.5151  0.3153
  153OSM    C1516978   0.757   2.675   2.082  0.7589  0.3702  0.1472
  153OSM   H15A16979   0.812   2.742   2.018 -1.1793  0.7002 -1.2514
  153OSM   H15B16980   0.729   2.718   2.177 -0.8073  0.3866 -0.2961
  153OSM   H15C16981   0.665   2.664   2.028  1.0866  1.1958 -0.6064
  153OSM    C1416982   0.703   2.452   2.165  0.9069 -0.4366 -0.0401
  153OSM   H14A16983   0.613   2.443   2.107  0.3380  0.1049  0.7402
  153OSM   H14B16984   0.669   2.497   2.257 -0.0539 -1.9265  0.3661
  153OSM   H14C16985   0.736   2.350   2.181  0.0758 -0.2574  3.7977
  153OSM    C1316986   0.818   2.469   1.959  0.3877  0.4950  0.2238
  153OSM   H13A16987   0.873   2.529   1.887 -2.2064  2.1518 -0.5039
  153OSM   H13B16988   0.718   2.456   1.921  0.1471 -1.3448  1.3681
  153OSM   H13C16989   0.871   2.375   1.963 -1.1350 -0.4637 -1.0855
  153OSM    C1216990   0.933   2.517   2.182 -0.1093 -0.5225  0.0197
  153OSM   H12A16991   0.962   2.414   2.174  1.0785 -0.1199 -1.2242
  153OSM   H12B16992   0.921   2.531   2.288 -1.4325 -1.4813  0.0247
  153OSM    C1116993   1.061   2.589   2.138 -0.4527 -0.0955 -1.2030
  153OSM   H11A16994   1.118   2.606   2.232 -0.1043 -0.0859 -1.4159
  153OSM   H11B16995   1.040   2.690   2.096  1.9439  0.4153 -1.2886
  153OSM      P16996   1.218   2.390   2.095  0.2319  0.0624  0.1879
  153OSM    O1316997   1.127   2.287   2.153 -0.1085 -0.3015 -0.1187
  153OSM    O1416998   1.317   2.342   1.997 -0.4390 -0.2620  0.3611
  153OSM    O1116999   1.298   2.454   2.211 -0.6494  0.7739 -0.3402
  153OSM    O1217000   1.131   2.511   2.043 -0.4865 -0.2227 -0.2689
  153OSM    C1S17001   1.392   2.568   2.184 -0.4978  0.7552  1.2867
  153OSM    H1S17002   1.333   2.648   2.133  0.5438 -0.4769 -2.1927
  153OSM    H1T17003   1.477   2.530   2.123 -0.5640  2.3119  0.1706
  153OSM     NF17004   1.477   2.777   2.314  1.4387  0.3199  0.1062
  153OSM    HNF17005   1.575   2.793   2.312  1.3575  1.3953  2.1007
  153OSM    C2S17006   1.433   2.637   2.325  0.0681  0.0712 -0.2821
  153OSM    H2S17007   1.341   2.630   2.387  1.7514 -0.3118  2.3491
  153OSM    C3S17008   1.528   2.535   2.389 -0.4795  0.1065 -0.1784
  153OSM    H3S17009   1.618   2.527   2.324 -0.2882 -0.8348  0.1772
  153OSM     O317010   1.472   2.407   2.407  0.2190 -0.3321  0.3045
  153OSM    HO317011   1.391   2.419   2.356  1.2306 -0.5373 -1.4375
  153OSM    C4S17012   1.578   2.579   2.521  0.3561 -0.0217 -0.8285
  153OSM    H4S17013   1.524   2.555   2.614  0.4802  3.4214  0.2623
  153OSM    C5S17014   1.693   2.640   2.547  0.3654 -0.3955  0.6669
  153OSM    H5S17015   1.760   2.652   2.460  0.7090 -1.4482  0.7617
  153OSM    C6S17016   1.730   2.672   2.692 -0.1071 -0.4022  0.4090
  153OSM    H6S17017   1.728   2.584   2.760 -0.4757 -0.8407 -0.1558
  153OSM    H6T17018   1.661   2.749   2.732 -0.5528  0.2590 -1.5239
  153OSM    C7S17019   1.872   2.731   2.698 -0.2488  0.5949  0.3438
  153OSM    H7S17020   1.871   2.828   2.644  2.4557  1.6359  1.9357
  153OSM    H7T17021   1.938   2.648   2.666 -0.9365 -1.7379  4.2761
  153OSM    C8S17022   1.907   2.769   2.843  0.0316 -0.6655  0.0260
  153OSM    H8S17023   1.821   2.806   2.902 -0.7315 -1.3144 -0.6579
  153OSM    H8T17024   1.973   2.857   2.828 -1.5149  0.4954 -0.1145
  153OSM    C9S17025   1.978   2.661   2.933 -0.5047  0.3565  0.9588
  153OSM    H9S17026   2.083   2.697   2.926 -0.4261  0.0187  0.3685
  153OSM    H9T17027   1.972   2.559   2.890  1.0212  0.2681  0.8880
  153OSM   C10S17028   1.916   2.661   3.075 -0.1033  0.3077  0.0178
  153OSM   H10S17029   1.808   2.640   3.058 -0.1649  1.6685 -1.4916
  153OSM   H10T17030   1.932   2.760   3.121 -1.1687  1.1720 -1.3887
  153OSM   C11S17031   1.993   2.559   3.169 -0.4292 -0.1086  0.6851
  153OSM   H11S17032   2.103   2.573   3.165 -0.7007  2.3045 -2.9640
  153OSM   H11T17033   1.961   2.460   3.131 -0.9561 -0.0560  0.9714
  153OSM   C12S17034   1.939   2.566   3.318 -0.1746  0.2578  0.1780
  153OSM   H12S17035   1.830   2.549   3.316 -0.0661 -0.4570 -0.2238
  153OSM   H12T17036   1.960   2.666   3.360  1.9844  0.8766 -2.1049
  153OSM   C13S17037   2.024   2.485   3.414  0.3902  0.5241  0.0760
  153OSM   H13S17038   2.128   2.507   3.384  1.3708 -1.8805  1.4181
  153OSM   H13T17039   2.022   2.376   3.394 -0.6043  0.1338  2.0136
  153OSM   C14S17040   1.996   2.513   3.559 -0.3033  0.3791  0.0491
  153OSM   H14S17041   1.984   2.623   3.574 -0.6639  0.2391  0.8011
  153OSM   H14T17042   2.083   2.480   3.618 -0.0940 -3.5616 -2.1455
  153OSM   C15S17043   1.868   2.444   3.625  0.6208  0.2532  0.1037
  153OSM   H15S17044   1.893   2.338   3.648  0.2741 -0.7570 -3.5870
  153OSM   H15T17045   1.793   2.450   3.543  2.2963  0.1573 -1.5065
  153OSM   C16S17046   1.815   2.518   3.747  0.5562  0.4111  0.3167
  153OSM   H16S17047   1.782   2.615   3.705  1.4342  0.2081 -0.8979
  153OSM   H16T17048   1.900   2.527   3.818 -0.0198  0.7516  0.9739
  153OSM   C17S17049   1.712   2.442   3.832 -0.0744 -0.4752  0.8168
  153OSM   H17S17050   1.761   2.347   3.862  1.1710  0.1168  0.7095
  153OSM   H17T17051   1.636   2.420   3.753  1.4080 -1.6636 -0.3472
  153OSM   C18S17052   1.653   2.518   3.949 -0.3986  0.1545  0.0298
  153OSM   H18S17053   1.564   2.458   3.979 -0.4711  1.4683  2.7580
  153OSM   H18T17054   1.632   2.623   3.921 -3.0391 -0.7672 -1.8679
  153OSM   H18U17055   1.719   2.516   4.038  0.4712 -0.4990 -0.6172
  153OSM    C1F17056   1.396   2.877   2.287 -0.4838 -0.2778 -0.2663
  153OSM     OF17057   1.277   2.867   2.288 -0.1250  0.5519  0.2621
  153OSM    C2F17058   1.458   3.018   2.266 -0.4966 -0.5995  0.1781
  153OSM    H2F17059   1.423   3.048   2.165  0.8014 -1.0445 -0.4273
  153OSM    H2G17060   1.569   3.022   2.263 -0.4473 -1.5730  0.1447
  153OSM    C3F17061   1.407   3.125   2.359  0.5885  0.4763  0.6347
  153OSM    H3F17062   1.297   3.114   2.350  0.6908  0.7321 -1.4098
  153OSM    H3G17063   1.438   3.219   2.309  0.9522 -0.7483 -1.5665
  153OSM    C4F17064   1.468   3.130   2.507  0.7322 -0.3249  0.7436
  153OSM    H4F17065   1.437   3.218   2.568  3.2917  1.3437 -0.2074
  153OSM    H4G17066   1.578   3.137   2.498  0.6883  0.2349  0.5660
  153OSM    C5F17067   1.446   3.004   2.591 -0.3531 -0.2425 -0.1539
  153OSM    H5F17068   1.494   2.917   2.541 -0.1049 -0.3765  0.3014
  153OSM    H5G17069   1.336   2.988   2.597 -0.4444  0.2389 -0.5504
  153OSM    C6F17070   1.508   3.010   2.728 -0.0462 -0.4771 -0.2262
  153OSM    H6F17071   1.619   3.014   2.717  0.0207  1.9735  0.7046
  153OSM    H6G17072   1.479   2.917   2.782  1.3134 -0.5211  0.4683
  153OSM    C7F17073   1.463   3.133   2.807  0.5653 -0.2233  0.6818
  153OSM    H7F17074   1.353   3.149   2.812 -0.0530 -2.9492 -1.5534
  153OSM    H7G17075   1.502   3.223   2.754 -0.4078  0.0018  0.3349
  153OSM    C8F17076   1.534   3.137   2.945 -0.4254 -0.2009 -0.4184
  153OSM    H8F17077   1.545   3.246   2.965  0.9882 -0.2536 -0.8278
  153OSM    H8G17078   1.637   3.096   2.935 -0.4243 -0.0973 -0.8852
  153OSM    C9F17079   1.450   3.074   3.052 -0.2936 -0.1021 -0.0615
  153OSM    H9F17080   1.361   3.130   3.084 -1.9932 -1.1350 -2.6743
  153OSM   C10F17081   1.458   2.948   3.097 -0.1273  0.4095 -0.5060
  153OSM   H10F17082   1.383   2.918   3.172 -1.0147  0.2601 -1.4366
  153OSM   C11F17083   1.557   2.837   3.071 -0.8033  0.1571  0.6024
  153OSM   H11F17084   1.611   2.809   3.164 -2.4823 -1.0007  1.2862
  153OSM   H11G17085   1.631   2.874   2.998 -0.8709  0.9590  0.9306
  153OSM   C12F17086   1.501   2.710   3.012 -0.4530  0.8668  0.1696
  153OSM   H12F17087   1.576   2.629   3.007 -1.5105 -0.0868 -0.9442
  153OSM   H12G17088   1.458   2.730   2.911 -0.9632 -0.9398  0.0002
  153OSM   C13F17089   1.389   2.651   3.097  0.3644 -0.2289  0.7951
  153OSM   H13F17090   1.353   2.552   3.060  0.5585  0.2925 -0.8625
  153OSM   H13G17091   1.300   2.716   3.092  0.8169  0.3502  0.1406
  153OSM   C14F17092   1.418   2.643   3.247 -0.0870  0.3013 -0.1379
  153OSM   H14F17093   1.467   2.734   3.288  0.1495  0.8468 -1.5467
  153OSM   H14G17094   1.495   2.565   3.268 -0.0199  0.1533 -0.8983
  153OSM   C15F17095   1.298   2.611   3.339  0.7369 -0.3039 -0.5757
  153OSM   H15F17096   1.252   2.514   3.309  0.5885  0.0397 -1.4769
  153OSM   H15G17097   1.213   2.681   3.322  0.4661  0.1082  1.9915
  153OSM   C16F17098   1.330   2.612   3.492 -0.1619  0.2803  0.7269
  153OSM   H16F17099   1.311   2.717   3.524 -0.9458  0.2894  0.2526
  153OSM   H16G17100   1.437   2.587   3.510  0.4700  2.7581  0.8191
  153OSM   C17F17101   1.235   2.527   3.580 -0.1279  0.1695  0.3343
  153OSM   H17F17102   1.235   2.423   3.541 -0.3861  0.2206  0.1929
  153OSM   H17G17103   1.128   2.554   3.565 -0.7222 -2.6051 -1.0512
  153OSM   C18F17104   1.275   2.519   3.727 -0.0636  0.1391  0.4849
  153OSM   H18F17105   1.194   2.481   3.793  0.5447 -1.7795  0.1878
  153OSM   H18G17106   1.307   2.616   3.772 -1.5670  0.2255  1.4252
  153OSM   H18H17107   1.368   2.459   3.726 -0.1003  0.0510 -1.2784
  154OSM      N17108   4.686   0.828   2.173  0.4482 -0.0818  0.1078
  154OSM    C1517109   4.620   0.811   2.047 -0.4381 -0.4403  0.4610
  154OSM   H15A17110   4.694   0.823   1.969 -2.5881  1.4340 -1.4726
  154OSM   H15B17111   4.545   0.889   2.043  0.1215  0.2696  2.5557
  154OSM   H15C17112   4.590   0.708   2.034  1.9644 -1.3467  1.4084
  154OSM    C1417113   4.805   0.746   2.197  0.0789 -0.4815  0.4236
  154OSM   H14A17114   4.834   0.759   2.301 -0.8767  2.2740  0.4210
  154OSM   H14B17115   4.889   0.795   2.151 -0.3030  2.4123  2.5086
  154OSM   H14C17116   4.787   0.641   2.181 -0.0251 -0.5200  0.7682
  154OSM    C1317117   4.713   0.976   2.195 -0.1035  0.0621 -0.0913
  154OSM   H13A17118   4.749   0.988   2.296  0.9689  0.0280 -0.4560
  154OSM   H13B17119   4.624   1.034   2.176  0.2507  0.7066  0.1808
  154OSM   H13C17120   4.787   1.017   2.128 -0.0988  0.3459  0.0861
  154OSM    C1217121   4.585   0.776   2.279  0.2919  0.1387  0.3312
  154OSM   H12A17122   4.638   0.781   2.373 -0.9641  1.0179  1.0253
  154OSM   H12B17123   4.576   0.673   2.249  1.2204 -0.0346  0.6246
  154OSM    C1117124   4.446   0.842   2.294 -0.8466 -0.0503 -0.5187
  154OSM   H11A17125   4.461   0.950   2.314 -2.5523  0.1561 -0.2091
  154OSM   H11B17126   4.387   0.805   2.382 -0.8330 -0.4171 -0.6614
  154OSM      P17127   4.295   0.700   2.134  0.0940  0.2557  0.1559
  154OSM    O1317128   4.163   0.734   2.076  0.1646  0.2081 -0.8115
  154OSM    O1417129   4.390   0.616   2.057 -0.6094 -0.0739 -0.4779
  154OSM    O1117130   4.282   0.638   2.274 -0.9283 -0.3030 -0.0396
  154OSM    O1217131   4.364   0.832   2.181  0.3629  0.4164  0.5194
  154OSM    C1S17132   4.277   0.494   2.294  0.0618 -0.2675 -0.5610
  154OSM    H1S17133   4.380   0.464   2.266  0.1782 -0.4194  0.0225
  154OSM    H1T17134   4.207   0.442   2.225 -0.4410 -1.8879  1.1033
  154OSM     NF17135   4.248   0.316   2.430  1.1692  0.4785 -0.0025
  154OSM    HNF17136   4.161   0.271   2.407  1.2403  1.5314 -2.7042
  154OSM    C2S17137   4.245   0.458   2.436  0.2163  0.7495  0.5490
  154OSM    H2S17138   4.323   0.496   2.505  1.1501 -0.4952  0.2194
  154OSM    C3S17139   4.111   0.523   2.469 -0.1835  0.8497 -1.0018
  154OSM    H3S17140   4.039   0.480   2.397  0.8240  1.8550 -2.6825
  154OSM     O317141   4.103   0.667   2.448 -0.4519 -0.2813  0.2214
  154OSM    HO317142   4.180   0.687   2.395 -0.8197 -0.8500 -0.5359
  154OSM    C4S17143   4.088   0.492   2.614  1.2400  0.0781  0.3754
  154OSM    H4S17144   4.051   0.388   2.618  0.1117  0.4672  0.4583
  154OSM    C5S17145   4.108   0.567   2.724 -0.1845  0.6012  0.4139
  154OSM    H5S17146   4.135   0.672   2.704  1.1132  0.3038  0.5145
  154OSM    C6S17147   4.103   0.541   2.871  0.6614  0.9193 -0.5101
  154OSM    H6S17148   4.005   0.578   2.908  0.3831 -0.1950 -0.0733
  154OSM    H6T17149   4.178   0.603   2.925  2.4333 -2.3392  1.0605
  154OSM    C7S17150   4.140   0.396   2.924  0.0889 -1.2376  0.1412
  154OSM    H7S17151   4.238   0.354   2.891 -0.2042 -2.5722  0.8847
  154OSM    H7T17152   4.058   0.330   2.888 -2.7453  2.2534 -0.3311
  154OSM    C8S17153   4.138   0.392   3.077 -0.8084  0.2990  0.0232
  154OSM    H8S17154   4.145   0.283   3.100  1.0288  0.1001 -1.2640
  154OSM    H8T17155   4.036   0.419   3.111 -0.5273  0.0941  1.0632
  154OSM    C9S17156   4.247   0.477   3.138 -0.3624 -0.6060 -0.6589
  154OSM    H9S17157   4.213   0.581   3.156  0.9675 -0.2503 -0.0979
  154OSM    H9T17158   4.340   0.475   3.076 -0.3212  0.2356 -0.6314
  154OSM   C10S17159   4.289   0.425   3.276  0.0431  0.9660  0.7956
  154OSM   H10S17160   4.382   0.477   3.305  1.3974 -0.2375 -1.1556
  154OSM   H10T17161   4.299   0.314   3.278 -3.0139  0.5749  0.0867
  154OSM   C11S17162   4.189   0.469   3.386 -0.7968 -0.2049  0.4787
  154OSM   H11S17163   4.096   0.410   3.375 -0.4337 -0.5703 -0.8488
  154OSM   H11T17164   4.174   0.575   3.358  0.9517 -0.2340 -0.7385
  154OSM   C12S17165   4.244   0.464   3.530  0.2734 -0.3299  0.0473
  154OSM   H12S17166   4.166   0.506   3.598  0.4815  1.9613 -1.0242
  154OSM   H12T17167   4.328   0.536   3.540 -1.2781  1.5870  0.0278
  154OSM   C13S17168   4.293   0.327   3.581  0.5850 -0.0001  0.9167
  154OSM   H13S17169   4.374   0.294   3.513 -1.2028 -0.4495 -1.0746
  154OSM   H13T17170   4.209   0.256   3.570  1.0743 -0.7422  1.8006
  154OSM   C14S17171   4.347   0.317   3.721  0.4337 -0.2227 -0.3332
  154OSM   H14S17172   4.424   0.395   3.740  1.3453 -0.9288 -0.9583
  154OSM   H14T17173   4.398   0.218   3.733  0.6170 -0.1602 -0.5763
  154OSM   C15S17174   4.234   0.332   3.820  0.0745 -0.0797  0.2678
  154OSM   H15S17175   4.158   0.252   3.813 -2.7578  2.2697  1.6980
  154OSM   H15T17176   4.186   0.431   3.801 -1.5918 -0.8682  0.2271
  154OSM   C16S17177   4.271   0.334   3.968 -1.0749 -0.1265 -0.7926
  154OSM   H16S17178   4.330   0.427   3.979 -2.5355  0.6632  0.8922
  154OSM   H16T17179   4.351   0.257   3.974  0.8496  1.7741 -0.8155
  154OSM   C17S17180   4.154   0.322   4.072  0.0654  0.0869 -0.2391
  154OSM   H17S17181   4.095   0.238   4.029  0.5267 -1.4187  1.8746
  154OSM   H17T17182   4.100   0.419   4.068  1.3425  0.7955 -0.8841
  154OSM   C18S17183   4.206   0.295   4.221  0.0212  0.0273  0.3788
  154OSM   H18S17184   4.125   0.315   4.294 -0.9638  3.2865 -1.4309
  154OSM   H18T17185   4.298   0.355   4.233  1.3487 -1.8502  0.1676
  154OSM   H18U17186   4.242   0.190   4.219  3.0193  0.9495  1.2324
  154OSM    C1F17187   4.359   0.246   2.422 -0.2726 -0.1390 -0.2204
  154OSM     OF17188   4.472   0.302   2.414  0.5040  0.7114 -0.0659
  154OSM    C2F17189   4.346   0.099   2.439  0.2717  0.1221 -0.3924
  154OSM    H2F17190   4.409   0.038   2.370  0.7461  0.0748  0.0821
  154OSM    H2G17191   4.242   0.066   2.415 -0.0731  0.6260  0.3924
  154OSM    C3F17192   4.370   0.052   2.581 -0.2533  0.8297 -0.4047
  154OSM    H3F17193   4.465   0.096   2.616  0.4418  0.4346 -1.7482
  154OSM    H3G17194   4.380  -0.058   2.573 -1.1266  0.8146 -1.6796
  154OSM    C4F17195   4.275   0.109   2.680  1.0210  0.0324  0.1006
  154OSM    H4F17196   4.171   0.104   2.641  0.4738  1.6629  1.2832
  154OSM    H4G17197   4.289   0.217   2.700 -1.1896  0.3651  0.1143
  154OSM    C5F17198   4.262   0.034   2.816 -0.2342  0.2764  0.2945
  154OSM    H5F17199   4.257  -0.076   2.800 -0.8789  0.1305  1.4361
  154OSM    H5G17200   4.169   0.070   2.865  0.0373  0.1983  0.8736
  154OSM    C6F17201   4.385   0.050   2.906  0.7837  0.0236  0.0685
  154OSM    H6F17202   4.402   0.160   2.916  2.5057 -0.0078 -1.8028
  154OSM    H6G17203   4.471   0.013   2.847 -0.4036 -2.1097 -0.4017
  154OSM    C7F17204   4.358  -0.011   3.040  0.0958  0.1397 -0.2299
  154OSM    H7F17205   4.296  -0.103   3.029  1.4942 -0.8651 -0.0273
  154OSM    H7G17206   4.293   0.065   3.088  0.3192  1.2551 -1.6306
  154OSM    C8F17207   4.488  -0.060   3.106 -0.3988 -0.1581  0.3854
  154OSM    H8F17208   4.535  -0.131   3.035 -0.2317 -0.5009  0.8296
  154OSM    H8G17209   4.470  -0.118   3.200 -1.2005  0.7553  0.8148
  154OSM    C9F17210   4.580   0.053   3.142  0.1035 -0.2930 -0.1865
  154OSM    H9F17211   4.649   0.088   3.064  1.6240 -0.7582  0.9038
  154OSM   C10F17212   4.589   0.123   3.258  0.2321 -0.0824 -0.7078
  154OSM   H10F17213   4.670   0.197   3.270  1.7692 -2.1612  4.0664
  154OSM   C11F17214   4.521   0.075   3.383 -0.6861 -0.3716 -0.0903
  154OSM   H11F17215   4.414   0.051   3.365 -0.9531  1.1274 -0.6437
  154OSM   H11G17216   4.512   0.158   3.456  0.9124 -0.4976  0.2779
  154OSM   C12F17217   4.587  -0.039   3.464 -0.2241  0.1603  0.5464
  154OSM   H12F17218   4.685  -0.006   3.505  0.6806 -2.5744  0.8046
  154OSM   H12G17219   4.604  -0.137   3.414  0.4479  0.3778  0.3347
  154OSM   C13F17220   4.509  -0.063   3.599 -0.3277 -0.1357  0.0347
  154OSM   H13F17221   4.405  -0.085   3.568 -0.9966  1.5049  0.9931
  154OSM   H13G17222   4.501   0.025   3.666 -4.2514 -0.5021  0.2785
  154OSM   C14F17223   4.567  -0.181   3.670  0.5149  0.4504 -0.1069
  154OSM   H14F17224   4.675  -0.163   3.685  0.2751 -0.3348  3.3376
  154OSM   H14G17225   4.557  -0.265   3.598 -1.3853  1.0243 -0.5778
  154OSM   C15F17226   4.489  -0.220   3.795 -0.3523  0.9802  0.4318
  154OSM   H15F17227   4.527  -0.317   3.835 -1.5823  0.3903  0.2021
  154OSM   H15G17228   4.383  -0.236   3.766 -0.7836 -0.2615  2.4937
  154OSM   C16F17229   4.481  -0.116   3.908 -0.6695 -0.5979 -0.2361
  154OSM   H16F17230   4.432  -0.019   3.885  1.9054  1.1562  1.1599
  154OSM   H16G17231   4.584  -0.085   3.936  0.1178 -0.3567 -3.1186
  154OSM   C17F17232   4.405  -0.173   4.026 -0.0853  0.1180  0.7912
  154OSM   H17F17233   4.440  -0.275   4.052 -1.5059 -0.8593 -0.9252
  154OSM   H17G17234   4.301  -0.175   3.986  0.0043  0.7139  0.5167
  154OSM   C18F17235   4.425  -0.086   4.148  0.1988  0.0824 -0.2217
  154OSM   H18F17236   4.372  -0.103   4.244  4.2741 -0.3224  2.1951
  154OSM   H18G17237   4.372   0.007   4.119 -0.1867 -0.6353 -1.9906
  154OSM   H18H17238   4.532  -0.058   4.161  0.6054 -0.9887 -1.0658
  155OSM      N17239   0.981   0.155   2.084 -0.1525  0.6209  0.2301
  155OSM    C1517240   1.003   0.249   1.969 -0.1958  0.0731 -0.3781
  155OSM   H15A17241   1.092   0.224   1.912  0.6589  3.4044 -0.7206
  155OSM   H15B17242   1.022   0.349   2.005  0.4935 -0.5033  0.9314
  155OSM   H15C17243   0.921   0.248   1.900 -0.0416  0.2200 -0.5648
  155OSM    C1417244   1.112   0.163   2.161 -0.1791 -0.5034 -0.9260
  155OSM   H14A17245   1.119   0.093   2.243  0.6947  1.8321  1.1312
  155OSM   H14B17246   1.119   0.263   2.202 -3.3680 -0.2209 -0.7762
  155OSM   H14C17247   1.202   0.154   2.103  0.5551  1.3691 -0.1587
  155OSM    C1317248   0.863   0.203   2.167 -0.3995  0.1208  0.5332
  155OSM   H13A17249   0.886   0.279   2.240  1.4272 -1.6023  1.8800
  155OSM   H13B17250   0.813   0.128   2.226 -0.4068 -0.3717 -0.0864
  155OSM   H13C17251   0.791   0.238   2.095 -2.4265 -0.2665  2.2443
  155OSM    C1217252   0.955   0.011   2.038 -0.4768 -0.2143 -0.3311
  155OSM   H12A17253   1.052  -0.018   1.999 -0.3704 -0.5793  0.1903
  155OSM   H12B17254   0.890   0.007   1.952 -0.1511 -0.1129 -0.5846
  155OSM    C1117255   0.913  -0.082   2.144 -0.7250  0.5998 -0.5330
  155OSM   H11A17256   0.805  -0.098   2.165 -0.2897 -3.1475 -0.4627
  155OSM   H11B17257   0.958  -0.048   2.240 -0.9243  0.1446 -0.2756
  155OSM      P17258   1.116  -0.261   2.172  0.3029  0.3407 -0.2370
  155OSM    O1317259   1.174  -0.358   2.078 -0.4244 -0.3252  0.0149
  155OSM    O1417260   1.197  -0.144   2.200  0.5382 -0.3848 -0.2067
  155OSM    O1117261   1.082  -0.331   2.314 -0.7799 -0.5298 -0.1620
  155OSM    O1217262   0.964  -0.213   2.120 -0.3686  0.3058 -0.0238
  155OSM    C1S17263   1.067  -0.257   2.435  0.1205  0.0227 -0.3485
  155OSM    H1S17264   1.005  -0.166   2.422 -2.0788 -1.0413  1.9319
  155OSM    H1T17265   1.169  -0.224   2.465 -0.4945  0.2707  1.5558
  155OSM     NF17266   1.009  -0.267   2.681 -0.2870 -0.4634 -0.0502
  155OSM    HNF17267   1.093  -0.274   2.734  0.5503 -0.4905 -1.3302
  155OSM    C2S17268   1.009  -0.344   2.556 -0.0419  0.0514 -0.1701
  155OSM    H2S17269   0.901  -0.352   2.528  0.1330 -0.0809 -0.8283
  155OSM    C3S17270   1.072  -0.484   2.563  0.6489 -0.1622 -0.6105
  155OSM    H3S17271   1.183  -0.480   2.573  0.6344 -0.2183 -0.4130
  155OSM     O317272   1.055  -0.561   2.440  0.3202 -0.6406 -0.5856
  155OSM    HO317273   1.048  -0.487   2.379 -0.6864 -0.6191 -0.4544
  155OSM    C4S17274   1.015  -0.564   2.677  0.7490 -0.8811  0.7424
  155OSM    H4S17275   0.907  -0.581   2.663  0.9294 -1.3784 -0.1012
  155OSM    C5S17276   1.068  -0.585   2.797  0.3466  0.5955  0.4752
  155OSM    H5S17277   1.163  -0.536   2.821  1.6374 -2.0271  1.0464
  155OSM    C6S17278   0.998  -0.638   2.913  0.1473 -0.4728 -0.0828
  155OSM    H6S17279   0.976  -0.557   2.985  1.6093  0.6148 -0.8263
  155OSM    H6T17280   1.073  -0.697   2.970 -0.3465 -0.3300  0.7269
  155OSM    C7S17281   0.867  -0.718   2.887 -0.6872  0.0290  0.0156
  155OSM    H7S17282   0.875  -0.772   2.790 -1.5030 -1.0659  0.5437
  155OSM    H7T17283   0.779  -0.651   2.877  0.6587  1.7126 -1.4196
  155OSM    C8S17284   0.835  -0.821   2.999  0.0832  0.1781 -0.3623
  155OSM    H8S17285   0.932  -0.867   3.027  0.5744  0.6766 -1.1703
  155OSM    H8T17286   0.767  -0.902   2.966 -0.0952  1.3170 -3.1503
  155OSM    C9S17287   0.777  -0.752   3.128 -0.2334  0.0866 -0.0140
  155OSM    H9S17288   0.687  -0.691   3.106 -1.4293 -0.8871  1.8535
  155OSM    H9T17289   0.846  -0.671   3.161 -0.3163 -0.4351  1.5150
  155OSM   C10S17290   0.741  -0.859   3.233 -0.6145 -0.2963  0.5380
  155OSM   H10S17291   0.827  -0.926   3.257  0.7599  0.2894 -2.1872
  155OSM   H10T17292   0.660  -0.919   3.187 -1.1933  1.1037 -0.3561
  155OSM   C11S17293   0.675  -0.796   3.354 -0.1638  0.4767  0.2929
  155OSM   H11S17294   0.578  -0.751   3.326  0.8278  0.9465 -2.8035
  155OSM   H11T17295   0.741  -0.711   3.380  3.1459 -1.9445  0.4789
  155OSM   C12S17296   0.669  -0.886   3.479 -0.1457  0.0469 -0.1220
  155OSM   H12S17297   0.612  -0.827   3.555  0.8801  1.2107 -0.2122
  155OSM   H12T17298   0.771  -0.887   3.525 -0.3407  0.3591  0.3306
  155OSM   C13S17299   0.630  -1.032   3.460  0.3722  0.6116 -0.2716
  155OSM   H13S17300   0.709  -1.093   3.412 -0.5029 -1.1959  0.4616
  155OSM   H13T17301   0.545  -1.029   3.389  0.0202  1.9803  0.1822
  155OSM   C14S17302   0.577  -1.104   3.586 -0.6604  0.2262  0.4491
  155OSM   H14S17303   0.532  -1.203   3.563  1.1491 -0.4210 -0.5258
  155OSM   H14T17304   0.488  -1.044   3.613 -1.0876  1.1178 -2.5448
  155OSM   C15S17305   0.677  -1.110   3.702 -0.7683 -0.0934  0.7222
  155OSM   H15S17306   0.680  -1.007   3.744  0.7170  0.1175  0.1516
  155OSM   H15T17307   0.778  -1.136   3.664 -0.9826 -0.9599  0.7212
  155OSM   C16S17308   0.618  -1.202   3.817 -0.6798  0.3308  0.8494
  155OSM   H16S17309   0.654  -1.306   3.801 -2.1019 -0.1010  0.2976
  155OSM   H16T17310   0.508  -1.216   3.814 -0.6512 -0.6471  2.7623
  155OSM   C17S17311   0.673  -1.169   3.961 -0.8756 -0.3570 -0.3697
  155OSM   H17S17312   0.616  -1.232   4.033  0.1933 -1.0711 -0.1287
  155OSM   H17T17313   0.642  -1.068   3.997  0.4626  0.2079 -0.7544
  155OSM   C18S17314   0.823  -1.172   3.971  0.1357 -0.5657 -0.5447
  155OSM   H18S17315   0.856  -1.150   4.074  0.6864 -1.0530 -0.6130
  155OSM   H18T17316   0.868  -1.089   3.913  2.2297  0.1406  1.9514
  155OSM   H18U17317   0.861  -1.274   3.947  1.0868 -0.3523  0.0121
  155OSM    C1F17318   0.933  -0.152   2.694  0.0397  0.4068 -0.2616
  155OSM     OF17319   0.839  -0.122   2.624  0.1543 -0.2861  0.0964
  155OSM    C2F17320   0.984  -0.057   2.799  0.3030 -0.5383 -0.5297
  155OSM    H2F17321   0.967   0.047   2.762 -0.5385 -0.4876 -0.0309
  155OSM    H2G17322   1.092  -0.078   2.818 -0.0970 -1.5227  0.7769
  155OSM    C3F17323   0.895  -0.063   2.934  0.5525 -0.1005  0.8436
  155OSM    H3F17324   0.790  -0.040   2.907  1.3126  1.4510 -1.0400
  155OSM    H3G17325   0.931   0.027   2.988 -0.6498  1.7846 -1.3193
  155OSM    C4F17326   0.897  -0.193   3.008 -0.4693  0.2026 -0.2947
  155OSM    H4F17327   0.842  -0.270   2.950 -1.4549  0.9544 -0.3749
  155OSM    H4G17328   0.840  -0.173   3.101 -1.8783  1.9812 -1.4790
  155OSM    C5F17329   1.037  -0.252   3.036 -0.4908 -0.0602 -0.4791
  155OSM    H5F17330   1.093  -0.278   2.944  0.9045  0.6944  0.1264
  155OSM    H5G17331   1.027  -0.343   3.099  2.2946 -1.6679 -2.1628
  155OSM    C6F17332   1.130  -0.139   3.097 -0.3577  0.0479 -0.4477
  155OSM    H6F17333   1.078  -0.082   3.177  1.1622  1.6115 -0.5104
  155OSM    H6G17334   1.152  -0.057   3.025  2.0885  0.6663  0.8923
  155OSM    C7F17335   1.276  -0.182   3.132  0.9525 -1.1046 -0.1636
  155OSM    H7F17336   1.331  -0.202   3.037  1.8139  1.7146 -0.3460
  155OSM    H7G17337   1.260  -0.279   3.185 -1.5692 -1.4592 -1.4004
  155OSM    C8F17338   1.359  -0.075   3.206 -0.0333  0.4706 -0.3589
  155OSM    H8F17339   1.313  -0.051   3.304 -0.3828  0.5042 -0.5313
  155OSM    H8G17340   1.357   0.018   3.145 -0.5259  0.2883 -0.6315
  155OSM    C9F17341   1.500  -0.115   3.233 -0.4955 -0.4058 -0.3054
  155OSM    H9F17342   1.559  -0.135   3.141  0.4861 -0.0796  0.2356
  155OSM   C10F17343   1.554  -0.161   3.348  0.1469  0.2054  0.1092
  155OSM   H10F17344   1.660  -0.192   3.351 -0.1282 -0.8000  2.6271
  155OSM   C11F17345   1.496  -0.177   3.487  0.4899 -0.3584 -0.3042
  155OSM   H11F17346   1.410  -0.112   3.514 -0.7257 -2.3147  0.7808
  155OSM   H11G17347   1.568  -0.156   3.569  0.9026 -0.9240 -0.5134
  155OSM   C12F17348   1.444  -0.323   3.514 -0.5161 -0.1542 -0.0961
  155OSM   H12F17349   1.348  -0.338   3.462 -0.9071 -1.0624  0.8519
  155OSM   H12G17350   1.423  -0.325   3.623 -1.2717  0.9592 -0.2160
  155OSM   C13F17351   1.550  -0.427   3.468  0.0683 -0.9778 -0.1678
  155OSM   H13F17352   1.562  -0.431   3.358  0.4089 -0.2412 -0.1625
  155OSM   H13G17353   1.505  -0.524   3.498 -0.3719 -1.0926 -1.1765
  155OSM   C14F17354   1.687  -0.419   3.542  0.4188  0.7567 -0.5090
  155OSM   H14F17355   1.670  -0.388   3.647  1.3022  1.7271 -0.6262
  155OSM   H14G17356   1.759  -0.341   3.507  0.2017  0.6174 -1.2878
  155OSM   C15F17357   1.751  -0.556   3.527 -0.8253  0.2861 -0.7119
  155OSM   H15F17358   1.787  -0.565   3.422  1.3745  3.6810 -0.4195
  155OSM   H15G17359   1.679  -0.635   3.554  2.0662 -2.3397 -0.0990
  155OSM   C16F17360   1.866  -0.576   3.637 -0.1227 -0.4793 -0.1361
  155OSM   H16F17361   1.813  -0.551   3.732  2.1794 -0.4922  1.2067
  155OSM   H16G17362   1.955  -0.510   3.626 -0.0216 -0.2719  1.6129
  155OSM   C17F17363   1.919  -0.725   3.650  0.0023 -0.1417  0.6458
  155OSM   H17F17364   1.929  -0.763   3.547 -0.6975  2.3061 -0.3908
  155OSM   H17G17365   1.845  -0.795   3.695  1.2230 -1.4906  0.6001
  155OSM   C18F17366   2.050  -0.738   3.726  0.1736  0.5989 -0.7475
  155OSM   H18F17367   2.137  -0.698   3.669  0.9741 -0.7339 -0.4827
  155OSM   H18G17368   2.064  -0.846   3.743  0.2808  0.7670  0.3141
  155OSM   H18H17369   2.025  -0.701   3.828 -0.5907 -0.5110 -0.5158
  156OSM      N17370   2.287   4.380   1.441 -0.3489  0.1039 -0.6482
  156OSM    C1517371   2.198   4.411   1.324  0.2879 -0.2105 -0.3102
  156OSM   H15A17372   2.257   4.406   1.234 -2.5021 -1.2130 -2.2495
  156OSM   H15B17373   2.145   4.504   1.339 -0.3836 -0.8684  1.7754
  156OSM   H15C17374   2.120   4.340   1.301  1.0216 -1.4309  0.8445
  156OSM    C1417375   2.362   4.256   1.416 -0.4197 -0.2836  0.6652
  156OSM   H14A17376   2.412   4.269   1.321 -1.8250  1.5740  0.1076
  156OSM   H14B17377   2.299   4.171   1.395  0.3967 -0.4399 -1.4617
  156OSM   H14C17378   2.430   4.235   1.497 -1.1660  0.1749  1.4258
  156OSM    C1317379   2.383   4.493   1.467  0.6948 -0.8289 -1.2066
  156OSM   H13A17380   2.413   4.483   1.571  0.5241  1.3957 -0.8824
  156OSM   H13B17381   2.321   4.580   1.451 -0.0256 -0.8827  0.9371
  156OSM   H13C17382   2.469   4.492   1.402  1.2031  0.2663 -0.5874
  156OSM    C1217383   2.205   4.350   1.563  0.3448  0.3246 -0.6866
  156OSM   H12A17384   2.156   4.256   1.544 -1.5760  1.2259 -0.4014
  156OSM   H12B17385   2.124   4.419   1.584  0.3350 -0.5019  2.6315
  156OSM    C1117386   2.275   4.330   1.706  0.3750  0.9588  0.6816
  156OSM   H11A17387   2.346   4.246   1.689 -0.5734  0.6128 -2.1541
  156OSM   H11B17388   2.205   4.284   1.779 -0.7128  1.0503 -0.2558
  156OSM      P17389   2.260   4.554   1.838 -0.1738  0.0000 -0.0532
  156OSM    O1317390   2.357   4.656   1.881 -0.1786 -0.4709  0.1744
  156OSM    O1417391   2.136   4.607   1.767 -0.7586 -0.4449 -0.0616
  156OSM    O1117392   2.219   4.472   1.972  0.3348 -0.3759  0.1644
  156OSM    O1217393   2.341   4.444   1.754 -0.1513  0.0483  0.3137
  156OSM    C1S17394   2.303   4.443   2.072  0.0371 -0.1778 -0.0761
  156OSM    H1S17395   2.400   4.496   2.063  0.5320 -0.8947  0.8009
  156OSM    H1T17396   2.330   4.336   2.062  3.4779  0.4408  1.2497
  156OSM     NF17397   2.329   4.455   2.320  0.7328 -0.2038 -0.0962
  156OSM    HNF17398   2.341   4.358   2.340  1.7995  0.1233  0.9638
  156OSM    C2S17399   2.230   4.467   2.211  0.8217 -0.0322 -0.4677
  156OSM    H2S17400   2.184   4.566   2.230  0.0532 -0.6127  0.8042
  156OSM    C3S17401   2.112   4.361   2.213  0.4546 -0.1380 -0.3198
  156OSM    H3S17402   2.166   4.266   2.194  2.3070  0.6369  0.7874
  156OSM     O317403   2.011   4.384   2.120 -1.0125  0.1048  0.1381
  156OSM    HO317404   2.048   4.450   2.061 -1.9061 -0.8098 -1.5585
  156OSM    C4S17405   2.043   4.342   2.353 -0.1274 -0.2331 -0.3014
  156OSM    H4S17406   2.088   4.274   2.426  0.3422 -0.3497 -0.6933
  156OSM    C5S17407   1.940   4.420   2.396 -0.7502  0.4587  0.2838
  156OSM    H5S17408   1.898   4.494   2.327  0.5612 -0.8090 -2.0013
  156OSM    C6S17409   1.881   4.420   2.536 -0.0628 -0.2160  0.2253
  156OSM    H6S17410   1.773   4.392   2.529  0.2793 -1.1794 -1.6590
  156OSM    H6T17411   1.883   4.525   2.573  0.8014 -0.5450  1.1414
  156OSM    C7S17412   1.946   4.336   2.648 -0.0328 -0.6953  0.0738
  156OSM    H7S17413   2.057   4.337   2.646  0.0655 -0.3944  2.4790
  156OSM    H7T17414   1.917   4.229   2.647 -0.7146 -0.5217  0.6211
  156OSM    C8S17415   1.924   4.381   2.795  0.6778  0.1180  0.2892
  156OSM    H8S17416   1.958   4.296   2.859 -0.0567 -0.5734 -0.2124
  156OSM    H8T17417   1.815   4.385   2.820  0.4132 -1.3569 -0.5054
  156OSM    C9S17418   1.991   4.516   2.832 -0.1909 -0.3570 -0.2932
  156OSM    H9S17419   1.940   4.589   2.766  2.4694  0.4868 -1.5609
  156OSM    H9T17420   2.099   4.525   2.808  0.0185  1.7526  1.1912
  156OSM   C10S17421   1.973   4.546   2.979 -0.1512  0.4136 -0.6084
  156OSM   H10S17422   1.867   4.535   3.012  0.7345 -4.8060  1.3388
  156OSM   H10T17423   1.984   4.657   2.985  0.6882  0.3622 -1.0798
  156OSM   C11S17424   2.069   4.479   3.080 -0.1163 -0.1373  0.0199
  156OSM   H11S17425   2.175   4.487   3.047  1.2793 -3.9811  2.7756
  156OSM   H11T17426   2.047   4.371   3.092  1.8607 -0.4957  0.9116
  156OSM   C12S17427   2.058   4.534   3.220  0.5100 -0.5316  0.2974
  156OSM   H12S17428   1.955   4.528   3.261 -0.1037  0.3335 -1.0273
  156OSM   H12T17429   2.065   4.644   3.208  0.5236 -0.6865 -1.3620
  156OSM   C13S17430   2.160   4.474   3.306 -0.4924 -0.3724  0.5404
  156OSM   H13S17431   2.256   4.502   3.258 -2.2627  0.3983 -2.8464
  156OSM   H13T17432   2.174   4.365   3.320  1.2649 -0.2769 -0.2061
  156OSM   C14S17433   2.157   4.529   3.456 -0.0603  0.8160  0.6103
  156OSM   H14S17434   2.156   4.639   3.444 -0.3274  1.0283  2.3087
  156OSM   H14T17435   2.249   4.494   3.508 -0.6211  0.7194  1.5493
  156OSM   C15S17436   2.030   4.499   3.538 -0.4547  0.0269  0.1172
  156OSM   H15S17437   1.940   4.530   3.483  0.5297 -0.5722 -1.9174
  156OSM   H15T17438   2.024   4.557   3.633 -0.8081 -0.1328  0.1941
  156OSM   C16S17439   2.004   4.352   3.577 -0.5219  0.3989  0.7748
  156OSM   H16S17440   2.033   4.279   3.498  2.9220  0.3068  1.9371
  156OSM   H16T17441   1.896   4.346   3.604 -0.7645  0.4026 -0.1771
  156OSM   C17S17442   2.092   4.317   3.696  0.1529  0.4067  0.0048
  156OSM   H17S17443   2.042   4.360   3.786 -0.4948 -0.8942  0.2993
  156OSM   H17T17444   2.191   4.363   3.675  0.6930 -1.6774 -2.4851
  156OSM   C18S17445   2.117   4.165   3.719  0.2730  0.4800  0.0620
  156OSM   H18S17446   2.215   4.160   3.771  0.9368 -2.4107 -1.2997
  156OSM   H18T17447   2.129   4.113   3.622 -1.1967  0.8332 -0.3450
  156OSM   H18U17448   2.029   4.115   3.766  0.1725  1.4090  0.9288
  156OSM    C1F17449   2.424   4.548   2.353  0.3210  0.3014 -0.2140
  156OSM     OF17450   2.420   4.656   2.299 -0.1079 -0.1704 -0.2104
  156OSM    C2F17451   2.534   4.498   2.450  0.5610  0.1186 -0.5727
  156OSM    H2F17452   2.598   4.584   2.476 -0.5672  1.4083 -1.8915
  156OSM    H2G17453   2.586   4.403   2.422 -0.9549 -1.3711  1.3807
  156OSM    C3F17454   2.465   4.463   2.591  0.6330  0.1891  0.0175
  156OSM    H3F17455   2.379   4.393   2.588 -0.2774  1.3174 -2.2382
  156OSM    H3G17456   2.415   4.556   2.624 -2.9003 -1.6151  0.2464
  156OSM    C4F17457   2.568   4.410   2.690  0.7398 -0.4814 -0.3808
  156OSM    H4F17458   2.645   4.483   2.722  0.7406  0.4708 -2.4011
  156OSM    H4G17459   2.628   4.319   2.667  1.1847  0.0854 -1.5512
  156OSM    C5F17460   2.485   4.375   2.811 -0.2062  0.3507 -0.6417
  156OSM    H5F17461   2.407   4.303   2.776 -0.4702  1.3489 -2.2669
  156OSM    H5G17462   2.441   4.472   2.844  0.2294  0.5382 -0.6105
  156OSM    C6F17463   2.569   4.311   2.933  0.3372  1.8558 -0.7277
  156OSM    H6F17464   2.642   4.390   2.962  1.7295 -0.0337  1.1674
  156OSM    H6G17465   2.622   4.218   2.903 -0.0639  1.1654  0.6466
  156OSM    C7F17466   2.478   4.277   3.050 -0.1943  0.1481 -0.0820
  156OSM    H7F17467   2.407   4.196   3.021 -0.2045  0.5268 -1.1659
  156OSM    H7G17468   2.409   4.364   3.062  1.2589  1.2539  0.5310
  156OSM    C8F17469   2.545   4.230   3.175 -0.2080 -0.5098 -0.4544
  156OSM    H8F17470   2.613   4.313   3.205 -0.3978  0.1055 -1.6670
  156OSM    H8G17471   2.607   4.139   3.162 -0.3991 -1.0486  1.8634
  156OSM    C9F17472   2.447   4.181   3.282  0.6293  1.0854  0.0193
  156OSM    H9F17473   2.374   4.103   3.257  0.5236  0.8782  0.9586
  156OSM   C10F17474   2.422   4.236   3.401 -0.0182  0.6826 -0.5523
  156OSM   H10F17475   2.349   4.187   3.467  0.4743 -0.0686 -0.5540
  156OSM   C11F17476   2.505   4.339   3.470 -1.0733 -0.6902  0.8162
  156OSM   H11F17477   2.439   4.389   3.544 -0.9375  0.3260  0.2671
  156OSM   H11G17478   2.540   4.411   3.393 -1.0746 -0.4247  1.0596
  156OSM   C12F17479   2.631   4.285   3.538  1.0096 -0.2424  0.2081
  156OSM   H12F17480   2.715   4.320   3.474  0.3174 -1.4526 -1.4400
  156OSM   H12G17481   2.639   4.174   3.539  0.4232 -0.2882  0.2490
  156OSM   C13F17482   2.648   4.339   3.681  0.0935  0.5954  0.2347
  156OSM   H13F17483   2.627   4.448   3.686  0.3138  0.6202  0.7023
  156OSM   H13G17484   2.754   4.327   3.713  1.2250  3.0908 -2.1306
  156OSM   C14F17485   2.546   4.283   3.781  0.8607 -0.2727 -0.1576
  156OSM   H14F17486   2.583   4.185   3.820  0.5098 -0.7467 -0.9939
  156OSM   H14G17487   2.448   4.281   3.730  0.9189  1.3836 -0.3920
  156OSM   C15F17488   2.543   4.368   3.908 -0.0716 -1.0711  0.0802
  156OSM   H15F17489   2.645   4.404   3.934 -0.0131 -1.0083 -0.2349
  156OSM   H15G17490   2.500   4.308   3.991  2.6372 -1.6083  1.1994
  156OSM   C16F17491   2.446   4.483   3.890  0.5313 -0.1734 -0.6548
  156OSM   H16F17492   2.346   4.460   3.849  0.4988  1.3936 -1.5279
  156OSM   H16G17493   2.498   4.548   3.816  1.7656  0.6048  0.8367
  156OSM   C17F17494   2.408   4.562   4.015  0.8633 -0.1467 -0.0972
  156OSM   H17F17495   2.495   4.619   4.055  0.3657  2.1562 -2.0880
  156OSM   H17G17496   2.384   4.486   4.093  0.2651 -0.1552 -0.2842
  156OSM   C18F17497   2.292   4.654   4.012 -0.3721 -0.8228  0.2236
  156OSM   H18F17498   2.196   4.605   3.985 -0.7553  1.5424 -3.3934
  156OSM   H18G17499   2.296   4.734   3.935  3.0206  0.5440  1.6198
  156OSM   H18H17500   2.288   4.711   4.107  1.4212  1.6184 -1.0648
  157OSM      N17501   3.860   4.213   1.942 -0.3806  0.2357  1.1762
  157OSM    C1517502   3.720   4.210   1.970  0.3396  0.3177  0.1715
  157OSM   H15A17503   3.683   4.310   1.987 -1.8185 -0.4806  0.5537
  157OSM   H15B17504   3.691   4.145   2.051 -0.5459 -0.7608 -0.9576
  157OSM   H15C17505   3.659   4.170   1.889  0.7219  4.0903 -2.2387
  157OSM    C1417506   3.879   4.298   1.817 -0.3175  0.4864 -0.1100
  157OSM   H14A17507   3.978   4.285   1.776  1.2288  1.3432  3.0327
  157OSM   H14B17508   3.868   4.399   1.855 -2.6849 -0.3140  1.6211
  157OSM   H14C17509   3.809   4.266   1.742  0.7107  0.7063 -1.1955
  157OSM    C1317510   3.930   4.278   2.055 -0.1574 -0.4845  0.2644
  157OSM   H13A17511   3.902   4.382   2.065  0.1189 -0.4775  1.0897
  157OSM   H13B17512   4.037   4.273   2.039  0.1602  0.4330  1.8340
  157OSM   H13C17513   3.897   4.226   2.143 -1.8501 -0.4132 -0.2910
  157OSM    C1217514   3.917   4.072   1.915 -0.3581  0.5548 -0.8653
  157OSM   H12A17515   4.022   4.089   1.898 -0.0846 -0.8633 -0.7219
  157OSM   H12B17516   3.869   4.028   1.828 -0.6026 -3.3919  1.0551
  157OSM    C1117517   3.878   3.971   2.023 -0.2592  0.0672  0.1023
  157OSM   H11A17518   3.866   4.027   2.118 -1.4629  0.9978 -0.5803
  157OSM   H11B17519   3.953   3.889   2.034 -0.5961 -0.5240 -1.6955
  157OSM      P17520   3.689   3.831   2.122 -0.1983 -0.0582  0.6390
  157OSM    O1317521   3.570   3.756   2.078  0.2271 -0.2924  0.0369
  157OSM    O1417522   3.801   3.758   2.186 -0.3458 -0.5597  0.0698
  157OSM    O1117523   3.644   3.950   2.216 -0.3504  0.1732 -0.1476
  157OSM    O1217524   3.748   3.913   2.008 -0.7624 -0.3891  0.1380
  157OSM    C1S17525   3.556   3.932   2.325  0.4474  0.6173 -0.7697
  157OSM    H1S17526   3.594   3.855   2.395 -1.6885  0.8942  0.8160
  157OSM    H1T17527   3.451   3.905   2.301 -0.0803  0.5221  1.3892
  157OSM     NF17528   3.491   4.048   2.542  0.4926 -0.3467  0.3746
  157OSM    HNF17529   3.401   4.088   2.559 -0.1754 -1.1809 -1.0294
  157OSM    C2S17530   3.547   4.072   2.402  0.4787 -0.2047 -0.4665
  157OSM    H2S17531   3.652   4.107   2.414  0.4869 -0.0619 -0.9460
  157OSM    C3S17532   3.471   4.175   2.319  0.2459  0.5934 -0.2039
  157OSM    H3S17533   3.369   4.133   2.310  0.2260  0.1101  1.7859
  157OSM     O317534   3.521   4.175   2.188 -0.5737 -0.4706  0.2307
  157OSM    HO317535   3.557   4.087   2.177  1.6688  0.4691 -0.3472
  157OSM    C4S17536   3.469   4.312   2.370  0.2089 -0.4571 -0.3764
  157OSM    H4S17537   3.394   4.330   2.448  0.4635 -0.1650 -0.1930
  157OSM    C5S17538   3.557   4.405   2.337  0.6736  0.2610  0.3190
  157OSM    H5S17539   3.625   4.384   2.253  0.4826  1.6409 -0.2034
  157OSM    C6S17540   3.566   4.542   2.387 -0.2883 -0.1929 -0.3080
  157OSM    H6S17541   3.474   4.574   2.440 -0.5997 -0.2080 -0.8315
  157OSM    H6T17542   3.564   4.604   2.295 -1.2943 -0.2450 -0.3329
  157OSM    C7S17543   3.693   4.585   2.474  0.1432 -0.1418 -0.2293
  157OSM    H7S17544   3.690   4.696   2.477  1.6068 -0.0869 -0.1622
  157OSM    H7T17545   3.783   4.549   2.420 -0.1547  0.0805 -0.8803
  157OSM    C8S17546   3.700   4.522   2.615  1.0289 -0.1031 -0.5389
  157OSM    H8S17547   3.809   4.522   2.635  1.1608 -2.0148 -1.1140
  157OSM    H8T17548   3.673   4.415   2.605  0.2442 -0.0483  0.7275
  157OSM    C9S17549   3.610   4.597   2.719 -0.8622  0.8756 -0.1950
  157OSM    H9S17550   3.503   4.582   2.693 -0.5391  1.5308 -1.9913
  157OSM    H9T17551   3.625   4.707   2.723 -0.7165  0.8986 -1.2550
  157OSM   C10S17552   3.617   4.539   2.863  0.3918  0.4912  0.3281
  157OSM   H10S17553   3.552   4.594   2.935  0.6286 -0.6734  1.4602
  157OSM   H10T17554   3.722   4.554   2.899  0.0116 -3.0326  3.5759
  157OSM   C11S17555   3.592   4.392   2.877 -0.2233 -0.1923  0.4549
  157OSM   H11S17556   3.678   4.336   2.833 -0.1049 -0.7620  1.3834
  157OSM   H11T17557   3.500   4.350   2.832  0.6077 -3.1494  1.2588
  157OSM   C12S17558   3.591   4.361   3.026 -0.5724  0.1071 -0.2942
  157OSM   H12S17559   3.679   4.406   3.078 -0.1666 -2.6395  1.6402
  157OSM   H12T17560   3.604   4.251   3.031  0.0444  0.1034 -1.6911
  157OSM   C13S17561   3.459   4.392   3.096 -0.5187 -0.3285 -0.1429
  157OSM   H13S17562   3.376   4.333   3.052 -1.9423  0.9680  0.6960
  157OSM   H13T17563   3.429   4.499   3.085 -0.6971 -0.2987  0.5415
  157OSM   C14S17564   3.462   4.384   3.248  0.1426 -0.2566  0.3051
  157OSM   H14S17565   3.536   4.444   3.305  0.1573 -0.9143  0.9924
  157OSM   H14T17566   3.492   4.280   3.274 -0.6339 -0.5483  0.0641
  157OSM   C15S17567   3.331   4.418   3.321 -0.1143  0.5567  0.4034
  157OSM   H15S17568   3.253   4.350   3.280  0.9304 -0.6319  0.3297
  157OSM   H15T17569   3.296   4.520   3.296 -0.5203  0.0826 -1.0536
  157OSM   C16S17570   3.332   4.388   3.470 -0.3433 -0.3598 -0.1043
  157OSM   H16S17571   3.362   4.281   3.475 -1.4808 -0.7020 -0.3720
  157OSM   H16T17572   3.225   4.377   3.496  0.1374 -3.2591  0.9444
  157OSM   C17S17573   3.419   4.480   3.550  0.1836  0.7439  0.3400
  157OSM   H17S17574   3.408   4.587   3.523  1.9405  1.3034  1.6031
  157OSM   H17T17575   3.523   4.442   3.534 -1.3903 -3.3612 -1.5013
  157OSM   C18S17576   3.372   4.469   3.700 -0.2655 -0.1178  0.0078
  157OSM   H18S17577   3.293   4.548   3.707  1.1616  1.3601  0.0329
  157OSM   H18T17578   3.452   4.497   3.771 -1.2336 -0.0294  1.0940
  157OSM   H18U17579   3.330   4.371   3.730 -0.4271  0.2523  1.0061
  157OSM    C1F17580   3.560   3.975   2.630 -0.2349  0.5890 -0.0543
  157OSM     OF17581   3.671   3.929   2.589  0.3918  0.2997 -0.4612
  157OSM    C2F17582   3.504   3.956   2.765  0.7849 -0.1295 -0.3483
  157OSM    H2F17583   3.404   3.907   2.766 -0.2354  1.7934  1.8207
  157OSM    H2G17584   3.497   4.052   2.819  0.7033 -0.8903  1.0353
  157OSM    C3F17585   3.603   3.883   2.856  0.0992  0.2639  0.0336
  157OSM    H3F17586   3.689   3.948   2.881 -0.1342 -0.0396  1.8063
  157OSM    H3G17587   3.641   3.792   2.804 -3.2011  0.3642 -2.9458
  157OSM    C4F17588   3.539   3.838   2.987  0.2442 -0.0362 -0.2281
  157OSM    H4F17589   3.612   3.769   3.035 -0.5443 -0.6767  0.0834
  157OSM    H4G17590   3.447   3.781   2.963  0.0159  0.2361 -0.0109
  157OSM    C5F17591   3.509   3.952   3.085 -0.0306 -0.2333 -0.0431
  157OSM    H5F17592   3.418   4.009   3.056  0.6367  0.1708 -1.4459
  157OSM    H5G17593   3.591   4.026   3.097 -1.1022  0.9780  0.0308
  157OSM    C6F17594   3.475   3.894   3.227  0.4953 -0.3502 -0.8281
  157OSM    H6F17595   3.557   3.824   3.253 -2.2881 -3.1943  1.1751
  157OSM    H6G17596   3.380   3.838   3.209  0.3127 -0.5283  0.5644
  157OSM    C7F17597   3.458   4.003   3.331  0.6633 -1.2412  0.2251
  157OSM    H7F17598   3.401   4.087   3.285 -1.8949 -2.2312  1.3959
  157OSM    H7G17599   3.559   4.043   3.357  0.2595  0.1242 -0.2164
  157OSM    C8F17600   3.391   3.966   3.463 -0.0494  0.9210 -0.0222
  157OSM    H8F17601   3.289   3.930   3.438  0.7228 -0.9568 -0.6388
  157OSM    H8G17602   3.373   4.057   3.524 -1.6287 -0.5969  1.8950
  157OSM    C9F17603   3.472   3.862   3.543  0.2124  0.2706 -0.4428
  157OSM    H9F17604   3.505   3.771   3.490  0.9919  0.6605 -0.6309
  157OSM   C10F17605   3.503   3.870   3.671  0.0083  0.5131 -0.3359
  157OSM   H10F17606   3.549   3.782   3.718 -0.2994 -0.4332 -1.7295
  157OSM   C11F17607   3.441   3.966   3.768  0.3445 -0.0755  0.5430
  157OSM   H11F17608   3.342   4.000   3.730 -0.7254 -2.8790  0.5666
  157OSM   H11G17609   3.500   4.060   3.777 -0.0308  0.3503 -1.0753
  157OSM   C12F17610   3.403   3.902   3.905 -0.2961 -0.3536  0.6311
  157OSM   H12F17611   3.346   3.806   3.898  0.1892 -0.6136  0.2069
  157OSM   H12G17612   3.325   3.971   3.945 -2.5352 -1.0121 -2.2341
  157OSM   C13F17613   3.532   3.884   3.986  0.0326  0.1371 -0.8401
  157OSM   H13F17614   3.582   3.978   4.016  2.4040 -1.4966  0.6651
  157OSM   H13G17615   3.587   3.810   3.925  1.1097  0.2421 -0.0196
  157OSM   C14F17616   3.501   3.805   4.114  0.3133 -0.1971  0.3118
  157OSM   H14F17617   3.471   3.702   4.084 -3.4776  1.0237 -0.6740
  157OSM   H14G17618   3.412   3.858   4.154 -0.9734 -1.2049 -1.0440
  157OSM   C15F17619   3.609   3.809   4.211  0.9028  0.6559  0.3549
  157OSM   H15F17620   3.655   3.910   4.219  0.6128  0.8153  0.0463
  157OSM   H15G17621   3.685   3.750   4.155 -0.5766 -1.9972  0.9798
  157OSM   C16F17622   3.582   3.739   4.342  0.5702 -0.4202 -0.2065
  157OSM   H16F17623   3.504   3.787   4.406  2.0776  1.2354  0.4745
  157OSM   H16G17624   3.669   3.745   4.411 -0.5832 -0.7399  1.3271
  157OSM   C17F17625   3.558   3.596   4.313  0.6665 -1.0560 -0.4037
  157OSM   H17F17626   3.597   3.579   4.210 -4.3740  2.0251 -3.2429
  157OSM   H17G17627   3.448   3.578   4.308  0.6575 -2.3258  2.3893
  157OSM   C18F17628   3.617   3.494   4.409 -0.1476 -0.4756  0.1928
  157OSM   H18F17629   3.728   3.496   4.413 -0.1679  1.7880  1.9791
  157OSM   H18G17630   3.597   3.391   4.372  1.4980 -1.8176  2.7362
  157OSM   H18H17631   3.580   3.508   4.512 -1.3218  1.1886 -0.4122
  158OSM      N17632   0.163   2.526   1.772  0.1121  0.4942 -0.0769
  158OSM    C1517633   0.236   2.422   1.696 -0.3832 -0.0117  0.1398
  158OSM   H15A17634   0.329   2.410   1.749  0.0737 -0.0465 -0.6495
  158OSM   H15B17635   0.278   2.448   1.600  0.6131 -2.3872 -0.1628
  158OSM   H15C17636   0.189   2.325   1.694 -1.5281  0.5363 -0.7745
  158OSM    C1417637   0.224   2.653   1.736 -1.0352  0.2426  0.1665
  158OSM   H14A17638   0.184   2.734   1.796 -1.5434  1.4282 -1.6841
  158OSM   H14B17639   0.209   2.688   1.635  1.1691  1.3120  0.1404
  158OSM   H14C17640   0.326   2.646   1.770 -0.6471  0.4214 -0.9394
  158OSM    C1317641   0.014   2.529   1.724  0.1208  0.2034  0.1550
  158OSM   H13A17642   0.013   2.564   1.622  1.3877 -2.2541 -0.7936
  158OSM   H13B17643  -0.049   2.593   1.783 -0.3954  1.0837 -1.3147
  158OSM   H13C17644  -0.024   2.428   1.720  2.6536 -0.7840 -0.9531
  158OSM    C1217645   0.166   2.508   1.922  0.0226  0.7755 -0.1129
  158OSM   H12A17646   0.108   2.589   1.962 -2.3225  0.2600 -2.2020
  158OSM   H12B17647   0.268   2.528   1.950  0.1440  3.9639 -2.2830
  158OSM    C1117648   0.135   2.366   1.984 -0.0276 -0.3711  0.2110
  158OSM   H11A17649   0.035   2.338   1.945 -0.8353  3.0399 -0.4808
  158OSM   H11B17650   0.120   2.377   2.093  0.5343 -1.8425  0.4681
  158OSM      P17651   0.374   2.288   2.030  0.0125  0.2387  0.2615
  158OSM    O1317652   0.459   2.173   1.994  0.5778  0.2646 -0.1514
  158OSM    O1417653   0.426   2.413   1.988 -0.6080  0.1443 -0.4912
  158OSM    O1117654   0.344   2.283   2.182  0.0562 -0.1738  0.0029
  158OSM    O1217655   0.232   2.264   1.964  0.0410 -0.4851  0.2471
  158OSM    C1S17656   0.331   2.389   2.278 -0.6370  0.0009 -0.5807
  158OSM    H1S17657   0.223   2.415   2.287 -0.3720  0.4396  2.7952
  158OSM    H1T17658   0.385   2.476   2.235  0.9924 -0.6836  0.0161
  158OSM     NF17659   0.366   2.468   2.502 -0.0043  0.2259 -0.4752
  158OSM    HNF17660   0.446   2.528   2.506  0.4423 -0.3983  2.7359
  158OSM    C2S17661   0.379   2.352   2.422 -0.0158  0.2990  0.3217
  158OSM    H2S17662   0.315   2.270   2.461  0.7319 -0.1768  0.5613
  158OSM    C3S17663   0.521   2.294   2.422 -0.4122 -0.0393  0.5459
  158OSM    H3S17664   0.589   2.375   2.389 -0.5911 -0.8951 -2.2022
  158OSM     O317665   0.547   2.190   2.326 -0.0647 -0.1274 -0.2197
  158OSM    HO317666   0.464   2.177   2.280  0.1244 -1.2752 -0.2603
  158OSM    C4S17667   0.565   2.257   2.561 -0.1600 -0.2551 -0.3414
  158OSM    H4S17668   0.598   2.344   2.621 -0.6781 -0.0900 -0.2857
  158OSM    C5S17669   0.548   2.138   2.620  0.0721  0.1072 -0.5067
  158OSM    H5S17670   0.493   2.060   2.565  0.4401 -0.5357  0.0208
  158OSM    C6S17671   0.574   2.111   2.769 -0.3341  0.5043  0.9460
  158OSM    H6S17672   0.669   2.053   2.766  0.5418  1.8772  0.9406
  158OSM    H6T17673   0.493   2.048   2.812  0.8030 -0.9776  1.0038
  158OSM    C7S17674   0.598   2.227   2.862  0.7106  0.2362  0.1564
  158OSM    H7S17675   0.498   2.277   2.870 -0.2159 -1.5371  0.1126
  158OSM    H7T17676   0.676   2.295   2.820 -0.2668 -0.5451 -3.2965
  158OSM    C8S17677   0.632   2.187   2.999 -0.0096 -0.4655 -0.7726
  158OSM    H8S17678   0.730   2.136   3.011  0.8225  1.5829  2.3545
  158OSM    H8T17679   0.554   2.116   3.033  0.5301 -0.9236 -0.4743
  158OSM    C9S17680   0.636   2.307   3.096 -0.4197  0.4825  0.4855
  158OSM    H9S17681   0.539   2.361   3.106 -0.9289 -0.1256 -0.9591
  158OSM    H9T17682   0.702   2.382   3.047  2.2459 -0.0125  3.0156
  158OSM   C10S17683   0.708   2.273   3.235 -0.1655  0.1238  0.2588
  158OSM   H10S17684   0.810   2.231   3.222  1.2719  2.7045  2.3875
  158OSM   H10T17685   0.643   2.209   3.299  0.3521 -0.2898  0.3725
  158OSM   C11S17686   0.726   2.405   3.314 -0.1813 -0.2265 -0.2294
  158OSM   H11S17687   0.630   2.447   3.353 -0.8372 -0.4434 -1.5597
  158OSM   H11T17688   0.748   2.476   3.232 -1.5360 -0.7385 -1.0758
  158OSM   C12S17689   0.831   2.400   3.424 -0.0061  1.0135  0.2967
  158OSM   H12S17690   0.828   2.494   3.482  0.7455  0.7409  0.8043
  158OSM   H12T17691   0.932   2.394   3.378 -0.6968  2.7534 -1.5554
  158OSM   C13S17692   0.818   2.281   3.520 -0.4603 -0.0102 -0.0243
  158OSM   H13S17693   0.795   2.180   3.478 -0.6764  0.5769 -1.3726
  158OSM   H13T17694   0.729   2.320   3.574  1.7794  2.4465  2.1247
  158OSM   C14S17695   0.928   2.271   3.623 -0.8468  0.1133  0.0990
  158OSM   H14S17696   0.965   2.373   3.647  1.4315 -0.4697 -0.6422
  158OSM   H14T17697   1.017   2.218   3.581 -0.9170 -0.0558  0.1625
  158OSM   C15S17698   0.869   2.225   3.760 -0.2066  0.4374  0.6023
  158OSM   H15S17699   0.821   2.125   3.753 -1.8567  1.3022 -1.9254
  158OSM   H15T17700   0.781   2.293   3.765 -1.0363 -0.5688  0.2189
  158OSM   C16S17701   0.975   2.224   3.869 -0.2379  0.8629 -0.5463
  158OSM   H16S17702   1.030   2.320   3.872  0.5364  0.4003  0.5637
  158OSM   H16T17703   1.060   2.153   3.857 -0.2605  0.4283  1.5823
  158OSM   C17S17704   0.918   2.202   4.011  0.1827 -0.6715  0.0784
  158OSM   H17S17705   0.830   2.269   4.019  0.3674 -0.4779  0.5122
  158OSM   H17T17706   1.000   2.236   4.077 -1.2914  1.7470  0.7894
  158OSM   C18S17707   0.881   2.060   4.035  0.4382  0.7524 -0.1828
  158OSM   H18S17708   0.854   2.054   4.143  0.0267  0.4661 -0.2974
  158OSM   H18T17709   0.970   1.996   4.015  1.4904  2.0942  0.0824
  158OSM   H18U17710   0.799   2.024   3.969  2.3967  0.2558 -2.4668
  158OSM    C1F17711   0.247   2.513   2.540 -0.1703 -0.0201  0.1363
  158OSM     OF17712   0.140   2.448   2.540  0.2581 -0.1592  0.1677
  158OSM    C2F17713   0.250   2.661   2.572  0.3826  0.0127  0.6026
  158OSM    H2F17714   0.226   2.715   2.478 -0.6825  2.2178  2.0475
  158OSM    H2G17715   0.356   2.693   2.580 -0.0784  1.7094  0.3068
  158OSM    C3F17716   0.159   2.722   2.686 -0.3912 -0.1715 -0.1883
  158OSM    H3F17717   0.053   2.694   2.669  0.2633 -2.2618 -1.1836
  158OSM    H3G17718   0.170   2.833   2.688  1.6111 -0.3453  1.5173
  158OSM    C4F17719   0.200   2.668   2.825 -0.4462 -0.4385  0.4913
  158OSM    H4F17720   0.201   2.558   2.812  0.9680 -0.5237  1.1214
  158OSM    H4G17721   0.128   2.699   2.904  0.0573  0.0833  0.7527
  158OSM    C5F17722   0.330   2.730   2.870 -0.0818  0.3453 -0.1455
  158OSM    H5F17723   0.314   2.839   2.877 -0.7888  0.1821  0.9701
  158OSM    H5G17724   0.414   2.715   2.798 -0.2298  1.0354 -0.4723
  158OSM    C6F17725   0.368   2.670   3.005  0.6381 -0.7233 -0.6461
  158OSM    H6F17726   0.382   2.560   3.008  0.0677 -0.7813  0.1025
  158OSM    H6G17727   0.287   2.690   3.077  2.1073 -0.3594  0.9669
  158OSM    C7F17728   0.496   2.738   3.069 -0.0168  0.3416 -0.1115
  158OSM    H7F17729   0.491   2.848   3.059  0.1800  0.2364 -1.6173
  158OSM    H7G17730   0.589   2.703   3.018 -0.5009 -3.7663  1.4339
  158OSM    C8F17731   0.524   2.701   3.223 -0.0195 -0.1537  0.0126
  158OSM    H8F17732   0.618   2.753   3.254 -0.4962  0.5167  0.3698
  158OSM    H8G17733   0.543   2.592   3.234 -1.8283 -0.4465  0.6062
  158OSM    C9F17734   0.414   2.753   3.320 -0.9412  0.0466  0.4423
  158OSM    H9F17735   0.330   2.799   3.267 -1.0818 -0.4388  0.2331
  158OSM   C10F17736   0.412   2.757   3.446 -0.2635 -0.5663 -0.5424
  158OSM   H10F17737   0.336   2.812   3.505  1.1882 -0.4110  1.2768
  158OSM   C11F17738   0.529   2.714   3.530  0.1531  0.1519 -0.9969
  158OSM   H11F17739   0.569   2.798   3.592  1.3625 -0.3252 -1.1102
  158OSM   H11G17740   0.612   2.671   3.471  1.3092  1.4302 -0.3457
  158OSM   C12F17741   0.477   2.607   3.628 -0.3428 -0.0454  0.0709
  158OSM   H12F17742   0.449   2.516   3.569 -0.2534 -0.1706  0.2203
  158OSM   H12G17743   0.387   2.647   3.679  0.3086  2.3230 -0.5173
  158OSM   C13F17744   0.583   2.573   3.728  0.2941  0.8865 -0.9985
  158OSM   H13F17745   0.629   2.658   3.783  0.4576 -0.6899  1.5000
  158OSM   H13G17746   0.664   2.523   3.670  0.6351  1.5917 -1.1315
  158OSM   C14F17747   0.532   2.473   3.835  0.3995  0.2579  0.7237
  158OSM   H14F17748   0.618   2.433   3.893  0.7942 -0.1509 -0.1316
  158OSM   H14G17749   0.470   2.389   3.795 -0.4731  0.4319  1.6660
  158OSM   C15F17750   0.443   2.533   3.946 -0.6002  0.0635  0.0206
  158OSM   H15F17751   0.414   2.444   4.006  1.0170 -0.0535  0.6581
  158OSM   H15G17752   0.348   2.570   3.900 -0.8397  1.2010  1.3730
  158OSM   C16F17753   0.502   2.649   4.023 -0.4517  1.1376  0.1588
  158OSM   H16F17754   0.554   2.718   3.952 -0.4200  2.3414  1.3094
  158OSM   H16G17755   0.584   2.610   4.087 -0.2228  0.1849 -0.6822
  158OSM   C17F17756   0.400   2.727   4.108  0.5656 -0.5401  0.1083
  158OSM   H17F17757   0.334   2.771   4.030 -0.0024  0.0663  0.9157
  158OSM   H17G17758   0.438   2.812   4.168  0.2411  0.7270 -1.4222
  158OSM   C18F17759   0.319   2.644   4.202 -0.1047  0.2181  0.3919
  158OSM   H18F17760   0.249   2.708   4.260 -2.3970 -1.7543 -0.0170
  158OSM   H18G17761   0.383   2.598   4.281 -0.6717 -0.1528  0.6407
  158OSM   H18H17762   0.261   2.563   4.153 -0.1233  0.6428 -0.2930
  159OSM      N17763   2.184   6.400   2.190 -0.1630 -0.1538 -0.2269
  159OSM    C1517764   2.295   6.315   2.235  0.1084  0.0285 -0.4507
  159OSM   H15A17765   2.271   6.269   2.329 -0.5332 -0.2685 -0.7474
  159OSM   H15B17766   2.387   6.372   2.241 -0.9680  1.6522  2.3716
  159OSM   H15C17767   2.298   6.230   2.168 -1.2887 -0.7891  0.4668
  159OSM    C1417768   2.186   6.524   2.267 -0.0468 -0.1583 -0.0987
  159OSM   H14A17769   2.203   6.512   2.373  0.5355 -0.9227 -0.2777
  159OSM   H14B17770   2.098   6.585   2.251  1.1510  1.2891 -1.4628
  159OSM   H14C17771   2.258   6.590   2.221  0.2153  0.6592  1.3953
  159OSM    C1317772   2.212   6.433   2.053  0.0944  0.3595  0.1340
  159OSM   H13A17773   2.214   6.343   1.993 -1.3450  0.1328  0.3913
  159OSM   H13B17774   2.306   6.486   2.055 -0.6028  1.7466 -1.5552
  159OSM   H13C17775   2.142   6.507   2.016  1.4953  0.8971 -1.5635
  159OSM    C1217776   2.044   6.327   2.207  0.7347 -0.5908  0.3103
  159OSM   H12A17777   1.974   6.404   2.176  1.4453 -0.0160  0.0966
  159OSM   H12B17778   2.029   6.302   2.311 -0.1512 -1.2982  0.0331
  159OSM    C1117779   2.028   6.196   2.129  0.1885  1.2285  0.1409
  159OSM   H11A17780   2.080   6.213   2.033  0.0494  1.4229  0.0993
  159OSM   H11B17781   1.921   6.179   2.106  0.0382  0.8752  1.0468
  159OSM      P17782   2.038   5.993   2.300  0.0752 -0.0088 -0.0408
  159OSM    O1317783   1.934   6.055   2.381  0.1117 -0.3679 -0.4156
  159OSM    O1417784   2.008   5.868   2.223  0.6580 -0.1029  0.4683
  159OSM    O1117785   2.148   5.951   2.403 -0.1914 -0.3447  0.2467
  159OSM    O1217786   2.102   6.093   2.198 -0.2957 -0.1802 -0.1930
  159OSM    C1S17787   2.220   6.045   2.487 -0.5448  0.5503 -0.2106
  159OSM    H1S17788   2.161   6.138   2.499 -2.2528 -0.6216  0.8410
  159OSM    H1T17789   2.319   6.071   2.442  1.2780 -3.0025  1.3566
  159OSM     NF17790   2.283   6.079   2.726 -0.1094  0.4898 -0.5148
  159OSM    HNF17791   2.380   6.101   2.730  0.2595 -1.2306  1.3757
  159OSM    C2S17792   2.248   5.981   2.626 -0.0427 -0.3186  0.2181
  159OSM    H2S17793   2.153   5.931   2.651 -0.4048  0.4614  0.4189
  159OSM    C3S17794   2.349   5.869   2.608 -0.2537 -0.2038  0.3973
  159OSM    H3S17795   2.445   5.916   2.580 -0.1446 -1.4724 -1.5655
  159OSM     O317796   2.330   5.780   2.493 -0.1618  0.3156  0.0242
  159OSM    HO317797   2.262   5.830   2.446 -0.1972  1.2319  1.0131
  159OSM    C4S17798   2.369   5.787   2.730  0.4221  0.2210  0.1127
  159OSM    H4S17799   2.278   5.772   2.789 -1.1264  3.1913 -1.2887
  159OSM    C5S17800   2.486   5.763   2.784  0.5803  0.7012 -0.3459
  159OSM    H5S17801   2.574   5.819   2.750 -0.2879  1.3380 -1.6217
  159OSM    C6S17802   2.498   5.681   2.914 -0.1651 -0.0852 -0.4003
  159OSM    H6S17803   2.559   5.737   2.988 -1.7656 -0.0493  0.9384
  159OSM    H6T17804   2.552   5.586   2.896 -2.1828 -1.2337 -0.6779
  159OSM    C7S17805   2.364   5.651   2.985  0.3619 -0.2672  0.2352
  159OSM    H7S17806   2.287   5.598   2.925 -2.0402  0.7481  2.2321
  159OSM    H7T17807   2.317   5.748   3.012  1.3261 -0.0726  1.3025
  159OSM    C8S17808   2.373   5.562   3.116 -0.0035 -0.9138  0.0864
  159OSM    H8S17809   2.387   5.455   3.092  2.3119 -0.2232 -2.0483
  159OSM    H8T17810   2.270   5.559   3.157  0.3291  0.9678  1.1711
  159OSM    C9S17811   2.458   5.619   3.222 -0.1415 -0.1610 -0.2958
  159OSM    H9S17812   2.439   5.726   3.245 -0.1814 -0.1992 -0.1531
  159OSM    H9T17813   2.562   5.613   3.183  0.2438  3.7011 -0.3035
  159OSM   C10S17814   2.446   5.552   3.361  0.2435 -0.1416 -0.0609
  159OSM   H10S17815   2.462   5.445   3.337  2.4526  0.0176  0.5140
  159OSM   H10T17816   2.342   5.546   3.399  0.8149 -0.8313  1.4443
  159OSM   C11S17817   2.549   5.609   3.465  0.7284 -0.6678 -0.3071
  159OSM   H11S17818   2.525   5.717   3.471 -2.0372 -1.2958  1.2705
  159OSM   H11T17819   2.648   5.587   3.419  0.3530  0.6343 -1.8237
  159OSM   C12S17820   2.541   5.550   3.602 -0.2755 -0.0708 -0.3159
  159OSM   H12S17821   2.555   5.441   3.582 -1.1046 -0.5449  1.4528
  159OSM   H12T17822   2.441   5.571   3.647 -0.3485 -2.5010  0.8783
  159OSM   C13S17823   2.652   5.617   3.693  0.9182  0.1034 -0.2326
  159OSM   H13S17824   2.601   5.709   3.730 -0.1400 -0.3709 -0.4756
  159OSM   H13T17825   2.744   5.648   3.637  1.0046  0.7416  0.2488
  159OSM   C14S17826   2.692   5.524   3.810 -0.2493  0.0741  0.0164
  159OSM   H14S17827   2.785   5.556   3.860 -1.8228  2.5053  1.6144
  159OSM   H14T17828   2.695   5.421   3.768  0.4567  0.7294 -1.6374
  159OSM   C15S17829   2.586   5.533   3.926  0.2287  0.5187 -0.6220
  159OSM   H15S17830   2.492   5.487   3.888 -0.2148  1.2087 -0.3668
  159OSM   H15T17831   2.568   5.640   3.950  2.1579  0.7657 -0.0457
  159OSM   C16S17832   2.635   5.444   4.048  0.5580 -0.3143 -0.2919
  159OSM   H16S17833   2.733   5.480   4.085 -0.1379 -0.6465  2.0263
  159OSM   H16T17834   2.663   5.341   4.014  0.0121 -0.2512 -0.9504
  159OSM   C17S17835   2.541   5.429   4.171  0.3257 -0.3848  0.7486
  159OSM   H17S17836   2.443   5.386   4.138  1.3014 -2.4084  0.3596
  159OSM   H17T17837   2.519   5.532   4.207 -0.9908  0.3294 -1.7903
  159OSM   C18S17838   2.591   5.342   4.287 -0.1918 -0.1528 -0.3153
  159OSM   H18S17839   2.515   5.351   4.368  1.1605 -1.0468  1.1026
  159OSM   H18T17840   2.686   5.383   4.328 -0.7476  0.8535 -0.0000
  159OSM   H18U17841   2.613   5.241   4.247 -1.7768 -0.3280 -0.7985
  159OSM    C1F17842   2.188   6.156   2.782 -1.3242  0.0515 -0.0422
  159OSM     OF17843   2.067   6.134   2.764  0.1203 -0.0656  0.3548
  159OSM    C2F17844   2.234   6.271   2.864  0.3808 -0.5173 -0.2728
  159OSM    H2F17845   2.197   6.368   2.826  0.7557 -0.3296 -0.1636
  159OSM    H2G17846   2.344   6.285   2.864  0.1946  1.0799 -0.2526
  159OSM    C3F17847   2.197   6.252   3.012 -0.6211 -0.1166 -0.2315
  159OSM    H3F17848   2.246   6.157   3.043  0.5300  0.0671 -1.3978
  159OSM    H3G17849   2.091   6.233   3.042 -0.3592 -0.0922  0.7583
  159OSM    C4F17850   2.259   6.360   3.105  0.0701 -0.1928 -0.0925
  159OSM    H4F17851   2.228   6.462   3.072 -0.0734 -0.2564 -0.1558
  159OSM    H4G17852   2.370   6.362   3.107  0.1623  0.3525 -2.6812
  159OSM    C5F17853   2.212   6.352   3.255  0.6942  0.3910  1.1973
  159OSM    H5F17854   2.238   6.256   3.305  1.7192 -1.8956 -3.2228
  159OSM    H5G17855   2.102   6.360   3.274  0.4978 -3.6255  2.7254
  159OSM    C6F17856   2.262   6.469   3.331 -0.0838  0.7116 -1.1418
  159OSM    H6F17857   2.224   6.570   3.306  0.0887  0.8083 -1.0132
  159OSM    H6G17858   2.373   6.467   3.324  0.1095 -0.8374  1.1286
  159OSM    C7F17859   2.225   6.458   3.485  0.5175  0.2850  0.7173
  159OSM    H7F17860   2.275   6.366   3.523  0.9562  0.1908 -0.0667
  159OSM    H7G17861   2.115   6.446   3.476  0.5942  0.3908 -0.6392
  159OSM    C8F17862   2.272   6.588   3.555  0.7711  1.0735 -0.6128
  159OSM    H8F17863   2.239   6.678   3.499 -1.0747  0.9625  0.1963
  159OSM    H8G17864   2.381   6.603   3.565  1.4171 -1.9133 -1.9583
  159OSM    C9F17865   2.206   6.581   3.695  0.3052 -0.1433  0.0894
  159OSM    H9F17866   2.234   6.495   3.757 -0.1700 -2.0835 -2.1999
  159OSM   C10F17867   2.112   6.662   3.739 -0.3975 -0.1367  0.1152
  159OSM   H10F17868   2.072   6.644   3.840 -1.5134 -0.8174 -0.4287
  159OSM   C11F17869   2.051   6.785   3.675  0.3116 -0.0321 -0.2188
  159OSM   H11F17870   2.047   6.760   3.567  0.9967  0.6824 -0.4191
  159OSM   H11G17871   2.114   6.874   3.697 -0.1953 -0.5941  4.7505
  159OSM   C12F17872   1.900   6.814   3.710 -0.4371 -0.0376  0.1514
  159OSM   H12F17873   1.913   6.842   3.817  0.1546 -0.8633  0.3003
  159OSM   H12G17874   1.847   6.717   3.708  1.1669 -0.9306 -1.9819
  159OSM   C13F17875   1.837   6.923   3.612  0.1747  0.5880  0.5025
  159OSM   H13F17876   1.728   6.933   3.633  0.5668  2.2176  2.0374
  159OSM   H13G17877   1.840   6.892   3.506 -0.8383 -2.5026  1.2553
  159OSM   C14F17878   1.909   7.059   3.619  0.2114  0.5794 -0.0294
  159OSM   H14F17879   2.013   7.054   3.580 -0.5841  3.1596 -2.8776
  159OSM   H14G17880   1.920   7.098   3.722 -1.1120 -1.7993  1.1002
  159OSM   C15F17881   1.836   7.160   3.541 -0.2228 -0.8823  0.7709
  159OSM   H15F17882   1.889   7.257   3.555  1.5417 -1.6561 -0.2609
  159OSM   H15G17883   1.735   7.184   3.581 -1.3398 -0.6045 -1.9784
  159OSM   C16F17884   1.825   7.127   3.389  0.0677  1.0246 -0.9574
  159OSM   H16F17885   1.763   7.034   3.390  0.1426  0.9732 -1.0201
  159OSM   H16G17886   1.925   7.105   3.345 -0.7052  0.9155 -2.7807
  159OSM   C17F17887   1.757   7.244   3.310 -0.1451  0.8844  0.1950
  159OSM   H17F17888   1.820   7.335   3.326  2.7444 -0.3517 -2.9477
  159OSM   H17G17889   1.657   7.269   3.352  0.1635 -1.2043  2.3545
  159OSM   C18F17890   1.750   7.218   3.158 -0.6845  0.2093  0.3059
  159OSM   H18F17891   1.855   7.210   3.122 -0.5886  0.8823  0.4123
  159OSM   H18G17892   1.691   7.298   3.107 -0.8518 -0.0180  0.1430
  159OSM   H18H17893   1.712   7.115   3.143 -0.4792  0.0795  0.6868
  160OSM      N17894   6.036   5.421   2.206 -0.2583 -0.0396  0.5334
  160OSM    C1517895   5.964   5.549   2.236  0.1860  0.4254 -0.5367
  160OSM   H15A17896   5.881   5.546   2.305  0.7397 -2.5243  0.1375
  160OSM   H15B17897   5.921   5.593   2.147 -1.6430  1.6520  0.8867
  160OSM   H15C17898   6.031   5.614   2.290  1.4761 -1.5819  0.4302
  160OSM    C1417899   5.939   5.312   2.198 -0.4336 -0.0356  0.3652
  160OSM   H14A17900   5.854   5.337   2.136 -0.5264 -1.5685 -0.1662
  160OSM   H14B17901   5.904   5.286   2.296 -0.4664  1.2144  0.7006
  160OSM   H14C17902   5.993   5.229   2.155 -0.4146  1.0462 -1.8360
  160OSM    C1317903   6.109   5.436   2.076 -0.5353  0.1134 -0.8043
  160OSM   H13A17904   6.149   5.340   2.049 -0.3643 -1.2578  3.6012
  160OSM   H13B17905   6.190   5.507   2.078 -0.7245  0.3132  0.7045
  160OSM   H13C17906   6.038   5.456   1.997 -1.2058  2.4498  0.3045
  160OSM    C1217907   6.142   5.385   2.322  0.2453 -0.3784  0.6066
  160OSM   H12A17908   6.186   5.287   2.314  1.2085  0.1156 -0.3963
  160OSM   H12B17909   6.081   5.389   2.411  1.7432 -1.8453  1.7474
  160OSM    C1117910   6.252   5.488   2.347 -0.6134 -0.1611  0.1922
  160OSM   H11A17911   6.296   5.493   2.449  2.2947  0.8192 -1.0153
  160OSM   H11B17912   6.221   5.593   2.330 -1.7888 -0.4800  0.2399
  160OSM      P17913   6.467   5.341   2.274 -0.2009 -0.0115 -0.2432
  160OSM    O1317914   6.401   5.214   2.319 -0.0388 -0.2884  0.1718
  160OSM    O1417915   6.554   5.330   2.152  0.0076  0.3346 -0.5770
  160OSM    O1117916   6.552   5.408   2.392 -0.6692 -0.4295 -0.7158
  160OSM    O1217917   6.364   5.462   2.256  0.1902  0.7871 -0.1507
  160OSM    C1S17918   6.521   5.402   2.532  0.3046 -0.2005 -1.2165
  160OSM    H1S17919   6.428   5.341   2.544  0.7196 -0.7271 -0.5853
  160OSM    H1T17920   6.488   5.501   2.570  0.2928  0.5830 -3.1958
  160OSM     NF17921   6.583   5.330   2.763 -0.2803 -0.7842 -0.2150
  160OSM    HNF17922   6.570   5.409   2.821 -0.3920  0.6180 -2.0635
  160OSM    C2S17923   6.636   5.350   2.629  0.4442 -0.1171  0.1327
  160OSM    H2S17924   6.660   5.253   2.580 -0.0704 -0.0944 -0.1666
  160OSM    C3S17925   6.760   5.439   2.630  0.0383 -0.6500  0.1326
  160OSM    H3S17926   6.727   5.544   2.644  3.0082  0.7667 -2.2712
  160OSM     O317927   6.821   5.436   2.500 -0.1684 -0.0440 -0.5237
  160OSM    HO317928   6.750   5.414   2.438 -0.0151  0.7758 -1.0068
  160OSM    C4S17929   6.859   5.401   2.740 -0.0787  0.4149  0.1614
  160OSM    H4S17930   6.809   5.433   2.833 -1.5236  3.1391 -1.4258
  160OSM    C5S17931   6.979   5.336   2.747 -0.1656  0.0394 -0.2964
  160OSM    H5S17932   7.028   5.305   2.654  0.0787 -0.2196 -0.0848
  160OSM    C6S17933   7.077   5.312   2.863  0.3168  0.2339  0.0048
  160OSM    H6S17934   7.165   5.379   2.859 -0.3205  1.0818 -0.1143
  160OSM    H6T17935   7.124   5.213   2.848  2.0911  1.2335 -1.5034
  160OSM    C7S17936   6.997   5.313   3.001 -0.0218 -0.4895 -0.6395
  160OSM    H7S17937   6.915   5.238   2.995  0.0405 -0.6871  0.5898
  160OSM    H7T17938   6.955   5.414   3.021 -0.5515 -0.7552 -0.3702
  160OSM    C8S17939   7.078   5.278   3.131 -0.0040 -0.5926  1.2797
  160OSM    H8S17940   7.017   5.313   3.217 -0.4135 -0.9636  1.1457
  160OSM    H8T17941   7.174   5.335   3.132 -0.1668 -0.3015  2.4518
  160OSM    C9S17942   7.116   5.129   3.144  0.1444  0.4545  0.4152
  160OSM    H9S17943   7.181   5.099   3.059  0.2885 -0.2117  0.7496
  160OSM    H9T17944   7.027   5.064   3.132  0.6037 -0.3558  1.1816
  160OSM   C10S17945   7.191   5.090   3.275  0.3148 -0.2385 -0.0128
  160OSM   H10S17946   7.136   5.132   3.362 -0.5778  0.0807 -0.7141
  160OSM   H10T17947   7.292   5.136   3.265  0.4205 -0.2368  0.9612
  160OSM   C11S17948   7.216   4.935   3.274  0.3331 -0.3606 -0.0680
  160OSM   H11S17949   7.304   4.919   3.207 -0.3026 -0.9925 -0.7742
  160OSM   H11T17950   7.123   4.894   3.229 -1.2842 -1.1757  3.6650
  160OSM   C12S17951   7.243   4.872   3.412  0.0897 -0.1265 -0.5838
  160OSM   H12S17952   7.323   4.925   3.468 -0.1022  0.3526 -0.7556
  160OSM   H12T17953   7.278   4.769   3.389 -0.1503 -0.2935 -0.2084
  160OSM   C13S17954   7.112   4.875   3.493  0.7419 -0.0622 -0.4612
  160OSM   H13S17955   7.061   4.780   3.467 -0.2541  0.4218 -0.3507
  160OSM   H13T17956   7.046   4.959   3.461 -1.4902 -1.5682 -0.0473
  160OSM   C14S17957   7.132   4.898   3.645  0.4545 -0.3977 -0.0259
  160OSM   H14S17958   7.134   5.008   3.658 -2.7821 -0.4652  2.3182
  160OSM   H14T17959   7.228   4.860   3.687  0.6890  0.9380  0.6932
  160OSM   C15S17960   7.012   4.862   3.731  0.2824 -0.4117 -0.0503
  160OSM   H15S17961   7.017   4.755   3.761 -0.9491 -0.3201  0.5470
  160OSM   H15T17962   6.918   4.889   3.679  0.4263  0.3820  0.0968
  160OSM   C16S17963   7.016   4.938   3.864 -0.1387 -0.2274 -0.2879
  160OSM   H16S17964   7.022   5.047   3.847 -1.5298 -0.4703 -2.8035
  160OSM   H16T17965   7.105   4.915   3.927 -0.9794 -0.6285  0.7982
  160OSM   C17S17966   6.884   4.930   3.949  1.0134  0.0228 -0.4070
  160OSM   H17S17967   6.869   4.830   3.995 -2.0196  0.7596  0.4240
  160OSM   H17T17968   6.795   4.939   3.884  0.4128 -0.0403  0.3912
  160OSM   C18S17969   6.891   5.034   4.059 -0.8148  0.2153 -0.4106
  160OSM   H18S17970   6.976   5.021   4.129  1.6492  4.1384 -2.2923
  160OSM   H18T17971   6.798   5.035   4.119 -0.7460  1.9585 -0.2618
  160OSM   H18U17972   6.920   5.132   4.015 -1.0855  0.0669 -0.9353
  160OSM    C1F17973   6.500   5.228   2.789  0.2936  0.3031 -0.0531
  160OSM     OF17974   6.471   5.147   2.703 -0.0025  0.1765  0.0347
  160OSM    C2F17975   6.440   5.225   2.928  0.0239  0.3644 -0.3695
  160OSM    H2F17976   6.358   5.151   2.930 -0.6436  1.0065 -2.0485
  160OSM    H2G17977   6.413   5.328   2.961  0.3774 -0.1416  1.6379
  160OSM    C3F17978   6.547   5.170   3.024 -0.0325  0.4992  0.2483
  160OSM    H3F17979   6.508   5.167   3.128 -0.2437  1.1521  0.1964
  160OSM    H3G17980   6.639   5.232   3.023  1.3812 -1.4782 -2.2174
  160OSM    C4F17981   6.611   5.036   2.986 -0.6754  0.0707 -0.3144
  160OSM    H4F17982   6.666   5.034   2.889  1.8856  0.6438  1.0342
  160OSM    H4G17983   6.521   4.971   2.979 -1.2839  0.9489 -0.7600
  160OSM    C5F17984   6.718   4.998   3.094 -0.0846  0.7048 -0.0439
  160OSM    H5F17985   6.748   5.087   3.154  0.6199  1.1742 -1.0578
  160OSM    H5G17986   6.805   4.966   3.033 -2.0597 -1.0969 -2.0992
  160OSM    C6F17987   6.686   4.870   3.176 -0.1330 -0.0391  0.4251
  160OSM    H6F17988   6.784   4.834   3.214 -0.6243 -1.2136  0.6006
  160OSM    H6G17989   6.656   4.796   3.099  0.3914  0.7013 -0.5196
  160OSM    C7F17990   6.584   4.885   3.287  0.0504 -0.4193 -0.2729
  160OSM    H7F17991   6.488   4.918   3.242 -0.4855 -0.9302  0.4680
  160OSM    H7G17992   6.604   4.956   3.370  2.5720 -1.1030 -0.2235
  160OSM    C8F17993   6.536   4.759   3.357 -0.2384  0.0308  0.4216
  160OSM    H8F17994   6.494   4.680   3.291 -2.2368 -1.3276  3.1322
  160OSM    H8G17995   6.449   4.779   3.424 -2.9722 -1.4758 -2.3894
  160OSM    C9F17996   6.646   4.708   3.444 -0.3661 -0.0793 -0.6728
  160OSM    H9F17997   6.738   4.687   3.387 -0.4089 -2.3773 -0.0109
  160OSM   C10F17998   6.650   4.700   3.580  0.3353 -0.3637  0.1395
  160OSM   H10F17999   6.740   4.662   3.631  1.3501  2.8271  0.9217
  160OSM   C11F18000   6.531   4.723   3.671 -0.2739  0.2147  0.4085
  160OSM   H11F18001   6.457   4.642   3.657 -0.7478  0.5896  0.6950
  160OSM   H11G18002   6.480   4.819   3.648  0.4037  0.0854 -1.9163
  160OSM   C12F18003   6.572   4.706   3.819  0.4629  0.0181  0.8803
  160OSM   H12F18004   6.477   4.707   3.875 -2.2014  0.3804 -3.2031
  160OSM   H12G18005   6.636   4.796   3.831  0.8064 -0.3504  1.9342
  160OSM   C13F18006   6.649   4.579   3.848  0.4943  0.4427 -0.2441
  160OSM   H13F18007   6.753   4.592   3.810 -0.0368 -0.4678 -2.1513
  160OSM   H13G18008   6.613   4.489   3.793 -0.1033  1.4595 -1.5974
  160OSM   C14F18009   6.665   4.565   4.003 -0.2454  0.3908  0.4154
  160OSM   H14F18010   6.669   4.667   4.046  0.0934  0.4401  0.2715
  160OSM   H14G18011   6.770   4.531   4.020  0.9434  2.4303 -2.0587
  160OSM   C15F18012   6.561   4.481   4.077 -1.1688  0.0974  0.4137
  160OSM   H15F18013   6.568   4.377   4.038  1.4360  0.5485 -0.5174
  160OSM   H15G18014   6.457   4.508   4.046 -0.8707  0.8173  0.0279
  160OSM   C16F18015   6.584   4.461   4.229  0.0097 -0.2202 -0.0762
  160OSM   H16F18016   6.588   4.557   4.284  0.7789 -0.3908  0.1791
  160OSM   H16G18017   6.683   4.413   4.242  0.2526 -0.9383 -3.5954
  160OSM   C17F18018   6.474   4.375   4.290 -0.4216  0.0933 -0.2466
  160OSM   H17F18019   6.501   4.325   4.385  0.6758  0.3166 -0.4197
  160OSM   H17G18020   6.455   4.289   4.223 -0.1686  1.6654 -2.4768
  160OSM   C18F18021   6.347   4.454   4.325 -0.0471 -0.0485  0.7538
  160OSM   H18F18022   6.315   4.516   4.238  1.1947 -1.7728 -1.0339
  160OSM   H18G18023   6.377   4.523   4.407 -0.6798  2.7834 -1.2174
  160OSM   H18H18024   6.264   4.395   4.369 -0.7784 -0.9716 -1.7198
  161OSM      N18025   4.149   4.806   1.860  0.4701  0.3555 -0.4956
  161OSM    C1518026   4.119   4.954   1.897  0.4289 -0.0696 -0.0215
  161OSM   H15A18027   4.132   5.022   1.815  1.1760 -1.8599 -1.4545
  161OSM   H15B18028   4.202   4.983   1.961 -0.2465 -0.7710  1.1989
  161OSM   H15C18029   4.026   4.971   1.950 -0.4403  0.0866 -1.5645
  161OSM    C1418030   4.040   4.763   1.768 -0.6382  0.0082 -0.4994
  161OSM   H14A18031   3.944   4.781   1.815 -0.4483 -0.7701  0.2158
  161OSM   H14B18032   4.061   4.660   1.743 -0.5314 -0.4407  1.2485
  161OSM   H14C18033   4.030   4.821   1.678 -0.4780  0.5069 -0.1984
  161OSM    C1318034   4.275   4.805   1.782  0.2587  0.7338 -0.0713
  161OSM   H13A18035   4.286   4.883   1.708 -1.0922  2.3310  1.3430
  161OSM   H13B18036   4.279   4.710   1.730 -0.3285 -1.0520  2.8758
  161OSM   H13C18037   4.358   4.807   1.852  1.0393 -2.2746 -0.7559
  161OSM    C1218038   4.152   4.723   1.986  0.3333 -0.0480 -0.1268
  161OSM   H12A18039   4.151   4.618   1.959 -0.8096 -0.3687  1.0772
  161OSM   H12B18040   4.056   4.742   2.030  0.1194  0.2318 -0.7112
  161OSM    C1118041   4.252   4.749   2.095  0.0783 -0.6413  0.1053
  161OSM   H11A18042   4.223   4.696   2.187  1.1948 -1.4809 -0.0108
  161OSM   H11B18043   4.247   4.855   2.128 -1.0960 -1.3085  2.2403
  161OSM      P18044   4.432   4.558   2.077 -0.4835  0.1683 -0.5309
  161OSM    O1318045   4.438   4.485   1.949 -0.1689 -0.4644  0.2252
  161OSM    O1418046   4.562   4.564   2.147  0.0500 -0.6772  0.4603
  161OSM    O1118047   4.320   4.495   2.168 -0.3191 -0.1674 -0.5501
  161OSM    O1218048   4.383   4.710   2.058 -0.3026 -0.3136 -0.2895
  161OSM    C1S18049   4.327   4.361   2.233  1.2858 -0.1971  0.0177
  161OSM    H1S18050   4.433   4.328   2.239  1.1801 -0.6583 -0.5051
  161OSM    H1T18051   4.269   4.282   2.182 -1.6735  0.5065  2.0724
  161OSM     NF18052   4.323   4.232   2.440  0.1923 -0.6890 -0.5548
  161OSM    HNF18053   4.262   4.158   2.468 -0.9660  1.2892  2.6706
  161OSM    C2S18054   4.269   4.352   2.376  0.3791  0.9201 -0.4608
  161OSM    H2S18055   4.303   4.444   2.428  1.3005 -0.7728  2.1238
  161OSM    C3S18056   4.112   4.351   2.372  0.0751 -0.6948 -0.1638
  161OSM    H3S18057   4.076   4.255   2.329 -0.9766 -0.2298 -0.3565
  161OSM     O318058   4.064   4.465   2.295  0.4190 -0.2295  0.2390
  161OSM    HO318059   4.139   4.510   2.255 -0.8113 -0.3276 -2.3617
  161OSM    C4S18060   4.056   4.349   2.512  0.3922 -0.0015  0.9320
  161OSM    H4S18061   4.003   4.260   2.550  0.6118  0.3808  2.1929
  161OSM    C5S18062   4.071   4.447   2.602 -0.3028 -0.3469 -0.2189
  161OSM    H5S18063   4.129   4.536   2.577 -1.3562  0.2372 -0.6554
  161OSM    C6S18064   4.035   4.441   2.744 -0.6473  0.6280 -0.1713
  161OSM    H6S18065   3.986   4.344   2.767  0.8858 -0.2362 -0.4224
  161OSM    H6T18066   3.974   4.527   2.778 -1.7342 -0.2898  0.3005
  161OSM    C7S18067   4.159   4.460   2.850  0.0486 -0.2634  0.3225
  161OSM    H7S18068   4.120   4.454   2.953  0.0968 -1.4261  0.2833
  161OSM    H7T18069   4.202   4.562   2.840  3.6699 -1.7801 -1.1376
  161OSM    C8S18070   4.262   4.339   2.833  0.3929  0.0842 -0.4221
  161OSM    H8S18071   4.333   4.362   2.915 -1.6167 -0.2151  1.5083
  161OSM    H8T18072   4.317   4.334   2.737  2.0813 -0.7955  0.5546
  161OSM    C9S18073   4.190   4.206   2.865 -0.0868 -0.4993 -0.4185
  161OSM    H9S18074   4.268   4.127   2.862  1.3465  0.8778 -0.6941
  161OSM    H9T18075   4.113   4.179   2.789 -1.5854  0.6511  0.6416
  161OSM   C10S18076   4.107   4.199   2.991  0.0373  1.3738 -0.3480
  161OSM   H10S18077   4.016   4.259   2.969 -3.1906 -2.1600  1.9527
  161OSM   H10T18078   4.165   4.247   3.072 -2.4829  2.7080  0.7859
  161OSM   C11S18079   4.058   4.057   3.034  0.1747  0.1333  0.4183
  161OSM   H11S18080   4.147   4.004   3.074 -1.2278 -1.9819  0.8960
  161OSM   H11T18081   4.023   4.011   2.939  1.8259  0.8553 -0.5670
  161OSM   C12S18082   3.940   4.061   3.134 -0.1620  0.2894 -0.1810
  161OSM   H12S18083   3.918   3.958   3.170  1.3177 -0.0281 -0.0924
  161OSM   H12T18084   3.854   4.118   3.094  0.9542  1.2978 -1.2142
  161OSM   C13S18085   3.968   4.145   3.261  0.2628 -0.3562  0.7032
  161OSM   H13S18086   3.968   4.251   3.227  1.7251 -0.5381  0.0563
  161OSM   H13T18087   4.071   4.129   3.300  0.3856  1.3567  1.1780
  161OSM   C14S18088   3.876   4.118   3.384 -0.7806  0.0318 -0.6681
  161OSM   H14S18089   3.913   4.025   3.433 -0.1967  0.7648  0.3145
  161OSM   H14T18090   3.778   4.104   3.333 -0.9825  0.5235 -0.4191
  161OSM   C15S18091   3.881   4.226   3.487 -0.2497  0.7836  0.5034
  161OSM   H15S18092   3.855   4.326   3.447  3.8770  1.4267 -1.0455
  161OSM   H15T18093   3.985   4.241   3.521  0.0081  1.9794 -0.7481
  161OSM   C16S18094   3.785   4.199   3.607  0.4561 -0.1420  0.3683
  161OSM   H16S18095   3.798   4.094   3.640 -0.7179 -0.4950 -0.2276
  161OSM   H16T18096   3.682   4.206   3.567 -0.1702 -2.1290  1.5351
  161OSM   C17S18097   3.817   4.302   3.712 -0.2534 -0.2531  0.2724
  161OSM   H17S18098   3.816   4.403   3.666 -1.6827 -0.4321 -0.1457
  161OSM   H17T18099   3.920   4.277   3.743  0.1161  2.2045  1.2127
  161OSM   C18S18100   3.721   4.297   3.836  0.3590 -0.2885 -0.4445
  161OSM   H18S18101   3.744   4.376   3.911  0.4855 -1.5417  0.8908
  161OSM   H18T18102   3.743   4.205   3.895  2.8497  2.1412  2.7856
  161OSM   H18U18103   3.614   4.310   3.810  0.3489 -1.1007 -0.8537
  161OSM    C1F18104   4.447   4.217   2.468  0.0142  0.8398  0.4223
  161OSM     OF18105   4.526   4.316   2.466  0.2313  0.4931 -0.4885
  161OSM    C2F18106   4.491   4.074   2.488  0.2978  0.0535 -0.7600
  161OSM    H2F18107   4.538   4.039   2.393  1.3426  0.4330 -0.4021
  161OSM    H2G18108   4.403   4.022   2.531 -2.1005  4.6882  0.6019
  161OSM    C3F18109   4.592   4.064   2.598 -0.3780 -0.2338  1.0054
  161OSM    H3F18110   4.677   4.115   2.548 -0.9268 -0.3428 -0.0716
  161OSM    H3G18111   4.626   3.960   2.619 -1.2964 -1.1801 -1.7437
  161OSM    C4F18112   4.568   4.137   2.732 -0.2955 -0.0101  0.0776
  161OSM    H4F18113   4.492   4.084   2.793  0.1442 -0.4282  0.2771
  161OSM    H4G18114   4.534   4.241   2.716 -0.9345 -0.1095  0.7353
  161OSM    C5F18115   4.710   4.139   2.804 -0.1725  0.1140 -0.2516
  161OSM    H5F18116   4.790   4.170   2.734 -0.8069  1.8315 -0.2667
  161OSM    H5G18117   4.739   4.046   2.856 -0.7185 -0.7015 -1.3705
  161OSM    C6F18118   4.708   4.248   2.913  0.0300  0.1556 -0.3675
  161OSM    H6F18119   4.694   4.343   2.858  0.5807  0.7236  0.4443
  161OSM    H6G18120   4.808   4.255   2.961 -0.3462  1.0376  0.3100
  161OSM    C7F18121   4.597   4.222   3.017  0.0866 -0.1224 -0.3044
  161OSM    H7F18122   4.616   4.120   3.057 -2.4896  0.5192  3.0679
  161OSM    H7G18123   4.497   4.232   2.969  0.4407 -0.7351 -1.1832
  161OSM    C8F18124   4.595   4.318   3.145 -0.0619 -0.8128 -0.0888
  161OSM    H8F18125   4.579   4.418   3.099  0.0266 -2.5065 -4.2124
  161OSM    H8G18126   4.694   4.313   3.194 -0.4814  0.7129  0.9735
  161OSM    C9F18127   4.490   4.295   3.252 -0.0189 -0.0217 -0.2242
  161OSM    H9F18128   4.497   4.197   3.301  0.1712 -0.3970 -0.9865
  161OSM   C10F18129   4.378   4.362   3.277 -0.6005  0.9085  0.2405
  161OSM   H10F18130   4.321   4.336   3.368  0.1879 -0.2560  0.4235
  161OSM   C11F18131   4.326   4.485   3.212 -0.1547 -0.7248  0.0690
  161OSM   H11F18132   4.330   4.474   3.101 -4.1212  2.3452 -0.6409
  161OSM   H11G18133   4.403   4.563   3.230  0.7376 -1.2017 -1.4510
  161OSM   C12F18134   4.187   4.523   3.256 -0.0629  0.0319  0.5248
  161OSM   H12F18135   4.182   4.509   3.366  1.7938 -3.1642  0.3075
  161OSM   H12G18136   4.106   4.461   3.212  0.9007 -0.4935 -0.5507
  161OSM   C13F18137   4.168   4.678   3.220  0.5998  0.4691 -0.0089
  161OSM   H13F18138   4.156   4.685   3.110  0.3997 -0.2630 -0.0405
  161OSM   H13G18139   4.265   4.728   3.242  2.7295 -2.3275 -2.2119
  161OSM   C14F18140   4.045   4.738   3.285  0.2085 -0.3862  0.5819
  161OSM   H14F18141   4.029   4.846   3.265 -0.0532 -0.5610 -0.1959
  161OSM   H14G18142   4.055   4.719   3.394 -2.0775 -2.9504  0.4546
  161OSM   C15F18143   3.910   4.665   3.245 -0.4384 -0.7091 -0.6137
  161OSM   H15F18144   3.921   4.563   3.288  1.5206  0.7120  2.6547
  161OSM   H15G18145   3.910   4.656   3.134 -2.0049  1.3541 -0.8466
  161OSM   C16F18146   3.784   4.738   3.300  0.4241 -0.3471 -0.0319
  161OSM   H16F18147   3.696   4.724   3.234 -0.2748 -0.9650  1.0061
  161OSM   H16G18148   3.810   4.846   3.309 -0.2971 -0.1810  0.0952
  161OSM   C17F18149   3.747   4.686   3.444  0.2773 -0.3205 -0.2200
  161OSM   H17F18150   3.842   4.689   3.502  0.4830 -0.6879 -0.5288
  161OSM   H17G18151   3.718   4.579   3.444  0.7732 -0.4654 -0.8290
  161OSM   C18F18152   3.645   4.762   3.524 -0.2702 -0.0797 -0.0043
  161OSM   H18F18153   3.642   4.728   3.630 -0.1331 -2.4871 -0.6982
  161OSM   H18G18154   3.542   4.761   3.482 -0.3791  1.0002  0.2179
  161OSM   H18H18155   3.669   4.870   3.528 -2.5952  0.5400 -0.9543
  162OSM      N18156   5.289   2.776   2.309  0.1585 -0.6139  0.1439
  162OSM    C1518157   5.187   2.782   2.203 -0.4547  0.3519  0.5115
  162OSM   H15A18158   5.183   2.877   2.153 -3.7819 -0.6656 -1.5041
  162OSM   H15B18159   5.085   2.766   2.233 -0.6521  0.5332 -0.0359
  162OSM   H15C18160   5.203   2.701   2.132  1.6375  0.5727  0.6855
  162OSM    C1418161   5.262   2.647   2.376  0.0117 -0.8179 -0.0432
  162OSM   H14A18162   5.334   2.640   2.456 -0.2484  1.8309  0.5072
  162OSM   H14B18163   5.285   2.574   2.300  2.3831 -0.2530  0.0709
  162OSM   H14C18164   5.167   2.650   2.429  0.8250 -1.0973  1.4903
  162OSM    C1318165   5.418   2.791   2.258 -0.3917  0.6593 -0.1068
  162OSM   H13A18166   5.447   2.695   2.218 -0.5720  0.1206  1.0120
  162OSM   H13B18167   5.489   2.799   2.339 -0.3783 -2.3229  0.3160
  162OSM   H13C18168   5.430   2.876   2.194  0.6984  0.3267 -0.3702
  162OSM    C1218169   5.257   2.896   2.407 -0.1380  0.5040  0.5936
  162OSM   H12A18170   5.286   2.990   2.363  0.6116  1.1562  2.3761
  162OSM   H12B18171   5.326   2.891   2.491 -1.7360 -2.1701  1.8936
  162OSM    C1118172   5.110   2.918   2.449 -0.0590  0.7966  0.7309
  162OSM   H11A18173   5.097   2.978   2.541 -1.8245 -0.9741  1.7064
  162OSM   H11B18174   5.074   2.815   2.467  2.4523 -0.1004  1.0462
  162OSM      P18175   5.045   3.112   2.304 -0.0097  0.1674  0.2647
  162OSM    O1318176   5.153   3.124   2.203 -0.6674 -0.8124 -0.3848
  162OSM    O1418177   4.916   3.168   2.246 -0.4241  0.2995  0.0989
  162OSM    O1118178   5.082   3.178   2.443 -0.0824  0.9139 -0.3144
  162OSM    O1218179   5.029   2.962   2.346  0.1761  0.1348  1.0218
  162OSM    C1S18180   5.109   3.322   2.451  0.0831  0.2193  0.0621
  162OSM    H1S18181   5.013   3.375   2.432  1.2555  1.5389 -2.9372
  162OSM    H1T18182   5.179   3.361   2.373 -0.7502  1.6691 -0.0050
  162OSM     NF18183   5.184   3.509   2.603  0.0631 -0.2830 -0.3774
  162OSM    HNF18184   5.271   3.546   2.634  1.0740 -3.9004  1.6966
  162OSM    C2S18185   5.172   3.363   2.588  0.5706 -0.5875 -0.0068
  162OSM    H2S18186   5.092   3.344   2.663 -1.0535 -1.0895 -1.7734
  162OSM    C3S18187   5.302   3.285   2.613  1.5176  0.1873 -0.1455
  162OSM    H3S18188   5.378   3.325   2.543  0.2482  0.9564 -1.1455
  162OSM     O318189   5.300   3.147   2.585  0.0365 -0.1018  0.0053
  162OSM    HO318190   5.209   3.139   2.554  0.5903  1.1512 -2.1332
  162OSM    C4S18191   5.345   3.316   2.754 -0.7361 -0.5653 -0.0535
  162OSM    H4S18192   5.421   3.395   2.760 -1.4849  0.1401  0.3889
  162OSM    C5S18193   5.311   3.254   2.866  0.3814 -0.2946  0.4288
  162OSM    H5S18194   5.248   3.165   2.850 -0.9794  0.7165  0.0050
  162OSM    C6S18195   5.358   3.283   3.009 -0.3842  0.2232  0.4057
  162OSM    H6S18196   5.391   3.192   3.064 -0.7606  0.4909  1.0827
  162OSM    H6T18197   5.272   3.332   3.059 -0.4407  1.7409 -1.0798
  162OSM    C7S18198   5.473   3.388   3.011 -0.3257 -0.0381  0.5701
  162OSM    H7S18199   5.433   3.488   2.980  0.6445  0.4079  0.7170
  162OSM    H7T18200   5.559   3.354   2.949 -0.4813 -0.5179  0.6173
  162OSM    C8S18201   5.527   3.402   3.157  0.5450 -0.2468  0.7283
  162OSM    H8S18202   5.560   3.298   3.177  0.5701 -1.1376 -3.1239
  162OSM    H8T18203   5.442   3.433   3.221  0.9330 -0.2216  1.2298
  162OSM    C9S18204   5.636   3.503   3.174 -0.0524 -0.4685 -0.4322
  162OSM    H9S18205   5.597   3.604   3.152  1.3338  0.0255 -0.7661
  162OSM    H9T18206   5.723   3.491   3.105  2.0175 -2.8366  2.2875
  162OSM   C10S18207   5.679   3.510   3.320 -0.3917 -0.0612  0.1844
  162OSM   H10S18208   5.722   3.417   3.362 -1.6047 -0.6248  0.1949
  162OSM   H10T18209   5.587   3.529   3.379 -2.7914 -1.0533 -2.9435
  162OSM   C11S18210   5.778   3.632   3.344  0.0467 -0.4880 -0.1501
  162OSM   H11S18211   5.727   3.722   3.303  2.9766  1.6505  0.6054
  162OSM   H11T18212   5.876   3.615   3.294  1.4074  1.2077  1.8080
  162OSM   C12S18213   5.800   3.649   3.499 -0.3321 -0.1897 -0.4909
  162OSM   H12S18214   5.697   3.636   3.539 -0.2057 -1.0433 -0.4324
  162OSM   H12T18215   5.820   3.753   3.534 -0.7535 -0.4156  0.4671
  162OSM   C13S18216   5.903   3.550   3.557  0.3969 -0.4611  0.7740
  162OSM   H13S18217   6.005   3.569   3.517  0.5470  1.7773  2.0714
  162OSM   H13T18218   5.886   3.446   3.521 -1.1943  0.0835 -0.1405
  162OSM   C14S18219   5.915   3.557   3.708  0.3253 -0.6155 -0.3547
  162OSM   H14S18220   5.816   3.563   3.758  0.0205 -2.8009 -0.6087
  162OSM   H14T18221   5.966   3.650   3.742 -0.2072  0.2817 -1.9005
  162OSM   C15S18222   5.970   3.429   3.767  0.4057  0.0779 -1.0323
  162OSM   H15S18223   5.934   3.335   3.718 -0.7037 -1.0575  1.7281
  162OSM   H15T18224   5.943   3.421   3.874  2.5566  1.9496 -0.2892
  162OSM   C16S18225   6.122   3.413   3.755 -0.0203  0.2812 -0.5728
  162OSM   H16S18226   6.174   3.488   3.818 -1.0283  0.4129  0.1284
  162OSM   H16T18227   6.153   3.412   3.649  0.2967  0.2841 -0.4814
  162OSM   C17S18228   6.169   3.273   3.814 -0.5567  0.5592 -0.0358
  162OSM   H17S18229   6.134   3.196   3.742 -0.9875  1.5560 -0.9177
  162OSM   H17T18230   6.140   3.258   3.921 -1.0740 -0.8043 -0.3501
  162OSM   C18S18231   6.328   3.263   3.822  0.6400 -0.2618  0.3248
  162OSM   H18S18232   6.355   3.162   3.860 -0.4656  0.7408  4.2207
  162OSM   H18T18233   6.359   3.353   3.878 -0.5336  1.3031 -1.4181
  162OSM   H18U18234   6.375   3.280   3.723 -1.1777 -0.2096 -0.5838
  162OSM    C1F18235   5.080   3.597   2.615 -0.2473 -0.0147 -0.1262
  162OSM     OF18236   4.961   3.563   2.610 -0.6467 -0.2523  0.1669
  162OSM    C2F18237   5.114   3.743   2.640 -0.2796  0.6081  0.1749
  162OSM    H2F18238   5.107   3.803   2.547  1.6332 -0.7569 -0.9220
  162OSM    H2G18239   5.222   3.753   2.665 -0.4530  1.3905  0.6431
  162OSM    C3F18240   5.025   3.803   2.751 -0.3847 -0.6335 -0.7027
  162OSM    H3F18241   4.920   3.813   2.717 -0.1710 -0.1846 -1.2516
  162OSM    H3G18242   5.065   3.904   2.777 -0.0618 -1.0217  0.3370
  162OSM    C4F18243   5.025   3.721   2.889 -0.2378  0.5913 -0.6670
  162OSM    H4F18244   5.120   3.710   2.945 -0.0024 -2.0820 -1.4854
  162OSM    H4G18245   5.007   3.614   2.865  0.6690 -0.0449  1.3147
  162OSM    C5F18246   4.916   3.780   2.981  0.1802  0.1436  0.1550
  162OSM    H5F18247   4.894   3.705   3.060 -1.8112  1.3110  0.7763
  162OSM    H5G18248   4.821   3.805   2.930 -0.0818 -1.3421 -0.1241
  162OSM    C6F18249   4.947   3.914   3.052  0.5551 -0.4824  0.0180
  162OSM    H6F18250   4.852   3.956   3.090  1.3097 -0.3566  1.8803
  162OSM    H6G18251   4.982   3.988   2.976 -1.9462 -0.3674 -1.1134
  162OSM    C7F18252   5.038   3.903   3.176 -1.0613 -1.0452 -0.0750
  162OSM    H7F18253   5.122   3.835   3.152  1.2448  0.2625  3.4120
  162OSM    H7G18254   4.985   3.850   3.258  1.6351 -1.7832  1.3079
  162OSM    C8F18255   5.101   4.037   3.213 -0.1817  0.2588  0.2933
  162OSM    H8F18256   5.143   4.098   3.130  0.8966 -0.8867 -0.0222
  162OSM    H8G18257   5.184   4.008   3.281  0.2167 -0.6025 -0.5336
  162OSM    C9F18258   4.997   4.117   3.290  0.5030  0.0066 -0.1126
  162OSM    H9F18259   4.917   4.155   3.224  2.5919  0.6272 -2.4316
  162OSM   C10F18260   4.990   4.153   3.421  1.0611  0.7789  0.5127
  162OSM   H10F18261   4.913   4.227   3.448 -2.2991 -1.1811 -2.7910
  162OSM   C11F18262   5.086   4.110   3.522  0.1479 -0.5726 -1.1123
  162OSM   H11F18263   5.188   4.152   3.507  0.1681 -0.0510  0.3217
  162OSM   H11G18264   5.101   4.000   3.527 -0.5023 -0.6235  0.1700
  162OSM   C12F18265   5.040   4.148   3.663  0.1922 -0.0583 -0.0850
  162OSM   H12F18266   5.031   4.259   3.674  3.8750  0.2709  1.1083
  162OSM   H12G18267   5.125   4.122   3.729  0.4870 -3.2005 -1.5431
  162OSM   C13F18268   4.918   4.063   3.714 -0.0090 -0.2658  0.9738
  162OSM   H13F18269   4.957   3.961   3.734 -0.0145 -0.5290 -0.2497
  162OSM   H13G18270   4.847   4.040   3.631  1.1303 -2.6462  0.5662
  162OSM   C14F18271   4.839   4.129   3.825 -0.4582 -0.0332 -0.1335
  162OSM   H14F18272   4.765   4.057   3.864 -1.8886  1.6404  0.3518
  162OSM   H14G18273   4.787   4.217   3.782  0.2897  0.0262 -0.9402
  162OSM   C15F18274   4.925   4.167   3.951 -0.5129  0.2506  0.8770
  162OSM   H15F18275   5.004   4.242   3.924  1.4686 -1.9479  0.2286
  162OSM   H15G18276   4.990   4.088   3.993 -0.2778  0.2337  0.4955
  162OSM   C16F18277   4.836   4.223   4.061 -0.6859 -0.8870 -0.6052
  162OSM   H16F18278   4.747   4.161   4.082 -1.0022  0.0684  1.0647
  162OSM   H16G18279   4.801   4.324   4.029 -0.3817  0.1136  1.9689
  162OSM   C17F18280   4.914   4.239   4.194 -0.1623  0.2217 -0.0497
  162OSM   H17F18281   4.852   4.307   4.256 -0.0712  0.3738 -0.1252
  162OSM   H17G18282   5.009   4.293   4.176 -1.1790  2.5285  1.1561
  162OSM   C18F18283   4.936   4.105   4.267  0.2443 -0.3242 -0.2172
  162OSM   H18F18284   4.972   4.030   4.194  1.1301  0.7167 -0.8875
  162OSM   H18G18285   4.842   4.072   4.316 -1.0205  2.2814 -0.6838
  162OSM   H18H18286   5.014   4.129   4.342  2.0872 -0.6388 -1.9627
  163OSM      N18287   3.391   4.849   1.693 -0.0041  0.1153  0.0573
  163OSM    C1518288   3.272   4.933   1.723  0.4083  0.4990  0.0812
  163OSM   H15A18289   3.300   5.019   1.782  0.6870 -0.3768  1.2855
  163OSM   H15B18290   3.189   4.881   1.768  0.2066 -1.9340 -2.7764
  163OSM   H15C18291   3.227   4.969   1.632  0.0242  2.0483  0.8640
  163OSM    C1418292   3.351   4.739   1.605 -0.2835  0.1753  0.0222
  163OSM   H14A18293   3.438   4.680   1.582 -0.2594  0.1898  0.0767
  163OSM   H14B18294   3.299   4.770   1.516  3.1502  3.3664 -1.1739
  163OSM   H14C18295   3.288   4.667   1.655 -0.4263  1.1713  1.3451
  163OSM    C1318296   3.476   4.945   1.609  0.4230 -0.0721 -0.2975
  163OSM   H13A18297   3.494   5.034   1.667  4.7345 -1.0608  0.2644
  163OSM   H13B18298   3.417   4.986   1.528 -1.3944  1.5367  1.7346
  163OSM   H13C18299   3.564   4.892   1.575  0.2822 -0.2570 -0.3724
  163OSM    C1218300   3.460   4.802   1.818 -0.2679 -0.5158 -0.2176
  163OSM   H12A18301   3.547   4.741   1.801 -2.1946 -3.3430 -0.6345
  163OSM   H12B18302   3.398   4.734   1.875  1.5332 -1.2201  0.9798
  163OSM    C1118303   3.504   4.909   1.921  0.5957 -0.0956 -0.1126
  163OSM   H11A18304   3.539   4.862   2.016  0.5793  1.4930  0.7013
  163OSM   H11B18305   3.416   4.958   1.968  0.4593 -2.0800  1.8929
  163OSM      P18306   3.746   4.971   1.859 -0.3306 -0.0903  0.2969
  163OSM    O1318307   3.749   4.829   1.822  0.3406 -0.9105 -0.0422
  163OSM    O1418308   3.820   5.064   1.776  1.0408  0.1274 -0.4872
  163OSM    O1118309   3.805   4.971   2.005 -0.3218 -0.3029  0.4448
  163OSM    O1218310   3.599   5.007   1.878  0.7735 -0.0425  0.4596
  163OSM    C1S18311   3.821   5.098   2.072 -0.4271  0.1198 -0.0708
  163OSM    H1S18312   3.734   5.162   2.046  0.6318  0.5332 -3.0051
  163OSM    H1T18313   3.912   5.149   2.035 -0.6880  0.8629  0.2731
  163OSM     NF18314   3.822   5.201   2.306 -0.0307  0.0115 -0.2697
  163OSM    HNF18315   3.898   5.217   2.369  0.1274 -2.8389  0.3997
  163OSM    C2S18316   3.826   5.075   2.232  0.1811 -0.4738  0.5790
  163OSM    H2S18317   3.733   5.019   2.254 -0.3119 -0.2681 -0.8919
  163OSM    C3S18318   3.943   4.974   2.271  0.4969  0.0525  0.1253
  163OSM    H3S18319   4.040   5.017   2.235 -0.2747  0.6913 -1.2979
  163OSM     O318320   3.923   4.852   2.204 -0.5660 -1.0926  0.2185
  163OSM    HO318321   3.894   4.872   2.115  0.2012  0.8746  0.3735
  163OSM    C4S18322   3.964   4.962   2.417 -0.0197  0.2995 -0.5428
  163OSM    H4S18323   3.990   5.056   2.467  3.2848 -1.9867  2.5811
  163OSM    C5S18324   3.970   4.848   2.495  0.7637  0.0945  0.3094
  163OSM    H5S18325   3.955   4.756   2.437  1.6197  1.1873 -1.7700
  163OSM    C6S18326   3.998   4.834   2.644 -0.1298  0.1497  0.6154
  163OSM    H6S18327   4.100   4.789   2.647 -1.1537 -2.2797  1.7130
  163OSM    H6T18328   3.941   4.751   2.691  0.1801 -0.3510  0.1199
  163OSM    C7S18329   3.983   4.971   2.720  0.4857  0.7642 -0.6183
  163OSM    H7S18330   3.881   5.012   2.700  0.3187  0.5726 -0.1729
  163OSM    H7T18331   4.061   5.044   2.690  0.0674  2.1814  1.5394
  163OSM    C8S18332   3.983   4.949   2.877  0.0390  0.3526  0.1038
  163OSM    H8S18333   4.073   4.895   2.914  0.2437  0.5656 -0.0766
  163OSM    H8T18334   3.897   4.882   2.896 -2.0583  1.9040 -3.0454
  163OSM    C9S18335   3.960   5.083   2.949 -0.4571 -0.2534 -0.6418
  163OSM    H9S18336   3.869   5.132   2.909 -0.2432  2.5798  1.9782
  163OSM    H9T18337   4.042   5.156   2.931  0.5594 -1.3907 -0.7790
  163OSM   C10S18338   3.942   5.067   3.103 -0.4002 -0.6251 -0.0344
  163OSM   H10S18339   4.035   5.022   3.143 -1.0263 -1.4418  0.5439
  163OSM   H10T18340   3.864   4.991   3.125 -1.2584  0.5911  1.3802
  163OSM   C11S18341   3.899   5.190   3.181 -0.0582 -0.0708 -0.2608
  163OSM   H11S18342   3.808   5.237   3.138  1.3411  2.6801 -0.4202
  163OSM   H11T18343   3.969   5.276   3.173 -1.0855  0.8105  0.0237
  163OSM   C12S18344   3.868   5.166   3.333  0.1614 -0.0782  0.4961
  163OSM   H12S18345   3.966   5.143   3.379  0.2041 -1.2583 -0.1377
  163OSM   H12T18346   3.805   5.074   3.338  1.4694 -1.0872 -0.5490
  163OSM   C13S18347   3.802   5.282   3.406  0.1899 -0.4820  0.1990
  163OSM   H13S18348   3.704   5.312   3.362 -1.1824 -1.0982  2.6431
  163OSM   H13T18349   3.871   5.369   3.401  1.3084 -1.2883  1.1721
  163OSM   C14S18350   3.768   5.252   3.562 -0.4638 -0.3363 -0.1785
  163OSM   H14S18351   3.853   5.273   3.630 -0.3846  0.7245 -0.5837
  163OSM   H14T18352   3.752   5.142   3.573  1.2839 -0.4813  1.3983
  163OSM   C15S18353   3.662   5.342   3.629 -0.1047  1.4583  0.0900
  163OSM   H15S18354   3.583   5.352   3.551 -0.2710  0.0711  0.0672
  163OSM   H15T18355   3.708   5.443   3.636  0.7127  0.9934  2.1198
  163OSM   C16S18356   3.631   5.287   3.764 -0.1957 -0.5415 -0.7262
  163OSM   H16S18357   3.720   5.290   3.830 -0.1068 -1.4327 -0.7878
  163OSM   H16T18358   3.611   5.178   3.752  1.7150 -1.0451  0.2972
  163OSM   C17S18359   3.510   5.374   3.824 -0.2575 -0.4196  0.0043
  163OSM   H17S18360   3.416   5.349   3.770  0.5601 -0.5978 -1.3579
  163OSM   H17T18361   3.522   5.482   3.803  1.2126 -0.8362 -1.4412
  163OSM   C18S18362   3.497   5.351   3.976  0.6403 -0.2062  0.3138
  163OSM   H18S18363   3.482   5.243   3.994  0.8231 -0.0758  1.2640
  163OSM   H18T18364   3.419   5.413   4.025 -0.1881  0.4399 -1.6988
  163OSM   H18U18365   3.595   5.366   4.027  0.1733 -1.4028  1.6305
  163OSM    C1F18366   3.708   5.273   2.310 -0.7394  0.9080  0.7154
  163OSM     OF18367   3.604   5.235   2.256 -0.6599  0.1649 -0.0601
  163OSM    C2F18368   3.730   5.408   2.371 -0.5214 -0.6494  0.1830
  163OSM    H2F18369   3.638   5.468   2.356 -0.3122 -0.0406  1.2427
  163OSM    H2G18370   3.794   5.463   2.298 -1.1415 -1.9800 -1.4455
  163OSM    C3F18371   3.777   5.413   2.512  0.0585  0.5432 -0.3194
  163OSM    H3F18372   3.797   5.517   2.544  0.2498 -0.0653  1.6957
  163OSM    H3G18373   3.877   5.366   2.521  0.7558  2.3243  2.1518
  163OSM    C4F18374   3.666   5.356   2.613 -0.3334 -0.3523 -0.6113
  163OSM    H4F18375   3.653   5.249   2.585 -0.2882 -0.5702  0.1976
  163OSM    H4G18376   3.575   5.420   2.603 -0.3043 -0.0692  0.8050
  163OSM    C5F18377   3.705   5.370   2.761 -0.3824 -0.4845 -0.3099
  163OSM    H5F18378   3.767   5.280   2.785  2.1166  1.4634  0.9722
  163OSM    H5G18379   3.615   5.355   2.824  0.4744  0.4302  1.1840
  163OSM    C6F18380   3.771   5.507   2.797  0.3758 -0.1176 -0.3327
  163OSM    H6F18381   3.703   5.575   2.742 -0.7387 -0.6971  0.3048
  163OSM    H6G18382   3.874   5.515   2.755  0.6333  0.6330  0.4206
  163OSM    C7F18383   3.759   5.527   2.949  0.3801 -0.8901 -0.6124
  163OSM    H7F18384   3.862   5.511   2.988 -0.4797 -1.8514  1.4351
  163OSM    H7G18385   3.691   5.451   2.993  1.2426  0.0270  2.5952
  163OSM    C8F18386   3.703   5.666   2.996  0.0654  0.2927  0.1678
  163OSM    H8F18387   3.701   5.662   3.107 -1.4207 -0.1085  0.1438
  163OSM    H8G18388   3.603   5.687   2.954  0.5224  1.7746 -0.2714
  163OSM    C9F18389   3.783   5.779   2.938  0.9090 -0.3888  0.5245
  163OSM    H9F18390   3.754   5.794   2.833  0.8800 -2.6200  0.1730
  163OSM   C10F18391   3.889   5.843   2.992  0.0072 -0.3265 -0.6060
  163OSM   H10F18392   3.935   5.926   2.937 -0.3232  0.8361  0.8140
  163OSM   C11F18393   3.951   5.826   3.133  0.4662 -0.1921 -0.0794
  163OSM   H11F18394   4.059   5.851   3.134  0.2344  0.8710 -0.8207
  163OSM   H11G18395   3.927   5.720   3.159  0.1262 -0.4109 -1.2067
  163OSM   C12F18396   3.872   5.936   3.224 -0.1520 -0.3672  0.7303
  163OSM   H12F18397   3.764   5.914   3.213 -0.2979 -0.3194  1.9298
  163OSM   H12G18398   3.877   6.039   3.183 -0.6296 -0.6297  0.0181
  163OSM   C13F18399   3.913   5.936   3.369 -0.6168  0.5169  0.1547
  163OSM   H13F18400   3.901   5.833   3.409  0.4210  0.8756  1.4612
  163OSM   H13G18401   3.846   6.004   3.426  0.4033  0.8746  0.9749
  163OSM   C14F18402   4.056   5.981   3.401  0.0108 -0.4265  0.2182
  163OSM   H14F18403   4.084   6.073   3.346  0.7928 -0.3071  0.7950
  163OSM   H14G18404   4.127   5.901   3.369 -0.8879 -0.1457 -2.7581
  163OSM   C15F18405   4.070   6.025   3.549  0.6674  0.2076  0.4320
  163OSM   H15F18406   3.979   6.084   3.575 -0.1477 -1.1262  0.7026
  163OSM   H15G18407   4.166   6.080   3.557 -0.3245  1.8542  1.8605
  163OSM   C16F18408   4.070   5.903   3.652  0.0902 -0.1971 -0.5720
  163OSM   H16F18409   4.145   5.827   3.621  1.2734  0.8479 -0.3236
  163OSM   H16G18410   3.966   5.865   3.663 -0.5883  1.7382  0.0829
  163OSM   C17F18411   4.105   5.931   3.804  0.3293 -0.2532  0.6104
  163OSM   H17F18412   4.041   6.013   3.840 -0.4317 -1.3025  1.7265
  163OSM   H17G18413   4.210   5.966   3.806 -0.1279  1.3148 -0.6214
  163OSM   C18F18414   4.080   5.807   3.896  0.7655  0.0019 -0.2580
  163OSM   H18F18415   4.159   5.734   3.868 -0.4787 -2.2278  1.6967
  163OSM   H18G18416   3.982   5.760   3.873  0.6443  0.4275 -0.6272
  163OSM   H18H18417   4.092   5.835   4.003 -2.1488 -1.5547  0.5628
  164OSM      N18418   6.407   3.479   2.067 -0.9724  0.0112 -0.1703
  164OSM    C1518419   6.441   3.484   2.211  0.1766 -0.2495  0.1081
  164OSM   H15A18420   6.501   3.571   2.232 -0.0331 -0.1897  0.4726
  164OSM   H15B18421   6.499   3.399   2.243 -0.1713  0.3353  2.4380
  164OSM   H15C18422   6.358   3.502   2.278  0.9984 -0.0136  1.0803
  164OSM    C1418423   6.328   3.354   2.042  0.5374  0.1910 -0.2090
  164OSM   H14A18424   6.301   3.355   1.937  1.8340  0.1696 -0.5622
  164OSM   H14B18425   6.237   3.362   2.100  0.8001 -1.0602  0.4059
  164OSM   H14C18426   6.379   3.263   2.070  1.4752  0.4135 -1.1456
  164OSM    C1318427   6.320   3.604   2.049  0.8185 -0.2162 -0.0753
  164OSM   H13A18428   6.225   3.584   2.096  1.4207 -2.4344  0.3247
  164OSM   H13B18429   6.293   3.605   1.944 -2.1515 -2.1551  0.5290
  164OSM   H13C18430   6.365   3.694   2.089  0.0154  0.2912 -0.2907
  164OSM    C1218431   6.527   3.480   1.981  0.0406  0.1079  0.9955
  164OSM   H12A18432   6.497   3.487   1.878  0.3658  1.8311  0.9899
  164OSM   H12B18433   6.583   3.387   1.993 -0.8644 -0.7463 -1.0233
  164OSM    C1118434   6.624   3.601   1.996  0.4505 -0.8616  0.6088
  164OSM   H11A18435   6.577   3.697   1.962  1.0186 -0.8287 -0.1004
  164OSM   H11B18436   6.701   3.573   1.921 -1.3874  1.3564 -2.3866
  164OSM      P18437   6.797   3.523   2.172  0.6172  0.4119  0.1158
  164OSM    O1318438   6.768   3.380   2.147 -0.3178 -0.0156 -0.1202
  164OSM    O1418439   6.923   3.581   2.122 -0.1314 -0.3632 -0.2460
  164OSM    O1118440   6.814   3.537   2.329 -0.3125  0.1501  0.3076
  164OSM    O1218441   6.678   3.612   2.128 -0.4638  0.3964  0.3090
  164OSM    C1S18442   6.868   3.654   2.388  0.4231  0.6033 -0.7549
  164OSM    H1S18443   6.839   3.755   2.350 -0.5052  0.2323 -1.0519
  164OSM    H1T18444   6.978   3.645   2.374  0.5226  1.3855 -0.5672
  164OSM     NF18445   6.821   3.779   2.608  0.6885 -0.3920 -0.6554
  164OSM    HNF18446   6.895   3.804   2.670 -0.0071  1.9641 -0.6831
  164OSM    C2S18447   6.829   3.648   2.542 -0.4788 -0.0975 -0.5489
  164OSM    H2S18448   6.725   3.608   2.549 -1.2916  2.1569  1.9515
  164OSM    C3S18449   6.909   3.542   2.623 -0.1165 -0.2290 -0.3985
  164OSM    H3S18450   7.013   3.581   2.625  1.5110 -3.8613 -2.8339
  164OSM     O318451   6.909   3.413   2.567  0.1405 -0.1611  0.2846
  164OSM    HO318452   6.877   3.424   2.477  0.4902 -1.9624 -0.0857
  164OSM    C4S18453   6.844   3.541   2.763  0.7928  0.6183  0.5377
  164OSM    H4S18454   6.734   3.535   2.755  0.8314  0.9700 -0.3712
  164OSM    C5S18455   6.920   3.569   2.874  0.3387  0.0789  0.3225
  164OSM    H5S18456   7.027   3.593   2.868  0.6317 -1.4083 -1.1912
  164OSM    C6S18457   6.864   3.606   3.014 -0.6309  0.1694  0.1247
  164OSM    H6S18458   6.761   3.647   3.013 -0.3891  0.8419 -1.9849
  164OSM    H6T18459   6.927   3.676   3.074 -1.5733  0.3226  0.9496
  164OSM    C7S18460   6.854   3.482   3.105 -0.1033 -0.3391 -0.3382
  164OSM    H7S18461   6.944   3.421   3.080 -0.7958 -1.5259 -0.0084
  164OSM    H7T18462   6.770   3.417   3.072  2.1504 -2.9609 -1.2730
  164OSM    C8S18463   6.820   3.510   3.251  0.3919 -0.4343 -0.3892
  164OSM    H8S18464   6.806   3.415   3.307  2.0317 -0.8045 -0.5687
  164OSM    H8T18465   6.725   3.568   3.251 -0.7633 -2.2294  0.7336
  164OSM    C9S18466   6.929   3.589   3.334 -0.6813 -0.1267  0.6803
  164OSM    H9S18467   6.902   3.582   3.442  0.5353  2.3855  1.2432
  164OSM    H9T18468   6.914   3.698   3.314 -2.0632 -0.1427  1.4852
  164OSM   C10S18469   7.069   3.548   3.300  0.0938 -0.5147 -0.1188
  164OSM   H10S18470   7.148   3.604   3.354 -1.6223  1.7958  0.1137
  164OSM   H10T18471   7.083   3.569   3.192  1.3361  0.1059  0.1459
  164OSM   C11S18472   7.101   3.403   3.322  0.4242  0.4579 -0.5898
  164OSM   H11S18473   7.192   3.376   3.264 -0.0388  0.7247 -1.4552
  164OSM   H11T18474   7.025   3.324   3.301  0.9453 -0.1969 -0.0816
  164OSM   C12S18475   7.141   3.376   3.473 -0.2650  0.3316  0.3064
  164OSM   H12S18476   7.068   3.414   3.548 -0.1223  2.8668 -0.7379
  164OSM   H12T18477   7.230   3.440   3.492 -0.5039  1.0363 -0.8966
  164OSM   C13S18478   7.186   3.236   3.495  0.0925 -0.2399  0.3915
  164OSM   H13S18479   7.256   3.193   3.421  0.5586 -0.1674  0.7868
  164OSM   H13T18480   7.098   3.169   3.485  0.3334 -0.3193 -1.6026
  164OSM   C14S18481   7.259   3.214   3.628  0.2313 -0.1757 -0.6237
  164OSM   H14S18482   7.211   3.271   3.711 -3.0993 -2.9668 -0.4027
  164OSM   H14T18483   7.361   3.256   3.619  0.2564  0.1402  0.9218
  164OSM   C15S18484   7.296   3.072   3.665  0.6027 -0.0103  0.7980
  164OSM   H15S18485   7.383   3.034   3.607 -0.4134 -1.4304  0.1388
  164OSM   H15T18486   7.202   3.018   3.644  0.6996  0.0699  0.1303
  164OSM   C16S18487   7.325   3.066   3.819  0.4156  0.1667 -0.0393
  164OSM   H16S18488   7.329   2.958   3.844  0.5789  0.3811  0.8959
  164OSM   H16T18489   7.243   3.107   3.881 -0.5527 -3.4011  1.2695
  164OSM   C17S18490   7.451   3.128   3.855 -0.3903 -0.0586  0.4178
  164OSM   H17S18491   7.457   3.141   3.965  0.8179 -1.9532  0.6047
  164OSM   H17T18492   7.470   3.232   3.818  0.2903  0.2959  1.6958
  164OSM   C18S18493   7.567   3.041   3.820  0.4082 -0.3192 -0.4745
  164OSM   H18S18494   7.547   2.933   3.838  2.9789 -0.4752  2.1957
  164OSM   H18T18495   7.650   3.051   3.892  1.3924  0.4468 -1.6731
  164OSM   H18U18496   7.614   3.045   3.719  2.4693  1.1323  0.4904
  164OSM    C1F18497   6.737   3.875   2.576  0.0565  0.2280  1.2845
  164OSM     OF18498   6.653   3.860   2.485 -0.0755 -0.2308 -0.9158
  164OSM    C2F18499   6.740   4.000   2.664  0.3489  0.7144  0.8109
  164OSM    H2F18500   6.751   4.094   2.606  1.7933 -0.2993 -0.6296
  164OSM    H2G18501   6.826   3.988   2.733  1.1223 -0.8627 -0.3569
  164OSM    C3F18502   6.613   4.024   2.757 -0.2667  0.3185 -0.2068
  164OSM    H3F18503   6.520   4.031   2.696 -0.5637 -1.6704 -0.0331
  164OSM    H3G18504   6.620   4.128   2.797 -0.6008 -0.2544  1.4071
  164OSM    C4F18505   6.609   3.918   2.872 -0.2373 -1.1243 -0.0300
  164OSM    H4F18506   6.711   3.907   2.914  0.2255  2.9898  0.3336
  164OSM    H4G18507   6.579   3.818   2.835  0.5629 -0.8468 -1.5037
  164OSM    C5F18508   6.516   3.956   2.993 -0.6994 -0.3447 -0.2514
  164OSM    H5F18509   6.418   3.961   2.942 -2.3504 -1.4654  2.5423
  164OSM    H5G18510   6.552   4.051   3.037  1.7535 -2.2682  2.3126
  164OSM    C6F18511   6.490   3.838   3.089 -0.0471  0.6999 -0.5262
  164OSM    H6F18512   6.573   3.822   3.161  0.0218  0.5022 -0.6480
  164OSM    H6G18513   6.488   3.738   3.040 -4.0393  0.7671 -0.8147
  164OSM    C7F18514   6.363   3.864   3.172  0.6421 -0.5638 -0.1608
  164OSM    H7F18515   6.276   3.846   3.105 -0.3685 -0.8086  1.1652
  164OSM    H7G18516   6.358   3.972   3.198 -2.8201 -0.5860 -0.2086
  164OSM    C8F18517   6.361   3.770   3.295 -0.2492 -0.0349  0.1776
  164OSM    H8F18518   6.436   3.824   3.356 -0.8209  0.7155  0.2378
  164OSM    H8G18519   6.398   3.672   3.257  0.4547  0.7428 -1.2193
  164OSM    C9F18520   6.231   3.763   3.375 -0.2277 -0.6616  0.5202
  164OSM    H9F18521   6.142   3.766   3.310  1.7658  0.1574 -2.3702
  164OSM   C10F18522   6.210   3.792   3.502 -0.1591 -0.1119  0.3501
  164OSM   H10F18523   6.108   3.797   3.541 -0.5562 -1.7579 -0.3568
  164OSM   C11F18524   6.325   3.818   3.597 -0.3690 -0.0312  0.1631
  164OSM   H11F18525   6.285   3.874   3.683  1.3540  0.1243  0.9059
  164OSM   H11G18526   6.397   3.883   3.544 -0.0831 -1.1466 -0.8656
  164OSM   C12F18527   6.407   3.697   3.653  0.1710  0.3290 -0.0472
  164OSM   H12F18528   6.341   3.640   3.721  1.8560 -1.6890  0.0105
  164OSM   H12G18529   6.486   3.741   3.718  2.1010 -2.2674 -0.4629
  164OSM   C13F18530   6.493   3.611   3.556 -0.4968  0.1550  0.1690
  164OSM   H13F18531   6.563   3.676   3.499 -0.1214  0.6359  1.1610
  164OSM   H13G18532   6.427   3.548   3.493  0.4660  0.1034 -0.8287
  164OSM   C14F18533   6.574   3.517   3.646  0.0620 -0.8559  0.2859
  164OSM   H14F18534   6.514   3.463   3.722  1.9529 -2.2225  0.8843
  164OSM   H14G18535   6.646   3.578   3.705 -0.2902 -1.3260  1.2156
  164OSM   C15F18536   6.658   3.416   3.561  0.0944  0.3345 -0.1857
  164OSM   H15F18537   6.734   3.474   3.503  0.3233  1.3756  1.1072
  164OSM   H15G18538   6.605   3.352   3.487 -0.7484  1.5003 -0.6176
  164OSM   C16F18539   6.733   3.323   3.656  0.4489  0.2033  0.0454
  164OSM   H16F18540   6.663   3.271   3.725 -0.6491  1.4494 -0.0799
  164OSM   H16G18541   6.794   3.384   3.725  0.2130 -1.3862  1.7304
  164OSM   C17F18542   6.816   3.213   3.581  0.1797 -0.5592 -0.2513
  164OSM   H17F18543   6.894   3.264   3.520 -0.3631 -1.7281 -1.9716
  164OSM   H17G18544   6.744   3.163   3.514  0.3611 -2.3157  0.8052
  164OSM   C18F18545   6.878   3.110   3.669  0.0997 -0.0758  0.1570
  164OSM   H18F18546   6.803   3.042   3.714 -0.1840  0.9161  1.2305
  164OSM   H18G18547   6.945   3.150   3.748  1.0200 -0.3974 -0.4531
  164OSM   H18H18548   6.948   3.048   3.609  1.1004  0.7505  0.4398
  165SAPS     N18549   3.734   1.558   6.961  0.3076  0.1320  0.3284
  165SAPS   HN118550   3.655   1.623   6.943  1.1030  0.5050 -2.1637
  165SAPS   HN218551   3.808   1.617   7.003  0.4559 -1.2713  2.2030
  165SAPS   HN318552   3.773   1.536   6.868  0.0352  1.5692 -0.1462
  165SAPS   C1218553   3.697   1.439   7.032  0.0218 -0.1886  0.3491
  165SAPS  H12A18554   3.782   1.373   7.030 -1.7988 -2.6532 -1.9774
  165SAPS   C1318555   3.655   1.451   7.177 -0.4132 -0.1591 -0.7807
  165SAPS  O13A18556   3.657   1.566   7.229 -0.6483 -0.2254  0.1760
  165SAPS  O13B18557   3.657   1.354   7.253 -0.4677  0.3410 -0.6988
  165SAPS   C1118558   3.572   1.376   6.953 -0.2696 -0.1625 -0.0803
  165SAPS  H11A18559   3.502   1.461   6.968 -1.9151 -1.7581  1.9361
  165SAPS  H11B18560   3.542   1.284   7.008  0.1892 -0.8847 -1.0176
  165SAPS     P18561   3.530   1.260   6.717  0.1199  0.2371  0.0003
  165SAPS   O1318562   3.602   1.141   6.680  0.3040 -0.1647 -0.0924
  165SAPS   O1418563   3.396   1.229   6.776 -0.6065  0.1643 -0.3316
  165SAPS   O1218564   3.613   1.352   6.816  0.7927  0.3499 -0.1350
  165SAPS   O1118565   3.511   1.357   6.596  0.7334 -0.3889 -0.2915
  165SAPS    C118566   3.591   1.362   6.480 -0.1599  0.9099 -0.0722
  165SAPS    HA18567   3.614   1.468   6.456 -0.1196  1.4876  2.2777
  165SAPS    HB18568   3.684   1.302   6.494 -1.3137 -0.5650  1.8756
  165SAPS    C218569   3.509   1.309   6.358  0.5124 -0.3697 -0.6996
  165SAPS    HS18570   3.478   1.205   6.378 -2.3074  0.7492  1.3688
  165SAPS   O2118571   3.587   1.334   6.240  0.1614 -0.0005 -0.7696
  165SAPS   C2118572   3.689   1.246   6.217 -0.6340  0.8253  0.5344
  165SAPS   O2218573   3.711   1.146   6.280 -0.0075 -0.4511  0.1304
  165SAPS   C2218574   3.771   1.298   6.097 -0.3092 -0.4182 -0.4919
  165SAPS   H2R18575   3.700   1.320   6.014  0.8999 -0.3819 -1.5339
  165SAPS   H2S18576   3.812   1.399   6.120 -0.1546 -0.1137 -2.0282
  165SAPS    C318577   3.372   1.383   6.351 -0.9846 -0.4993 -0.1550
  165SAPS    HX18578   3.394   1.491   6.365  2.9335 -0.9362 -1.6181
  165SAPS    HY18579   3.311   1.349   6.438  2.4632  1.2865  3.3063
  165SAPS   O3118580   3.300   1.363   6.226  0.0124 -0.0623  0.6117
  165SAPS   C3118581   3.189   1.434   6.213 -0.6957 -0.5765 -0.6881
  165SAPS   O3218582   3.156   1.520   6.292 -0.3072  0.0356  0.5252
  165SAPS   C3218583   3.133   1.423   6.067 -0.0562  0.4622  0.1590
  165SAPS   H2X18584   3.034   1.472   6.052  0.1610  0.8127 -0.1556
  165SAPS   H2Y18585   3.114   1.316   6.044  0.9552  1.0377 -4.2658
  165SAPS   C2318586   3.886   1.216   6.042 -0.4874  0.1033 -0.2037
  165SAPS   H3R18587   3.846   1.117   6.011  2.2394 -1.6033  1.3125
  165SAPS   H3S18588   3.938   1.170   6.129 -0.1070 -2.4441 -1.6890
  165SAPS   C2418589   3.954   1.289   5.927  0.1820  0.0492 -0.2717
  165SAPS   H4R18590   3.965   1.393   5.965 -1.0430  0.0123  0.2109
  165SAPS   H4S18591   3.870   1.305   5.856 -0.9917 -0.2208  1.0153
  165SAPS   C2518592   4.083   1.245   5.862  0.1217  0.1519  0.0032
  165SAPS   H5R18593   4.150   1.216   5.944 -0.5890  0.4560  0.7199
  165SAPS   C2618594   4.116   1.250   5.731  0.1753  0.1249 -0.0094
  165SAPS   H6R18595   4.217   1.225   5.695  0.0312 -0.5618  0.0525
  165SAPS   C2718596   4.031   1.301   5.620  0.1777 -0.1300 -0.9506
  165SAPS   H7R18597   3.936   1.340   5.663  0.4237 -1.0231  0.4685
  165SAPS   H7S18598   4.004   1.221   5.547 -1.4200  0.2692 -0.8452
  165SAPS   C2818599   4.110   1.412   5.558 -0.0499 -0.7561  0.8536
  165SAPS   H8R18600   4.161   1.483   5.624  0.6224  0.0147 -0.4375
  165SAPS   C2918601   4.104   1.451   5.425  0.2157  0.3531 -0.2404
  165SAPS   H9R18602   4.173   1.529   5.390  0.6842  0.3624  0.6657
  165SAPS  C21018603   4.034   1.380   5.309 -0.1498 -0.2953 -0.7043
  165SAPS  H10R18604   3.979   1.457   5.251 -1.3616 -0.3936  0.2688
  165SAPS  H10S18605   3.957   1.313   5.354  0.6999  0.8874  2.8390
  165SAPS  C21118606   4.137   1.295   5.233  0.1133 -0.0292 -0.2211
  165SAPS  H11R18607   4.164   1.212   5.300 -1.1593  0.7867  1.3977
  165SAPS  C21218608   4.189   1.319   5.111 -0.1851  0.2886 -0.1281
  165SAPS  H12R18609   4.273   1.257   5.074 -0.1558 -0.4827  1.1825
  165SAPS  C21318610   4.144   1.438   5.026  0.2795  0.0114  0.2986
  165SAPS  H13R18611   4.187   1.527   5.077  0.7688 -0.7162  1.1954
  165SAPS  H13S18612   4.033   1.433   5.022  0.3228 -0.8350  0.0209
  165SAPS  C21418613   4.201   1.425   4.888 -0.4826 -0.4305 -0.1098
  165SAPS  H14R18614   4.311   1.435   4.885 -0.4494 -0.5961  0.4498
  165SAPS  C21518615   4.138   1.389   4.774  0.7351  0.1658 -0.5099
  165SAPS  H15R18616   4.190   1.383   4.677 -1.0479  0.9037 -1.5815
  165SAPS  C21618617   3.990   1.356   4.768 -0.2894  0.2888 -0.3009
  165SAPS  H16R18618   3.936   1.336   4.863  0.2838 -0.9998 -0.2258
  165SAPS  H16S18619   3.974   1.259   4.716 -0.1489 -2.0315  3.5771
  165SAPS  C21718620   3.917   1.460   4.692  0.4108 -0.5008 -0.0902
  165SAPS  H17R18621   3.963   1.473   4.591 -0.2951 -1.6555 -0.5749
  165SAPS  H17S18622   3.908   1.556   4.748 -1.1128 -1.0508  0.6380
  165SAPS  C21818623   3.765   1.429   4.670 -0.1215 -0.1071 -0.2566
  165SAPS  H18R18624   3.724   1.529   4.642  1.7290  1.2208  1.4929
  165SAPS  H18S18625   3.725   1.398   4.769 -0.3764  1.0997  0.0423
  165SAPS  C21918626   3.734   1.337   4.558  0.2785  0.2368  0.0192
  165SAPS  H19R18627   3.771   1.235   4.581 -2.1592 -1.0090 -1.1402
  165SAPS  H19S18628   3.787   1.376   4.468 -2.4525  0.5690 -1.5819
  165SAPS  C22018629   3.589   1.305   4.529 -0.4173  0.4195  0.0788
  165SAPS  H20R18630   3.531   1.400   4.525  0.2856  0.8121 -1.5666
  165SAPS  H20S18631   3.559   1.236   4.611  2.6450  1.0150  1.8299
  165SAPS  H20T18632   3.562   1.265   4.428 -0.4572  0.5307  0.0446
  165SAPS   C3318633   3.238   1.459   5.962 -0.2406  0.6038  0.6538
  165SAPS   H3X18634   3.320   1.386   5.943 -1.3267 -0.6008  0.4008
  165SAPS   H3Y18635   3.306   1.544   5.982  1.0066 -0.7522  2.6731
  165SAPS   C3418636   3.174   1.472   5.826 -0.6739  0.3880 -0.0266
  165SAPS   H4X18637   3.121   1.569   5.818 -2.2780 -0.5085 -0.9615
  165SAPS   H4Y18638   3.101   1.389   5.813  1.5297 -1.8383  1.1468
  165SAPS   C3518639   3.281   1.487   5.721  0.5580 -0.4089  0.2073
  165SAPS   H5X18640   3.352   1.402   5.726  2.5728  1.1369 -0.7079
  165SAPS   H5Y18641   3.335   1.580   5.749  0.3359  0.4390 -2.0023
  165SAPS   C3618642   3.238   1.498   5.575  0.2189  0.5922 -0.8463
  165SAPS   H6X18643   3.179   1.409   5.546  1.2778 -0.1167 -0.9090
  165SAPS   H6Y18644   3.336   1.494   5.522  1.5000 -0.9304  1.3969
  165SAPS   C3718645   3.152   1.617   5.542 -0.1267 -0.0789  0.6989
  165SAPS   H7X18646   3.183   1.714   5.586 -1.5744  0.0448  1.5022
  165SAPS   H7Y18647   3.055   1.595   5.592 -0.3353 -1.6931 -0.3404
  165SAPS   C3818648   3.121   1.643   5.388 -0.2672  0.3940 -0.4173
  165SAPS   H8X18649   3.219   1.682   5.352 -0.1287 -0.1854 -0.6737
  165SAPS   H8Y18650   3.040   1.718   5.376 -0.0134  0.6724 -0.3927
  165SAPS   C3918651   3.086   1.513   5.308  0.0013 -0.1239  0.0395
  165SAPS   H9X18652   2.994   1.464   5.348  0.1622 -1.3314 -1.0121
  165SAPS   H9Y18653   3.164   1.436   5.327  1.6236  1.5276  0.3337
  165SAPS  C31018654   3.090   1.542   5.163 -0.0494  0.0326  0.1695
  165SAPS  H10X18655   3.071   1.445   5.112  0.0338  0.8287 -1.4435
  165SAPS  H10Y18656   3.192   1.581   5.143 -0.0744  0.5293  0.9627
  165SAPS  C31118657   2.987   1.639   5.096  0.9179 -0.2491 -0.6783
  165SAPS  H11X18658   2.989   1.741   5.139  0.8971 -0.6571  0.3199
  165SAPS  H11Y18659   2.884   1.600   5.114  0.0173  2.2125 -0.1599
  165SAPS  C31218660   3.012   1.661   4.945 -0.0908  0.7027  0.0736
  165SAPS  H12X18661   3.106   1.721   4.941  0.6140 -0.3901 -0.0919
  165SAPS  H12Y18662   2.920   1.712   4.908 -1.2846 -1.6426 -0.3741
  165SAPS  C31318663   3.033   1.538   4.863  0.5143  0.3520 -0.3086
  165SAPS  H13X18664   2.950   1.473   4.897  0.1481 -0.4693 -2.6248
  165SAPS  H13Y18665   3.136   1.502   4.885  0.8892  1.9253  0.6983
  165SAPS  C31418666   3.016   1.557   4.718 -0.4272 -0.0815 -0.1894
  165SAPS  H14X18667   3.061   1.652   4.682 -2.9160  0.1881 -2.9336
  165SAPS  H14Y18668   2.907   1.557   4.697 -0.5084 -0.2211  0.2168
  165SAPS  C31518669   3.075   1.439   4.631 -0.3325 -0.1507  0.2769
  165SAPS  H15X18670   3.186   1.442   4.631 -0.2888  1.4411 -2.3816
  165SAPS  H15Y18671   3.037   1.472   4.532  0.7228  1.5293  0.3999
  165SAPS  C31618672   3.016   1.306   4.675 -0.3544  0.5289  0.4844
  165SAPS  H16X18673   2.906   1.305   4.689  0.0050  2.3989  6.3127
  165SAPS  H16Y18674   3.061   1.266   4.769 -1.1974  2.2848  1.6957
  165SAPS  C31718675   3.047   1.199   4.571 -0.4329 -0.4695  0.1820
  165SAPS  H17X18676   3.010   1.230   4.471  0.5265  1.0381  0.2588
  165SAPS  H17Y18677   3.002   1.101   4.597  0.6630 -1.0520 -0.0551
  165SAPS  C31818678   3.196   1.164   4.561 -0.6201  0.5331 -0.1708
  165SAPS  H18X18679   3.240   1.150   4.661 -0.7984  0.5497 -0.0895
  165SAPS  H18Y18680   3.257   1.242   4.509 -0.6036  0.9880  0.5228
  165SAPS  H18Z18681   3.198   1.068   4.506  1.0377 -0.4558  1.5281
  166SAPS     N18682   1.007   0.286   7.047  0.2827  0.5650 -0.0546
  166SAPS   HN118683   1.091   0.311   6.991  0.8718 -0.5588  0.3044
  166SAPS   HN218684   0.994   0.356   7.122 -0.0267  1.3334 -0.8016
  166SAPS   HN318685   1.022   0.189   7.080 -1.3858  0.6447  1.0498
  166SAPS   C1218686   0.891   0.297   6.949 -0.3699  0.2815  0.0737
  166SAPS  H12A18687   0.892   0.210   6.886 -0.2426 -0.0866  0.5820
  166SAPS   C1318688   0.760   0.292   7.022  0.0219 -0.3678 -0.2358
  166SAPS  O13A18689   0.757   0.303   7.146 -0.4796  0.6559 -0.6323
  166SAPS  O13B18690   0.653   0.280   6.959 -0.0557  0.0494  0.4799
  166SAPS   C1118691   0.907   0.418   6.854 -0.2644  0.3530 -0.3473
  166SAPS  H11A18692   0.895   0.507   6.919 -2.9749 -1.7032  2.2574
  166SAPS  H11B18693   0.831   0.420   6.773  1.2665  1.2324 -1.8252
  166SAPS     P18694   1.080   0.356   6.667 -0.0678 -0.0905  0.2763
  166SAPS   O1318695   1.224   0.384   6.647 -0.5051  0.0605  0.3382
  166SAPS   O1418696   1.042   0.215   6.689 -0.2568 -0.3815  0.0104
  166SAPS   O1218697   1.036   0.428   6.799  0.1209 -0.3082 -0.1148
  166SAPS   O1118698   1.012   0.427   6.546 -0.1974  0.2650 -0.0884
  166SAPS    C118699   0.985   0.559   6.552  0.2748 -0.3555 -0.3346
  166SAPS    HA18700   0.906   0.577   6.629  0.4963 -1.4371  0.1523
  166SAPS    HB18701   1.076   0.610   6.591  0.2218 -0.7841  0.3626
  166SAPS    C218702   0.962   0.616   6.412  0.0940 -0.4149 -0.0470
  166SAPS    HS18703   0.936   0.724   6.418 -1.2411 -0.7505  0.5006
  166SAPS   O2118704   0.866   0.544   6.345 -0.4072 -0.5330 -0.0349
  166SAPS   C2118705   0.735   0.584   6.383  0.0270  0.5411 -0.1137
  166SAPS   O2218706   0.710   0.661   6.472 -0.0515  0.0863  0.2214
  166SAPS   C2218707   0.638   0.523   6.284 -0.0177  0.1658  0.0700
  166SAPS   H2R18708   0.689   0.441   6.230  2.3415  1.1953  0.6119
  166SAPS   H2S18709   0.556   0.470   6.337 -0.6651  1.3195  0.2750
  166SAPS    C318710   1.086   0.603   6.330  0.0939 -0.4502  0.0209
  166SAPS    HX18711   1.091   0.503   6.283  2.0915  0.5152 -2.0011
  166SAPS    HY18712   1.166   0.626   6.404 -0.8598  1.2261  0.5873
  166SAPS   O3118713   1.078   0.692   6.213 -0.3422 -0.1636  0.1618
  166SAPS   C3118714   1.122   0.815   6.233 -0.2501 -0.6478 -0.0121
  166SAPS   O3218715   1.164   0.860   6.338  0.6556  0.2131 -0.2679
  166SAPS   C3218716   1.122   0.898   6.100 -0.3495 -0.3501 -0.5551
  166SAPS   H2X18717   1.016   0.921   6.077  0.1087  0.1464 -2.2794
  166SAPS   H2Y18718   1.173   0.832   6.026  0.3403 -0.1052 -0.3085
  166SAPS   C2318719   0.591   0.630   6.177  0.4030 -0.3823  0.7091
  166SAPS   H3R18720   0.520   0.704   6.219  0.6847  0.1174  0.3124
  166SAPS   H3S18721   0.534   0.576   6.098  2.8135 -0.6378 -0.9776
  166SAPS   C2418722   0.709   0.701   6.098 -0.6684 -0.2042 -0.4904
  166SAPS   H4R18723   0.767   0.758   6.173 -2.7277  0.3592  0.7157
  166SAPS   H4S18724   0.675   0.779   6.027  1.7844  0.2931 -1.2481
  166SAPS   C2518725   0.801   0.609   6.017  0.4474 -0.2597  0.2465
  166SAPS   H5R18726   0.868   0.546   6.076  0.3529  0.2249  0.8914
  166SAPS   C2618727   0.795   0.593   5.883  0.7312 -0.2455 -0.3701
  166SAPS   H6R18728   0.866   0.523   5.837  1.2422 -0.4906  0.7633
  166SAPS   C2718729   0.700   0.668   5.791 -0.6506 -0.2111  0.1080
  166SAPS   H7R18730   0.594   0.668   5.824 -0.7572 -0.1725 -0.2214
  166SAPS   H7S18731   0.700   0.615   5.693 -2.8160 -0.8301  0.4029
  166SAPS   C2818732   0.743   0.808   5.760  0.3531 -0.4978  0.0701
  166SAPS   H8R18733   0.760   0.872   5.848  0.1466 -0.6838  0.2479
  166SAPS   C2918734   0.772   0.861   5.640  0.6423  0.7678 -0.0714
  166SAPS   H9R18735   0.777   0.971   5.641  0.5615  0.8039  2.5505
  166SAPS  C21018736   0.791   0.799   5.504 -0.3743 -0.0394  0.1199
  166SAPS  H10R18737   0.878   0.732   5.490 -2.1880 -2.0824 -2.3074
  166SAPS  H10S18738   0.820   0.879   5.432 -1.0796 -0.3146 -0.4817
  166SAPS  C21118739   0.666   0.739   5.449  0.5466 -0.6164 -0.5014
  166SAPS  H11R18740   0.612   0.670   5.516  2.1243 -2.2565 -0.8256
  166SAPS  C21218741   0.607   0.782   5.331  0.2965  0.3750 -0.1171
  166SAPS  H12R18742   0.517   0.727   5.301 -0.9679  1.3602  1.7515
  166SAPS  C21318743   0.646   0.881   5.221 -0.4533 -0.2131 -0.4641
  166SAPS  H13R18744   0.717   0.955   5.264  1.1924 -1.3160 -1.1794
  166SAPS  H13S18745   0.554   0.934   5.187 -0.5304 -0.6090 -0.8826
  166SAPS  C21418746   0.711   0.814   5.102 -1.1618  0.8933 -0.4586
  166SAPS  H14R18747   0.746   0.713   5.127  0.2243  1.8938  1.9537
  166SAPS  C21518748   0.734   0.860   4.982  0.3204 -0.0598  0.4707
  166SAPS  H15R18749   0.794   0.793   4.918 -0.5085  0.1877 -0.5952
  166SAPS  C21618750   0.689   0.993   4.925  0.3584 -0.4875 -0.5003
  166SAPS  H16R18751   0.647   1.060   5.003  2.9648  0.4586  0.1802
  166SAPS  H16S18752   0.596   0.982   4.865 -1.2034  0.1727  1.6865
  166SAPS  C21718753   0.797   1.070   4.855 -0.2171  0.0020  0.2445
  166SAPS  H17R18754   0.813   1.031   4.752 -1.1265 -2.3729  0.9390
  166SAPS  H17S18755   0.901   1.067   4.894  0.1324  1.5352 -0.4791
  166SAPS  C21818756   0.777   1.222   4.838 -0.1553  0.7026 -0.0798
  166SAPS  H18R18757   0.840   1.261   4.754  1.0868  0.9337  0.9355
  166SAPS  H18S18758   0.807   1.270   4.933 -0.3520 -1.8720  1.3502
  166SAPS  C21918759   0.632   1.264   4.810  0.8402  0.0757  0.5325
  166SAPS  H19R18760   0.573   1.254   4.903 -0.3218  1.2974 -0.0380
  166SAPS  H19S18761   0.594   1.195   4.732  1.9008 -1.1430  1.0536
  166SAPS  C22018762   0.621   1.413   4.765 -0.2486  0.5236  0.1444
  166SAPS  H20R18763   0.648   1.473   4.854  0.2131 -1.2755  1.2795
  166SAPS  H20S18764   0.517   1.444   4.738 -0.1557  1.1014  0.4497
  166SAPS  H20T18765   0.679   1.425   4.671 -2.3943 -1.8850 -1.6576
  166SAPS   C3318766   1.189   1.040   6.134 -0.4456  0.4736 -0.3324
  166SAPS   H3X18767   1.288   1.021   6.180 -2.0176 -0.0190  3.1782
  166SAPS   H3Y18768   1.114   1.080   6.206 -1.8472 -2.2456 -0.1301
  166SAPS   C3418769   1.207   1.130   6.016  0.2300  0.5171 -0.1641
  166SAPS   H4X18770   1.232   1.232   6.051 -1.0882  0.1870  1.8827
  166SAPS   H4Y18771   1.106   1.142   5.971 -0.6089 -0.7573  1.2754
  166SAPS   C3518772   1.309   1.076   5.915 -0.4416  1.1878  0.2775
  166SAPS   H5X18773   1.274   1.009   5.833  1.9781  1.2610 -0.8813
  166SAPS   H5Y18774   1.380   1.008   5.967 -0.7371 -1.6176 -2.6170
  166SAPS   C3618775   1.380   1.192   5.845 -0.7112  0.4741  0.6614
  166SAPS   H6X18776   1.480   1.162   5.808 -0.3065 -0.0297  2.1192
  166SAPS   H6Y18777   1.402   1.271   5.920  3.5437 -1.0642  1.3421
  166SAPS   C3718778   1.303   1.229   5.721 -0.3304  0.8312  0.2317
  166SAPS   H7X18779   1.337   1.334   5.705 -0.9745  1.0150  0.0061
  166SAPS   H7Y18780   1.194   1.240   5.741  0.1577  2.2546  2.5359
  166SAPS   C3818781   1.339   1.146   5.594  0.6917  0.4071 -0.0813
  166SAPS   H8X18782   1.321   1.037   5.609 -1.2539  0.5209 -1.3353
  166SAPS   H8Y18783   1.445   1.160   5.565  0.6129 -0.7428 -0.9827
  166SAPS   C3918784   1.238   1.179   5.482  0.1262  0.0744 -0.0134
  166SAPS   H9X18785   1.265   1.262   5.413  1.9135 -0.0690  0.4580
  166SAPS   H9Y18786   1.147   1.212   5.536  0.7683  0.5659  0.7892
  166SAPS  C31018787   1.210   1.059   5.387  0.2876 -0.0022  0.4837
  166SAPS  H10X18788   1.168   0.973   5.444  0.5078  1.1861  2.5596
  166SAPS  H10Y18789   1.304   1.015   5.347 -0.6867 -1.0453 -0.7341
  166SAPS  C31118790   1.107   1.093   5.274 -0.5363  0.0557 -0.1374
  166SAPS  H11X18791   1.116   1.200   5.244  1.4314 -0.3175 -1.0049
  166SAPS  H11Y18792   1.008   1.057   5.310 -0.0386 -0.7695  0.4261
  166SAPS  C31218793   1.137   1.010   5.147  0.2622 -0.1411 -0.7572
  166SAPS  H12X18794   1.041   1.006   5.091 -0.2518  1.0595  0.0006
  166SAPS  H12Y18795   1.166   0.906   5.173  0.6671  0.8151  3.1619
  166SAPS  C31318796   1.238   1.082   5.062  0.0339 -0.5103 -0.2849
  166SAPS  H13X18797   1.339   1.096   5.107  0.5378  1.3025 -1.8339
  166SAPS  H13Y18798   1.201   1.186   5.046 -2.5148 -1.4116 -0.6677
  166SAPS  C31418799   1.261   1.014   4.926  0.2589  0.5654  0.6329
  166SAPS  H14X18800   1.173   1.003   4.859 -0.5350 -2.1155  1.9436
  166SAPS  H14Y18801   1.290   0.910   4.953 -0.3597  0.3677  0.5511
  166SAPS  C31518802   1.370   1.083   4.837 -0.1419  0.0890  0.6454
  166SAPS  H15X18803   1.470   1.056   4.877 -0.4784 -0.2853  1.2496
  166SAPS  H15Y18804   1.362   1.194   4.832 -1.5624 -0.0038  0.4620
  166SAPS  C31618805   1.364   1.016   4.694 -0.0790  0.7321 -0.1039
  166SAPS  H16X18806   1.265   1.039   4.649 -0.6105 -0.6819  0.3042
  166SAPS  H16Y18807   1.379   0.908   4.715  1.1428  0.8556 -0.2556
  166SAPS  C31718808   1.468   1.073   4.589  0.2216  0.0715 -0.6673
  166SAPS  H17X18809   1.443   1.031   4.489  0.1065 -1.3258 -0.0793
  166SAPS  H17Y18810   1.567   1.026   4.606 -0.4898 -2.6360 -3.2129
  166SAPS  C31818811   1.478   1.223   4.595  0.0952 -0.5868  0.3484
  166SAPS  H18X18812   1.538   1.252   4.683  0.8284  1.9943 -0.9050
  166SAPS  H18Y18813   1.381   1.275   4.583  0.2776 -0.7455 -2.8686
  166SAPS  H18Z18814   1.544   1.256   4.511 -0.3874  0.4694  0.3704
  167SAPS     N18815   5.397   1.594   7.101 -0.2574 -0.2710  0.1888
  167SAPS   HN118816   5.351   1.685   7.115 -0.5367 -0.5982  1.4961
  167SAPS   HN218817   5.402   1.535   7.187 -0.6458  1.9193  1.7915
  167SAPS   HN318818   5.495   1.624   7.082 -0.3658  0.7853  1.2154
  167SAPS   C1218819   5.366   1.520   6.975 -0.5187 -0.3533  1.4868
  167SAPS  H12A18820   5.447   1.462   6.933 -0.7189 -0.2947  1.0125
  167SAPS   C1318821   5.263   1.408   6.991  0.4503 -0.2550 -0.1093
  167SAPS  O13A18822   5.192   1.400   7.094 -0.1900  0.2384  0.0530
  167SAPS  O13B18823   5.224   1.351   6.888  0.1201 -0.1475  0.3417
  167SAPS   C1118824   5.328   1.627   6.864  0.2100 -0.2842  0.3839
  167SAPS  H11A18825   5.231   1.679   6.877 -1.4837 -2.3274 -2.8590
  167SAPS  H11B18826   5.307   1.581   6.765 -0.2294 -0.2280  0.4500
  167SAPS     P18827   5.557   1.713   6.752  0.8051  0.6325 -0.1810
  167SAPS   O1318828   5.654   1.818   6.779 -0.1418  0.1869 -0.2710
  167SAPS   O1418829   5.612   1.575   6.747  0.5674  0.3981  0.0524
  167SAPS   O1218830   5.436   1.723   6.853 -0.1139 -0.3213  0.3442
  167SAPS   O1118831   5.492   1.733   6.607 -0.0271 -0.5023  0.2629
  167SAPS    C118832   5.373   1.808   6.582  0.4419  0.1934  0.5010
  167SAPS    HA18833   5.305   1.725   6.555  1.1588 -0.8095  1.6944
  167SAPS    HB18834   5.341   1.872   6.667  0.9118  0.8166  0.2159
  167SAPS    C218835   5.387   1.902   6.453  0.4383 -0.7485 -0.6823
  167SAPS    HS18836   5.286   1.921   6.411  0.4891 -0.8036 -0.8281
  167SAPS   O2118837   5.488   1.843   6.363 -0.3481  0.1914 -0.7782
  167SAPS   C2118838   5.436   1.767   6.273 -0.0710  0.1890 -0.4620
  167SAPS   O2218839   5.320   1.728   6.275  0.0945 -0.0457  0.2530
  167SAPS   C2218840   5.535   1.734   6.164 -0.7628  0.4666  0.3199
  167SAPS   H2R18841   5.621   1.700   6.226 -0.8161 -0.1017  0.0916
  167SAPS   H2S18842   5.500   1.644   6.109 -2.4275  0.8057  0.7670
  167SAPS    C318843   5.435   2.050   6.497  0.2122  0.7527 -0.0312
  167SAPS    HX18844   5.529   2.042   6.555  1.7656 -0.1405 -2.5044
  167SAPS    HY18845   5.358   2.098   6.561  0.8181  0.6308  0.8054
  167SAPS   O3118846   5.476   2.131   6.389  0.2257  0.4311 -0.9755
  167SAPS   C3118847   5.390   2.217   6.328  0.1056 -0.0066  0.2762
  167SAPS   O3218848   5.269   2.218   6.354 -0.0396 -0.0879 -0.2568
  167SAPS   C3218849   5.452   2.277   6.207 -0.0031 -0.4116 -0.2546
  167SAPS   H2X18850   5.410   2.223   6.118  3.0242 -0.3692 -1.8536
  167SAPS   H2Y18851   5.561   2.264   6.218  0.3565 -0.2697 -2.9047
  167SAPS   C2318852   5.565   1.851   6.069 -0.4162 -0.0510  0.5487
  167SAPS   H3R18853   5.664   1.848   6.018 -0.0108  1.2270  1.2335
  167SAPS   H3S18854   5.567   1.942   6.132 -1.6227  1.9012 -2.0402
  167SAPS   C2418855   5.443   1.877   5.977  0.4376  0.8087 -0.3522
  167SAPS   H4R18856   5.447   1.972   5.919 -1.1760 -0.1633 -2.1618
  167SAPS   H4S18857   5.362   1.887   6.052 -0.6926 -1.5374 -1.1570
  167SAPS   C2518858   5.411   1.774   5.877 -0.5156  0.4076 -0.2631
  167SAPS   H5R18859   5.493   1.758   5.805  0.4690  0.6580  0.7733
  167SAPS   C2618860   5.291   1.717   5.860  0.2772  0.5462 -0.0983
  167SAPS   H6R18861   5.280   1.637   5.785  3.0274 -0.9775  1.0149
  167SAPS   C2718862   5.166   1.729   5.946  0.4384  0.0501  0.5003
  167SAPS   H7R18863   5.099   1.793   5.886  2.7649  0.7220 -1.5503
  167SAPS   H7S18864   5.194   1.789   6.035  1.9558  1.0488 -0.5991
  167SAPS   C2818865   5.099   1.594   5.978 -0.1641  0.4149 -0.5965
  167SAPS   H8R18866   5.164   1.509   6.006 -1.0449 -0.3498 -0.8257
  167SAPS   C2918867   4.969   1.568   5.989 -0.0482  0.2787  0.4075
  167SAPS   H9R18868   4.931   1.466   6.006 -0.3963  0.4881  0.9251
  167SAPS  C21018869   4.866   1.683   5.970 -0.2291 -0.6624 -0.1157
  167SAPS  H10R18870   4.860   1.712   5.863 -0.2396  1.0108  0.3069
  167SAPS  H10S18871   4.909   1.768   6.028 -3.0479 -0.6200  2.1026
  167SAPS  C21118872   4.736   1.646   6.029  0.4691 -0.7637  0.3366
  167SAPS  H11R18873   4.735   1.666   6.137  2.8039 -0.9887  0.4600
  167SAPS  C21218874   4.647   1.566   5.962  0.1530 -0.5796  0.5862
  167SAPS  H12R18875   4.548   1.536   6.000 -0.8568  1.0843 -0.5768
  167SAPS  C21318876   4.653   1.532   5.813 -0.6232  0.0919  0.0259
  167SAPS  H13R18877   4.679   1.424   5.812  0.9656  0.3895  2.0644
  167SAPS  H13S18878   4.735   1.582   5.757  0.4592 -2.2977 -0.6248
  167SAPS  C21418879   4.523   1.554   5.732 -0.4297  0.5669  0.4474
  167SAPS  H14R18880   4.436   1.600   5.780 -1.2720 -0.8776  0.3567
  167SAPS  C21518881   4.512   1.542   5.597 -0.3257 -0.0707 -0.5758
  167SAPS  H15R18882   4.411   1.548   5.553  0.0699  0.6921 -1.4222
  167SAPS  C21618883   4.616   1.499   5.503 -1.4308 -0.8483  0.2314
  167SAPS  H16R18884   4.641   1.392   5.518  1.0630 -0.1842  1.4082
  167SAPS  H16S18885   4.710   1.555   5.522 -2.3521  0.1424  2.1904
  167SAPS  C21718886   4.588   1.536   5.360 -0.0336 -0.2888 -0.3125
  167SAPS  H17R18887   4.485   1.505   5.335 -0.9768  1.1335  1.4966
  167SAPS  H17S18888   4.659   1.484   5.293 -0.1587 -1.3205  0.3431
  167SAPS  C21818889   4.605   1.688   5.331  0.7411 -0.9018 -0.1020
  167SAPS  H18R18890   4.685   1.739   5.388 -1.0336  1.1889  0.6752
  167SAPS  H18S18891   4.510   1.735   5.365  0.4795 -0.4213 -1.4438
  167SAPS  C21918892   4.623   1.741   5.187  0.0081 -0.5042  0.0167
  167SAPS  H19R18893   4.725   1.712   5.156  0.5093  0.8967  0.2838
  167SAPS  H19S18894   4.613   1.851   5.192  3.1116 -0.1469  0.0470
  167SAPS  C22018895   4.514   1.682   5.088 -0.7358  0.3279  0.0394
  167SAPS  H20R18896   4.522   1.572   5.104  2.4109  0.6627  1.4154
  167SAPS  H20S18897   4.542   1.696   4.982 -1.0040  1.1888  0.0759
  167SAPS  H20T18898   4.412   1.718   5.114 -0.4969  0.2335  1.1711
  167SAPS   C3318899   5.423   2.433   6.194 -0.5078  0.2392 -0.5170
  167SAPS   H3X18900   5.506   2.471   6.130  0.1816 -0.3429  0.0147
  167SAPS   H3Y18901   5.434   2.475   6.296 -0.9580 -3.5968  1.2878
  167SAPS   C3418902   5.293   2.474   6.123 -0.6562  0.2293 -0.2004
  167SAPS   H4X18903   5.269   2.577   6.158  0.6133  0.0189  1.3815
  167SAPS   H4Y18904   5.196   2.437   6.162  0.1174  0.7334  2.4174
  167SAPS   C3518905   5.295   2.460   5.975 -0.8140 -0.7056  0.5739
  167SAPS   H5X18906   5.314   2.352   5.955 -0.9386 -0.7518  0.7041
  167SAPS   H5Y18907   5.386   2.514   5.941 -0.8521 -1.6307 -1.1117
  167SAPS   C3618908   5.176   2.514   5.901 -0.2181 -0.2051 -0.4358
  167SAPS   H6X18909   5.173   2.625   5.899 -1.6745 -0.2093  0.1999
  167SAPS   H6Y18910   5.085   2.471   5.947 -0.8715  0.4936 -1.0619
  167SAPS   C3718911   5.183   2.474   5.752 -0.1616 -0.2848 -0.4609
  167SAPS   H7X18912   5.236   2.378   5.735 -1.3278 -0.7822 -1.4089
  167SAPS   H7Y18913   5.256   2.545   5.707 -0.3079  0.4823  0.4780
  167SAPS   C3818914   5.053   2.453   5.676  0.2339  0.6180 -0.3994
  167SAPS   H8X18915   4.989   2.540   5.701  0.1087  0.4505 -0.1333
  167SAPS   H8Y18916   5.026   2.350   5.708  3.4221 -1.2743 -3.0784
  167SAPS   C3918917   5.082   2.455   5.526  0.5955 -0.1873  0.0140
  167SAPS   H9X18918   5.164   2.384   5.505  1.5621  0.8872  0.0740
  167SAPS   H9Y18919   5.121   2.553   5.492  0.6418 -0.2699 -0.1733
  167SAPS  C31018920   4.957   2.427   5.441 -0.7287  0.0950 -0.2151
  167SAPS  H10X18921   4.888   2.514   5.449 -0.7817 -0.0846  1.9834
  167SAPS  H10Y18922   4.904   2.335   5.476 -0.4561  0.1432  0.3367
  167SAPS  C31118923   5.014   2.409   5.296  0.4977 -0.2709  0.6970
  167SAPS  H11X18924   5.066   2.311   5.298  1.2450  0.0237 -1.3166
  167SAPS  H11Y18925   5.086   2.493   5.284 -1.6742  1.7069  0.7876
  167SAPS  C31218926   4.914   2.399   5.181 -0.8600  0.2477  0.3471
  167SAPS  H12X18927   4.854   2.492   5.165 -1.9148 -0.5788 -0.6697
  167SAPS  H12Y18928   4.841   2.323   5.214 -0.6899 -0.5717 -1.0763
  167SAPS  C31318929   4.971   2.358   5.050 -0.4904  1.5063  0.2237
  167SAPS  H13X18930   5.026   2.264   5.076 -0.1410  1.3395 -1.0421
  167SAPS  H13Y18931   5.044   2.435   5.017  0.5323  0.9372  1.0656
  167SAPS  C31418932   4.877   2.320   4.940  0.2188  0.2783 -0.4284
  167SAPS  H14X18933   4.832   2.416   4.907 -0.4711  0.5452  1.1687
  167SAPS  H14Y18934   4.789   2.257   4.966  1.2379 -0.8063  0.5250
  167SAPS  C31518935   4.942   2.243   4.819 -0.5283 -0.3219  0.8137
  167SAPS  H15X18936   4.970   2.141   4.854 -2.0388 -1.0979 -0.1086
  167SAPS  H15Y18937   5.030   2.309   4.799 -1.9847  2.0078  1.6818
  167SAPS  C31618938   4.857   2.219   4.693 -0.7263 -0.3781  0.2682
  167SAPS  H16X18939   4.794   2.310   4.690 -0.4149 -0.0734  1.8441
  167SAPS  H16Y18940   4.791   2.129   4.696 -1.9920  0.5060 -0.1999
  167SAPS  C31718941   4.940   2.208   4.562  0.5217 -0.3444  0.4329
  167SAPS  H17X18942   4.993   2.110   4.563 -0.2591 -0.7825 -0.0016
  167SAPS  H17Y18943   5.017   2.288   4.565  2.2216 -1.9461  1.9872
  167SAPS  C31818944   4.841   2.201   4.446  0.1014 -0.4320 -0.5291
  167SAPS  H18X18945   4.754   2.137   4.472 -1.8217  2.6819  1.4346
  167SAPS  H18Y18946   4.886   2.156   4.355 -2.5605 -1.6318 -1.3331
  167SAPS  H18Z18947   4.804   2.299   4.408  1.4996  0.2540 -0.2036
  168SAPS     N18948   1.900   3.015   6.958 -0.0673 -0.1127  0.4617
  168SAPS   HN118949   1.909   3.033   6.856 -0.8436  1.7841  0.6935
  168SAPS   HN218950   1.880   3.094   7.023 -1.0711 -1.1016  1.4063
  168SAPS   HN318951   1.990   2.971   6.986  0.0752 -0.1384 -0.0323
  168SAPS   C1218952   1.785   2.915   6.977  0.5483 -0.4275 -0.4324
  168SAPS  H12A18953   1.824   2.815   6.968  0.8514 -0.2811 -0.7734
  168SAPS   C1318954   1.713   2.946   7.113 -0.2991  0.7128  0.4447
  168SAPS  O13A18955   1.760   3.041   7.177  0.2315 -0.7086  0.1648
  168SAPS  O13B18956   1.623   2.872   7.156  0.2749 -0.3465  0.3421
  168SAPS   C1118957   1.686   2.918   6.852  0.5211  0.5188  0.2375
  168SAPS  H11A18958   1.654   3.024   6.838 -1.3244  0.8243  4.7428
  168SAPS  H11B18959   1.592   2.864   6.878  0.1249 -0.2375 -2.5231
  168SAPS     P18960   1.676   2.784   6.619  0.6800  0.0204  0.3634
  168SAPS   O1318961   1.558   2.709   6.670 -0.1005 -0.1351 -0.0731
  168SAPS   O1418962   1.648   2.891   6.516  0.4282  0.3142  0.2049
  168SAPS   O1218963   1.752   2.855   6.737 -0.0521 -0.1762 -0.0405
  168SAPS   O1118964   1.774   2.680   6.559 -0.8402 -0.5938 -0.4076
  168SAPS    C118965   1.917   2.691   6.576 -0.7520  0.1247  0.0413
  168SAPS    HA18966   1.946   2.684   6.683  0.4057 -1.9215 -0.3493
  168SAPS    HB18967   1.966   2.603   6.530 -0.5929  1.1164 -1.7806
  168SAPS    C218968   1.985   2.804   6.486  0.5049 -0.2870  0.1016
  168SAPS    HS18969   1.937   2.893   6.531 -4.0538 -1.9483 -0.9589
  168SAPS   O2118970   1.936   2.815   6.352 -0.5788  0.2426  0.7547
  168SAPS   C2118971   1.926   2.938   6.303  0.8658  0.0064 -0.4275
  168SAPS   O2218972   1.961   3.043   6.353 -0.0831  0.8431  0.1507
  168SAPS   C2218973   1.867   2.939   6.167 -0.1745  0.3925 -0.1411
  168SAPS   H2R18974   1.782   2.867   6.167 -0.4640  0.6330 -2.8703
  168SAPS   H2S18975   1.833   3.043   6.144 -0.2267  0.6682  1.1218
  168SAPS    C318976   2.142   2.806   6.488  0.5262  0.2627  0.4625
  168SAPS    HX18977   2.177   2.705   6.456  2.0251  1.3317 -1.5378
  168SAPS    HY18978   2.165   2.827   6.595  0.9268  1.8321  0.0992
  168SAPS   O3118979   2.192   2.905   6.394  0.5092 -0.1244  0.0571
  168SAPS   C3118980   2.314   2.883   6.351 -0.0771 -0.4375  0.3216
  168SAPS   O3218981   2.377   2.780   6.362 -0.1683 -0.1720  0.3599
  168SAPS   C3218982   2.359   2.998   6.257  0.1417 -0.4535 -0.3212
  168SAPS   H2X18983   2.468   3.008   6.273 -0.0274 -0.3547  0.9404
  168SAPS   H2Y18984   2.300   3.085   6.292  1.5267  0.1895  0.5016
  168SAPS   C2318985   1.967   2.899   6.054 -0.0161  0.2940  0.3188
  168SAPS   H3R18986   2.034   2.823   6.099  1.1899  1.8022  1.1579
  168SAPS   H3S18987   2.025   2.989   6.024  1.1804 -0.4645  0.3189
  168SAPS   C2418988   1.899   2.848   5.932  0.0526  0.2211  0.1465
  168SAPS   H4R18989   1.846   2.752   5.949  0.3958 -0.0482 -0.2705
  168SAPS   H4S18990   1.971   2.824   5.851 -0.3629 -1.3901  0.2170
  168SAPS   C2518991   1.795   2.952   5.890  0.0685 -0.5021  0.1973
  168SAPS   H5R18992   1.708   2.958   5.957  0.4601  1.0555  0.6108
  168SAPS   C2618993   1.806   3.046   5.792  0.4136  0.5008  0.4032
  168SAPS   H6R18994   1.720   3.108   5.761 -1.4527 -2.1170  0.0433
  168SAPS   C2718995   1.924   3.057   5.701  0.1691 -0.8329 -0.0552
  168SAPS   H7R18996   2.019   3.032   5.754  0.0687  0.0049  0.5244
  168SAPS   H7S18997   1.932   3.166   5.687 -1.6736 -0.7663 -0.9454
  168SAPS   C2818998   1.912   2.980   5.568  0.2616 -0.0738 -0.4747
  168SAPS   H8R18999   1.893   2.872   5.573 -2.6207  0.3767  0.1034
  168SAPS   C2919000   1.919   3.020   5.442  0.0402  0.6586  0.1351
  168SAPS   H9R19001   1.923   2.935   5.372  0.1659 -0.9351  2.0097
  168SAPS  C21019002   1.935   3.152   5.380 -0.0212 -0.1217 -0.1395
  168SAPS  H10R19003   2.045   3.163   5.366  0.3472 -0.7911  1.8761
  168SAPS  H10S19004   1.909   3.229   5.455 -0.9715 -1.9821  1.5352
  168SAPS  C21119005   1.866   3.160   5.240  0.6078  0.1188  0.0923
  168SAPS  H11R19006   1.772   3.103   5.228  0.8131 -0.6020  1.6657
  168SAPS  C21219007   1.904   3.231   5.133  0.2960 -0.3122 -0.0851
  168SAPS  H12R19008   1.841   3.221   5.043  1.6287  0.1560 -1.1102
  168SAPS  C21319009   2.029   3.322   5.133  0.6687 -0.3425  0.1504
  168SAPS  H13R19010   2.074   3.310   5.032 -0.0942 -0.1271 -0.2223
  168SAPS  H13S19011   2.101   3.286   5.211  1.0231  1.7463  0.8420
  168SAPS  C21419012   1.995   3.468   5.150  0.2077  0.5986  0.3731
  168SAPS  H14R19013   1.929   3.494   5.066  2.0287 -1.3200 -1.7987
  168SAPS  C21519014   2.019   3.545   5.257 -1.1904  0.5090  0.6283
  168SAPS  H15R19015   2.004   3.653   5.239  0.4788  0.7653  0.5815
  168SAPS  C21619016   2.096   3.517   5.379  0.6088 -0.4068 -0.0734
  168SAPS  H16R19017   2.188   3.579   5.383  0.3819 -0.1151  1.6082
  168SAPS  H16S19018   2.132   3.412   5.371  4.8823  0.6389  2.2384
  168SAPS  C21719019   2.023   3.527   5.520  0.1806  0.5875  0.7966
  168SAPS  H17R19020   1.924   3.478   5.508 -0.6961  2.3442  0.5599
  168SAPS  H17S19021   1.995   3.630   5.548 -0.9942  0.7062 -0.6926
  168SAPS  C21819022   2.110   3.461   5.629  0.1974  0.5974  0.5085
  168SAPS  H18R19023   2.204   3.514   5.654  1.1253 -0.8204  0.1287
  168SAPS  H18S19024   2.136   3.368   5.574 -0.8185  2.4109 -3.4818
  168SAPS  C21919025   2.042   3.436   5.760  0.6669 -0.0491  0.5229
  168SAPS  H19R19026   2.121   3.386   5.822 -0.2408 -0.0553  1.7078
  168SAPS  H19S19027   1.957   3.365   5.749 -0.5906  1.2023  1.7566
  168SAPS  C22019028   1.989   3.562   5.823 -0.3647 -0.1394 -0.4897
  168SAPS  H20R19029   2.068   3.639   5.840  0.8491 -0.9580 -2.1343
  168SAPS  H20S19030   1.939   3.541   5.920  0.6254 -0.6282 -0.0660
  168SAPS  H20T19031   1.929   3.613   5.745  1.0436  0.1800 -1.3914
  168SAPS   C3319032   2.330   2.974   6.101 -0.8799  0.0481  0.6563
  168SAPS   H3X19033   2.225   2.941   6.082 -0.0340 -1.7673 -1.2904
  168SAPS   H3Y19034   2.399   2.893   6.071  1.2114  0.8154  2.9993
  168SAPS   C3419035   2.363   3.103   6.020 -0.3575  0.2340  0.0818
  168SAPS   H4X19036   2.469   3.125   6.043 -0.2205 -1.7203  1.6368
  168SAPS   H4Y19037   2.293   3.180   6.059 -3.0552 -2.6338  1.4092
  168SAPS   C3519038   2.351   3.095   5.864  1.0230  0.4610 -0.1917
  168SAPS   H5X19039   2.241   3.093   5.852  0.5404 -2.5695  2.9786
  168SAPS   H5Y19040   2.372   2.993   5.826 -1.2719 -0.1836  0.1244
  168SAPS   C3619041   2.432   3.203   5.795 -0.2930 -1.1743  0.3314
  168SAPS   H6X19042   2.537   3.189   5.826 -0.2549 -1.4116  0.1018
  168SAPS   H6Y19043   2.396   3.304   5.821  0.0288 -1.6196  2.6697
  168SAPS   C3719044   2.421   3.187   5.646  0.1913 -0.3062 -0.0286
  168SAPS   H7X19045   2.316   3.209   5.614 -0.0652 -1.0962  0.2475
  168SAPS   H7Y19046   2.450   3.082   5.625  0.4620 -1.0314  3.3942
  168SAPS   C3819047   2.520   3.277   5.573 -0.1864 -0.1230 -0.2531
  168SAPS   H8X19048   2.627   3.257   5.597 -0.0316 -2.7829 -2.5550
  168SAPS   H8Y19049   2.506   3.385   5.595  1.3180  0.4311 -1.7915
  168SAPS   C3919050   2.511   3.277   5.419  0.0558 -0.1966  0.3178
  168SAPS   H9X19051   2.519   3.171   5.388 -2.6486 -0.6449  0.8351
  168SAPS   H9Y19052   2.591   3.336   5.369 -1.1575  1.6698  0.4551
  168SAPS  C31019053   2.388   3.330   5.359 -0.1843 -0.7424  0.6987
  168SAPS  H10X19054   2.361   3.427   5.405  1.9919  0.9890 -1.4026
  168SAPS  H10Y19055   2.299   3.265   5.366 -1.9169  1.1749 -1.7060
  168SAPS  C31119056   2.404   3.335   5.199 -0.2691 -0.2099 -0.1770
  168SAPS  H11X19057   2.497   3.386   5.166  0.2186  0.7333  2.4576
  168SAPS  H11Y19058   2.318   3.392   5.157  0.0197  0.0942 -0.3635
  168SAPS  C31219059   2.403   3.196   5.133 -0.4164  0.2254  0.8569
  168SAPS  H12X19060   2.334   3.129   5.188 -2.1867  0.8234 -0.5195
  168SAPS  H12Y19061   2.502   3.146   5.132  0.0770  1.1692 -0.2723
  168SAPS  C31319062   2.365   3.208   4.987 -0.4472  0.2780  0.0835
  168SAPS  H13X19063   2.454   3.251   4.936 -0.2752  0.6586  0.6886
  168SAPS  H13Y19064   2.281   3.276   4.959 -0.2843  0.8557  0.9426
  168SAPS  C31419065   2.350   3.062   4.932  0.3049 -0.6300 -0.2018
  168SAPS  H14X19066   2.262   3.028   4.991  1.6167 -1.7851  1.1582
  168SAPS  H14Y19067   2.433   2.991   4.949  1.5776  0.6417 -0.8701
  168SAPS  C31519068   2.320   3.067   4.781  0.4771 -0.0352  0.0309
  168SAPS  H15X19069   2.422   3.090   4.742  0.5896  1.1027  0.9541
  168SAPS  H15Y19070   2.251   3.151   4.759  1.0688  0.3029 -0.5592
  168SAPS  C31619071   2.279   2.927   4.725  0.6959  0.6831 -0.7168
  168SAPS  H16X19072   2.247   2.935   4.619  2.5903 -3.7964 -1.8738
  168SAPS  H16Y19073   2.179   2.905   4.769  0.6383 -0.4511 -1.3922
  168SAPS  C31719074   2.359   2.799   4.755  0.0894  0.0693 -0.1208
  168SAPS  H17X19075   2.358   2.778   4.864 -0.6244 -0.3821 -0.2035
  168SAPS  H17Y19076   2.462   2.819   4.720  0.7918 -0.3146  1.6241
  168SAPS  C31819077   2.309   2.666   4.700  0.6381  0.1504  0.0854
  168SAPS  H18X19078   2.212   2.637   4.746 -0.1904  1.9719 -0.4374
  168SAPS  H18Y19079   2.386   2.587   4.712 -0.9099 -1.1571  2.1097
  168SAPS  H18Z19080   2.288   2.685   4.593 -1.0018 -1.7057  0.0211
  169SAPS     N19081   5.217   3.032   6.642 -0.2851 -0.0379  0.3670
  169SAPS   HN119082   5.249   3.096   6.567  0.5406  0.1732  0.8966
  169SAPS   HN219083   5.307   2.986   6.663  0.5746 -0.4928 -3.5311
  169SAPS   HN319084   5.162   2.949   6.611  3.0753 -2.2489 -0.2295
  169SAPS   C1219085   5.175   3.110   6.757 -0.3084 -0.1388 -0.2531
  169SAPS  H12A19086   5.209   3.055   6.844  1.4659 -2.1028 -2.0414
  169SAPS   C1319087   5.256   3.236   6.776  0.2157  0.4768 -0.3667
  169SAPS  O13A19088   5.351   3.264   6.698  0.0109 -0.0555 -0.5724
  169SAPS  O13B19089   5.240   3.298   6.883  0.3482  0.3787  0.4933
  169SAPS   C1119090   5.016   3.124   6.762 -0.2406  0.0247  0.6896
  169SAPS  H11A19091   4.992   3.189   6.849 -0.9790  0.3534  0.2490
  169SAPS  H11B19092   4.967   3.026   6.780  0.8383 -0.3353  1.7958
  169SAPS     P19093   4.821   3.155   6.578  0.4910  0.2817 -0.1120
  169SAPS   O1319094   4.747   3.077   6.679  1.1913 -0.1491 -0.2648
  169SAPS   O1419095   4.773   3.287   6.532  0.1151 -0.0722 -0.2113
  169SAPS   O1219096   4.968   3.178   6.636  0.1027  0.3859 -0.0180
  169SAPS   O1119097   4.841   3.059   6.461 -0.4894 -0.1046 -0.2118
  169SAPS    C119098   4.931   3.085   6.360 -0.4562 -0.1608 -0.4260
  169SAPS    HA19099   5.030   3.118   6.399 -0.4749 -0.2383 -0.3134
  169SAPS    HB19100   4.940   2.986   6.311  1.9352 -1.8881  3.0936
  169SAPS    C219101   4.880   3.173   6.242  0.3363  0.2808  0.1894
  169SAPS    HS19102   4.866   3.279   6.275 -3.0349 -0.4427  1.5299
  169SAPS   O2119103   4.754   3.115   6.195 -0.0295  0.6947  0.4186
  169SAPS   C2119104   4.682   3.207   6.130 -0.1141 -1.0201  0.2428
  169SAPS   O2219105   4.707   3.328   6.127  0.0258  0.4650 -0.2756
  169SAPS   C2219106   4.577   3.134   6.044  0.5766  0.0170  0.5007
  169SAPS   H2R19107   4.616   3.035   6.012 -1.2529 -0.3122 -0.8374
  169SAPS   H2S19108   4.480   3.118   6.095  1.0656 -2.6896  0.6937
  169SAPS    C319109   4.978   3.159   6.124  0.3040 -0.0047  0.7576
  169SAPS    HX19110   4.981   3.051   6.096  3.0257  0.5256 -1.4610
  169SAPS    HY19111   5.083   3.178   6.154  1.1074 -0.6896 -1.4040
  169SAPS   O3119112   4.943   3.234   6.009 -0.1656  0.0789  0.3947
  169SAPS   C3119113   4.981   3.365   5.997 -0.8918 -0.6751  0.0448
  169SAPS   O3219114   5.066   3.416   6.069 -0.4289 -0.5689  0.3059
  169SAPS   C3219115   4.900   3.440   5.889 -0.0837 -0.7646  0.5292
  169SAPS   H2X19116   4.922   3.548   5.904 -1.3367 -0.5515  1.0229
  169SAPS   H2Y19117   4.792   3.420   5.908 -1.0302  0.5346 -2.7685
  169SAPS   C2319118   4.550   3.218   5.912 -0.0252 -0.0810  0.4280
  169SAPS   H3R19119   4.503   3.144   5.844 -0.6130  0.3004  0.4096
  169SAPS   H3S19120   4.642   3.246   5.856 -0.5796  0.0577 -0.4321
  169SAPS   C2419121   4.464   3.345   5.929  0.5842 -0.6334 -0.7269
  169SAPS   H4R19122   4.465   3.414   5.842 -1.2045  0.1409 -0.1951
  169SAPS   H4S19123   4.503   3.405   6.014 -0.4248 -0.0795 -0.6332
  169SAPS   C2519124   4.320   3.300   5.959  0.1613  0.1645  0.5350
  169SAPS   H5R19125   4.303   3.229   6.041  0.0656  0.8188  1.0929
  169SAPS   C2619126   4.211   3.345   5.885 -0.8845  0.2268  0.2276
  169SAPS   H6R19127   4.111   3.309   5.916 -0.9149  1.6576  1.9197
  169SAPS   C2719128   4.228   3.420   5.753 -0.3221 -0.2229 -0.4021
  169SAPS   H7R19129   4.303   3.370   5.688 -0.6837  0.9716 -1.7743
  169SAPS   H7S19130   4.277   3.517   5.774  0.0150 -0.5811  0.5377
  169SAPS   C2819131   4.105   3.458   5.674 -0.1173  0.3095  0.0720
  169SAPS   H8R19132   4.013   3.473   5.732 -0.8802 -2.1192 -0.3734
  169SAPS   C2919133   4.090   3.487   5.544 -0.4251 -0.4290  0.1753
  169SAPS   H9R19134   3.989   3.503   5.503  0.5285 -0.6194 -2.4203
  169SAPS  C21019135   4.204   3.507   5.443  0.2067  0.3415 -0.1290
  169SAPS  H10R19136   4.285   3.566   5.491 -0.2889  0.7365  0.2345
  169SAPS  H10S19137   4.165   3.570   5.361  1.8509  0.4262 -0.8821
  169SAPS  C21119138   4.254   3.379   5.381  0.3136  0.3712  0.8229
  169SAPS  H11R19139   4.302   3.310   5.451  2.1916  1.2677  0.4868
  169SAPS  C21219140   4.234   3.334   5.256 -0.2796  0.0469 -0.1302
  169SAPS  H12R19141   4.282   3.243   5.219 -0.6172  0.1603 -0.8561
  169SAPS  C21319142   4.185   3.420   5.137  0.0038 -0.4385  0.1754
  169SAPS  H13R19143   4.229   3.404   5.036 -0.1934  1.1148 -0.1800
  169SAPS  H13S19144   4.211   3.525   5.165 -1.1851 -0.1908  0.4422
  169SAPS  C21419145   4.034   3.414   5.119 -0.1153  0.5666 -0.5318
  169SAPS  H14R19146   3.976   3.340   5.176 -2.9071  1.2485 -2.2769
  169SAPS  C21519147   3.969   3.496   5.034  0.4725 -0.7253  0.4883
  169SAPS  H15R19148   3.859   3.496   5.029  0.4185  2.4892 -1.1662
  169SAPS  C21619149   4.038   3.590   4.931  0.2709  0.1352  0.4339
  169SAPS  H16R19150   4.138   3.553   4.902 -0.1021 -0.7598  0.2426
  169SAPS  H16S19151   4.038   3.699   4.949 -0.3962  0.0509  1.0066
  169SAPS  C21719152   3.949   3.583   4.797 -0.0891  0.1960 -0.1669
  169SAPS  H17R19153   3.849   3.624   4.824 -0.4712 -1.9936  2.2034
  169SAPS  H17S19154   3.933   3.475   4.778 -0.5756 -0.0257  1.3643
  169SAPS  C21819155   4.017   3.654   4.682 -0.8750  0.0111 -0.0472
  169SAPS  H18R19156   4.112   3.600   4.661 -1.7181 -2.1413  1.2517
  169SAPS  H18S19157   4.036   3.759   4.714 -0.0303 -0.6787  1.9206
  169SAPS  C21919158   3.934   3.659   4.554 -0.1239 -0.2674 -0.8465
  169SAPS  H19R19159   3.842   3.715   4.580 -0.5685 -0.9156 -0.9836
  169SAPS  H19S19160   3.915   3.555   4.517  0.1117 -0.2296 -1.0812
  169SAPS  C22019161   3.993   3.728   4.436 -0.1570 -0.4104  1.1020
  169SAPS  H20R19162   3.932   3.718   4.343  0.5822 -1.6838  0.7410
  169SAPS  H20S19163   4.092   3.685   4.412 -1.7723 -2.6516 -2.5390
  169SAPS  H20T19164   3.994   3.835   4.467  0.2731  0.2191 -0.8772
  169SAPS   C3319165   4.925   3.392   5.747 -0.3092  0.1093  1.1912
  169SAPS   H3X19166   4.886   3.459   5.667  1.4419  1.2373  1.2463
  169SAPS   H3Y19167   4.892   3.288   5.726  1.4614  0.0933 -2.2079
  169SAPS   C3419168   5.073   3.386   5.703  0.3118 -0.3657 -0.6646
  169SAPS   H4X19169   5.119   3.329   5.787 -2.0811 -2.7104 -0.8232
  169SAPS   H4Y19170   5.113   3.489   5.691  0.3732 -0.4043 -0.8008
  169SAPS   C3519171   5.089   3.311   5.571  0.4900 -0.0160  0.2431
  169SAPS   H5X19172   5.013   3.231   5.560 -0.3144  0.9504 -1.6535
  169SAPS   H5Y19173   5.188   3.260   5.569  0.3597 -0.2817  0.4808
  169SAPS   C3619174   5.061   3.397   5.455  0.7150  0.4028  0.6067
  169SAPS   H6X19175   5.126   3.487   5.467 -0.7887  1.7170 -0.6462
  169SAPS   H6Y19176   4.954   3.427   5.449  0.4524 -0.6252 -0.2596
  169SAPS   C3719177   5.094   3.323   5.321  0.5352 -0.0915  0.1264
  169SAPS   H7X19178   5.050   3.221   5.326 -2.2401  0.8283 -2.2744
  169SAPS   H7Y19179   5.203   3.316   5.301  0.5921  4.0711 -2.3199
  169SAPS   C3819180   5.025   3.389   5.205 -0.2555  0.5688  0.1558
  169SAPS   H8X19181   5.033   3.500   5.207  0.9765  0.5253 -0.7194
  169SAPS   H8Y19182   4.915   3.372   5.209 -0.3263  1.1554  0.9062
  169SAPS   C3919183   5.076   3.335   5.072 -0.7889  0.0790  0.3798
  169SAPS   H9X19184   5.074   3.225   5.083  1.2673 -0.1161 -0.6736
  169SAPS   H9Y19185   5.180   3.371   5.054  0.0020 -1.2132  2.0635
  169SAPS  C31019186   4.993   3.385   4.950 -0.4338  0.6685  0.2247
  169SAPS  H10X19187   4.994   3.496   4.951  0.4045  0.7286  3.4834
  169SAPS  H10Y19188   4.886   3.354   4.957 -0.0732 -1.0836 -1.2480
  169SAPS  C31119189   5.053   3.338   4.820  0.2712 -0.2164 -0.5175
  169SAPS  H11X19190   5.061   3.227   4.825  0.8410 -0.1465  0.4253
  169SAPS  H11Y19191   5.159   3.371   4.811  0.2998 -0.1167  0.0874
  169SAPS  C31219192   4.982   3.367   4.691 -0.2890  0.2296  1.1383
  169SAPS  H12X19193   4.951   3.474   4.690  0.1239  0.3595 -0.5911
  169SAPS  H12Y19194   4.892   3.304   4.675 -0.1531  0.3179 -0.0468
  169SAPS  C31319195   5.067   3.341   4.561  0.6430  0.1095  0.7407
  169SAPS  H13X19196   5.155   3.408   4.546  0.0908  0.6380 -0.2428
  169SAPS  H13Y19197   5.007   3.359   4.469  1.6823  0.0147  0.0239
  169SAPS  C31419198   5.129   3.199   4.552 -0.0308  0.2308 -0.2402
  169SAPS  H14X19199   5.046   3.125   4.554  1.3114 -1.3155  0.6205
  169SAPS  H14Y19200   5.191   3.180   4.642  0.0378 -1.6096 -0.6344
  169SAPS  C31519201   5.224   3.175   4.433  0.4266  0.0209  0.1974
  169SAPS  H15X19202   5.255   3.069   4.425 -0.2733 -0.2087  0.4322
  169SAPS  H15Y19203   5.318   3.233   4.442  1.3620 -1.5361  0.7852
  169SAPS  C31619204   5.154   3.209   4.307  0.6991 -0.2855  0.3308
  169SAPS  H16X19205   5.115   3.311   4.289  0.8718 -0.4514 -1.1704
  169SAPS  H16Y19206   5.061   3.149   4.303  0.5263 -0.0591  0.9473
  169SAPS  C31719207   5.255   3.200   4.178  0.4058 -0.6226 -0.1692
  169SAPS  H17X19208   5.285   3.094   4.164 -1.6069 -1.7283  2.7591
  169SAPS  H17Y19209   5.343   3.261   4.207  1.4542 -2.1105 -0.1324
  169SAPS  C31819210   5.190   3.240   4.047  0.5136 -0.1854  0.1496
  169SAPS  H18X19211   5.261   3.206   3.968  0.1525  0.0302 -0.2683
  169SAPS  H18Y19212   5.172   3.347   4.024  0.3258 -0.4830 -1.1969
  169SAPS  H18Z19213   5.100   3.179   4.023  0.4300 -0.0437  0.1069
  170SAPS     N19214   5.540   3.214   6.912 -0.2504 -0.0240  0.5078
  170SAPS   HN119215   5.478   3.252   6.837  0.0992  2.2899  1.3299
  170SAPS   HN219216   5.635   3.193   6.874  0.0761  0.5351  0.9974
  170SAPS   HN319217   5.499   3.128   6.954 -0.4087  0.0308  0.4678
  170SAPS   C1219218   5.540   3.309   7.022 -0.8754 -0.5262 -0.0687
  170SAPS  H12A19219   5.442   3.349   7.046  0.4504  4.3440 -1.7317
  170SAPS   C1319220   5.588   3.257   7.156  0.6960  0.0947  0.0201
  170SAPS  O13A19221   5.606   3.133   7.174  0.0255 -0.2879 -0.4094
  170SAPS  O13B19222   5.588   3.331   7.261 -0.8507  0.5569  0.0942
  170SAPS   C1119223   5.625   3.429   6.974 -0.1693  0.1513 -0.1380
  170SAPS  H11A19224   5.723   3.379   6.957 -0.4998 -0.9782  1.1166
  170SAPS  H11B19225   5.645   3.503   7.053  0.2352 -1.3855  1.2513
  170SAPS     P19226   5.590   3.632   6.807  0.2829 -0.0152  0.7312
  170SAPS   O1319227   5.466   3.712   6.814 -0.0093  0.2008 -0.3840
  170SAPS   O1419228   5.709   3.686   6.869  0.4402 -0.1101 -0.0538
  170SAPS   O1219229   5.564   3.488   6.860 -0.3583  0.6749 -0.0506
  170SAPS   O1119230   5.614   3.602   6.652 -0.2702  0.0803  0.9495
  170SAPS    C119231   5.744   3.628   6.582  0.5519  0.2065  0.5348
  170SAPS    HA19232   5.824   3.580   6.642 -0.4192 -2.5489 -0.2613
  170SAPS    HB19233   5.749   3.569   6.488  1.0048  0.5529  0.3370
  170SAPS    C219234   5.775   3.779   6.544  0.6214 -0.0087  0.4837
  170SAPS    HS19235   5.779   3.836   6.640  0.4810  1.3874 -0.3032
  170SAPS   O2119236   5.661   3.830   6.472  0.0606  0.4634  0.7467
  170SAPS   C2119237   5.666   3.955   6.436  0.3663 -0.2715  1.0534
  170SAPS   O2219238   5.737   4.047   6.480 -0.4167  0.9464  0.3500
  170SAPS   C2219239   5.565   3.973   6.319  0.6435  0.0862 -0.2120
  170SAPS   H2R19240   5.540   3.880   6.264  1.5465  0.4054 -1.2059
  170SAPS   H2S19241   5.474   4.001   6.377  0.6111 -0.1072 -0.1694
  170SAPS    C319242   5.913   3.801   6.472 -0.8240  0.4173 -0.1358
  170SAPS    HX19243   5.980   3.742   6.539 -0.7770  0.8484  0.1977
  170SAPS    HY19244   5.948   3.906   6.469 -1.3845  0.6348  0.6818
  170SAPS   O3119245   5.916   3.737   6.342  0.3554 -0.5181  0.0889
  170SAPS   C3119246   5.976   3.797   6.241  0.4594  0.2948 -1.1525
  170SAPS   O3219247   6.011   3.914   6.243  0.3372  0.1985 -0.6797
  170SAPS   C3219248   6.008   3.697   6.144  0.3312  0.2089 -0.1558
  170SAPS   H2X19249   5.916   3.684   6.082  2.1382 -3.2214 -2.4309
  170SAPS   H2Y19250   6.022   3.599   6.193 -2.0671 -0.7630 -1.2169
  170SAPS   C2319251   5.618   4.085   6.223  0.0013 -0.1223  0.6384
  170SAPS   H3R19252   5.709   4.056   6.166 -0.3304  4.1452 -2.5935
  170SAPS   H3S19253   5.645   4.173   6.286  1.5421 -0.4976  0.5397
  170SAPS   C2419254   5.523   4.113   6.106  0.5052  0.0488  0.2121
  170SAPS   H4R19255   5.484   4.014   6.075 -0.1523  0.7210 -1.2062
  170SAPS   H4S19256   5.578   4.158   6.020 -0.2714  1.4744  0.4452
  170SAPS   C2519257   5.415   4.206   6.158 -0.5704 -0.4483  0.7892
  170SAPS   H5R19258   5.411   4.226   6.266 -0.3363  1.8654  0.4268
  170SAPS   C2619259   5.327   4.259   6.075  0.2653 -0.4787 -0.0436
  170SAPS   H6R19260   5.252   4.324   6.124 -0.0197  0.0423 -1.1454
  170SAPS   C2719261   5.310   4.244   5.930 -0.7163  0.4347 -0.8858
  170SAPS   H7R19262   5.258   4.151   5.898 -1.3962  0.8889 -1.1296
  170SAPS   H7S19263   5.413   4.247   5.890  0.8109 -2.0266  2.4384
  170SAPS   C2819264   5.245   4.366   5.869  0.3572  0.0482  0.2867
  170SAPS   H8R19265   5.197   4.445   5.928  0.7562  1.1145 -0.7707
  170SAPS   C2919266   5.206   4.384   5.742  0.0248  0.6168 -1.0822
  170SAPS   H9R19267   5.152   4.474   5.709 -1.6265  0.2845  0.5241
  170SAPS  C21019268   5.232   4.290   5.626  0.1665  0.1924  0.2463
  170SAPS  H10R19269   5.144   4.233   5.592  1.5558 -1.1071 -1.3612
  170SAPS  H10S19270   5.281   4.197   5.664 -2.0188 -0.7127  1.0109
  170SAPS  C21119271   5.291   4.356   5.505  0.0746 -0.1056  0.0700
  170SAPS  H11R19272   5.338   4.453   5.527 -2.4788  1.4123 -0.8105
  170SAPS  C21219273   5.277   4.315   5.375  0.2658 -0.0955  0.2639
  170SAPS  H12R19274   5.330   4.375   5.299 -0.6565 -0.0380 -0.3501
  170SAPS  C21319275   5.227   4.182   5.332  0.4183 -0.3900  1.0036
  170SAPS  H13R19276   5.175   4.123   5.410  0.5193 -0.0628  1.3197
  170SAPS  H13S19277   5.308   4.107   5.321  0.3487 -0.6439  2.0997
  170SAPS  C21419278   5.132   4.205   5.217 -0.0204  0.4511 -0.0038
  170SAPS  H14R19279   5.039   4.252   5.252 -1.2457 -0.6999 -1.6037
  170SAPS  C21519280   5.159   4.215   5.083  0.4004 -0.5091  0.0065
  170SAPS  H15R19281   5.078   4.232   5.010 -1.1542  1.7529  2.0718
  170SAPS  C21619282   5.294   4.198   5.006 -0.5003  0.1274 -0.5350
  170SAPS  H16R19283   5.302   4.123   4.924 -1.2522 -0.6065  0.0489
  170SAPS  H16S19284   5.372   4.173   5.081  1.0980 -0.6186 -2.3312
  170SAPS  C21719285   5.341   4.334   4.948  0.6929  0.1755  0.8318
  170SAPS  H17R19286   5.323   4.415   5.022  1.6880  2.1716 -0.9800
  170SAPS  H17S19287   5.267   4.347   4.866  0.3167 -2.1601  0.7328
  170SAPS  C21819288   5.491   4.340   4.910  0.0571  0.4234 -0.1174
  170SAPS  H18R19289   5.515   4.255   4.843  1.7627  1.3876 -0.8081
  170SAPS  H18S19290   5.551   4.324   5.002  3.1165  0.5405 -1.9587
  170SAPS  C21919291   5.520   4.470   4.836 -0.4399  0.1711 -0.5473
  170SAPS  H19R19292   5.478   4.561   4.884  1.1444  1.2610 -1.1434
  170SAPS  H19S19293   5.476   4.470   4.734 -0.0465  1.3322 -0.7233
  170SAPS  C22019294   5.670   4.499   4.812  0.5209 -0.5174 -0.2075
  170SAPS  H20R19295   5.726   4.544   4.897 -0.5925 -1.1996  0.9212
  170SAPS  H20S19296   5.676   4.573   4.730  3.1043 -2.6829 -2.1856
  170SAPS  H20T19297   5.717   4.412   4.760 -0.7943 -1.8213  0.7149
  170SAPS   C3319298   6.137   3.728   6.069 -0.0935  0.3635  0.2938
  170SAPS   H3X19299   6.226   3.728   6.136 -0.2724  1.8240  0.5640
  170SAPS   H3Y19300   6.155   3.832   6.035  3.9032 -0.2607  0.0751
  170SAPS   C3419301   6.166   3.629   5.955 -0.3607  0.5842 -0.2141
  170SAPS   H4X19302   6.174   3.525   5.995  1.3927  1.4531  1.8830
  170SAPS   H4Y19303   6.264   3.661   5.915  0.3723 -1.3697 -0.0919
  170SAPS   C3519304   6.074   3.640   5.837  0.2204 -0.1199 -0.5393
  170SAPS   H5X19305   6.067   3.747   5.808 -0.7530  0.6741  2.2695
  170SAPS   H5Y19306   5.972   3.614   5.875  0.6945 -0.1338  0.8062
  170SAPS   C3619307   6.111   3.556   5.717 -0.2053  0.2511  0.0861
  170SAPS   H6X19308   6.018   3.538   5.658  0.2153  1.0194 -0.8457
  170SAPS   H6Y19309   6.157   3.461   5.751 -0.2306  0.8201  1.7714
  170SAPS   C3719310   6.213   3.616   5.617 -0.5372 -0.2274  0.0341
  170SAPS   H7X19311   6.229   3.534   5.544  0.8485  0.0513 -0.0049
  170SAPS   H7Y19312   6.298   3.642   5.683 -0.5555  2.1232 -0.7621
  170SAPS   C3819313   6.167   3.737   5.543 -0.0682  0.2739 -0.6478
  170SAPS   H8X19314   6.172   3.819   5.617  1.0731 -0.5794  0.2527
  170SAPS   H8Y19315   6.065   3.730   5.498 -0.3829  4.4907 -0.9582
  170SAPS   C3919316   6.256   3.784   5.427  0.4924 -0.0512 -0.6430
  170SAPS   H9X19317   6.358   3.809   5.465  0.4731 -1.1375  0.1758
  170SAPS   H9Y19318   6.207   3.875   5.385  0.9869  1.0741  1.1246
  170SAPS  C31019319   6.289   3.686   5.310  0.8169 -0.2628  0.0081
  170SAPS  H10X19320   6.321   3.586   5.345  0.5417  0.0718  1.2620
  170SAPS  H10Y19321   6.370   3.729   5.247  1.6431 -0.8678  0.6401
  170SAPS  C31119322   6.157   3.661   5.237  0.0017  0.0636 -0.8363
  170SAPS  H11X19323   6.100   3.750   5.202 -1.4707 -1.3439 -2.2425
  170SAPS  H11Y19324   6.092   3.612   5.313  0.1445  0.2978 -0.5632
  170SAPS  C31219325   6.186   3.566   5.122  0.1923  0.4726  0.1833
  170SAPS  H12X19326   6.229   3.474   5.167 -2.6307 -1.9034 -1.5841
  170SAPS  H12Y19327   6.265   3.618   5.064  0.5893 -1.8001 -1.4780
  170SAPS  C31319328   6.077   3.522   5.030  0.6619 -0.0977  0.0487
  170SAPS  H13X19329   6.007   3.456   5.086  0.8978  0.5396  1.1181
  170SAPS  H13Y19330   6.113   3.457   4.947 -1.1183  0.0053 -0.8571
  170SAPS  C31419331   5.987   3.637   4.978  0.1325  0.5552  0.2643
  170SAPS  H14X19332   6.052   3.726   4.962 -3.0684  2.9859 -0.1478
  170SAPS  H14Y19333   5.920   3.665   5.062  0.1967 -1.4830  1.0695
  170SAPS  C31519334   5.925   3.596   4.844 -0.6133 -0.6670  0.2736
  170SAPS  H15X19335   5.841   3.669   4.837 -0.2490 -0.2434  0.2701
  170SAPS  H15Y19336   5.899   3.490   4.861  1.1237 -1.3678 -1.1316
  170SAPS  C31619337   6.023   3.603   4.721  0.2220 -1.1956  0.5553
  170SAPS  H16X19338   6.116   3.541   4.724  0.6774 -0.5040  0.8594
  170SAPS  H16Y19339   6.059   3.707   4.709  1.2533 -1.7383 -1.6069
  170SAPS  C31719340   5.937   3.546   4.609  0.2502 -0.8043 -0.5781
  170SAPS  H17X19341   5.835   3.591   4.611 -0.6412 -2.7247  1.6030
  170SAPS  H17Y19342   5.923   3.437   4.629 -0.2780 -0.9883 -1.8764
  170SAPS  C31819343   6.008   3.563   4.471 -0.4704  0.2805 -0.0981
  170SAPS  H18X19344   5.961   3.651   4.424 -2.1911 -1.2794 -1.4331
  170SAPS  H18Y19345   5.980   3.483   4.400  1.0177 -1.5593  1.2649
  170SAPS  H18Z19346   6.116   3.577   4.496 -0.7191  1.8075  0.2376
  171SAPS     N19347   5.595   2.782   6.515 -0.2375  0.0329 -0.2901
  171SAPS   HN119348   5.654   2.781   6.430  0.5643 -0.5710  0.2584
  171SAPS   HN219349   5.557   2.687   6.532 -2.8534  0.5005 -2.7968
  171SAPS   HN319350   5.512   2.842   6.499 -0.8154 -0.2658  1.3715
  171SAPS   C1219351   5.674   2.828   6.639  0.7699 -0.3041 -0.8145
  171SAPS  H12A19352   5.763   2.878   6.604  0.3078  1.3701  0.3206
  171SAPS   C1319353   5.604   2.927   6.740  0.3508  0.4706  0.6658
  171SAPS  O13A19354   5.476   2.950   6.734 -0.9797  0.0660 -0.0372
  171SAPS  O13B19355   5.668   2.977   6.838 -0.5250  0.1786  0.2347
  171SAPS   C1119356   5.723   2.705   6.721 -0.0646 -0.1321 -0.2058
  171SAPS  H11A19357   5.642   2.635   6.749 -0.6990  1.1070  1.1930
  171SAPS  H11B19358   5.754   2.749   6.818  1.8985 -0.2956 -0.7035
  171SAPS     P19359   5.832   2.541   6.532  0.1463  0.1813  0.0486
  171SAPS   O1319360   5.959   2.463   6.529  0.0068 -0.2421 -0.0794
  171SAPS   O1419361   5.710   2.457   6.531  0.0653  0.3665  0.0530
  171SAPS   O1219362   5.828   2.634   6.664 -0.2220  0.6960 -0.1823
  171SAPS   O1119363   5.828   2.646   6.412  0.3809  0.0896 -0.0956
  171SAPS    C119364   5.934   2.656   6.321  0.4498  0.2687 -0.7617
  171SAPS    HA19365   6.038   2.662   6.360  1.3185  3.1922 -3.1181
  171SAPS    HB19366   5.926   2.565   6.257 -0.4080  0.8443 -1.5042
  171SAPS    C219367   5.922   2.788   6.241  0.1465 -0.1891  0.1483
  171SAPS    HS19368   5.913   2.878   6.306  0.3892  0.5136 -0.7680
  171SAPS   O2119369   5.814   2.762   6.146  0.2883  0.4161 -0.0885
  171SAPS   C2119370   5.700   2.828   6.173 -0.0178  0.7715  0.7950
  171SAPS   O2219371   5.686   2.918   6.248 -0.3763 -1.2714 -0.0438
  171SAPS   C2219372   5.596   2.776   6.071  0.0161  0.3148  0.8223
  171SAPS   H2R19373   5.649   2.724   5.988  0.2908  0.0227  1.1764
  171SAPS   H2S19374   5.536   2.701   6.127 -1.4827  0.3881 -0.6039
  171SAPS    C319375   6.058   2.817   6.166  0.7096  0.3127 -0.0444
  171SAPS    HX19376   6.133   2.844   6.243  1.1578 -1.0202  0.0113
  171SAPS    HY19377   6.051   2.904   6.097 -1.3911  0.4884  0.2997
  171SAPS   O3119378   6.101   2.700   6.092  0.2326  0.7276  0.5262
  171SAPS   C3119379   6.088   2.693   5.964  0.1996 -0.5627  0.2596
  171SAPS   O3219380   6.086   2.784   5.887 -0.0479 -0.4100  0.0190
  171SAPS   C3219381   6.069   2.547   5.918  0.4106  0.2948 -0.1252
  171SAPS   H2X19382   5.973   2.524   5.867  0.7354  0.9803 -1.0700
  171SAPS   H2Y19383   6.054   2.485   6.010  0.2626  0.0765 -0.2949
  171SAPS   C2319384   5.503   2.881   6.020 -0.3595  0.2514  0.1935
  171SAPS   H3R19385   5.563   2.946   5.952  2.0267 -1.3299  0.6527
  171SAPS   H3S19386   5.463   2.948   6.099  0.5463  1.2791 -0.1832
  171SAPS   C2419387   5.373   2.812   5.968 -0.0175 -0.1110 -0.0330
  171SAPS   H4R19388   5.317   2.757   6.047 -0.0001 -1.8827 -1.2071
  171SAPS   H4S19389   5.398   2.731   5.897  1.5386 -0.8054  1.2450
  171SAPS   C2519390   5.284   2.909   5.909  0.6947 -0.1111  0.6078
  171SAPS   H5R19391   5.271   2.994   5.978 -0.0690  0.6279 -0.3944
  171SAPS   C2619392   5.248   2.933   5.782  0.3407  0.1827  0.1129
  171SAPS   H6R19393   5.174   3.009   5.753  0.0823 -0.6025 -1.4199
  171SAPS   C2719394   5.275   2.849   5.662  0.5909  0.5859 -0.6081
  171SAPS   H7R19395   5.302   2.747   5.696 -0.8826  0.7339  1.1580
  171SAPS   H7S19396   5.361   2.890   5.604 -0.1656  1.9020 -0.8455
  171SAPS   C2819397   5.155   2.828   5.574 -0.2272  0.6046 -0.4261
  171SAPS   H8R19398   5.072   2.774   5.622 -1.8435  1.5947 -1.9826
  171SAPS   C2919399   5.139   2.866   5.450 -0.4398 -0.0829  0.6787
  171SAPS   H9R19400   5.038   2.837   5.417 -0.4066  1.8041 -1.3044
  171SAPS  C21019401   5.225   2.937   5.346 -0.6968  0.4216 -1.1180
  171SAPS  H10R19402   5.330   2.902   5.356 -0.7400  0.4137 -0.6415
  171SAPS  H10S19403   5.228   3.042   5.383  2.6337  0.3298 -0.8231
  171SAPS  C21119404   5.179   2.930   5.202 -1.2292 -1.1608 -0.4853
  171SAPS  H11R19405   5.069   2.928   5.195 -1.2507 -0.4638 -0.3589
  171SAPS  C21219406   5.258   2.934   5.089 -0.8656  0.1246 -0.6368
  171SAPS  H12R19407   5.214   2.935   4.988 -1.5960 -0.8181 -0.3428
  171SAPS  C21319408   5.407   2.926   5.084  0.3128 -0.4054  0.4140
  171SAPS  H13R19409   5.451   2.951   5.183  0.4028  0.9180  0.0592
  171SAPS  H13S19410   5.435   3.021   5.033  0.9189 -1.0387 -0.4482
  171SAPS  C21419411   5.478   2.802   5.030 -0.7510  0.1871 -0.5760
  171SAPS  H14R19412   5.523   2.742   5.109 -0.5263  2.7812  1.3953
  171SAPS  C21519413   5.486   2.775   4.899 -0.1330 -0.2440  0.0243
  171SAPS  H15R19414   5.548   2.690   4.868  0.6332  0.6415 -0.9270
  171SAPS  C21619415   5.433   2.862   4.785  0.0962  0.4289 -0.3456
  171SAPS  H16R19416   5.395   2.960   4.819  1.6597 -0.0722  3.3255
  171SAPS  H16S19417   5.364   2.793   4.732  0.8162  1.1904 -2.3528
  171SAPS  C21719418   5.554   2.882   4.686 -0.1532 -0.1096  0.4378
  171SAPS  H17R19419   5.608   2.789   4.657  2.1704  1.8446 -2.1100
  171SAPS  H17S19420   5.630   2.941   4.741 -0.1616 -1.1772  1.6292
  171SAPS  C21819421   5.508   2.937   4.550  0.0240 -0.0539  0.2768
  171SAPS  H18R19422   5.458   3.036   4.566  0.3036  0.1124  0.1317
  171SAPS  H18S19423   5.430   2.879   4.497 -0.1015  0.5050 -0.1712
  171SAPS  C21919424   5.621   2.974   4.448 -0.6788  0.1395 -0.6694
  171SAPS  H19R19425   5.582   3.011   4.351 -1.8300 -1.3256 -0.7903
  171SAPS  H19S19426   5.682   2.884   4.424 -0.4660 -0.2197  1.0691
  171SAPS  C22019427   5.720   3.082   4.497  0.0077  0.3161  0.0292
  171SAPS  H20R19428   5.813   3.076   4.435 -1.1117 -1.5180 -1.5900
  171SAPS  H20S19429   5.748   3.069   4.604 -0.5284 -1.9264 -0.0580
  171SAPS  H20T19430   5.672   3.182   4.488  0.3135  0.7420  2.5316
  171SAPS   C3319431   6.179   2.494   5.826  0.4210 -0.8031 -0.2767
  171SAPS   H3X19432   6.175   2.383   5.820  1.8310 -1.0023  1.5739
  171SAPS   H3Y19433   6.278   2.504   5.874  0.6091  0.7538 -0.9555
  171SAPS   C3419434   6.177   2.555   5.683 -0.9885 -0.0259 -0.4308
  171SAPS   H4X19435   6.273   2.555   5.629 -1.7587  1.4984 -1.9108
  171SAPS   H4Y19436   6.138   2.660   5.686 -1.8226 -0.3434  0.9259
  171SAPS   C3519437   6.071   2.483   5.609  0.3358  0.0281 -0.0695
  171SAPS   H5X19438   5.986   2.459   5.677  0.4347 -1.2250 -0.3645
  171SAPS   H5Y19439   6.101   2.382   5.573  0.4970  0.2346 -0.5251
  171SAPS   C3619440   6.037   2.551   5.480  0.7435  0.6757 -0.6634
  171SAPS   H6X19441   6.130   2.578   5.426 -0.2355  1.7908 -1.8372
  171SAPS   H6Y19442   5.980   2.644   5.500  0.6782  0.5049 -0.0446
  171SAPS   C3719443   5.959   2.446   5.397 -0.2959 -0.6140  0.8905
  171SAPS   H7X19444   5.883   2.415   5.472 -0.5413 -1.1019  0.4490
  171SAPS   H7Y19445   6.022   2.358   5.372 -0.4522 -0.5805  0.3531
  171SAPS   C3819446   5.899   2.496   5.265  0.0689  0.5920  0.1942
  171SAPS   H8X19447   5.828   2.578   5.286  0.6964  0.8494  1.3988
  171SAPS   H8Y19448   5.825   2.418   5.236 -3.0495  2.5309  2.2751
  171SAPS   C3919449   6.001   2.542   5.166 -0.0835  0.2944  0.3730
  171SAPS   H9X19450   6.096   2.485   5.165 -0.8859 -1.1345 -1.4570
  171SAPS   H9Y19451   6.014   2.642   5.212 -1.7912  0.1129  1.3541
  171SAPS  C31019452   5.957   2.564   5.017  0.0980  0.3581 -0.4571
  171SAPS  H10X19453   5.863   2.511   4.989 -0.7729  0.5058  1.9806
  171SAPS  H10Y19454   6.037   2.512   4.960  1.2561 -0.7614  2.0604
  171SAPS  C31119455   5.965   2.716   4.976  0.7091 -0.4028  0.4440
  171SAPS  H11X19456   6.069   2.754   4.982  0.3861  0.2932  2.0146
  171SAPS  H11Y19457   5.919   2.783   5.052  0.9105  0.0918  0.1314
  171SAPS  C31219458   5.900   2.745   4.842  1.4860  0.2279 -0.5350
  171SAPS  H12X19459   5.895   2.854   4.822 -0.0205  0.3965  0.5194
  171SAPS  H12Y19460   5.794   2.713   4.839  1.5321  0.1195 -1.0457
  171SAPS  C31319461   5.963   2.668   4.723 -0.0077  0.8862  0.0842
  171SAPS  H13X19462   5.982   2.563   4.756 -0.6975  0.9892  0.8272
  171SAPS  H13Y19463   6.052   2.727   4.692  0.0914  1.2320  1.0081
  171SAPS  C31419464   5.876   2.672   4.602  0.5016 -0.1709 -0.5200
  171SAPS  H14X19465   5.826   2.771   4.603 -1.2945 -1.0469 -0.1144
  171SAPS  H14Y19466   5.789   2.604   4.615  0.7461 -0.2168  1.0251
  171SAPS  C31519467   5.950   2.620   4.472  0.5364 -0.6907 -0.0242
  171SAPS  H15X19468   5.973   2.512   4.488 -2.9291 -1.4835  0.2505
  171SAPS  H15Y19469   6.045   2.678   4.467 -0.2295  0.5360 -1.0681
  171SAPS  C31619470   5.863   2.642   4.354  0.4701 -0.6061 -0.1352
  171SAPS  H16X19471   5.863   2.749   4.326  0.8553 -0.4399  0.4806
  171SAPS  H16Y19472   5.762   2.609   4.385 -0.2994  1.4867 -0.2574
  171SAPS  C31719473   5.908   2.562   4.237  0.0236  0.2475  0.9879
  171SAPS  H17X19474   5.914   2.455   4.264 -0.7253 -0.2574 -0.6971
  171SAPS  H17Y19475   6.011   2.584   4.200  0.3184 -2.6392 -0.1824
  171SAPS  C31819476   5.820   2.566   4.110  0.4664  0.1406 -0.4981
  171SAPS  H18X19477   5.887   2.539   4.025  0.0795  0.5773 -0.9463
  171SAPS  H18Y19478   5.792   2.672   4.093 -1.6817 -0.2198  0.4914
  171SAPS  H18Z19479   5.736   2.495   4.128  1.0092  0.0086  1.8037
  172SAPS     N19480   5.308   0.649   6.568 -0.0583  0.8399  0.7058
  172SAPS   HN119481   5.204   0.640   6.565  0.0328 -0.2346  0.6749
  172SAPS   HN219482   5.352   0.726   6.514 -0.1538  1.2429  1.1961
  172SAPS   HN319483   5.351   0.559   6.538 -0.2275  1.5325 -1.8426
  172SAPS   C1219484   5.330   0.680   6.710 -0.6552  0.2147 -0.1712
  172SAPS  H12A19485   5.288   0.607   6.778 -1.5529  0.8542 -0.0123
  172SAPS   C1319486   5.481   0.693   6.753  0.0619 -0.4405 -0.0329
  172SAPS  O13A19487   5.567   0.677   6.667  0.0070  0.2469  0.6004
  172SAPS  O13B19488   5.508   0.744   6.868 -0.0208 -0.2478  0.2870
  172SAPS   C1119489   5.248   0.805   6.751  0.0755  0.4342 -0.4949
  172SAPS  H11A19490   5.310   0.894   6.728  0.2036  0.9958  1.7661
  172SAPS  H11B19491   5.239   0.802   6.862  0.3579 -1.3685 -0.4878
  172SAPS     P19492   5.028   0.937   6.730 -0.0556 -0.3095  0.2162
  172SAPS   O1319493   4.883   0.912   6.729 -0.0598  0.2635 -0.3039
  172SAPS   O1419494   5.088   1.012   6.845  0.2742  0.0447  0.0007
  172SAPS   O1219495   5.115   0.806   6.700  0.5417  0.2744  0.2305
  172SAPS   O1119496   5.055   1.028   6.594  0.7093 -0.1707 -0.3142
  172SAPS    C119497   5.035   0.960   6.472  0.5328 -0.4292 -0.3853
  172SAPS    HA19498   5.023   0.850   6.474  0.6850 -0.5242 -2.4843
  172SAPS    HB19499   4.952   1.010   6.415  2.7044  1.2243 -2.3005
  172SAPS    C219500   5.156   0.982   6.385 -0.1927  0.0362  0.5122
  172SAPS    HS19501   5.246   0.966   6.448 -1.8261  0.2891  3.0347
  172SAPS   O2119502   5.156   1.115   6.330 -0.3508 -0.7571 -0.1527
  172SAPS   C2119503   5.276   1.164   6.312 -0.4770  0.1275 -0.3372
  172SAPS   O2219504   5.382   1.106   6.334 -0.6278 -0.8038 -0.3981
  172SAPS   C2219505   5.262   1.299   6.238  0.8474  0.3260 -0.0495
  172SAPS   H2R19506   5.161   1.314   6.193  0.5646  1.8511  1.0066
  172SAPS   H2S19507   5.266   1.378   6.315 -0.2278  1.3463 -0.9893
  172SAPS    C319508   5.161   0.877   6.266 -0.9546 -0.6970  0.0170
  172SAPS    HX19509   5.069   0.892   6.205 -0.0322 -0.0572 -1.2592
  172SAPS    HY19510   5.153   0.769   6.291  0.6311 -1.0812 -0.9674
  172SAPS   O3119511   5.282   0.907   6.188  0.2175  0.4345 -0.0118
  172SAPS   C3119512   5.391   0.840   6.234  0.2053  0.0858 -0.2805
  172SAPS   O3219513   5.391   0.770   6.332  0.1432 -0.4328 -0.2259
  172SAPS   C3219514   5.515   0.866   6.157  0.1664 -0.7483 -0.3393
  172SAPS   H2X19515   5.593   0.805   6.206  2.4228  2.2296  0.0972
  172SAPS   H2Y19516   5.539   0.974   6.168 -2.9167 -0.0664  0.9882
  172SAPS   C2319517   5.377   1.342   6.148  0.8817  0.5237 -0.6504
  172SAPS   H3R19518   5.473   1.339   6.203 -0.0284 -0.3196  0.9616
  172SAPS   H3S19519   5.351   1.446   6.118 -1.9521  0.0515 -0.1239
  172SAPS   C2419520   5.406   1.249   6.030  0.1046  0.2639 -1.0638
  172SAPS   H4R19521   5.422   1.148   6.075  0.7788  1.3131  1.1845
  172SAPS   H4S19522   5.503   1.288   5.993  1.3450  0.9431  2.5129
  172SAPS   C2519523   5.297   1.249   5.934  0.7353  0.1237  0.9480
  172SAPS   H5R19524   5.199   1.217   5.971  0.0917  1.6489  0.6653
  172SAPS   C2619525   5.300   1.289   5.797  0.0718  0.6556 -0.8214
  172SAPS   H6R19526   5.206   1.264   5.745 -0.0516 -2.7126  0.7867
  172SAPS   C2719527   5.418   1.345   5.719 -0.0915  0.3701  0.0958
  172SAPS   H7R19528   5.504   1.285   5.755  1.6203  1.3911 -2.0827
  172SAPS   H7S19529   5.436   1.451   5.747  1.3384  0.1618  0.0101
  172SAPS   C2819530   5.405   1.323   5.575 -0.5349 -0.0549  0.1163
  172SAPS   H8R19531   5.406   1.218   5.545  0.0241 -0.3574  1.1584
  172SAPS   C2919532   5.384   1.414   5.473 -0.1905  1.1014 -0.0411
  172SAPS   H9R19533   5.382   1.369   5.372  1.5101 -0.5826  0.6242
  172SAPS  C21019534   5.366   1.560   5.479 -0.2630 -0.0127 -0.5170
  172SAPS  H10R19535   5.291   1.584   5.557  1.9740  2.8251  0.9391
  172SAPS  H10S19536   5.330   1.581   5.376  1.5054 -2.0642 -1.6507
  172SAPS  C21119537   5.479   1.643   5.524  0.2720 -0.2137  0.0177
  172SAPS  H11R19538   5.553   1.611   5.599 -0.3152  0.7577  1.0360
  172SAPS  C21219539   5.491   1.771   5.496  0.0946  0.2056 -0.7679
  172SAPS  H12R19540   5.587   1.814   5.532 -1.3094  1.5582  1.6456
  172SAPS  C21319541   5.422   1.856   5.387  0.2860  0.6858 -0.5615
  172SAPS  H13R19542   5.317   1.872   5.421  0.7859 -0.0390  1.4908
  172SAPS  H13S19543   5.419   1.801   5.290 -0.0605 -0.1710 -0.0765
  172SAPS  C21419544   5.488   1.990   5.354 -0.0357  0.1500  1.1562
  172SAPS  H14R19545   5.526   2.006   5.252 -0.8251  0.3274  0.8889
  172SAPS  C21519546   5.483   2.098   5.434 -0.5099 -0.0829  0.5895
  172SAPS  H15R19547   5.524   2.196   5.406 -2.7762  0.9451  0.6464
  172SAPS  C21619548   5.413   2.116   5.564 -0.2283 -0.2945  0.1815
  172SAPS  H16R19549   5.347   2.029   5.583 -1.4700  0.8971  1.6496
  172SAPS  H16S19550   5.345   2.203   5.563 -1.1199 -0.9803  0.3911
  172SAPS  C21719551   5.500   2.123   5.694  0.4064 -0.2549  0.2608
  172SAPS  H17R19552   5.554   2.027   5.713  1.5593  0.4268  0.5187
  172SAPS  H17S19553   5.422   2.120   5.774  0.6060  1.1348  0.5372
  172SAPS  C21819554   5.589   2.249   5.716  0.6603  0.1047  0.4782
  172SAPS  H18R19555   5.520   2.332   5.691  1.2339  0.0205 -1.5923
  172SAPS  H18S19556   5.669   2.252   5.638  1.5031  0.0230  1.3218
  172SAPS  C21919557   5.657   2.260   5.849 -0.2078 -0.5760  0.3523
  172SAPS  H19R19558   5.747   2.195   5.858 -0.5293 -0.8447  1.9743
  172SAPS  H19S19559   5.580   2.240   5.926 -0.3776  0.7087  0.5463
  172SAPS  C22019560   5.714   2.402   5.880 -0.1084  0.5499  0.0229
  172SAPS  H20R19561   5.638   2.476   5.913  0.2374  1.5860 -1.3840
  172SAPS  H20S19562   5.757   2.449   5.789 -1.7696  0.8856 -0.6135
  172SAPS  H20T19563   5.792   2.399   5.959 -1.3118 -1.2491  1.2256
  172SAPS   C3319564   5.510   0.824   6.010  0.1222  0.3951 -0.2941
  172SAPS   H3X19565   5.432   0.880   5.954  0.4945 -0.7770 -2.0598
  172SAPS   H3Y19566   5.483   0.717   6.003 -0.1492  0.5064 -0.9498
  172SAPS   C3419567   5.646   0.850   5.945  0.0900 -0.0361 -0.3064
  172SAPS   H4X19568   5.640   0.795   5.848  1.2819 -0.0090 -0.4105
  172SAPS   H4Y19569   5.722   0.807   6.014 -0.3376  0.2590  0.3563
  172SAPS   C3519570   5.669   0.996   5.906  0.0824 -0.7041  0.2944
  172SAPS   H5X19571   5.699   1.052   5.997  1.1552 -1.2093  0.2660
  172SAPS   H5Y19572   5.577   1.029   5.852  0.8497 -3.0042 -2.6740
  172SAPS   C3619573   5.786   1.021   5.810 -0.0152 -0.5658 -0.1601
  172SAPS   H6X19574   5.882   0.997   5.861  0.4548  2.6014  0.6279
  172SAPS   H6Y19575   5.778   1.131   5.817 -1.5404 -0.5122 -2.0557
  172SAPS   C3719576   5.759   0.963   5.668 -0.2919 -0.4755 -0.1156
  172SAPS   H7X19577   5.743   0.854   5.685  2.5213 -0.9372  0.0986
  172SAPS   H7Y19578   5.849   0.977   5.603 -1.0025 -1.3526 -1.3290
  172SAPS   C3819579   5.629   1.011   5.598  0.6776 -0.2942  0.5299
  172SAPS   H8X19580   5.612   1.121   5.604  3.1123  0.0639  2.1471
  172SAPS   H8Y19581   5.535   0.963   5.633  0.3356 -0.6119 -0.7614
  172SAPS   C3919582   5.632   0.968   5.442 -0.2245  0.4457 -0.2229
  172SAPS   H9X19583   5.715   1.025   5.395 -1.9942  3.3441 -0.0964
  172SAPS   H9Y19584   5.540   1.013   5.397 -0.8722 -0.1954  0.4300
  172SAPS  C31019585   5.629   0.813   5.416 -0.5407 -0.2902  0.1416
  172SAPS  H10X19586   5.542   0.766   5.467 -1.0917 -0.7472 -1.1695
  172SAPS  H10Y19587   5.717   0.767   5.466  0.5565  1.0299 -0.5186
  172SAPS  C31119588   5.616   0.781   5.267  0.5125 -0.0884 -0.4425
  172SAPS  H11X19589   5.527   0.833   5.226 -0.4412 -0.6617  0.8364
  172SAPS  H11Y19590   5.603   0.672   5.249  0.0261  0.1284 -1.4485
  172SAPS  C31219591   5.734   0.833   5.184 -0.3559  0.1161  0.5931
  172SAPS  H12X19592   5.814   0.772   5.232 -3.0482 -2.5623  2.0259
  172SAPS  H12Y19593   5.757   0.937   5.215 -0.4109  0.8730 -1.7598
  172SAPS  C31319594   5.728   0.828   5.029  0.5225 -0.3808  0.6282
  172SAPS  H13X19595   5.690   0.727   5.003  0.9356 -0.4674  0.3568
  172SAPS  H13Y19596   5.833   0.819   4.994  0.8795  1.3083  1.1799
  172SAPS  C31419597   5.659   0.953   4.969  0.5626 -1.0842  0.1016
  172SAPS  H14X19598   5.704   1.052   4.992 -3.1966  0.5204  1.3446
  172SAPS  H14Y19599   5.556   0.963   5.010  0.5502 -1.5785  0.1998
  172SAPS  C31519600   5.632   0.935   4.813  0.1190  0.5728  0.0403
  172SAPS  H15X19601   5.608   1.037   4.777  0.4173  0.5613 -0.1988
  172SAPS  H15Y19602   5.542   0.870   4.810  1.2766 -1.0792  0.0265
  172SAPS  C31619603   5.754   0.883   4.734  0.3924  0.3746 -0.4670
  172SAPS  H16X19604   5.846   0.942   4.754  1.4883 -1.1556 -0.9152
  172SAPS  H16Y19605   5.773   0.776   4.753 -2.5503 -0.2767 -0.6705
  172SAPS  C31719606   5.749   0.891   4.580  0.2951 -0.4376  0.8247
  172SAPS  H17X19607   5.651   0.852   4.547 -0.4945  2.8023 -1.1369
  172SAPS  H17Y19608   5.832   0.825   4.547  0.7115  1.0949 -1.4469
  172SAPS  C31819609   5.773   1.036   4.530 -0.2426  0.5286 -0.2060
  172SAPS  H18X19610   5.881   1.048   4.510 -0.2515  0.4886 -0.2763
  172SAPS  H18Y19611   5.739   1.116   4.599  0.2450  1.4532 -1.0095
  172SAPS  H18Z19612   5.718   1.061   4.437 -1.6156  0.2982  0.5073
  173SAPS     N19613   0.236   3.561   2.210 -0.0649  0.3245  0.0921
  173SAPS   HN119614   0.238   3.618   2.297 -3.5014  2.3138 -0.9233
  173SAPS   HN219615   0.316   3.593   2.152  0.1616  0.1256  0.2917
  173SAPS   HN319616   0.150   3.583   2.156 -0.2646 -1.5919 -0.4500
  173SAPS   C1219617   0.258   3.417   2.224  0.0777 -0.2952  0.0123
  173SAPS  H12A19618   0.172   3.376   2.274  0.7867 -0.2354  1.3241
  173SAPS   C1319619   0.258   3.329   2.093 -0.1398  0.0105 -0.4541
  173SAPS  O13A19620   0.226   3.371   1.983 -0.8458  0.5231 -0.6086
  173SAPS  O13B19621   0.259   3.203   2.117  0.6203 -0.4740  0.2398
  173SAPS   C1119622   0.395   3.390   2.301  0.3874  0.4201  0.7411
  173SAPS  H11A19623   0.413   3.280   2.304 -1.1249  0.1456  0.4602
  173SAPS  H11B19624   0.377   3.433   2.402 -0.2317  0.9395  0.4180
  173SAPS     P19625   0.652   3.386   2.238  0.6064 -0.3738 -0.0423
  173SAPS   O1319626   0.655   3.237   2.228  0.2534 -0.5330 -0.2382
  173SAPS   O1419627   0.718   3.453   2.128 -0.2049 -0.0228 -0.1534
  173SAPS   O1219628   0.510   3.447   2.236  0.6108  0.2593 -0.0180
  173SAPS   O1119629   0.700   3.428   2.385  0.1622  0.0341 -0.0589
  173SAPS    C119630   0.652   3.541   2.458  0.6807 -0.5022 -0.1587
  173SAPS    HA19631   0.728   3.620   2.444  0.9019 -0.5405  0.7179
  173SAPS    HB19632   0.559   3.584   2.416  0.0395 -1.2087  0.4798
  173SAPS    C219633   0.618   3.515   2.611  0.2445  0.5463 -0.1596
  173SAPS    HS19634   0.709   3.470   2.657 -0.4062 -1.5505 -0.7882
  173SAPS   O2119635   0.502   3.428   2.614 -0.3545 -0.1717 -0.4676
  173SAPS   C2119636   0.523   3.300   2.631 -0.3151 -0.8655 -0.0524
  173SAPS   O2219637   0.631   3.240   2.652 -0.2911  0.0193 -0.0597
  173SAPS   C2219638   0.389   3.230   2.625 -0.3902 -0.4871  0.6734
  173SAPS   H2R19639   0.308   3.305   2.616  1.7009  1.6831 -1.7587
  173SAPS   H2S19640   0.385   3.169   2.532 -0.5539  0.8527 -0.2258
  173SAPS    C319641   0.595   3.649   2.688  0.6525 -0.0054  0.2665
  173SAPS    HX19642   0.511   3.694   2.631  0.4200 -1.2183 -0.3910
  173SAPS    HY19643   0.688   3.706   2.670  1.0666 -0.5825  0.5536
  173SAPS   O3119644   0.574   3.630   2.831  0.5920  0.1485 -0.2838
  173SAPS   C3119645   0.454   3.652   2.876  0.5964  0.2592  0.0276
  173SAPS   O3219646   0.357   3.684   2.809 -0.4272 -0.5068  0.0665
  173SAPS   C3219647   0.448   3.605   3.021 -0.3287  0.0190  0.1413
  173SAPS   H2X19648   0.552   3.599   3.058 -0.3959 -2.4490  0.0817
  173SAPS   H2Y19649   0.406   3.502   3.024 -2.5169  0.8506  0.0897
  173SAPS   C2319650   0.360   3.137   2.744  0.7854  0.1225 -0.2212
  173SAPS   H3R19651   0.446   3.076   2.780  1.2216 -0.3662 -2.0239
  173SAPS   H3S19652   0.265   3.081   2.729  1.8220 -1.8905  0.3850
  173SAPS   C2419653   0.319   3.225   2.863 -1.0375  0.4946 -0.1712
  173SAPS   H4R19654   0.240   3.299   2.839 -1.8358  0.2695  1.5903
  173SAPS   H4S19655   0.412   3.283   2.881 -0.4151 -0.1896 -1.0805
  173SAPS   C2519656   0.295   3.160   3.003  0.5980 -0.2108 -0.3509
  173SAPS   H5R19657   0.190   3.126   2.999  0.4087  0.1746  0.8260
  173SAPS   C2619658   0.368   3.134   3.114 -0.8111  0.2121 -0.5012
  173SAPS   H6R19659   0.312   3.096   3.200  1.0118  2.2759  1.7729
  173SAPS   C2719660   0.515   3.173   3.152 -0.0067  0.3602  0.4829
  173SAPS   H7R19661   0.510   3.276   3.193 -1.1361  0.8998 -0.9122
  173SAPS   H7S19662   0.573   3.172   3.057  0.3589 -2.0480  0.6588
  173SAPS   C2819663   0.580   3.068   3.247  0.1622 -0.2973  0.2909
  173SAPS   H8R19664   0.589   2.969   3.200  3.2719 -0.2642  0.6235
  173SAPS   C2919665   0.634   3.097   3.367 -0.7976 -0.2194  0.8886
  173SAPS   H9R19666   0.680   3.017   3.427  1.3267  1.9077  2.2870
  173SAPS  C21019667   0.636   3.233   3.430  0.1940  0.0356 -0.7459
  173SAPS  H10R19668   0.625   3.221   3.540  1.6564 -0.2949 -0.6221
  173SAPS  H10S19669   0.541   3.283   3.399  0.0131 -0.1338 -0.4677
  173SAPS  C21119670   0.747   3.323   3.382  0.1633 -0.3585 -0.1781
  173SAPS  H11R19671   0.762   3.328   3.273 -0.5340  2.0891 -0.2115
  173SAPS  C21219672   0.836   3.393   3.457  0.1561  0.6193 -0.1753
  173SAPS  H12R19673   0.907   3.457   3.402 -1.5394  1.2691 -1.7094
  173SAPS  C21319674   0.847   3.402   3.608 -0.0246 -0.6981 -0.0273
  173SAPS  H13R19675   0.746   3.422   3.651  0.1102  0.6593 -0.3070
  173SAPS  H13S19676   0.909   3.487   3.644 -1.1171  0.4546 -0.7635
  173SAPS  C21419677   0.904   3.285   3.682  0.1313 -0.2919  0.0518
  173SAPS  H14R19678   0.947   3.205   3.619  2.0564  0.9484 -0.2787
  173SAPS  C21519679   0.910   3.265   3.818  0.3893 -0.2153 -0.0804
  173SAPS  H15R19680   0.968   3.177   3.849  0.6712  0.1017  0.3123
  173SAPS  C21619681   0.848   3.358   3.919 -0.0685  0.0797  0.0487
  173SAPS  H16R19682   0.787   3.298   3.990  0.1518 -2.3279 -1.6644
  173SAPS  H16S19683   0.785   3.436   3.873 -1.2762 -0.8718  0.0274
  173SAPS  C21719684   0.963   3.426   3.994 -0.7158  0.6429 -0.1919
  173SAPS  H17R19685   1.034   3.489   3.935 -0.2080 -1.9934 -2.6366
  173SAPS  H17S19686   1.026   3.346   4.038  1.3166  2.4976  0.4917
  173SAPS  C21819687   0.916   3.513   4.107 -0.6314  0.7892 -0.8086
  173SAPS  H18R19688   1.002   3.524   4.176  0.6612  3.9511 -2.7229
  173SAPS  H18S19689   0.845   3.450   4.166  1.3996 -0.8429  0.0105
  173SAPS  C21919690   0.864   3.653   4.073  0.0976 -0.1149  0.6465
  173SAPS  H19R19691   0.805   3.679   4.164 -1.3965  0.3527 -0.4271
  173SAPS  H19S19692   0.782   3.641   3.999 -2.9769 -1.8187  3.9817
  173SAPS  C22019693   0.965   3.759   4.028 -0.4801 -0.2707  0.2160
  173SAPS  H20R19694   0.908   3.849   3.996 -1.9049 -1.3371 -0.3704
  173SAPS  H20S19695   1.023   3.722   3.941 -0.1325 -0.1699  0.4037
  173SAPS  H20T19696   1.040   3.788   4.105  1.1486 -1.6178 -0.8085
  173SAPS   C3319697   0.374   3.713   3.115  0.0500  0.8511 -0.7002
  173SAPS   H3X19698   0.336   3.638   3.188  2.0109  0.2588 -0.2348
  173SAPS   H3Y19699   0.281   3.754   3.070 -0.4570  0.5319  0.0422
  173SAPS   C3419700   0.477   3.808   3.173 -0.2957 -0.3185  0.0168
  173SAPS   H4X19701   0.524   3.880   3.102 -0.0952 -0.7242 -0.2686
  173SAPS   H4Y19702   0.564   3.745   3.203 -2.0169 -2.3695  0.9661
  173SAPS   C3519703   0.417   3.881   3.296  0.4542  0.7659  0.1003
  173SAPS   H5X19704   0.310   3.856   3.312  0.3703  1.6274  1.0183
  173SAPS   H5Y19705   0.417   3.986   3.260  0.9526  0.7307 -0.0079
  173SAPS   C3619706   0.487   3.862   3.431 -0.7427 -0.2839  0.1107
  173SAPS   H6X19707   0.462   3.942   3.505  2.2541  0.0662  0.8707
  173SAPS   H6Y19708   0.596   3.881   3.428 -0.7873  0.1522  0.8267
  173SAPS   C3719709   0.462   3.729   3.491  0.5024 -0.0339  0.7348
  173SAPS   H7X19710   0.507   3.657   3.419  0.7102  0.9463 -0.1403
  173SAPS   H7Y19711   0.353   3.712   3.477  0.2600  1.9458 -0.2008
  173SAPS   C3819712   0.522   3.715   3.633 -0.4734 -0.0919 -0.0276
  173SAPS   H8X19713   0.496   3.807   3.689  0.7299 -0.5480  1.3312
  173SAPS   H8Y19714   0.631   3.698   3.638 -0.5543 -0.2490  1.6215
  173SAPS   C3919715   0.441   3.607   3.714  0.4557 -0.1475 -0.6722
  173SAPS   H9X19716   0.476   3.507   3.682 -1.6528 -0.8086 -1.0802
  173SAPS   H9Y19717   0.331   3.612   3.698  0.2289 -1.5750  0.2800
  173SAPS  C31019718   0.458   3.616   3.871  0.0334  0.3100 -0.3196
  173SAPS  H10X19719   0.452   3.720   3.910  0.5288  0.5850 -0.9583
  173SAPS  H10Y19720   0.562   3.585   3.896  0.5679  0.9384 -1.6558
  173SAPS  C31119721   0.363   3.531   3.958 -0.5050 -0.1147 -0.1500
  173SAPS  H11X19722   0.368   3.426   3.921  0.8509  0.3493 -1.3692
  173SAPS  H11Y19723   0.256   3.562   3.958 -0.9538 -1.5749  0.3364
  173SAPS  C31219724   0.402   3.530   4.111  1.0531  0.1750  0.1554
  173SAPS  H12X19725   0.405   3.638   4.138 -1.1152  0.1842  0.5209
  173SAPS  H12Y19726   0.497   3.474   4.127 -0.1429 -2.1958 -0.5940
  173SAPS  C31319727   0.289   3.460   4.201 -0.5537 -0.1800  0.1122
  173SAPS  H13X19728   0.200   3.524   4.184  0.5588  1.0285 -1.4171
  173SAPS  H13Y19729   0.311   3.466   4.309  0.6931  1.3656 -0.2003
  173SAPS  C31419730   0.258   3.319   4.160 -0.1374 -0.3191 -0.2181
  173SAPS  H14X19731   0.334   3.247   4.199 -1.2081 -1.7604 -0.7192
  173SAPS  H14Y19732   0.249   3.296   4.052 -1.5568 -3.5446  0.4587
  173SAPS  C31519733   0.126   3.261   4.222 -0.1296 -1.1150 -0.0532
  173SAPS  H15X19734   0.038   3.320   4.188  0.6402 -0.2149 -0.5404
  173SAPS  H15Y19735   0.141   3.261   4.332 -0.1459  1.0494  0.0047
  173SAPS  C31619736   0.113   3.114   4.193 -0.0642  0.3937 -0.1821
  173SAPS  H16X19737   0.190   3.039   4.222 -1.0086  0.0742  1.6468
  173SAPS  H16Y19738   0.102   3.113   4.083 -1.6374 -1.9011 -0.0604
  173SAPS  C31719739  -0.024   3.048   4.250  0.0511  0.8341 -0.1289
  173SAPS  H17X19740  -0.100   3.130   4.247 -1.3149 -0.4097 -0.6118
  173SAPS  H17Y19741  -0.005   3.031   4.358 -0.6231  1.0080  0.0248
  173SAPS  C31819742  -0.072   2.924   4.178 -0.3109 -0.3288 -0.0121
  173SAPS  H18X19743  -0.102   2.952   4.075  0.7742  2.1893  0.3011
  173SAPS  H18Y19744  -0.152   2.873   4.236  0.0052  0.5271  1.2131
  173SAPS  H18Z19745   0.007   2.848   4.160  0.3848  0.6538 -1.2884
  174SAPS     N19746   4.691   6.700   1.881  0.0458 -0.2882 -0.4565
  174SAPS   HN119747   4.784   6.726   1.922 -0.1468 -1.0291  0.4823
  174SAPS   HN219748   4.704   6.648   1.792 -0.2983 -0.7669 -0.2311
  174SAPS   HN319749   4.631   6.783   1.865 -0.4781 -0.6070 -0.1498
  174SAPS   C1219750   4.630   6.606   1.973 -0.1079 -0.1715 -0.7155
  174SAPS  H12A19751   4.629   6.663   2.065 -0.4839  2.0502 -2.0036
  174SAPS   C1319752   4.486   6.579   1.932 -0.3185  0.6095  0.0071
  174SAPS  O13A19753   4.438   6.650   1.839  0.4465 -0.0878 -0.7951
  174SAPS  O13B19754   4.424   6.479   1.981 -0.1114 -0.2462  0.0311
  174SAPS   C1119755   4.715   6.473   1.982  0.4205  0.3049 -0.4640
  174SAPS  H11A19756   4.728   6.443   1.875 -1.6132  0.1220 -0.6849
  174SAPS  H11B19757   4.653   6.404   2.042  0.4414 -0.3162 -1.1417
  174SAPS     P19758   4.954   6.405   2.063  0.2196 -0.3665 -0.0511
  174SAPS   O1319759   4.921   6.277   2.005 -0.1155  1.1181  0.4907
  174SAPS   O1419760   5.070   6.480   2.008  0.0434 -0.0620 -0.9543
  174SAPS   O1219761   4.835   6.506   2.058 -0.3464 -0.1940 -0.2919
  174SAPS   O1119762   4.968   6.385   2.216 -0.5613  0.2630  0.6873
  174SAPS    C119763   5.002   6.475   2.317 -0.4811  0.6177  0.1163
  174SAPS    HA19764   5.101   6.451   2.361 -0.4355 -1.1523 -0.8483
  174SAPS    HB19765   4.986   6.579   2.280 -1.3316  0.3861 -0.1836
  174SAPS    C219766   4.909   6.454   2.438  0.1854 -0.0727 -0.5059
  174SAPS    HS19767   4.928   6.546   2.497  2.1270  1.7661 -3.7277
  174SAPS   O2119768   4.942   6.336   2.508 -0.0168 -0.1657  0.4066
  174SAPS   C2119769   4.931   6.360   2.645  0.6804 -0.6160  0.0241
  174SAPS   O2219770   4.897   6.468   2.690  0.6531  0.2937  0.0912
  174SAPS   C2219771   4.972   6.240   2.723 -0.4807 -0.1587 -0.0729
  174SAPS   H2R19772   4.926   6.157   2.666  1.1443  0.3058 -2.1863
  174SAPS   H2S19773   5.080   6.221   2.708 -0.4970 -1.8528  1.6674
  174SAPS    C319774   4.758   6.445   2.387 -0.1878 -0.5510  0.2715
  174SAPS    HX19775   4.756   6.375   2.300  3.3022 -1.5280  0.8180
  174SAPS    HY19776   4.736   6.547   2.348  0.5555 -0.6647 -0.4638
  174SAPS   O3119777   4.671   6.398   2.496  0.4956  0.0896 -0.2233
  174SAPS   C3119778   4.615   6.496   2.569  0.0487 -0.0048  0.0199
  174SAPS   O3219779   4.638   6.615   2.556  0.6005  0.2201 -0.0429
  174SAPS   C3219780   4.533   6.430   2.680  0.1486 -0.1946  0.0215
  174SAPS   H2X19781   4.561   6.323   2.689  0.4528 -0.0868  0.3490
  174SAPS   H2Y19782   4.429   6.425   2.640  0.3952 -0.0091 -0.6531
  174SAPS   C2319783   4.938   6.254   2.873  0.1078  0.0300 -0.0606
  174SAPS   H3R19784   4.831   6.283   2.880 -0.0067  0.1702 -1.9095
  174SAPS   H3S19785   4.997   6.340   2.912  1.0002 -0.1322 -0.9960
  174SAPS   C2419786   4.977   6.130   2.957 -0.3872  0.6540  0.2578
  174SAPS   H4R19787   4.970   6.151   3.065  1.3137  0.1683  0.4959
  174SAPS   H4S19788   5.083   6.104   2.936 -0.6794 -0.6984  0.3673
  174SAPS   C2519789   4.882   6.013   2.925  0.0365 -0.3909 -0.3639
  174SAPS   H5R19790   4.817   6.014   2.837 -1.4886 -1.5908  0.7070
  174SAPS   C2619791   4.889   5.909   3.009  0.2498 -0.9651 -0.5008
  174SAPS   H6R19792   4.817   5.827   2.997 -0.0880 -0.5105 -1.6366
  174SAPS   C2719793   4.979   5.878   3.126 -0.0398 -0.4922 -0.1594
  174SAPS   H7R19794   5.084   5.909   3.109 -0.3166  0.3325 -0.4077
  174SAPS   H7S19795   4.993   5.768   3.139 -0.9070 -0.6930 -0.8167
  174SAPS   C2819796   4.934   5.939   3.256 -0.7955  0.0207 -0.6996
  174SAPS   H8R19797   4.825   5.954   3.260 -1.1195 -2.1701  1.0442
  174SAPS   C2919798   5.003   5.973   3.367 -0.0361  1.4790 -0.2182
  174SAPS   H9R19799   4.957   6.021   3.454  0.3710 -0.4150  1.1071
  174SAPS  C21019800   5.156   5.965   3.374 -0.3408  0.0862  0.0301
  174SAPS  H10R19801   5.201   6.035   3.447 -0.6086 -1.0554  1.3182
  174SAPS  H10S19802   5.195   6.001   3.276 -0.3821 -2.0426 -0.8039
  174SAPS  C21119803   5.207   5.824   3.392  0.2251  0.3829 -0.4070
  174SAPS  H11R19804   5.247   5.780   3.300  0.6837 -2.6175  1.1169
  174SAPS  C21219805   5.204   5.758   3.509  0.2370 -0.1565 -1.0758
  174SAPS  H12R19806   5.234   5.652   3.510 -0.1324 -0.2724  0.6256
  174SAPS  C21319807   5.151   5.817   3.641  0.3921 -0.0399  0.3750
  174SAPS  H13R19808   5.154   5.928   3.637 -3.4925  0.1999 -2.9390
  174SAPS  H13S19809   5.228   5.785   3.714  2.1180  0.6491 -1.0623
  174SAPS  C21419810   5.010   5.779   3.658  0.8076  0.6109  0.1413
  174SAPS  H14R19811   4.939   5.830   3.592  0.0865  0.1820  0.5804
  174SAPS  C21519812   4.965   5.692   3.748  0.1763  0.7592 -0.0190
  174SAPS  H15R19813   4.856   5.676   3.752  0.1291  0.0940 -2.3329
  174SAPS  C21619814   5.049   5.602   3.834 -0.2493  0.3483  0.2026
  174SAPS  H16R19815   5.157   5.617   3.813 -0.4134 -0.8698 -1.7294
  174SAPS  H16S19816   5.025   5.496   3.812  0.9907  0.0725  0.0776
  174SAPS  C21719817   5.032   5.622   3.988  0.5768  0.3322  0.3129
  174SAPS  H17R19818   4.990   5.723   4.007 -0.1497 -0.3395  2.5487
  174SAPS  H17S19819   5.133   5.612   4.033  0.6885 -1.5717 -0.2760
  174SAPS  C21819820   4.939   5.516   4.040  0.6553 -0.1558 -0.1124
  174SAPS  H18R19821   4.969   5.415   4.004 -1.1804 -1.0848  0.7738
  174SAPS  H18S19822   4.842   5.539   3.991  1.5049  1.0332 -1.2716
  174SAPS  C21919823   4.935   5.526   4.194 -0.1898 -1.3343  0.0221
  174SAPS  H19R19824   4.895   5.625   4.226  0.7844 -1.4538  1.7664
  174SAPS  H19S19825   5.043   5.529   4.219 -0.1836 -0.6728 -0.0656
  174SAPS  C22019826   4.858   5.415   4.256  0.0997  0.4521  0.0205
  174SAPS  H20R19827   4.910   5.321   4.226  1.9634  1.5417 -0.2994
  174SAPS  H20S19828   4.752   5.416   4.224 -0.6293 -0.0863  2.1964
  174SAPS  H20T19829   4.854   5.417   4.367 -0.4702  0.1698  0.0062
  174SAPS   C3319830   4.561   6.517   2.802 -0.7732  0.4415  0.0042
  174SAPS   H3X19831   4.497   6.607   2.798 -1.4221 -0.0348 -3.8269
  174SAPS   H3Y19832   4.669   6.543   2.804 -0.4873 -0.5744 -1.1915
  174SAPS   C3419833   4.549   6.441   2.935  0.0113  0.2364 -0.7172
  174SAPS   H4X19834   4.612   6.351   2.950 -0.8337 -0.5168 -1.5617
  174SAPS   H4Y19835   4.450   6.392   2.939 -0.2718  0.7623 -1.1556
  174SAPS   C3519836   4.564   6.540   3.050 -0.3110 -0.3579 -0.4105
  174SAPS   H5X19837   4.474   6.604   3.051 -1.3531 -1.7709 -0.3015
  174SAPS   H5Y19838   4.653   6.603   3.030 -0.7857  0.3938 -0.1819
  174SAPS   C3619839   4.579   6.490   3.187 -0.1596  0.1103  0.2178
  174SAPS   H6X19840   4.511   6.403   3.202 -0.4042  0.3421  0.4682
  174SAPS   H6Y19841   4.557   6.563   3.267 -1.1820  1.6240 -1.3575
  174SAPS   C3719842   4.724   6.425   3.211 -0.1300 -0.2899  0.1960
  174SAPS   H7X19843   4.797   6.507   3.193  0.0374 -1.0310 -3.1890
  174SAPS   H7Y19844   4.730   6.355   3.125 -2.6360 -0.4972  0.0959
  174SAPS   C3819845   4.739   6.361   3.354 -0.1570  0.0507  0.1926
  174SAPS   H8X19846   4.671   6.272   3.347 -1.4705  1.1380 -2.3307
  174SAPS   H8Y19847   4.687   6.430   3.423 -1.2662 -1.1025  0.5658
  174SAPS   C3919848   4.878   6.336   3.400 -0.7203  0.4431 -0.7930
  174SAPS   H9X19849   4.927   6.436   3.402 -0.8611  0.5091 -0.6668
  174SAPS   H9Y19850   4.940   6.269   3.337  0.9618  1.9919 -0.8735
  174SAPS  C31019851   4.882   6.271   3.537  0.2373 -0.2358  0.4090
  174SAPS  H10X19852   4.833   6.171   3.541 -0.0396 -0.2320 -1.8188
  174SAPS  H10Y19853   4.817   6.328   3.608  1.5617  1.2518  0.4703
  174SAPS  C31119854   5.019   6.287   3.608 -0.5359 -0.0564  0.3672
  174SAPS  H11X19855   5.028   6.396   3.630 -1.6772  0.5324 -1.8025
  174SAPS  H11Y19856   5.097   6.257   3.535 -0.5990 -1.4481  0.8409
  174SAPS  C31219857   5.034   6.215   3.740  0.1861  0.4002 -0.0298
  174SAPS  H12X19858   5.011   6.107   3.728 -1.6730  0.5009  2.0896
  174SAPS  H12Y19859   4.949   6.253   3.800  0.0592  0.6800 -0.3815
  174SAPS  C31319860   5.159   6.250   3.816 -0.0134  0.5183 -0.0700
  174SAPS  H13X19861   5.201   6.346   3.780 -0.8082  0.0563 -2.4132
  174SAPS  H13Y19862   5.224   6.161   3.798 -0.6068 -0.1839  1.1311
  174SAPS  C31419863   5.139   6.257   3.972 -0.2881  0.0048  0.1491
  174SAPS  H14X19864   5.119   6.161   4.025  0.5672 -0.2844 -0.0485
  174SAPS  H14Y19865   5.046   6.316   3.985 -1.2216 -0.7746 -2.2865
  174SAPS  C31519866   5.262   6.324   4.038  0.0250 -0.3219 -0.5792
  174SAPS  H15X19867   5.277   6.418   3.982  0.0961 -0.2130 -0.3804
  174SAPS  H15Y19868   5.356   6.264   4.037  1.2106  1.4432 -0.4219
  174SAPS  C31619869   5.234   6.367   4.185  0.6630  0.1276  0.4987
  174SAPS  H16X19870   5.248   6.287   4.261  0.8195  1.4369  1.8733
  174SAPS  H16Y19871   5.125   6.385   4.189  0.4294 -0.6171 -1.2225
  174SAPS  C31719872   5.322   6.486   4.229  1.0600  0.8471  0.6533
  174SAPS  H17X19873   5.278   6.540   4.315  0.3678  2.8512 -0.8784
  174SAPS  H17Y19874   5.328   6.565   4.151  2.1883  1.0421  0.9311
  174SAPS  C31819875   5.467   6.450   4.265  0.3416 -0.6429 -0.2132
  174SAPS  H18X19876   5.462   6.359   4.329  0.0665 -1.1678 -0.9637
  174SAPS  H18Y19877   5.503   6.537   4.324 -0.4211  1.2149 -2.3695
  174SAPS  H18Z19878   5.530   6.444   4.173  0.4513  0.3886 -0.2112
  175SAPS     N19879   1.422   6.815   2.341  0.2814  0.2768 -0.0982
  175SAPS   HN119880   1.346   6.810   2.271  0.9554  0.3534 -0.8432
  175SAPS   HN219881   1.454   6.720   2.368  1.0866  0.5632 -0.0296
  175SAPS   HN319882   1.381   6.855   2.428  0.3265  0.8252 -0.3245
  175SAPS   C1219883   1.532   6.894   2.296  0.0845  0.3914 -0.7403
  175SAPS  H12A19884   1.546   6.877   2.191  1.1512 -0.4906 -0.4691
  175SAPS   C1319885   1.509   7.047   2.300  0.2194 -0.4913  1.4134
  175SAPS  O13A19886   1.394   7.097   2.331 -0.5914 -0.1102  0.2086
  175SAPS  O13B19887   1.607   7.117   2.263  0.0681 -0.0915  0.0524
  175SAPS   C1119888   1.663   6.855   2.369 -0.4832  0.1107  0.1651
  175SAPS  H11A19889   1.644   6.891   2.473 -0.9722  2.0143 -0.5518
  175SAPS  H11B19890   1.744   6.910   2.316 -0.3908  0.1399  0.3355
  175SAPS     P19891   1.843   6.662   2.378  0.2431 -0.0744 -0.2315
  175SAPS   O1319892   1.829   6.530   2.442  0.3365 -0.2605 -0.6285
  175SAPS   O1419893   1.921   6.661   2.242  0.6958  0.2653 -1.0987
  175SAPS   O1219894   1.696   6.715   2.354 -0.0766  0.4068 -0.2897
  175SAPS   O1119895   1.912   6.752   2.486 -0.3522  0.5809 -0.1090
  175SAPS    C119896   1.983   6.870   2.451 -0.7809 -0.0440  0.4076
  175SAPS    HA19897   1.933   6.917   2.364 -0.4375 -1.3983 -0.5531
  175SAPS    HB19898   1.974   6.947   2.531  2.7622  0.0480  0.9075
  175SAPS    C219899   2.135   6.844   2.430  0.5970 -0.1518 -0.9054
  175SAPS    HS19900   2.162   6.745   2.387  0.5225 -1.4642  1.8338
  175SAPS   O2119901   2.188   6.835   2.569 -0.0136 -0.2134  0.0028
  175SAPS   C2119902   2.314   6.800   2.581  0.4076  0.6757 -0.4032
  175SAPS   O2219903   2.395   6.783   2.489 -0.1349 -0.1700 -0.3108
  175SAPS   C2219904   2.345   6.777   2.737  0.3212  0.1173  0.0588
  175SAPS   H2R19905   2.257   6.735   2.790  1.9207 -0.2580  2.5666
  175SAPS   H2S19906   2.415   6.693   2.724  1.7413  1.2603  0.0539
  175SAPS    C319907   2.204   6.956   2.356 -0.3933  0.0165  0.0501
  175SAPS    HX19908   2.160   6.967   2.254  0.2004  2.2653 -0.0132
  175SAPS    HY19909   2.312   6.932   2.345 -1.0098 -2.2997 -1.8881
  175SAPS   O3119910   2.191   7.074   2.433  0.2983 -0.1122  0.0388
  175SAPS   C3119911   2.224   7.192   2.384  0.6660  0.0989  0.2442
  175SAPS   O3219912   2.266   7.214   2.271  0.8832 -0.2705 -0.6769
  175SAPS   C3219913   2.201   7.298   2.498 -0.1916  0.4396 -0.4405
  175SAPS   H2X19914   2.160   7.241   2.584  0.6100  1.0991  0.3964
  175SAPS   H2Y19915   2.116   7.359   2.460 -0.1992  1.0837  0.5844
  175SAPS   C2319916   2.407   6.902   2.804 -0.3325  0.2674  0.1541
  175SAPS   H3R19917   2.333   6.983   2.792  0.2770  0.7937 -0.1288
  175SAPS   H3S19918   2.506   6.930   2.762 -0.6151 -0.7344 -1.2489
  175SAPS   C2419919   2.413   6.877   2.960  0.0289 -0.1774  0.5692
  175SAPS   H4R19920   2.477   6.786   2.965  1.2760  0.5013 -1.7293
  175SAPS   H4S19921   2.312   6.838   2.985  0.5845 -0.2651  2.8940
  175SAPS   C2519922   2.451   6.986   3.057  0.2620  0.3184  0.9929
  175SAPS   H5R19923   2.541   7.044   3.031 -0.4794  1.1378  0.1942
  175SAPS   C2619924   2.392   7.010   3.171 -0.8169 -0.2370 -0.1661
  175SAPS   H6R19925   2.426   7.096   3.230  0.0113 -0.9128  0.3771
  175SAPS   C2719926   2.273   6.933   3.228 -0.2951  0.0172 -0.0764
  175SAPS   H7R19927   2.284   6.934   3.339  2.5272  2.8076 -0.2457
  175SAPS   H7S19928   2.295   6.826   3.209  0.0199 -0.2796  1.7954
  175SAPS   C2819929   2.139   6.968   3.170 -0.4239  0.1937  0.2961
  175SAPS   H8R19930   2.120   7.076   3.175  1.2954  0.7149 -2.4140
  175SAPS   C2919931   2.041   6.881   3.133 -0.2886 -0.3947 -0.3118
  175SAPS   H9R19932   1.943   6.918   3.100  0.3434  0.4936 -1.2515
  175SAPS  C21019933   2.039   6.730   3.132 -0.5280 -0.2736  0.5607
  175SAPS  H10R19934   2.145   6.700   3.152 -0.1019  2.4156  3.0798
  175SAPS  H10S19935   2.009   6.699   3.029  0.3607  1.8681 -0.3998
  175SAPS  C21119936   1.937   6.673   3.228  0.0335 -0.4446  0.0760
  175SAPS  H11R19937   1.977   6.691   3.329 -1.3982  1.0228  0.4232
  175SAPS  C21219938   1.827   6.598   3.203  0.0907  0.3549  0.4008
  175SAPS  H12R19939   1.759   6.557   3.278  0.9803 -0.3855  0.8216
  175SAPS  C21319940   1.773   6.558   3.068  0.9073 -0.4706  0.3489
  175SAPS  H13R19941   1.773   6.649   3.005  1.4338  1.7829  3.3692
  175SAPS  H13S19942   1.667   6.526   3.074  0.7415 -0.2590 -1.1677
  175SAPS  C21419943   1.841   6.449   2.989 -0.3413  0.0502  0.2141
  175SAPS  H14R19944   1.895   6.488   2.901 -0.8242 -1.3808 -0.7463
  175SAPS  C21519945   1.848   6.313   3.015  0.0697  0.3071  0.5859
  175SAPS  H15R19946   1.900   6.245   2.946 -0.0941  0.3026  0.4643
  175SAPS  C21619947   1.786   6.234   3.127 -0.5806  0.3536  0.3805
  175SAPS  H16R19948   1.762   6.307   3.207 -1.4065  1.7284 -1.0526
  175SAPS  H16S19949   1.871   6.170   3.161 -0.0526  0.7245 -0.2112
  175SAPS  C21719950   1.664   6.134   3.099  0.1156 -0.0470 -0.3152
  175SAPS  H17R19951   1.648   6.073   3.190  0.7662 -0.3881 -0.4249
  175SAPS  H17S19952   1.697   6.058   3.026  0.5304 -0.0618 -0.1183
  175SAPS  C21819953   1.548   6.215   3.045 -0.3385  0.2995 -0.5150
  175SAPS  H18R19954   1.482   6.136   3.004  0.1237  0.4399 -1.5856
  175SAPS  H18S19955   1.581   6.266   2.951  0.4213 -0.6506 -0.7830
  175SAPS  C21919956   1.476   6.301   3.149 -0.4107  0.4401 -0.2022
  175SAPS  H19R19957   1.540   6.355   3.220  1.2262  0.0607 -1.3305
  175SAPS  H19S19958   1.429   6.225   3.215  0.8967  0.4642  0.7794
  175SAPS  C22019959   1.368   6.400   3.099  0.4266  0.1768 -0.0600
  175SAPS  H20R19960   1.404   6.505   3.088 -0.2429  0.2950 -1.2572
  175SAPS  H20S19961   1.283   6.393   3.169 -0.6851  2.8798 -0.9660
  175SAPS  H20T19962   1.335   6.366   2.999  0.7245  0.4416 -0.2524
  175SAPS   C3319963   2.334   7.367   2.543 -0.4506  0.2106  0.2836
  175SAPS   H3X19964   2.318   7.452   2.613 -0.7226  0.9756 -0.6991
  175SAPS   H3Y19965   2.388   7.404   2.453  0.2391 -0.6686  0.3299
  175SAPS   C3419966   2.417   7.269   2.628  0.0064 -0.3022 -0.6432
  175SAPS   H4X19967   2.464   7.189   2.567  0.2152  0.2948 -1.2745
  175SAPS   H4Y19968   2.341   7.233   2.700 -1.5281  2.3775 -0.7794
  175SAPS   C3519969   2.528   7.339   2.705 -0.0504 -0.9518 -0.6149
  175SAPS   H5X19970   2.504   7.440   2.745  2.5286  0.5096 -2.4102
  175SAPS   H5Y19971   2.627   7.347   2.655 -0.1983 -1.6341 -1.0233
  175SAPS   C3619972   2.560   7.261   2.839  0.8986  0.4146  0.4018
  175SAPS   H6X19973   2.610   7.164   2.818  2.1791  1.3458 -1.1242
  175SAPS   H6Y19974   2.470   7.239   2.899 -0.4871  2.1798 -0.9161
  175SAPS   C3719975   2.648   7.336   2.938  0.1578  0.0747  0.0369
  175SAPS   H7X19976   2.608   7.438   2.959 -2.0902 -0.6412 -0.4773
  175SAPS   H7Y19977   2.744   7.343   2.882  0.3606  0.2869  0.4055
  175SAPS   C3819978   2.670   7.262   3.068  0.3798  0.1521  0.3570
  175SAPS   H8X19979   2.703   7.159   3.044 -5.3612 -2.2003  1.1529
  175SAPS   H8Y19980   2.582   7.258   3.136  0.9813  0.7665  1.2015
  175SAPS   C3919981   2.775   7.345   3.137  1.1723 -0.5984 -0.1433
  175SAPS   H9X19982   2.722   7.439   3.163 -0.3377 -1.8166  1.4626
  175SAPS   H9Y19983   2.861   7.370   3.071  1.1648  3.0184  1.0337
  175SAPS  C31019984   2.827   7.287   3.276  0.3071  0.3791 -0.9625
  175SAPS  H10X19985   2.885   7.369   3.322  0.6085  0.2510 -1.1125
  175SAPS  H10Y19986   2.905   7.210   3.258  1.9317  1.3804  1.3403
  175SAPS  C31119987   2.722   7.236   3.367 -0.2841 -0.1869 -0.0687
  175SAPS  H11X19988   2.673   7.146   3.325 -3.1882  1.3391 -0.1606
  175SAPS  H11Y19989   2.649   7.318   3.380 -0.9573 -0.6157 -1.0364
  175SAPS  C31219990   2.768   7.192   3.504  0.0077  0.6128 -0.7967
  175SAPS  H12X19991   2.834   7.272   3.544 -2.1973  2.6054 -0.9363
  175SAPS  H12Y19992   2.839   7.106   3.501  0.7177  1.2232 -2.0244
  175SAPS  C31319993   2.655   7.159   3.605  0.0288  0.5511 -1.1745
  175SAPS  H13X19994   2.609   7.064   3.570 -1.8094  0.6315  0.8473
  175SAPS  H13Y19995   2.576   7.236   3.607 -0.2967  0.3534  3.0585
  175SAPS  C31419996   2.694   7.140   3.753  0.2589  0.4673  0.0636
  175SAPS  H14X19997   2.784   7.076   3.757 -1.8621 -2.6611  1.5623
  175SAPS  H14Y19998   2.613   7.093   3.812 -0.0765  0.2060 -0.5890
  175SAPS  C31519999   2.721   7.274   3.826 -0.5424 -0.7707  0.1101
  175SAPS  H15X20000   2.634   7.340   3.807 -2.0516 -2.8110 -0.4212
  175SAPS  H15Y20001   2.808   7.316   3.772  1.2515 -1.8041  2.0480
  175SAPS  C31620002   2.766   7.249   3.969  0.3081 -0.9195  0.0202
  175SAPS  H16X20003   2.865   7.199   3.954  2.0319  2.3238 -0.4447
  175SAPS  H16Y20004   2.696   7.184   4.025 -0.1108  0.8415  1.6267
  175SAPS  C31720005   2.781   7.380   4.051 -0.6015 -0.5103 -0.4450
  175SAPS  H17X20006   2.683   7.427   4.073 -0.9075 -0.6441 -1.4633
  175SAPS  H17Y20007   2.856   7.450   4.008  2.9070 -1.9161  2.7359
  175SAPS  C31820008   2.838   7.343   4.185  0.1631  0.2963  0.1506
  175SAPS  H18X20009   2.935   7.288   4.188 -0.2477 -0.5887 -1.6245
  175SAPS  H18Y20010   2.779   7.269   4.244  2.1468 -1.3595  0.1639
  175SAPS  H18Z20011   2.847   7.431   4.252 -2.0713 -0.3021  1.3282
  176SAPS     N20012   3.266   4.135   1.943  1.0757  0.0720  0.1291
  176SAPS   HN120013   3.207   4.191   2.008  1.2662  0.1222  0.2579
  176SAPS   HN220014   3.192   4.086   1.889  0.3080  1.0659  0.2596
  176SAPS   HN320015   3.310   4.066   2.007  2.3416  1.7105  1.0973
  176SAPS   C1220016   3.358   4.219   1.864  0.2649  0.4120  0.2676
  176SAPS  H12A20017   3.416   4.266   1.941  1.2712 -0.1955 -0.0962
  176SAPS   C1320018   3.474   4.151   1.781  0.9564  0.2595  0.1076
  176SAPS  O13A20019   3.476   4.026   1.784  0.1380  0.1060 -0.1541
  176SAPS  O13B20020   3.543   4.226   1.707  0.1602  0.2478 -0.8452
  176SAPS   C1120021   3.267   4.322   1.786 -0.0211  0.1532  0.6949
  176SAPS  H11A20022   3.211   4.271   1.705 -3.5025 -0.1866  3.0993
  176SAPS  H11B20023   3.336   4.392   1.733  0.0755 -1.3585 -1.2862
  176SAPS     P20024   3.097   4.515   1.832 -0.0937 -0.1640  0.0224
  176SAPS   O1320025   3.117   4.525   1.688 -0.1867 -0.0585 -0.5130
  176SAPS   O1420026   2.961   4.501   1.878  0.5000  0.3118 -0.4915
  176SAPS   O1220027   3.180   4.389   1.880 -0.4154 -0.4250 -0.0318
  176SAPS   O1120028   3.168   4.636   1.903 -0.3024  0.0210  0.5910
  176SAPS    C120029   3.251   4.620   2.019  0.1672 -0.3569  0.0455
  176SAPS    HA20030   3.306   4.523   2.013  0.9774  0.0203  0.9735
  176SAPS    HB20031   3.320   4.707   2.029  0.6067 -0.7002  0.0624
  176SAPS    C220032   3.157   4.605   2.140  0.1080  0.6140 -0.2271
  176SAPS    HS20033   3.097   4.512   2.126 -1.3088  1.7769 -2.4800
  176SAPS   O2120034   3.065   4.715   2.139 -0.3398  0.0570  0.1860
  176SAPS   C2120035   2.950   4.687   2.198 -0.7842 -0.1893 -0.2577
  176SAPS   O2220036   2.919   4.588   2.257  0.1506 -0.1936 -0.3947
  176SAPS   C2220037   2.865   4.810   2.167 -0.4077 -1.0159  0.6974
  176SAPS   H2R20038   2.919   4.906   2.153  0.5669 -1.6414  0.0207
  176SAPS   H2S20039   2.823   4.796   2.066  1.0222  0.1662 -0.1096
  176SAPS    C320040   3.244   4.598   2.272 -0.3076 -0.7962 -0.7686
  176SAPS    HX20041   3.316   4.682   2.268 -0.1650 -0.6554  2.4469
  176SAPS    HY20042   3.311   4.509   2.272  1.6974  0.4995 -4.1863
  176SAPS   O3120043   3.176   4.623   2.400  0.4153  0.3072  0.3472
  176SAPS   C3120044   3.123   4.507   2.452  0.0575 -0.7308 -0.7212
  176SAPS   O3220045   3.145   4.395   2.406 -0.1260 -0.1871 -0.1411
  176SAPS   C3220046   3.028   4.537   2.568  0.2701 -0.6232  0.2550
  176SAPS   H2X20047   2.926   4.497   2.551  0.9050 -2.8328  1.2399
  176SAPS   H2Y20048   3.023   4.648   2.578 -0.9233 -0.8147  2.7191
  176SAPS   C2320049   2.746   4.825   2.261 -0.2352 -0.1545 -0.1916
  176SAPS   H3R20050   2.694   4.727   2.266  1.1254 -0.8495  3.5966
  176SAPS   H3S20051   2.670   4.900   2.229  0.5604  1.4431  1.4907
  176SAPS   C2420052   2.794   4.877   2.403 -0.6929 -0.0441 -0.5327
  176SAPS   H4R20053   2.811   4.987   2.396  0.1727 -0.1103  0.3086
  176SAPS   H4S20054   2.883   4.820   2.437 -1.3180 -0.5051  0.3861
  176SAPS   C2520055   2.678   4.849   2.495 -0.5722  0.5820  0.2451
  176SAPS   H5R20056   2.589   4.832   2.433 -0.5167 -1.2480  0.6056
  176SAPS   C2620057   2.667   4.860   2.629 -0.6199 -0.3309 -0.4449
  176SAPS   H6R20058   2.569   4.826   2.665  0.1498 -0.1929  1.9758
  176SAPS   C2720059   2.770   4.863   2.738  0.5499 -0.2272  0.2519
  176SAPS   H7R20060   2.855   4.928   2.707 -0.9721  0.4754 -2.8729
  176SAPS   H7S20061   2.794   4.763   2.779  2.8638  1.1966  2.6109
  176SAPS   C2820062   2.714   4.937   2.853 -0.2654  0.1880 -0.6721
  176SAPS   H8R20063   2.709   5.047   2.848 -0.3575  0.2605  0.7715
  176SAPS   C2920064   2.646   4.875   2.953  0.3198 -0.1500  0.2876
  176SAPS   H9R20065   2.596   4.938   3.028  0.3731 -1.0245  1.0718
  176SAPS  C21020066   2.634   4.720   2.968 -0.6288 -0.0016  0.1745
  176SAPS  H10R20067   2.736   4.678   2.956 -0.7108  0.1247 -1.0621
  176SAPS  H10S20068   2.579   4.689   2.877  2.4674 -1.1301 -1.4723
  176SAPS  C21120069   2.570   4.659   3.091  0.2918  0.2268 -0.1091
  176SAPS  H11R20070   2.492   4.585   3.067 -0.8905  0.7687  1.8866
  176SAPS  C21220071   2.605   4.686   3.220  0.2755  0.1115 -0.0099
  176SAPS  H12R20072   2.544   4.646   3.303  1.0945  0.9891  1.0467
  176SAPS  C21320073   2.715   4.771   3.274  0.4595  0.4766  0.0631
  176SAPS  H13R20074   2.684   4.788   3.380  1.7954 -3.0225  1.1335
  176SAPS  H13S20075   2.722   4.868   3.220 -0.2505  0.6296  0.2256
  176SAPS  C21420076   2.849   4.709   3.253 -0.1032  0.1470 -0.6770
  176SAPS  H14R20077   2.882   4.702   3.148  3.2545 -3.0921  0.4114
  176SAPS  C21520078   2.918   4.640   3.341 -0.0866 -0.1209  0.1739
  176SAPS  H15R20079   3.025   4.622   3.324  0.4921  1.3610  1.9481
  176SAPS  C21620080   2.885   4.605   3.485  0.2057 -0.7628  0.8515
  176SAPS  H16R20081   2.831   4.508   3.484 -1.8670  0.3432 -0.0247
  176SAPS  H16S20082   2.803   4.673   3.517 -2.1669 -2.0388 -2.0617
  176SAPS  C21720083   2.993   4.603   3.586 -0.2754  0.0982 -0.1410
  176SAPS  H17R20084   3.029   4.707   3.601 -0.2141  0.0707 -0.0930
  176SAPS  H17S20085   3.082   4.540   3.565 -1.6693 -1.7852 -0.6268
  176SAPS  C21820086   2.936   4.567   3.725  0.3095 -0.4959 -0.6277
  176SAPS  H18R20087   2.890   4.466   3.734  0.2897 -0.4453 -0.1697
  176SAPS  H18S20088   2.856   4.641   3.747 -2.0716 -3.5362  1.8286
  176SAPS  C21920089   3.047   4.576   3.832 -0.7564 -0.1086  0.2400
  176SAPS  H19R20090   3.123   4.655   3.814 -0.6101  0.9831  4.4537
  176SAPS  H19S20091   3.117   4.489   3.829  0.1810  0.6048  0.8737
  176SAPS  C22020092   2.999   4.578   3.978 -0.5694  0.3157  0.3738
  176SAPS  H20R20093   3.076   4.551   4.053 -1.8201  0.8114  1.9086
  176SAPS  H20S20094   2.918   4.502   3.981 -1.7055  1.4565 -0.0301
  176SAPS  H20T20095   2.951   4.677   3.999 -1.0022  0.5580 -1.5365
  176SAPS   C3320096   3.083   4.473   2.696 -0.3176  0.7430  0.3341
  176SAPS   H3X20097   3.180   4.519   2.726 -0.7578  1.3836  0.7984
  176SAPS   H3Y20098   3.100   4.365   2.677  1.4546  0.6730  2.0093
  176SAPS   C3420099   3.001   4.509   2.815 -1.0944  0.1784  0.0448
  176SAPS   H4X20100   2.893   4.488   2.800 -1.6824  2.7413  0.2228
  176SAPS   H4Y20101   3.013   4.616   2.842 -1.4303  0.0710  0.6505
  176SAPS   C3520102   3.044   4.424   2.939 -0.3189  0.4843  0.3187
  176SAPS   H5X20103   2.997   4.470   3.028 -2.5047  0.0915 -0.5725
  176SAPS   H5Y20104   3.155   4.430   2.944 -0.2213 -0.6483 -0.1389
  176SAPS   C3620105   3.004   4.278   2.944 -0.0057  0.3354  0.2101
  176SAPS   H6X20106   3.052   4.240   2.851  1.7462  2.2383  0.2578
  176SAPS   H6Y20107   2.894   4.277   2.932  0.1867 -0.6460 -1.7457
  176SAPS   C3720108   3.048   4.189   3.067 -0.1288  0.0152  0.1089
  176SAPS   H7X20109   3.159   4.193   3.071  0.0306 -0.0994 -2.3734
  176SAPS   H7Y20110   3.015   4.087   3.038 -2.0970  0.8135 -0.6127
  176SAPS   C3820111   2.997   4.237   3.202 -0.5992  0.4076  0.3889
  176SAPS   H8X20112   2.887   4.254   3.198 -0.5754  0.8419  1.3456
  176SAPS   H8Y20113   3.043   4.335   3.228  2.0475 -0.8313  0.5929
  176SAPS   C3920114   3.028   4.131   3.310 -0.3082 -0.1060  0.2606
  176SAPS   H9X20115   3.139   4.124   3.310 -0.0027  3.1256 -0.2636
  176SAPS   H9Y20116   2.987   4.032   3.283 -1.4158  0.8382 -1.7834
  176SAPS  C31020117   2.977   4.179   3.451 -0.3754 -0.2759  0.7173
  176SAPS  H10X20118   2.866   4.171   3.453 -0.3237 -1.0134  1.0456
  176SAPS  H10Y20119   2.998   4.288   3.445  0.4242 -0.4438  0.3344
  176SAPS  C31120120   3.030   4.097   3.562  0.0309 -0.4371 -0.0919
  176SAPS  H11X20121   3.139   4.079   3.548  0.3737  2.0028 -1.2221
  176SAPS  H11Y20122   2.972   4.003   3.555  0.1462 -0.4116 -1.7898
  176SAPS  C31220123   3.003   4.162   3.697 -0.1398 -0.3277  0.1066
  176SAPS  H12X20124   2.895   4.162   3.725 -0.7846 -0.3923 -2.1138
  176SAPS  H12Y20125   3.053   4.261   3.698  0.4443 -0.6228  0.5870
  176SAPS  C31320126   3.077   4.085   3.805  0.3392 -0.1191  0.0337
  176SAPS  H13X20127   3.064   4.130   3.906 -0.5749 -0.3703  0.0433
  176SAPS  H13Y20128   3.184   4.105   3.786  0.2176  0.4101 -0.1257
  176SAPS  C31420129   3.054   3.936   3.824 -0.7473 -0.9379  0.4273
  176SAPS  H14X20130   3.117   3.899   3.908 -0.2058 -0.4674  0.2334
  176SAPS  H14Y20131   3.077   3.891   3.725  1.0121  3.4818 -1.3974
  176SAPS  C31520132   2.909   3.901   3.867  0.1352 -0.2487  0.6450
  176SAPS  H15X20133   2.836   3.919   3.784  2.1635 -2.8778 -1.9396
  176SAPS  H15Y20134   2.877   3.961   3.955 -1.1635 -1.2875  0.9199
  176SAPS  C31620135   2.893   3.761   3.921 -0.3508 -0.2841  0.3699
  176SAPS  H16X20136   2.942   3.753   4.020  1.4774 -2.2173 -0.6021
  176SAPS  H16Y20137   2.949   3.694   3.853  0.9650  1.0771  0.0482
  176SAPS  C31720138   2.750   3.712   3.930 -0.0392  0.3160 -0.2287
  176SAPS  H17X20139   2.742   3.610   3.972 -2.0973  0.3212 -0.4696
  176SAPS  H17Y20140   2.709   3.693   3.829  0.7963 -0.1370 -0.4859
  176SAPS  C31820141   2.657   3.802   4.014  0.3143  0.3860 -0.5314
  176SAPS  H18X20142   2.701   3.830   4.112  0.7837 -1.7289 -0.1022
  176SAPS  H18Y20143   2.557   3.756   4.031  0.7237  0.5130  2.6971
  176SAPS  H18Z20144   2.634   3.896   3.959 -2.0257 -0.7086 -1.5822
  177SAPS     N20145   2.805   3.859   1.918  0.1306  0.3801  0.4999
  177SAPS   HN120146   2.738   3.886   1.843  1.7853 -3.0762 -2.5549
  177SAPS   HN220147   2.775   3.769   1.961  0.7065 -0.2088 -0.2917
  177SAPS   HN320148   2.798   3.927   1.996 -0.8457  2.7228 -1.4833
  177SAPS   C1220149   2.941   3.845   1.862  0.4526  1.0185  0.0240
  177SAPS  H12A20150   2.918   3.802   1.765 -1.2427  1.0930  0.3628
  177SAPS   C1320151   3.012   3.977   1.841  0.0198 -0.0380 -0.0581
  177SAPS  O13A20152   2.956   4.085   1.866  0.0778 -0.1374  0.2290
  177SAPS  O13B20153   3.127   3.972   1.791 -0.1932  0.0442  0.1789
  177SAPS   C1120154   3.036   3.763   1.950 -1.0235 -0.3947 -0.5194
  177SAPS  H11A20155   3.030   3.822   2.045 -0.4148  1.9520 -1.8481
  177SAPS  H11B20156   3.135   3.754   1.903 -1.2679 -1.1190 -0.8977
  177SAPS     P20157   3.064   3.518   2.023 -0.0029  0.2963  0.3914
  177SAPS   O1320158   2.991   3.402   1.966  0.4436  0.3362  0.0148
  177SAPS   O1420159   3.202   3.533   1.992 -0.3534  0.7238 -0.4616
  177SAPS   O1220160   2.979   3.635   1.970 -0.1440  0.0597 -0.2492
  177SAPS   O1120161   3.039   3.521   2.174 -0.3413 -0.0394 -0.7949
  177SAPS    C120162   3.133   3.582   2.270 -0.0987  0.1061  0.3481
  177SAPS    HA20163   3.218   3.632   2.220 -1.7263  1.6665 -0.9687
  177SAPS    HB20164   3.086   3.662   2.330 -1.5459 -0.1865 -0.3486
  177SAPS    C220165   3.200   3.476   2.367 -0.1782  0.3306  0.4682
  177SAPS    HS20166   3.251   3.398   2.306  1.0059  0.2168  1.5525
  177SAPS   O2120167   3.096   3.433   2.457 -0.1897  0.5392 -0.0170
  177SAPS   C2120168   3.106   3.318   2.511  0.3958 -0.0790  0.0873
  177SAPS   O2220169   3.196   3.232   2.494  0.2689 -0.1883  0.0433
  177SAPS   C2220170   2.996   3.298   2.607  0.0931 -0.3540 -1.3765
  177SAPS   H2R20171   3.010   3.333   2.712 -2.0561  3.2915 -2.1118
  177SAPS   H2S20172   2.914   3.354   2.557 -0.6973 -1.8890 -1.8587
  177SAPS    C320173   3.318   3.539   2.451  0.0826 -0.4580  0.1111
  177SAPS    HX20174   3.283   3.639   2.483  1.0910 -0.0664  0.0348
  177SAPS    HY20175   3.405   3.563   2.386  0.7412 -0.8934  0.8040
  177SAPS   O3120176   3.372   3.455   2.556  0.3696  0.1627 -0.4431
  177SAPS   C3120177   3.465   3.511   2.633 -0.3003 -0.9738  0.7241
  177SAPS   O3220178   3.517   3.623   2.607  0.4044  0.6812 -0.2487
  177SAPS   C3220179   3.506   3.411   2.737  0.4058  0.0326  0.8912
  177SAPS   H2X20180   3.596   3.358   2.699 -0.4207  0.5563 -2.0269
  177SAPS   H2Y20181   3.420   3.342   2.751  1.5831 -1.3846  1.3743
  177SAPS   C2320182   2.942   3.149   2.597  0.7809 -0.4260 -0.0920
  177SAPS   H3R20183   2.931   3.117   2.492 -2.5201 -2.7206  0.7835
  177SAPS   H3S20184   2.838   3.147   2.636  0.5656  0.2473 -0.6246
  177SAPS   C2420185   3.015   3.040   2.674  0.7897 -0.3949 -0.5203
  177SAPS   H4R20186   3.040   3.073   2.777 -2.9300 -0.5488  0.5630
  177SAPS   H4S20187   3.111   3.021   2.621  0.5333 -0.0168 -1.1320
  177SAPS   C2520188   2.937   2.909   2.678 -0.5479 -1.1820  0.6893
  177SAPS   H5R20189   2.884   2.896   2.583  0.9139 -0.7103 -0.2310
  177SAPS   C2620190   2.916   2.822   2.781 -0.6109 -0.1954  0.3918
  177SAPS   H6R20191   2.870   2.723   2.763  0.4742 -0.5658 -0.4442
  177SAPS   C2720192   2.989   2.825   2.911  0.2118  0.2396  0.2520
  177SAPS   H7R20193   3.087   2.871   2.884 -0.5148  1.7769  0.0905
  177SAPS   H7S20194   3.004   2.720   2.943  1.5311 -0.9124 -3.5362
  177SAPS   C2820195   2.936   2.920   3.016 -0.0434  0.3561 -0.2070
  177SAPS   H8R20196   2.898   3.016   2.978 -1.5260 -0.2269 -0.2426
  177SAPS   C2920197   2.925   2.891   3.147  0.1002  0.7471 -0.2490
  177SAPS   H9R20198   2.879   2.959   3.221  0.5815  0.7836  0.0195
  177SAPS  C21020199   2.979   2.772   3.222  0.3645  1.3103 -0.1487
  177SAPS  H10R20200   2.973   2.690   3.147  0.6637  1.4131 -0.2848
  177SAPS  H10S20201   2.904   2.750   3.301 -1.3137 -2.7470 -2.5768
  177SAPS  C21120202   3.111   2.785   3.284  0.3344  0.4264 -0.4201
  177SAPS  H11R20203   3.190   2.810   3.212  1.0420 -0.3908  0.0568
  177SAPS  C21220204   3.143   2.781   3.414 -0.2716  0.1850 -0.3014
  177SAPS  H12R20205   3.246   2.806   3.443 -0.3288 -0.6373  0.6779
  177SAPS  C21320206   3.051   2.750   3.529  0.1868 -0.2895  0.8946
  177SAPS  H13R20207   3.113   2.711   3.612  2.0010  3.5261  1.5355
  177SAPS  H13S20208   3.001   2.655   3.501  0.7139  0.4093 -2.9950
  177SAPS  C21420209   2.962   2.855   3.583 -0.7538 -0.3814 -0.3976
  177SAPS  H14R20210   2.882   2.898   3.522 -2.1028 -1.0648  0.8477
  177SAPS  C21520211   2.977   2.908   3.709  0.1813  0.1019  0.5347
  177SAPS  H15R20212   2.905   2.980   3.750 -1.4120  0.4319 -2.5072
  177SAPS  C21620213   3.090   2.866   3.803 -0.0111 -0.1024 -0.0550
  177SAPS  H16R20214   3.090   2.755   3.798  0.4654 -0.0514 -2.5475
  177SAPS  H16S20215   3.067   2.906   3.904  1.2925 -0.3386  0.3546
  177SAPS  C21720216   3.223   2.924   3.768 -0.4354 -0.2968  0.8876
  177SAPS  H17R20217   3.222   3.035   3.777 -1.2764 -0.1348 -0.8372
  177SAPS  H17S20218   3.240   2.886   3.665  0.4536 -1.2846  1.3847
  177SAPS  C21820219   3.323   2.863   3.865  0.0518 -0.4625 -0.5535
  177SAPS  H18R20220   3.320   2.753   3.845 -0.9502 -0.7222  0.8724
  177SAPS  H18S20221   3.309   2.881   3.974  0.4458 -0.2298 -0.5387
  177SAPS  C21920222   3.471   2.908   3.852 -0.1182  0.3586 -0.6660
  177SAPS  H19R20223   3.481   3.018   3.868 -1.6355  0.4379 -0.1031
  177SAPS  H19S20224   3.505   2.888   3.748 -0.4801 -0.0197 -0.7117
  177SAPS  C22020225   3.562   2.839   3.956  0.1745 -0.1847  0.1594
  177SAPS  H20R20226   3.668   2.831   3.923  0.9045  0.3251  2.2007
  177SAPS  H20S20227   3.519   2.739   3.976  0.4954 -0.9006 -2.3728
  177SAPS  H20T20228   3.558   2.894   4.053 -1.2049 -0.9501  0.5642
  177SAPS   C3320229   3.541   3.481   2.873 -0.2741  0.4678  0.6264
  177SAPS   H3X20230   3.447   3.529   2.906  0.3824  0.5542  2.4784
  177SAPS   H3Y20231   3.619   3.558   2.854 -0.4621 -0.0290 -2.9419
  177SAPS   C3420232   3.583   3.383   2.990  0.4064  0.0386 -0.0509
  177SAPS   H4X20233   3.664   3.310   2.968 -1.0120 -1.3497 -0.8794
  177SAPS   H4Y20234   3.499   3.311   3.004 -0.4586  1.3330  1.9087
  177SAPS   C3520235   3.604   3.453   3.126  0.3945 -0.1244 -0.4971
  177SAPS   H5X20236   3.529   3.531   3.154  1.3185 -0.2081  2.6021
  177SAPS   H5Y20237   3.698   3.512   3.120 -0.6120  1.5269 -0.6099
  177SAPS   C3620238   3.609   3.355   3.242 -0.4220  0.9573 -0.0173
  177SAPS   H6X20239   3.693   3.285   3.222 -0.4489  0.5701  1.1346
  177SAPS   H6Y20240   3.522   3.286   3.248  2.0365 -2.3428  0.7729
  177SAPS   C3720241   3.628   3.434   3.370  0.0440 -0.0907  0.8729
  177SAPS   H7X20242   3.540   3.501   3.385  1.4380  2.4677 -1.4477
  177SAPS   H7Y20243   3.720   3.493   3.352  0.2985 -1.2925 -2.4723
  177SAPS   C3820244   3.641   3.347   3.491 -0.0412  0.0195  0.6786
  177SAPS   H8X20245   3.740   3.300   3.478 -0.6729 -1.4578  0.9538
  177SAPS   H8Y20246   3.564   3.266   3.492 -1.2200  1.0451 -0.7424
  177SAPS   C3920247   3.648   3.418   3.622  1.0170  0.4143 -0.2724
  177SAPS   H9X20248   3.548   3.467   3.621  0.6841 -0.2564  0.0708
  177SAPS   H9Y20249   3.726   3.497   3.626 -0.6772  2.0927  1.8065
  177SAPS  C31020250   3.653   3.321   3.734 -0.1725  0.7161 -0.5284
  177SAPS  H10X20251   3.748   3.264   3.719  0.2102  1.3497 -0.5201
  177SAPS  H10Y20252   3.571   3.246   3.726 -0.4575  0.8932  0.5975
  177SAPS  C31120253   3.661   3.375   3.877  0.4317 -0.4526 -0.8699
  177SAPS  H11X20254   3.582   3.327   3.939 -1.0972  1.0194 -1.5923
  177SAPS  H11Y20255   3.646   3.485   3.884  2.3149 -0.2729  1.7522
  177SAPS  C31220256   3.801   3.367   3.953 -0.3000 -0.1828  0.0992
  177SAPS  H12X20257   3.874   3.433   3.901  0.2877 -1.5306 -0.8382
  177SAPS  H12Y20258   3.837   3.264   3.936  0.6529  0.2087 -0.3188
  177SAPS  C31320259   3.813   3.400   4.105  0.2463  0.1564  0.3594
  177SAPS  H13X20260   3.744   3.340   4.168  1.3689  0.8582  2.3171
  177SAPS  H13Y20261   3.790   3.508   4.120  1.1091  0.1499  1.9200
  177SAPS  C31420262   3.956   3.377   4.157 -0.8400 -0.6338  0.2920
  177SAPS  H14X20263   3.949   3.427   4.257 -0.2630  1.4339 -0.6494
  177SAPS  H14Y20264   4.029   3.433   4.096  0.7713 -2.5974  0.2987
  177SAPS  C31520265   4.006   3.233   4.184  0.2527 -0.0159 -0.3749
  177SAPS  H15X20266   4.110   3.246   4.223  0.0869 -1.8248  0.8135
  177SAPS  H15Y20267   4.003   3.174   4.090 -1.6857  1.5586 -1.3641
  177SAPS  C31620268   3.915   3.159   4.285 -0.0783  0.5112  0.4233
  177SAPS  H16X20269   3.811   3.147   4.249  0.0857 -1.4874  0.5031
  177SAPS  H16Y20270   3.914   3.211   4.384 -0.0216  0.8543  0.2439
  177SAPS  C31720271   3.956   3.013   4.305  0.1294  0.5904  0.2198
  177SAPS  H17X20272   3.941   2.957   4.210  0.2778  0.2411  0.4000
  177SAPS  H17Y20273   3.900   2.962   4.387 -2.6061 -1.3905 -2.6579
  177SAPS  C31820274   4.113   3.002   4.324  0.3084 -0.1685  0.1314
  177SAPS  H18X20275   4.159   3.048   4.234 -2.6975  1.4218 -0.7555
  177SAPS  H18Y20276   4.152   2.899   4.329  0.9273 -0.0237 -1.1538
  177SAPS  H18Z20277   4.145   3.064   4.410  1.1649 -0.1910 -0.1674
  178SAPS     N20278   1.441   5.222   2.080 -0.0815 -0.5293  0.2258
  178SAPS   HN120279   1.525   5.262   2.127 -0.1827 -1.0569  0.8789
  178SAPS   HN220280   1.362   5.274   2.124 -0.3181 -0.5069 -0.2224
  178SAPS   HN320281   1.433   5.120   2.098 -2.4003 -0.2197  1.3018
  178SAPS   C1220282   1.450   5.246   1.934  0.3448 -0.4971  0.8778
  178SAPS  H12A20283   1.555   5.232   1.913 -0.0860 -1.9955 -0.4965
  178SAPS   C1320284   1.371   5.145   1.847 -0.3562 -0.2702  0.2186
  178SAPS  O13A20285   1.324   5.046   1.914  0.4375  0.7573 -0.5342
  178SAPS  O13B20286   1.355   5.154   1.724  0.1081 -1.1626  0.2381
  178SAPS   C1120287   1.409   5.392   1.912  0.0979  0.1089  0.1555
  178SAPS  H11A20288   1.435   5.423   1.808  0.5264 -1.4452 -0.2226
  178SAPS  H11B20289   1.479   5.462   1.963 -1.0298  2.7881 -1.7024
  178SAPS     P20290   1.227   5.500   2.064 -0.2957  0.1747  0.0345
  178SAPS   O1320291   1.258   5.646   2.049  0.2601  0.3735 -0.3113
  178SAPS   O1420292   1.090   5.453   2.091  0.5096 -0.1987  0.4262
  178SAPS   O1220293   1.272   5.429   1.931 -0.8210  0.1438  0.7537
  178SAPS   O1120294   1.319   5.436   2.175  0.1260 -0.3681 -0.1715
  178SAPS    C120295   1.396   5.515   2.264 -0.0502  0.1239  0.6610
  178SAPS    HA20296   1.464   5.447   2.319  0.6637  1.1317  1.0327
  178SAPS    HB20297   1.462   5.589   2.215  1.3996  0.0169  2.3455
  178SAPS    C220298   1.322   5.580   2.378  0.1545  0.3762  0.1865
  178SAPS    HS20299   1.389   5.576   2.467  0.9445  0.2789 -0.4047
  178SAPS   O2120300   1.193   5.522   2.402 -0.0099 -0.4135 -0.1906
  178SAPS   C2120301   1.195   5.396   2.446 -0.3423  0.3610  0.4814
  178SAPS   O2220302   1.297   5.332   2.475 -0.7397  0.0988  0.1161
  178SAPS   C2220303   1.058   5.330   2.452  0.4361 -0.4081  0.0319
  178SAPS   H2R20304   1.021   5.343   2.348  0.5064  1.0157  0.1692
  178SAPS   H2S20305   1.076   5.221   2.466  2.5173  0.0152  0.9677
  178SAPS    C320306   1.301   5.736   2.358  0.1155  0.4277  0.1720
  178SAPS    HX20307   1.233   5.762   2.274  1.0599  0.4967 -0.5831
  178SAPS    HY20308   1.403   5.758   2.321  0.0336 -1.6116 -1.4143
  178SAPS   O3120309   1.274   5.816   2.482  0.0868  0.0629 -0.0017
  178SAPS   C3120310   1.137   5.829   2.502 -0.0329 -0.4187  0.4214
  178SAPS   O3220311   1.048   5.778   2.432  0.0188 -0.2651  0.0236
  178SAPS   C3220312   1.113   5.910   2.632  0.9892 -0.0482 -0.4659
  178SAPS   H2X20313   1.010   5.897   2.671  1.4067 -2.1767  0.0901
  178SAPS   H2Y20314   1.131   6.014   2.597  0.3483  0.0363 -0.5509
  178SAPS   C2320315   0.970   5.392   2.563 -0.2999  0.0366  0.3973
  178SAPS   H3R20316   0.868   5.350   2.553  0.8085 -3.0383  1.1234
  178SAPS   H3S20317   0.967   5.502   2.545  1.8867  0.3398  1.5242
  178SAPS   C2420318   1.015   5.384   2.710  0.6096  0.0283 -0.2970
  178SAPS   H4R20319   1.125   5.392   2.715  0.6135 -0.4504  0.5700
  178SAPS   H4S20320   0.991   5.285   2.756  0.0524  0.4481  0.3359
  178SAPS   C2520321   0.965   5.492   2.807  0.5689 -0.1131 -0.2836
  178SAPS   H5R20322   0.964   5.595   2.766  1.9936  0.2808  0.5839
  178SAPS   C2620323   0.953   5.490   2.942  1.0826  0.3870 -0.2378
  178SAPS   H6R20324   0.915   5.582   2.990  2.2807  0.7416  0.0615
  178SAPS   C2720325   0.980   5.376   3.032 -0.4294 -0.2597  0.5995
  178SAPS   H7R20326   0.972   5.274   2.988  1.1660 -0.9121  1.7383
  178SAPS   H7S20327   0.910   5.372   3.117 -0.7491 -4.1103  0.3363
  178SAPS   C2820328   1.121   5.388   3.089  0.1008  0.0457 -0.4122
  178SAPS   H8R20329   1.208   5.343   3.039 -0.6143  0.2335 -1.8829
  178SAPS   C2920330   1.139   5.446   3.207 -0.2668  0.4743  0.1807
  178SAPS   H9R20331   1.239   5.449   3.252 -0.1997  4.7380  0.1304
  178SAPS  C21020332   1.026   5.492   3.289 -0.4546  0.2939 -0.6347
  178SAPS  H10R20333   0.953   5.411   3.308  0.4215  0.0069  1.8584
  178SAPS  H10S20334   0.977   5.582   3.245 -1.2761  0.0096 -0.3090
  178SAPS  C21120335   1.068   5.528   3.424  0.1260 -0.4882  0.3059
  178SAPS  H11R20336   1.138   5.613   3.424  0.2360 -0.5410 -1.4192
  178SAPS  C21220337   1.032   5.458   3.537 -0.5543 -0.6329  0.5084
  178SAPS  H12R20338   1.048   5.509   3.633 -3.6762 -0.2036  0.9230
  178SAPS  C21320339   0.955   5.327   3.542 -0.1406  0.1425 -0.0740
  178SAPS  H13R20340   0.962   5.272   3.446  2.5894  0.6295 -0.2482
  178SAPS  H13S20341   0.846   5.329   3.564 -0.4424 -0.2751 -1.4309
  178SAPS  C21420342   1.022   5.232   3.638  0.2336  0.2868 -0.0876
  178SAPS  H14R20343   1.092   5.163   3.589 -3.0524 -1.1866 -3.1869
  178SAPS  C21520344   1.001   5.231   3.768  0.0465  0.9823  0.6688
  178SAPS  H15R20345   1.056   5.149   3.818  0.1110  1.2897  1.1099
  178SAPS  C21620346   0.924   5.322   3.849  0.2605  0.9980 -1.1581
  178SAPS  H16R20347   0.862   5.380   3.777 -0.7652  0.0285 -1.0737
  178SAPS  H16S20348   0.988   5.399   3.899  1.3152 -0.0392 -0.8778
  178SAPS  C21720349   0.832   5.254   3.956  0.3641  0.1602  0.1270
  178SAPS  H17R20350   0.889   5.199   4.034  1.0500  0.0781 -0.4210
  178SAPS  H17S20351   0.761   5.185   3.905 -0.4106 -0.0996  1.5337
  178SAPS  C21820352   0.752   5.353   4.043  0.4138 -0.3880 -0.2553
  178SAPS  H18R20353   0.674   5.295   4.098 -0.0851 -2.2707 -2.7221
  178SAPS  H18S20354   0.698   5.426   3.979  0.0030  0.8272  1.3994
  178SAPS  C21920355   0.830   5.418   4.152  0.7687  0.3469 -0.4232
  178SAPS  H19R20356   0.911   5.478   4.107 -0.1558  2.1874  0.2798
  178SAPS  H19S20357   0.874   5.338   4.215 -1.3587 -0.2950  0.3594
  178SAPS  C22020358   0.739   5.505   4.239  0.4394 -0.0212  0.0075
  178SAPS  H20R20359   0.677   5.577   4.181 -1.3244 -0.5166  1.2018
  178SAPS  H20S20360   0.793   5.559   4.320 -2.0005  1.3164  0.8673
  178SAPS  H20T20361   0.672   5.439   4.297 -0.3149 -0.3936 -1.2430
  178SAPS   C3320362   1.220   5.882   2.751  0.5062  0.1344 -0.2229
  178SAPS   H3X20363   1.329   5.896   2.735  0.6760 -1.6406 -0.7940
  178SAPS   H3Y20364   1.221   5.774   2.777  0.2631  0.3121  0.5522
  178SAPS   C3420365   1.165   5.945   2.880 -0.5161 -1.2392 -0.4606
  178SAPS   H4X20366   1.063   5.907   2.902 -0.3157 -1.5381 -0.0394
  178SAPS   H4Y20367   1.159   6.055   2.863  2.3671 -1.0150 -0.5869
  178SAPS   C3520368   1.251   5.903   3.004  0.1043 -0.0517  0.1578
  178SAPS   H5X20369   1.351   5.948   2.990  0.3691  0.0386  2.1219
  178SAPS   H5Y20370   1.260   5.792   3.007 -0.6290 -0.1283 -0.1366
  178SAPS   C3620371   1.194   5.958   3.133 -0.5164 -0.2553 -0.4072
  178SAPS   H6X20372   1.087   5.929   3.139  0.1341 -2.5591  1.5732
  178SAPS   H6Y20373   1.210   6.068   3.136  2.5328 -0.6159 -0.1870
  178SAPS   C3720374   1.268   5.889   3.254  0.6932 -0.8136 -0.4246
  178SAPS   H7X20375   1.268   5.781   3.227  0.3124 -0.3017 -2.6447
  178SAPS   H7Y20376   1.214   5.914   3.348  0.6719  1.4703 -0.9857
  178SAPS   C3820377   1.410   5.932   3.278 -0.7411  0.1430 -0.2492
  178SAPS   H8X20378   1.416   6.042   3.268  0.3949 -0.1211 -3.7804
  178SAPS   H8Y20379   1.457   5.889   3.187 -0.8423 -2.0819  0.6789
  178SAPS   C3920380   1.467   5.880   3.405  0.3788  0.1940 -1.6289
  178SAPS   H9X20381   1.415   5.783   3.421 -0.1646  0.4692 -1.6782
  178SAPS   H9Y20382   1.430   5.933   3.496 -1.2427  0.2819 -2.3080
  178SAPS  C31020383   1.617   5.880   3.413 -0.3505  0.3982 -0.0706
  178SAPS  H10X20384   1.656   5.983   3.400  2.0547 -0.4019  0.2276
  178SAPS  H10Y20385   1.643   5.828   3.319 -1.0480  0.5095 -0.3346
  178SAPS  C31120386   1.664   5.818   3.544 -0.8966  0.9143  0.4835
  178SAPS  H11X20387   1.774   5.801   3.541 -0.9477 -1.4652  4.4158
  178SAPS  H11Y20388   1.619   5.716   3.532 -0.0896  0.3510  2.0372
  178SAPS  C31220389   1.622   5.868   3.681 -0.3292 -0.0660  0.4653
  178SAPS  H12X20390   1.511   5.875   3.681 -0.3050  0.4998 -0.0611
  178SAPS  H12Y20391   1.657   5.973   3.696 -0.6715 -0.0131  0.9122
  178SAPS  C31320392   1.669   5.787   3.799  0.0601 -0.7941 -0.4140
  178SAPS  H13X20393   1.626   5.835   3.889  0.5959 -0.5974 -0.2551
  178SAPS  H13Y20394   1.780   5.784   3.794  0.1425 -0.0060  0.6368
  178SAPS  C31420395   1.618   5.644   3.806  0.4491  0.7097  0.0558
  178SAPS  H14X20396   1.665   5.601   3.715 -0.8637  3.6362 -2.1546
  178SAPS  H14Y20397   1.509   5.640   3.785  0.7525  1.0814 -1.7619
  178SAPS  C31520398   1.644   5.571   3.945 -0.3991 -0.0296  0.0930
  178SAPS  H15X20399   1.563   5.495   3.959 -0.7042  0.2722 -0.0219
  178SAPS  H15Y20400   1.625   5.652   4.017  1.7373 -1.1514  2.0292
  178SAPS  C31620401   1.781   5.513   3.971 -0.0202 -0.5368 -0.1105
  178SAPS  H16X20402   1.843   5.599   3.937  2.2216 -2.5128 -1.2623
  178SAPS  H16Y20403   1.805   5.418   3.918 -0.4777  0.1178 -1.5561
  178SAPS  C31720404   1.799   5.485   4.122 -0.7512 -0.0744 -0.0333
  178SAPS  H17X20405   1.774   5.383   4.159 -0.6198  0.1882  0.8046
  178SAPS  H17Y20406   1.749   5.564   4.182 -1.2000 -0.0166 -0.4850
  178SAPS  C31820407   1.946   5.506   4.152 -0.3799  0.0428 -0.4361
  178SAPS  H18X20408   1.991   5.594   4.102  0.4120 -0.1054  0.0120
  178SAPS  H18Y20409   1.999   5.417   4.111  0.0350 -0.2804  0.7730
  178SAPS  H18Z20410   1.961   5.506   4.262 -1.1497 -3.9359 -0.1866
  179SAPS     N20411   3.411   0.917   2.218  0.0708 -0.1006 -0.0150
  179SAPS   HN120412   3.445   0.875   2.128 -2.9456 -0.5418 -1.0597
  179SAPS   HN220413   3.481   0.912   2.294 -1.6971 -0.9210  1.6353
  179SAPS   HN320414   3.327   0.864   2.250  0.3819  0.5095  1.9044
  179SAPS   C1220415   3.358   1.055   2.199  0.0804 -0.1343 -0.4952
  179SAPS  H12A20416   3.446   1.116   2.185  0.7710 -1.0554 -0.2668
  179SAPS   C1320417   3.272   1.067   2.075 -0.4288  0.3870  0.4270
  179SAPS  O13A20418   3.267   0.971   1.989 -0.7414  0.3700  0.4727
  179SAPS  O13B20419   3.222   1.179   2.058  0.1824  0.2110 -0.1119
  179SAPS   C1120420   3.290   1.098   2.326  1.0824 -0.2396  1.1650
  179SAPS  H11A20421   3.274   1.208   2.322 -0.4763 -0.4043  1.9727
  179SAPS  H11B20422   3.362   1.087   2.410  0.1808  0.0687  1.9951
  179SAPS     P20423   3.028   1.079   2.358 -0.2294  0.2496  0.1155
  179SAPS   O1320424   3.026   1.230   2.353 -0.0251 -0.2719 -0.2587
  179SAPS   O1420425   2.946   1.017   2.257  0.2784  0.4009  0.5960
  179SAPS   O1220426   3.170   1.017   2.352 -0.1928 -0.1775 -0.6028
  179SAPS   O1120427   2.983   1.027   2.503 -0.5095  0.3106  0.0154
  179SAPS    C120428   3.070   0.991   2.609 -0.3221  0.1988  0.4366
  179SAPS    HA20429   3.158   1.058   2.623 -0.4968  0.7542 -1.0039
  179SAPS    HB20430   3.012   1.001   2.704 -2.4976  1.5351 -0.9597
  179SAPS    C220431   3.117   0.843   2.601 -0.4218 -0.0347 -0.3564
  179SAPS    HS20432   3.157   0.850   2.497 -2.2858 -0.0202 -1.1117
  179SAPS   O2120433   3.003   0.752   2.603  0.0133 -0.0979  1.0743
  179SAPS   C2120434   3.041   0.626   2.564  0.3313 -0.3000  0.4672
  179SAPS   O2220435   3.147   0.607   2.506  0.0218 -0.1114  0.3639
  179SAPS   C2220436   2.939   0.516   2.592  0.0201 -0.7155  0.4344
  179SAPS   H2R20437   2.837   0.555   2.571  0.4931  1.3733  1.7069
  179SAPS   H2S20438   2.958   0.434   2.519 -1.7583 -1.4039  0.7085
  179SAPS    C320439   3.230   0.805   2.694 -0.6644  0.1649 -0.7191
  179SAPS    HX20440   3.322   0.860   2.667 -1.1968  1.5795  0.2419
  179SAPS    HY20441   3.259   0.698   2.685  0.5894  0.4295 -0.0609
  179SAPS   O3120442   3.195   0.822   2.837 -0.2932 -0.2093 -0.1866
  179SAPS   C3120443   3.300   0.806   2.917 -0.0255 -0.2830  0.2925
  179SAPS   O3220444   3.414   0.773   2.885 -0.0034  0.8243  0.1785
  179SAPS   C3220445   3.264   0.851   3.058  0.6216 -0.1608  0.3756
  179SAPS   H2X20446   3.163   0.813   3.087 -0.2390 -0.8688 -3.0327
  179SAPS   H2Y20447   3.261   0.961   3.044  2.6694 -0.1587 -0.3739
  179SAPS   C2320448   2.957   0.456   2.731 -0.6305  0.3148 -0.6249
  179SAPS   H3R20449   2.885   0.373   2.745  0.8315 -0.9126 -0.0042
  179SAPS   H3S20450   2.958   0.519   2.823 -0.0422 -1.3577  0.5790
  179SAPS   C2420451   3.088   0.375   2.753 -0.2405 -0.6931  0.6343
  179SAPS   H4R20452   3.170   0.450   2.752 -0.4703 -0.4356 -1.1410
  179SAPS   H4S20453   3.103   0.313   2.663 -0.0720  2.2192 -1.4804
  179SAPS   C2520454   3.093   0.291   2.879  0.1849 -0.7648  0.0951
  179SAPS   H5R20455   3.063   0.188   2.857 -0.4066  0.0727 -3.6634
  179SAPS   C2620456   3.134   0.329   2.999  0.2008  0.3370 -0.1257
  179SAPS   H6R20457   3.138   0.252   3.077  0.0948  0.3968 -0.0622
  179SAPS   C2720458   3.162   0.471   3.040 -0.2769 -0.3638 -0.1566
  179SAPS   H7R20459   3.088   0.541   2.996  1.3416  1.1523 -0.5746
  179SAPS   H7S20460   3.258   0.503   2.994  0.6524 -1.4109  0.9685
  179SAPS   C2820461   3.168   0.496   3.190  0.1738  0.7811 -0.3176
  179SAPS   H8R20462   3.084   0.549   3.237 -0.8762 -1.4470  0.4793
  179SAPS   C2920463   3.269   0.470   3.278 -0.4434 -0.0860  0.2210
  179SAPS   H9R20464   3.261   0.478   3.387 -1.0161 -4.4593  0.6929
  179SAPS  C21020465   3.398   0.400   3.234 -0.5687 -0.3570  0.0230
  179SAPS  H10R20466   3.403   0.381   3.125  0.8524 -2.2180  0.3535
  179SAPS  H10S20467   3.395   0.300   3.282 -2.1555 -0.3455 -0.0041
  179SAPS  C21120468   3.519   0.482   3.268 -0.5341  0.1191 -0.0216
  179SAPS  H11R20469   3.532   0.579   3.218  2.7270  0.4929  1.2933
  179SAPS  C21220470   3.620   0.456   3.349 -0.3291  0.4054 -0.2964
  179SAPS  H12R20471   3.691   0.537   3.366  0.4457 -0.5155  1.0186
  179SAPS  C21320472   3.624   0.335   3.443  0.2754  0.5466  0.4755
  179SAPS  H13R20473   3.593   0.240   3.394  1.5323  0.2320  0.2432
  179SAPS  H13S20474   3.546   0.365   3.515 -1.3172  0.1988 -1.0352
  179SAPS  C21420475   3.769   0.329   3.497 -0.6432 -0.1827  0.3919
  179SAPS  H14R20476   3.843   0.318   3.417 -0.3815  1.3731  0.3855
  179SAPS  C21520477   3.807   0.348   3.627 -0.0974 -0.6254 -0.2815
  179SAPS  H15R20478   3.909   0.325   3.659 -1.0967 -1.3025  2.7414
  179SAPS  C21620479   3.712   0.353   3.747 -1.0193 -0.4305  0.2827
  179SAPS  H16R20480   3.632   0.423   3.715 -1.6557 -2.2720 -2.4914
  179SAPS  H16S20481   3.759   0.404   3.834  0.6524  0.1103 -0.8772
  179SAPS  C21720482   3.653   0.221   3.799 -0.5360  1.0999 -0.4011
  179SAPS  H17R20483   3.651   0.149   3.715  1.0780  1.6883 -0.9850
  179SAPS  H17S20484   3.548   0.244   3.824 -1.2768  1.2830 -3.3558
  179SAPS  C21820485   3.728   0.167   3.924 -0.0441 -0.4050  0.0303
  179SAPS  H18R20486   3.837   0.154   3.906  0.0657 -2.7044  1.8512
  179SAPS  H18S20487   3.688   0.066   3.949 -1.2950  0.2224  0.6580
  179SAPS  C21920488   3.706   0.250   4.055  0.3579 -0.0802  0.3767
  179SAPS  H19R20489   3.595   0.258   4.054  0.2672 -1.0533  1.1068
  179SAPS  H19S20490   3.748   0.352   4.043  0.7385  0.0012  2.1069
  179SAPS  C22020491   3.756   0.182   4.187  0.3600 -0.3738 -0.2377
  179SAPS  H20R20492   3.727   0.249   4.271  0.2511 -1.4704  0.6175
  179SAPS  H20S20493   3.867   0.172   4.191  0.4669  0.9196  0.4900
  179SAPS  H20T20494   3.710   0.082   4.194 -0.7809  0.0325 -1.4609
  179SAPS   C3320495   3.375   0.829   3.161  0.1791  0.3612  1.0242
  179SAPS   H3X20496   3.450   0.906   3.135 -0.9533  0.5490 -2.0726
  179SAPS   H3Y20497   3.409   0.723   3.149 -0.6710 -0.1332  2.6563
  179SAPS   C3420498   3.331   0.857   3.303  0.4283 -0.6475  0.9319
  179SAPS   H4X20499   3.244   0.792   3.327 -0.1903 -0.7145 -1.1962
  179SAPS   H4Y20500   3.288   0.959   3.299  0.5135 -0.6372 -0.0945
  179SAPS   C3520501   3.448   0.850   3.397 -0.2379  0.1055  0.0197
  179SAPS   H5X20502   3.516   0.935   3.374  1.7637 -1.4349 -0.0613
  179SAPS   H5Y20503   3.506   0.755   3.401 -2.0250 -1.0177  0.7588
  179SAPS   C3620504   3.416   0.858   3.551  0.2035 -0.6330  0.4264
  179SAPS   H6X20505   3.363   0.951   3.582  0.0740 -0.7233  0.4752
  179SAPS   H6Y20506   3.513   0.861   3.606  1.0839  0.7830 -1.1230
  179SAPS   C3720507   3.337   0.737   3.599  0.0293 -0.4696 -0.6230
  179SAPS   H7X20508   3.388   0.647   3.559  0.6926 -0.6600  0.6045
  179SAPS   H7Y20509   3.232   0.749   3.565 -0.0482  1.3289  0.1204
  179SAPS   C3820510   3.322   0.725   3.753  0.6021  0.7245 -0.8408
  179SAPS   H8X20511   3.277   0.818   3.793 -1.8651 -0.9323  0.4858
  179SAPS   H8Y20512   3.423   0.701   3.794 -0.5503 -2.3121  0.5531
  179SAPS   C3920513   3.214   0.614   3.801  0.2000  0.0222  0.6223
  179SAPS   H9X20514   3.118   0.641   3.753  0.2537 -1.0543 -0.1418
  179SAPS   H9Y20515   3.209   0.637   3.909 -2.0526  0.4404  0.4761
  179SAPS  C31020516   3.263   0.470   3.792  0.1384  0.5250 -0.0459
  179SAPS  H10X20517   3.347   0.458   3.864  0.9551  1.4336 -0.8125
  179SAPS  H10Y20518   3.309   0.471   3.691 -1.4141  1.9172 -0.7957
  179SAPS  C31120519   3.150   0.371   3.809 -0.0330  0.1102 -1.0870
  179SAPS  H11X20520   3.072   0.391   3.732 -2.0112  0.0451  0.7902
  179SAPS  H11Y20521   3.117   0.399   3.912  1.0331 -0.9850 -0.4173
  179SAPS  C31220522   3.204   0.230   3.785 -0.2890  0.1632  0.2725
  179SAPS  H12X20523   3.267   0.243   3.695 -0.8544  0.1100 -0.1362
  179SAPS  H12Y20524   3.112   0.177   3.751 -0.5411  0.8004 -0.0566
  179SAPS  C31320525   3.271   0.154   3.904  0.2917  0.5531  0.6025
  179SAPS  H13X20526   3.374   0.185   3.932  0.8036  0.4300 -1.0056
  179SAPS  H13Y20527   3.287   0.054   3.858  1.1095 -0.0693  2.1678
  179SAPS  C31420528   3.186   0.123   4.028  0.2975 -0.3321 -0.2974
  179SAPS  H14X20529   3.109   0.201   4.040  0.5625 -0.1623  0.2959
  179SAPS  H14Y20530   3.253   0.121   4.117 -0.1775  0.2888  0.0759
  179SAPS  C31520531   3.107  -0.014   4.013 -0.1576  0.2343 -0.1436
  179SAPS  H15X20532   3.188  -0.087   3.989  0.8218  1.7745 -1.7844
  179SAPS  H15Y20533   3.041  -0.001   3.925  1.3634  0.4227 -1.3072
  179SAPS  C31620534   3.034  -0.073   4.137 -0.1756 -0.1661  0.3618
  179SAPS  H16X20535   3.107  -0.105   4.215 -0.7752  1.2750  1.5451
  179SAPS  H16Y20536   2.978  -0.165   4.108  0.7559 -0.4905 -0.4931
  179SAPS  C31720537   2.933   0.027   4.202  0.2483  0.3119 -0.3223
  179SAPS  H17X20538   2.850   0.053   4.134 -0.4219 -2.5814 -0.7317
  179SAPS  H17Y20539   2.988   0.122   4.223  1.3038  0.0542 -1.7938
  179SAPS  C31820540   2.873  -0.012   4.346 -0.0001 -0.1911  0.8385
  179SAPS  H18X20541   2.815   0.070   4.394 -0.4488 -0.2449  0.3996
  179SAPS  H18Y20542   2.953  -0.040   4.417  0.6413  0.1370  0.2500
  179SAPS  H18Z20543   2.798  -0.094   4.333  0.6262 -0.8884  1.5269
  180SAPS     N20544   4.911   5.093   2.268  0.8900  0.0891 -0.5412
  180SAPS   HN120545   4.840   5.116   2.195 -0.0381  1.1158  0.6395
  180SAPS   HN220546   4.877   5.009   2.320 -1.2973 -0.7866 -3.1481
  180SAPS   HN320547   4.911   5.168   2.340 -0.5345 -2.0884  1.9265
  180SAPS   C1220548   5.034   5.075   2.191 -0.2873  0.0406 -0.5087
  180SAPS  H12A20549   5.003   5.028   2.098 -2.6281 -1.7637  1.0808
  180SAPS   C1320550   5.106   5.207   2.168  0.3244  0.7627  0.3738
  180SAPS  O13A20551   5.080   5.304   2.243  0.3325 -0.2254  0.1103
  180SAPS  O13B20552   5.220   5.212   2.102  0.3640  0.0634  0.0970
  180SAPS   C1120553   5.133   4.983   2.273  0.1161  0.1115  0.3342
  180SAPS  H11A20554   5.143   5.013   2.380  0.3052 -2.6587  1.1700
  180SAPS  H11B20555   5.230   4.985   2.218 -0.2229 -0.9414 -0.3272
  180SAPS     P20556   5.024   4.775   2.396  0.0912  0.1486  0.0351
  180SAPS   O1320557   4.897   4.858   2.418  0.1851  0.7995  0.1259
  180SAPS   O1420558   5.009   4.630   2.364  0.5882  0.4083 -0.3408
  180SAPS   O1220559   5.083   4.846   2.275  0.4428 -0.1398  0.2265
  180SAPS   O1120560   5.123   4.796   2.513  0.4680  0.1529  0.3983
  180SAPS    C120561   5.258   4.747   2.524 -0.0015 -0.4766  0.1310
  180SAPS    HA20562   5.255   4.638   2.503 -2.1819  0.0079 -2.7081
  180SAPS    HB20563   5.315   4.787   2.437  0.6538  0.3571  0.9174
  180SAPS    C220564   5.325   4.779   2.662  0.3163 -0.1324  0.3180
  180SAPS    HS20565   5.410   4.711   2.683  0.3988  0.2360  1.2169
  180SAPS   O2120566   5.233   4.769   2.776 -0.3421 -0.1353 -0.0621
  180SAPS   C2120567   5.163   4.662   2.785 -0.2975  0.4094  0.7428
  180SAPS   O2220568   5.178   4.560   2.716  0.6456  0.2505 -0.0879
  180SAPS   C2220569   5.049   4.681   2.886 -0.3552  0.3039 -0.6375
  180SAPS   H2R20570   5.074   4.768   2.951 -2.3421  1.4968 -1.3658
  180SAPS   H2S20571   4.965   4.717   2.823 -0.8803 -1.1990 -0.8387
  180SAPS    C320572   5.395   4.922   2.653  0.1200  0.1164 -0.0265
  180SAPS    HX20573   5.312   4.992   2.627 -0.0019 -0.1442 -0.3517
  180SAPS    HY20574   5.459   4.911   2.563  0.6107 -1.3473  0.4798
  180SAPS   O3120575   5.479   4.959   2.766  0.5621 -0.3274 -0.3015
  180SAPS   C3120576   5.430   5.048   2.842  0.7686 -0.8932 -0.6110
  180SAPS   O3220577   5.316   5.099   2.838 -0.2897 -0.6528 -0.1527
  180SAPS   C3220578   5.532   5.090   2.947  0.1690 -0.5144 -0.2694
  180SAPS   H2X20579   5.551   5.195   2.916 -0.2541 -0.2900  0.2183
  180SAPS   H2Y20580   5.629   5.036   2.935  0.7444 -0.2209  2.5375
  180SAPS   C2320581   5.028   4.555   2.964  0.3347 -0.0306  0.6048
  180SAPS   H3R20582   5.111   4.527   3.032  1.0033  0.6109  0.0562
  180SAPS   H3S20583   4.990   4.485   2.886  0.6399  2.9040 -2.3680
  180SAPS   C2420584   4.897   4.562   3.047  0.1468 -0.5409 -0.5728
  180SAPS   H4R20585   4.873   4.466   3.097 -2.2831  1.4012  2.3967
  180SAPS   H4S20586   4.821   4.580   2.968  0.3068 -0.2901 -0.6723
  180SAPS   C2520587   4.889   4.672   3.154  0.2029 -0.2797  0.3462
  180SAPS   H5R20588   4.911   4.768   3.104  0.2257 -0.9635 -0.9781
  180SAPS   C2620589   4.900   4.664   3.287 -0.3681 -0.5560  0.4008
  180SAPS   H6R20590   4.892   4.758   3.344  1.7430  0.4375 -0.8421
  180SAPS   C2720591   4.891   4.532   3.359 -0.0208 -0.6744  0.4632
  180SAPS   H7R20592   4.978   4.518   3.426  0.5390 -0.1008 -0.1301
  180SAPS   H7S20593   4.906   4.447   3.290 -2.1082 -0.8800  0.1967
  180SAPS   C2820594   4.758   4.507   3.428  0.3617  0.0762 -0.3625
  180SAPS   H8R20595   4.683   4.468   3.358  1.8394  0.9529 -2.5639
  180SAPS   C2920596   4.745   4.503   3.563  0.5146 -0.6072 -0.2228
  180SAPS   H9R20597   4.648   4.471   3.605  0.5748  0.5368  0.8445
  180SAPS  C21020598   4.858   4.533   3.657 -0.8254 -0.3949 -0.6935
  180SAPS  H10R20599   4.944   4.466   3.637 -2.6969 -3.1395 -0.1510
  180SAPS  H10S20600   4.820   4.514   3.760  1.4272  1.4628  0.5791
  180SAPS  C21120601   4.884   4.685   3.659 -0.2259 -0.1776 -0.0809
  180SAPS  H11R20602   4.901   4.737   3.564  1.6453 -0.0774  0.2672
  180SAPS  C21220603   4.892   4.757   3.772 -0.6707 -0.1614  0.6001
  180SAPS  H12R20604   4.902   4.866   3.764  0.7373 -0.2458  0.9684
  180SAPS  C21320605   4.883   4.714   3.920  0.3479  0.5240  0.1272
  180SAPS  H13R20606   4.790   4.656   3.943  1.3279 -0.7107  1.1822
  180SAPS  H13S20607   4.872   4.806   3.981 -0.8063  1.8926 -2.0504
  180SAPS  C21420608   5.003   4.638   3.968  0.1249 -0.7970  0.4541
  180SAPS  H14R20609   5.044   4.576   3.887  0.3630  1.6623 -1.4316
  180SAPS  C21520610   5.063   4.630   4.090  0.3306 -0.3359 -0.2832
  180SAPS  H15R20611   5.146   4.559   4.102  1.1143  0.5220 -0.5402
  180SAPS  C21620612   5.017   4.697   4.225 -0.2293  0.5868  1.0521
  180SAPS  H16R20613   4.920   4.659   4.263 -0.7506  2.4004  1.6583
  180SAPS  H16S20614   4.997   4.806   4.212 -0.4734  0.3201 -1.4508
  180SAPS  C21720615   5.130   4.665   4.331 -0.0653 -0.1771 -0.2420
  180SAPS  H17R20616   5.103   4.732   4.416 -2.1078  0.0910 -1.0313
  180SAPS  H17S20617   5.226   4.700   4.288 -0.6077  0.1383 -1.2324
  180SAPS  C21820618   5.140   4.518   4.382 -0.0828 -0.4790 -0.1250
  180SAPS  H18R20619   5.143   4.456   4.290 -2.2740  1.2078 -1.4530
  180SAPS  H18S20620   5.043   4.490   4.429 -0.5261  1.2743  0.0691
  180SAPS  C21920621   5.252   4.499   4.486 -0.5917 -0.3302 -0.8683
  180SAPS  H19R20622   5.248   4.591   4.549 -0.2044 -1.6404  1.1900
  180SAPS  H19S20623   5.346   4.504   4.428 -0.2649  1.3513 -0.2566
  180SAPS  C22020624   5.221   4.370   4.559  0.2942 -0.0782  1.1363
  180SAPS  H20R20625   5.127   4.382   4.618  0.0219 -1.9452  1.1489
  180SAPS  H20S20626   5.213   4.270   4.511 -2.4628  0.2483  0.7642
  180SAPS  H20T20627   5.307   4.353   4.627  1.2222 -2.6511 -0.5229
  180SAPS   C3320628   5.473   5.071   3.087 -0.4183  1.0380 -0.1514
  180SAPS   H3X20629   5.453   4.962   3.098  1.0874  0.7110 -0.5065
  180SAPS   H3Y20630   5.377   5.127   3.098 -2.0450 -1.0276 -2.6447
  180SAPS   C3420631   5.575   5.100   3.202  0.1251  0.2450  0.4050
  180SAPS   H4X20632   5.585   5.210   3.213  0.3654  0.7870 -3.8334
  180SAPS   H4Y20633   5.669   5.057   3.163 -2.7665 -3.5686 -3.3121
  180SAPS   C3520634   5.546   5.024   3.330 -1.0594 -0.1572 -1.2484
  180SAPS   H5X20635   5.548   4.914   3.312 -0.4247 -0.7962  2.0674
  180SAPS   H5Y20636   5.445   5.041   3.373 -0.1555  0.2929  0.8054
  180SAPS   C3620637   5.642   5.069   3.436 -0.7528 -0.8302  0.1111
  180SAPS   H6X20638   5.616   5.177   3.443  1.9170  0.0516 -1.6392
  180SAPS   H6Y20639   5.743   5.062   3.390  0.4707 -1.7348  2.7244
  180SAPS   C3720640   5.642   4.991   3.568 -0.2434 -0.0537 -0.4045
  180SAPS   H7X20641   5.705   4.900   3.560 -0.7477 -0.4978  0.5755
  180SAPS   H7Y20642   5.538   4.960   3.587 -0.6133  0.5032 -1.4265
  180SAPS   C3820643   5.706   5.068   3.689  0.6810 -0.7119 -0.3179
  180SAPS   H8X20644   5.644   5.158   3.710  0.0533 -0.8366 -1.5831
  180SAPS   H8Y20645   5.804   5.105   3.651  0.2863  3.3550  2.0361
  180SAPS   C3920646   5.739   4.988   3.812 -0.6238  0.6220 -0.3352
  180SAPS   H9X20647   5.789   4.892   3.787 -0.2021  0.3926  1.2716
  180SAPS   H9Y20648   5.641   4.970   3.859 -0.6241  0.3423 -0.4394
  180SAPS  C31020649   5.839   5.049   3.914  0.5314  0.5165 -0.4804
  180SAPS  H10X20650   5.943   5.030   3.881  0.1841 -2.6373  0.0043
  180SAPS  H10Y20651   5.829   4.979   4.000  0.8914  1.2709  0.1897
  180SAPS  C31120652   5.806   5.191   3.946 -0.1217  0.1206  0.4221
  180SAPS  H11X20653   5.695   5.197   3.950 -0.1267  0.0666  0.3417
  180SAPS  H11Y20654   5.852   5.259   3.872 -0.8071  1.5409  1.2479
  180SAPS  C31220655   5.853   5.248   4.086  0.4908  0.2699 -0.3553
  180SAPS  H12X20656   5.962   5.233   4.101  0.3877 -0.8779 -0.6868
  180SAPS  H12Y20657   5.800   5.184   4.160  1.7360  0.2350  0.5362
  180SAPS  C31320658   5.824   5.394   4.122 -0.1959 -0.9743  0.6053
  180SAPS  H13X20659   5.713   5.401   4.121 -0.1893  0.9545  3.2320
  180SAPS  H13Y20660   5.858   5.454   4.034  0.6277 -2.0761  0.1494
  180SAPS  C31420661   5.894   5.441   4.255  0.6765 -0.0971 -0.2311
  180SAPS  H14X20662   6.001   5.413   4.252  0.5905 -0.4262 -0.2316
  180SAPS  H14Y20663   5.849   5.402   4.349 -0.2853  1.8549  0.1788
  180SAPS  C31520664   5.861   5.599   4.274  0.0958  0.4308 -0.7573
  180SAPS  H15X20665   5.873   5.617   4.383 -3.9222 -1.4840  0.1805
  180SAPS  H15Y20666   5.754   5.619   4.253  0.2925  0.7754 -1.4790
  180SAPS  C31620667   5.947   5.685   4.176 -0.5707 -0.4549  0.0007
  180SAPS  H16X20668   5.925   5.649   4.074 -2.4956 -1.3371  0.6770
  180SAPS  H16Y20669   6.055   5.670   4.197  0.3177  1.2730 -2.6958
  180SAPS  C31720670   5.931   5.836   4.188  0.4086 -0.1556 -0.0391
  180SAPS  H17X20671   5.823   5.852   4.211  0.8088  0.4591  1.4486
  180SAPS  H17Y20672   5.966   5.881   4.092  0.6672  0.2920  0.2620
  180SAPS  C31820673   6.004   5.907   4.307  0.1382 -0.0985  0.3466
  180SAPS  H18X20674   6.007   6.018   4.305 -0.1478 -0.0401  1.8275
  180SAPS  H18Y20675   6.110   5.876   4.313  0.2600  0.4448  1.0998
  180SAPS  H18Z20676   5.948   5.871   4.397 -1.6973 -0.2015 -0.7733
  181POPC     N20677   2.144   5.916   6.412  0.0264  0.0065  0.2235
  181POPC   C1220678   2.277   5.839   6.412  0.2917 -0.3628 -0.7898
  181POPC  H12A20679   2.262   5.742   6.366 -0.9817  0.4313 -2.1542
  181POPC  H12B20680   2.294   5.816   6.516 -1.4323  3.0247  0.3876
  181POPC   C1320681   2.094   5.906   6.270  0.0526  0.3023 -1.1641
  181POPC  H13A20682   2.071   5.807   6.232  1.3194  0.4759 -2.4452
  181POPC  H13B20683   1.996   5.949   6.255 -1.1234 -2.0283 -0.6483
  181POPC  H13C20684   2.159   5.951   6.197  1.2808 -0.8448 -0.8124
  181POPC   C1420685   2.048   5.854   6.497 -0.7475  0.5337  0.1541
  181POPC  H14A20686   2.084   5.859   6.598  2.0006 -2.8239 -0.4685
  181POPC  H14B20687   1.951   5.899   6.487 -0.9035  0.0419 -0.6938
  181POPC  H14C20688   2.037   5.748   6.477 -1.0475  0.3757  1.1094
  181POPC   C1520689   2.163   6.058   6.466  0.7796  0.5949  0.2796
  181POPC  H15A20690   2.185   6.061   6.571 -1.2061 -2.6213  0.9125
  181POPC  H15B20691   2.069   6.110   6.457 -1.1711 -2.3637  2.0484
  181POPC  H15C20692   2.249   6.095   6.411  0.3319 -1.3111 -1.8779
  181POPC   C1120693   2.409   5.909   6.350 -0.1373  0.0020 -0.0040
  181POPC  H11A20694   2.392   5.922   6.241  1.4174  3.0943  0.0158
  181POPC  H11B20695   2.488   5.832   6.348 -1.7096 -1.6686 -0.9458
  181POPC     P20696   2.588   6.085   6.455  0.2044  0.0503 -0.0497
  181POPC   O1320697   2.658   5.996   6.554 -0.1622  1.5769  0.2087
  181POPC   O1420698   2.590   6.228   6.482  0.2555 -0.0345 -0.3110
  181POPC   O1220699   2.440   6.037   6.414 -0.2094  0.0390  0.0546
  181POPC   O1120700   2.670   6.066   6.326 -0.6170  0.3022 -0.0602
  181POPC    C120701   2.623   6.133   6.201 -0.4967  0.6005 -0.0553
  181POPC    HA20702   2.654   6.239   6.213 -1.7056  0.8339  1.3728
  181POPC    HB20703   2.512   6.131   6.191 -0.2486 -0.7630 -4.5677
  181POPC    C220704   2.666   6.066   6.071  0.0291  0.1845 -0.3247
  181POPC    HS20705   2.648   5.958   6.091 -2.4662  0.4876 -0.6727
  181POPC   O2120706   2.807   6.097   6.050 -0.0561 -0.3479  0.1680
  181POPC   C2120707   2.873   6.000   5.985  0.0108  0.3581 -0.6230
  181POPC   O2220708   2.823   5.895   5.946 -0.3038  0.6151  0.0589
  181POPC   C2220709   3.017   6.047   5.968  0.5541 -0.3727 -0.7422
  181POPC   H2R20710   3.068   6.013   6.061 -1.8188 -0.9571  0.4189
  181POPC   H2S20711   3.021   6.158   5.964 -0.9819  0.0552  3.5607
  181POPC    C320712   2.582   6.115   5.945 -0.2212 -0.1889 -0.6128
  181POPC    HX20713   2.606   6.223   5.932 -0.4467 -0.0824 -0.1684
  181POPC    HY20714   2.475   6.107   5.975  0.6435  1.1541  3.5162
  181POPC   O3120715   2.598   6.031   5.834  0.2859 -0.2660 -0.0574
  181POPC   C3120716   2.673   6.077   5.738 -0.0478  0.3019 -0.3419
  181POPC   O3220717   2.730   6.183   5.730  0.0548 -0.4611  0.2736
  181POPC   C3220718   2.701   5.969   5.632  0.0737 -0.3239  0.2710
  181POPC   H2X20719   2.608   5.914   5.605 -1.2408  1.0982  1.7122
  181POPC   H2Y20720   2.773   5.899   5.679 -0.8458 -0.2916  1.8144
  181POPC   C2320721   3.099   5.984   5.850  0.7157 -0.0685 -0.1998
  181POPC   H3R20722   3.063   5.881   5.831 -0.3340  0.4075 -0.8878
  181POPC   H3S20723   3.207   5.972   5.874  0.3454 -1.3867  0.9380
  181POPC   C2420724   3.085   6.060   5.722  0.4842 -1.1441  0.4358
  181POPC   H4R20725   3.146   6.153   5.728 -0.3839 -0.5206 -0.0552
  181POPC   H4S20726   2.985   6.100   5.694  1.6869  1.9821  0.2072
  181POPC   C2520727   3.141   5.981   5.609 -0.7147  0.2180  0.1112
  181POPC   H5R20728   3.072   5.894   5.607  0.8930 -1.1132  0.7522
  181POPC   H5S20729   3.241   5.944   5.638 -1.6651 -0.0227  3.4372
  181POPC   C2620730   3.139   6.058   5.473  0.1915 -0.0722  0.3070
  181POPC   H6R20731   3.189   6.157   5.474  0.5079 -0.2148 -0.6128
  181POPC   H6S20732   3.038   6.069   5.428  0.6309  0.7237 -0.5029
  181POPC   C2720733   3.218   5.979   5.370 -0.5107  0.5451 -0.1996
  181POPC   H7R20734   3.155   5.896   5.333 -0.9650  1.0079 -0.4697
  181POPC   H7S20735   3.304   5.917   5.405 -0.2351  1.9627  1.8534
  181POPC   C2820736   3.257   6.070   5.254  0.2356  0.5502 -0.6540
  181POPC   H8R20737   3.327   6.012   5.191  1.4396  0.8874  0.3478
  181POPC   H8S20738   3.315   6.157   5.290  0.8678 -1.1172  2.6732
  181POPC   C2920739   3.136   6.106   5.169 -0.3180 -0.0647  0.4201
  181POPC   H9120740   3.074   6.186   5.212  0.6884  1.3236 -0.5880
  181POPC  C21020741   3.117   6.088   5.033  0.4704 -0.4111  0.1816
  181POPC  H10120742   3.025   6.131   4.990  0.0630 -0.3392  1.1023
  181POPC  C21120743   3.193   6.010   4.934 -0.0753 -0.7831  0.0726
  181POPC  H11R20744   3.273   5.944   4.973  0.8753  0.7749  0.8830
  181POPC  H11S20745   3.239   6.089   4.871 -2.4723  1.7544  1.2537
  181POPC  C21220746   3.105   5.926   4.841  0.5768  0.7323 -0.4018
  181POPC  H12R20747   3.163   5.900   4.750  1.3331 -0.2171  0.3266
  181POPC  H12S20748   3.019   5.985   4.805  0.3738  0.6316 -0.0882
  181POPC  C21320749   3.064   5.794   4.918 -0.0932 -0.3148  0.2843
  181POPC  H13R20750   3.010   5.819   5.012 -0.3085 -1.6071  0.5104
  181POPC  H13S20751   3.151   5.727   4.937  0.2097 -0.4632 -1.5179
  181POPC  C21420752   2.946   5.723   4.845 -0.5045  0.4601 -0.4741
  181POPC  H14R20753   2.854   5.783   4.828  0.2065  1.5899 -0.3982
  181POPC  H14S20754   2.904   5.647   4.915  1.5309  1.3015  1.7410
  181POPC  C21520755   2.987   5.668   4.708 -0.4580 -0.1724 -1.0166
  181POPC  H15R20756   3.063   5.589   4.723 -0.5430  0.1155  1.3326
  181POPC  H15S20757   3.025   5.753   4.648  0.1557  0.4075  0.1612
  181POPC  C21620758   2.872   5.612   4.627  0.2026  0.3872  0.2675
  181POPC  H16R20759   2.916   5.579   4.531  1.4251  1.6384  0.3648
  181POPC  H16S20760   2.806   5.700   4.610 -0.1283  0.0417 -0.2773
  181POPC  C21720761   2.797   5.493   4.695  0.9729  0.2331 -0.2563
  181POPC  H17R20762   2.762   5.527   4.795 -1.6303 -1.8752 -0.3261
  181POPC  H17S20763   2.871   5.414   4.719 -0.4967 -0.5696  1.9842
  181POPC  C21820764   2.661   5.439   4.638 -0.5756  0.4161  0.6052
  181POPC  H18R20765   2.574   5.508   4.639 -1.3277 -0.3649 -2.0502
  181POPC  H18S20766   2.631   5.341   4.681  0.3703 -0.4485 -0.6463
  181POPC  H18T20767   2.673   5.425   4.528 -2.5393  0.2292  0.3648
  181POPC   C3320768   2.761   6.024   5.497  0.2071  0.6501  0.8207
  181POPC   H3X20769   2.817   5.938   5.454  0.2449  1.5554 -1.0593
  181POPC   H3Y20770   2.836   6.104   5.519  0.8550  1.4622 -3.4404
  181POPC   C3420771   2.669   6.072   5.389 -0.7588 -0.3281 -0.2868
  181POPC   H4X20772   2.594   6.135   5.441  1.0170 -0.6779  2.9540
  181POPC   H4Y20773   2.607   5.993   5.342  0.4190 -2.1814  1.1506
  181POPC   C3520774   2.745   6.157   5.286  0.6952  0.6804 -0.0169
  181POPC   H5X20775   2.836   6.096   5.264  0.5998 -0.4818  2.4411
  181POPC   H5Y20776   2.781   6.253   5.328 -0.3818  0.2543  2.0043
  181POPC   C3620777   2.661   6.180   5.161  0.6919 -0.0744  0.0121
  181POPC   H6X20778   2.604   6.275   5.167 -0.4094 -0.6985 -0.3688
  181POPC   H6Y20779   2.582   6.104   5.149 -1.4546  2.0555 -0.1212
  181POPC   C3720780   2.740   6.195   5.033 -0.2651 -0.5224 -0.1325
  181POPC   H7X20781   2.738   6.107   4.965 -1.5174  0.6283 -1.6743
  181POPC   H7Y20782   2.843   6.219   5.066 -0.2962 -1.0005  0.3321
  181POPC   C3820783   2.692   6.313   4.944  0.7732  0.5045 -0.1881
  181POPC   H8X20784   2.708   6.404   5.006 -0.7724  0.0762  0.8999
  181POPC   H8Y20785   2.582   6.322   4.935  0.5232 -1.4217  0.5528
  181POPC   C3920786   2.750   6.333   4.809  0.7719  0.2441  0.1278
  181POPC   H9X20787   2.860   6.316   4.813  0.8056 -0.1732 -1.7255
  181POPC   H9Y20788   2.734   6.434   4.765 -1.6618 -0.4155 -0.6835
  181POPC  C31020789   2.688   6.239   4.703  0.2589 -0.2027 -0.1255
  181POPC  H10X20790   2.711   6.135   4.734 -0.3486  0.0898  1.3658
  181POPC  H10Y20791   2.729   6.253   4.600 -1.6308 -1.5380 -1.1413
  181POPC  C31120792   2.543   6.254   4.658 -0.5721  0.1475 -0.3893
  181POPC  H11X20793   2.518   6.361   4.640  0.7054  0.4809 -0.3235
  181POPC  H11Y20794   2.483   6.223   4.746 -0.7782  1.2570 -0.1319
  181POPC  C31220795   2.512   6.171   4.532 -0.5241 -0.7024  0.3556
  181POPC  H12X20796   2.557   6.223   4.444 -1.5566  0.5064  0.5082
  181POPC  H12Y20797   2.401   6.172   4.524 -0.5208  1.2311 -0.0421
  181POPC  C31320798   2.559   6.029   4.521 -0.0083 -0.0378  0.3022
  181POPC  H13X20799   2.508   5.964   4.596  2.3662  0.3969  2.4383
  181POPC  H13Y20800   2.667   6.027   4.545  0.2284  2.6565 -0.2462
  181POPC  C31420801   2.549   5.970   4.380  0.4304 -0.1321 -0.0342
  181POPC  H14X20802   2.547   6.051   4.304 -2.1599  1.2982  1.4309
  181POPC  H14Y20803   2.444   5.936   4.367  0.1592  0.4467  0.6000
  181POPC  C31520804   2.645   5.853   4.357  0.2558 -0.0307 -0.4384
  181POPC  H15X20805   2.611   5.764   4.415 -1.3426  1.3648  0.8772
  181POPC  H15Y20806   2.748   5.872   4.395  0.9812 -1.4228 -1.5919
  181POPC  C31620807   2.658   5.798   4.212 -0.4443 -0.4510  0.2577
  181POPC  H16X20808   2.562   5.815   4.159 -0.3054  0.6625  0.3378
  181POPC  H16Y20809   2.671   5.688   4.218  2.0317 -0.1690  1.5774
  181POPC  H16Z20810   2.741   5.840   4.151 -0.5093 -0.5152  0.1264
  182POPC     N20811   6.688   5.875   6.633  0.1354  0.1205 -0.3551
  182POPC   C1220812   6.657   5.725   6.604  0.8973  0.8121  0.7912
  182POPC  H12A20813   6.716   5.668   6.674 -0.5755  2.1164  3.2280
  182POPC  H12B20814   6.682   5.708   6.500 -1.5131  2.1808 -0.0876
  182POPC   C1320815   6.839   5.886   6.621  0.1933  0.5641  0.0412
  182POPC  H13A20816   6.877   5.856   6.524 -2.8764 -1.4137 -0.6936
  182POPC  H13B20817   6.858   5.992   6.629 -0.7768  0.7929 -0.5540
  182POPC  H13C20818   6.897   5.835   6.697 -0.7062  0.8922  0.9585
  182POPC   C1420819   6.623   5.964   6.530  0.7829 -0.0483  0.3805
  182POPC  H14A20820   6.653   5.926   6.434 -2.1220  1.9367 -1.4683
  182POPC  H14B20821   6.515   5.955   6.532  0.8257 -0.5260  0.7491
  182POPC  H14C20822   6.641   6.069   6.547  0.1841  0.2468 -0.7299
  182POPC   C1520823   6.644   5.919   6.775 -0.5551  0.0358  1.1290
  182POPC  H15A20824   6.537   5.929   6.777 -0.6875  0.0930 -1.8478
  182POPC  H15B20825   6.691   6.016   6.784  1.6303 -0.2141 -3.8651
  182POPC  H15C20826   6.672   5.853   6.855 -0.6229  1.4170  2.3362
  182POPC   C1120827   6.510   5.682   6.635  0.2621  0.2157 -0.8353
  182POPC  H11A20828   6.439   5.739   6.571  0.4320  1.2149 -0.1581
  182POPC  H11B20829   6.473   5.702   6.738 -0.0649 -1.8406 -0.4986
  182POPC     P20830   6.403   5.483   6.510 -0.0540 -0.2084  0.0334
  182POPC   O1320831   6.272   5.550   6.517  0.4025  0.8495  0.5990
  182POPC   O1420832   6.395   5.333   6.531 -0.0808  0.1882 -0.0163
  182POPC   O1220833   6.502   5.535   6.627  0.5439 -0.6020 -0.0231
  182POPC   O1120834   6.459   5.510   6.366  0.4529  0.2167 -0.3608
  182POPC    C120835   6.577   5.444   6.313  0.6044  0.2515  0.0103
  182POPC    HA20836   6.602   5.359   6.380 -1.7269  0.5700  1.4102
  182POPC    HB20837   6.658   5.520   6.317 -0.0767  1.0183 -0.3594
  182POPC    C220838   6.550   5.398   6.169  0.0610  0.7481 -0.7927
  182POPC    HS20839   6.641   5.342   6.137 -0.8393 -0.7553 -0.8207
  182POPC   O2120840   6.519   5.507   6.082  0.3984 -0.1749 -0.1892
  182POPC   C2120841   6.626   5.561   6.025  0.6261  0.0381 -0.1572
  182POPC   O2220842   6.741   5.523   6.036  0.7944 -0.0910 -0.4741
  182POPC   C2220843   6.574   5.689   5.960 -0.8333  0.1453 -0.6328
  182POPC   H2R20844   6.594   5.773   6.031 -3.5452  0.2362  0.1370
  182POPC   H2S20845   6.464   5.671   5.957 -0.7680 -0.7538  1.2071
  182POPC    C320846   6.430   5.291   6.164  0.0227  0.2930  0.3096
  182POPC    HX20847   6.340   5.356   6.174  0.8803  1.3042  1.8504
  182POPC    HY20848   6.427   5.223   6.252 -0.2631  0.1425  0.1837
  182POPC   O3120849   6.413   5.220   6.033 -0.2980 -0.1301 -0.3900
  182POPC   C3120850   6.471   5.104   6.028  0.2222 -0.2933  0.0017
  182POPC   O3220851   6.569   5.073   6.090  0.0101  0.0920 -0.5181
  182POPC   C3220852   6.390   5.011   5.935 -0.0255 -0.6543 -0.4264
  182POPC   H2X20853   6.299   5.061   5.895 -2.7340 -3.1089  2.2511
  182POPC   H2Y20854   6.371   4.927   6.005  1.8916 -0.8083 -0.0445
  182POPC   C2320855   6.628   5.712   5.818 -0.1885  0.0193  0.2131
  182POPC   H3R20856   6.737   5.697   5.826 -0.2052 -0.0810  0.2453
  182POPC   H3S20857   6.613   5.820   5.796 -1.7964  0.2088  1.9539
  182POPC   C2420858   6.564   5.628   5.705 -0.9282  0.8978 -0.4015
  182POPC   H4R20859   6.457   5.657   5.701 -1.0659  0.7610  1.5577
  182POPC   H4S20860   6.551   5.521   5.731 -1.8161  0.3322 -2.8378
  182POPC   C2520861   6.654   5.634   5.578 -0.2390 -0.6309  0.2463
  182POPC   H5R20862   6.758   5.606   5.605  0.2586  0.8136 -0.0825
  182POPC   H5S20863   6.649   5.741   5.547 -0.3408 -0.5407  0.5689
  182POPC   C2620864   6.613   5.553   5.458  0.0786 -1.0093  0.1378
  182POPC   H6R20865   6.510   5.574   5.421  0.3477 -2.6494 -1.6611
  182POPC   H6S20866   6.620   5.451   5.501  3.9054 -0.1057  2.0400
  182POPC   C2720867   6.707   5.571   5.334 -0.2349  0.2001  0.3951
  182POPC   H7R20868   6.693   5.483   5.267  1.3153  0.3225 -0.1192
  182POPC   H7S20869   6.812   5.580   5.370 -0.0749  2.3322 -0.4836
  182POPC   C2820870   6.685   5.697   5.246  0.6406  0.0083  0.8617
  182POPC   H8R20871   6.676   5.781   5.318  0.1584 -1.8391  3.0806
  182POPC   H8S20872   6.581   5.679   5.211  0.3167  1.5758  0.9441
  182POPC   C2920873   6.774   5.736   5.134  0.0927 -0.3210 -0.3883
  182POPC   H9120874   6.877   5.762   5.165 -0.9911  3.0487  0.7386
  182POPC  C21020875   6.745   5.738   5.007  0.6622  0.1893  0.2043
  182POPC  H10120876   6.828   5.768   4.941 -0.6855  1.9309 -0.7712
  182POPC  C21120877   6.630   5.678   4.935  0.3742  0.3072  0.1754
  182POPC  H11R20878   6.548   5.750   4.917  0.5869  0.0968 -1.9285
  182POPC  H11S20879   6.578   5.599   4.994 -1.3671  0.0448 -1.5980
  182POPC  C21220880   6.661   5.612   4.798  0.5068  0.4518 -0.1769
  182POPC  H12R20881   6.701   5.693   4.733 -0.6082  1.2807  0.1463
  182POPC  H12S20882   6.560   5.584   4.761  0.4830  2.2440 -1.5964
  182POPC  C21320883   6.762   5.494   4.805  0.3573 -0.5441  0.2859
  182POPC  H13R20884   6.728   5.426   4.886  3.0824 -0.6993  1.3731
  182POPC  H13S20885   6.859   5.538   4.837  1.2601 -0.8916 -1.8523
  182POPC  C21420886   6.791   5.416   4.678 -0.3395  0.2891  0.4150
  182POPC  H14R20887   6.693   5.382   4.641  0.2362 -1.4376  0.4225
  182POPC  H14S20888   6.848   5.325   4.707 -2.3067 -1.1361 -0.0840
  182POPC  C21520889   6.863   5.500   4.570  0.7676 -0.2433  0.3008
  182POPC  H15R20890   6.962   5.550   4.583  1.3618 -0.4658 -2.5563
  182POPC  H15S20891   6.784   5.572   4.539 -0.6128 -1.4758  0.8747
  182POPC  C21620892   6.896   5.408   4.452 -0.0963 -0.2499 -0.7520
  182POPC  H16R20893   6.925   5.311   4.497  0.2361 -0.0835 -0.6079
  182POPC  H16S20894   6.972   5.461   4.391  0.7234  1.8357  1.8518
  182POPC  C21720895   6.779   5.383   4.360 -1.0721  0.4093  0.9171
  182POPC  H17R20896   6.722   5.471   4.323  0.0633  0.4192 -0.9932
  182POPC  H17S20897   6.715   5.310   4.413 -0.3818 -1.8922 -1.2214
  182POPC  C21820898   6.822   5.299   4.245  0.1215 -0.4014  0.4062
  182POPC  H18R20899   6.742   5.260   4.179  0.0791  0.2227  0.0776
  182POPC  H18S20900   6.872   5.205   4.275 -1.0883 -2.0473 -2.3611
  182POPC  H18T20901   6.895   5.358   4.185 -0.3616 -0.1788  0.0256
  182POPC   C3320902   6.473   4.964   5.813  0.4485  0.0728 -0.2687
  182POPC   H3X20903   6.408   4.885   5.769 -2.4077  2.1881 -0.1061
  182POPC   H3Y20904   6.560   4.906   5.852 -1.2432 -0.6563  2.7236
  182POPC   C3420905   6.505   5.068   5.709  0.3618 -0.2408  0.4477
  182POPC   H4X20906   6.587   5.135   5.742  0.3654 -0.7887  1.5814
  182POPC   H4Y20907   6.415   5.131   5.696  0.6220  0.0108 -0.2172
  182POPC   C3520908   6.536   5.018   5.572 -0.2394 -0.2532  0.0916
  182POPC   H5X20909   6.463   4.938   5.547  1.3061 -1.3461 -1.1002
  182POPC   H5Y20910   6.636   4.970   5.582 -1.0074 -1.9024  0.2733
  182POPC   C3620911   6.529   5.125   5.454 -0.4324  0.3226  0.1372
  182POPC   H6X20912   6.586   5.217   5.482  0.4223  0.3134 -1.4283
  182POPC   H6Y20913   6.420   5.146   5.447 -0.8872 -1.8731 -0.0137
  182POPC   C3720914   6.576   5.062   5.325  0.1951 -0.0529 -0.8172
  182POPC   H7X20915   6.517   4.971   5.301  0.1339 -0.5631  1.1115
  182POPC   H7Y20916   6.682   5.036   5.347  0.9888  2.9872 -0.5359
  182POPC   C3820917   6.560   5.154   5.206  0.0970  0.3940 -0.5528
  182POPC   H8X20918   6.649   5.218   5.191  0.4894  0.4241  1.6781
  182POPC   H8Y20919   6.484   5.233   5.229  2.5919  2.7947 -0.0256
  182POPC   C3920920   6.537   5.073   5.077 -0.2766  0.7954 -0.3610
  182POPC   H9X20921   6.447   5.010   5.095 -1.0627  1.7660 -0.8051
  182POPC   H9Y20922   6.628   5.009   5.067  0.7281  1.9750  0.9048
  182POPC  C31020923   6.527   5.172   4.960  0.6665 -0.4633 -0.8905
  182POPC  H10X20924   6.610   5.245   4.975 -0.8380  1.2516 -0.5691
  182POPC  H10Y20925   6.433   5.230   4.965  0.1922 -1.1819 -1.4342
  182POPC  C31120926   6.537   5.122   4.816  0.0988  0.2171  0.9842
  182POPC  H11X20927   6.644   5.129   4.789 -0.4113 -0.2024 -1.4493
  182POPC  H11Y20928   6.491   5.194   4.744 -0.9035  2.3494  3.6005
  182POPC  C31220929   6.481   4.983   4.789  0.5280  0.1425  0.6299
  182POPC  H12X20930   6.370   4.986   4.799  0.6106  0.2430  1.6102
  182POPC  H12Y20931   6.516   4.920   4.873  4.2043  0.4501 -0.5055
  182POPC  C31320932   6.534   4.918   4.656  0.4198 -0.7447  0.5978
  182POPC  H13X20933   6.488   4.817   4.660 -0.1613 -0.5174 -0.1476
  182POPC  H13Y20934   6.642   4.894   4.665  0.0533 -2.3491  1.2114
  182POPC  C31420935   6.496   4.977   4.525 -0.1117  0.1789  0.0526
  182POPC  H14X20936   6.565   5.062   4.503 -0.0259  0.1725  0.3001
  182POPC  H14Y20937   6.392   5.015   4.519 -0.7620 -0.9648  2.7830
  182POPC  C31520938   6.524   4.870   4.411 -0.3438 -0.5785  0.7285
  182POPC  H15X20939   6.472   4.777   4.443 -1.6219 -0.1093  0.0629
  182POPC  H15Y20940   6.632   4.844   4.421  0.6362  3.3978  2.3357
  182POPC  C31620941   6.498   4.906   4.260 -0.3805 -0.6098  0.1692
  182POPC  H16X20942   6.530   4.825   4.190 -0.3211 -1.4355  1.1223
  182POPC  H16Y20943   6.556   4.998   4.239  1.8655 -1.1866  3.2094
  182POPC  H16Z20944   6.391   4.935   4.257  0.0555  1.1162  0.5964
  183POPC     N20945   1.348   4.388   6.372 -0.7508  0.4208  0.8518
  183POPC   C1220946   1.338   4.347   6.224 -0.2912 -0.1928 -0.2048
  183POPC  H12A20947   1.431   4.298   6.200 -1.0379 -1.7406 -0.1080
  183POPC  H12B20948   1.328   4.435   6.163 -0.3496  1.1063  1.5961
  183POPC   C1320949   1.408   4.269   6.443  0.4344 -0.2966  0.0412
  183POPC  H13A20950   1.415   4.300   6.546 -1.1959  1.1880 -0.2316
  183POPC  H13B20951   1.351   4.179   6.424  0.4888 -0.4664  0.6639
  183POPC  H13C20952   1.504   4.247   6.400 -0.6711 -0.9331 -2.2741
  183POPC   C1420953   1.449   4.495   6.389 -0.6664  0.1332 -0.3096
  183POPC  H14A20954   1.455   4.519   6.494 -0.2138  0.0165 -0.3043
  183POPC  H14B20955   1.549   4.464   6.360 -1.4708 -2.5657 -0.4600
  183POPC  H14C20956   1.420   4.579   6.328 -1.7154  0.0145  0.0167
  183POPC   C1520957   1.218   4.439   6.429 -0.5602 -0.1538  0.0290
  183POPC  H15A20958   1.230   4.488   6.524 -1.2945  2.8578 -1.2954
  183POPC  H15B20959   1.146   4.359   6.438  0.8851 -1.5172 -0.0775
  183POPC  H15C20960   1.170   4.506   6.359 -0.7356  1.5608  1.7271
  183POPC   C1120961   1.231   4.241   6.194 -0.2034  0.7376 -0.5328
  183POPC  H11A20962   1.201   4.256   6.087 -0.5451  0.2772 -0.5036
  183POPC  H11B20963   1.138   4.263   6.251  1.1231  2.8992  0.9398
  183POPC     P20964   1.217   3.992   6.270 -0.2437 -0.1327  0.5644
  183POPC   O1320965   1.214   4.030   6.416  0.0238 -0.5549  0.8714
  183POPC   O1420966   1.290   3.869   6.232 -0.0318  0.0069  0.4272
  183POPC   O1220967   1.282   4.112   6.189 -0.4054 -0.2245 -0.1856
  183POPC   O1120968   1.062   3.978   6.218 -0.1476  0.2266  0.3233
  183POPC    C120969   1.036   3.970   6.072 -0.5496  0.2616  0.5236
  183POPC    HA20970   1.097   4.045   6.016  0.3821 -0.9056 -0.1003
  183POPC    HB20971   0.931   4.000   6.051 -1.7174 -3.1808  0.8713
  183POPC    C220972   1.047   3.826   6.015 -0.0738  0.0111  0.2118
  183POPC    HS20973   1.153   3.792   6.023  0.0820  0.5597  0.4938
  183POPC   O2120974   1.003   3.820   5.878 -0.0220 -0.3461  0.3834
  183POPC   C2120975   1.082   3.878   5.797 -0.1200  0.3739  0.0274
  183POPC   O2220976   1.187   3.932   5.833 -0.3412 -0.3260  0.3074
  183POPC   C2220977   1.032   3.865   5.657 -0.4395  0.0468 -0.3072
  183POPC   H2R20978   0.936   3.919   5.639 -0.2089  1.1737  1.6149
  183POPC   H2S20979   1.014   3.761   5.623 -0.1737 -0.4596  1.0786
  183POPC    C320980   0.962   3.725   6.099  0.1750 -0.9166  0.0284
  183POPC    HX20981   0.856   3.757   6.103 -0.6552 -3.5331  0.8198
  183POPC    HY20982   0.979   3.725   6.209 -1.5580 -1.1968  0.3220
  183POPC   O3120983   0.969   3.590   6.046  0.1225 -0.1961  0.3633
  183POPC   C3120984   1.083   3.538   6.068 -0.0678 -0.4525  0.5647
  183POPC   O3220985   1.166   3.584   6.144  0.1495 -0.4751  0.7281
  183POPC   C3220986   1.094   3.411   5.984 -0.0816  0.2121 -0.3624
  183POPC   H2X20987   0.996   3.359   5.977 -0.1378  0.4147 -1.1191
  183POPC   H2Y20988   1.174   3.351   6.031 -0.6151 -0.0064  0.2887
  183POPC   C2320989   1.147   3.930   5.568 -0.0295 -0.1497  0.6461
  183POPC   H3R20990   1.239   3.868   5.575 -0.7931 -1.4097  0.0745
  183POPC   H3S20991   1.177   4.032   5.598 -0.2534 -0.3063  1.4364
  183POPC   C2420992   1.107   3.944   5.419  0.0609  0.4697  0.4343
  183POPC   H4R20993   1.187   3.989   5.357  1.0047  0.2130  1.4330
  183POPC   H4S20994   1.021   4.014   5.412  0.7788  1.2283 -1.4571
  183POPC   C2520995   1.052   3.810   5.362 -0.2644 -0.1906  0.3775
  183POPC   H5R20996   0.943   3.797   5.380 -0.4834  2.4347  1.4053
  183POPC   H5S20997   1.108   3.731   5.417  0.7364  0.0748 -0.2393
  183POPC   C2620998   1.092   3.781   5.216 -0.1328  0.5090  0.9284
  183POPC   H6R20999   1.068   3.677   5.187 -3.6355  1.9274 -2.1125
  183POPC   H6S21000   1.203   3.796   5.213 -0.1554  0.8834  1.8613
  183POPC   C2721001   1.025   3.864   5.108  0.1019 -0.1198  0.2750
  183POPC   H7R21002   1.025   3.969   5.144 -1.1502 -0.4240  1.2147
  183POPC   H7S21003   0.915   3.854   5.095  0.0046  2.6036 -1.7046
  183POPC   C2821004   1.085   3.861   4.971 -0.0217  0.5234  0.5240
  183POPC   H8R21005   1.194   3.883   4.976  0.0191  0.2243  0.9663
  183POPC   H8S21006   1.044   3.947   4.914 -1.9429 -0.2072  0.7177
  183POPC   C2921007   1.066   3.733   4.897  0.2943 -0.1901  0.8523
  183POPC   H9121008   1.042   3.643   4.956  1.1572 -0.9600  0.0512
  183POPC  C21021009   1.079   3.727   4.761  0.6513 -0.0242  0.2652
  183POPC  H10121010   1.059   3.632   4.707  2.2549  0.3234 -1.0153
  183POPC  C21121011   1.103   3.847   4.666  0.8747  0.8355  0.2957
  183POPC  H11R21012   1.157   3.812   4.576 -1.3449 -2.2648  0.0117
  183POPC  H11S21013   1.157   3.924   4.725  1.6143 -0.7378  1.7605
  183POPC  C21221014   0.959   3.882   4.620 -0.0674  0.2359 -0.2993
  183POPC  H12R21015   0.897   3.906   4.709  0.9090 -1.3304  0.8587
  183POPC  H12S21016   0.913   3.799   4.562  1.4803  0.4794 -1.9897
  183POPC  C21321017   0.961   4.005   4.529  0.0745  0.2023 -0.8526
  183POPC  H13R21018   1.006   3.961   4.437  0.1416 -1.6601  0.0332
  183POPC  H13S21019   1.027   4.079   4.577  1.9634 -2.5667  1.0981
  183POPC  C21421020   0.819   4.053   4.497  1.4058 -1.6132  0.1103
  183POPC  H14R21021   0.785   4.125   4.575  2.8222  0.3554 -0.9802
  183POPC  H14S21022   0.752   3.966   4.482 -0.0376 -1.0122  2.5474
  183POPC  C21521023   0.813   4.127   4.360  0.1353 -0.5439 -0.2361
  183POPC  H15R21024   0.705   4.141   4.335 -0.6903 -3.2553  1.3511
  183POPC  H15S21025   0.869   4.081   4.275  2.4037 -0.0063  0.9069
  183POPC  C21621026   0.879   4.272   4.360 -0.2925 -0.1806  0.1377
  183POPC  H16R21027   0.985   4.261   4.394 -0.4656  1.7839  1.5191
  183POPC  H16S21028   0.824   4.334   4.434  1.3573 -0.0330  1.3231
  183POPC  C21721029   0.879   4.348   4.228  0.6419 -0.1998 -0.2502
  183POPC  H17R21030   0.776   4.377   4.200  0.5320  2.2755  2.2541
  183POPC  H17S21031   0.918   4.268   4.161  0.6854  1.2884 -2.0916
  183POPC  C21821032   0.967   4.474   4.224 -0.5670 -0.8513  0.5617
  183POPC  H18R21033   0.961   4.525   4.125  1.0064  0.7003  1.2208
  183POPC  H18S21034   1.073   4.450   4.247 -0.1922  1.2176  1.1642
  183POPC  H18T21035   0.930   4.553   4.293 -0.9445  1.6584 -2.2986
  183POPC   C3321036   1.156   3.446   5.843  0.3133 -0.0086 -0.2236
  183POPC   H3X21037   1.250   3.505   5.842  1.0613 -1.1185 -2.0039
  183POPC   H3Y21038   1.083   3.515   5.795 -0.0981 -1.4431 -1.7398
  183POPC   C3421039   1.188   3.328   5.756  1.1809 -1.0505  0.0876
  183POPC   H4X21040   1.248   3.258   5.817  1.5858 -0.9613 -0.1975
  183POPC   H4Y21041   1.250   3.345   5.665  1.6038 -1.4600  0.2980
  183POPC   C3521042   1.075   3.238   5.712 -1.6033 -0.1265 -0.6323
  183POPC   H5X21043   1.005   3.221   5.797 -2.0233 -2.3695 -1.3524
  183POPC   H5Y21044   1.114   3.137   5.686 -0.2909  0.2364 -0.1241
  183POPC   C3621045   0.992   3.299   5.601  0.1514  0.5676  0.3106
  183POPC   H6X21046   0.940   3.389   5.639  1.4475  1.7598 -0.6366
  183POPC   H6Y21047   0.918   3.228   5.560  2.3596 -1.2261 -0.8425
  183POPC   C3721048   1.071   3.331   5.478 -0.4156  0.2969 -0.3858
  183POPC   H7X21049   1.123   3.239   5.444 -0.1438 -0.4477  1.8766
  183POPC   H7Y21050   1.144   3.411   5.505 -2.3623  1.3163  2.3210
  183POPC   C3821051   0.979   3.382   5.370  1.1901  0.3624  0.1091
  183POPC   H8X21052   0.971   3.493   5.378  1.0515  0.3143  0.6782
  183POPC   H8Y21053   0.875   3.342   5.375  1.3965 -0.3240 -0.8228
  183POPC   C3921054   1.020   3.356   5.229 -0.1160  0.3557  0.0183
  183POPC   H9X21055   1.041   3.248   5.220 -3.4720 -0.4572  0.5038
  183POPC   H9Y21056   1.112   3.417   5.219 -0.5749  1.2318  0.8305
  183POPC  C31021057   0.910   3.409   5.139 -0.3406 -0.8602  1.4411
  183POPC  H10X21058   0.916   3.519   5.124  1.5823 -1.0774  0.3443
  183POPC  H10Y21059   0.805   3.381   5.162 -1.4059  1.4531 -0.2015
  183POPC  C31121060   0.942   3.340   4.999 -0.3237 -0.1409  0.0658
  183POPC  H11X21061   0.926   3.232   5.020  1.2034 -0.5239 -0.6204
  183POPC  H11Y21062   1.050   3.352   4.975 -0.3008 -0.8770 -0.2398
  183POPC  C31221063   0.849   3.384   4.888  0.4499  0.7654 -0.0817
  183POPC  H12X21064   0.851   3.495   4.885 -0.5198  0.8937  2.2249
  183POPC  H12Y21065   0.744   3.358   4.913 -0.0605 -0.2473 -2.9285
  183POPC  C31321066   0.870   3.323   4.746  0.2688  0.3648 -0.2159
  183POPC  H13X21067   0.866   3.212   4.755  0.6828  0.0721 -2.9067
  183POPC  H13Y21068   0.972   3.359   4.719  0.9971  2.5556  4.3491
  183POPC  C31421069   0.775   3.381   4.648  0.5506  0.8251 -0.3088
  183POPC  H14X21070   0.677   3.410   4.691 -0.4924  0.1345 -2.1000
  183POPC  H14Y21071   0.756   3.305   4.570 -2.6562  0.1574  0.9694
  183POPC  C31521072   0.826   3.511   4.590  0.3972  0.9943  0.5901
  183POPC  H15X21073   0.924   3.489   4.543  0.1902 -2.0999  1.3561
  183POPC  H15Y21074   0.833   3.577   4.679 -2.3421  1.3744  0.6200
  183POPC  C31621075   0.733   3.581   4.489 -0.4653 -0.6080 -0.1039
  183POPC  H16X21076   0.750   3.691   4.483  1.6027 -0.8819  0.0794
  183POPC  H16Y21077   0.629   3.565   4.524  0.1894 -0.4649  2.0594
  183POPC  H16Z21078   0.760   3.550   4.386  4.7948  0.1821  0.7758
  184POPC     N21079   3.927   3.704   6.785 -0.6605 -0.6160  0.4353
  184POPC   C1221080   3.863   3.836   6.738 -0.0766 -0.3491  0.3402
  184POPC  H12A21081   3.774   3.852   6.797 -0.6267  1.9563 -0.9571
  184POPC  H12B21082   3.832   3.837   6.635 -0.9462 -0.1364  0.5936
  184POPC   C1321083   4.070   3.712   6.741  0.3570 -0.3591  0.6162
  184POPC  H13A21084   4.126   3.630   6.783  1.4369  1.0922  2.2075
  184POPC  H13B21085   4.083   3.707   6.634  2.6415  1.3114  0.7168
  184POPC  H13C21086   4.115   3.804   6.778  0.5360 -0.2435  0.1118
  184POPC   C1421087   3.919   3.693   6.931  0.0143 -0.0149  0.2674
  184POPC  H14A21088   3.814   3.682   6.950 -0.6578  2.8934 -1.1691
  184POPC  H14B21089   3.970   3.607   6.972 -2.5654 -2.4576 -1.2884
  184POPC  H14C21090   3.956   3.787   6.969 -1.0700 -0.2133  1.9012
  184POPC   C1521091   3.860   3.584   6.730 -0.0226  0.7291 -0.2077
  184POPC  H15A21092   3.757   3.575   6.760  0.0732  1.4521  0.3604
  184POPC  H15B21093   3.908   3.496   6.771 -2.0397 -0.5678 -0.5249
  184POPC  H15C21094   3.869   3.582   6.622  0.2093 -3.1541 -0.2623
  184POPC   C1121095   3.957   3.960   6.764  0.5939 -0.3478 -0.4631
  184POPC  H11A21096   4.023   3.949   6.853  2.2513 -1.0671 -1.7311
  184POPC  H11B21097   3.897   4.050   6.789  0.4995 -0.6118  0.2920
  184POPC     P21098   4.127   4.114   6.633 -0.3718  0.3988  0.2044
  184POPC   O1321099   4.164   4.165   6.770  0.4134  0.6017  0.1722
  184POPC   O1421100   4.051   4.212   6.554 -0.4775 -0.3413 -0.0756
  184POPC   O1221101   4.035   3.982   6.641  0.4745  0.7802 -0.4659
  184POPC   O1121102   4.249   4.059   6.543 -0.5820  0.0079  0.0228
  184POPC    C121103   4.338   4.168   6.495 -0.1503  0.4698  0.1249
  184POPC    HA21104   4.444   4.138   6.508 -0.4294  0.0444  1.5892
  184POPC    HB21105   4.337   4.258   6.561 -0.8955 -0.1902  1.0347
  184POPC    C221106   4.308   4.206   6.351 -0.9237 -0.0449 -0.3487
  184POPC    HS21107   4.222   4.277   6.353 -0.6737  0.2487  0.1296
  184POPC   O2121108   4.270   4.086   6.278 -0.7148  0.3848 -0.1606
  184POPC   C2121109   4.178   4.109   6.179  0.0874  0.3032 -0.1365
  184POPC   O2221110   4.119   4.215   6.157 -1.1483  0.0996 -0.3352
  184POPC   C2221111   4.159   3.987   6.088  0.3991  0.2552  0.0340
  184POPC   H2R21112   4.101   3.910   6.143 -0.5206 -0.1172 -1.4007
  184POPC   H2S21113   4.258   3.938   6.088 -0.2407 -1.0984 -0.8073
  184POPC    C321114   4.436   4.276   6.290  0.2000 -0.2149  0.2204
  184POPC    HX21115   4.514   4.198   6.277  0.5891  0.4445 -1.6785
  184POPC    HY21116   4.481   4.347   6.362 -1.4709  0.5139  0.5841
  184POPC   O3121117   4.417   4.333   6.157 -0.3502  0.2291  0.1109
  184POPC   C3121118   4.344   4.440   6.164 -0.2854  0.0750 -0.0338
  184POPC   O3221119   4.311   4.496   6.263  0.2339  0.0540 -0.1981
  184POPC   C3221120   4.323   4.498   6.024  1.0328 -0.1381 -0.1116
  184POPC   H2X21121   4.212   4.502   6.024  1.0687  1.6929 -0.8209
  184POPC   H2Y21122   4.357   4.419   5.955  1.1735 -0.1927  0.0184
  184POPC   C2321123   4.105   4.002   5.939  0.3651 -0.1114  0.4743
  184POPC   H3R21124   4.196   4.045   5.893  0.4971 -1.2264 -0.3630
  184POPC   H3S21125   4.024   4.077   5.933  1.6104  1.2591  0.4281
  184POPC   C2421126   4.061   3.873   5.860 -0.2357  0.0361 -0.5183
  184POPC   H4R21127   3.958   3.831   5.871 -1.3410  2.2820 -1.5210
  184POPC   H4S21128   4.132   3.802   5.906  2.3720  2.0585 -1.2057
  184POPC   C2521129   4.096   3.866   5.714  0.3250  0.4997 -0.3895
  184POPC   H5R21130   4.124   3.764   5.680 -1.1264 -0.9204  2.3929
  184POPC   H5S21131   4.174   3.942   5.693  1.9807 -0.1942  2.6238
  184POPC   C2621132   3.971   3.893   5.627  0.3554 -0.2088 -0.5509
  184POPC   H6R21133   3.943   4.000   5.638  2.7246  0.5340 -1.0756
  184POPC   H6S21134   3.892   3.832   5.676  0.2794  0.2400 -0.1098
  184POPC   C2721135   4.005   3.859   5.482 -0.4694  0.0000  0.3488
  184POPC   H7R21136   4.066   3.768   5.466  0.1528  0.3070  0.8781
  184POPC   H7S21137   4.062   3.950   5.454 -0.9382 -0.2993 -1.7107
  184POPC   C2821138   3.885   3.835   5.387 -0.1793  0.2323  0.0612
  184POPC   H8R21139   3.820   3.746   5.403 -2.0699  1.4333 -0.5201
  184POPC   H8S21140   3.931   3.820   5.287 -0.6366 -0.7715 -0.0103
  184POPC   C2921141   3.803   3.964   5.380 -0.4496  0.3002  0.1954
  184POPC   H9121142   3.759   3.973   5.480  1.2326 -2.4629  1.2957
  184POPC  C21021143   3.803   4.063   5.277 -0.4331 -0.2947 -0.3360
  184POPC  H10121144   3.742   4.154   5.286  0.4691  0.5012 -1.8593
  184POPC  C21121145   3.879   4.057   5.143  0.3453  0.2285 -0.2904
  184POPC  H11R21146   3.979   4.010   5.148  0.1137 -0.3305 -0.7939
  184POPC  H11S21147   3.893   4.165   5.119 -1.3614  0.9729  1.7380
  184POPC  C21221148   3.785   3.988   5.039 -0.5948 -0.0040  0.2795
  184POPC  H12R21149   3.678   4.020   5.046 -0.7914 -0.8109  1.1970
  184POPC  H12S21150   3.793   3.880   5.062  0.0841  0.1572  0.8353
  184POPC  C21321151   3.849   4.000   4.897  0.6195  0.5490  0.0465
  184POPC  H13R21152   3.796   3.923   4.836  0.7555  1.1523 -0.8494
  184POPC  H13S21153   3.954   3.965   4.892  0.5162  0.2108  0.2062
  184POPC  C21421154   3.835   4.133   4.823 -0.3280  0.3568  0.0258
  184POPC  H14R21155   3.918   4.191   4.868 -0.9146  1.8972 -0.8212
  184POPC  H14S21156   3.735   4.176   4.845 -0.6239 -0.5945  0.5864
  184POPC  C21521157   3.848   4.114   4.668  0.3586 -0.6241 -0.7923
  184POPC  H15R21158   3.766   4.042   4.646 -3.2236  3.0078 -0.5080
  184POPC  H15S21159   3.947   4.081   4.630  0.8926  1.5954 -1.4869
  184POPC  C21621160   3.813   4.248   4.602  0.0994 -0.6975 -0.6344
  184POPC  H16R21161   3.887   4.328   4.622 -0.2559 -0.8369  1.4438
  184POPC  H16S21162   3.710   4.284   4.624  0.7303  0.2439  0.9638
  184POPC  C21721163   3.816   4.232   4.446 -0.1265  0.3731 -0.4686
  184POPC  H17R21164   3.916   4.185   4.438 -0.3924 -0.7452  1.8849
  184POPC  H17S21165   3.820   4.331   4.397  0.0706 -0.2617 -1.7676
  184POPC  C21821166   3.709   4.131   4.390 -0.3807 -0.3681  0.1511
  184POPC  H18R21167   3.615   4.170   4.435 -0.9053 -1.5916  0.1465
  184POPC  H18S21168   3.710   4.028   4.430 -1.0874 -0.8653 -1.0712
  184POPC  H18T21169   3.695   4.119   4.280 -0.4801 -2.1378  0.3338
  184POPC   C3321170   4.374   4.649   5.998 -0.5305 -0.2078 -0.0871
  184POPC   H3X21171   4.485   4.637   6.001 -0.7757 -3.7588 -0.8897
  184POPC   H3Y21172   4.347   4.720   6.079  3.0292  0.1343  0.9806
  184POPC   C3421173   4.328   4.692   5.859 -0.1033  0.0905 -0.5682
  184POPC   H4X21174   4.351   4.800   5.864 -0.2370  0.0980  0.0551
  184POPC   H4Y21175   4.218   4.678   5.847 -0.0167 -0.1330 -1.1347
  184POPC   C3521176   4.403   4.627   5.754  0.3208 -0.0496  0.2573
  184POPC   H5X21177   4.379   4.519   5.747 -0.7275  0.2559 -1.4176
  184POPC   H5Y21178   4.510   4.633   5.784 -0.0817 -0.8407  1.9941
  184POPC   C3621179   4.380   4.697   5.628  0.1127  0.6299 -0.3917
  184POPC   H6X21180   4.387   4.804   5.659 -1.2511 -0.3814  4.0419
  184POPC   H6Y21181   4.274   4.680   5.600 -0.0421  0.3430  0.3388
  184POPC   C3721182   4.479   4.669   5.516  0.2129 -0.2852 -1.0386
  184POPC   H7X21183   4.552   4.594   5.553  0.6644  0.4788 -0.3652
  184POPC   H7Y21184   4.533   4.761   5.485 -0.4856  0.0491 -1.2899
  184POPC   C3821185   4.398   4.629   5.392 -0.2187 -0.3482 -0.3519
  184POPC   H8X21186   4.330   4.715   5.375 -0.8815 -0.8452 -0.2156
  184POPC   H8Y21187   4.341   4.536   5.413  1.9513 -1.3927  1.4903
  184POPC   C3921188   4.488   4.610   5.269 -0.5110 -0.5450 -0.3575
  184POPC   H9X21189   4.502   4.502   5.245  2.5419 -0.3622  0.2426
  184POPC   H9Y21190   4.587   4.657   5.285 -0.6042 -0.5950  0.3640
  184POPC  C31021191   4.435   4.680   5.144  0.1373  0.4234  0.3133
  184POPC  H10X21192   4.417   4.789   5.156  1.7024  0.6932  0.3945
  184POPC  H10Y21193   4.339   4.625   5.129 -0.3310  0.7372  1.9195
  184POPC  C31121194   4.516   4.674   5.012 -0.1062 -0.5291 -0.3816
  184POPC  H11X21195   4.541   4.566   5.005  0.8883 -0.3356 -0.0794
  184POPC  H11Y21196   4.606   4.739   5.022 -1.7596  1.6165  1.3718
  184POPC  C31221197   4.436   4.733   4.891  0.3269  0.3038  0.0512
  184POPC  H12X21198   4.378   4.825   4.913 -1.3044 -0.5349 -0.6156
  184POPC  H12Y21199   4.346   4.668   4.878  0.0566  0.1823  2.0826
  184POPC  C31321200   4.520   4.737   4.761  0.0095  0.1287 -0.0157
  184POPC  H13X21201   4.597   4.814   4.778  0.4454  0.2507 -2.2333
  184POPC  H13Y21202   4.450   4.779   4.685  1.8199  0.4323 -1.5733
  184POPC  C31421203   4.580   4.596   4.728 -0.1186  0.1348 -0.1830
  184POPC  H14X21204   4.511   4.511   4.742  1.1534 -1.0408 -0.8405
  184POPC  H14Y21205   4.663   4.577   4.800  0.1464 -0.5130 -0.6548
  184POPC  C31521206   4.621   4.586   4.582 -0.0428 -0.8797  0.3344
  184POPC  H15X21207   4.662   4.686   4.555 -3.2539  1.0023  1.8288
  184POPC  H15Y21208   4.530   4.583   4.519 -0.5269 -0.6863  1.0206
  184POPC  C31621209   4.702   4.462   4.558  0.3978 -0.7785 -0.2799
  184POPC  H16X21210   4.755   4.426   4.649 -0.3710  1.3151  1.0435
  184POPC  H16Y21211   4.769   4.486   4.473  0.6136  3.7535  0.9138
  184POPC  H16Z21212   4.624   4.389   4.528  2.0218 -1.8196 -2.2473
  185POPC     N21213   1.290   1.291   1.805  0.6698  0.5550  0.0989
  185POPC   C1221214   1.406   1.343   1.720  0.5437 -0.9903 -0.9680
  185POPC  H12A21215   1.409   1.451   1.719  0.3272 -0.9724 -0.2325
  185POPC  H12B21216   1.378   1.332   1.616 -0.6080  0.7238 -0.8848
  185POPC   C1321217   1.294   1.138   1.803  0.0343 -0.2060  0.4773
  185POPC  H13A21218   1.211   1.095   1.857 -0.2595  0.8151  0.8606
  185POPC  H13B21219   1.287   1.119   1.697  0.4817 -0.2317  0.4519
  185POPC  H13C21220   1.392   1.102   1.829  1.2507  1.3041 -1.6833
  185POPC   C1421221   1.299   1.341   1.943  0.3396 -0.1464  0.6976
  185POPC  H14A21222   1.296   1.449   1.943 -3.6817 -0.0428 -1.1805
  185POPC  H14B21223   1.218   1.318   2.010  1.4475 -2.5689  1.2883
  185POPC  H14C21224   1.385   1.304   1.996  1.2220 -0.9702 -1.2376
  185POPC   C1521225   1.157   1.328   1.760  0.6655 -0.7579  0.3714
  185POPC  H15A21226   1.077   1.311   1.831  0.3358  1.1086  0.5008
  185POPC  H15B21227   1.132   1.285   1.664 -0.6960  1.4144 -0.3437
  185POPC  H15C21228   1.144   1.427   1.718 -0.5239 -1.4735 -1.0719
  185POPC   C1121229   1.546   1.276   1.741  0.0628  0.1251 -0.0867
  185POPC  H11A21230   1.624   1.339   1.694  0.0907  1.7228  1.9562
  185POPC  H11B21231   1.530   1.180   1.688 -1.0381  0.4347 -0.3418
  185POPC     P21232   1.652   1.126   1.926 -0.3904  0.4226 -0.2577
  185POPC   O1321233   1.777   1.121   1.850  0.1510 -0.3621  0.0210
  185POPC   O1421234   1.562   1.011   1.907  0.2338 -0.0432  0.1994
  185POPC   O1221235   1.580   1.263   1.880 -0.0117 -0.0236  0.5825
  185POPC   O1121236   1.677   1.155   2.081 -0.3140  0.0799 -0.6643
  185POPC    C121237   1.618   1.257   2.157  0.1263  0.0358  0.2790
  185POPC    HA21238   1.527   1.202   2.190 -0.8815  0.6044 -1.4534
  185POPC    HB21239   1.589   1.349   2.102  0.5851 -0.5141 -0.8979
  185POPC    C221240   1.693   1.302   2.272 -0.5204 -0.5630 -0.5142
  185POPC    HS21241   1.778   1.366   2.241  1.6539 -2.9422  0.2204
  185POPC   O2121242   1.760   1.194   2.334 -0.1499  0.1034  0.5686
  185POPC   C2121243   1.873   1.142   2.280  0.3581 -0.0450  0.3719
  185POPC   O2221244   1.935   1.185   2.186  0.4268 -0.3255  0.4298
  185POPC   C2221245   1.918   1.020   2.355  1.1077 -0.7437 -0.2562
  185POPC   H2R21246   1.970   0.965   2.273 -0.0338  1.5696 -2.6923
  185POPC   H2S21247   1.835   0.960   2.397 -0.6423  0.1349 -2.2486
  185POPC    C321248   1.604   1.368   2.387 -0.2119 -0.3158 -0.2846
  185POPC    HX21249   1.516   1.301   2.399  0.5434 -1.5001 -1.0769
  185POPC    HY21250   1.558   1.457   2.339 -1.0471 -0.0596  0.9597
  185POPC   O3121251   1.670   1.394   2.517  0.1459  0.1956  0.3085
  185POPC   C3121252   1.756   1.491   2.508 -0.1247  0.1357 -0.3037
  185POPC   O3221253   1.799   1.551   2.410  0.4948  0.1262 -0.0975
  185POPC   C3221254   1.812   1.519   2.651  0.2797 -0.2855  0.5184
  185POPC   H2X21255   1.922   1.507   2.650  0.3410  0.3099 -0.3672
  185POPC   H2Y21256   1.756   1.458   2.726  1.0032 -0.7671  0.6699
  185POPC   C2321257   2.032   1.059   2.453  0.4988  0.8670  0.1875
  185POPC   H3R21258   2.099   1.134   2.406 -0.9020  0.8500 -1.9277
  185POPC   H3S21259   2.088   0.970   2.490 -2.2657 -1.3971 -0.7065
  185POPC   C2421260   1.969   1.125   2.578 -0.0374  0.2455 -0.1269
  185POPC   H4R21261   1.901   1.051   2.625 -0.1894 -0.2328 -1.0719
  185POPC   H4S21262   1.903   1.208   2.544 -0.0297 -0.1185 -1.0634
  185POPC   C2521263   2.077   1.167   2.671 -0.3611  0.0677  0.5279
  185POPC   H5R21264   2.128   1.247   2.613 -2.6467  3.0084  2.2246
  185POPC   H5S21265   2.144   1.082   2.695 -0.6308 -0.4600 -0.5384
  185POPC   C2621266   2.014   1.233   2.796 -0.7914 -0.1645  0.2706
  185POPC   H6R21267   1.950   1.155   2.842  0.2884 -1.1324  0.1945
  185POPC   H6S21268   1.941   1.311   2.766  0.0404  0.8640  0.8333
  185POPC   C2721269   2.117   1.279   2.900 -0.2722 -0.0971  0.6521
  185POPC   H7R21270   2.160   1.378   2.872  0.7258 -0.6423  0.1949
  185POPC   H7S21271   2.196   1.201   2.894 -0.8927 -0.7254  0.5188
  185POPC   C2821272   2.058   1.286   3.046 -0.2330  0.2694  0.6142
  185POPC   H8R21273   2.138   1.276   3.122  0.3183 -2.7935 -0.2408
  185POPC   H8S21274   2.007   1.187   3.046  0.9632 -0.3872 -0.8103
  185POPC   C2921275   1.964   1.393   3.074 -0.5983  0.3452 -0.3252
  185POPC   H9121276   1.977   1.477   3.004  0.2397  0.9104  0.4929
  185POPC  C21021277   1.848   1.407   3.145 -0.6632 -0.2114  0.4525
  185POPC  H10121278   1.792   1.501   3.151  0.0240  0.2122  0.2759
  185POPC  C21121279   1.788   1.298   3.232 -0.5662 -0.3672  0.3010
  185POPC  H11R21280   1.846   1.205   3.219 -0.5109 -0.1796 -0.8251
  185POPC  H11S21281   1.682   1.275   3.208 -0.5594  0.9835 -1.1837
  185POPC  C21221282   1.790   1.340   3.379 -0.1870  0.8218 -0.1123
  185POPC  H12R21283   1.722   1.425   3.400 -3.1406 -1.7544  1.4637
  185POPC  H12S21284   1.894   1.362   3.412 -0.5718  0.1262  1.6694
  185POPC  C21321285   1.746   1.228   3.478 -0.6355  0.0641 -0.1242
  185POPC  H13R21286   1.795   1.134   3.443  1.0732  0.5120  0.9528
  185POPC  H13S21287   1.636   1.216   3.462 -0.4574  0.0019 -1.4341
  185POPC  C21421288   1.783   1.248   3.620 -0.7013 -0.1706  0.5157
  185POPC  H14R21289   1.739   1.346   3.649 -0.3479  0.8258 -2.1286
  185POPC  H14S21290   1.894   1.249   3.623 -0.7122  1.4565  1.9791
  185POPC  C21521291   1.735   1.138   3.723 -0.0818  0.2568  0.1131
  185POPC  H15R21292   1.778   1.037   3.706 -0.0079  0.6107 -2.1656
  185POPC  H15S21293   1.627   1.117   3.720  0.1732 -0.9937 -1.8389
  185POPC  C21621294   1.787   1.166   3.865  0.2664  0.9925 -0.0156
  185POPC  H16R21295   1.731   1.251   3.909  0.6029  1.2845 -0.1438
  185POPC  H16S21296   1.891   1.205   3.866  0.8514 -0.4901  1.7978
  185POPC  C21721297   1.783   1.046   3.957 -0.4477 -0.1746  0.2728
  185POPC  H17R21298   1.845   0.960   3.925  0.8971  0.9622 -0.2899
  185POPC  H17S21299   1.679   1.009   3.972 -0.8008  0.5501 -0.3250
  185POPC  C21821300   1.840   1.099   4.091 -0.0843 -0.5247 -0.0329
  185POPC  H18R21301   1.854   1.014   4.161 -0.7333 -0.3749  0.2839
  185POPC  H18S21302   1.780   1.179   4.139  1.0558 -0.6230  1.6338
  185POPC  H18T21303   1.939   1.145   4.070  0.7439 -1.3909  1.7949
  185POPC   C3321304   1.764   1.668   2.689 -0.3779  0.3255  0.2040
  185POPC   H3X21305   1.667   1.689   2.640  0.3838  1.5315 -0.8544
  185POPC   H3Y21306   1.839   1.736   2.643  0.5909 -0.8384  0.0015
  185POPC   C3421307   1.763   1.701   2.841  0.0016  0.0908 -0.4356
  185POPC   H4X21308   1.788   1.809   2.853 -0.1885 -0.0451  1.4693
  185POPC   H4Y21309   1.850   1.652   2.889  0.6153  0.8099 -0.7835
  185POPC   C3521310   1.627   1.666   2.910  0.4288  0.5247 -0.0566
  185POPC   H5X21311   1.613   1.556   2.920 -2.5239  0.7579 -0.7222
  185POPC   H5Y21312   1.546   1.696   2.841  0.8661  2.1199  0.0940
  185POPC   C3621313   1.605   1.744   3.037  0.7265  0.3829  0.1334
  185POPC   H6X21314   1.620   1.853   3.022 -1.5920  0.8408  0.8432
  185POPC   H6Y21315   1.682   1.712   3.111 -1.3486 -0.6113  1.9720
  185POPC   C3721316   1.465   1.729   3.105  0.3115 -0.5385  0.1510
  185POPC   H7X21317   1.440   1.621   3.115 -0.5058 -0.4805 -1.0385
  185POPC   H7Y21318   1.380   1.778   3.053 -0.4039  0.8342  2.4842
  185POPC   C3821319   1.481   1.785   3.248 -0.1544  0.4341  0.9820
  185POPC   H8X21320   1.379   1.794   3.291 -0.8759 -1.1907 -0.2906
  185POPC   H8Y21321   1.534   1.882   3.244  1.6409 -0.5201  0.5227
  185POPC   C3921322   1.551   1.685   3.341  0.6652 -0.3834 -0.2840
  185POPC   H9X21323   1.658   1.674   3.312  0.9634  1.1150  0.1590
  185POPC   H9Y21324   1.511   1.583   3.354  0.0421 -0.0980  0.0731
  185POPC  C31021325   1.571   1.745   3.482 -0.1254  0.6985  0.0287
  185POPC  H10X21326   1.477   1.777   3.532 -0.0132 -2.7275  2.8011
  185POPC  H10Y21327   1.640   1.832   3.470 -0.1593  0.6474 -0.5943
  185POPC  C31121328   1.654   1.653   3.570 -0.6536  0.2222 -0.0801
  185POPC  H11X21329   1.757   1.635   3.532  0.1151 -1.0946  2.3996
  185POPC  H11Y21330   1.612   1.551   3.562  0.1964  0.0073 -3.1584
  185POPC  C31221331   1.662   1.695   3.715 -0.8884 -0.0532 -0.4754
  185POPC  H12X21332   1.561   1.671   3.754 -0.0999  0.5237  2.1137
  185POPC  H12Y21333   1.676   1.803   3.739 -0.6515 -0.2689  0.3760
  185POPC  C31321334   1.766   1.614   3.804  0.4528  0.5392  0.1840
  185POPC  H13X21335   1.779   1.514   3.757 -2.2314  0.2524 -0.0975
  185POPC  H13Y21336   1.713   1.597   3.900 -0.1771 -0.3105 -0.3030
  185POPC  C31421337   1.894   1.692   3.812 -0.3701 -0.2882 -0.2296
  185POPC  H14X21338   1.880   1.795   3.850  0.5942  0.1104 -0.9141
  185POPC  H14Y21339   1.935   1.699   3.709  2.8863 -1.7561  0.8442
  185POPC  C31521340   2.002   1.614   3.887 -0.3116  0.0001  0.2216
  185POPC  H15X21341   2.104   1.627   3.846 -0.7346 -0.7515 -1.1051
  185POPC  H15Y21342   1.986   1.505   3.878  1.8055 -0.1965 -2.2340
  185POPC  C31621343   1.992   1.648   4.040 -0.2992  0.0888  0.1227
  185POPC  H16X21344   2.062   1.584   4.097 -1.0948  1.6615  3.0550
  185POPC  H16Y21345   1.890   1.623   4.075  0.1315 -0.0289  1.3369
  185POPC  H16Z21346   2.023   1.751   4.069 -1.1040  0.1841  0.6640
  186POPC     N21347   4.051   3.244   2.035  0.0217 -0.3220  0.0258
  186POPC   C1221348   4.148   3.133   2.002  0.5609  0.2457 -0.2708
  186POPC  H12A21349   4.178   3.143   1.898 -0.8615  0.8058 -0.6419
  186POPC  H12B21350   4.089   3.042   1.997 -1.9044  1.6966  0.7652
  186POPC   C1321351   3.994   3.220   2.166 -0.1330 -0.5059  0.2812
  186POPC  H13A21352   3.930   3.133   2.169 -2.3904  1.0996  0.7122
  186POPC  H13B21353   4.071   3.209   2.241  0.2941 -3.0805 -0.4354
  186POPC  H13C21354   3.935   3.308   2.186 -0.4091 -0.4991 -0.5331
  186POPC   C1421355   4.112   3.379   2.032 -0.1352 -0.3177 -0.3734
  186POPC  H14A21356   4.203   3.379   2.091 -0.0713 -0.4961 -0.4705
  186POPC  H14B21357   4.145   3.389   1.930 -0.2625 -3.0584 -0.7591
  186POPC  H14C21358   4.042   3.448   2.076  0.9003 -0.6489  1.9436
  186POPC   C1521359   3.935   3.250   1.940  0.1388  0.1326  0.1069
  186POPC  H15A21360   3.893   3.151   1.936  0.2895 -0.0518  2.1240
  186POPC  H15B21361   3.968   3.281   1.841 -0.7667  1.6963  0.2579
  186POPC  H15C21362   3.865   3.319   1.983  2.3166  2.3216  0.3867
  186POPC   C1121363   4.263   3.106   2.104  0.3253 -0.1890 -0.7206
  186POPC  H11A21364   4.323   3.016   2.077  1.6901 -0.2134  1.9938
  186POPC  H11B21365   4.232   3.092   2.210  2.8090  0.3416  0.1516
  186POPC     P21366   4.442   3.243   2.222 -0.2067  0.2359  0.2309
  186POPC   O1321367   4.522   3.359   2.189  0.3212  0.3829 -0.2357
  186POPC   O1421368   4.522   3.122   2.236  0.2780 -0.1614  0.2831
  186POPC   O1221369   4.345   3.221   2.103  0.4752  0.2073  0.6520
  186POPC   O1121370   4.361   3.277   2.347  0.2396 -0.4021 -0.8659
  186POPC    C121371   4.271   3.377   2.387  0.1576 -0.1659  0.2222
  186POPC    HA21372   4.240   3.364   2.493  0.3009  0.6898  0.3831
  186POPC    HB21373   4.184   3.385   2.318 -1.5654 -1.4436  2.1202
  186POPC    C221374   4.331   3.525   2.396  0.4532  0.8266 -0.4369
  186POPC    HS21375   4.392   3.549   2.306  1.6105 -0.1235  0.0680
  186POPC   O2121376   4.411   3.516   2.515  0.3567 -0.5363  0.2686
  186POPC   C2121377   4.495   3.611   2.544  0.5313  0.1169 -0.5256
  186POPC   O2221378   4.526   3.707   2.475 -0.1725 -0.3321  0.8197
  186POPC   C2221379   4.545   3.593   2.687  0.1703  0.1659 -0.6304
  186POPC   H2R21380   4.654   3.613   2.690 -0.1468  2.1273  2.4514
  186POPC   H2S21381   4.533   3.494   2.735 -0.3990 -0.5002 -2.0974
  186POPC    C321382   4.205   3.627   2.415  0.3579  0.2108 -0.1163
  186POPC    HX21383   4.158   3.609   2.316  2.6619 -1.5349 -1.0130
  186POPC    HY21384   4.240   3.730   2.434 -2.8372  0.9933  2.1774
  186POPC   O3121385   4.114   3.584   2.519  0.5976 -0.7176 -0.1364
  186POPC   C3121386   4.122   3.671   2.629 -0.2667  0.0032  0.1758
  186POPC   O3221387   4.193   3.766   2.635 -0.1384  0.6947  0.5648
  186POPC   C3221388   4.047   3.606   2.744 -0.6646 -0.2365 -0.3278
  186POPC   H2X21389   4.076   3.499   2.746 -3.9759 -1.2575  0.1109
  186POPC   H2Y21390   3.937   3.618   2.732 -0.6058  1.3379  0.3834
  186POPC   C2321391   4.479   3.710   2.762  0.1174  0.0565 -0.9675
  186POPC   H3R21392   4.369   3.695   2.759 -0.3756  2.1039  1.8161
  186POPC   H3S21393   4.489   3.815   2.726 -1.2610  0.5884  0.0781
  186POPC   C2421394   4.525   3.720   2.908  0.4106  0.6597 -0.8694
  186POPC   H4R21395   4.631   3.754   2.900  0.9160 -0.8738 -0.9947
  186POPC   H4S21396   4.535   3.619   2.954  0.0745  2.0363  2.4824
  186POPC   C2521397   4.442   3.815   2.996  0.0753  0.1445  0.0972
  186POPC   H5R21398   4.332   3.796   2.992 -0.2499  1.7756  0.1985
  186POPC   H5S21399   4.458   3.919   2.959  1.6902  0.0219  0.4142
  186POPC   C2621400   4.486   3.810   3.147 -0.3642  0.0092  0.5252
  186POPC   H6R21401   4.592   3.841   3.159  0.7819 -4.2699  4.4772
  186POPC   H6S21402   4.484   3.703   3.180  0.5222  0.3630  1.8202
  186POPC   C2721403   4.400   3.895   3.231 -0.1234  0.0387  0.2665
  186POPC   H7R21404   4.294   3.865   3.213  0.2150 -0.7969 -0.3731
  186POPC   H7S21405   4.407   4.001   3.197 -0.5810 -0.5028 -1.6809
  186POPC   C2821406   4.438   3.902   3.385  0.5799 -0.0760 -0.1422
  186POPC   H8R21407   4.368   3.976   3.429  1.7236 -0.5309  2.6564
  186POPC   H8S21408   4.538   3.947   3.400  1.8566 -3.1243  1.3679
  186POPC   C2921409   4.420   3.772   3.459  0.5268  0.2025 -0.4031
  186POPC   H9121410   4.344   3.709   3.410  1.4199 -0.8794 -0.4501
  186POPC  C21021411   4.487   3.732   3.561 -0.4325  0.2176  0.0773
  186POPC  H10121412   4.456   3.640   3.613 -0.2553 -1.5112 -2.6449
  186POPC  C21121413   4.604   3.800   3.633 -0.0776  0.1240  0.9436
  186POPC  H11R21414   4.658   3.864   3.560 -2.2445  1.7835  0.7100
  186POPC  H11S21415   4.669   3.715   3.662  0.4802 -0.9537 -2.9925
  186POPC  C21221416   4.553   3.887   3.751  0.0273  0.3795  0.6467
  186POPC  H12R21417   4.634   3.887   3.827 -0.0059 -1.9192  0.7671
  186POPC  H12S21418   4.461   3.848   3.800 -0.6688  0.1731 -0.7595
  186POPC  C21321419   4.522   4.029   3.707 -0.6443  0.6769  0.6688
  186POPC  H13R21420   4.464   4.027   3.613  0.7739 -2.0795 -0.2686
  186POPC  H13S21421   4.624   4.072   3.698 -0.4551 -0.1367 -1.6621
  186POPC  C21421422   4.427   4.105   3.796  0.7592  0.0668 -0.0220
  186POPC  H14R21423   4.445   4.096   3.905  1.1356 -0.8281 -0.1555
  186POPC  H14S21424   4.322   4.071   3.781  0.6276  0.6356 -0.4465
  186POPC  C21521425   4.430   4.256   3.765  0.6478  0.3000  0.4499
  186POPC  H15R21426   4.365   4.281   3.678 -1.1867  2.8551  2.3986
  186POPC  H15S21427   4.529   4.284   3.724 -0.0864  0.7535 -1.1098
  186POPC  C21621428   4.398   4.356   3.883 -0.8858  0.3162  0.5473
  186POPC  H16R21429   4.310   4.319   3.940 -0.5324 -1.1542  0.1748
  186POPC  H16S21430   4.380   4.452   3.831  1.9593  0.7132  0.1285
  186POPC  C21721431   4.530   4.377   3.952 -0.2809 -1.2622 -0.5627
  186POPC  H17R21432   4.603   4.417   3.878 -1.2866 -0.5649 -1.2131
  186POPC  H17S21433   4.563   4.280   3.994  2.0445  0.9717  3.3560
  186POPC  C21821434   4.523   4.482   4.063  0.4914  0.7217  0.3012
  186POPC  H18R21435   4.452   4.435   4.134 -0.2007  0.5375 -0.5098
  186POPC  H18S21436   4.619   4.493   4.119  0.2644 -3.0590  1.7156
  186POPC  H18T21437   4.483   4.581   4.030 -0.7795  1.4289  3.5802
  186POPC   C3321438   4.088   3.658   2.887  0.4093 -0.4948 -0.2561
  186POPC   H3X21439   4.090   3.769   2.895 -1.7484 -0.4905  0.7342
  186POPC   H3Y21440   4.189   3.617   2.906  0.2240  0.0591  2.2973
  186POPC   C3421441   3.994   3.614   3.002  0.6097  0.2626 -0.4890
  186POPC   H4X21442   3.982   3.503   3.002  3.3706 -0.1496  1.1988
  186POPC   H4Y21443   3.891   3.652   2.986  1.5399  2.1241 -2.5303
  186POPC   C3521444   4.065   3.646   3.135 -0.0042 -0.4967  0.6136
  186POPC   H5X21445   4.070   3.757   3.126  0.8585 -0.5222  0.7452
  186POPC   H5Y21446   4.168   3.605   3.141 -0.1366 -1.4781 -2.1488
  186POPC   C3621447   3.986   3.631   3.263 -0.6731 -0.3801 -0.6579
  186POPC   H6X21448   3.973   3.521   3.277  3.1087 -0.9109 -0.0542
  186POPC   H6Y21449   3.890   3.679   3.235 -1.3022 -0.1954  1.6734
  186POPC   C3721450   4.045   3.700   3.383  0.8800 -0.5049  0.2538
  186POPC   H7X21451   4.092   3.794   3.347  0.7632 -0.6270 -0.2187
  186POPC   H7Y21452   4.112   3.628   3.436 -2.0764 -1.0024  3.6747
  186POPC   C3821453   3.943   3.735   3.491  0.1247 -0.3783 -0.0186
  186POPC   H8X21454   3.889   3.645   3.529 -0.4783  1.3584  3.7231
  186POPC   H8Y21455   3.868   3.802   3.446  2.2914  0.9056 -1.9323
  186POPC   C3921456   4.017   3.808   3.610  0.1136  0.3145  0.6550
  186POPC   H9X21457   4.064   3.904   3.581  0.8647 -0.4730 -0.8340
  186POPC   H9Y21458   4.088   3.734   3.653 -1.7634 -2.5822 -0.9358
  186POPC  C31021459   3.901   3.837   3.700  0.7209  0.1439 -0.6385
  186POPC  H10X21460   3.874   3.740   3.746 -0.2888  0.2755 -0.9312
  186POPC  H10Y21461   3.814   3.873   3.641  0.2057  0.0907  0.0897
  186POPC  C31121462   3.935   3.927   3.820  0.2649 -0.5169  0.3264
  186POPC  H11X21463   3.843   3.938   3.881 -0.3038 -1.3981 -0.3568
  186POPC  H11Y21464   3.960   4.029   3.784  0.6506 -0.6760  0.1411
  186POPC  C31221465   4.049   3.874   3.901 -0.1797  0.0436 -0.0908
  186POPC  H12X21466   4.141   3.867   3.839  1.1671 -0.5333  1.8899
  186POPC  H12Y21467   4.020   3.773   3.936 -1.8973  0.6780  0.4228
  186POPC  C31321468   4.086   3.960   4.022 -0.3656  0.3751 -1.0756
  186POPC  H13X21469   3.996   3.971   4.086 -0.4645 -0.4423 -1.0640
  186POPC  H13Y21470   4.126   4.057   3.983  0.7361 -0.0067 -0.9308
  186POPC  C31421471   4.195   3.897   4.109 -0.2965  0.1104 -0.7550
  186POPC  H14X21472   4.284   3.866   4.051  1.1853  1.0570  0.8991
  186POPC  H14Y21473   4.158   3.802   4.154 -1.3424  1.5409  1.5797
  186POPC  C31521474   4.241   3.990   4.222  0.7277  0.2668 -0.1259
  186POPC  H15X21475   4.258   3.930   4.314 -0.0018  1.0265  0.5115
  186POPC  H15Y21476   4.146   4.041   4.247 -0.0733 -1.6654  1.0802
  186POPC  C31621477   4.357   4.085   4.203 -0.4772 -0.3735 -0.1028
  186POPC  H16X21478   4.355   4.157   4.287  0.2399 -2.0748  1.4581
  186POPC  H16Y21479   4.347   4.129   4.102 -2.2151 -0.3737  0.0504
  186POPC  H16Z21480   4.450   4.023   4.208 -0.0967  0.1961  0.0803
  187POPC     N21481   0.369   6.156   2.045  0.5260 -0.5984  0.9056
  187POPC   C1221482   0.283   6.253   2.141 -0.5657 -0.4230 -0.7215
  187POPC  H12A21483   0.342   6.330   2.188 -1.0098 -0.0735 -0.7280
  187POPC  H12B21484   0.243   6.204   2.229 -3.1668  0.4861 -1.2972
  187POPC   C1321485   0.463   6.078   2.128 -0.5722 -0.5210 -0.1047
  187POPC  H13A21486   0.547   6.138   2.158 -1.2909  1.1387 -1.2948
  187POPC  H13B21487   0.415   6.046   2.220 -0.3480  1.1968  0.6511
  187POPC  H13C21488   0.489   5.981   2.087 -2.5347 -0.7700 -0.8952
  187POPC   C1421489   0.271   6.059   1.974 -0.2117 -0.1889  0.4290
  187POPC  H14A21490   0.178   6.107   1.947 -1.4083 -1.9068  1.2875
  187POPC  H14B21491   0.329   6.023   1.891  0.5148  0.0757  0.8110
  187POPC  H14C21492   0.246   5.983   2.047 -0.7891  1.8424  2.4683
  187POPC   C1521493   0.445   6.234   1.943  0.4562 -0.8345  0.3364
  187POPC  H15A21494   0.510   6.309   1.986  0.6919 -1.3367  0.8633
  187POPC  H15B21495   0.388   6.286   1.867  0.3152  1.7937  2.1162
  187POPC  H15C21496   0.513   6.164   1.898  1.6292 -1.0832  2.4094
  187POPC   C1121497   0.173   6.336   2.072  0.1809  0.0140 -0.4187
  187POPC  H11A21498   0.214   6.388   1.983 -0.5964  0.1593 -0.6967
  187POPC  H11B21499   0.148   6.424   2.135  1.0122 -0.6208  0.8456
  187POPC     P21500  -0.027   6.200   2.161 -0.1622 -0.0825 -0.3397
  187POPC   O1321501  -0.102   6.080   2.114 -0.0162 -0.1171  0.1270
  187POPC   O1421502  -0.107   6.316   2.210  0.5953 -0.7128  0.3102
  187POPC   O1221503   0.066   6.249   2.044  0.3543  0.5139 -0.1872
  187POPC   O1121504   0.064   6.156   2.282 -0.2636 -0.3440 -0.3271
  187POPC    C121505   0.066   6.200   2.416  0.7036  0.1226  0.4439
  187POPC    HA21506   0.118   6.298   2.413 -1.6681  1.4476 -0.3986
  187POPC    HB21507   0.123   6.123   2.472  0.8989 -1.3241 -1.6259
  187POPC    C221508  -0.070   6.206   2.487 -0.6557 -0.6679  0.3357
  187POPC    HS21509  -0.138   6.275   2.433  0.7544  0.6680  0.2099
  187POPC   O2121510  -0.021   6.265   2.612  0.6302 -0.2187 -0.3861
  187POPC   C2121511  -0.119   6.303   2.688 -0.9603  0.7316 -0.1354
  187POPC   O2221512  -0.238   6.300   2.670  0.3579 -0.5227  0.9881
  187POPC   C2221513  -0.062   6.381   2.810 -0.1185  0.5455  0.2593
  187POPC   H2R21514  -0.002   6.310   2.872 -1.7183 -0.5233  0.6408
  187POPC   H2S21515  -0.149   6.414   2.871 -0.4671 -2.2842  1.4338
  187POPC    C321516  -0.133   6.065   2.502  0.7875  0.6061 -0.6329
  187POPC    HX21517  -0.164   6.023   2.405  2.8945 -2.9737  0.0475
  187POPC    HY21518  -0.233   6.083   2.548  0.3574  1.7218 -1.9403
  187POPC   O3121519  -0.065   5.978   2.585  0.7338  0.1935  0.2714
  187POPC   C3121520  -0.012   5.866   2.541 -0.6148 -0.0528  0.4892
  187POPC   O3221521  -0.028   5.819   2.427  0.6885  0.5278  0.3258
  187POPC   C3221522   0.086   5.805   2.644 -0.5673  0.7776 -0.2616
  187POPC   H2X21523   0.188   5.847   2.632  0.3179 -1.2776 -0.3401
  187POPC   H2Y21524   0.092   5.695   2.629  1.8619  0.9782 -1.0990
  187POPC   C2321525   0.026   6.504   2.777  0.1493  0.8267 -0.2419
  187POPC   H3R21526  -0.007   6.556   2.685  0.4670 -0.8715 -1.3679
  187POPC   H3S21527   0.129   6.461   2.774 -0.3204 -0.7155  2.5525
  187POPC   C2421528   0.016   6.601   2.895  0.0282 -0.2185  0.1752
  187POPC   H4R21529  -0.087   6.641   2.903  1.2994  3.0583  4.0567
  187POPC   H4S21530   0.087   6.681   2.864  2.1463 -1.6282  1.1426
  187POPC   C2521531   0.056   6.553   3.036 -0.4134 -0.0482  0.4069
  187POPC   H5R21532   0.156   6.507   3.022 -0.6751 -0.4841 -0.0933
  187POPC   H5S21533  -0.007   6.472   3.079  0.8196 -1.2260  0.0843
  187POPC   C2621534   0.084   6.666   3.134  0.2329 -1.0650  0.3513
  187POPC   H6R21535  -0.013   6.720   3.134  0.4707 -0.6290  1.3142
  187POPC   H6S21536   0.153   6.734   3.079 -1.3416 -0.5337 -1.0370
  187POPC   C2721537   0.136   6.609   3.268 -0.1446  0.3185  0.1560
  187POPC   H7R21538   0.167   6.692   3.334  1.6473  0.5574 -0.8968
  187POPC   H7S21539   0.231   6.553   3.250 -0.1441 -0.2642  1.8304
  187POPC   C2821540   0.033   6.526   3.345 -0.1526  0.5902 -0.1287
  187POPC   H8R21541   0.011   6.433   3.289  1.5355  1.8245 -3.0833
  187POPC   H8S21542  -0.067   6.574   3.340 -0.5182  0.4235  3.3306
  187POPC   C2921543   0.067   6.483   3.484  0.1037 -0.4468 -0.2470
  187POPC   H9121544   0.096   6.378   3.502 -1.1555 -0.6611  0.6696
  187POPC  C21021545   0.074   6.569   3.585  0.3893 -0.3639 -0.2758
  187POPC  H10121546   0.094   6.523   3.683  0.5946  2.3312  1.0477
  187POPC  C21121547   0.046   6.716   3.580  0.3887 -1.0163 -0.4241
  187POPC  H11R21548  -0.037   6.746   3.648 -0.0336  1.1111 -1.7955
  187POPC  H11S21549   0.011   6.748   3.480  3.6254  0.1270 -1.3086
  187POPC  C21221550   0.173   6.801   3.608 -0.0399  0.3638  0.3008
  187POPC  H12R21551   0.160   6.889   3.541 -0.7502 -1.9598 -2.8789
  187POPC  H12S21552   0.267   6.751   3.577 -0.0443  0.2371  0.4885
  187POPC  C21321553   0.187   6.833   3.762  1.1220 -0.0724 -0.1449
  187POPC  H13R21554   0.088   6.857   3.806 -0.6637 -0.7949 -3.4573
  187POPC  H13S21555   0.262   6.912   3.783 -1.0629  1.9218  0.6883
  187POPC  C21421556   0.238   6.710   3.850  0.0079  0.6269 -0.0485
  187POPC  H14R21557   0.329   6.679   3.794  1.2881  1.6966  1.3832
  187POPC  H14S21558   0.162   6.630   3.844 -0.3912  1.0408 -0.6829
  187POPC  C21521559   0.276   6.736   3.996 -0.1881  0.0091  0.1696
  187POPC  H15R21560   0.189   6.765   4.059  0.6623  1.9135  0.5199
  187POPC  H15S21561   0.345   6.822   4.005  1.6720 -1.2590 -1.3004
  187POPC  C21621562   0.334   6.604   4.073  0.0874 -0.4556  0.1296
  187POPC  H16R21563   0.268   6.517   4.050 -0.3970  0.1715 -0.9348
  187POPC  H16S21564   0.341   6.635   4.179 -1.9573 -0.8891  0.4387
  187POPC  C21721565   0.477   6.564   4.029  0.1841  0.5505 -0.4908
  187POPC  H17R21566   0.511   6.484   4.097 -0.2394  0.9881  0.2415
  187POPC  H17S21567   0.543   6.653   4.035 -0.2197  0.9269 -1.4140
  187POPC  C21821568   0.508   6.506   3.894 -0.1771 -0.1532  0.2138
  187POPC  H18R21569   0.419   6.449   3.860 -1.7794  2.8209 -0.9908
  187POPC  H18S21570   0.600   6.445   3.881 -0.8741 -1.2417  0.3308
  187POPC  H18T21571   0.519   6.588   3.820 -2.6302  0.3417  0.3051
  187POPC   C3321572   0.031   5.819   2.786 -0.3211 -0.6067 -0.2328
  187POPC   H3X21573  -0.080   5.808   2.787 -0.9439  3.5433  2.6019
  187POPC   H3Y21574   0.056   5.927   2.799  1.8117 -0.8236 -2.0569
  187POPC   C3421575   0.098   5.723   2.886  0.0182 -0.0995  0.0813
  187POPC   H4X21576   0.207   5.735   2.867 -0.1391  0.6378 -0.3942
  187POPC   H4Y21577   0.087   5.614   2.864  1.6193 -0.4393  0.8005
  187POPC   C3521578   0.027   5.736   3.016  0.3219  0.3237  0.6662
  187POPC   H5X21579  -0.055   5.660   3.020  1.3094 -0.8282 -0.1670
  187POPC   H5Y21580  -0.012   5.838   3.034 -0.3974 -0.2558  2.6014
  187POPC   C3621581   0.116   5.700   3.131 -0.4348  0.1812  0.5013
  187POPC   H6X21582   0.201   5.771   3.128  0.4169 -0.6718  2.7318
  187POPC   H6Y21583   0.164   5.600   3.122  2.1036  1.3442  0.1860
  187POPC   C3721584   0.048   5.707   3.265 -0.1640  0.0256 -0.1282
  187POPC   H7X21585  -0.040   5.640   3.262  0.3333 -0.6285 -0.2875
  187POPC   H7Y21586   0.018   5.812   3.284  2.5331  0.7462  0.6004
  187POPC   C3821587   0.134   5.668   3.378 -0.0397  0.2074  0.2545
  187POPC   H8X21588   0.219   5.740   3.384 -0.5769  0.7803  1.1393
  187POPC   H8Y21589   0.190   5.573   3.362  0.8171  0.6822  0.3664
  187POPC   C3921590   0.073   5.684   3.517 -0.2394  0.5704  0.1952
  187POPC   H9X21591  -0.007   5.608   3.526 -0.3002  0.6523  0.3447
  187POPC   H9Y21592   0.016   5.779   3.522 -2.2029 -0.5461  0.2386
  187POPC  C31021593   0.179   5.669   3.625 -0.4015  0.6783  0.1966
  187POPC  H10X21594   0.251   5.753   3.618 -0.2956  0.5394 -0.4878
  187POPC  H10Y21595   0.234   5.581   3.586 -0.4303  1.1372 -0.9174
  187POPC  C31121596   0.123   5.660   3.772 -0.2470 -0.0668 -0.2587
  187POPC  H11X21597   0.100   5.551   3.783  0.8573 -0.3075 -0.1876
  187POPC  H11Y21598   0.039   5.730   3.790  1.8694  2.1482  1.7732
  187POPC  C31221599   0.232   5.684   3.873 -0.3928 -0.3110  0.4286
  187POPC  H12X21600   0.262   5.791   3.882 -1.6822 -0.1150  4.3799
  187POPC  H12Y21601   0.321   5.626   3.842 -1.1929 -1.3603  0.0017
  187POPC  C31321602   0.205   5.638   4.016  0.0094 -0.1817 -0.1489
  187POPC  H13X21603   0.177   5.531   4.007  2.5750 -1.0506  1.2984
  187POPC  H13Y21604   0.115   5.695   4.047 -0.8218 -1.0325 -0.9099
  187POPC  C31421605   0.318   5.662   4.123 -0.1672 -0.4619  1.1536
  187POPC  H14X21606   0.371   5.752   4.086  0.0939 -1.2323 -0.4044
  187POPC  H14Y21607   0.389   5.579   4.103 -1.4898 -0.9523 -2.1224
  187POPC  C31521608   0.279   5.667   4.264  0.5053  0.0771 -0.2579
  187POPC  H15X21609   0.243   5.567   4.296 -0.9068  1.4568  2.8529
  187POPC  H15Y21610   0.198   5.743   4.273  0.0226 -0.2751 -1.4378
  187POPC  C31621611   0.396   5.708   4.363  0.1555 -0.0354 -0.2451
  187POPC  H16X21612   0.429   5.809   4.329  1.4220 -0.2852  0.2163
  187POPC  H16Y21613   0.484   5.643   4.348 -0.6746 -1.1765 -0.3057
  187POPC  H16Z21614   0.364   5.722   4.468 -0.4306  1.3249 -0.5826
  188POPC     N21615   0.815   0.749   1.960  0.5533  0.3693 -0.3105
  188POPC   C1221616   0.804   0.853   1.848 -0.3955 -0.8884 -0.1336
  188POPC  H12A21617   0.783   0.801   1.756 -2.1709  1.0784 -0.9178
  188POPC  H12B21618   0.900   0.895   1.824 -0.4437 -0.3721  0.5401
  188POPC   C1321619   0.701   0.656   1.959  0.2883 -0.0793 -0.1666
  188POPC  H13A21620   0.711   0.570   2.024 -1.1301 -2.6321 -3.0695
  188POPC  H13B21621   0.607   0.707   1.975  0.9614  1.3960 -0.7429
  188POPC  H13C21622   0.686   0.601   1.868 -0.2097  0.5153 -0.4508
  188POPC   C1421623   0.938   0.674   1.960 -0.1996 -0.7660 -0.1784
  188POPC  H14A21624   0.950   0.594   1.888 -2.5492 -3.6349  2.2917
  188POPC  H14B21625   1.022   0.741   1.958 -1.3239  0.8043  1.7364
  188POPC  H14C21626   0.950   0.620   2.053  3.1590 -0.2882 -0.2042
  188POPC   C1521627   0.812   0.809   2.100  0.1552 -0.9428 -0.6290
  188POPC  H15A21628   0.897   0.876   2.109 -0.7428  0.5941 -2.6407
  188POPC  H15B21629   0.817   0.738   2.181 -1.0119  0.0344  0.3306
  188POPC  H15C21630   0.724   0.870   2.111  1.4818  1.3422 -1.6968
  188POPC   C1121631   0.716   0.980   1.856  0.1614  1.2296 -0.4373
  188POPC  H11A21632   0.622   0.938   1.898  0.9219 -2.3018 -1.9251
  188POPC  H11B21633   0.707   1.028   1.757  2.5199 -0.5313 -1.6179
  188POPC     P21634   0.899   1.155   1.947  0.3512 -0.2074  0.1586
  188POPC   O1321635   0.874   1.295   1.899 -0.0616  0.5653  0.1296
  188POPC   O1421636   0.998   1.074   1.869  0.2130  0.3390 -0.1126
  188POPC   O1221637   0.757   1.085   1.951  0.3260  0.4389  0.1819
  188POPC   O1121638   0.941   1.157   2.101 -0.5530  0.2620 -0.0966
  188POPC    C121639   0.850   1.147   2.206  0.0494  0.5568 -0.9580
  188POPC    HA21640   0.909   1.092   2.282  1.1240 -3.1104 -4.1387
  188POPC    HB21641   0.766   1.079   2.181  0.8912  0.1364 -2.8093
  188POPC    C221642   0.800   1.290   2.266 -0.1936  0.4163  0.7360
  188POPC    HS21643   0.757   1.345   2.180 -0.8739  2.5215  2.3402
  188POPC   O2121644   0.920   1.350   2.325 -0.0538 -0.4242  0.5430
  188POPC   C2121645   0.913   1.478   2.339  0.6476 -0.1423 -0.1339
  188POPC   O2221646   0.822   1.549   2.305  0.1135  0.2623 -0.3554
  188POPC   C2221647   1.046   1.515   2.405  0.8756 -0.6572 -0.2620
  188POPC   H2R21648   1.080   1.605   2.350 -1.9069  0.2189 -0.7305
  188POPC   H2S21649   1.120   1.432   2.407  0.2786 -1.1843  0.9816
  188POPC    C321650   0.677   1.267   2.364  0.4242 -0.3878  0.4219
  188POPC    HX21651   0.609   1.197   2.309  0.3334  1.4609 -2.0126
  188POPC    HY21652   0.640   1.371   2.369  2.2226  0.3957 -1.3952
  188POPC   O3121653   0.704   1.204   2.487  0.2480 -0.5993 -0.4373
  188POPC   C3121654   0.616   1.232   2.581 -0.3718 -0.3203 -0.7096
  188POPC   O3221655   0.503   1.275   2.560  0.6128  0.1167 -0.1690
  188POPC   C3221656   0.679   1.172   2.713 -0.2380  0.2559 -0.6301
  188POPC   H2X21657   0.789   1.156   2.711 -0.2805  0.0349 -1.4943
  188POPC   H2Y21658   0.628   1.074   2.721  0.5858 -0.2674 -1.5155
  188POPC   C2321659   1.021   1.559   2.553 -0.0150 -0.0355  0.1326
  188POPC   H3R21660   0.937   1.632   2.553  0.5167  0.5872 -0.1751
  188POPC   H3S21661   1.107   1.597   2.611  0.5324 -2.3372  0.9204
  188POPC   C2421662   0.980   1.429   2.639  0.1398  0.2846  0.1597
  188POPC   H4R21663   1.065   1.359   2.627 -0.4921 -0.6317  0.9140
  188POPC   H4S21664   0.901   1.373   2.584  0.0633  1.8381 -1.4081
  188POPC   C2521665   0.945   1.449   2.785 -0.0179 -0.5769 -0.4433
  188POPC   H5R21666   0.910   1.355   2.833 -1.3311  0.3098  0.4058
  188POPC   H5S21667   0.858   1.517   2.797 -0.0173 -0.4133 -1.3648
  188POPC   C2621668   1.059   1.506   2.877 -0.6383 -0.3418 -0.0909
  188POPC   H6R21669   1.110   1.602   2.855 -1.4042  0.4235  1.3478
  188POPC   H6S21670   1.147   1.439   2.864  0.8285  0.8360  2.8433
  188POPC   C2721671   1.020   1.517   3.024 -0.3467 -0.5123 -0.1689
  188POPC   H7R21672   0.966   1.429   3.066  0.4268  0.0544  2.1792
  188POPC   H7S21673   0.947   1.601   3.023 -1.9003 -1.6720  2.8739
  188POPC   C2821674   1.136   1.559   3.113  0.0572 -0.4097 -0.4523
  188POPC   H8R21675   1.171   1.664   3.101 -0.4087 -0.0167  1.3235
  188POPC   H8S21676   1.220   1.489   3.097 -0.2579 -1.1032  0.8636
  188POPC   C2921677   1.105   1.556   3.262 -0.5380  0.2045  0.5573
  188POPC   H9121678   1.046   1.644   3.289 -1.4869  0.0446 -0.9078
  188POPC  C21021679   1.140   1.463   3.351 -0.3022  0.5246  0.8095
  188POPC  H10121680   1.110   1.479   3.455 -3.8397 -1.5876  0.2532
  188POPC  C21121681   1.209   1.329   3.320 -0.3777  0.0452  1.0442
  188POPC  H11R21682   1.309   1.356   3.279  0.0156  1.6244  2.8722
  188POPC  H11S21683   1.146   1.274   3.247 -0.8246  2.1672 -0.2416
  188POPC  C21221684   1.231   1.238   3.443 -0.4750 -0.1461 -0.6373
  188POPC  H12R21685   1.275   1.143   3.405  0.7128  0.6365 -1.2441
  188POPC  H12S21686   1.134   1.203   3.484 -1.0647  1.0568 -0.9671
  188POPC  C21321687   1.318   1.313   3.552 -0.3287  0.7548 -1.3291
  188POPC  H13R21688   1.267   1.409   3.575 -1.0315 -0.1918  1.4419
  188POPC  H13S21689   1.413   1.344   3.504  1.2258  0.9521  1.6481
  188POPC  C21421690   1.339   1.239   3.687 -0.3558 -0.3952 -0.7818
  188POPC  H14R21691   1.418   1.161   3.681 -1.2488 -1.3187 -0.8575
  188POPC  H14S21692   1.248   1.195   3.732 -0.7307 -1.1477 -2.2232
  188POPC  C21521693   1.374   1.347   3.794 -0.4033 -0.2949  0.1806
  188POPC  H15R21694   1.285   1.412   3.798 -0.3366 -0.1304 -0.7971
  188POPC  H15S21695   1.466   1.402   3.762 -1.4888  0.3244 -2.0578
  188POPC  C21621696   1.394   1.289   3.933 -0.0722  0.7241 -0.3811
  188POPC  H16R21697   1.479   1.219   3.928  0.6366  1.5300  0.1298
  188POPC  H16S21698   1.309   1.229   3.971 -0.2901  0.9686 -0.4732
  188POPC  C21721699   1.407   1.406   4.032 -0.2566  0.1375 -0.1662
  188POPC  H17R21700   1.323   1.479   4.024  0.3612  0.8847  0.0835
  188POPC  H17S21701   1.485   1.476   3.996 -0.5377  1.8734  2.3868
  188POPC  C21821702   1.439   1.356   4.167 -0.1344  0.0507  0.4783
  188POPC  H18R21703   1.358   1.284   4.189  1.4131 -2.8323 -2.4499
  188POPC  H18S21704   1.461   1.434   4.243 -0.3652 -0.2180  0.8204
  188POPC  H18T21705   1.533   1.298   4.176  0.1087  0.5995  1.6984
  188POPC   C3321706   0.644   1.272   2.829 -0.1051  0.1480 -0.5716
  188POPC   H3X21707   0.542   1.314   2.814  0.1135  0.4085 -1.3604
  188POPC   H3Y21708   0.699   1.367   2.817 -0.6427  0.6110  0.5123
  188POPC   C3421709   0.652   1.205   2.968 -0.2699  0.0230  0.6724
  188POPC   H4X21710   0.746   1.148   2.980 -1.0598 -1.6046 -0.3800
  188POPC   H4Y21711   0.576   1.124   2.980  1.2595 -1.6505 -0.4063
  188POPC   C3521712   0.641   1.316   3.078  0.0439  0.0198 -0.1722
  188POPC   H5X21713   0.541   1.364   3.076  0.4216  0.8043 -1.0043
  188POPC   H5Y21714   0.717   1.395   3.057  0.6218 -1.1027 -2.7495
  188POPC   C3621715   0.662   1.260   3.217  0.4365  0.1891 -0.0979
  188POPC   H6X21716   0.762   1.212   3.213 -0.0346 -0.8016 -0.4389
  188POPC   H6Y21717   0.577   1.190   3.232 -0.9104  1.4602 -1.4643
  188POPC   C3721718   0.635   1.366   3.325 -0.1273  0.3732 -0.1981
  188POPC   H7X21719   0.538   1.415   3.301 -0.6914 -0.6783 -0.1164
  188POPC   H7Y21720   0.709   1.448   3.331 -0.5098  0.7355 -0.3741
  188POPC   C3821721   0.640   1.301   3.464  0.2211 -0.0589 -0.0796
  188POPC   H8X21722   0.573   1.213   3.462 -0.4888  0.4759 -0.2798
  188POPC   H8Y21723   0.601   1.385   3.525 -0.6223  0.5991 -1.4613
  188POPC   C3921724   0.777   1.254   3.519 -0.6568  0.3244  0.2829
  188POPC   H9X21725   0.857   1.332   3.517 -1.1256  0.7995 -1.3382
  188POPC   H9Y21726   0.818   1.179   3.448  0.8350  0.2469  1.1692
  188POPC  C31021727   0.774   1.187   3.661  0.3519 -0.1242  0.5599
  188POPC  H10X21728   0.697   1.107   3.660 -0.6275  0.6897 -2.7842
  188POPC  H10Y21729   0.743   1.271   3.726 -0.4358  0.0974 -0.0971
  188POPC  C31121730   0.911   1.132   3.712  1.0292  0.0881  0.4214
  188POPC  H11X21731   0.982   1.209   3.678  1.6596  0.8244  3.1746
  188POPC  H11Y21732   0.932   1.034   3.664 -0.0600  0.2047 -0.3308
  188POPC  C31221733   0.921   1.134   3.862  0.2653  0.0856 -0.7833
  188POPC  H12X21734   0.911   1.232   3.914  1.6669 -1.0668  1.8122
  188POPC  H12Y21735   1.017   1.097   3.902 -0.4214 -1.2054 -0.2605
  188POPC  C31321736   0.805   1.048   3.928 -0.2482 -0.4172  0.2124
  188POPC  H13X21737   0.826   0.942   3.902  1.1238 -0.3518  0.9766
  188POPC  H13Y21738   0.703   1.086   3.904 -0.5671 -1.6575 -0.4762
  188POPC  C31421739   0.823   1.046   4.081 -0.0633 -0.7443  0.6578
  188POPC  H14X21740   0.804   1.152   4.109  1.9186  0.7034 -2.8248
  188POPC  H14Y21741   0.928   1.023   4.109  0.9757  1.9619 -0.7016
  188POPC  C31521742   0.728   0.951   4.151 -0.3869 -0.3423  0.2698
  188POPC  H15X21743   0.747   0.855   4.099 -0.8758 -1.1178  1.4832
  188POPC  H15Y21744   0.627   0.997   4.143 -0.5215 -0.6455  0.2184
  188POPC  C31621745   0.765   0.946   4.300 -0.6360 -0.4214 -0.3396
  188POPC  H16X21746   0.691   0.877   4.348 -2.0651 -0.0310 -1.8934
  188POPC  H16Y21747   0.766   1.040   4.359 -1.1862 -2.1482  2.6842
  188POPC  H16Z21748   0.864   0.900   4.320 -0.9836 -0.7765  0.6630
  189SAPI   C1221749   2.081   5.356   6.720  0.2632 -0.3588 -0.1172
  189SAPI    H221750   2.131   5.260   6.694  0.7953  0.0178 -0.4705
  189SAPI    O221751   1.958   5.366   6.659  0.0292 -0.1935  0.2840
  189SAPI   HO221752   1.965   5.340   6.567 -0.9184  0.5591 -0.0092
  189SAPI   C1321753   2.061   5.359   6.869 -0.0984 -0.2993  0.3754
  189SAPI    H321754   2.160   5.347   6.919  1.4643 -0.5372 -2.5522
  189SAPI    O321755   1.980   5.250   6.915  0.5437 -0.4374 -0.1502
  189SAPI   HO321756   2.031   5.201   6.980  1.0845 -2.3285 -1.8785
  189SAPI   C1421757   2.003   5.486   6.913  0.0395  0.2750  0.7096
  189SAPI    H421758   1.906   5.488   6.860  1.1593  1.6116 -1.4150
  189SAPI    O421759   1.979   5.490   7.055 -0.0503  0.0477 -0.2892
  189SAPI   HO421760   2.023   5.412   7.088  0.0177 -1.2348 -3.0706
  189SAPI   C1521761   2.079   5.608   6.863 -0.0337 -0.2744  0.1174
  189SAPI    H521762   2.171   5.605   6.925 -0.7619  0.4481  1.2654
  189SAPI    O521763   2.022   5.732   6.903  0.2630 -0.5273  0.0203
  189SAPI   HO521764   1.981   5.769   6.825  0.8674 -0.8353 -0.4537
  189SAPI   C1621765   2.135   5.602   6.720  0.2473 -0.5054 -0.6868
  189SAPI    H621766   2.053   5.632   6.652  0.8688  0.9649 -0.8157
  189SAPI    O621767   2.237   5.698   6.707  0.3364  0.4585  0.2270
  189SAPI   HO621768   2.305   5.641   6.670  0.4665  0.1302  0.9497
  189SAPI   C1121769   2.185   5.463   6.678  0.0243 -0.6670 -0.1857
  189SAPI    H121770   2.273   5.428   6.736 -0.3733 -3.2408 -1.0185
  189SAPI     P21771   2.363   5.483   6.479 -0.3938  0.1681  0.3871
  189SAPI   O1321772   2.413   5.597   6.559  0.3037 -0.4544 -0.0063
  189SAPI   O1421773   2.360   5.495   6.329  0.1241 -0.4103 -0.2414
  189SAPI   O1221774   2.217   5.440   6.539 -0.4545 -0.4990 -0.6525
  189SAPI   O1121775   2.458   5.361   6.502  0.0545 -0.3139  0.0886
  189SAPI    C121776   2.422   5.229   6.474  0.9256 -0.0965  0.3659
  189SAPI    HA21777   2.440   5.160   6.559  0.8159 -0.1808  0.3214
  189SAPI    HB21778   2.313   5.225   6.451  0.7946  4.0923 -0.4554
  189SAPI    C221779   2.501   5.168   6.359 -0.4528  0.6598  0.5134
  189SAPI    HS21780   2.609   5.186   6.374 -0.3939  1.1256 -0.3689
  189SAPI   O2121781   2.445   5.224   6.237 -0.3208  0.6580  0.2621
  189SAPI   C2121782   2.533   5.262   6.152 -0.2014 -0.2913 -0.1632
  189SAPI   O2221783   2.652   5.270   6.177  0.2551 -0.1092 -0.2680
  189SAPI   C2221784   2.465   5.336   6.037  1.0375  0.4221 -0.1988
  189SAPI   H2R21785   2.355   5.344   6.046  0.8165 -1.9796 -0.0681
  189SAPI   H2S21786   2.493   5.443   6.046 -0.7001  0.8367  0.6470
  189SAPI    C321787   2.467   5.015   6.344  0.4096 -1.1113 -0.2010
  189SAPI    HX21788   2.356   5.013   6.342  0.3581  0.1384  0.2994
  189SAPI    HY21789   2.497   4.964   6.438 -0.1094  2.0241  1.8300
  189SAPI   O3121790   2.510   4.955   6.218  0.0008 -0.9777  0.0186
  189SAPI   C3121791   2.610   4.874   6.224 -0.1793  0.0009 -0.0277
  189SAPI   O3221792   2.668   4.836   6.324 -0.4548  0.0423  0.2633
  189SAPI   C3221793   2.650   4.845   6.086  0.3298  0.3347 -0.3543
  189SAPI   H2X21794   2.682   4.940   6.038  0.0105  1.4764  1.5901
  189SAPI   H2Y21795   2.564   4.799   6.033  0.0981  0.0830  0.2365
  189SAPI   C2321796   2.502   5.278   5.895 -0.5709  0.9833 -0.0925
  189SAPI   H3R21797   2.432   5.199   5.861 -0.8835  1.7366 -1.2523
  189SAPI   H3S21798   2.604   5.234   5.892  0.5040  3.3238 -2.8350
  189SAPI   C2421799   2.504   5.388   5.791  0.2981  0.8174 -0.5531
  189SAPI   H4R21800   2.536   5.347   5.693  0.9727  0.6347 -0.2636
  189SAPI   H4S21801   2.575   5.470   5.816  0.3452  0.4389  0.5903
  189SAPI   C2521802   2.363   5.445   5.773 -0.0602  0.0745 -0.0274
  189SAPI   H5R21803   2.332   5.509   5.857 -1.2101 -1.0120  0.4006
  189SAPI   C2621804   2.272   5.430   5.676  0.5315 -0.8109  0.3432
  189SAPI   H6R21805   2.173   5.475   5.691  0.7145 -0.5369  0.7288
  189SAPI   C2721806   2.293   5.359   5.538 -0.8043  0.0934  0.7765
  189SAPI   H7R21807   2.231   5.267   5.538  0.9099 -1.1254 -0.4491
  189SAPI   H7S21808   2.396   5.320   5.525 -1.6182 -2.0228  0.2661
  189SAPI   C2821809   2.266   5.452   5.425 -0.8440  0.2630 -0.5218
  189SAPI   H8R21810   2.245   5.559   5.443  0.4037  0.6776 -1.3552
  189SAPI   C2921811   2.257   5.420   5.294 -0.1450  0.6907  0.0685
  189SAPI   H9R21812   2.239   5.493   5.213  0.5577 -1.0549 -1.7491
  189SAPI  C21021813   2.307   5.292   5.233 -0.3177 -0.0582 -0.2240
  189SAPI  H10R21814   2.221   5.223   5.226  0.0477 -0.5846  0.3987
  189SAPI  H10S21815   2.373   5.245   5.309 -0.0977  0.9991  0.2597
  189SAPI  C21121816   2.380   5.324   5.103  0.0738  0.2771  0.4483
  189SAPI  H11R21817   2.488   5.346   5.098  0.2882 -0.9387 -0.8561
  189SAPI  C21221818   2.321   5.338   4.985  0.3363 -0.4303 -0.3329
  189SAPI  H12R21819   2.381   5.354   4.895 -0.3421  2.2198 -0.4209
  189SAPI  C21321820   2.174   5.335   4.958  0.5761  0.2572  0.7104
  189SAPI  H13R21821   2.116   5.328   5.052 -0.4395  2.2534  0.2802
  189SAPI  H13S21822   2.154   5.240   4.904  1.8983 -0.6950  1.8198
  189SAPI  C21421823   2.132   5.453   4.875 -0.7382 -0.2668 -0.5344
  189SAPI  H14R21824   2.169   5.549   4.914 -0.4566 -0.8737  0.7502
  189SAPI  C21521825   2.060   5.450   4.766 -0.5350 -0.2859  0.7675
  189SAPI  H15R21826   2.028   5.550   4.734  1.5916 -0.4952 -2.4259
  189SAPI  C21621827   2.003   5.328   4.697 -0.3546  0.1221 -0.0680
  189SAPI  H16R21828   2.011   5.239   4.762  2.6569  0.0261 -0.4134
  189SAPI  H16S21829   2.056   5.313   4.600 -1.1255  1.8129 -0.8016
  189SAPI  C21721830   1.860   5.360   4.656 -0.0927  0.5373  0.9426
  189SAPI  H17R21831   1.857   5.450   4.591 -0.4320  0.0417  0.2621
  189SAPI  H17S21832   1.799   5.376   4.748 -2.2746 -0.4736 -0.2583
  189SAPI  C21821833   1.798   5.239   4.580  0.3603  0.0723 -0.3933
  189SAPI  H18R21834   1.817   5.144   4.635  3.0005  0.7367 -0.0499
  189SAPI  H18S21835   1.855   5.232   4.486  3.0489  1.8207  0.9958
  189SAPI  C21921836   1.653   5.274   4.556  0.1768 -0.2791 -0.1791
  189SAPI  H19R21837   1.644   5.367   4.495 -1.3056 -1.0941 -1.2862
  189SAPI  H19S21838   1.599   5.295   4.651  0.9565  2.6461 -0.2718
  189SAPI  C22021839   1.582   5.163   4.481  0.2411  0.2081  0.0310
  189SAPI  H20R21840   1.545   5.083   4.548 -0.2296  0.4857  0.1089
  189SAPI  H20S21841   1.642   5.112   4.402 -2.3095 -0.3487 -1.6861
  189SAPI  H20T21842   1.496   5.205   4.424 -0.9886 -0.7026  1.1654
  189SAPI   C3321843   2.763   4.737   6.077 -0.0347 -0.3698 -0.1816
  189SAPI   H3X21844   2.723   4.640   6.113  1.2508 -0.7772  0.2065
  189SAPI   H3Y21845   2.848   4.770   6.140 -0.9406  1.7312 -0.0063
  189SAPI   C3421846   2.812   4.725   5.934  0.7341 -0.2123  0.1602
  189SAPI   H4X21847   2.868   4.814   5.898  0.1622  0.0482 -0.1038
  189SAPI   H4Y21848   2.735   4.699   5.857  3.0106 -1.0384 -1.9734
  189SAPI   C3521849   2.905   4.610   5.929  0.0978  0.1131  0.0445
  189SAPI   H5X21850   2.851   4.513   5.935 -0.9540  0.7308  1.0448
  189SAPI   H5Y21851   2.958   4.602   6.026  1.3701  2.5367 -0.3825
  189SAPI   C3621852   3.005   4.596   5.811 -0.2894 -0.4394  0.3793
  189SAPI   H6X21853   3.080   4.517   5.834  1.5919  1.6985  2.1277
  189SAPI   H6Y21854   3.071   4.685   5.816 -2.1159  1.1304 -1.7559
  189SAPI   C3721855   2.942   4.603   5.672 -0.5574  0.1525  0.2101
  189SAPI   H7X21856   2.928   4.711   5.648  1.1823  0.2839 -0.3664
  189SAPI   H7Y21857   2.846   4.548   5.658  0.1879 -0.6991 -1.9252
  189SAPI   C3821858   3.047   4.550   5.568 -0.0801  0.7148 -0.9083
  189SAPI   H8X21859   3.061   4.440   5.574  0.7062  0.7861 -1.3139
  189SAPI   H8Y21860   3.145   4.600   5.586  0.5184  0.0087 -2.0487
  189SAPI   C3921861   3.004   4.578   5.425  0.1362 -0.2328 -0.2375
  189SAPI   H9X21862   2.982   4.686   5.406 -5.6214 -1.0758  0.0365
  189SAPI   H9Y21863   2.907   4.532   5.398 -0.7839  0.8625  1.0933
  189SAPI  C31021864   3.100   4.530   5.315 -0.0366 -0.5469  0.7368
  189SAPI  H10X21865   3.119   4.424   5.340  1.9791 -0.1364  1.1007
  189SAPI  H10Y21866   3.195   4.583   5.338  0.3060 -1.6149  1.9088
  189SAPI  C31121867   3.048   4.553   5.164 -0.1473 -0.3440 -0.0473
  189SAPI  H11X21868   3.016   4.658   5.148 -1.5092 -0.6617  0.4875
  189SAPI  H11Y21869   2.956   4.490   5.157 -0.4950  0.1950 -0.3633
  189SAPI  C31221870   3.143   4.516   5.056  0.2097 -0.3954  0.1605
  189SAPI  H12X21871   3.168   4.408   5.057 -1.2824 -0.7718  1.4420
  189SAPI  H12Y21872   3.238   4.569   5.078  0.5100 -0.3183 -1.2334
  189SAPI  C31321873   3.088   4.561   4.918  0.3011  0.0778  0.4298
  189SAPI  H13X21874   3.080   4.672   4.916 -1.9686 -0.0512  0.2097
  189SAPI  H13Y21875   2.990   4.512   4.902  0.2289 -0.3133  1.9012
  189SAPI  C31421876   3.179   4.511   4.810  0.1031  0.6712 -0.1769
  189SAPI  H14X21877   3.166   4.403   4.788  0.3652  0.7990 -1.0024
  189SAPI  H14Y21878   3.283   4.516   4.850 -0.8340  0.1741  2.5211
  189SAPI  C31521879   3.158   4.606   4.685 -0.1157  0.0826 -0.3156
  189SAPI  H15X21880   3.235   4.576   4.610  1.4941 -0.4161  1.4514
  189SAPI  H15Y21881   3.177   4.709   4.720  0.8314 -0.8017  1.9466
  189SAPI  C31621882   3.013   4.586   4.631 -0.2064 -0.5664  0.5271
  189SAPI  H16X21883   2.935   4.630   4.697  2.0220  2.9170  1.0982
  189SAPI  H16Y21884   2.997   4.477   4.615  1.1718 -0.5401 -1.3154
  189SAPI  C31721885   2.997   4.659   4.489 -0.2160 -0.2378 -0.2651
  189SAPI  H17X21886   3.042   4.759   4.505 -2.2958  0.7001  0.1361
  189SAPI  H17Y21887   2.887   4.660   4.472 -0.1981  0.7678 -0.4015
  189SAPI  C31821888   3.069   4.591   4.376  0.2027  0.5118 -0.2057
  189SAPI  H18X21889   3.172   4.568   4.410 -0.3779 -1.1478  0.5564
  189SAPI  H18Y21890   3.075   4.653   4.285 -2.0016  0.6702 -0.3036
  189SAPI  H18Z21891   3.019   4.501   4.333 -0.1328  0.6343 -0.0752
  190SAPI   C1221892   2.101   3.584   6.993  0.1847  0.1686 -0.5717
  190SAPI    H221893   2.134   3.681   6.951  1.7781 -0.1635 -0.1655
  190SAPI    O221894   2.220   3.521   7.006 -0.2588 -0.0646 -0.2593
  190SAPI   HO221895   2.282   3.595   7.009  0.0280 -0.2456 -1.3112
  190SAPI   C1321896   2.037   3.604   7.125 -0.6213  0.0931 -0.1614
  190SAPI    H321897   1.944   3.661   7.102 -0.3859  3.1457  4.9244
  190SAPI    O321898   2.118   3.690   7.206 -0.4368  0.5360  0.1814
  190SAPI   HO321899   2.191   3.634   7.234 -0.9963 -0.7433 -0.8213
  190SAPI   C1421900   2.002   3.474   7.191 -0.0927  0.5944  0.7863
  190SAPI    H421901   2.101   3.438   7.228  0.5008 -0.3236 -1.5564
  190SAPI    O421902   1.927   3.494   7.304  0.6781  0.4644  0.2921
  190SAPI   HO421903   1.983   3.535   7.370  3.0915 -1.9180 -0.1018
  190SAPI   C1521904   1.953   3.352   7.099  0.0973  1.2128 -0.2439
  190SAPI    H521905   1.843   3.349   7.116  0.0090  0.6731 -0.8445
  190SAPI    O521906   1.993   3.218   7.140 -0.1421 -0.3466  0.5043
  190SAPI   HO521907   2.070   3.230   7.197  0.9015 -1.0257 -0.7031
  190SAPI   C1621908   1.986   3.372   6.950 -0.0200  0.0842  0.2667
  190SAPI    H621909   2.085   3.323   6.938  0.2643  0.4858  0.9126
  190SAPI    O621910   1.889   3.305   6.869 -0.4026  0.3551  0.4985
  190SAPI   HO621911   1.938   3.253   6.804  1.3512  0.9113  1.3108
  190SAPI   C1121912   2.009   3.512   6.902 -0.3674  1.2419  0.6974
  190SAPI    H121913   1.913   3.567   6.895 -1.3654 -0.5779 -0.6119
  190SAPI     P21914   2.043   3.632   6.662 -0.1408 -0.0460  0.0758
  190SAPI   O1321915   2.164   3.650   6.576 -0.5619 -0.1769 -0.0220
  190SAPI   O1421916   1.998   3.759   6.730  0.1845 -0.1190  0.1176
  190SAPI   O1221917   2.068   3.508   6.770 -0.3386 -0.0719  0.0906
  190SAPI   O1121918   1.918   3.587   6.570  0.0992 -0.2834 -0.1539
  190SAPI    C121919   1.931   3.456   6.521 -0.4620  0.0464  0.1692
  190SAPI    HA21920   2.022   3.396   6.543 -0.3885 -0.4043 -1.2660
  190SAPI    HB21921   1.847   3.391   6.553  0.5697 -0.9222  0.9778
  190SAPI    C221922   1.913   3.459   6.365 -0.6303 -0.2529  0.3484
  190SAPI    HS21923   1.912   3.354   6.327  0.4198 -0.1615  0.0514
  190SAPI   O2121924   2.016   3.537   6.311 -0.2198  0.1016 -0.4629
  190SAPI   C2121925   2.145   3.490   6.309  0.3727  0.7102  0.5910
  190SAPI   O2221926   2.175   3.379   6.350 -0.0909 -0.9761 -0.1326
  190SAPI   C2221927   2.232   3.588   6.234  0.9357 -0.2282 -0.1210
  190SAPI   H2R21928   2.171   3.632   6.152  0.6583 -1.7656 -0.7638
  190SAPI   H2S21929   2.249   3.676   6.300  0.5275  0.8726 -1.4286
  190SAPI    C321930   1.774   3.514   6.333  0.2786 -0.6780 -0.3954
  190SAPI    HX21931   1.772   3.618   6.373  0.5568 -0.4971 -0.8434
  190SAPI    HY21932   1.708   3.447   6.391  1.1769 -0.4796  0.9007
  190SAPI   O3121933   1.743   3.516   6.196  0.5596 -0.6956  0.4966
  190SAPI   C3121934   1.717   3.397   6.136  0.2937  0.3347 -0.5682
  190SAPI   O3221935   1.707   3.294   6.196 -0.3249  0.2476 -0.4041
  190SAPI   C3221936   1.694   3.418   5.988  0.6914  0.0240  0.2257
  190SAPI   H2X21937   1.760   3.350   5.931 -0.7103 -0.7988 -0.4700
  190SAPI   H2Y21938   1.721   3.521   5.956  0.7775  0.3555  1.3084
  190SAPI   C2321939   2.359   3.525   6.181 -0.1576 -0.0089  0.0220
  190SAPI   H3R21940   2.343   3.442   6.109 -1.8281 -0.6735  1.0949
  190SAPI   H3S21941   2.415   3.495   6.273 -1.9191  0.3650  1.2681
  190SAPI   C2421942   2.447   3.634   6.122 -0.6900  0.0520  0.5994
  190SAPI   H4R21943   2.469   3.705   6.204 -0.5424  0.1084  0.5131
  190SAPI   H4S21944   2.411   3.701   6.040  1.2149  2.1786  1.3860
  190SAPI   C2521945   2.570   3.571   6.057  0.0080  1.1904  0.2682
  190SAPI   H5R21946   2.645   3.535   6.128  0.9958  1.5727 -0.5460
  190SAPI   C2621947   2.609   3.557   5.925 -0.7179 -1.0624  0.0670
  190SAPI   H6R21948   2.707   3.511   5.905  0.1632  0.5682  0.4604
  190SAPI   C2721949   2.526   3.612   5.806  0.1482  0.0259  0.0287
  190SAPI   H7R21950   2.417   3.602   5.826  0.2048  1.1148  0.9837
  190SAPI   H7S21951   2.528   3.559   5.708  0.5423  0.0152  0.0402
  190SAPI   C2821952   2.541   3.761   5.780  0.5817  0.1068 -0.7446
  190SAPI   H8R21953   2.560   3.826   5.867  0.2858 -1.6549  0.7140
  190SAPI   C2921954   2.497   3.821   5.666 -0.1736 -1.0089 -0.0683
  190SAPI   H9R21955   2.503   3.931   5.664 -1.4721 -0.8113  2.5314
  190SAPI  C21021956   2.437   3.756   5.545 -0.6193  1.0063 -0.4052
  190SAPI  H10R21957   2.383   3.834   5.488  1.2190  1.7659 -1.2072
  190SAPI  H10S21958   2.365   3.675   5.567 -0.8397  0.8456 -1.6660
  190SAPI  C21121959   2.548   3.705   5.452  0.5595 -0.2725 -0.1170
  190SAPI  H11R21960   2.632   3.660   5.507  1.7910  1.2645 -0.6702
  190SAPI  C21221961   2.555   3.728   5.318 -0.3560  0.0558  0.1852
  190SAPI  H12R21962   2.648   3.696   5.268  0.1434  0.7404  0.6500
  190SAPI  C21321963   2.447   3.780   5.230  0.0313 -0.0915  0.4078
  190SAPI  H13R21964   2.355   3.765   5.290  1.1409  0.7583  2.4410
  190SAPI  H13S21965   2.452   3.706   5.148  1.2569 -0.7090  0.9982
  190SAPI  C21421966   2.456   3.932   5.201  0.9173  0.4393 -0.4274
  190SAPI  H14R21967   2.488   3.991   5.288  0.3312 -0.6447  0.5580
  190SAPI  C21521968   2.430   3.992   5.080  0.0233  0.2978  0.2682
  190SAPI  H15R21969   2.448   4.100   5.069  1.2642  0.0574 -0.2879
  190SAPI  C21621970   2.399   3.935   4.943 -0.1153  0.5594 -0.4781
  190SAPI  H16R21971   2.293   3.963   4.926 -0.6502 -0.0449  1.5646
  190SAPI  H16S21972   2.391   3.824   4.945  2.1507  0.3744  1.3963
  190SAPI  C21721973   2.475   3.996   4.828 -0.1556  0.2228 -0.4537
  190SAPI  H17R21974   2.579   3.957   4.831  1.3284  3.6520 -2.3442
  190SAPI  H17S21975   2.482   4.107   4.823  2.1309  0.1894  0.8976
  190SAPI  C21821976   2.420   3.955   4.687 -0.5945 -0.6158  0.5798
  190SAPI  H18R21977   2.310   3.974   4.685 -0.5695 -0.2227  2.0575
  190SAPI  H18S21978   2.437   3.847   4.671 -1.1290 -0.8678  1.6372
  190SAPI  C21921979   2.499   4.022   4.569  0.1140  0.4735  0.0683
  190SAPI  H19R21980   2.606   3.994   4.585  0.0174 -0.0045 -0.0972
  190SAPI  H19S21981   2.511   4.131   4.588  0.1854  0.1546  2.0129
  190SAPI  C22021982   2.441   3.990   4.431 -0.0189 -0.2815 -0.4392
  190SAPI  H20R21983   2.526   3.989   4.359  0.2940 -1.5340 -0.0749
  190SAPI  H20S21984   2.367   4.067   4.399 -0.7865 -0.0133  1.8532
  190SAPI  H20T21985   2.401   3.887   4.433  0.5429 -0.4908  1.2930
  190SAPI   C3321986   1.547   3.399   5.949  0.0561  0.0686  0.1720
  190SAPI   H3X21987   1.497   3.496   5.967  0.5928  0.4278 -0.2317
  190SAPI   H3Y21988   1.496   3.323   6.012  0.8840  2.6469  4.3342
  190SAPI   C3421989   1.542   3.362   5.796  0.4227 -0.0114  0.6014
  190SAPI   H4X21990   1.439   3.363   5.756  0.8555  0.1622 -0.5597
  190SAPI   H4Y21991   1.583   3.259   5.787 -2.3253 -1.0556 -1.1361
  190SAPI   C3521992   1.611   3.453   5.696 -0.2162 -0.0944 -0.2139
  190SAPI   H5X21993   1.721   3.447   5.709 -0.3413  0.7322  1.4860
  190SAPI   H5Y21994   1.575   3.557   5.711 -1.1115 -0.1292 -1.8787
  190SAPI   C3621995   1.570   3.411   5.547  0.3939 -0.0109 -0.2527
  190SAPI   H6X21996   1.463   3.381   5.541  0.0005  0.2596  3.1926
  190SAPI   H6Y21997   1.620   3.323   5.500 -1.1520  0.1751 -2.3714
  190SAPI   C3721998   1.585   3.525   5.457  0.3628  0.4445 -0.1654
  190SAPI   H7X21999   1.689   3.562   5.471  1.4157 -1.9567 -1.2388
  190SAPI   H7Y22000   1.516   3.609   5.484  2.1081  1.2930  1.9759
  190SAPI   C3822001   1.577   3.477   5.309 -0.3978  0.0570 -0.1211
  190SAPI   H8X22002   1.473   3.440   5.296 -0.8314  0.3078  2.1239
  190SAPI   H8Y22003   1.640   3.390   5.283 -0.4737 -0.6164  1.8242
  190SAPI   C3922004   1.606   3.591   5.227  0.3420 -0.4313  0.0351
  190SAPI   H9X22005   1.707   3.636   5.237  0.6197 -0.4794 -1.9930
  190SAPI   H9Y22006   1.530   3.671   5.240 -0.3586 -0.2486 -3.8731
  190SAPI  C31022007   1.617   3.575   5.077 -0.3304  0.1479  0.7606
  190SAPI  H10X22008   1.684   3.490   5.053  2.2138  2.2171  0.1194
  190SAPI  H10Y22009   1.662   3.670   5.040 -0.5653 -0.6251 -1.7440
  190SAPI  C31122010   1.482   3.550   5.012 -0.3960  0.0578  0.2015
  190SAPI  H11X22011   1.419   3.626   5.064  0.1703  0.1968  0.6957
  190SAPI  H11Y22012   1.459   3.444   5.036  1.0383 -0.4154 -0.4097
  190SAPI  C31222013   1.481   3.563   4.865 -0.0539  0.4045  0.5363
  190SAPI  H12X22014   1.572   3.517   4.821 -1.0581 -0.6196 -0.5338
  190SAPI  H12Y22015   1.476   3.670   4.836 -2.1477  0.2032 -0.0219
  190SAPI  C31322016   1.358   3.487   4.801  0.1001  0.3768  0.2724
  190SAPI  H13X22017   1.279   3.539   4.859  0.9288  0.5156  1.3053
  190SAPI  H13Y22018   1.366   3.384   4.841  1.7966  0.0383 -0.8481
  190SAPI  C31422019   1.336   3.481   4.644  0.7500  0.0148  0.1941
  190SAPI  H14X22020   1.364   3.583   4.608  2.3799 -0.1135  0.9895
  190SAPI  H14Y22021   1.229   3.472   4.616  1.4591 -1.5054 -2.4266
  190SAPI  C31522022   1.409   3.376   4.561 -0.3977 -0.4606  0.1777
  190SAPI  H15X22023   1.381   3.283   4.616 -2.0538 -0.3450 -0.4172
  190SAPI  H15Y22024   1.519   3.387   4.574 -0.3217 -1.6584  0.7561
  190SAPI  C31622025   1.394   3.362   4.412  1.0891 -0.4285  0.1884
  190SAPI  H16X22026   1.486   3.315   4.370  1.1351 -0.0263 -0.1759
  190SAPI  H16Y22027   1.391   3.463   4.365  1.6116 -0.8028 -0.6717
  190SAPI  C31722028   1.263   3.295   4.373  0.1395  0.1338  0.1246
  190SAPI  H17X22029   1.179   3.339   4.431 -0.4820 -1.0754  0.1795
  190SAPI  H17Y22030   1.272   3.193   4.418  2.6449  0.4777  0.5772
  190SAPI  C31822031   1.223   3.289   4.227  0.2475  0.5222  0.2257
  190SAPI  H18X22032   1.211   3.391   4.186  1.3284  0.1451 -1.0838
  190SAPI  H18Y22033   1.124   3.238   4.231 -0.0135  0.9077 -1.0530
  190SAPI  H18Z22034   1.291   3.222   4.170 -2.4978 -1.6024 -0.7919
  191SAPI   C1222035   5.843   3.804   2.269  0.0175  0.3823  0.3543
  191SAPI    H222036   5.821   3.725   2.344 -1.9835  0.1645 -0.4010
  191SAPI    O222037   5.870   3.922   2.355 -0.4404 -0.0133  0.3091
  191SAPI   HO222038   5.787   3.947   2.397 -0.7702  0.8800 -0.8002
  191SAPI   C1322039   5.955   3.772   2.168 -0.3095 -0.3973 -0.2594
  191SAPI    H322040   5.930   3.693   2.094  2.6512 -1.2483 -0.4866
  191SAPI    O322041   6.066   3.710   2.236  0.0222 -0.4298  0.4459
  191SAPI   HO322042   6.105   3.786   2.281  0.2357 -0.9352  1.1353
  191SAPI   C1422043   5.992   3.896   2.101 -0.5996 -0.9091 -0.1890
  191SAPI    H422044   6.045   3.966   2.169 -0.9734 -1.0058  0.2060
  191SAPI    O422045   6.094   3.876   2.008 -0.7931  0.2879 -0.0409
  191SAPI   HO422046   6.171   3.897   2.061 -1.8020 -1.3033  2.1991
  191SAPI   C1522047   5.868   3.957   2.036  0.0329 -0.2900  0.2217
  191SAPI    H522048   5.859   3.902   1.940 -1.6758 -1.0437  0.7754
  191SAPI    O522049   5.888   4.094   1.995  0.2869 -0.0136  0.0146
  191SAPI   HO522050   5.893   4.155   2.069 -0.5045  0.4411 -0.2903
  191SAPI   C1622051   5.735   3.938   2.107  0.2057  0.0400 -0.3028
  191SAPI    H622052   5.721   4.021   2.178  0.6854  1.4707 -1.8201
  191SAPI    O622053   5.626   3.950   2.018  0.3142 -0.4197 -0.4558
  191SAPI   HO622054   5.595   3.865   1.986 -1.0370 -0.0291 -0.2416
  191SAPI   C1122055   5.713   3.815   2.190  0.0150 -0.2698 -0.4407
  191SAPI    H122056   5.713   3.725   2.125 -1.8516 -1.2868  0.8839
  191SAPI     P22057   5.459   3.755   2.237 -0.3688  0.0461 -0.0120
  191SAPI   O1322058   5.457   3.749   2.093 -0.1948 -0.2414  0.6285
  191SAPI   O1422059   5.354   3.844   2.289  0.3547  0.9270 -0.5475
  191SAPI   O1222060   5.603   3.816   2.278 -0.0871  0.8251  0.4460
  191SAPI   O1122061   5.452   3.608   2.282 -0.2873  0.1914 -0.1847
  191SAPI    C122062   5.565   3.523   2.293 -0.2738  0.0443 -0.3051
  191SAPI    HA22063   5.533   3.424   2.254 -0.0378 -1.7660  3.6595
  191SAPI    HB22064   5.660   3.551   2.241  1.5825 -0.8073  2.4278
  191SAPI    C222065   5.605   3.481   2.434 -0.3469  0.3930  0.2831
  191SAPI    HS22066   5.518   3.426   2.477 -0.0978  0.6678  1.1764
  191SAPI   O2122067   5.647   3.596   2.504 -0.3253 -0.0167  0.3262
  191SAPI   C2122068   5.563   3.646   2.593  0.7085 -0.0918  0.4852
  191SAPI   O2222069   5.454   3.605   2.620  0.5511  0.3343 -0.2947
  191SAPI   C2222070   5.629   3.772   2.651  0.5918 -0.1238  0.3368
  191SAPI   H2R22071   5.705   3.736   2.724 -1.1097 -0.2922  2.1206
  191SAPI   H2S22072   5.677   3.835   2.573 -0.8492  1.6570  0.7995
  191SAPI    C322073   5.734   3.387   2.430 -0.4979  0.1665  0.2284
  191SAPI    HX22074   5.821   3.443   2.388  0.3596 -1.5271 -0.3562
  191SAPI    HY22075   5.705   3.298   2.371 -0.7367 -0.3963  1.1832
  191SAPI   O3122076   5.788   3.356   2.561 -0.9228  0.5413 -0.5525
  191SAPI   C3122077   5.739   3.245   2.610  0.2622 -0.2491 -0.3057
  191SAPI   O3222078   5.634   3.192   2.577 -0.2956 -0.4466 -0.2504
  191SAPI   C3222079   5.823   3.186   2.722 -0.1991 -0.1264 -0.4403
  191SAPI   H2X22080   5.823   3.262   2.804 -2.8629 -1.0701  0.5291
  191SAPI   H2Y22081   5.926   3.160   2.689 -0.3440  0.9822 -1.8570
  191SAPI   C2322082   5.541   3.870   2.734  0.5324 -0.1255 -0.3192
  191SAPI   H3R22083   5.439   3.878   2.691  0.5023 -0.2071 -0.2627
  191SAPI   H3S22084   5.583   3.973   2.733  0.0614  0.0713  0.2066
  191SAPI   C2422085   5.533   3.826   2.877  0.1690  0.5783 -0.2613
  191SAPI   H4R22086   5.633   3.821   2.925 -1.3016  0.4356  3.0771
  191SAPI   H4S22087   5.502   3.719   2.884 -0.4190  0.8608  2.7703
  191SAPI   C2522088   5.447   3.897   2.975  0.2309  0.6464  0.3013
  191SAPI   H5R22089   5.346   3.917   2.938 -0.1556  1.0994  1.5564
  191SAPI   C2622090   5.493   3.971   3.080  0.0891  0.4612  0.2195
  191SAPI   H6R22091   5.419   4.018   3.146 -1.8181  0.7976 -2.0141
  191SAPI   C2722092   5.632   3.961   3.135  0.3134 -0.3934 -0.1164
  191SAPI   H7R22093   5.711   3.952   3.058  0.1494 -0.1881 -0.3101
  191SAPI   H7S22094   5.629   3.861   3.183  1.6275 -0.0739  0.6590
  191SAPI   C2822095   5.673   4.060   3.246 -0.4681  0.3139 -0.1094
  191SAPI   H8R22096   5.720   4.156   3.221 -2.4339  1.5084  0.6113
  191SAPI   C2922097   5.636   4.036   3.377  0.6764 -0.6743 -0.2962
  191SAPI   H9R22098   5.659   4.110   3.455 -1.0192  0.1883 -0.5659
  191SAPI  C21022099   5.570   3.915   3.441  0.4466 -1.1580 -0.0486
  191SAPI  H10R22100   5.634   3.872   3.521  1.8435  1.4733  0.3958
  191SAPI  H10S22101   5.559   3.826   3.376  1.7820 -1.6246  0.3395
  191SAPI  C21122102   5.425   3.942   3.500  0.9990 -0.2978  0.8686
  191SAPI  H11R22103   5.341   3.955   3.431  0.6054 -3.4567  0.5756
  191SAPI  C21222104   5.388   3.935   3.631  0.1232  0.3640 -0.0696
  191SAPI  H12R22105   5.285   3.948   3.665  0.2529  1.0350  0.0736
  191SAPI  C21322106   5.498   3.910   3.731 -0.6164  0.1288  0.0867
  191SAPI  H13R22107   5.570   3.827   3.712 -0.2367  0.1267  1.4325
  191SAPI  H13S22108   5.451   3.906   3.831  1.1315 -2.1458  0.9090
  191SAPI  C21422109   5.592   4.027   3.741  0.4104  0.0796 -0.6102
  191SAPI  H14R22110   5.545   4.121   3.704 -2.5502 -0.3229  1.7351
  191SAPI  C21522111   5.718   4.028   3.795 -0.3365  0.7834 -0.7683
  191SAPI  H15R22112   5.784   4.115   3.780  1.3938 -0.3682 -0.0925
  191SAPI  C21622113   5.796   3.905   3.837  0.0954 -0.1512 -0.5987
  191SAPI  H16R22114   5.900   3.928   3.805 -0.3578  4.3323  0.4038
  191SAPI  H16S22115   5.771   3.812   3.781  1.8664  0.2953 -2.2506
  191SAPI  C21722116   5.789   3.883   3.988 -0.5803 -0.2863  0.4312
  191SAPI  H17R22117   5.689   3.848   4.022 -1.0798  0.4511 -0.2483
  191SAPI  H17S22118   5.811   3.969   4.055 -2.3374  3.2459 -3.1460
  191SAPI  C21822119   5.878   3.772   4.031 -0.9379 -0.4327 -0.0796
  191SAPI  H18R22120   5.849   3.679   3.977  2.3243 -1.0589 -1.0107
  191SAPI  H18S22121   5.871   3.753   4.141  0.0864  0.9367  0.2538
  191SAPI  C21922122   6.024   3.796   4.000  0.3191  0.2135 -0.1997
  191SAPI  H19R22123   6.043   3.896   4.042 -3.0266  0.8759  0.0534
  191SAPI  H19S22124   6.038   3.804   3.890 -1.1729 -0.5634 -0.4770
  191SAPI  C22022125   6.114   3.682   4.051 -0.9113  0.0463  0.0543
  191SAPI  H20R22126   6.218   3.706   4.018 -1.3059 -0.4608 -1.6423
  191SAPI  H20S22127   6.093   3.584   4.003  1.7823 -0.3157 -0.5553
  191SAPI  H20T22128   6.107   3.669   4.161 -1.7479  0.4707  0.0558
  191SAPI   C3322129   5.749   3.061   2.785 -0.4727  0.1124  0.1857
  191SAPI   H3X22130   5.760   2.983   2.706 -1.5728 -0.0392  0.1718
  191SAPI   H3Y22131   5.641   3.083   2.796 -1.1043 -0.9926 -2.8212
  191SAPI   C3422132   5.820   3.008   2.922  0.5885  0.2754 -0.0426
  191SAPI   H4X22133   5.929   3.029   2.912  0.2407  1.9766 -0.6810
  191SAPI   H4Y22134   5.796   2.900   2.920 -0.3031  0.4254 -2.9144
  191SAPI   C3522135   5.754   3.077   3.046  0.2340 -0.2912 -0.0101
  191SAPI   H5X22136   5.644   3.063   3.045  0.0678  0.9813 -0.1743
  191SAPI   H5Y22137   5.779   3.185   3.039  2.0750 -0.7303 -0.9668
  191SAPI   C3622138   5.826   3.035   3.177 -0.4060  0.0273  0.3911
  191SAPI   H6X22139   5.934   3.061   3.174 -0.3406 -0.3219 -0.8072
  191SAPI   H6Y22140   5.833   2.924   3.184 -0.3117  0.0050 -0.0398
  191SAPI   C3722141   5.773   3.099   3.304  0.1833 -0.3349 -0.2584
  191SAPI   H7X22142   5.663   3.101   3.285  0.4245  0.3866 -1.7321
  191SAPI   H7Y22143   5.806   3.204   3.318  1.9321 -0.3673 -3.2825
  191SAPI   C3822144   5.804   3.022   3.434  0.8212  0.1244  0.3175
  191SAPI   H8X22145   5.914   3.009   3.442  0.6246 -2.6218 -0.3403
  191SAPI   H8Y22146   5.751   2.925   3.420  0.0470  0.6956 -0.8380
  191SAPI   C3922147   5.733   3.084   3.557 -0.3458 -0.2600 -0.2631
  191SAPI   H9X22148   5.624   3.088   3.537 -0.2984  0.7642 -0.3276
  191SAPI   H9Y22149   5.762   3.191   3.565  2.7852 -0.8662 -1.7684
  191SAPI  C31022150   5.767   3.000   3.685  0.7267  0.2055 -0.4850
  191SAPI  H10X22151   5.876   3.012   3.702  0.8076  0.0589 -0.8791
  191SAPI  H10Y22152   5.749   2.894   3.659  0.7998 -0.0547  0.5000
  191SAPI  C31122153   5.685   3.044   3.805  0.0765 -0.9632 -0.1187
  191SAPI  H11X22154   5.693   2.967   3.885  1.1671 -0.6422  0.1020
  191SAPI  H11Y22155   5.585   3.032   3.758  0.3527 -0.5856 -0.8189
  191SAPI  C31222156   5.706   3.188   3.852  0.3797  0.3527 -0.5843
  191SAPI  H12X22157   5.675   3.254   3.768 -1.7683  0.3799  0.1589
  191SAPI  H12Y22158   5.811   3.218   3.872  0.0340  0.8333  0.5850
  191SAPI  C31322159   5.633   3.222   3.980 -0.1207 -0.2222  0.0483
  191SAPI  H13X22160   5.658   3.148   4.059 -3.3070  0.0015  1.4330
  191SAPI  H13Y22161   5.524   3.219   3.963 -0.0226 -2.1874 -0.3824
  191SAPI  C31422162   5.672   3.360   4.038 -0.0464 -0.7606 -0.4253
  191SAPI  H14X22163   5.659   3.441   3.963 -1.5770 -0.1404  0.4708
  191SAPI  H14Y22164   5.780   3.355   4.063 -0.1812 -4.4014  0.0135
  191SAPI  C31522165   5.595   3.401   4.165  0.3274 -0.3296  0.0182
  191SAPI  H15X22166   5.619   3.335   4.251 -1.0860  0.2123  0.8538
  191SAPI  H15Y22167   5.488   3.411   4.136  0.8498  0.2898 -1.8786
  191SAPI  C31622168   5.647   3.538   4.198  0.4040 -0.5008 -0.4006
  191SAPI  H16X22169   5.640   3.613   4.116 -1.6700  0.6614  0.7579
  191SAPI  H16Y22170   5.754   3.532   4.227  0.7209 -0.0815 -1.4386
  191SAPI  C31722171   5.560   3.599   4.312  0.1940  0.2494 -0.9896
  191SAPI  H17X22172   5.592   3.559   4.410 -1.3290  0.2624 -0.4550
  191SAPI  H17Y22173   5.452   3.574   4.306  0.1445  0.0360  0.4729
  191SAPI  C31822174   5.586   3.750   4.321  0.3004 -0.5743  1.0375
  191SAPI  H18X22175   5.512   3.791   4.393  0.9886 -0.4761  1.7008
  191SAPI  H18Y22176   5.572   3.789   4.218 -1.6086  0.6510  1.7067
  191SAPI  H18Z22177   5.687   3.777   4.359  0.4060  0.7522 -0.1400
  192SAPI   C1222178   0.109   1.013   2.214  0.4575 -0.4049  0.3615
  192SAPI    H222179   0.133   1.026   2.322  0.3304  1.2176  0.2296
  192SAPI    O222180   0.075   1.141   2.169  0.0122 -1.0673 -0.2591
  192SAPI   HO222181  -0.020   1.150   2.171  0.1561  0.7289 -0.2455
  192SAPI   C1322182   0.234   0.972   2.145 -0.2328  0.7621  0.2112
  192SAPI    H322183   0.265   0.873   2.184  1.0993  1.6770  1.5467
  192SAPI    O322184   0.354   1.048   2.166 -0.5908 -0.3989 -0.0264
  192SAPI   HO322185   0.374   1.090   2.082 -2.2090  0.9604  0.2260
  192SAPI   C1422186   0.207   0.950   1.994 -0.6698 -0.4382  0.4418
  192SAPI    H422187   0.207   1.052   1.951  0.4925 -0.8123 -0.5016
  192SAPI    O422188   0.327   0.895   1.926 -0.0143 -0.0087 -0.5597
  192SAPI   HO422189   0.334   0.802   1.948  2.4054 -0.0248 -1.1020
  192SAPI   C1522190   0.077   0.878   1.957  0.5434  0.2397  0.2316
  192SAPI    H522191   0.113   0.773   1.951  1.3491  0.5291 -0.2562
  192SAPI    O522192   0.039   0.907   1.817  0.0164 -0.1353 -0.2884
  192SAPI   HO522193   0.071   0.844   1.752 -0.7068 -0.6239 -0.1803
  192SAPI   C1622194  -0.047   0.893   2.049  0.1356 -0.1940  0.3855
  192SAPI    H622195  -0.093   0.987   2.013  1.8830  1.2786  1.7958
  192SAPI    O622196  -0.142   0.788   2.031 -0.0465  0.0585  0.1877
  192SAPI   HO622197  -0.230   0.823   2.044 -0.4959 -0.8573 -0.2710
  192SAPI   C1122198  -0.009   0.913   2.195 -0.0896 -0.5937 -0.2106
  192SAPI    H122199   0.016   0.808   2.224  1.4996 -0.3889 -0.7507
  192SAPI     P22200  -0.141   0.914   2.424 -0.0884 -0.0305  0.1415
  192SAPI   O1322201  -0.089   0.774   2.438 -0.0583  0.3738 -0.3202
  192SAPI   O1422202  -0.280   0.935   2.476 -0.0822  0.1581 -0.0187
  192SAPI   O1222203  -0.128   0.961   2.263 -0.4285  0.6280 -0.0927
  192SAPI   O1122204  -0.055   1.015   2.505 -0.4806 -0.6311 -0.1552
  192SAPI    C122205  -0.075   1.154   2.509 -0.5848 -0.3309 -0.8991
  192SAPI    HA22206   0.014   1.200   2.462  0.5788 -0.2277  1.2827
  192SAPI    HB22207  -0.162   1.187   2.448  0.8540  4.0247 -0.8897
  192SAPI    C222208  -0.088   1.196   2.662  0.1968  0.0032 -0.1500
  192SAPI    HS22209  -0.136   1.296   2.675 -0.9981 -0.4720 -0.7621
  192SAPI   O2122210   0.047   1.194   2.709  0.1385 -0.6283  0.4089
  192SAPI   C2122211   0.116   1.303   2.683  0.2041 -0.1797  0.3393
  192SAPI   O2222212   0.075   1.409   2.630  0.0791 -0.2529  0.0155
  192SAPI   C2222213   0.245   1.295   2.757  0.0427 -0.0670 -0.3081
  192SAPI   H2R22214   0.290   1.193   2.760  0.1931 -0.1065 -2.2688
  192SAPI   H2S22215   0.320   1.352   2.698  0.7381 -2.3695 -1.7868
  192SAPI    C322216  -0.165   1.094   2.752 -0.4266 -0.6728 -0.1794
  192SAPI    HX22217  -0.105   1.000   2.753  2.5957  1.1204  0.6800
  192SAPI    HY22218  -0.265   1.070   2.710 -0.1580 -0.4067 -0.9886
  192SAPI   O3122219  -0.184   1.154   2.885  0.2067  0.0135 -0.4887
  192SAPI   C3122220  -0.147   1.084   2.994  0.2083 -0.0809  0.0128
  192SAPI   O3222221  -0.090   0.979   2.997  0.3519  0.0260  0.1704
  192SAPI   C3222222  -0.183   1.171   3.122  0.3219 -0.0266  0.2162
  192SAPI   H2X22223  -0.255   1.252   3.099 -1.2873 -1.2196  0.7866
  192SAPI   H2Y22224  -0.095   1.224   3.164 -1.0750  0.3133  2.9373
  192SAPI   C2322225   0.239   1.363   2.895 -0.3016 -0.8241  0.5147
  192SAPI   H3R22226   0.201   1.467   2.885 -0.9089 -1.2713 -3.1168
  192SAPI   H3S22227   0.343   1.368   2.935 -0.9437 -1.1847  2.3431
  192SAPI   C2422228   0.143   1.295   2.989 -0.5743 -0.3651 -0.1656
  192SAPI   H4R22229   0.042   1.293   2.944 -0.4742  1.1381 -0.5126
  192SAPI   H4S22230   0.135   1.377   3.064  0.3739 -1.1159  0.8002
  192SAPI   C2522231   0.188   1.165   3.049 -0.2811 -0.4038 -0.2003
  192SAPI   H5R22232   0.164   1.079   2.985 -2.5544 -0.1897  0.2919
  192SAPI   C2622233   0.235   1.139   3.168 -0.1721 -0.9372 -0.1811
  192SAPI   H6R22234   0.252   1.033   3.190  0.1426 -0.4632  2.1519
  192SAPI   C2722235   0.289   1.232   3.275  0.1413  0.3679 -0.4172
  192SAPI   H7R22236   0.329   1.325   3.229 -1.9766  0.9627 -1.1269
  192SAPI   H7S22237   0.368   1.171   3.324  0.5648 -1.8611 -3.5826
  192SAPI   C2822238   0.188   1.262   3.384  0.2648 -0.7973 -0.0608
  192SAPI   H8R22239   0.114   1.338   3.355  0.3576 -1.0716 -1.0437
  192SAPI   C2922240   0.168   1.190   3.498  0.2345 -0.8334  0.3221
  192SAPI   H9R22241   0.087   1.214   3.568  0.6089  1.9620 -0.1013
  192SAPI  C21022242   0.266   1.088   3.554 -0.3199 -0.3667 -0.3649
  192SAPI  H10R22243   0.338   1.044   3.482 -1.2384 -0.0059 -1.5572
  192SAPI  H10S22244   0.209   1.002   3.595  1.7143 -0.9888  1.2761
  192SAPI  C21122245   0.345   1.141   3.673  0.0565 -0.1412  0.1827
  192SAPI  H11R22246   0.379   1.245   3.668  0.6820 -0.2440  1.6218
  192SAPI  C21222247   0.370   1.077   3.789 -0.4012  0.0844  0.7076
  192SAPI  H12R22248   0.420   1.129   3.873  1.5936 -0.4047 -0.1238
  192SAPI  C21322249   0.335   0.942   3.832  0.2102  0.3859  0.0428
  192SAPI  H13R22250   0.319   0.879   3.742 -1.4796 -1.6797  1.6710
  192SAPI  H13S22251   0.234   0.951   3.877 -0.4897 -0.6320 -1.2446
  192SAPI  C21422252   0.429   0.890   3.938  0.2126  0.4968 -0.4583
  192SAPI  H14R22253   0.531   0.928   3.954  0.6159 -1.2432  1.5887
  192SAPI  C21522254   0.396   0.804   4.045  0.0253  0.4401  0.1077
  192SAPI  H15R22255   0.479   0.783   4.113 -0.2701  3.5700  1.6240
  192SAPI  C21622256   0.259   0.741   4.059 -0.1345 -0.3829 -0.2640
  192SAPI  H16R22257   0.266   0.641   4.107  1.0413  0.4430  1.4067
  192SAPI  H16S22258   0.199   0.729   3.967 -0.9288  2.1578 -0.1408
  192SAPI  C21722259   0.166   0.813   4.158 -0.2671 -1.2447  0.5296
  192SAPI  H17R22260   0.146   0.918   4.126 -1.4494 -1.0438  1.8385
  192SAPI  H17S22261   0.210   0.815   4.259 -0.1119 -0.9859  0.4564
  192SAPI  C21822262   0.028   0.744   4.174  0.3168  0.2968  0.2491
  192SAPI  H18R22263  -0.002   0.670   4.097 -0.4731 -1.0432  1.7840
  192SAPI  H18S22264  -0.045   0.826   4.157 -0.6901 -1.0554 -2.4945
  192SAPI  C21922265   0.007   0.661   4.303 -0.3827  0.5054  0.2736
  192SAPI  H19R22266  -0.095   0.618   4.296 -0.5762  1.0313 -0.1779
  192SAPI  H19S22267   0.003   0.736   4.385  0.5547  1.3243 -0.4146
  192SAPI  C22022268   0.118   0.564   4.350  0.1696 -0.1934 -0.3811
  192SAPI  H20R22269   0.121   0.555   4.460  0.7671  0.4159 -0.3422
  192SAPI  H20S22270   0.218   0.603   4.322 -0.3997  0.5181 -1.5286
  192SAPI  H20T22271   0.107   0.473   4.288 -1.3273 -1.6713  1.8977
  192SAPI   C3322272  -0.244   1.089   3.233 -0.7536 -0.2667 -0.0005
  192SAPI   H3X22273  -0.165   1.021   3.273  2.9598  3.1713 -0.7960
  192SAPI   H3Y22274  -0.331   1.027   3.205 -0.3842 -0.3225 -1.0645
  192SAPI   C3422275  -0.293   1.178   3.352 -0.2989 -0.2675  0.6771
  192SAPI   H4X22276  -0.367   1.257   3.329  0.9833  1.0539  0.9387
  192SAPI   H4Y22277  -0.203   1.237   3.380 -0.8724  1.3780 -0.8236
  192SAPI   C3522278  -0.353   1.085   3.458  0.7005  0.1264 -0.2030
  192SAPI   H5X22279  -0.276   1.023   3.510 -0.8273  0.4589  2.6752
  192SAPI   H5Y22280  -0.424   1.024   3.398  4.2240 -2.3369 -2.2520
  192SAPI   C3622281  -0.434   1.146   3.578  0.6519  0.4848  0.3762
  192SAPI   H6X22282  -0.439   1.062   3.649  3.4777 -0.6172 -0.5868
  192SAPI   H6Y22283  -0.533   1.176   3.538 -1.1027 -2.2494  2.4356
  192SAPI   C3722284  -0.372   1.271   3.643 -0.1861 -0.0854  0.0446
  192SAPI   H7X22285  -0.369   1.350   3.564 -1.3904 -0.8306 -0.7723
  192SAPI   H7Y22286  -0.266   1.245   3.666 -0.7793 -2.8975 -0.1136
  192SAPI   C3822287  -0.455   1.317   3.762  0.4862 -0.0797  0.0064
  192SAPI   H8X22288  -0.560   1.279   3.761  0.2501  0.4919 -2.1948
  192SAPI   H8Y22289  -0.461   1.428   3.760 -2.1599 -0.0166  3.0059
  192SAPI   C3922290  -0.404   1.285   3.907 -0.3923  0.3655 -0.5328
  192SAPI   H9X22291  -0.301   1.325   3.903  0.0397 -0.7871 -1.3080
  192SAPI   H9Y22292  -0.401   1.174   3.910 -0.6603  0.3698  0.0183
  192SAPI  C31022293  -0.480   1.338   4.028 -0.3005 -0.8942  0.3663
  192SAPI  H10X22294  -0.564   1.271   4.057 -0.0772 -0.5475  1.9218
  192SAPI  H10Y22295  -0.494   1.446   4.010  0.4282 -0.8707 -0.0685
  192SAPI  C31122296  -0.388   1.337   4.153 -0.2605 -0.5881 -0.1256
  192SAPI  H11X22297  -0.303   1.407   4.145  0.0755 -0.9792 -0.0311
  192SAPI  H11Y22298  -0.341   1.237   4.165  0.9466 -0.0380 -0.1709
  192SAPI  C31222299  -0.472   1.372   4.281 -0.3120 -0.2453  0.1169
  192SAPI  H12X22300  -0.533   1.281   4.296  0.2631 -0.7847 -0.7364
  192SAPI  H12Y22301  -0.539   1.458   4.259  0.4213  0.1501 -0.5902
  192SAPI  C31322302  -0.400   1.383   4.416  0.1756 -0.0344 -0.4880
  192SAPI  H13X22303  -0.365   1.282   4.444  0.8576  0.3948  0.2563
  192SAPI  H13Y22304  -0.476   1.419   4.489  0.8323  0.4164 -0.0209
  192SAPI  C31422305  -0.269   1.473   4.417  0.5485  0.3527  0.2116
  192SAPI  H14X22306  -0.195   1.407   4.367  1.8444  0.9328  1.3198
  192SAPI  H14Y22307  -0.234   1.492   4.520  3.8240 -0.6506 -0.6039
  192SAPI  C31522308  -0.278   1.608   4.348  0.2919  0.1405 -0.3574
  192SAPI  H15X22309  -0.342   1.677   4.407  0.6381 -0.2505  0.4927
  192SAPI  H15Y22310  -0.317   1.594   4.245 -0.3078  1.0318 -0.2676
  192SAPI  C31622311  -0.138   1.674   4.347  0.5201 -0.7003  0.4595
  192SAPI  H16X22312  -0.073   1.619   4.276  2.9394  2.1152  0.3052
  192SAPI  H16Y22313  -0.090   1.675   4.447 -2.1883 -1.3061  1.8680
  192SAPI  C31722314  -0.138   1.813   4.274  0.5205  0.1436 -0.9817
  192SAPI  H17X22315  -0.040   1.866   4.267 -0.6757  3.1493  2.0314
  192SAPI  H17Y22316  -0.196   1.879   4.342 -1.6495 -0.9822 -1.6601
  192SAPI  C31822317  -0.200   1.812   4.131 -0.2269 -0.1712  0.1699
  192SAPI  H18X22318  -0.153   1.727   4.075 -0.1000  0.9161 -1.4496
  192SAPI  H18Y22319  -0.189   1.897   4.060 -2.2576 -1.5134 -1.8893
  192SAPI  H18Z22320  -0.307   1.782   4.133 -0.0555 -0.7687  0.8884
  193SOD    SOD22321   6.651   4.294   6.963 -0.3207  0.4474 -0.2355
  194SOD    SOD22322   0.775   1.086   6.671 -0.0228 -0.1509  0.0908
  195SOD    SOD22323   5.508   3.619   1.050  0.0515  0.0709  0.0940
  196SOD    SOD22324   0.382   1.816   2.109  0.5288  0.1333  0.0846
  197SOD    SOD22325   2.835   5.564   0.640 -0.9225  0.3189  0.3571
  198SOD    SOD22326   2.246   0.523   7.162  0.0879 -0.3476  0.1075
  199SOD    SOD22327   3.969   4.778   0.763 -0.4367 -0.3282  0.1033
  200SOD    SOD22328   3.623   0.984   7.482  0.0713 -0.3909  0.6337
  201SOD    SOD22329   3.348   2.257   6.550  0.2032 -0.5623 -0.1608
  202SOD    SOD22330   0.288   6.599   7.887 -0.1175 -0.0900  0.0147
  203SOD    SOD22331   3.625   2.054   7.272  0.3028 -0.1956  0.4005
  204SOD    SOD22332   1.223   0.302   7.398  0.3247 -0.0827  0.4070
  205SOD    SOD22333   1.341   3.655   6.289  0.1818 -0.1459  0.0899
  206SOD    SOD22334   5.666   6.553   8.592  0.1587 -0.3758 -0.5676
  207SOD    SOD22335   2.071   5.086   0.929  0.2825  0.0982  0.4049
  208SOD    SOD22336   0.147   2.504   0.301  0.4710 -0.1133 -0.3432
  209SOD    SOD22337   6.839   0.062   1.183 -0.1139  0.1048 -0.0384
  210SOD    SOD22338   4.677   1.333   0.916 -0.3914  0.0778  0.0499
  211SOD    SOD22339   4.990   5.391   0.928 -0.3702  0.1587 -0.6263
  212SOD    SOD22340   5.344   3.496   8.413 -0.4639 -0.6819  0.2824
  213SOD    SOD22341   0.634   2.279   6.400 -0.0238 -0.0797  0.0728
  214SOD    SOD22342   4.829   3.908   2.231  0.0170  0.4566  0.3164
  215SOD    SOD22343   5.174   5.583   2.385  0.1833  0.4526 -0.0841
  216SOD    SOD22344   6.764   5.305   0.640  0.3277  0.0477  0.0576
  217SOD    SOD22345   0.073   5.279   7.557  0.0546 -0.0958 -0.0560
  218SOD    SOD22346   3.727   1.186   7.998 -0.3619  0.3903  0.0372
  219SOD    SOD22347   2.599   1.911   1.160  0.2280 -0.2950 -0.1343
  220SOD    SOD22348   0.080   4.658   0.862  0.0097  0.3779  0.0677
  221SOD    SOD22349   4.291   0.227   1.473  0.1018  0.5097  0.1975
  222SOD    SOD22350   1.165   3.981   7.399  0.2307  0.0430 -0.6010
  223SOD    SOD22351   1.969   0.753   8.355  0.7237  0.0291  0.0634
  224SOD    SOD22352   1.559   0.782   1.888  0.6074  0.0226 -0.2936
  225SOD    SOD22353   0.809   0.407   2.641 -0.1691  0.3087  0.3462
  226SOD    SOD22354   5.127   3.974   0.413  0.1058  0.2640 -0.2269
  227SOD    SOD22355   1.933   2.978   0.503 -0.2053  0.0967 -0.3558
  228SOD    SOD22356   3.380   6.141   0.731 -0.2482  0.1417 -0.2559
  229SOD    SOD22357   6.335   3.577   8.002 -0.0430  0.0688 -0.0021
  230CLA    CLA22358   4.076   4.476   7.904  0.1671 -0.2939  0.0778
  231CLA    CLA22359   0.336   2.962   0.137 -0.1536  0.2740 -0.1566
  232CLA    CLA22360   3.561   1.145   8.447 -0.6339  0.0093  0.0576
  233CLA    CLA22361   5.609   6.573   1.618  0.5026 -0.2453 -0.0557
  234CLA    CLA22362   4.799   0.684   8.551  0.0268  0.0204  0.0499
  235CLA    CLA22363   0.992   1.951   0.038 -0.2853 -0.2296 -0.2815
  236CLA    CLA22364   0.292   3.354   1.284 -0.0983 -0.2903 -0.4733
  237CLA    CLA22365   2.534   0.870   6.957  0.1020 -0.4474  0.0800
  238CLA    CLA22366   0.164   0.253   8.208  0.0542 -0.3108  0.1934
  239CLA    CLA22367   1.899   1.449   0.022 -0.4060 -0.0137 -0.1808
  240CLA    CLA22368   0.602   5.983   0.196  0.3785  0.2479  0.3699
  241CLA    CLA22369   5.251   4.206   8.480 -0.3572  0.2580 -0.0576
  242CLA    CLA22370   5.265   5.594   1.394  0.0280  0.1672 -0.4237
  243CLA    CLA22371   0.668   5.567   0.590  0.0673 -0.1506  0.2880
  244CLA    CLA22372   1.153   5.337   7.558 -0.1443  0.0181  0.0127
  245CLA    CLA22373   0.893   5.978   7.607 -0.0905  0.1937  0.1357
  246CLA    CLA22374   2.246   4.485   8.195 -0.2488  0.0996  0.0609
  247TIP3   OH222375   4.680   4.325   7.555 -0.1221  0.4153 -0.0541
  247TIP3    H122376   4.761   4.328   7.607 -0.1013 -1.0437  0.0211
  247TIP3    H222377   4.610   4.330   7.620 -0.0991  0.4692 -0.0327
  248TIP3   OH222378   1.122   6.844   8.422 -0.5147  0.2209 -0.1088
  248TIP3    H122379   1.078   6.759   8.434  0.4317 -0.2694 -0.0230
  248TIP3    H222380   1.191   6.844   8.488  1.2173 -0.1014 -1.8232
  249TIP3   OH222381   6.571   3.083   8.282 -0.0008 -0.3001 -0.0735
  249TIP3    H122382   6.654   3.118   8.312  0.6731 -2.3048  0.6033
  249TIP3    H222383   6.554   3.008   8.339 -1.5840 -0.7702 -1.0728
  250TIP3   OH222384   5.106   6.381   8.467 -0.0528 -0.5054 -0.2474
  250TIP3    H122385   5.052   6.319   8.517  1.7595 -2.3107 -0.3775
  250TIP3    H222386   5.077   6.370   8.376  0.7438 -1.7790 -0.3754
  251TIP3   OH222387   5.446   3.571   0.835  0.2333  0.0221  0.4080
  251TIP3    H122388   5.500   3.581   0.756 -1.5354 -1.7219 -1.1156
  251TIP3    H222389   5.382   3.641   0.829  0.6631  0.4637  0.8284
  252TIP3   OH222390   2.603   0.697   0.546 -0.4172 -0.1036 -0.0637
  252TIP3    H122391   2.534   0.762   0.530 -0.1301  0.1902 -0.1204
  252TIP3    H222392   2.669   0.716   0.479 -0.1416 -0.1887  0.1827
  253TIP3   OH222393   0.311   3.443   1.584 -0.4847  0.3697 -0.0257
  253TIP3    H122394   0.290   3.464   1.493 -2.2156  0.9221  0.4732
  253TIP3    H222395   0.383   3.379   1.578 -1.1039 -0.2179 -1.7918
  254TIP3   OH222396   2.267   1.979   2.178  0.0893  0.4721  0.1374
  254TIP3    H122397   2.313   2.030   2.112  0.5635  0.2464  0.2933
  254TIP3    H222398   2.295   1.889   2.164 -0.3447  0.3217  0.1993
  255TIP3   OH222399   3.590   6.432   7.322  0.1436  0.6069 -0.9945
  255TIP3    H122400   3.585   6.340   7.296 -0.2393  0.3408 -0.0331
  255TIP3    H222401   3.525   6.440   7.393  0.4888  1.5100 -0.7691
  256TIP3   OH222402   4.909   1.010   1.147 -0.4142 -0.5553 -0.4946
  256TIP3    H122403   4.994   1.030   1.186  0.5923 -0.5537 -2.5335
  256TIP3    H222404   4.856   1.088   1.163 -0.2621 -0.7801  1.3073
  257TIP3   OH222405   4.310   5.799   6.118 -0.0204  0.2496 -0.3631
  257TIP3    H122406   4.233   5.832   6.072 -1.0884 -2.3995 -0.6342
  257TIP3    H222407   4.276   5.761   6.199  1.0676 -0.5072 -0.2370
  258TIP3   OH222408   0.671   4.031   7.333 -0.3016 -0.2930 -0.0556
  258TIP3    H122409   0.680   4.095   7.263 -0.5255  0.3882  0.5296
  258TIP3    H222410   0.760   4.001   7.351 -0.1482  0.1858 -0.0194
  259TIP3   OH222411   4.200   3.739   2.091  0.2083 -0.5535  0.6860
  259TIP3    H122412   4.239   3.742   2.003 -0.2752  0.9811  0.4809
  259TIP3    H222413   4.114   3.698   2.077 -0.0793  0.1444  0.3305
  260TIP3   OH222414   4.970   2.580   2.424 -0.1090 -0.8277  0.3759
  260TIP3    H122415   4.916   2.656   2.443  2.2369  0.5293  2.1780
  260TIP3    H222416   4.934   2.511   2.480 -1.8530 -0.9359 -0.7995
  261TIP3   OH222417   6.036   5.889   7.715  0.6203  0.0309 -0.2043
  261TIP3    H122418   6.011   5.968   7.667 -0.8788 -0.4370 -0.2137
  261TIP3    H222419   6.103   5.920   7.777 -0.4849  1.4751  0.3371
  262TIP3   OH222420   3.213   3.636   8.269 -0.0877  0.3947 -0.0488
  262TIP3    H122421   3.180   3.603   8.353 -1.3953  2.7012  0.4382
  262TIP3    H222422   3.257   3.718   8.292 -2.4075  2.2629 -1.7727
  263TIP3   OH222423   4.489   6.554   8.350 -0.0890 -0.6153 -0.6089
  263TIP3    H122424   4.502   6.584   8.260 -0.7191  0.6788 -0.2827
  263TIP3    H222425   4.431   6.478   8.342 -1.3211  0.3729 -1.1974
  264TIP3   OH222426   1.154   0.080   1.022  0.5814 -0.1665 -0.3270
  264TIP3    H122427   1.086   0.051   1.083  0.0397 -0.6225 -1.1239
  264TIP3    H222428   1.208   0.002   1.008  0.4450 -0.1874 -0.7558
  265TIP3   OH222429   5.298   3.451   7.246  0.4704  0.4863 -0.1708
  265TIP3    H122430   5.220   3.412   7.206 -0.5585  0.8752  1.3546
  265TIP3    H222431   5.306   3.537   7.204 -0.6302  0.9159  0.4563
  266TIP3   OH222432   4.572   2.901   7.276  0.4228  0.4277  0.0865
  266TIP3    H122433   4.504   2.960   7.308 -1.3673 -1.3116 -0.2751
  266TIP3    H222434   4.558   2.897   7.182 -2.0483 -3.3446  0.4204
  267TIP3   OH222435   3.272   4.566   0.257 -0.6200 -0.2115 -0.0178
  267TIP3    H122436   3.258   4.655   0.223  1.3670  0.1210 -0.0808
  267TIP3    H222437   3.309   4.579   0.344  1.2779 -0.9103 -0.6793
  268TIP3   OH222438   3.332   4.647   7.561  0.2346 -0.1103 -0.5018
  268TIP3    H122439   3.369   4.668   7.647 -0.2175  0.2982 -0.3990
  268TIP3    H222440   3.385   4.574   7.529  0.5530 -0.1167  0.0239
  269TIP3   OH222441   0.210   6.118   8.028 -0.3095 -0.7180 -0.3570
  269TIP3    H122442   0.200   6.056   7.955 -0.3286 -0.8854 -0.2133
  269TIP3    H222443   0.127   6.113   8.075 -0.9439  0.6379 -1.2801
  270TIP3   OH222444   6.595   0.671   7.417  0.3321 -0.0578  0.0548
  270TIP3    H122445   6.591   0.578   7.397  0.3427 -0.0246 -0.1025
  270TIP3    H222446   6.542   0.713   7.350 -0.8722 -0.0683  0.9548
  271TIP3   OH222447   4.176   4.638   8.369 -0.4589  0.3796  0.5125
  271TIP3    H122448   4.137   4.613   8.453  0.1581 -0.5044  0.5531
  271TIP3    H222449   4.105   4.628   8.306 -0.4906 -0.5804  0.6814
  272TIP3   OH222450   0.515   6.510   7.953 -0.1030  0.4681  0.4534
  272TIP3    H122451   0.584   6.465   7.904 -0.1308 -0.6648  1.4086
  272TIP3    H222452   0.543   6.504   8.045 -0.8978  1.0259  0.7451
  273TIP3   OH222453   4.634   3.319   7.780 -0.2677 -0.2010 -0.0980
  273TIP3    H122454   4.662   3.389   7.839 -1.3458 -1.8500  2.5527
  273TIP3    H222455   4.713   3.298   7.729 -0.1497  3.4362 -1.7073
  274TIP3   OH222456   0.274   2.872   1.544  0.2442 -0.1415 -0.3704
  274TIP3    H122457   0.343   2.887   1.609  1.4148  0.1553 -1.6385
  274TIP3    H222458   0.283   2.944   1.481 -0.9996 -0.2976 -0.7612
  275TIP3   OH222459   5.958   6.226   0.510 -0.0822 -0.0053 -0.0267
  275TIP3    H122460   6.026   6.275   0.465  1.4663  0.2888  2.4330
  275TIP3    H222461   5.971   6.136   0.482  0.3230  0.2614 -0.7310
  276TIP3   OH222462   6.845   5.078   7.197 -0.7998  0.0308 -0.0559
  276TIP3    H122463   6.791   5.080   7.118 -1.4874 -1.0276  0.3576
  276TIP3    H222464   6.830   4.991   7.234  1.0384 -0.2312  0.1950
  277TIP3   OH222465   2.991   2.965   0.376 -1.2109 -0.2839  0.0665
  277TIP3    H122466   3.011   2.965   0.469 -1.9803 -1.9774  0.2742
  277TIP3    H222467   2.901   2.934   0.370 -1.8780  1.6923 -1.1586
  278TIP3   OH222468   5.347   3.765   7.750  0.1882  0.2873 -0.0755
  278TIP3    H122469   5.439   3.793   7.747 -0.7619  3.8664 -0.3482
  278TIP3    H222470   5.320   3.762   7.658  0.2538 -1.9319 -0.0746
  279TIP3   OH222471   0.604   0.428   2.746  0.3319  0.8487  0.1679
  279TIP3    H122472   0.587   0.399   2.835  0.4696 -0.1137 -0.1092
  279TIP3    H222473   0.526   0.479   2.722  0.0694  0.6796  0.6551
  280TIP3   OH222474   5.403   6.548   1.107 -0.2559  0.1215 -0.1452
  280TIP3    H122475   5.360   6.633   1.092  1.1527  0.9179  0.1777
  280TIP3    H222476   5.408   6.541   1.202 -1.0932 -0.7311 -0.1471
  281TIP3   OH222477   4.981   2.564   2.160  0.0982 -0.4967 -0.6592
  281TIP3    H122478   4.989   2.588   2.252 -0.0890 -1.8099 -0.2822
  281TIP3    H222479   4.896   2.520   2.154  1.1146 -2.5865 -0.9175
  282TIP3   OH222480   2.077   5.055   1.874 -0.2767 -0.0363  0.6075
  282TIP3    H122481   2.032   5.139   1.861 -1.8506 -0.4100  2.9781
  282TIP3    H222482   2.018   4.990   1.835 -0.3744 -0.2638  1.1292
  283TIP3   OH222483   0.218   5.772   8.389 -0.3876  0.2957 -0.4902
  283TIP3    H122484   0.191   5.690   8.346 -0.5597 -0.5118  1.1046
  283TIP3    H222485   0.301   5.751   8.431 -0.4307  0.9515 -0.0698
  284TIP3   OH222486   3.405   0.942   1.065 -0.3597  0.0455  0.4914
  284TIP3    H122487   3.387   1.029   1.101 -0.1202  0.1677  0.3142
  284TIP3    H222488   3.499   0.931   1.075 -0.0440  0.6997 -1.4718
  285TIP3   OH222489   1.054   0.302   0.169  0.3946  0.1938  0.2361
  285TIP3    H122490   1.067   0.237   0.101  0.0341 -0.3828  0.7152
  285TIP3    H222491   1.051   0.252   0.251 -1.1232  0.6525  0.5018
  286TIP3   OH222492   5.515   5.807   2.019 -0.8788 -0.1752 -0.2360
  286TIP3    H122493   5.603   5.844   2.030 -0.9065 -0.3302  0.5657
  286TIP3    H222494   5.516   5.769   1.931 -0.5686  0.9487 -0.7362
  287TIP3   OH222495   5.917   0.677   7.905 -0.1321 -0.3268 -0.2612
  287TIP3    H122496   5.891   0.757   7.859  0.3909 -0.0706 -0.1265
  287TIP3    H222497   5.932   0.614   7.835 -0.0412 -0.1511 -0.4023
  288TIP3   OH222498   6.692   0.997   0.224  0.0214  0.3356 -0.2029
  288TIP3    H122499   6.757   1.058   0.190  1.1278 -0.5741  0.1830
  288TIP3    H222500   6.685   0.929   0.157 -0.3667  0.3185 -0.1449
  289TIP3   OH222501   2.672   6.762   8.427 -0.7319 -0.1905  0.2263
  289TIP3    H122502   2.646   6.748   8.336 -1.4321  0.1660  0.3652
  289TIP3    H222503   2.697   6.675   8.458 -0.1210 -0.2517 -0.4132
  290TIP3   OH222504   6.062   2.817   7.572  0.1982 -0.3652 -0.3180
  290TIP3    H122505   6.147   2.778   7.556 -0.0158 -2.3704  2.5581
  290TIP3    H222506   6.010   2.747   7.611 -1.6055  1.6976  1.3162
  291TIP3   OH222507   3.693   4.704   6.922 -0.0516 -0.4582 -0.3409
  291TIP3    H122508   3.617   4.647   6.908 -1.2518  1.5219 -2.5778
  291TIP3    H222509   3.716   4.736   6.835  0.6064  2.3905  0.7664
  292TIP3   OH222510   2.732   3.111   0.446  0.2249 -0.3269 -0.0004
  292TIP3    H122511   2.647   3.094   0.407  0.1916  1.1992 -0.6706
  292TIP3    H222512   2.732   3.061   0.527 -1.1404 -0.6801 -0.1984
  293TIP3   OH222513   5.798   1.080   1.187  0.0935  0.2033 -0.0419
  293TIP3    H122514   5.854   1.074   1.109  0.0288 -3.5540 -0.0111
  293TIP3    H222515   5.710   1.066   1.153 -0.1668  0.5318  0.4963
  294TIP3   OH222516   4.236   6.678   2.436  0.1136  0.0180  0.1604
  294TIP3    H122517   4.151   6.648   2.404  0.3901  0.0835 -0.6660
  294TIP3    H222518   4.231   6.668   2.531 -0.1005 -1.8637 -0.0074
  295TIP3   OH222519   4.624   1.328   7.348  0.5254  0.3836 -0.5441
  295TIP3    H122520   4.629   1.358   7.257 -0.7910  1.3416 -0.3114
  295TIP3    H222521   4.618   1.232   7.340  1.5077  0.3605 -1.3999
  296TIP3   OH222522   6.385   0.259   1.680 -0.7768  0.8078  0.6923
  296TIP3    H122523   6.321   0.325   1.653  1.2670  2.0086 -1.6769
  296TIP3    H222524   6.339   0.176   1.672 -1.8056  1.5348 -1.9281
  297TIP3   OH222525   2.811   6.924   8.039 -0.0865 -0.4629 -0.1454
  297TIP3    H122526   2.750   6.997   8.027  1.2966  0.7144 -0.2877
  297TIP3    H222527   2.756   6.852   8.072 -1.6886  0.2526 -1.1207
  298TIP3   OH222528   3.416   1.359   8.279  0.0239 -0.5604 -0.2754
  298TIP3    H122529   3.343   1.313   8.238  0.2290 -0.4877 -0.7199
  298TIP3    H222530   3.467   1.289   8.322  0.2978 -0.7453 -0.8913
  299TIP3   OH222531   0.169   6.311   8.575  0.0162 -0.1448  0.1581
  299TIP3    H122532   0.215   6.362   8.642 -0.4275  0.8025 -0.2468
  299TIP3    H222533   0.162   6.223   8.613  2.0276 -0.2975  0.2845
  300TIP3   OH222534   5.071   6.108   7.551 -0.8123 -0.2520 -0.3674
  300TIP3    H122535   5.146   6.167   7.542  0.3686 -1.7923 -1.0481
  300TIP3    H222536   4.996   6.167   7.556  0.3743  1.3311 -0.1977
  301TIP3   OH222537   4.397   4.083   8.389  0.2128 -0.3100  0.3141
  301TIP3    H122538   4.320   4.121   8.430 -0.2509 -0.3861 -0.4664
  301TIP3    H222539   4.389   4.106   8.297  2.2452  1.5609  0.5195
  302TIP3   OH222540   5.307   4.882   8.207 -0.0774  0.2376  0.0283
  302TIP3    H122541   5.320   4.788   8.222  0.2826  0.4915  1.4883
  302TIP3    H222542   5.215   4.897   8.229 -0.2724  0.1571 -0.6946
  303TIP3   OH222543   0.799   1.969   0.564 -0.6510  0.6048 -0.3856
  303TIP3    H122544   0.752   2.010   0.637  1.6151  1.2365  0.8438
  303TIP3    H222545   0.807   1.877   0.589 -0.6523  0.6343 -0.2755
  304TIP3   OH222546   6.706   3.745   8.205 -0.0812 -0.0550 -0.7411
  304TIP3    H122547   6.713   3.686   8.281 -0.1375  0.4699 -0.3267
  304TIP3    H222548   6.796   3.774   8.189  0.2189 -1.4811 -1.9498
  305TIP3   OH222549   1.484   2.295   7.372  0.7411 -0.3816 -0.4575
  305TIP3    H122550   1.573   2.296   7.408  0.1087  0.9927  1.2245
  305TIP3    H222551   1.441   2.222   7.417  0.8340 -0.6456 -0.7950
  306TIP3   OH222552   6.389   5.761   1.446 -0.4184 -0.1946 -0.1660
  306TIP3    H122553   6.436   5.831   1.492  1.4218 -1.8910  0.6561
  306TIP3    H222554   6.308   5.750   1.497  0.2689 -0.1095  0.9724
  307TIP3   OH222555   2.265   1.773   7.565  0.4947 -0.0559 -0.0175
  307TIP3    H122556   2.184   1.822   7.553  0.4009 -0.5038 -1.5045
  307TIP3    H222557   2.239   1.696   7.617  0.0655  0.0520 -0.0657
  308TIP3   OH222558   4.872   2.818   1.947 -0.0028 -0.3646 -0.1875
  308TIP3    H122559   4.818   2.740   1.963 -0.6464  0.4083  1.7166
  308TIP3    H222560   4.825   2.889   1.991  0.9098  0.9919 -1.3027
  309TIP3   OH222561   1.993   6.648   7.216  0.4799 -0.0658 -0.5119
  309TIP3    H122562   1.958   6.599   7.290 -0.1402  1.3031  0.1294
  309TIP3    H222563   1.917   6.665   7.160  0.7665 -0.1804 -0.9456
  310TIP3   OH222564   6.044   6.690   1.605 -0.0572  0.0008 -0.5372
  310TIP3    H122565   6.014   6.606   1.639  1.1411  0.5265  2.0665
  310TIP3    H222566   6.138   6.692   1.624  0.4567  0.9260 -2.8329
  311TIP3   OH222567   1.371   4.390   7.290  0.0007 -0.5842  0.2809
  311TIP3    H122568   1.454   4.352   7.319 -0.8669 -1.5622  1.5788
  311TIP3    H222569   1.305   4.350   7.346 -1.1083  2.0328  1.0268
  312TIP3   OH222570   2.647   3.227   7.301 -0.2998 -0.0954  0.2233
  312TIP3    H122571   2.731   3.243   7.344 -0.5876  0.0039  0.7636
  312TIP3    H222572   2.655   3.140   7.264  0.5372  0.4419 -0.9325
  313TIP3   OH222573   2.626   4.340   0.891 -0.3224 -0.0628 -0.4815
  313TIP3    H122574   2.703   4.289   0.867  1.4432  2.1062  0.1621
  313TIP3    H222575   2.609   4.317   0.982  0.6737  0.6787 -0.0900
  314TIP3   OH222576   2.680   4.900   0.411  0.5715 -0.4433 -0.4843
  314TIP3    H122577   2.658   4.902   0.318 -0.2648 -0.8271 -0.3042
  314TIP3    H222578   2.702   4.808   0.429 -2.3885 -1.0980  0.3540
  315TIP3   OH222579   6.935   2.438   6.276  0.1789 -0.4205 -0.0566
  315TIP3    H122580   6.931   2.344   6.294 -1.3865 -0.2820  0.4777
  315TIP3    H222581   6.856   2.457   6.225 -0.5863  0.9100  1.5218
  316TIP3   OH222582   5.515   0.471   0.362  0.0193  0.0267 -0.4283
  316TIP3    H122583   5.547   0.552   0.323 -1.1649  1.2598  1.0590
  316TIP3    H222584   5.460   0.432   0.293 -0.1769  0.9757 -0.8268
  317TIP3   OH222585   0.152   4.497   6.852  1.1996  0.5973 -0.7780
  317TIP3    H122586   0.188   4.411   6.832  0.9352  0.4926 -0.7988
  317TIP3    H222587   0.216   4.536   6.912  0.5132 -0.2597  0.5501
  318TIP3   OH222588   0.111   3.278   7.258  0.2331 -0.8268  0.1594
  318TIP3    H122589   0.149   3.254   7.173 -1.6389 -2.4149 -0.2970
  318TIP3    H222590   0.051   3.350   7.237 -0.2953 -1.2781  0.1028
  319TIP3   OH222591   3.992   1.942   7.718 -0.2209  0.0556  0.0794
  319TIP3    H122592   3.937   1.864   7.710 -0.2325  0.0135  0.5345
  319TIP3    H222593   4.033   1.951   7.632  0.1228 -0.7117  0.1478
  320TIP3   OH222594   3.360   6.632   1.484 -0.5415 -0.2477 -0.2366
  320TIP3    H122595   3.395   6.716   1.454  0.8380 -0.3448  1.0025
  320TIP3    H222596   3.421   6.603   1.551 -2.4099 -0.9961  1.2476
  321TIP3   OH222597   3.081   2.859   1.669 -0.1931  0.3011  0.1879
  321TIP3    H122598   2.995   2.853   1.710  0.7607 -1.4488  2.1324
  321TIP3    H222599   3.140   2.884   1.741  1.0858  0.2860 -0.8237
  322TIP3   OH222600   3.268   2.521   1.615  0.3553  0.4254 -0.1586
  322TIP3    H122601   3.335   2.454   1.627 -1.0079 -1.3391 -1.8224
  322TIP3    H222602   3.247   2.550   1.704  0.4329 -1.9495  0.7079
  323TIP3   OH222603   5.926   2.138   7.755  0.3303  0.6759 -0.0895
  323TIP3    H122604   5.959   2.223   7.784  0.5737  0.7728 -0.6412
  323TIP3    H222605   5.952   2.078   7.825  0.4674  0.9935  0.1348
  324TIP3   OH222606   6.602   4.852   1.551 -0.3928  0.2475 -0.0185
  324TIP3    H122607   6.696   4.863   1.568  0.1454  1.4976 -3.1381
  324TIP3    H222608   6.572   4.796   1.622  2.1030  2.0098  2.6680
  325TIP3   OH222609   2.121   0.533   8.318 -0.9858 -0.0381  0.3808
  325TIP3    H122610   2.107   0.448   8.360 -0.3755 -0.8003 -0.8954
  325TIP3    H222611   2.151   0.511   8.230 -0.7509  1.5138  0.0535
  326TIP3   OH222612   2.366   1.818   0.809 -0.0065 -0.2141 -0.1006
  326TIP3    H122613   2.325   1.765   0.878  1.6078  0.3113  1.3390
  326TIP3    H222614   2.439   1.765   0.777  0.0864  0.1103 -0.4361
  327TIP3   OH222615   4.008   0.335   1.930  0.0118  0.6489 -0.7612
  327TIP3    H122616   4.023   0.429   1.934  0.8573  0.4986 -0.1893
  327TIP3    H222617   4.000   0.316   1.836 -1.0097  1.4006 -0.8508
  328TIP3   OH222618   0.269   5.202   7.987 -0.0730  0.4783 -0.1760
  328TIP3    H122619   0.208   5.245   8.046  0.3584  0.9976 -0.0973
  328TIP3    H222620   0.332   5.158   8.045  1.0071  1.9115 -0.2027
  329TIP3   OH222621   1.356   5.866   6.342  0.4858  0.0329 -0.5572
  329TIP3    H122622   1.350   5.772   6.324 -1.6405 -0.2973  1.3480
  329TIP3    H222623   1.309   5.907   6.269 -0.1753 -0.5577 -0.4818
  330TIP3   OH222624   2.482   1.807   1.333  0.1287 -0.2696 -0.1664
  330TIP3    H122625   2.486   1.714   1.358  0.7344 -0.2835 -0.2966
  330TIP3    H222626   2.425   1.847   1.399 -0.9671 -0.9170 -0.6888
  331TIP3   OH222627   5.963   1.519   7.116 -0.0887 -0.1290 -0.0223
  331TIP3    H122628   5.920   1.505   7.032  2.4906 -0.5716 -1.4039
  331TIP3    H222629   6.003   1.434   7.136 -0.6704 -0.0289  1.6990
  332TIP3   OH222630   2.593   3.824   8.161 -0.8997  0.0955  0.3620
  332TIP3    H122631   2.632   3.910   8.150  1.5802 -1.0559 -0.7953
  332TIP3    H222632   2.651   3.780   8.224 -1.1781 -1.1972 -0.2545
  333TIP3   OH222633   2.501   5.602   1.393  0.4952 -0.5796  0.2447
  333TIP3    H122634   2.468   5.543   1.461  0.6037 -0.7109  0.1833
  333TIP3    H222635   2.423   5.625   1.342  0.3847 -0.3524  0.5094
  334TIP3   OH222636   1.484   6.239   2.043 -0.5096 -0.3080  0.0247
  334TIP3    H122637   1.421   6.175   2.075  0.8806 -0.9395  1.6273
  334TIP3    H222638   1.476   6.234   1.947 -2.4311 -0.7815  0.1651
  335TIP3   OH222639   4.221   4.338   1.400 -0.0566  0.1707  0.2472
  335TIP3    H122640   4.245   4.245   1.402 -1.2402 -0.1819 -0.7190
  335TIP3    H222641   4.233   4.363   1.308 -2.6367  0.1405 -0.1604
  336TIP3   OH222642   6.306   4.824   0.333 -0.1148  0.4058 -0.1383
  336TIP3    H122643   6.271   4.893   0.389  0.7130  0.9631 -0.2938
  336TIP3    H222644   6.239   4.811   0.266 -0.3901  0.8723  0.0418
  337TIP3   OH222645   4.352   1.046   1.793  0.0291  0.0703  0.6372
  337TIP3    H122646   4.266   1.004   1.804  0.0398 -0.4315 -1.0411
  337TIP3    H222647   4.362   1.100   1.872 -2.7390  1.7775 -0.0594
  338TIP3   OH222648   2.965   3.578   6.905  0.1818  0.9075  0.2772
  338TIP3    H122649   2.940   3.487   6.888 -0.1760  0.9023  0.7959
  338TIP3    H222650   2.893   3.612   6.958  1.5447  0.7224  2.3701
  339TIP3   OH222651   0.530   6.521   1.978  0.3700 -0.3479 -0.4348
  339TIP3    H122652   0.618   6.528   2.014 -0.1289 -2.7777  1.6383
  339TIP3    H222653   0.473   6.561   2.044 -0.1612  0.2322 -1.2292
  340TIP3   OH222654   6.301   6.871   7.953  0.0288  0.5732  0.0528
  340TIP3    H122655   6.229   6.931   7.931 -0.8897 -0.3247  0.5296
  340TIP3    H222656   6.358   6.874   7.876 -0.7023  1.0283 -0.4938
  341TIP3   OH222657   6.056   0.698   1.230 -0.0339 -0.4230 -0.2222
  341TIP3    H122658   6.009   0.748   1.296 -0.5276 -0.0004 -0.8745
  341TIP3    H222659   6.089   0.621   1.276 -0.3958 -0.1551  0.4970
  342TIP3   OH222660   1.552   0.089   1.082  0.2141 -0.6983 -0.3258
  342TIP3    H122661   1.634   0.085   1.033  2.4635  0.5554  2.9645
  342TIP3    H222662   1.580   0.095   1.173 -3.6260 -1.4396  1.0507
  343TIP3   OH222663   0.354   1.797   7.545  0.2785  0.4624  0.3565
  343TIP3    H122664   0.338   1.734   7.475  0.6811  0.2781  0.4276
  343TIP3    H222665   0.269   1.808   7.587 -0.0548  0.8636 -0.3990
  344TIP3   OH222666   2.856   4.566   0.217  0.4962 -0.0604 -0.4063
  344TIP3    H122667   2.922   4.608   0.272 -0.0706 -0.0822  0.2978
  344TIP3    H222668   2.902   4.491   0.178  0.7871 -0.3103  0.3933
  345TIP3   OH222669   2.142   5.376   8.139 -0.0248  0.2660 -0.0962
  345TIP3    H122670   2.213   5.333   8.187 -0.5514 -1.2971 -0.6854
  345TIP3    H222671   2.173   5.378   8.048 -1.3772 -1.9892 -0.6898
  346TIP3   OH222672   5.818   0.585   6.750  0.4020 -0.2667 -0.5543
  346TIP3    H122673   5.728   0.617   6.746 -0.1020 -1.3744  1.1117
  346TIP3    H222674   5.868   0.658   6.784 -0.2535 -0.3124  0.5457
  347TIP3   OH222675   2.114   4.308   1.049 -0.2079 -0.4137  0.0838
  347TIP3    H122676   2.039   4.364   1.027  1.0950  0.8948 -1.2439
  347TIP3    H222677   2.079   4.246   1.113 -1.8857  1.5289  1.1727
  348TIP3   OH222678   4.598   0.451   2.224 -0.0673  0.8696 -0.1254
  348TIP3    H122679   4.567   0.400   2.298  0.3643 -1.4586 -1.4504
  348TIP3    H222680   4.525   0.452   2.163  0.6297 -0.0892 -1.0196
  349TIP3   OH222681   6.213   2.437   1.900  0.2472  0.2837 -0.0618
  349TIP3    H122682   6.130   2.395   1.921 -0.9501  2.4217 -0.1642
  349TIP3    H222683   6.215   2.442   1.805  0.3440  0.4890 -0.0522
  350TIP3   OH222684   0.487   4.689   0.400  0.0355 -0.3419  0.2890
  350TIP3    H122685   0.421   4.654   0.340 -0.9864 -1.7180  2.1409
  350TIP3    H222686   0.570   4.677   0.354 -0.8329  0.1003 -1.4880
  351TIP3   OH222687   2.186   2.384   0.406  0.1860 -0.1075  0.2301
  351TIP3    H122688   2.138   2.368   0.487 -0.5510 -1.9626 -0.5310
  351TIP3    H222689   2.122   2.425   0.348  0.0848 -0.7652 -0.1278
  352TIP3   OH222690   1.952   0.096   7.402  0.4021  0.1332 -0.3727
  352TIP3    H122691   1.949   0.138   7.317 -0.1670 -1.2263 -1.0602
  352TIP3    H222692   2.042   0.064   7.411  0.3908  0.0391 -0.5953
  353TIP3   OH222693   1.175   0.479   8.606 -0.4960 -1.0542  0.5337
  353TIP3    H122694   1.132   0.435   8.680 -1.3456 -1.2922 -0.0859
  353TIP3    H222695   1.254   0.517   8.644 -1.5739 -0.0124  1.8657
  354TIP3   OH222696   0.412   6.543   2.265  0.6436 -0.3533 -0.0085
  354TIP3    H122697   0.373   6.541   2.352  1.4030 -2.7551  0.3484
  354TIP3    H222698   0.350   6.593   2.212 -0.8149 -0.5010  1.4779
  355TIP3   OH222699   0.552   3.515   0.670 -0.2658 -0.0862 -0.7439
  355TIP3    H122700   0.600   3.450   0.722  1.7115  1.7154 -0.1458
  355TIP3    H222701   0.610   3.536   0.597 -1.4475  0.0570 -1.6778
  356TIP3   OH222702   6.802   2.400   1.455 -0.3999  0.7603  0.2961
  356TIP3    H122703   6.846   2.323   1.491 -0.4304  0.8315  0.4832
  356TIP3    H222704   6.725   2.413   1.510 -0.9087  0.3671 -0.3019
  357TIP3   OH222705   6.799   0.295   2.059 -0.3208 -0.4008 -0.3723
  357TIP3    H122706   6.805   0.330   1.970  0.7144 -0.4881 -0.3542
  357TIP3    H222707   6.761   0.366   2.110  0.5999  0.2624 -0.5792
  358TIP3   OH222708   3.753   4.487   1.140  0.0558  0.4621  0.6529
  358TIP3    H122709   3.661   4.508   1.155 -0.4209 -0.2832 -0.9890
  358TIP3    H222710   3.787   4.465   1.227 -1.9704 -1.6289  1.0342
  359TIP3   OH222711   4.389   5.437   7.337  0.0693 -0.0074  0.4467
  359TIP3    H122712   4.316   5.385   7.303 -0.9782  1.7615 -0.1784
  359TIP3    H222713   4.461   5.418   7.278 -0.4357 -0.3946 -0.0580
  360TIP3   OH222714   6.792   1.880   1.328 -0.3180 -0.9685 -0.0122
  360TIP3    H122715   6.729   1.943   1.294 -0.6689 -1.0010  0.5579
  360TIP3    H222716   6.747   1.795   1.323 -0.1444 -1.0600 -0.0368
  361TIP3   OH222717   4.181   6.621   1.443  0.1618 -0.2645 -0.1587
  361TIP3    H122718   4.159   6.603   1.352  0.1026 -0.4536 -0.1064
  361TIP3    H222719   4.116   6.686   1.471 -0.1735 -0.6374 -0.0773
  362TIP3   OH222720   1.654   3.567   0.638 -0.6630  0.3326 -0.3049
  362TIP3    H122721   1.590   3.526   0.579  0.1487 -0.7647 -0.4636
  362TIP3    H222722   1.689   3.640   0.588 -0.1162 -0.4720 -1.1461
  363TIP3   OH222723   6.344   3.741   0.113  0.5778  0.0609 -0.4140
  363TIP3    H122724   6.314   3.652   0.094 -0.9368  0.7947 -1.7862
  363TIP3    H222725   6.320   3.756   0.204  0.2070 -0.6974 -0.3822
  364TIP3   OH222726   4.309   6.307   1.388  0.1922 -0.4027  0.4238
  364TIP3    H122727   4.301   6.372   1.457 -0.6689  0.4399 -0.4241
  364TIP3    H222728   4.357   6.235   1.427 -1.6922 -0.6776  2.4125
  365TIP3   OH222729   2.478   0.713   6.620  0.0202  0.0284  0.1248
  365TIP3    H122730   2.422   0.786   6.646  0.0159  0.5692 -1.3212
  365TIP3    H222731   2.453   0.695   6.530  1.5840 -0.3108 -0.2624
  366TIP3   OH222732   1.951   5.311   1.855 -0.1678  0.1345  0.1340
  366TIP3    H122733   1.996   5.396   1.849 -0.7466  0.4081 -0.4523
  366TIP3    H222734   1.880   5.318   1.791 -0.6233 -0.5472  0.5690
  367TIP3   OH222735   4.927   3.716   1.658  0.0807 -0.4473  0.0282
  367TIP3    H122736   4.925   3.661   1.579 -0.4401 -0.9114  0.3576
  367TIP3    H222737   4.840   3.704   1.697  0.6589 -0.9874  1.2003
  368TIP3   OH222738   6.769   0.605   8.565 -0.0631  0.0125  0.6009
  368TIP3    H122739   6.827   0.551   8.512  0.0431 -1.0220  1.7221
  368TIP3    H222740   6.825   0.642   8.633 -0.4316  0.2413  0.7845
  369TIP3   OH222741   0.992   6.180   1.303 -0.2435  0.0400 -0.3442
  369TIP3    H122742   1.074   6.208   1.344  0.2379  1.2938 -2.0119
  369TIP3    H222743   0.937   6.258   1.304  0.0607  0.3702 -2.5974
  370TIP3   OH222744   5.182   4.227   8.107  0.0161 -0.6460  0.3174
  370TIP3    H122745   5.259   4.249   8.158 -1.0992  1.0048  1.3641
  370TIP3    H222746   5.113   4.211   8.172 -0.6419 -1.7618 -0.5964
  371TIP3   OH222747   5.977   1.666   0.878 -0.1249 -0.1218 -0.1959
  371TIP3    H122748   5.926   1.694   0.954  0.7094  1.2273 -0.1017
  371TIP3    H222749   5.954   1.729   0.809 -1.2234 -1.6017 -1.2349
  372TIP3   OH222750   6.434   5.093   8.475  0.4645  0.1519 -0.3357
  372TIP3    H122751   6.356   5.140   8.446 -0.7540 -1.0457  0.8521
  372TIP3    H222752   6.452   5.031   8.405 -0.8856 -0.9277  0.2150
  373TIP3   OH222753   2.343   4.760   1.092 -0.2490 -0.2986 -0.4014
  373TIP3    H122754   2.318   4.797   1.177  0.1526 -0.6449 -0.1324
  373TIP3    H222755   2.404   4.824   1.055 -0.7643  0.0685 -0.6277
  374TIP3   OH222756   5.344   3.265   2.100 -0.0517  0.5708  0.5844
  374TIP3    H122757   5.426   3.253   2.148  0.8041 -0.5706 -1.0299
  374TIP3    H222758   5.285   3.199   2.135 -0.0163  0.8832  1.2322
  375TIP3   OH222759   5.738   4.548   7.901  0.3530 -0.0816  0.7195
  375TIP3    H122760   5.829   4.521   7.890  0.0539 -0.8655  0.0799
  375TIP3    H222761   5.743   4.642   7.921  1.1914  0.4587 -1.7132
  376TIP3   OH222762   3.544   6.349   7.747 -0.2055  0.0667  0.1385
  376TIP3    H122763   3.490   6.309   7.815 -0.5439  1.1008  0.5005
  376TIP3    H222764   3.484   6.363   7.674 -0.0786 -0.1279 -0.0034
  377TIP3   OH222765   3.608   3.463   1.527  0.1890  0.5674  0.2781
  377TIP3    H122766   3.615   3.518   1.449  1.0972 -1.1542 -0.9428
  377TIP3    H222767   3.693   3.473   1.571 -0.1842  1.2424  0.8688
  378TIP3   OH222768   5.913   1.265   6.177 -0.2076 -0.3569 -0.1762
  378TIP3    H122769   5.860   1.305   6.245  0.9700 -0.0117  0.5680
  378TIP3    H222770   5.894   1.172   6.182  0.4710 -0.4395  1.1878
  379TIP3   OH222771   5.468   6.792   7.195  0.0808  0.2839  0.5578
  379TIP3    H122772   5.508   6.769   7.111 -1.7143  0.1311 -0.3172
  379TIP3    H222773   5.381   6.750   7.192 -0.4322  1.1620  2.0464
  380TIP3   OH222774   6.293   0.234   8.499 -0.5223  0.8355  0.0171
  380TIP3    H122775   6.241   0.155   8.482  0.9821 -0.0703 -0.6520
  380TIP3    H222776   6.368   0.203   8.549  0.3703  1.7387 -0.7144
  381TIP3   OH222777   0.968   4.929   0.011 -0.3711 -0.2736 -0.4996
  381TIP3    H122778   1.047   4.874   0.008 -0.8786 -1.0656  0.2831
  381TIP3    H222779   1.001   5.018   0.024  0.4135 -0.5272 -0.6960
  382TIP3   OH222780   4.367   4.991   2.377  0.0535 -0.1998 -0.7883
  382TIP3    H122781   4.316   5.048   2.435 -0.8114 -1.0851 -0.6751
  382TIP3    H222782   4.358   5.031   2.291  0.8073  0.7502 -0.4549
  383TIP3   OH222783   3.768   4.878   0.841  0.8021  0.0926 -0.5567
  383TIP3    H122784   3.752   4.962   0.883 -0.1112 -0.4728  0.2692
  383TIP3    H222785   3.681   4.843   0.822  1.1596 -0.7807 -0.6487
  384TIP3   OH222786   4.299   2.650   1.567  0.0353 -0.0789  0.6126
  384TIP3    H122787   4.353   2.722   1.534 -1.8281  0.3589 -1.8279
  384TIP3    H222788   4.360   2.592   1.612  2.2876  0.9965 -0.8684
  385TIP3   OH222789   1.782   3.071   7.769  0.0611 -0.5912 -0.6636
  385TIP3    H122790   1.718   3.001   7.782  0.3048 -0.3758  2.3710
  385TIP3    H222791   1.736   3.151   7.794 -0.0375  0.3856 -3.5605
  386TIP3   OH222792   5.565   2.372   1.683  0.3385  0.0855  0.0850
  386TIP3    H122793   5.522   2.431   1.744  0.1432  0.1698 -0.1355
  386TIP3    H222794   5.645   2.345   1.728  0.7433  1.0004 -0.0657
  387TIP3   OH222795   6.557   6.463   7.053 -0.1682 -0.2549 -0.1850
  387TIP3    H122796   6.565   6.381   7.102 -0.9827 -0.0677  0.2813
  387TIP3    H222797   6.612   6.450   6.976  2.1132 -0.1272  1.3154
  388TIP3   OH222798   3.554   4.128   7.428  0.2330 -0.3061 -0.3519
  388TIP3    H122799   3.472   4.120   7.476  1.2582  2.4271  2.1020
  388TIP3    H222800   3.546   4.210   7.380  1.3438 -0.2722 -0.4963
  389TIP3   OH222801   6.144   1.774   7.375  0.5325 -0.4267  0.4523
  389TIP3    H122802   6.078   1.837   7.403  1.2892  0.6798 -0.2033
  389TIP3    H222803   6.112   1.742   7.290  1.1148  0.5509 -0.1480
  390TIP3   OH222804   2.469   1.664   6.601  0.3958  0.7382  0.1111
  390TIP3    H122805   2.541   1.726   6.605  0.5612  0.4912  1.4033
  390TIP3    H222806   2.512   1.579   6.590  0.1260  0.9117 -3.2350
  391TIP3   OH222807   4.149   2.041   1.614  0.8399  0.2602 -0.1961
  391TIP3    H122808   4.116   1.951   1.611  1.3794  0.0817 -1.1384
  391TIP3    H222809   4.132   2.075   1.527  0.3344  1.1957  0.2535
  392TIP3   OH222810   1.596   5.164   8.314 -0.2959  0.4096  0.3728
  392TIP3    H122811   1.533   5.119   8.370 -0.7938  1.1254  0.3988
  392TIP3    H222812   1.622   5.098   8.250 -2.0909  0.4466 -0.4764
  393TIP3   OH222813   2.831   1.581   1.980 -0.2909  0.1036  0.6685
  393TIP3    H122814   2.805   1.655   2.034 -0.2303  1.0862 -0.6004
  393TIP3    H222815   2.894   1.533   2.034  1.3238  2.1697  0.7691
  394TIP3   OH222816   0.471   4.170   0.437 -0.4030 -0.1346 -0.2122
  394TIP3    H122817   0.503   4.109   0.370 -0.8950  0.2312 -0.7972
  394TIP3    H222818   0.449   4.249   0.388  1.3100  0.9567  0.6942
  395TIP3   OH222819   1.712   3.766   0.026 -0.3473 -0.0761 -0.2182
  395TIP3    H122820   1.633   3.799   0.069 -0.0654  0.5331 -0.1618
  395TIP3    H222821   1.700   3.786  -0.067  0.1808  0.9431 -0.0826
  396TIP3   OH222822   5.051   0.429   8.267 -0.0298  0.2871  0.1580
  396TIP3    H122823   5.080   0.340   8.287  0.7380  0.2921 -0.8068
  396TIP3    H222824   4.973   0.442   8.321  0.8926 -0.3021  1.6834
  397TIP3   OH222825   1.306   5.079   1.214  0.5102 -0.4156 -0.1103
  397TIP3    H122826   1.364   5.003   1.207  0.7789 -0.2615  0.4177
  397TIP3    H222827   1.235   5.060   1.153  2.5197  0.6423 -3.0380
  398TIP3   OH222828   2.423   3.105   0.513 -0.6660 -0.0732  0.6395
  398TIP3    H122829   2.417   3.110   0.418  1.4469  1.4582  0.5101
  398TIP3    H222830   2.424   3.197   0.542  1.3128 -0.4329  1.8782
  399TIP3   OH222831   6.676   3.076   1.305 -1.1272  0.7849 -0.4951
  399TIP3    H122832   6.771   3.080   1.312 -1.1508 -1.0165  1.6757
  399TIP3    H222833   6.659   3.000   1.248 -1.2529 -0.1640  0.7736
  400TIP3   OH222834   3.247   4.781   8.332 -0.0270 -0.1823 -0.5054
  400TIP3    H122835   3.255   4.707   8.272  1.0130 -1.9727  1.6966
  400TIP3    H222836   3.162   4.769   8.374 -0.7566  1.0661 -1.5699
  401TIP3   OH222837   6.108   3.189   7.104  0.0015  0.1921 -0.3818
  401TIP3    H122838   6.026   3.141   7.097  0.4431 -0.5378 -0.6379
  401TIP3    H222839   6.094   3.268   7.051 -0.9155  0.6377  0.4933
  402TIP3   OH222840   3.037   6.665   0.013  0.3417  0.1093 -0.2199
  402TIP3    H122841   2.944   6.688   0.018  0.6135  1.5408 -1.1189
  402TIP3    H222842   3.038   6.569   0.013 -1.2252  0.0547 -1.3615
  403TIP3   OH222843   4.890   5.811   0.790  0.4993  0.1589  0.0577
  403TIP3    H122844   4.917   5.897   0.761  0.2353  0.5599  0.9496
  403TIP3    H222845   4.827   5.828   0.860 -0.1715 -0.7509 -0.3004
  404TIP3   OH222846   6.871   0.623   7.375  0.4369 -0.0836  0.2870
  404TIP3    H122847   6.895   0.713   7.354  0.5890 -0.0100  0.7829
  404TIP3    H222848   6.780   0.628   7.405  0.9352  0.1199  1.7972
  405TIP3   OH222849   0.806   0.772   8.319 -0.8330  0.1990 -0.0850
  405TIP3    H122850   0.876   0.707   8.310 -0.6037  0.1969  1.4995
  405TIP3    H222851   0.845   0.843   8.369 -1.8425  0.3469  0.5266
  406TIP3   OH222852   6.115   4.435   2.133  0.4812  0.0347 -0.1361
  406TIP3    H122853   6.198   4.480   2.152 -0.1248  1.2895 -0.3811
  406TIP3    H222854   6.141   4.344   2.118  1.8023  0.3778 -0.0973
  407TIP3   OH222855   3.810   4.638   7.565  0.1942 -0.4145 -0.3523
  407TIP3    H122856   3.729   4.685   7.582  0.2475  0.0381 -1.2842
  407TIP3    H222857   3.794   4.550   7.597 -0.7097 -0.3622 -0.6322
  408TIP3   OH222858   3.483   2.738   0.849  0.0661  0.5274 -0.0383
  408TIP3    H122859   3.525   2.820   0.822  0.7921  0.9573  2.1588
  408TIP3    H222860   3.540   2.669   0.815 -0.4636  0.9033 -1.7671
  409TIP3   OH222861   4.374   5.539   0.437  0.3376  0.6232 -0.5204
  409TIP3    H122862   4.360   5.557   0.344  0.6951  1.5525 -0.4003
  409TIP3    H222863   4.421   5.615   0.470  0.0879  0.3688  0.4593
  410TIP3   OH222864   0.427   0.772   6.668  0.1978  0.0579  0.0930
  410TIP3    H122865   0.356   0.780   6.604 -0.2223  0.6804  0.6175
  410TIP3    H222866   0.389   0.806   6.749  0.8632 -0.3108  0.5638
  411TIP3   OH222867   2.308   4.008   1.943 -0.7579  0.3582 -0.1449
  411TIP3    H122868   2.234   3.970   1.895  0.1775  0.0076 -1.3257
  411TIP3    H222869   2.378   4.016   1.879  1.2090 -1.9342  1.5098
  412TIP3   OH222870   5.383   6.745   2.679 -0.0911 -0.4871  0.1961
  412TIP3    H122871   5.453   6.680   2.681 -1.7246 -2.3077  1.7577
  412TIP3    H222872   5.414   6.811   2.616  1.5325 -2.8702 -1.7067
  413TIP3   OH222873   3.263   4.055   0.386  0.4633  0.3454 -0.0924
  413TIP3    H122874   3.239   4.103   0.465 -3.0709  0.1560 -0.8843
  413TIP3    H222875   3.180   4.023   0.351  1.9449 -0.2761 -3.4546
  414TIP3   OH222876   4.872   1.561   6.891  0.5542 -0.0858  0.1468
  414TIP3    H122877   4.944   1.527   6.839 -0.2011 -1.0438 -0.2913
  414TIP3    H222878   4.832   1.628   6.835  0.5908 -0.1387  0.0570
  415TIP3   OH222879   4.603   5.532   8.628  0.7371  0.3552  0.5819
  415TIP3    H122880   4.611   5.584   8.548  0.7368 -0.1350  0.2574
  415TIP3    H222881   4.652   5.580   8.694  1.5735  0.2587  0.0376
  416TIP3   OH222882   4.997   6.727   8.293 -0.0245  0.2241  0.1381
  416TIP3    H122883   4.974   6.688   8.378  0.6711 -1.8288 -0.5528
  416TIP3    H222884   5.092   6.733   8.295  0.2720 -2.3250 -1.4155
  417TIP3   OH222885   0.520   1.511   7.370  0.1675 -0.0694  0.1540
  417TIP3    H122886   0.510   1.506   7.465 -1.6896 -0.6647 -0.0294
  417TIP3    H222887   0.607   1.549   7.357  0.9083 -0.9786  2.0582
  418TIP3   OH222888   5.328   1.985   0.703 -0.1479 -0.3121  0.0739
  418TIP3    H122889   5.236   2.009   0.715 -0.1800 -0.3085 -0.1760
  418TIP3    H222890   5.349   1.933   0.780  0.2918  1.5821  1.2993
  419TIP3   OH222891   2.414   4.551   7.955 -0.1450 -0.3730  0.4279
  419TIP3    H122892   2.351   4.541   8.026 -0.0766 -2.5010  0.2506
  419TIP3    H222893   2.363   4.535   7.876  0.2818 -0.4791  0.1693
  420TIP3   OH222894   1.672   3.164   6.540  0.2618  0.2209 -0.2720
  420TIP3    H122895   1.593   3.191   6.492 -0.4296 -0.7348  0.3001
  420TIP3    H222896   1.677   3.070   6.527  1.3582  0.2819 -0.3442
  421TIP3   OH222897   6.745   1.974   0.782 -0.5480 -0.2684 -0.8180
  421TIP3    H122898   6.728   1.882   0.803 -0.6939  0.0891  0.7270
  421TIP3    H222899   6.700   2.023   0.850  0.4683  0.9285 -0.9726
  422TIP3   OH222900   3.945   6.658   8.176 -0.0093  0.2136 -0.6623
  422TIP3    H122901   4.009   6.684   8.110  1.7387 -0.7626  0.5744
  422TIP3    H222902   3.860   6.679   8.137  1.0405  1.5174 -2.3726
  423TIP3   OH222903   4.042   5.455   7.994 -0.6560 -0.1694 -0.7429
  423TIP3    H122904   4.097   5.404   8.054 -0.0635  1.5972  0.2688
  423TIP3    H222905   3.986   5.389   7.952  0.8044 -1.7765 -0.2963
  424TIP3   OH222906   4.146   3.796   7.839 -0.1547 -0.1008  0.2851
  424TIP3    H122907   4.176   3.738   7.769  0.9791  1.1590 -0.3023
  424TIP3    H222908   4.141   3.882   7.798  0.4671  0.6513  1.7278
  425TIP3   OH222909   0.284   2.768   7.458 -0.0106 -0.1026 -0.0103
  425TIP3    H122910   0.231   2.819   7.519  0.0432  0.1969 -0.2175
  425TIP3    H222911   0.372   2.772   7.494 -0.0955 -0.4758  0.2514
  426TIP3   OH222912   2.099   3.050   0.317 -0.1264  0.6384  0.6014
  426TIP3    H122913   2.130   2.968   0.279  1.9017  1.0482  1.2447
  426TIP3    H222914   2.126   3.118   0.256  0.1899  1.0113  1.1440
  427TIP3   OH222915   3.613   5.222   7.869 -0.3403  0.6743 -0.2881
  427TIP3    H122916   3.567   5.142   7.894  2.0878 -1.2596 -1.5741
  427TIP3    H222917   3.557   5.263   7.803 -0.8958 -0.8489 -0.8029
  428TIP3   OH222918   1.609   4.426   1.410  0.1557 -0.0945 -0.2726
  428TIP3    H122919   1.534   4.396   1.461  0.6645  0.4150  0.8073
  428TIP3    H222920   1.590   4.398   1.321 -0.6768 -1.1573  0.2208
  429TIP3   OH222921   6.266   4.362   6.816  0.5011  0.2096 -0.4580
  429TIP3    H122922   6.234   4.381   6.905  1.0366  1.3530 -0.4911
  429TIP3    H222923   6.347   4.413   6.809 -0.0736  0.9493 -1.9679
  430TIP3   OH222924   2.538   0.588   8.372  0.0619 -0.2646 -0.1564
  430TIP3    H122925   2.574   0.583   8.284 -0.5945  0.9713 -0.5249
  430TIP3    H222926   2.612   0.613   8.428 -0.1743  2.5750 -0.9501
  431TIP3   OH222927   2.869   5.687   6.202 -0.2486 -0.1031 -0.2137
  431TIP3    H122928   2.912   5.648   6.126 -1.3845 -2.4365  0.2412
  431TIP3    H222929   2.782   5.646   6.204 -0.6439  0.7117  1.7133
  432TIP3   OH222930   1.488   4.537   8.526  0.5533  0.6356  0.6212
  432TIP3    H122931   1.577   4.543   8.560  0.6884 -0.7917  0.5816
  432TIP3    H222932   1.436   4.508   8.600  0.6344 -1.2601 -0.0102
  433TIP3   OH222933   4.235   3.952   7.416 -0.0126 -0.2941 -0.8633
  433TIP3    H122934   4.207   4.027   7.363  0.1804  0.0704 -0.4587
  433TIP3    H222935   4.330   3.959   7.420 -0.1184  0.9129  1.2543
  434TIP3   OH222936   1.042   2.330   7.736  0.0210 -0.1702 -0.0673
  434TIP3    H122937   0.996   2.360   7.657  0.8462  0.5140 -0.2967
  434TIP3    H222938   1.058   2.237   7.720 -0.0382 -0.0910 -0.6021
  435TIP3   OH222939   5.051   3.418   6.443 -0.1276  0.5233 -0.3211
  435TIP3    H122940   5.040   3.504   6.404 -0.6941  0.5666 -0.0789
  435TIP3    H222941   4.963   3.380   6.442 -0.2038  0.6147  1.1158
  436TIP3   OH222942   6.396   6.769   0.516  0.7192  0.6647 -0.3575
  436TIP3    H122943   6.401   6.836   0.584  0.5372 -0.4690  0.8174
  436TIP3    H222944   6.352   6.695   0.559  0.0108  0.1488 -1.9110
  437TIP3   OH222945   3.334   2.448   7.745 -0.3237 -0.3352  0.0221
  437TIP3    H122946   3.373   2.535   7.739  1.9571 -1.2033  1.2700
  437TIP3    H222947   3.318   2.422   7.654 -1.1945  1.4040 -0.3637
  438TIP3   OH222948   0.736   6.539   8.317 -0.0629  0.5060 -0.0166
  438TIP3    H122949   0.760   6.575   8.232  0.4519 -1.9380 -1.0097
  438TIP3    H222950   0.653   6.495   8.302  0.3540 -0.5148  0.5438
  439TIP3   OH222951   4.930   6.401   7.529 -0.1170  0.1190  0.1187
  439TIP3    H122952   4.842   6.370   7.508 -0.0648 -0.2165  0.3935
  439TIP3    H222953   4.921   6.443   7.614 -0.1337  0.6282 -0.1320
  440TIP3   OH222954   4.734   0.075   7.104  0.5150  0.4329 -0.9028
  440TIP3    H122955   4.797   0.077   7.177  0.4925  1.4054 -0.9010
  440TIP3    H222956   4.659   0.125   7.136 -0.0815 -0.3399 -1.0780
  441TIP3   OH222957   0.958   1.565   8.084 -0.6472 -0.0270 -0.4702
  441TIP3    H122958   0.906   1.638   8.116  0.3643  0.3414  0.3944
  441TIP3    H222959   0.992   1.523   8.163  1.4383  0.5438 -0.9929
  442TIP3   OH222960   5.195   2.556   0.248  0.0284 -0.3619  0.0907
  442TIP3    H122961   5.199   2.460   0.240 -0.2074 -0.3090 -0.7595
  442TIP3    H222962   5.145   2.584   0.171 -1.8242  0.2838  1.4421
  443TIP3   OH222963   3.930   2.097   8.536 -0.4984 -0.5291 -0.0661
  443TIP3    H122964   4.011   2.069   8.580 -1.3828 -2.7424  0.2911
  443TIP3    H222965   3.960   2.141   8.457  1.0648 -0.4204  0.5405
  444TIP3   OH222966   4.337   0.863   8.054 -0.0146 -0.0339 -0.7056
  444TIP3    H122967   4.386   0.792   8.011  0.5031 -0.0195 -0.1542
  444TIP3    H222968   4.404   0.925   8.081 -0.3588  0.1126 -0.1691
  445TIP3   OH222969   5.609   3.121   0.999  0.6117  0.0105 -0.6584
  445TIP3    H122970   5.546   3.161   0.939  0.8925 -0.3126 -1.1764
  445TIP3    H222971   5.614   3.030   0.972  1.8953  0.2026 -1.1390
  446TIP3   OH222972   0.439   6.517   7.413 -0.3626 -0.3199  0.1127
  446TIP3    H122973   0.528   6.499   7.443 -0.2059 -0.7137 -0.5645
  446TIP3    H222974   0.433   6.613   7.412  0.4425 -0.2683 -0.9540
  447TIP3   OH222975   3.726   4.297   6.883 -0.6313  0.0106 -0.4676
  447TIP3    H122976   3.708   4.242   6.959  1.8071 -1.3307 -0.7429
  447TIP3    H222977   3.784   4.366   6.916 -1.4303  0.7965 -0.6768
  448TIP3   OH222978   2.627   0.998   8.559  0.7048 -0.0758 -0.0635
  448TIP3    H122979   2.540   1.014   8.595  0.8305 -0.0384  0.2292
  448TIP3    H222980   2.611   0.961   8.472  0.3570  3.3056 -1.5939
  449TIP3   OH222981   0.905   5.556   7.594  0.1976 -0.0619 -0.5167
  449TIP3    H122982   0.973   5.497   7.626  1.0698  1.0503 -0.2899
  449TIP3    H222983   0.894   5.621   7.663 -1.1185 -0.2202 -0.5441
  450TIP3   OH222984   4.027   1.300   0.880 -0.6117  0.0716 -0.1685
  450TIP3    H122985   4.013   1.275   0.788  0.3419  0.0668 -0.3239
  450TIP3    H222986   4.055   1.219   0.922  0.7996  0.4629 -0.2987
  451TIP3   OH222987   5.113   0.750   1.258  0.6636 -0.3069 -0.1946
  451TIP3    H122988   5.182   0.797   1.306  0.3933  0.3735 -0.4530
  451TIP3    H222989   5.031   0.780   1.299  0.5551 -2.6097  1.4654
  452TIP3   OH222990   5.751   4.659   7.554  0.3023 -0.2004  0.5510
  452TIP3    H122991   5.741   4.582   7.498  2.0723  0.7966 -1.2640
  452TIP3    H222992   5.803   4.628   7.628  0.5512 -0.8645  0.1087
  453TIP3   OH222993   4.932   5.660   1.203  0.0734 -1.1419  0.2742
  453TIP3    H122994   5.013   5.635   1.157  0.6889 -1.9926  1.7490
  453TIP3    H222995   4.946   5.630   1.293 -1.4802 -0.3662  0.7959
  454TIP3   OH222996   0.166   4.872   7.353 -0.6107  0.1592 -0.3876
  454TIP3    H122997   0.168   4.853   7.447  1.2199  0.3329 -0.3503
  454TIP3    H222998   0.083   4.917   7.340 -0.9884 -0.0381  1.1224
  455TIP3   OH222999   5.995   3.643   8.385  0.1198 -0.3102  0.1847
  455TIP3    H123000   6.007   3.549   8.401 -0.6536 -0.4095  0.2416
  455TIP3    H223001   6.013   3.684   8.470 -0.1408 -0.4674  0.3174
  456TIP3   OH223002   5.745   1.341   6.378  0.0835 -0.4113 -0.2140
  456TIP3    H123003   5.663   1.385   6.356 -0.0543 -0.7273 -0.3431
  456TIP3    H223004   5.786   1.398   6.443  0.9308  1.0487 -1.9407
  457TIP3   OH223005   4.644   4.810   7.328 -0.1961 -0.3254  0.4512
  457TIP3    H123006   4.688   4.895   7.335  1.3909 -0.8360 -2.1613
  457TIP3    H223007   4.696   4.751   7.382 -0.0766 -0.0973  0.5863
  458TIP3   OH223008   6.485   4.067   1.759 -0.1001  0.5157 -0.5462
  458TIP3    H123009   6.528   4.100   1.838 -0.1192  2.0562 -1.1599
  458TIP3    H223010   6.480   3.972   1.773  1.1996  0.5932  0.6502
  459TIP3   OH223011   3.431   5.213   1.133 -0.0480 -0.1584 -0.5120
  459TIP3    H123012   3.346   5.176   1.111 -0.6265  0.1019  1.1566
  459TIP3    H223013   3.464   5.158   1.203  1.0866 -0.1256 -0.9938
  460TIP3   OH223014   4.357   3.575   6.630 -0.2115  0.1199  0.0879
  460TIP3    H123015   4.295   3.573   6.557  1.3742  0.1494 -1.3309
  460TIP3    H223016   4.443   3.575   6.588  0.7677 -0.3172  1.9889
  461TIP3   OH223017   5.703   3.970   8.615  0.5805 -0.1684 -0.0816
  461TIP3    H123018   5.678   4.002   8.528  1.1152 -1.2560 -0.6614
  461TIP3    H223019   5.631   3.914   8.642  0.2193  0.5098  0.3713
  462TIP3   OH223020   6.197   5.906   0.044  0.1056 -0.2152  0.1186
  462TIP3    H123021   6.172   5.856   0.121  0.0843  1.2775  1.1216
  462TIP3    H223022   6.115   5.944   0.012  0.0752 -1.0232 -0.8088
  463TIP3   OH223023   3.450   0.024   2.126 -0.0968 -0.0503 -0.0876
  463TIP3    H123024   3.370   0.009   2.074  0.5587 -0.1033 -1.1156
  463TIP3    H223025   3.420   0.023   2.217 -1.0747 -1.3847 -0.3889
  464TIP3   OH223026   3.600   4.847   7.635 -0.2419 -0.3575 -0.2628
  464TIP3    H123027   3.521   4.900   7.641 -0.2566 -0.3924 -0.1551
  464TIP3    H223028   3.646   4.881   7.558 -1.0221 -1.2207 -1.1423
  465TIP3   OH223029   5.123   5.665   1.928  0.1317  0.2362 -0.3032
  465TIP3    H123030   5.099   5.700   2.013  0.2611  1.6816 -0.8350
  465TIP3    H223031   5.181   5.591   1.947 -0.9340 -0.3115  0.8737
  466TIP3   OH223032   4.388   0.651   6.452 -0.3908  0.8208  0.2692
  466TIP3    H123033   4.381   0.741   6.420 -1.8378  0.9343  0.8446
  466TIP3    H223034   4.345   0.598   6.385  2.1646  0.2400 -1.0732
  467TIP3   OH223035   2.493   3.801   1.205  0.2019 -0.3487 -0.0966
  467TIP3    H123036   2.497   3.895   1.218 -2.5185 -0.3615  1.5263
  467TIP3    H223037   2.518   3.788   1.114  0.5591  1.9287 -0.3750
  468TIP3   OH223038   6.683   3.052   0.357 -0.2577 -0.0858  0.2066
  468TIP3    H123039   6.769   3.013   0.372  0.9744  2.3567  0.0889
  468TIP3    H223040   6.665   3.099   0.439 -0.0885  1.7583 -0.7619
  469TIP3   OH223041   4.316   2.772   1.034  0.3548 -0.2183  0.4608
  469TIP3    H123042   4.331   2.701   1.096  0.2929  0.2101  0.9762
  469TIP3    H223043   4.400   2.818   1.028  0.2383  0.0142  0.5802
  470TIP3   OH223044   6.023   6.049   1.100  0.1539  0.3041 -0.5445
  470TIP3    H123045   5.942   6.040   1.050  0.9084 -2.3362 -1.4514
  470TIP3    H223046   6.006   6.001   1.181  1.7121 -3.0174 -2.0434
  471TIP3   OH223047   5.665   5.118   0.910  0.4027 -0.3551 -0.9086
  471TIP3    H123048   5.696   5.039   0.954 -1.0590 -0.9415 -0.8583
  471TIP3    H223049   5.652   5.091   0.819 -2.1841 -0.8740 -0.4733
  472TIP3   OH223050   2.212   0.577   7.413  0.6338 -0.4445  0.3806
  472TIP3    H123051   2.149   0.648   7.426  1.3860  0.7267 -1.9260
  472TIP3    H223052   2.266   0.578   7.492  1.2064  2.1991  0.0262
  473TIP3   OH223053   5.898   4.349   8.028  0.3199 -0.0748 -0.0063
  473TIP3    H123054   5.914   4.274   7.970  1.4129  0.2294 -0.1222
  473TIP3    H223055   5.808   4.374   8.011  0.7962  0.4168 -2.0598
  474TIP3   OH223056   2.785   6.007   8.529 -0.3446 -0.2929  0.0496
  474TIP3    H123057   2.825   6.026   8.614 -0.2027 -0.6703  0.0722
  474TIP3    H223058   2.834   5.931   8.497  0.6036  0.7595 -1.0620
  475TIP3   OH223059   1.272   6.643   6.543  0.1112  0.1781  0.1642
  475TIP3    H123060   1.361   6.677   6.553 -0.1146  0.8768 -0.1560
  475TIP3    H223061   1.220   6.691   6.607  0.0611 -0.6440  0.7594
  476TIP3   OH223062   1.763   1.166   0.853  0.4804 -0.3610  0.4015
  476TIP3    H123063   1.670   1.169   0.832  0.7031  2.7481 -0.7547
  476TIP3    H223064   1.770   1.101   0.922 -2.3553 -1.5083 -0.2393
  477TIP3   OH223065   4.949   6.338   6.422  0.4609  0.1272 -0.3007
  477TIP3    H123066   4.953   6.243   6.413 -0.2216  0.0658 -0.0039
  477TIP3    H223067   4.945   6.371   6.333  1.0389 -0.1036 -0.4167
  478TIP3   OH223068   1.156   3.759   7.974  0.5920 -0.0927 -0.3547
  478TIP3    H123069   1.240   3.718   7.993  0.9065  0.1076 -1.2575
  478TIP3    H223070   1.173   3.815   7.898  0.1568  1.6814  0.7896
  479TIP3   OH223071   1.307   3.337   7.477 -0.4365 -0.3617 -0.5086
  479TIP3    H123072   1.316   3.276   7.403  1.5922  0.1852 -0.7724
  479TIP3    H223073   1.275   3.418   7.437 -1.6504 -0.7619 -0.3897
  480TIP3   OH223074   4.308   4.372   6.872 -0.1055  0.1214  0.0914
  480TIP3    H123075   4.298   4.278   6.855 -0.9972  0.2331 -0.0741
  480TIP3    H223076   4.342   4.376   6.962  2.8732 -0.4151 -0.9171
  481TIP3   OH223077   1.880   1.118   0.612  0.8940 -0.2956 -0.3256
  481TIP3    H123078   1.841   1.132   0.698  1.1288 -1.5839  0.0158
  481TIP3    H223079   1.812   1.071   0.562  0.9463 -0.0024 -0.6791
  482TIP3   OH223080   6.084   3.431   2.274 -0.4330 -0.7025 -0.6423
  482TIP3    H123081   6.060   3.521   2.253  1.2441  0.1816  0.9859
  482TIP3    H223082   6.018   3.378   2.230 -1.1748  1.2784 -2.0661
  483TIP3   OH223083   5.780   3.094   6.439  0.0878 -0.3960  0.3025
  483TIP3    H123084   5.737   3.065   6.358 -0.9461 -0.9157  1.0167
  483TIP3    H223085   5.717   3.153   6.480  1.0367  0.6954  0.2416
  484TIP3   OH223086   0.313   4.725   6.542 -0.3664 -0.4304 -0.3543
  484TIP3    H123087   0.370   4.658   6.580 -0.1610  0.9621  1.9662
  484TIP3    H223088   0.225   4.701   6.570 -0.2896  0.2286  0.5029
  485TIP3   OH223089   5.878   1.269   7.426 -0.5765 -0.5801  0.2300
  485TIP3    H123090   5.837   1.354   7.441  0.4021 -0.2084  0.9565
  485TIP3    H223091   5.806   1.207   7.417 -1.3052  0.3552 -0.4884
  486TIP3   OH223092   4.753   1.259   8.138 -0.0098  0.0435  0.3005
  486TIP3    H123093   4.804   1.320   8.191  0.1765 -0.1530  0.3526
  486TIP3    H223094   4.723   1.311   8.063  1.3333 -0.1244 -0.3940
  487TIP3   OH223095   2.784   0.610   7.076  0.3313 -0.1210  0.4403
  487TIP3    H123096   2.859   0.557   7.048  1.4084  0.8422  1.3777
  487TIP3    H223097   2.738   0.632   6.995 -0.0617 -2.2963 -0.0020
  488TIP3   OH223098   1.432   2.169   6.546 -0.1177 -0.2110  0.3653
  488TIP3    H123099   1.372   2.155   6.473 -1.2444 -1.8646  1.5370
  488TIP3    H223100   1.516   2.137   6.516 -0.5669 -0.8591 -0.2114
  489TIP3   OH223101   6.540   6.612   7.643  0.3848 -0.2284  0.1096
  489TIP3    H123102   6.485   6.589   7.568 -1.4813  0.0112  1.3637
  489TIP3    H223103   6.504   6.563   7.716  2.0583 -0.3028  0.9253
  490TIP3   OH223104   5.365   6.574   1.806  0.1278  0.2823  0.1988
  490TIP3    H123105   5.437   6.558   1.745  1.7899  1.7223  1.6414
  490TIP3    H223106   5.404   6.564   1.893 -1.7024  0.0539  1.0455
  491TIP3   OH223107   6.314   4.815   8.326  0.6639 -0.3226  0.2140
  491TIP3    H123108   6.234   4.862   8.346 -0.4391 -1.2379 -1.7573
  491TIP3    H223109   6.290   4.723   8.331  1.6233 -0.6200 -0.3436
  492TIP3   OH223110   2.724   4.702   1.840  0.6373 -0.3766  0.1664
  492TIP3    H123111   2.675   4.702   1.923  1.6630  0.0326  0.7989
  492TIP3    H223112   2.771   4.619   1.839 -1.6619 -1.7577 -1.4656
  493TIP3   OH223113   1.764   2.242   8.531 -0.2607 -0.0351 -0.2378
  493TIP3    H123114   1.841   2.209   8.577  0.4488 -0.0312 -1.4017
  493TIP3    H223115   1.797   2.270   8.446 -1.1636  1.9360  0.0030
  494TIP3   OH223116   3.749   5.232   8.325 -0.1992  0.4199 -0.0635
  494TIP3    H123117   3.742   5.166   8.394 -3.2424 -1.0305 -1.5343
  494TIP3    H223118   3.719   5.186   8.246  2.0261  2.3103 -2.1719
  495TIP3   OH223119   5.961   1.529   1.664 -0.3742 -0.1042 -0.3866
  495TIP3    H123120   5.927   1.607   1.620 -0.7956  0.7852  1.4195
  495TIP3    H223121   6.001   1.562   1.744  0.4030 -1.6529 -0.0986
  496TIP3   OH223122   4.426   6.505   7.181 -0.2446  0.2431  0.2546
  496TIP3    H123123   4.493   6.478   7.118 -0.3500  3.2012 -1.2696
  496TIP3    H223124   4.343   6.478   7.140 -0.2036  0.1141  0.2548
  497TIP3   OH223125   1.469   2.489   1.519  0.4007  0.6685 -0.4016
  497TIP3    H123126   1.455   2.492   1.424 -0.5816 -1.0946 -0.3460
  497TIP3    H223127   1.418   2.562   1.553 -2.1812 -0.7619 -0.9664
  498TIP3   OH223128   4.360   6.561   0.395  0.9264  0.0849  0.0566
  498TIP3    H123129   4.313   6.640   0.368 -0.3013 -1.2249 -1.8920
  498TIP3    H223130   4.352   6.560   0.491  0.1966  1.8277  0.0537
  499TIP3   OH223131   0.134   3.693   0.773 -0.4621 -0.0682 -0.3938
  499TIP3    H123132   0.208   3.728   0.823 -2.1973  2.2802  0.7145
  499TIP3    H223133   0.144   3.732   0.686 -1.0851  1.3620  0.1485
  500TIP3   OH223134   6.697   3.689   8.490  0.0046 -0.4561  0.5406
  500TIP3    H123135   6.603   3.694   8.471  0.0730  0.1563  0.3264
  500TIP3    H223136   6.702   3.681   8.585 -0.2341  1.5069  0.7713
  501TIP3   OH223137   1.130   0.684   6.923  0.0736 -0.5713 -0.2529
  501TIP3    H123138   1.095   0.605   6.881 -2.7422  1.1596 -1.4673
  501TIP3    H223139   1.193   0.719   6.859  0.2673 -1.0661 -0.3384
  502TIP3   OH223140   4.691   6.488   8.550  0.3911  0.6613 -0.1897
  502TIP3    H123141   4.624   6.499   8.482  0.0404 -1.0914 -0.1694
  502TIP3    H223142   4.691   6.572   8.597 -1.8135  0.7178 -0.1714
  503TIP3   OH223143   3.924   4.492   0.301  0.4120  0.0727 -0.0274
  503TIP3    H123144   3.956   4.554   0.235  1.6340  1.1081  1.4447
  503TIP3    H223145   3.948   4.406   0.267 -1.9611  0.2489 -2.4746
  504TIP3   OH223146   3.328   3.677   1.230  0.5606 -0.5904  0.4765
  504TIP3    H123147   3.306   3.699   1.320  0.1121  0.5374  0.1057
  504TIP3    H223148   3.264   3.611   1.205  0.8888 -1.1510  1.0717
  505TIP3   OH223149   4.213   0.696   0.529 -0.2378 -0.7817 -0.6806
  505TIP3    H123150   4.185   0.730   0.444  1.9038  0.6542 -0.9105
  505TIP3    H223151   4.305   0.670   0.515  0.2595 -0.2447  1.2435
  506TIP3   OH223152   3.267   6.487   8.600 -0.0991 -0.5000  0.2832
  506TIP3    H123153   3.243   6.473   8.508 -0.7345  0.5364  0.2784
  506TIP3    H223154   3.293   6.401   8.631  1.5620 -0.6353 -1.2760
  507TIP3   OH223155   1.716   5.947   1.571  0.8455 -0.2170  0.5123
  507TIP3    H123156   1.714   5.984   1.659  2.1564  0.5874  0.2353
  507TIP3    H223157   1.666   5.866   1.578 -1.6048  1.2664  1.2895
  508TIP3   OH223158   5.715   2.916   1.293  0.2909  0.0362  0.5027
  508TIP3    H123159   5.653   2.844   1.307  0.4776 -0.0030  1.1394
  508TIP3    H223160   5.664   2.995   1.307  0.3537  0.0052  0.9263
  509TIP3   OH223161   5.863   3.272   1.283 -0.3699 -0.2474  0.4353
  509TIP3    H123162   5.954   3.253   1.307 -0.4868 -0.6794  0.5444
  509TIP3    H223163   5.831   3.190   1.245 -0.6072  0.0109  0.0750
  510TIP3   OH223164   0.385   3.731   0.655 -0.1393 -0.1859  0.1554
  510TIP3    H123165   0.423   3.810   0.694  0.3079 -0.3754  0.1055
  510TIP3    H223166   0.442   3.660   0.684  1.1680 -0.1667 -2.0843
  511TIP3   OH223167   0.350   5.570   0.752  0.2850  0.8839 -0.0670
  511TIP3    H123168   0.446   5.565   0.745  0.3693 -0.8503  1.7033
  511TIP3    H223169   0.334   5.657   0.790  1.1457  1.1576 -0.2960
  512TIP3   OH223170   5.934   5.130   7.102  0.0962 -0.2719  0.0349
  512TIP3    H123171   5.953   5.140   7.195 -1.1536 -1.6699  0.4933
  512TIP3    H223172   5.989   5.195   7.058  1.0663  0.0820  1.7020
  513TIP3   OH223173   3.949   4.085   8.160  0.2195 -0.2947  0.2906
  513TIP3    H123174   3.913   3.997   8.145 -2.7471  0.5721  1.5209
  513TIP3    H223175   4.026   4.089   8.104 -1.3336 -2.6079 -2.2927
  514TIP3   OH223176   5.214   4.187   0.298  0.2696  0.3416 -0.5463
  514TIP3    H123177   5.283   4.207   0.361  0.0504 -1.2122  0.2371
  514TIP3    H223178   5.138   4.237   0.328  1.1001  2.3590 -1.6240
  515TIP3   OH223179   3.988   1.962   8.156  0.4776  0.7988 -0.1749
  515TIP3    H123180   4.017   1.888   8.208 -0.7002  2.0951  2.5419
  515TIP3    H223181   4.060   1.979   8.095  1.6760 -1.1988  0.6161
  516TIP3   OH223182   6.604   6.802   0.328  0.0767 -0.4870  0.2942
  516TIP3    H123183   6.674   6.854   0.368 -1.0065  2.3579 -1.2439
  516TIP3    H223184   6.540   6.792   0.398  0.2275  0.4481  0.5839
  517TIP3   OH223185   3.323   6.103   8.516 -0.0289 -0.7454  0.6742
  517TIP3    H123186   3.326   6.124   8.423 -1.7523  1.9660  1.1086
  517TIP3    H223187   3.280   6.018   8.520  0.8392 -1.3115 -1.0056
  518TIP3   OH223188   0.002   6.763   2.002 -0.5002 -0.2021  0.1243
  518TIP3    H123189   0.087   6.799   1.976 -0.7917  0.1208 -0.3972
  518TIP3    H223190  -0.057   6.838   1.999 -0.5453 -0.1314  1.8031
  519TIP3   OH223191   3.319   3.221   7.241 -0.2488  0.1509 -0.2741
  519TIP3    H123192   3.400   3.268   7.262 -2.1027  2.7271  1.9520
  519TIP3    H223193   3.280   3.202   7.326 -2.0325 -0.9277 -1.2748
  520TIP3   OH223194   1.568   5.625   7.623 -0.2679  0.1193 -0.0164
  520TIP3    H123195   1.521   5.565   7.564 -1.0894 -0.0058  0.7550
  520TIP3    H223196   1.502   5.688   7.651  0.3540  0.7748  0.0006
  521TIP3   OH223197   0.510   3.205   0.153 -0.3574  0.5318 -0.1255
  521TIP3    H123198   0.520   3.215   0.059 -1.7772  0.3534 -0.3191
  521TIP3    H223199   0.448   3.133   0.164  0.4205 -0.0007  0.9710
  522TIP3   OH223200   2.699   2.814   0.023  0.7600  0.0947 -0.1809
  522TIP3    H123201   2.669   2.904   0.010  0.5845  0.3919  1.8615
  522TIP3    H223202   2.652   2.785   0.101  1.5994 -1.4000 -0.2064
  523TIP3   OH223203   3.991   6.680   6.788  0.2686  0.0077  0.0490
  523TIP3    H123204   4.054   6.752   6.791 -0.3520  0.5856 -0.3685
  523TIP3    H223205   4.043   6.601   6.801  0.6530  0.6550  2.9859
  524TIP3   OH223206   6.003   1.181   0.982 -0.0319  0.1103 -0.0648
  524TIP3    H123207   5.947   1.120   0.934 -0.3185 -0.6537  1.2041
  524TIP3    H223208   6.090   1.139   0.982  0.4547  1.0246 -1.5355
  525TIP3   OH223209   4.555   1.529   0.788 -0.0643  0.3246  0.2396
  525TIP3    H123210   4.505   1.589   0.733 -2.0057 -0.2669  1.2536
  525TIP3    H223211   4.630   1.504   0.734 -0.8492  1.2630 -1.3698
  526TIP3   OH223212   5.258   2.539   1.468  0.5817  0.2081 -0.3057
  526TIP3    H123213   5.194   2.530   1.397  1.0363  0.3946 -0.7378
  526TIP3    H223214   5.215   2.597   1.531  0.2975  0.2793 -0.5641
  527TIP3   OH223215   6.028   6.456   7.388 -0.3449 -0.3583 -0.0190
  527TIP3    H123216   6.078   6.475   7.467 -1.8587  1.1936  0.6300
  527TIP3    H223217   6.081   6.391   7.341  0.3315 -1.7921  2.5250
  528TIP3   OH223218   1.760   2.280   7.347  0.6042  0.5268 -0.3871
  528TIP3    H123219   1.848   2.302   7.316  2.1824 -0.2286  3.0567
  528TIP3    H223220   1.753   2.186   7.333  1.4040  0.1453  1.4523
  529TIP3   OH223221   3.100   0.294   5.892  0.7374 -0.0933  0.2644
  529TIP3    H123222   3.047   0.354   5.838 -0.6618 -1.2251  0.3258
  529TIP3    H223223   3.093   0.210   5.847  0.1938 -0.8829  1.7821
  530TIP3   OH223224   3.101   0.396   0.588  0.0065  0.1329  0.3628
  530TIP3    H123225   3.053   0.436   0.661  0.4054  0.8563  0.2363
  530TIP3    H223226   3.044   0.325   0.558 -0.2325 -0.0823  1.2766
  531TIP3   OH223227   2.149   1.949   1.799 -0.0604  0.4156  0.3049
  531TIP3    H123228   2.097   1.997   1.863  0.0301  0.0056  0.6847
  531TIP3    H223229   2.088   1.886   1.760  0.2045 -0.2375  0.9288
  532TIP3   OH223230   0.991   0.368   2.493  0.2066 -0.1026  0.1802
  532TIP3    H123231   1.050   0.306   2.449  0.2871  0.6730 -0.8383
  532TIP3    H223232   1.040   0.450   2.493 -0.2919  0.1898  0.6437
  533TIP3   OH223233   2.609   1.805   0.077  0.1248  0.0555 -0.3674
  533TIP3    H123234   2.548   1.739   0.044  1.0326 -0.5244 -0.9260
  533TIP3    H223235   2.560   1.887   0.070 -0.6388 -0.4075 -0.6840
  534TIP3   OH223236   3.603   1.414   7.678  0.5556 -0.4848  0.0194
  534TIP3    H123237   3.677   1.459   7.638  0.8663 -2.3920 -1.7687
  534TIP3    H223238   3.527   1.469   7.658  1.2555  0.6307  0.3665
  535TIP3   OH223239   3.490   3.099   0.289  0.2529  0.5448 -0.0738
  535TIP3    H123240   3.394   3.100   0.288  0.1944 -1.0695  0.9851
  535TIP3    H223241   3.515   3.164   0.223 -1.5558  1.3594 -0.0149
  536TIP3   OH223242   5.698   5.812   7.120 -0.0635 -0.4807  0.5169
  536TIP3    H123243   5.701   5.902   7.153  1.8958  0.1741 -1.2489
  536TIP3    H223244   5.606   5.797   7.098 -0.0812  2.0325 -1.5204
  537TIP3   OH223245   1.227   5.446   8.196  0.5174  0.5289  0.5083
  537TIP3    H123246   1.213   5.376   8.133  0.2063  0.6854  0.4018
  537TIP3    H223247   1.322   5.458   8.199  0.5197  0.6617 -0.0764
  538TIP3   OH223248   1.185   6.866   7.236  0.5314  0.4460 -0.2179
  538TIP3    H123249   1.092   6.886   7.220  0.6329  0.7899 -0.3839
  538TIP3    H223250   1.197   6.883   7.330  0.1169 -0.8540  0.0950
  539TIP3   OH223251   0.627   3.718   8.284 -0.6002  0.2050  0.7510
  539TIP3    H123252   0.625   3.792   8.223 -1.1441 -1.0153 -0.7837
  539TIP3    H223253   0.712   3.724   8.326  0.6003  0.0717 -1.5017
  540TIP3   OH223254   2.358   6.329   6.098  0.1716  0.3023  0.6350
  540TIP3    H123255   2.327   6.396   6.037  0.3637  0.9161  1.2013
  540TIP3    H223256   2.397   6.378   6.170  1.2448 -0.4309  0.5820
  541TIP3   OH223257   4.123   6.890   0.716 -0.8580  0.4271 -0.5800
  541TIP3    H123258   4.183   6.945   0.666  0.2273  1.1445  1.4111
  541TIP3    H223259   4.036   6.921   0.692 -0.4900 -0.3110 -3.1541
  542TIP3   OH223260   1.132   4.978   7.298 -0.5680 -0.2004  0.2092
  542TIP3    H123261   1.174   5.060   7.324  1.0439 -0.2402 -1.9355
  542TIP3    H223262   1.144   4.920   7.373  1.3349  0.5142  0.5309
  543TIP3   OH223263   4.784   0.443   0.313 -0.9101  0.5262 -0.0591
  543TIP3    H123264   4.840   0.518   0.291 -0.2071 -0.3447 -1.3293
  543TIP3    H223265   4.698   0.467   0.280 -0.3268  0.1131 -1.9861
  544TIP3   OH223266   2.016   6.790   6.105  0.2976  1.1832 -0.1543
  544TIP3    H123267   2.003   6.885   6.098  0.2049  1.1272 -0.8162
  544TIP3    H223268   2.109   6.777   6.090  0.0249  1.0222 -1.8671
  545TIP3   OH223269   4.250   5.690   8.276  0.2290  0.0763 -0.0939
  545TIP3    H123270   4.157   5.707   8.287 -0.0369 -0.6006 -1.1710
  545TIP3    H223271   4.256   5.596   8.261  0.9356  0.3123 -1.4175
  546TIP3   OH223272   1.178   0.926   7.384 -0.1623 -0.4867 -0.0637
  546TIP3    H123273   1.223   0.885   7.458 -0.1463  0.4396  0.4489
  546TIP3    H223274   1.249   0.955   7.326  0.0264  1.8484  1.2034
  547TIP3   OH223275   0.235   3.249   8.103 -0.4959  0.8168  0.5831
  547TIP3    H123276   0.249   3.161   8.138 -0.7324  0.6521  0.2598
  547TIP3    H223277   0.323   3.286   8.096 -0.4041  0.6459  0.8205
  548TIP3   OH223278   1.913   2.556   7.538 -0.3989  0.3385  0.0812
  548TIP3    H123279   1.886   2.633   7.588 -1.7365 -0.1110  0.0874
  548TIP3    H223280   1.863   2.484   7.577 -0.0924 -0.3265 -0.7325
  549TIP3   OH223281   4.597   5.223   7.899  0.2287  0.1234  0.2490
  549TIP3    H123282   4.608   5.288   7.968 -0.2038  0.7727 -0.2688
  549TIP3    H223283   4.514   5.179   7.920  0.9012 -0.7991  1.0162
  550TIP3   OH223284   6.244   5.595   6.154 -0.2926  0.8442  0.1480
  550TIP3    H123285   6.317   5.533   6.144  0.1999  1.5236 -0.6387
  550TIP3    H223286   6.166   5.542   6.141  0.1287  0.4080 -0.6923
  551TIP3   OH223287   4.674   4.346   2.243 -0.0265  0.0896  0.3383
  551TIP3    H123288   4.630   4.425   2.212  0.1723  0.2953  0.5767
  551TIP3    H223289   4.618   4.312   2.312  0.1769  0.3481  0.6372
  552TIP3   OH223290   2.246   6.270   1.343 -0.0000 -0.0103  0.2849
  552TIP3    H123291   2.155   6.273   1.313  0.0517  0.8536  0.1895
  552TIP3    H223292   2.298   6.289   1.265  0.1959  0.8633  0.6117
  553TIP3   OH223293   5.152   5.404   0.543  0.3787 -0.1422  0.1253
  553TIP3    H123294   5.074   5.393   0.598 -0.7839 -4.0509 -1.9857
  553TIP3    H223295   5.221   5.358   0.591  0.2171 -0.6118 -0.0862
  554TIP3   OH223296   2.827   0.972   6.958  0.1598 -0.2561  0.4812
  554TIP3    H123297   2.744   0.931   6.936 -0.1786  0.6327  0.0766
  554TIP3    H223298   2.825   0.981   7.054 -0.3398  0.0489  0.4430
  555TIP3   OH223299   6.462   4.397   1.734  0.1592  0.0308 -0.0897
  555TIP3    H123300   6.406   4.333   1.690  0.2068 -0.5748  0.6854
  555TIP3    H223301   6.402   4.452   1.783  0.1638  0.1178 -0.1823
  556TIP3   OH223302   0.370   3.571   6.235 -0.0143  0.2298  0.6627
  556TIP3    H123303   0.440   3.587   6.173  0.0530  1.8249  1.1038
  556TIP3    H223304   0.290   3.598   6.189  0.0829  1.8639  1.3561
  557TIP3   OH223305   1.321   0.944   0.017 -0.1541  0.1233  0.4341
  557TIP3    H123306   1.247   1.005   0.022  0.7398  1.1508  2.1443
  557TIP3    H223307   1.397   1.000   0.000  0.5223 -0.6619  0.8175
  558TIP3   OH223308   5.655   5.727   1.055 -0.2707 -0.2748 -0.1045
  558TIP3    H123309   5.562   5.706   1.049 -1.1412  1.7161  3.5406
  558TIP3    H223310   5.697   5.643   1.076 -1.4665 -0.9020 -0.1166
  559TIP3   OH223311   5.024   6.077   2.148 -0.2004 -0.2608 -0.0294
  559TIP3    H123312   4.977   6.091   2.230 -1.4718 -0.6593 -0.6628
  559TIP3    H223313   4.983   6.137   2.086  1.0616  0.3796 -0.2896
  560TIP3   OH223314   4.190   5.790   0.764  0.7986  0.0739 -0.2018
  560TIP3    H123315   4.272   5.759   0.725  0.6996  0.1285 -0.4604
  560TIP3    H223316   4.143   5.710   0.786  1.9236 -0.0088  2.1705
  561TIP3   OH223317   2.726   1.058   1.218 -0.1066  0.3452 -0.2913
  561TIP3    H123318   2.646   1.052   1.165  0.7294  1.1022 -1.7026
  561TIP3    H223319   2.713   1.135   1.273 -0.9936 -0.4632  0.6847
  562TIP3   OH223320   0.130   4.952   1.513 -0.5194  0.3257  0.5075
  562TIP3    H123321   0.107   4.940   1.421  0.2160 -1.4394  0.5007
  562TIP3    H223322   0.226   4.958   1.513 -0.5767  1.5884  1.0656
  563TIP3   OH223323   3.928   1.160   7.610 -0.3639  0.4198 -0.7193
  563TIP3    H123324   3.850   1.137   7.560 -0.5588  0.7688 -0.5815
  563TIP3    H223325   4.000   1.116   7.565 -0.8353 -1.2302  0.0930
  564TIP3   OH223326   4.239   5.399   8.254  0.3275 -0.0311 -0.3090
  564TIP3    H123327   4.317   5.386   8.307 -1.4125 -0.9129  2.2446
  564TIP3    H223328   4.221   5.313   8.216 -0.1517 -0.1861  0.2554
  565TIP3   OH223329   5.712   5.523   0.034  0.1909  0.0649 -0.3467
  565TIP3    H123330   5.721   5.530  -0.061  0.6717 -0.1307 -0.3178
  565TIP3    H223331   5.732   5.611   0.067  0.5306  0.0060 -0.3923
  566TIP3   OH223332   0.746   2.904   6.610  0.0136  0.0871 -0.5235
  566TIP3    H123333   0.831   2.921   6.568  0.1704 -0.2862 -0.3627
  566TIP3    H223334   0.690   2.976   6.580  0.4804  0.5205 -0.3675
  567TIP3   OH223335   4.998   6.855   7.009 -0.2097 -0.0368 -0.3229
  567TIP3    H123336   4.949   6.773   7.015 -1.3411  0.6456  0.1871
  567TIP3    H223337   4.955   6.903   6.939 -0.7991  0.8841  0.6296
  568TIP3   OH223338   1.409   4.554   7.008  0.1569  0.4576 -0.2106
  568TIP3    H123339   1.387   4.467   7.039  0.3222  0.4976  0.0234
  568TIP3    H223340   1.337   4.610   7.037 -1.0210  0.0493 -2.1610
  569TIP3   OH223341   3.906   1.389   1.434  0.4226  0.5434 -0.3650
  569TIP3    H123342   3.984   1.363   1.482 -0.7849 -2.6678  0.1216
  569TIP3    H223343   3.849   1.428   1.500  0.1532 -0.6365  0.1272
  570TIP3   OH223344   0.974   3.477   1.377 -0.2202  0.1238 -0.4071
  570TIP3    H123345   1.028   3.556   1.385 -0.2052  0.0017  1.0344
  570TIP3    H223346   1.015   3.415   1.437  0.0297 -1.1530 -1.8572
  571TIP3   OH223347   6.616   2.204   8.324 -0.6489 -0.1477 -0.4507
  571TIP3    H123348   6.662   2.220   8.407 -1.3904  0.1684 -0.0917
  571TIP3    H223349   6.678   2.233   8.257 -0.2227  0.0417  0.0126
  572TIP3   OH223350   4.508   3.063   6.750 -0.3102  0.2252 -0.1758
  572TIP3    H123351   4.490   2.970   6.759  0.2481  0.2269  1.1764
  572TIP3    H223352   4.602   3.067   6.731 -0.4924  0.4802 -1.0397
  573TIP3   OH223353   1.864   6.398   7.458  0.4465  0.3207  0.7053
  573TIP3    H123354   1.854   6.406   7.552 -0.6230 -1.1293  0.7505
  573TIP3    H223355   1.786   6.440   7.421 -1.4079 -2.8252  0.6955
  574TIP3   OH223356   3.220   2.015   8.025 -0.4763  0.3356  0.4220
  574TIP3    H123357   3.282   1.946   8.049 -1.7060 -1.1932 -0.6541
  574TIP3    H223358   3.272   2.095   8.029  1.0831 -0.6594  1.3883
  575TIP3   OH223359   4.736   3.500   7.962 -0.5341  0.1909  0.2680
  575TIP3    H123360   4.773   3.452   8.037 -0.9959 -1.3621 -0.4480
  575TIP3    H223361   4.687   3.572   8.002  0.5638  0.3611  1.3790
  576TIP3   OH223362   3.618   5.568   1.417 -0.3343  0.5927 -0.1751
  576TIP3    H123363   3.538   5.587   1.466 -0.7208 -0.0582 -0.5457
  576TIP3    H223364   3.603   5.610   1.332  0.0539  1.1484  0.0281
  577TIP3   OH223365   4.005   0.741   0.897  0.3151  0.0903 -0.0061
  577TIP3    H123366   4.005   0.662   0.844  1.9477  1.1462 -1.6983
  577TIP3    H223367   3.954   0.804   0.846 -0.0581  0.4417  0.7923
  578TIP3   OH223368   5.307   1.532   7.442 -0.2319 -0.0840 -0.1655
  578TIP3    H123369   5.216   1.526   7.412  0.2649 -0.6712 -1.6653
  578TIP3    H223370   5.349   1.454   7.406  1.0185  0.5113 -0.0461
  579TIP3   OH223371   4.659   4.332   1.144 -0.0208 -0.3286  0.1008
  579TIP3    H123372   4.593   4.263   1.138  0.8436 -1.0744 -1.5332
  579TIP3    H223373   4.616   4.410   1.108 -0.7478 -0.1782  1.2393
  580TIP3   OH223374   0.170   1.506   8.537 -0.0011 -0.2087  0.1972
  580TIP3    H123375   0.143   1.427   8.584 -0.0062  0.3430  1.1348
  580TIP3    H223376   0.216   1.473   8.460 -0.3096 -1.1278  0.3973
  581TIP3   OH223377   2.870   6.533   8.418  0.1161 -0.4976  0.3522
  581TIP3    H123378   2.923   6.453   8.415 -1.2585 -1.4223 -1.1490
  581TIP3    H223379   2.828   6.531   8.504  0.0544 -1.4434  0.3185
  582TIP3   OH223380   6.678   5.349   7.034 -0.2309 -0.2664 -0.2098
  582TIP3    H123381   6.715   5.420   7.086  0.8315 -0.2894 -0.9032
  582TIP3    H223382   6.669   5.387   6.946 -1.0104 -0.5508 -0.2593
  583TIP3   OH223383   6.219   4.435   0.526 -0.2338 -0.4869 -0.2890
  583TIP3    H123384   6.189   4.344   0.516 -0.0171 -0.3955 -1.9974
  583TIP3    H223385   6.290   4.444   0.463  0.2517  0.6811  0.3900
  584TIP3   OH223386   5.480   5.664   6.929  0.3162 -0.3254  0.0888
  584TIP3    H123387   5.454   5.659   6.837 -0.1943  1.4763  0.1064
  584TIP3    H223388   5.566   5.623   6.932  0.8348  0.5862 -1.4024
  585TIP3   OH223389   3.048   3.191   1.806  0.2007 -0.0289  0.5117
  585TIP3    H123390   2.971   3.139   1.830  0.4460 -0.1304  1.0886
  585TIP3    H223391   3.043   3.269   1.860 -1.2952  1.6120 -1.8129
  586TIP3   OH223392   4.914   0.164   2.230  0.1067 -0.5088  0.0425
  586TIP3    H123393   4.959   0.089   2.268 -0.5296 -0.5332  0.7711
  586TIP3    H223394   4.823   0.137   2.223 -0.0275 -0.0036 -0.1988
  587TIP3   OH223395   2.454   3.708   1.837  0.1407 -0.4286 -0.0634
  587TIP3    H123396   2.368   3.678   1.866  0.1753 -2.1727 -1.5113
  587TIP3    H223397   2.515   3.666   1.897  0.0181  1.5532  1.5493
  588TIP3   OH223398   0.363   2.835   0.913  0.2370 -0.2676 -0.0615
  588TIP3    H123399   0.379   2.774   0.841  1.5592 -1.6244  1.3008
  588TIP3    H223400   0.421   2.909   0.895 -1.1106  0.4975 -1.5362
  589TIP3   OH223401   6.057   1.566   2.236 -0.1425  0.5304  0.2311
  589TIP3    H123402   6.152   1.557   2.222 -0.2440 -1.0166  0.4130
  589TIP3    H223403   6.040   1.520   2.318 -1.4577 -1.8268 -1.2531
  590TIP3   OH223404   3.889   2.189   7.821 -0.3525 -0.1366 -0.3790
  590TIP3    H123405   3.834   2.150   7.889 -0.3636 -1.2080 -0.9804
  590TIP3    H223406   3.956   2.122   7.803 -0.1403  0.2778 -1.1707
  591TIP3   OH223407   1.634   0.836   8.073  0.3926 -0.2187 -0.2555
  591TIP3    H123408   1.700   0.778   8.112  0.0250  0.9757  2.3945
  591TIP3    H223409   1.659   0.923   8.104 -0.2275  0.7945 -2.4695
  592TIP3   OH223410   6.810   5.590   1.274 -0.1682 -0.2245 -0.1874
  592TIP3    H123411   6.720   5.589   1.307 -1.5369 -1.8967 -3.5111
  592TIP3    H223412   6.851   5.512   1.312 -0.3754  0.0868  0.6822
  593TIP3   OH223413   1.156   4.770   6.451 -0.3062  0.0151 -0.6289
  593TIP3    H123414   1.071   4.789   6.411 -0.7659 -1.5710 -0.4647
  593TIP3    H223415   1.137   4.705   6.519  0.9408  0.1449 -0.1313
  594TIP3   OH223416   1.592   0.359   0.518  0.0462  0.6267 -0.0839
  594TIP3    H123417   1.658   0.420   0.552 -0.2721  1.1972 -0.4682
  594TIP3    H223418   1.518   0.415   0.495 -0.5472 -0.0025  0.2829
  595TIP3   OH223419   3.571   5.671   0.869 -0.6440  0.0717  0.5041
  595TIP3    H123420   3.509   5.665   0.941  0.7106 -2.9973  1.5624
  595TIP3    H223421   3.649   5.713   0.907 -1.2999  2.1477 -0.3157
  596TIP3   OH223422   0.447   4.011   0.936 -0.5317  0.2762  0.2639
  596TIP3    H123423   0.417   3.977   1.020 -0.1814 -1.4532 -0.2833
  596TIP3    H223424   0.447   4.106   0.948  0.0458  0.0624  2.3931
  597TIP3   OH223425   0.843   5.404   7.863 -0.2885  0.4912  0.3253
  597TIP3    H123426   0.799   5.480   7.901 -2.8515  0.2287 -1.8783
  597TIP3    H223427   0.781   5.368   7.801  1.4276 -2.5795  0.1777
  598TIP3   OH223428   6.114   1.653   1.919  0.2040 -0.1114 -0.2939
  598TIP3    H123429   6.201   1.668   1.882  0.9232  0.5426  1.5079
  598TIP3    H223430   6.132   1.607   2.001 -1.2306 -0.7601 -0.3183
  599TIP3   OH223431   2.224   1.062   7.448  0.1000  0.3341 -0.5186
  599TIP3    H123432   2.304   1.026   7.408  0.8502  2.1981 -0.7881
  599TIP3    H223433   2.250   1.082   7.538 -0.8007 -1.2774  0.1473
  600TIP3   OH223434   0.917   6.310   5.914 -0.2444  0.2148  0.6908
  600TIP3    H123435   0.899   6.230   5.963  0.3998 -0.4177 -0.0829
  600TIP3    H223436   0.979   6.284   5.846 -0.9577  1.1095 -0.3463
  601TIP3   OH223437   0.610   2.090   1.790 -0.3889  0.1765  0.7073
  601TIP3    H123438   0.567   2.103   1.875 -1.7350 -1.2972  0.3132
  601TIP3    H223439   0.537   2.083   1.728  0.5476  0.3907 -0.4488
  602TIP3   OH223440   2.988   5.788   0.907 -0.2502  0.3012 -0.5748
  602TIP3    H123441   2.974   5.794   0.813 -1.3653  0.5019 -0.4071
  602TIP3    H223442   2.980   5.878   0.938 -0.0132  0.2193 -0.2666
  603TIP3   OH223443   2.301   6.529   1.750 -0.0212 -0.2211 -0.5535
  603TIP3    H123444   2.337   6.604   1.797 -1.5848 -0.9773  2.0461
  603TIP3    H223445   2.377   6.476   1.728  0.8875  0.8847 -0.2149
  604TIP3   OH223446   6.348   4.197   8.619  0.1337 -0.2958  0.0797
  604TIP3    H123447   6.374   4.285   8.592  0.1857 -0.0049  1.0497
  604TIP3    H223448   6.279   4.172   8.557 -0.5403  0.8059  0.3575
  605TIP3   OH223449   3.977   4.472   1.372  0.4067  0.4819 -1.0993
  605TIP3    H123450   4.022   4.556   1.375  1.6208 -0.0276  3.7112
  605TIP3    H223451   4.047   4.408   1.358  0.4146  0.0320  0.7445
  606TIP3   OH223452   6.293   1.004   7.404 -0.4458 -0.1030  0.1339
  606TIP3    H123453   6.232   0.988   7.476  1.7584 -0.2884  2.0634
  606TIP3    H223454   6.297   1.099   7.396 -1.3516 -0.0967 -0.3701
  607TIP3   OH223455   5.376   0.908   7.084 -0.2331  0.2884  0.3930
  607TIP3    H123456   5.410   0.837   7.029  0.0736 -0.3188  1.3317
  607TIP3    H223457   5.343   0.973   7.023  1.5509  0.3605 -0.5616
  608TIP3   OH223458   2.446   6.376   2.537  0.1023 -0.1274 -0.2047
  608TIP3    H123459   2.518   6.404   2.480  1.6603 -2.2152  0.6141
  608TIP3    H223460   2.465   6.285   2.557 -2.4447 -0.5557  0.6327
  609TIP3   OH223461   5.797   6.411   7.534  0.0765 -0.0584 -0.0222
  609TIP3    H123462   5.864   6.394   7.468  0.1999 -0.8792  0.3059
  609TIP3    H223463   5.827   6.491   7.578 -0.2242  0.7481 -1.2161
  610TIP3   OH223464   6.592   3.717   0.809  0.0515  0.0492 -0.6918
  610TIP3    H123465   6.559   3.652   0.870  1.0983  0.8307  0.7719
  610TIP3    H223466   6.674   3.680   0.775  1.2092  0.9881  0.9531
  611TIP3   OH223467   5.481   5.670   7.369  0.4388  0.2374 -0.1992
  611TIP3    H123468   5.558   5.720   7.399  0.2923  0.6565 -0.5050
  611TIP3    H223469   5.450   5.719   7.293 -0.0504 -0.0125 -0.1587
  612TIP3   OH223470   4.021   5.685   6.878 -0.0669 -0.3808 -0.3141
  612TIP3    H123471   3.981   5.668   6.964  0.5874 -2.3366 -0.3483
  612TIP3    H223472   3.997   5.609   6.825 -0.1122  0.6063 -1.7620
  613TIP3   OH223473   3.513   4.547   7.793  0.2282 -0.4563  0.5218
  613TIP3    H123474   3.464   4.473   7.827  0.5414 -0.2115  1.5411
  613TIP3    H223475   3.603   4.533   7.824  0.4949 -0.1580 -0.1031
  614TIP3   OH223476   2.411   0.177   7.321  0.1787 -0.4219  0.3539
  614TIP3    H123477   2.371   0.138   7.398  1.3303 -0.5672  0.9097
  614TIP3    H223478   2.453   0.257   7.354  1.0873 -0.7348 -0.0182
  615TIP3   OH223479   2.604   5.253   7.974 -0.5262 -0.2211  0.0905
  615TIP3    H123480   2.628   5.305   8.051 -2.0402  0.1063  0.3763
  615TIP3    H223481   2.673   5.188   7.966 -0.6912 -0.7161  2.1700
  616TIP3   OH223482   4.642   0.644   1.210  0.6709  0.4121 -0.1837
  616TIP3    H123483   4.713   0.673   1.153 -0.9686  0.3653 -2.4308
  616TIP3    H223484   4.606   0.724   1.247  1.9625  0.4191  1.1400
  617TIP3   OH223485   6.066   6.101   2.380  0.2460 -0.6856 -0.8171
  617TIP3    H123486   6.158   6.079   2.396 -0.6057 -2.9814  1.5477
  617TIP3    H223487   6.059   6.194   2.401  1.9383 -0.5704 -0.6523
  618TIP3   OH223488   4.983   6.131   0.442  0.2785  0.1067 -0.0491
  618TIP3    H123489   4.997   6.214   0.398 -0.6084 -0.8476 -2.2615
  618TIP3    H223490   5.030   6.067   0.389  0.5494 -0.8859  1.3446
  619TIP3   OH223491   5.962   6.887   0.468  0.1550  0.4406 -0.9311
  619TIP3    H123492   5.941   6.844   0.551 -0.3781 -0.8593 -1.7105
  619TIP3    H223493   6.046   6.848   0.442  0.2229  0.7047 -1.1109
  620TIP3   OH223494   1.387   1.101   6.866 -0.2750 -0.6744  0.1463
  620TIP3    H123495   1.424   1.013   6.859  0.7898 -0.2236 -0.0494
  620TIP3    H223496   1.356   1.122   6.778 -0.1049 -0.6744  0.0864
  621TIP3   OH223497   6.589   4.313   7.203 -0.4029  0.0017 -0.5918
  621TIP3    H123498   6.611   4.240   7.260  0.0177 -0.7949 -1.7216
  621TIP3    H223499   6.528   4.367   7.254 -1.3378 -1.5403 -0.0053
  622TIP3   OH223500   2.955   5.809   8.376 -0.1340  0.0627 -0.7366
  622TIP3    H123501   2.968   5.743   8.308 -0.0688 -0.9903  0.2629
  622TIP3    H223502   3.040   5.817   8.419  0.4503  2.3742 -2.1556
  623TIP3   OH223503   2.734   5.349   1.520 -0.7627 -0.0851 -0.1775
  623TIP3    H123504   2.783   5.269   1.503 -0.1323 -0.0729  1.3626
  623TIP3    H223505   2.647   5.320   1.547 -0.9987 -0.1813 -1.0209
  624TIP3   OH223506   4.838   4.558   7.964 -0.0191  0.0707  0.2951
  624TIP3    H123507   4.745   4.557   7.942 -0.4367  2.2794  1.6858
  624TIP3    H223508   4.869   4.644   7.936  1.6693 -0.6787 -0.2709
  625TIP3   OH223509   2.678   4.538   8.504 -0.2207 -0.4937 -0.4552
  625TIP3    H123510   2.772   4.520   8.501 -0.1145  0.0281 -3.6826
  625TIP3    H223511   2.648   4.524   8.414 -3.2482 -0.5698  0.4569
  626TIP3   OH223512   5.353   6.260   0.335 -0.1449 -0.5298 -0.1882
  626TIP3    H123513   5.373   6.192   0.398 -1.3388 -0.0924  0.6973
  626TIP3    H223514   5.379   6.224   0.251  0.7843 -1.4093  0.4584
  627TIP3   OH223515   4.195   2.303   7.816  0.3182  0.2277  0.2585
  627TIP3    H123516   4.162   2.275   7.901 -1.1398  1.1384  0.0190
  627TIP3    H223517   4.253   2.377   7.836 -0.5523  0.8800  0.4256
  628TIP3   OH223518   1.991   0.016   7.732  0.4621  0.4742 -0.0785
  628TIP3    H123519   1.931   0.055   7.669  1.0372  0.8372 -0.4193
  628TIP3    H223520   1.972  -0.078   7.729  2.3118  0.0303 -2.8980
  629TIP3   OH223521   6.735   3.142   7.726 -0.0707 -0.0329 -0.8299
  629TIP3    H123522   6.657   3.193   7.743  0.7962  1.2997 -0.6707
  629TIP3    H223523   6.769   3.177   7.643  0.0552 -0.9859 -1.2001
  630TIP3   OH223524   1.947   5.590   8.259 -0.3194 -0.2516  0.0582
  630TIP3    H123525   1.892   5.528   8.308 -0.6498  0.6585  0.8680
  630TIP3    H223526   2.014   5.535   8.218 -0.0480 -1.0461  1.5034
  631TIP3   OH223527   0.935   3.232   8.490 -0.2405 -0.2176 -0.0254
  631TIP3    H123528   0.863   3.178   8.522 -0.8149  0.8559  0.5780
  631TIP3    H223529   1.002   3.170   8.462 -0.7353 -1.2249  0.9487
  632TIP3   OH223530   1.522   6.846   0.426 -0.3369 -0.2985  0.3411
  632TIP3    H123531   1.433   6.872   0.449  0.1487  0.8086  1.0394
  632TIP3    H223532   1.531   6.872   0.334 -0.6517 -0.1786  0.3398
  633TIP3   OH223533   0.177   4.597   1.075 -0.9536  1.0435 -0.1999
  633TIP3    H123534   0.147   4.531   1.136 -0.1195  0.7123 -0.1428
  633TIP3    H223535   0.273   4.594   1.080 -0.8048  0.1801 -2.3732
  634TIP3   OH223536   2.561   4.724   2.051  0.3072  0.5758 -0.2152
  634TIP3    H123537   2.500   4.709   1.978 -0.3630  3.2455 -0.3088
  634TIP3    H223538   2.511   4.701   2.129  0.3886 -0.5485 -0.4870
  635TIP3   OH223539   1.482   1.131   0.182 -0.0290  0.3475 -0.3177
  635TIP3    H123540   1.441   1.094   0.260  0.7763 -1.3053 -0.6312
  635TIP3    H223541   1.517   1.216   0.211 -0.3011  0.0501  0.9331
  636TIP3   OH223542   5.309   3.846   8.440 -0.0732 -0.1804  0.0541
  636TIP3    H123543   5.247   3.783   8.475 -0.2140 -1.5608 -2.4553
  636TIP3    H223544   5.267   3.931   8.455 -0.2300 -0.6422  2.7871
  637TIP3   OH223545   3.283   4.580   8.148 -0.0853 -0.0903 -0.7925
  637TIP3    H123546   3.215   4.529   8.192 -0.1407  0.1177 -0.6404
  637TIP3    H223547   3.364   4.532   8.165 -0.1956 -0.3532 -0.9965
  638TIP3   OH223548   5.303   0.095   1.763 -0.4773  0.1717  0.1625
  638TIP3    H123549   5.288   0.003   1.787  0.1465  0.2003  0.6637
  638TIP3    H223550   5.215   0.129   1.744 -0.7697 -0.3742  0.5088
  639TIP3   OH223551   2.627   3.629   7.920  0.5089  0.0951  0.0390
  639TIP3    H123552   2.558   3.662   7.864  0.2817  1.4952  1.1000
  639TIP3    H223553   2.612   3.671   8.005  0.8041 -1.9770  1.1946
  640TIP3   OH223554   5.308   2.369   2.161 -0.3795 -0.0977  0.3615
  640TIP3    H123555   5.256   2.290   2.172  0.5002 -1.0696 -1.8051
  640TIP3    H223556   5.383   2.341   2.109 -0.5798  2.3291 -1.4354
  641TIP3   OH223557   4.818   0.832   7.697 -0.1912 -0.3228  0.3591
  641TIP3    H123558   4.723   0.825   7.690 -0.2612  1.7029 -2.1517
  641TIP3    H223559   4.843   0.893   7.628  2.9422 -0.6098  1.0775
  642TIP3   OH223560   3.909   5.064   1.532 -0.3672 -0.0469  0.0301
  642TIP3    H123561   3.994   5.107   1.530  0.4097 -1.4951  0.0384
  642TIP3    H223562   3.877   5.078   1.621  0.7131 -0.9882  0.5954
  643TIP3   OH223563   5.042   2.684   0.061  0.2902  0.3577 -0.2169
  643TIP3    H123564   4.974   2.676  -0.007 -0.3646  2.7298  0.0622
  643TIP3    H223565   5.109   2.740   0.021  0.3660  0.9639  0.7281
  644TIP3   OH223566   5.403   4.698   7.516  0.3084 -0.5961  0.2032
  644TIP3    H123567   5.474   4.729   7.461  0.4378 -1.5340 -0.1828
  644TIP3    H223568   5.416   4.603   7.521  0.3032 -0.5456  1.8631
  645TIP3   OH223569   5.431   1.115   1.748  0.2771  0.4353 -0.3786
  645TIP3    H123570   5.376   1.139   1.822 -0.4534  2.2116 -1.4486
  645TIP3    H223571   5.520   1.130   1.779  0.0520  0.0855  0.4836
  646TIP3   OH223572   4.716   0.521   6.800 -0.2429 -0.3383 -0.5681
  646TIP3    H123573   4.716   0.428   6.823  0.6911 -0.5588 -1.3735
  646TIP3    H223574   4.657   0.562   6.863  0.1077 -1.3239  0.4240
  647TIP3   OH223575   0.922   6.060   8.155 -0.3645 -0.0604  0.4428
  647TIP3    H123576   0.858   6.020   8.214  0.1982 -0.2278  0.9453
  647TIP3    H223577   0.996   6.082   8.211  2.3412 -4.6013 -0.7692
  648TIP3   OH223578   4.575   1.750   6.314  0.6182  0.0840  0.0620
  648TIP3    H123579   4.493   1.712   6.281  0.5034  0.6178 -0.2772
  648TIP3    H223580   4.627   1.674   6.341  0.5721 -0.3659 -1.0325
  649TIP3   OH223581   3.876   5.432   1.888  0.8705  0.3023 -0.1875
  649TIP3    H123582   3.788   5.420   1.922  0.6988  1.1755 -0.2985
  649TIP3    H223583   3.864   5.470   1.801  1.3501  0.1487 -0.3249
  650TIP3   OH223584   0.170   2.607   0.520 -0.0257 -0.3434 -0.4077
  650TIP3    H123585   0.250   2.658   0.533 -0.8848  0.8723  0.2684
  650TIP3    H223586   0.130   2.602   0.607  0.1008 -2.3595 -0.4022
  651TIP3   OH223587   5.890   3.485   0.804  0.3006 -0.0107 -0.0107
  651TIP3    H123588   5.930   3.565   0.839  1.3292  0.3165 -1.8164
  651TIP3    H223589   5.954   3.451   0.743 -0.5492 -1.7077 -0.0009
  652TIP3   OH223590   4.633   4.860   1.715  0.2204 -0.3969  0.5934
  652TIP3    H123591   4.651   4.769   1.693  2.1544  0.5011 -1.9689
  652TIP3    H223592   4.650   4.865   1.810  1.9695 -2.2947  0.4432
  653TIP3   OH223593   1.259   0.200   0.745  0.1165 -0.1079 -0.2325
  653TIP3    H123594   1.239   0.194   0.839 -0.6996  0.7442 -0.3392
  653TIP3    H223595   1.350   0.170   0.738 -0.5118 -2.4446  0.5080
  654TIP3   OH223596   0.120   4.747   1.302 -0.3031 -0.3277  0.2680
  654TIP3    H123597   0.130   4.696   1.221 -3.5303 -1.5543  0.4975
  654TIP3    H223598   0.130   4.684   1.372  2.3879  0.7173  0.9354
  655TIP3   OH223599   3.320   0.326   7.544  0.1583 -0.2679  0.0233
  655TIP3    H123600   3.310   0.383   7.621 -1.0378  0.8438 -0.8915
  655TIP3    H223601   3.234   0.287   7.532  0.5178 -0.9580 -0.3589
  656TIP3   OH223602   3.859   0.558   1.361 -0.0162  0.0908  0.1713
  656TIP3    H123603   3.773   0.515   1.362  0.0701 -0.0861  1.8782
  656TIP3    H223604   3.840   0.650   1.343 -0.4833 -0.0881 -0.2720
  657TIP3   OH223605   4.867   0.006   7.414 -0.0879 -0.3606 -0.1974
  657TIP3    H123606   4.947  -0.036   7.382 -0.8244  0.4677 -3.4681
  657TIP3    H223607   4.800  -0.062   7.407 -0.0964 -0.4355  0.5335
  658TIP3   OH223608   3.661   6.415   5.978 -0.2049  0.8457  0.3043
  658TIP3    H123609   3.670   6.501   6.019  0.4571  0.2499  1.4510
  658TIP3    H223610   3.725   6.415   5.907  0.3434  1.0252  0.7950
  659TIP3   OH223611   5.720   6.014   1.978  0.0950  0.2966 -0.3086
  659TIP3    H123612   5.706   6.048   2.066 -0.2882 -1.1541  0.2293
  659TIP3    H223613   5.812   5.986   1.977 -0.3020 -1.1466  0.2078
  660TIP3   OH223614   3.938   1.081   2.123 -0.0956 -0.1387  0.1745
  660TIP3    H123615   3.991   1.051   2.197 -1.6412 -2.0589  0.5801
  660TIP3    H223616   3.975   1.036   2.047  0.2215  0.2594  0.0877
  661TIP3   OH223617   5.700   0.957   0.111  0.2741 -0.7278  0.4267
  661TIP3    H123618   5.761   1.030   0.109  1.8908 -2.0394  0.1732
  661TIP3    H223619   5.617   0.995   0.082  1.3578  0.7454 -0.9525
  662TIP3   OH223620   3.716   5.059   6.683  0.0051 -0.1427 -0.0995
  662TIP3    H123621   3.763   4.980   6.708 -1.2512 -0.8064  0.2466
  662TIP3    H223622   3.624   5.032   6.677 -0.5295  1.3934  0.5261
  663TIP3   OH223623   5.237   3.118   8.519 -0.5433  0.0187 -0.1545
  663TIP3    H123624   5.264   3.155   8.603  1.6684 -0.8112 -0.4250
  663TIP3    H223625   5.260   3.185   8.455  2.2827 -1.1430 -0.5121
  664TIP3   OH223626   2.978   2.687   0.586 -0.6299  0.6753 -0.2142
  664TIP3    H123627   2.908   2.672   0.522  0.6495  0.2105 -1.5685
  664TIP3    H223628   3.052   2.719   0.534 -0.0252  1.8144  1.2645
  665TIP3   OH223629   1.147   3.904   6.633  0.5937 -0.2995  1.0180
  665TIP3    H123630   1.064   3.950   6.643  1.6865  1.6500  1.9358
  665TIP3    H223631   1.177   3.926   6.545  0.1367 -1.0319  0.6742
  666TIP3   OH223632   3.320   6.619   7.625  0.1250  0.0925 -0.5975
  666TIP3    H123633   3.329   6.540   7.572 -2.0882 -0.0628 -0.8280
  666TIP3    H223634   3.236   6.609   7.670  0.6667  1.4661  0.8516
  667TIP3   OH223635   5.512   4.880   0.089 -0.4837 -0.1836 -0.4574
  667TIP3    H123636   5.501   4.928   0.007 -1.1970 -0.8485 -0.7723
  667TIP3    H223637   5.484   4.791   0.068  0.3240 -0.6238  0.2390
  668TIP3   OH223638   1.313   3.510   0.880 -0.1052 -0.1411 -0.4768
  668TIP3    H123639   1.291   3.604   0.880  2.4217  0.6308  2.5587
  668TIP3    H223640   1.237   3.468   0.919 -0.5721  0.9373 -0.1618
  669TIP3   OH223641   3.166   3.143   7.864 -0.6965  0.2693  0.4863
  669TIP3    H123642   3.261   3.139   7.868 -0.5960  2.3922  1.6783
  669TIP3    H223643   3.138   3.150   7.955 -1.8207  1.8331  0.0685
  670TIP3   OH223644   6.319   3.588   1.445 -0.3416  0.3096  0.2933
  670TIP3    H123645   6.312   3.546   1.531  2.1896 -2.3775 -0.6364
  670TIP3    H223646   6.412   3.611   1.438 -1.0786  3.4368 -0.5488
  671TIP3   OH223647   6.727   1.540   7.730 -0.3043  0.4012 -0.1847
  671TIP3    H123648   6.659   1.606   7.720 -0.3614  0.6675  1.5311
  671TIP3    H223649   6.679   1.459   7.750 -0.2440 -0.2494 -2.4580
  672TIP3   OH223650   1.307   2.934   0.321  0.0528 -0.2850 -0.0358
  672TIP3    H123651   1.395   2.971   0.322  0.5249 -1.3543  1.6876
  672TIP3    H223652   1.293   2.901   0.410 -2.0097 -0.3450 -0.3270
  673TIP3   OH223653   3.101   1.608   8.225  0.4205  1.0308 -0.1893
  673TIP3    H123654   3.165   1.657   8.277  1.6864 -0.6640 -0.0619
  673TIP3    H223655   3.051   1.675   8.179  2.2206  2.4460 -0.1975
  674TIP3   OH223656   5.973   5.049   1.159 -0.0938 -0.3639  0.3563
  674TIP3    H123657   5.883   5.068   1.185 -0.9697 -0.5351 -2.2766
  674TIP3    H223658   5.972   5.054   1.063  2.6754 -0.5261  0.2428
  675TIP3   OH223659   0.454   0.184   1.984 -0.9748 -0.5562  0.0230
  675TIP3    H123660   0.397   0.262   1.981 -0.6514 -0.2449  1.2953
  675TIP3    H223661   0.464   0.166   2.077  1.5092 -0.2282 -0.1074
  676TIP3   OH223662   3.505   6.775   8.301 -0.0676 -0.0640 -0.2312
  676TIP3    H123663   3.431   6.756   8.244 -0.6305  0.5535  0.2827
  676TIP3    H223664   3.566   6.703   8.286 -0.9523 -0.8058 -0.3409
  677TIP3   OH223665   6.174   6.536   7.605  0.5470  0.2816 -0.0246
  677TIP3    H123666   6.178   6.629   7.583  0.3484  0.1078 -0.8422
  677TIP3    H223667   6.263   6.513   7.632  1.1187  0.2515 -1.8180
  678TIP3   OH223668   3.923   5.847   1.617 -0.2143  0.0233 -0.6556
  678TIP3    H123669   4.005   5.823   1.660  1.0895  1.0581 -2.4186
  678TIP3    H223670   3.933   5.815   1.527 -0.7215  2.2149 -1.5505
  679TIP3   OH223671   4.545   2.964   1.728  0.2318  0.6462 -0.2880
  679TIP3    H123672   4.564   2.991   1.638 -1.1586 -1.4662 -1.3050
  679TIP3    H223673   4.586   2.877   1.736 -0.5595  0.3437  0.7439
  680TIP3   OH223674   4.726   6.351   6.696  0.4876 -0.3251 -0.4774
  680TIP3    H123675   4.763   6.398   6.621  0.7521 -1.6610 -1.2330
  680TIP3    H223676   4.659   6.294   6.656  0.7216 -1.1464  0.2821
  681TIP3   OH223677   5.360   1.813   7.524  0.2538 -0.1241  0.3417
  681TIP3    H123678   5.405   1.753   7.583  0.7055 -0.8530 -0.6917
  681TIP3    H223679   5.320   1.756   7.458  0.6912  0.6887 -0.6692
  682TIP3   OH223680   2.959   4.230   1.639  0.4034 -0.6514  0.4273
  682TIP3    H123681   3.009   4.164   1.590  0.1984 -0.4187 -0.0997
  682TIP3    H223682   2.965   4.202   1.730  0.0423 -1.5871  0.1737
  683TIP3   OH223683   5.661   3.657   1.866  0.3885  0.5029  0.3235
  683TIP3    H123684   5.718   3.584   1.840 -0.5108 -0.0568 -0.1316
  683TIP3    H223685   5.582   3.614   1.899  0.2332  1.2701  0.9649
  684TIP3   OH223686   0.251   3.513   0.536 -0.2611 -0.4210  0.0107
  684TIP3    H123687   0.298   3.589   0.568  0.2334 -0.6895 -0.0684
  684TIP3    H223688   0.314   3.467   0.481 -0.1007 -1.6000  1.1278
  685TIP3   OH223689   4.561   2.875   7.007  0.0466  0.3200  0.0775
  685TIP3    H123690   4.536   2.839   6.922 -2.9810  0.0010  0.9957
  685TIP3    H223691   4.604   2.958   6.985 -1.7164  0.8351 -1.7650
  686TIP3   OH223692   5.314   6.229   8.320  0.0924  0.4910 -0.0313
  686TIP3    H123693   5.275   6.304   8.366 -0.6532  0.2047 -0.1702
  686TIP3    H223694   5.242   6.195   8.267  0.5246 -0.1129 -0.2290
  687TIP3   OH223695   0.232   5.331   0.847  0.2702  0.3577  0.2504
  687TIP3    H123696   0.299   5.303   0.909 -0.1558  1.2022  1.1201
  687TIP3    H223697   0.278   5.389   0.787  1.1830 -2.1284 -1.6284
  688TIP3   OH223698   0.421   1.744   0.517 -0.3913  0.3552 -0.0446
  688TIP3    H123699   0.378   1.720   0.435 -0.9286 -1.0150  0.5998
  688TIP3    H223700   0.467   1.825   0.497 -1.1407  0.4650 -1.4829
  689TIP3   OH223701   2.674   6.608   1.222  0.1883  0.5271  0.1652
  689TIP3    H123702   2.642   6.609   1.312 -1.2402  0.8323 -0.3212
  689TIP3    H223703   2.656   6.520   1.191 -0.2941  0.7255 -0.1382
  690TIP3   OH223704   2.899   4.947   0.217  0.0186  0.1570 -0.3809
  690TIP3    H123705   2.991   4.925   0.232 -0.1134 -1.4845 -1.6457
  690TIP3    H223706   2.851   4.888   0.276 -0.2520 -0.2902 -1.0386
  691TIP3   OH223707   4.032   5.120   0.397 -0.1856  0.4509  0.1387
  691TIP3    H123708   4.050   5.121   0.303  0.0775  1.3506  0.1873
  691TIP3    H223709   4.034   5.213   0.423 -0.2973  0.2172  1.0201
  692TIP3   OH223710   2.156   5.636   1.775  0.3051 -0.3583  0.4724
  692TIP3    H123711   2.126   5.640   1.866 -0.2614 -2.9660  0.5020
  692TIP3    H223712   2.120   5.715   1.734 -0.1725  0.4232  2.2905
  693TIP3   OH223713   6.889   5.287   7.890 -0.4666  0.6986  0.1908
  693TIP3    H123714   6.845   5.347   7.831 -2.6261 -1.3038 -0.3938
  693TIP3    H223715   6.873   5.323   7.977 -1.3987  1.2026 -0.1707
  694TIP3   OH223716   5.487   3.169   0.227  0.2488 -0.0370 -0.3462
  694TIP3    H123717   5.551   3.234   0.198 -0.0401  1.3846  1.9546
  694TIP3    H223718   5.403   3.215   0.222 -0.1813 -0.8023 -0.2501
  695TIP3   OH223719   1.530   0.832   0.376 -0.3124  0.0946  0.1456
  695TIP3    H123720   1.438   0.809   0.388  0.0780 -0.9149  1.3965
  695TIP3    H223721   1.571   0.752   0.345  0.0066  0.7813 -1.2637
  696TIP3   OH223722   2.082   0.749   1.279 -0.0065  0.7790 -0.1140
  696TIP3    H123723   2.140   0.759   1.355  0.0644  0.9026 -0.1842
  696TIP3    H223724   1.994   0.750   1.317 -0.0357  2.2650 -0.1657
  697TIP3   OH223725   6.790   5.664   0.847  0.6528  0.1480 -0.2082
  697TIP3    H123726   6.810   5.571   0.853  1.8249  0.3985  0.0723
  697TIP3    H223727   6.709   5.674   0.898 -1.1138 -1.1345 -2.5827
  698TIP3   OH223728   5.205   0.601   7.258  0.1845 -0.2164 -0.5422
  698TIP3    H123729   5.161   0.566   7.336  0.4118  3.0922  1.2615
  698TIP3    H223730   5.135   0.608   7.193 -0.9877  0.6230  0.7375
  699TIP3   OH223731   0.880   5.659   0.905  0.3567  0.0980  0.0388
  699TIP3    H123732   0.872   5.566   0.926 -1.5096 -0.0356 -1.0935
  699TIP3    H223733   0.796   5.683   0.865  0.4431  2.4942  1.0878
  700TIP3   OH223734   5.907   6.004   0.222 -0.0007  0.2462  0.1889
  700TIP3    H123735   5.927   6.070   0.156  1.1929  1.3271  1.5778
  700TIP3    H223736   5.848   6.048   0.283  0.6532 -0.0009  1.0261
  701TIP3   OH223737   2.003   2.153   7.128  0.5751  0.0721  0.0387
  701TIP3    H123738   2.006   2.237   7.173  0.1882 -0.6759  1.5261
  701TIP3    H223739   1.935   2.104   7.174 -1.0968 -0.1471 -2.4731
  702TIP3   OH223740   2.563   4.465   7.218 -0.2853 -0.1822  0.3519
  702TIP3    H123741   2.531   4.380   7.250 -1.3628 -0.4769 -1.3692
  702TIP3    H223742   2.509   4.483   7.141 -1.0257  2.7543  1.4283
  703TIP3   OH223743   5.958   3.483   0.199  0.9920 -0.4046  0.2240
  703TIP3    H123744   5.919   3.412   0.149  1.1600 -0.3733  0.0448
  703TIP3    H223745   5.895   3.502   0.269 -1.6336  2.7322 -2.6649
  704TIP3   OH223746   4.775   5.198   2.032 -0.2642 -0.2913  0.7080
  704TIP3    H123747   4.822   5.273   1.997 -1.6873 -0.4571 -1.8232
  704TIP3    H223748   4.685   5.210   2.001 -0.2964 -3.5934 -0.9095
  705TIP3   OH223749   2.288   6.573   0.375  0.1352 -0.0245  0.4748
  705TIP3    H123750   2.221   6.639   0.354 -0.9151 -1.5177 -1.1138
  705TIP3    H223751   2.325   6.603   0.458  0.2030  2.9245 -0.4965
  706TIP3   OH223752   1.001   5.340   5.947 -0.0013  0.0848  0.6083
  706TIP3    H123753   0.968   5.298   6.027  0.7817 -0.7990  0.4741
  706TIP3    H223754   1.031   5.267   5.892  1.4062  0.8103  0.3815
  707TIP3   OH223755   4.525   5.862   2.544 -0.5059 -0.1255  0.0425
  707TIP3    H123756   4.547   5.800   2.475  0.3412 -0.6823  0.7821
  707TIP3    H223757   4.466   5.813   2.602 -2.0351  0.6593 -0.7761
  708TIP3   OH223758   6.651   6.144   7.818  0.5983 -0.1117 -0.6690
  708TIP3    H123759   6.696   6.216   7.861  0.1513 -0.0222 -0.3435
  708TIP3    H223760   6.576   6.186   7.775  0.2812 -0.3998 -0.3921
  709TIP3   OH223761   1.220   2.102   7.165 -0.5076  0.0877  0.2669
  709TIP3    H123762   1.166   2.161   7.112  0.4599  0.8849  0.1321
  709TIP3    H223763   1.239   2.152   7.244  0.2870 -0.0438  0.1732
  710TIP3   OH223764   0.645   0.882   0.422  0.3391 -0.6822 -0.2395
  710TIP3    H123765   0.697   0.836   0.488  0.4360 -0.4128 -0.1262
  710TIP3    H223766   0.555   0.853   0.437  0.1977  0.1814  0.7057
  711TIP3   OH223767   5.250   4.629   8.045 -0.1014 -0.0683 -0.9979
  711TIP3    H123768   5.189   4.690   8.005 -0.7626 -0.2823 -0.3391
  711TIP3    H223769   5.325   4.627   7.985 -1.5873 -1.3637 -2.9375
  712TIP3   OH223770   4.278   0.693   1.747  0.1184  0.6373 -0.2199
  712TIP3    H123771   4.211   0.656   1.690  0.2314 -0.0999  0.1227
  712TIP3    H223772   4.250   0.671   1.836  1.0621 -0.1280 -0.0936
  713TIP3   OH223773   2.199   4.211   7.853  0.2267 -0.0772 -1.0110
  713TIP3    H123774   2.115   4.190   7.895  0.0149  1.2047 -0.7595
  713TIP3    H223775   2.197   4.305   7.841  1.4420 -0.0907 -1.4422
  714TIP3   OH223776   0.880   4.863   8.387  0.6564  0.1604  0.6258
  714TIP3    H123777   0.923   4.874   8.472  2.2099 -0.0703 -0.1075
  714TIP3    H223778   0.920   4.784   8.350  1.0269  1.0545 -0.9411
  715TIP3   OH223779   4.697   6.538   1.610 -0.7858  0.3560 -0.3822
  715TIP3    H123780   4.666   6.448   1.618 -0.1040  0.2073  0.9596
  715TIP3    H223781   4.722   6.547   1.518 -1.7703 -0.5070 -0.7522
  716TIP3   OH223782   5.537   5.342   7.900 -0.5027 -0.1559 -0.2427
  716TIP3    H123783   5.623   5.342   7.942 -1.1394  0.9613  1.1391
  716TIP3    H223784   5.547   5.402   7.825 -0.1902  0.3331  0.1863
  717TIP3   OH223785   3.890   1.736   1.782 -0.1332 -0.0480  0.4942
  717TIP3    H123786   3.947   1.764   1.710 -0.2651  1.5678  0.9879
  717TIP3    H223787   3.810   1.788   1.771 -2.5211 -3.6612 -1.4073
  718TIP3   OH223788   5.451   1.362   2.492 -0.0077 -0.0761 -0.5337
  718TIP3    H123789   5.518   1.411   2.445 -0.7002 -0.1811 -1.6706
  718TIP3    H223790   5.400   1.318   2.423 -0.4467 -1.0337  0.3641
  719TIP3   OH223791   6.125   5.716   6.390 -0.6214  0.1517  0.1989
  719TIP3    H123792   6.182   5.699   6.314 -2.4509 -1.6261 -0.8852
  719TIP3    H223793   6.156   5.655   6.457 -1.4200 -1.0805 -0.5169
  720TIP3   OH223794   2.214   1.883   0.450 -0.6099  0.7390 -0.1548
  720TIP3    H123795   2.187   1.804   0.497  1.2026 -0.3030 -0.7445
  720TIP3    H223796   2.132   1.921   0.419 -1.5494 -0.9544  0.1022
  721TIP3   OH223797   2.622   2.374   1.284  0.1525  0.3853  0.2397
  721TIP3    H123798   2.707   2.338   1.259  0.2837  0.3773  0.6859
  721TIP3    H223799   2.586   2.409   1.202  0.5776  0.3793  0.0439
  722TIP3   OH223800   2.425   3.744   2.400 -0.7555 -0.5470  0.0193
  722TIP3    H123801   2.377   3.800   2.339  0.0822 -0.6881 -0.7860
  722TIP3    H223802   2.495   3.705   2.348  0.3225 -0.2614  1.1944
  723TIP3   OH223803   1.932   5.458   7.559  0.1698 -0.3350 -0.5959
  723TIP3    H123804   1.996   5.427   7.624  0.0990  1.5357  0.4354
  723TIP3    H223805   1.871   5.385   7.549  1.9769 -1.8673 -0.9897
  724TIP3   OH223806   0.544   1.206   2.033 -0.1318 -0.5863 -0.2865
  724TIP3    H123807   0.477   1.218   1.965 -0.0407  1.2674 -0.0812
  724TIP3    H223808   0.609   1.148   1.992 -0.9572 -0.9509 -1.1247
  725TIP3   OH223809   6.423   3.689   8.402 -0.0064 -0.1617  0.1893
  725TIP3    H123810   6.394   3.598   8.400  1.1958 -0.5598 -0.2592
  725TIP3    H223811   6.386   3.723   8.483  1.3057 -1.7132  1.5322
  726TIP3   OH223812   1.973   3.666   0.506 -0.1843  0.3917  0.2128
  726TIP3    H123813   2.004   3.732   0.445  0.4923  1.3181  1.5178
  726TIP3    H223814   1.881   3.687   0.520 -0.7681 -0.7302 -1.5828
  727TIP3   OH223815   6.534   4.759   7.168 -0.5495 -0.1811 -0.8301
  727TIP3    H123816   6.493   4.833   7.125 -0.4399 -0.2719 -1.0923
  727TIP3    H223817   6.616   4.745   7.120  0.6547  1.0703  0.7220
  728TIP3   OH223818   3.868   4.098   7.816 -0.5617  0.1784  0.3465
  728TIP3    H123819   3.895   4.039   7.747 -1.9724 -0.8001  0.5786
  728TIP3    H223820   3.929   4.081   7.888 -0.6648 -0.6785  0.2432
  729TIP3   OH223821   1.801   5.228   7.539  0.5419  0.1724 -0.3480
  729TIP3    H123822   1.750   5.172   7.481 -0.0279  0.6672 -0.3247
  729TIP3    H223823   1.843   5.167   7.600 -0.7593 -0.1793  0.2187
  730TIP3   OH223824   3.476   5.666   1.177  0.5415  0.6373  0.2482
  730TIP3    H123825   3.415   5.596   1.199  1.7506 -1.0913 -1.6094
  730TIP3    H223826   3.431   5.746   1.205 -1.1044 -0.7861  1.9739
  731TIP3   OH223827   1.141   5.321   7.075 -0.1875 -0.0856  0.3665
  731TIP3    H123828   1.179   5.375   7.144  0.3563  0.3237 -0.2439
  731TIP3    H223829   1.080   5.379   7.029  0.4846  0.0552 -0.3637
  732TIP3   OH223830   0.178   4.478   0.792 -0.2307  0.2396  0.3167
  732TIP3    H123831   0.207   4.388   0.809 -2.0480 -0.2122  1.2122
  732TIP3    H223832   0.174   4.484   0.696 -1.4908 -1.1403  0.2382
  733TIP3   OH223833   2.315   0.985   6.595  0.4727  0.2735  0.5561
  733TIP3    H123834   2.254   0.923   6.557  0.5531 -0.0470  0.9387
  733TIP3    H223835   2.312   1.061   6.537 -0.4591  0.3533  0.6985
  734TIP3   OH223836   4.296   2.985   7.948 -0.2957  0.1590  0.1985
  734TIP3    H123837   4.376   3.002   7.896  0.9870  0.3214  2.1331
  734TIP3    H223838   4.251   2.915   7.900 -0.1035  1.4669 -2.0758
  735TIP3   OH223839   2.189   2.621   7.559 -0.4738 -0.0340  0.0519
  735TIP3    H123840   2.104   2.589   7.528 -1.5844  1.7591  1.1184
  735TIP3    H223841   2.252   2.571   7.507 -2.0815 -2.6592  0.3906
  736TIP3   OH223842   2.208   3.315   8.087  0.4587  0.3125  0.1265
  736TIP3    H123843   2.241   3.245   8.143  1.5110 -0.9508 -1.9522
  736TIP3    H223844   2.228   3.286   7.998 -2.2436  1.6388 -1.0247
  737TIP3   OH223845   2.319   1.170   1.768  0.2860 -0.1166  0.5913
  737TIP3    H123846   2.249   1.230   1.791 -0.2202 -0.0626 -0.9392
  737TIP3    H223847   2.387   1.184   1.834 -0.5483  0.8588  1.2616
  738TIP3   OH223848   0.300   5.773   2.323  0.1661  0.1283  0.1565
  738TIP3    H123849   0.259   5.691   2.351  2.5808 -1.7432 -1.3535
  738TIP3    H223850   0.236   5.813   2.265 -0.5580 -1.3565 -0.1174
  739TIP3   OH223851   4.181   1.307   7.724  0.3322 -0.0682  0.3585
  739TIP3    H123852   4.133   1.389   7.740  0.8832  0.0581  1.4427
  739TIP3    H223853   4.113   1.242   7.706 -0.0779  0.8315 -1.6012
  740TIP3   OH223854   5.846   5.458   1.311  0.2353  0.3871  0.1370
  740TIP3    H123855   5.859   5.549   1.285 -1.0329  0.0080 -2.0782
  740TIP3    H223856   5.752   5.450   1.324  0.0614 -1.0268 -1.6419
  741TIP3   OH223857   1.055   4.195   7.955  0.4892  0.4496  0.7743
  741TIP3    H123858   1.134   4.147   7.981  0.3699  0.7598  1.7626
  741TIP3    H223859   0.984   4.132   7.969  0.4281  0.6053  1.1720
  742TIP3   OH223860   2.266   6.657   8.250  0.0167  0.1153 -0.6914
  742TIP3    H123861   2.189   6.601   8.259  0.5770 -0.4106  1.3122
  742TIP3    H223862   2.341   6.599   8.264  0.7381  0.8974 -1.1411
  743TIP3   OH223863   3.482   0.871   8.580  0.5865 -0.3533 -0.0169
  743TIP3    H123864   3.480   0.936   8.510  1.7912 -0.0631  0.1842
  743TIP3    H223865   3.480   0.787   8.535 -1.6038 -0.2168 -0.2535
  744TIP3   OH223866   5.784   0.590   1.158 -0.1976  0.0304  0.0062
  744TIP3    H123867   5.773   0.637   1.075  1.3001  1.3084  0.4740
  744TIP3    H223868   5.845   0.519   1.138  0.9003  0.9030  0.1850
  745TIP3   OH223869   6.870   6.108   7.404 -0.0015 -0.6558  0.2003
  745TIP3    H123870   6.862   6.194   7.364  0.9949 -0.6624 -0.0569
  745TIP3    H223871   6.780   6.081   7.422 -0.4735 -0.3895 -1.5003
  746TIP3   OH223872   6.216   0.257   0.637 -0.4515 -0.4247 -0.7066
  746TIP3    H123873   6.253   0.326   0.692 -3.3166  0.8560 -0.2512
  746TIP3    H223874   6.155   0.301   0.579 -1.2104 -2.3949 -1.4981
  747TIP3   OH223875   4.605   0.554   0.111  0.2470  0.0043 -0.0860
  747TIP3    H123876   4.679   0.594   0.064  0.4911  0.8617  0.9763
  747TIP3    H223877   4.529   0.573   0.057  0.8892 -1.8702 -1.7963
  748TIP3   OH223878   1.467   6.286   0.063 -0.3214  0.2979  0.1817
  748TIP3    H123879   1.503   6.281  -0.026 -2.0779  0.4606 -0.5739
  748TIP3    H223880   1.494   6.373   0.094  1.3545 -0.2386  0.3203
  749TIP3   OH223881   6.486   1.310   0.005  0.1375 -0.4783  0.0916
  749TIP3    H123882   6.535   1.368  -0.053  0.2056 -0.0881  0.5303
  749TIP3    H223883   6.479   1.228  -0.043 -0.6034  0.1129 -0.8575
  750TIP3   OH223884   5.661   2.264   1.227  0.0547  0.2485  0.7063
  750TIP3    H123885   5.594   2.323   1.262 -0.4498  0.9105 -1.2684
  750TIP3    H223886   5.723   2.322   1.183  0.1163 -0.6222 -0.3767
  751TIP3   OH223887   2.735   3.720   6.752 -0.1334  1.3926 -0.1487
  751TIP3    H123888   2.818   3.759   6.726  0.4396  0.5908  0.4144
  751TIP3    H223889   2.737   3.632   6.715 -1.1946  1.7012 -0.9906
  752TIP3   OH223890   2.165   0.576   1.676 -0.1349 -0.4661 -0.1642
  752TIP3    H123891   2.153   0.669   1.693 -1.7435 -0.4616 -1.1080
  752TIP3    H223892   2.260   0.565   1.671  0.1277  0.8808  1.1229
  753TIP3   OH223893   4.335   1.708   1.310 -0.3628  0.3737  0.6851
  753TIP3    H123894   4.417   1.685   1.266 -0.0918  1.5869  0.5383
  753TIP3    H223895   4.280   1.630   1.299 -0.9064  1.1088 -3.2041
  754TIP3   OH223896   5.182   1.964   8.371 -0.4130 -0.2248 -0.2749
  754TIP3    H123897   5.262   1.911   8.363  0.5706  1.1467  0.1048
  754TIP3    H223898   5.205   2.049   8.334 -0.8142  1.0699  2.1900
  755TIP3   OH223899   3.804   2.434   7.116 -0.5491  0.3646  0.0256
  755TIP3    H123900   3.730   2.483   7.079  0.1036 -1.7698 -5.0349
  755TIP3    H223901   3.880   2.490   7.101 -0.5592  0.5425  0.6194
  756TIP3   OH223902   4.136   3.309   1.658  0.0880  1.0793 -1.3333
  756TIP3    H123903   4.228   3.323   1.683  0.4587 -0.8648 -1.4944
  756TIP3    H223904   4.126   3.359   1.577  1.5544 -0.1097 -2.3132
  757TIP3   OH223905   4.776   4.053   1.489  0.3088  0.6819  0.2083
  757TIP3    H123906   4.752   4.145   1.473 -2.6359 -0.1581 -0.8425
  757TIP3    H223907   4.855   4.040   1.437 -0.5467  2.0449 -1.5521
  758TIP3   OH223908   3.586   3.986   0.444 -0.1259 -0.3484  0.2418
  758TIP3    H123909   3.570   3.992   0.538  0.9235 -0.9740  0.4738
  758TIP3    H223910   3.543   3.904   0.418  1.2708 -1.2184  0.5729
  759TIP3   OH223911   5.448   4.426   7.545 -0.6032 -0.3323 -0.1860
  759TIP3    H123912   5.394   4.376   7.485 -0.6001 -1.9213  1.0471
  759TIP3    H223913   5.414   4.403   7.632  1.5114 -0.7947  0.5860
  760TIP3   OH223914   3.008   4.921   8.185 -0.5599 -0.4137  0.3170
  760TIP3    H123915   3.103   4.928   8.193 -0.5315  2.5532 -1.2745
  760TIP3    H223916   2.994   4.894   8.094 -1.2680 -1.5239  0.7367
  761TIP3   OH223917   4.401   5.895   0.209  0.0337 -0.4232 -0.6258
  761TIP3    H123918   4.458   5.922   0.137  0.5323  1.0667  0.2730
  761TIP3    H223919   4.459   5.851   0.271  0.2260  0.9551  0.2176
  762TIP3   OH223920   5.129   6.782   0.597  0.2606  0.2761 -0.1204
  762TIP3    H123921   5.074   6.797   0.674  0.1334 -0.1216 -0.1336
  762TIP3    H223922   5.190   6.856   0.597 -1.9157  2.2198 -1.5951
  763TIP3   OH223923   3.231   0.682   6.000 -0.5724 -0.5980  0.2010
  763TIP3    H123924   3.267   0.770   6.011  0.3296 -1.1848  2.7553
  763TIP3    H223925   3.136   0.694   6.007 -0.6462  0.4021 -1.8822
  764TIP3   OH223926   4.698   2.024   7.727 -0.8897  0.2838 -0.2504
  764TIP3    H123927   4.758   1.989   7.792  0.9744  1.4716 -1.2478
  764TIP3    H223928   4.748   2.025   7.646 -1.9091  2.2152 -0.9340
  765TIP3   OH223929   2.068   3.648   8.314  0.2720 -0.8272 -0.8665
  765TIP3    H123930   2.140   3.682   8.261 -0.1295  1.8908  0.1477
  765TIP3    H223931   2.008   3.610   8.250  1.4364 -0.8698 -1.9806
  766TIP3   OH223932   0.023   1.459   0.796  0.4530 -0.0820 -0.7698
  766TIP3    H123933   0.019   1.431   0.887 -1.7427 -0.4643 -0.9379
  766TIP3    H223934   0.090   1.528   0.795 -0.8881  1.3961  1.5548
  767TIP3   OH223935   2.454   2.601   7.398 -0.4516 -0.0235  0.5030
  767TIP3    H123936   2.524   2.588   7.333 -0.8067  1.2620 -0.1730
  767TIP3    H223937   2.501   2.611   7.481  0.1004 -0.1957  0.2186
  768TIP3   OH223938   0.933   5.191   6.154  0.5510 -0.0164 -0.3921
  768TIP3    H123939   1.022   5.163   6.176 -0.3285 -1.9163  1.0421
  768TIP3    H223940   0.882   5.172   6.232 -0.8852  2.4589 -0.6245
  769TIP3   OH223941   6.559   6.619   1.806  0.1327 -0.0337 -0.3055
  769TIP3    H123942   6.594   6.693   1.856 -1.8334  1.0159 -0.3613
  769TIP3    H223943   6.553   6.652   1.717 -1.0060 -0.1543 -0.2840
  770TIP3   OH223944   1.347   2.314   0.140 -0.0697 -0.4813 -0.3627
  770TIP3    H123945   1.422   2.271   0.097  0.4187 -1.3470  1.2681
  770TIP3    H223946   1.385   2.355   0.218 -1.2571 -0.8022  0.4072
  771TIP3   OH223947   3.991   1.240   0.601 -0.0709  0.1541  0.7951
  771TIP3    H123948   3.957   1.153   0.581  0.0862  0.4741 -0.9755
  771TIP3    H223949   3.951   1.298   0.537  4.4562  0.4030 -2.3182
  772TIP3   OH223950   4.087   5.297   8.532  0.0980 -0.1327 -0.1523
  772TIP3    H123951   4.165   5.342   8.565  0.3110  1.6965 -2.7747
  772TIP3    H223952   4.122   5.224   8.480 -0.1441 -1.6090  1.6769
  773TIP3   OH223953   3.514   6.645   7.849 -0.0169 -0.6871  0.0337
  773TIP3    H123954   3.441   6.666   7.790  0.1649 -0.8024 -0.2362
  773TIP3    H223955   3.472   6.609   7.927 -0.3100  0.1918  0.3040
  774TIP3   OH223956   6.565   6.514   6.349  0.3998  0.5863  0.2855
  774TIP3    H123957   6.620   6.574   6.398  3.0976 -0.4777 -1.2096
  774TIP3    H223958   6.583   6.428   6.387  0.8358  0.0491 -1.0556
  775TIP3   OH223959   6.620   4.135   7.392  0.3604  0.7112  0.5446
  775TIP3    H123960   6.644   4.043   7.403 -0.3616  0.1262 -2.0554
  775TIP3    H223961   6.548   4.149   7.454 -1.6209 -1.4396 -1.1030
  776TIP3   OH223962   1.955   3.359   0.212 -0.4374  0.5853 -0.8742
  776TIP3    H123963   2.013   3.353   0.287 -0.5903  3.1843 -0.4312
  776TIP3    H223964   1.993   3.429   0.158 -0.4465 -1.0511 -3.1471
  777TIP3   OH223965   2.582   5.787   5.910 -0.7389  0.0568 -0.3337
  777TIP3    H123966   2.665   5.741   5.926 -0.7110  0.0367 -0.5264
  777TIP3    H223967   2.608   5.878   5.898 -0.7848  0.1083 -0.0352
  778TIP3   OH223968   3.918   5.630   0.338  0.2198  0.3542  0.2485
  778TIP3    H123969   3.868   5.706   0.368  1.1866  1.2936 -0.4411
  778TIP3    H223970   3.991   5.623   0.400  0.7183  0.6520 -0.2911
  779TIP3   OH223971   4.596   5.862   0.415  0.1921 -0.7164 -0.1367
  779TIP3    H123972   4.674   5.809   0.401  1.5961  1.0415  0.6357
  779TIP3    H223973   4.626   5.936   0.468 -1.4437  1.3692 -1.9496
  780TIP3   OH223974   0.876   1.060   7.727  0.1351 -0.3134  0.2761
  780TIP3    H123975   0.886   1.154   7.743  1.0594  0.0760 -2.2577
  780TIP3    H223976   0.965   1.025   7.736 -0.2441 -1.0349  1.4656
  781TIP3   OH223977   1.583   1.368   7.363 -0.1815 -0.2396  0.3073
  781TIP3    H123978   1.614   1.281   7.390  0.3527 -0.1270  0.0788
  781TIP3    H223979   1.572   1.360   7.268  0.7719  0.2068  0.1488
  782TIP3   OH223980   3.666   1.034   0.118  0.8115 -0.0467  0.3685
  782TIP3    H123981   3.582   1.033   0.163  0.6032 -0.0832 -0.0162
  782TIP3    H223982   3.644   1.054   0.027  1.1475 -0.8184  0.1100
  783TIP3   OH223983   2.255   0.236   0.871 -0.0027  0.0121 -0.2669
  783TIP3    H123984   2.210   0.305   0.920  3.5329  2.4654 -0.0850
  783TIP3    H223985   2.263   0.164   0.932 -0.8085  0.7414  0.7357
  784TIP3   OH223986   5.408   4.323   0.448 -0.3380 -0.3592 -1.3935
  784TIP3    H123987   5.486   4.271   0.428  0.7791  1.3919 -1.7574
  784TIP3    H223988   5.427   4.363   0.533 -0.7786  0.1911 -1.5517
  785TIP3   OH223989   1.603   0.593   0.712 -0.7467 -0.4727  0.1672
  785TIP3    H123990   1.521   0.553   0.681 -0.2491 -2.1715  0.9485
  785TIP3    H223991   1.580   0.631   0.797 -0.7335 -0.9784  0.4021
  786TIP3   OH223992   0.884   6.268   7.730 -0.6848  0.2345 -0.2564
  786TIP3    H123993   0.875   6.183   7.687 -1.2801  0.7775 -1.2410
  786TIP3    H223994   0.949   6.253   7.798  1.7364 -0.2471 -2.5015
  787TIP3   OH223995   5.996   5.616   7.743  0.1492  0.5152 -0.1515
  787TIP3    H123996   6.090   5.609   7.762 -0.0262 -0.2186  0.5145
  787TIP3    H223997   5.986   5.703   7.704  1.5224 -0.4266 -2.8429
  788TIP3   OH223998   3.948   6.775   7.814  0.4692  0.2401  0.1458
  788TIP3    H123999   4.001   6.705   7.778  1.0017  0.3966  0.6166
  788TIP3    H224000   4.004   6.817   7.879 -0.4993 -0.1073  1.2408
  789TIP3   OH224001   4.556   5.277   8.161  0.1488 -0.1253  0.2031
  789TIP3    H124002   4.551   5.255   8.254  1.8112  0.1845  0.3980
  789TIP3    H224003   4.471   5.317   8.141 -0.7943 -1.5231  1.1988
  790TIP3   OH224004   4.452   3.791   1.963  0.2615 -0.1556  0.8297
  790TIP3    H124005   4.506   3.721   1.998  0.2799 -0.0067  1.0989
  790TIP3    H224006   4.458   3.862   2.027 -1.2355 -0.5925  1.4907
  791TIP3   OH224007   0.232   0.215   0.656 -0.1495  0.2116 -0.3255
  791TIP3    H124008   0.257   0.305   0.678 -0.2297  0.3415 -0.7619
  791TIP3    H224009   0.218   0.216   0.561  4.1482 -1.2930 -1.1718
  792TIP3   OH224010   3.773   5.681   8.565 -0.3745  0.0420  0.1812
  792TIP3    H124011   3.809   5.601   8.527  0.0598 -0.2461  1.1828
  792TIP3    H224012   3.684   5.658   8.590 -0.1157 -0.2550  0.8438
  793TIP3   OH224013   1.193   1.361   1.254  0.6015 -0.5698 -0.1789
  793TIP3    H124014   1.208   1.438   1.308  1.5521 -0.7671 -0.1405
  793TIP3    H224015   1.098   1.350   1.253  0.5358 -0.1634  0.8857
  794TIP3   OH224016   4.841   2.318   7.693  0.4372 -0.4900  0.4835
  794TIP3    H124017   4.886   2.402   7.698  0.7000 -0.7101  2.9253
  794TIP3    H224018   4.771   2.333   7.629  0.7802  1.4320  0.4830
  795TIP3   OH224019   3.479   6.441   1.272  0.1984  0.5002  0.1783
  795TIP3    H124020   3.452   6.387   1.347  0.2890 -0.0673 -0.1882
  795TIP3    H224021   3.460   6.531   1.299 -0.8081  0.2227  0.4476
  796TIP3   OH224022   4.921   3.365   0.986 -0.3795  0.2056 -0.0434
  796TIP3    H124023   4.990   3.322   0.936  1.7077  0.9354  2.0263
  796TIP3    H224024   4.863   3.294   1.014  2.7218 -1.4454  2.9497
  797TIP3   OH224025   0.012   0.279   1.140  0.0342  0.0471 -0.1035
  797TIP3    H124026   0.034   0.264   1.048 -1.8112  0.2715 -0.6305
  797TIP3    H224027   0.004   0.374   1.148 -4.2593 -0.0094 -0.9912
  798TIP3   OH224028   4.734   2.995   2.125  0.2419 -0.0201 -0.0228
  798TIP3    H124029   4.807   3.052   2.150  0.8647 -0.3685 -0.9838
  798TIP3    H224030   4.656   3.039   2.159  0.8463  0.6665  0.4928
  799TIP3   OH224031   2.503   2.218   7.034  0.5137  0.2282 -0.7277
  799TIP3    H124032   2.522   2.170   7.114 -1.6514  3.0581  1.7109
  799TIP3    H224033   2.489   2.151   6.968  0.3762 -2.3483  1.7455
  800TIP3   OH224034   4.084   2.236   0.632  0.2426 -0.5129  0.2035
  800TIP3    H124035   4.151   2.194   0.578  1.0226 -0.2863  0.9712
  800TIP3    H224036   4.055   2.311   0.580  1.5059  0.1238  0.3818
  801TIP3   OH224037   4.011   5.063   8.368  0.9609  0.2994 -0.6382
  801TIP3    H124038   4.061   5.027   8.295 -1.3158 -2.3654 -1.0486
  801TIP3    H224039   3.977   5.146   8.335  3.1223  1.0646 -1.1263
  802TIP3   OH224040   2.785   5.126   0.532 -0.1753 -0.8078  0.3607
  802TIP3    H124041   2.873   5.143   0.498 -0.3525 -1.4680 -0.4566
  802TIP3    H224042   2.755   5.048   0.485 -0.8580 -1.1177  1.2722
  803TIP3   OH224043   1.875   0.957   8.319  0.7399  0.4219  0.2788
  803TIP3    H124044   1.895   1.039   8.365 -0.3783  1.1705 -0.5403
  803TIP3    H224045   1.813   0.982   8.251  1.0198 -0.9780 -0.5221
  804TIP3   OH224046   4.578   3.662   6.487 -0.5091  0.2349 -0.2820
  804TIP3    H124047   4.518   3.734   6.467 -0.6367  0.0359 -0.6182
  804TIP3    H224048   4.579   3.609   6.408  1.9652  1.5390 -1.2261
  805TIP3   OH224049   1.202   0.728   1.289  0.1450 -0.1208  0.5930
  805TIP3    H124050   1.240   0.646   1.258  1.1476  0.9078 -1.0869
  805TIP3    H224051   1.129   0.744   1.229 -0.0144  0.2420  0.8834
  806TIP3   OH224052   6.928   2.770   8.579  1.2485 -0.6538  0.3260
  806TIP3    H124053   6.884   2.830   8.519  2.7081  1.8229  1.5743
  806TIP3    H224054   6.893   2.684   8.556 -0.2928  0.5078 -2.1698
  807TIP3   OH224055   0.872   3.957   6.533 -0.2247 -0.2511  0.6433
  807TIP3    H124056   0.919   3.877   6.509  0.0226  0.1964 -0.3754
  807TIP3    H224057   0.783   3.943   6.500  0.3619  0.7739 -1.5107
  808TIP3   OH224058   6.804   2.377   0.923  0.7336  0.1147 -0.3374
  808TIP3    H124059   6.829   2.406   0.836  1.6387  0.5787  0.0735
  808TIP3    H224060   6.885   2.379   0.974  0.5707 -1.7843  0.0800
  809TIP3   OH224061   5.214   4.429   1.128  0.1310  0.0013 -0.0269
  809TIP3    H124062   5.143   4.464   1.182 -0.4997 -0.9072 -0.2435
  809TIP3    H224063   5.279   4.500   1.125  0.4076 -0.0712  2.3096
  810TIP3   OH224064   0.148   3.024   7.293 -0.4852 -0.4020 -0.1094
  810TIP3    H124065   0.077   2.986   7.345 -0.2433  0.6573  1.0429
  810TIP3    H224066   0.138   3.118   7.304  1.8261 -0.2179  1.1311
  811TIP3   OH224067   5.633   5.426   6.912 -0.1088  0.0335  0.1037
  811TIP3    H124068   5.563   5.375   6.951  0.9436 -1.0802  0.5970
  811TIP3    H224069   5.648   5.386   6.826 -0.9220  1.0791 -0.5452
  812TIP3   OH224070   2.432   2.430   7.677  0.0768 -0.3684 -0.3014
  812TIP3    H124071   2.469   2.516   7.658 -0.4034 -0.1732 -0.3764
  812TIP3    H224072   2.500   2.368   7.652 -0.1124 -0.0800 -1.6162
  813TIP3   OH224073   3.842   6.939   0.047 -0.3496  0.3846 -0.5358
  813TIP3    H124074   3.772   6.997   0.020 -0.3841  0.9439  0.6629
  813TIP3    H224075   3.903   6.995   0.096  1.2057  0.0200 -1.9526
  814TIP3   OH224076   6.920   2.671   7.899 -0.1679  0.3815 -0.0113
  814TIP3    H124077   6.929   2.580   7.872 -0.0242  0.0870  1.0236
  814TIP3    H224078   6.827   2.690   7.888 -0.3361 -0.1263  0.5224
  815TIP3   OH224079   1.411   1.764   7.954 -0.3444 -0.4648 -0.0433
  815TIP3    H124080   1.393   1.769   8.047  0.7445 -1.6912  0.2678
  815TIP3    H224081   1.402   1.671   7.933  1.2712 -0.4944 -0.7444
  816TIP3   OH224082   1.259   0.583   1.762 -0.0569  0.3217  0.2959
  816TIP3    H124083   1.245   0.631   1.680  1.7115 -1.8879 -1.4478
  816TIP3    H224084   1.337   0.623   1.800  0.9566 -0.5347 -0.7633
  817TIP3   OH224085   1.761   1.926   7.562 -0.3673  0.4378  0.1055
  817TIP3    H124086   1.678   1.880   7.574 -0.5114  0.2881 -1.3169
  817TIP3    H224087   1.746   2.012   7.601 -1.4945  0.7150 -0.8873
  818TIP3   OH224088   1.483   4.575   8.026 -0.6810 -0.3228 -0.7288
  818TIP3    H124089   1.570   4.604   8.002  0.0128 -2.4072 -0.9683
  818TIP3    H224090   1.496   4.526   8.108 -1.7218 -0.1335 -0.4334
  819TIP3   OH224091   1.457   3.734   1.818  0.1300 -0.0646  0.1121
  819TIP3    H124092   1.431   3.713   1.908  0.8219  0.2906  0.4037
  819TIP3    H224093   1.419   3.820   1.801 -3.7138 -1.8111 -1.4943
  820TIP3   OH224094   3.614   0.427   7.282  0.6341  0.2582  0.4482
  820TIP3    H124095   3.679   0.445   7.214  2.4498 -1.3438  1.6564
  820TIP3    H224096   3.657   0.366   7.341 -2.0572 -1.0305  1.2540
  821TIP3   OH224097   1.619   3.921   7.618 -0.2175 -0.1145 -0.4818
  821TIP3    H124098   1.679   3.971   7.673 -1.1004  0.2110  0.2185
  821TIP3    H224099   1.634   3.830   7.644 -0.0881 -0.0266 -0.2408
  822TIP3   OH224100   0.400   2.052   8.139 -0.5004  0.4829  0.5575
  822TIP3    H124101   0.487   2.058   8.098 -0.2631 -0.7111  0.8288
  822TIP3    H224102   0.404   2.111   8.214 -0.1971  1.0273  0.1221
  823TIP3   OH224103   0.287   3.710   1.015  0.1784  0.1412 -0.1219
  823TIP3    H124104   0.367   3.660   1.027  0.1283 -0.2818 -1.3609
  823TIP3    H224105   0.313   3.801   1.025  0.2785 -0.0791  2.1384
  824TIP3   OH224106   0.297   1.226   7.619 -0.4504 -0.2356  0.3267
  824TIP3    H124107   0.210   1.245   7.654 -0.4222  1.1228 -0.2808
  824TIP3    H224108   0.344   1.184   7.692 -1.0901  0.5019  1.1779
  825TIP3   OH224109   0.182   0.098   0.234  0.2137 -0.5618 -0.7411
  825TIP3    H124110   0.248   0.138   0.290 -1.1932  0.9081 -0.0537
  825TIP3    H224111   0.231   0.065   0.159  1.7152  0.5668 -0.3017
  826TIP3   OH224112   3.075   1.045   7.965 -0.2587  0.1400  0.0578
  826TIP3    H124113   3.095   0.990   7.889 -0.1025  0.8779 -0.4605
  826TIP3    H224114   2.985   1.023   7.988  0.1267 -1.0299  0.4856
  827TIP3   OH224115   1.806   2.138   0.400  0.2546 -0.0618  0.3536
  827TIP3    H124116   1.842   2.050   0.393  0.3726 -0.2699  2.6971
  827TIP3    H224117   1.711   2.126   0.397  0.2839 -0.1374 -0.3689
  828TIP3   OH224118   2.588   1.289   1.649  0.0997  0.7471 -0.2860
  828TIP3    H124119   2.614   1.379   1.668 -1.1771  1.3662 -1.3555
  828TIP3    H224120   2.629   1.237   1.719  0.0520  2.2577  0.9070
  829TIP3   OH224121   4.017   5.628   1.996 -1.2523 -0.3809  0.5498
  829TIP3    H124122   4.065   5.590   1.923  0.1940  2.4650 -0.1289
  829TIP3    H224123   3.940   5.572   2.006 -2.2826 -0.1499 -4.0576
  830TIP3   OH224124   5.256   6.765   1.015 -0.2335 -0.2152  0.2076
  830TIP3    H124125   5.272   6.859   1.014  0.2455 -0.2985  0.0327
  830TIP3    H224126   5.320   6.729   0.954 -0.8771 -0.5854 -0.2511
  831TIP3   OH224127   4.031   5.232   1.717  0.3571  0.1547  0.2635
  831TIP3    H124128   3.945   5.197   1.738  0.1889  0.6804  0.4778
  831TIP3    H224129   4.066   5.263   1.801 -0.1032  1.8006 -0.1087
  832TIP3   OH224130   3.639   0.108   1.105  0.3239  0.0812 -0.3551
  832TIP3    H124131   3.624   0.063   1.189 -1.5975 -1.4363 -1.4171
  832TIP3    H224132   3.594   0.192   1.115 -2.2927 -1.1736 -0.6938
  833TIP3   OH224133   3.863   0.796   8.100  0.2296  0.3933  0.2331
  833TIP3    H124134   3.803   0.855   8.146 -0.4849  0.9335 -1.3380
  833TIP3    H224135   3.836   0.708   8.127  0.1302  0.7082  1.1884
  834TIP3   OH224136   5.837   0.351   8.271 -0.3814  0.1431  0.3311
  834TIP3    H124137   5.789   0.358   8.189 -0.7516  1.6040  0.6453
  834TIP3    H224138   5.773   0.318   8.334 -0.3649 -0.0248  0.2606
  835TIP3   OH224139   3.370   1.816   1.376  0.5776  0.0825 -0.1663
  835TIP3    H124140   3.306   1.887   1.378  0.1251 -0.2665 -1.5009
  835TIP3    H224141   3.361   1.778   1.289  0.9208 -1.5248  0.4659
  836TIP3   OH224142   3.442   3.530   2.137  0.1850  0.1193  1.0876
  836TIP3    H124143   3.360   3.534   2.088  0.5774 -0.0127  0.4150
  836TIP3    H224144   3.470   3.621   2.145 -0.4077  0.2443  1.9960
  837TIP3   OH224145   6.112   5.764   1.501  0.5280 -0.7072 -0.0396
  837TIP3    H124146   6.110   5.691   1.439 -0.6632 -0.3363 -0.4560
  837TIP3    H224147   6.095   5.841   1.448 -0.5637 -0.3917  0.7480
  838TIP3   OH224148   2.038   3.404   7.742  0.0658  0.2928 -0.0436
  838TIP3    H124149   2.112   3.374   7.795  0.2425 -0.5783 -0.7535
  838TIP3    H224150   2.016   3.329   7.687  0.8756  1.6040 -2.2951
  839TIP3   OH224151   3.535   4.094   0.201 -0.2232  0.7290  0.3505
  839TIP3    H124152   3.546   4.076   0.294 -3.1194  2.2292  1.1261
  839TIP3    H224153   3.522   4.008   0.161  0.6063  0.1045  1.3744
  840TIP3   OH224154   0.758   0.252   0.777 -0.2840  0.1687  0.4168
  840TIP3    H124155   0.771   0.333   0.826  2.8988  0.2460 -0.3439
  840TIP3    H224156   0.756   0.184   0.843  0.2107  0.5861  0.8678
  841TIP3   OH224157   2.681   0.316   0.035  0.1097  0.1011  0.3903
  841TIP3    H124158   2.629   0.266   0.098 -0.0815  1.2647  1.1686
  841TIP3    H224159   2.669   0.407   0.060  2.3846  0.4364  0.4864
  842TIP3   OH224160   6.872   5.392   0.831  0.9802  0.1449 -0.2640
  842TIP3    H124161   6.963   5.404   0.859 -0.2323  2.0372  3.5010
  842TIP3    H224162   6.830   5.346   0.904 -1.5674  1.4228 -0.8038
  843TIP3   OH224163   1.156   6.182   7.198 -0.1710 -0.2456 -0.3547
  843TIP3    H124164   1.126   6.142   7.116  0.5889  0.7069 -1.1159
  843TIP3    H224165   1.249   6.162   7.203 -0.4398 -1.2855  0.8788
  844TIP3   OH224166   0.169   0.514   7.280 -0.0268 -0.0097 -0.2209
  844TIP3    H124167   0.099   0.579   7.268 -0.4041 -0.0546  1.5646
  844TIP3    H224168   0.123   0.433   7.300  0.4664  0.3733  3.0028
  845TIP3   OH224169   4.740   6.262   7.278  0.3384  0.0166  0.2852
  845TIP3    H124170   4.733   6.172   7.246  2.3624 -0.1456  0.1525
  845TIP3    H224171   4.658   6.278   7.324 -1.1599 -0.9871 -1.8587
  846TIP3   OH224172   1.973   0.292   8.471 -0.8362 -0.1165 -0.0385
  846TIP3    H124173   2.003   0.336   8.550  0.0233 -0.0856 -0.3755
  846TIP3    H224174   1.945   0.205   8.501  0.0294 -0.3138  0.2173
  847TIP3   OH224175   2.199   2.499   1.757  0.5476 -0.1089  0.0140
  847TIP3    H124176   2.107   2.521   1.740  0.2106  0.0371  1.8527
  847TIP3    H224177   2.200   2.404   1.763  0.2464 -0.0519  1.2605
  848TIP3   OH224178   6.775   5.261   6.541 -0.2951 -0.0214 -0.0595
  848TIP3    H124179   6.858   5.235   6.503 -0.8266  0.7648 -1.8603
  848TIP3    H224180   6.710   5.207   6.496 -0.9938  1.3077 -0.6973
  849TIP3   OH224181   6.478   3.568   7.814  0.0943  0.0030  0.3889
  849TIP3    H124182   6.459   3.534   7.727 -0.3250 -1.2341  0.9431
  849TIP3    H224183   6.572   3.557   7.825  0.1927  0.4254 -0.0065
  850TIP3   OH224184   3.706   2.904   1.353 -0.1199  0.5930 -0.0970
  850TIP3    H124185   3.723   2.993   1.322 -1.5053  0.8895 -0.0786
  850TIP3    H224186   3.622   2.880   1.314  0.5607 -1.0077 -0.6962
  851TIP3   OH224187   6.859   1.477   7.465  0.2841 -0.3684  0.4755
  851TIP3    H124188   6.841   1.489   7.559 -0.8335 -1.1232  0.3740
  851TIP3    H224189   6.799   1.537   7.421 -0.9639 -1.7809  0.1822
  852TIP3   OH224190   5.383   5.948   8.391  0.0826  0.2607 -0.5542
  852TIP3    H124191   5.312   5.987   8.442  0.3698  1.3225 -0.9382
  852TIP3    H224192   5.441   6.022   8.370  0.1514 -0.1899 -2.0963
  853TIP3   OH224193   4.815   1.331   8.512  0.3163 -0.4507 -0.6028
  853TIP3    H124194   4.805   1.364   8.423 -0.7795  2.8277  0.5928
  853TIP3    H224195   4.905   1.353   8.535  0.3998 -0.7027 -0.6906
  854TIP3   OH224196   4.496   5.749   6.442  0.2665 -0.4972 -0.1111
  854TIP3    H124197   4.528   5.805   6.513  0.5808 -0.2556 -0.4358
  854TIP3    H224198   4.551   5.773   6.367 -1.0775  0.3611 -0.8557
  855TIP3   OH224199   6.192   5.097   8.250  0.4389  0.3774 -0.2276
  855TIP3    H124200   6.130   5.097   8.322  0.8330 -0.3449  0.1297
  855TIP3    H224201   6.150   5.044   8.182  0.4620  0.2837 -0.1685
  856TIP3   OH224202   0.248   3.193   8.562  0.7457 -0.0587  0.5657
  856TIP3    H124203   0.195   3.253   8.614 -0.9488 -0.7681 -0.2611
  856TIP3    H224204   0.270   3.122   8.623 -1.4882 -1.0448  0.3546
  857TIP3   OH224205   4.946   2.058   1.808 -0.0809  0.0840 -0.2923
  857TIP3    H124206   4.968   2.004   1.884  0.4641 -0.4496 -0.8179
  857TIP3    H224207   4.925   2.144   1.845  2.2939  0.4756  0.3099
  858TIP3   OH224208   6.917   1.691   8.369 -0.2748  0.4092 -0.0268
  858TIP3    H124209   6.866   1.768   8.344  0.0690  0.4004 -0.8046
  858TIP3    H224210   7.008   1.716   8.352 -0.0763  0.1805  0.6743
  859TIP3   OH224211   2.490   4.539   0.350  0.6206 -0.1747  0.3209
  859TIP3    H124212   2.497   4.444   0.347 -1.5715 -0.3654 -0.7586
  859TIP3    H224213   2.550   4.566   0.420  0.4196 -2.4382  1.4398
  860TIP3   OH224214   0.518   5.846   1.472  0.2115  0.0721  0.5227
  860TIP3    H124215   0.440   5.808   1.512  1.0240 -0.1487  1.9900
  860TIP3    H224216   0.579   5.857   1.546  1.2796  0.9371 -0.4610
  861TIP3   OH224217   0.137   2.248   0.381 -0.3752  0.9871  0.0638
  861TIP3    H124218   0.076   2.177   0.364 -0.1150  0.8924 -0.5003
  861TIP3    H224219   0.224   2.209   0.371 -0.0625  0.3675  3.6830
  862TIP3   OH224220   6.437   0.238   8.241  0.1957  0.7254 -0.1490
  862TIP3    H124221   6.377   0.292   8.292  0.0326 -1.0898  1.7205
  862TIP3    H224222   6.492   0.196   8.307  0.7042 -0.9109 -1.5582
  863TIP3   OH224223   2.351   1.291   1.484 -0.0193 -0.4772  0.0711
  863TIP3    H124224   2.396   1.264   1.563  0.1649  0.2081  0.2040
  863TIP3    H224225   2.379   1.381   1.469 -0.2310 -0.5171 -0.6433
  864TIP3   OH224226   0.906   2.112   1.484  0.1060  0.2904 -0.2264
  864TIP3    H124227   0.847   2.175   1.526  0.8113  1.3866 -0.8208
  864TIP3    H224228   0.850   2.060   1.427 -0.4926  0.4013  0.2594
  865TIP3   OH224229   4.533   5.918   7.720 -0.1711 -0.0843 -0.6687
  865TIP3    H124230   4.481   5.882   7.791 -0.2177  0.8027 -0.2443
  865TIP3    H224231   4.474   5.917   7.644 -0.6217  0.3510 -0.3337
  866TIP3   OH224232   5.857   4.362   7.693  0.1623  0.1784  0.2081
  866TIP3    H124233   5.889   4.303   7.762 -1.3717  0.5881  1.3081
  866TIP3    H224234   5.853   4.306   7.615  2.4047 -0.1711  0.2571
  867TIP3   OH224235   6.593   5.281   7.454 -0.5316 -0.1809 -0.1023
  867TIP3    H124236   6.567   5.236   7.374  1.8927  0.5630 -1.4142
  867TIP3    H224237   6.568   5.373   7.439  1.1915  0.2351 -0.7019
  868TIP3   OH224238   4.488   2.231   7.055 -0.5263 -0.0876  0.4983
  868TIP3    H124239   4.405   2.218   7.102 -1.5384  2.2991 -0.4315
  868TIP3    H224240   4.555   2.208   7.119 -1.8848 -0.2244  1.9567
  869TIP3   OH224241   6.242   4.094   0.902  0.1724  0.4690 -0.9479
  869TIP3    H124242   6.296   4.091   0.981 -0.7542 -2.3198 -0.3059
  869TIP3    H224243   6.305   4.100   0.830  1.3821 -1.8080 -0.1846
  870TIP3   OH224244   0.402   0.564   1.732 -0.1589 -0.0315 -0.3780
  870TIP3    H124245   0.421   0.583   1.824  0.9050  0.4715 -0.6786
  870TIP3    H224246   0.307   0.558   1.727 -0.6203  4.1004  0.0107
  871TIP3   OH224247   4.086   0.581   8.036  0.5827 -0.1652 -0.4674
  871TIP3    H124248   4.126   0.512   7.984  1.0389  0.4655 -0.9732
  871TIP3    H224249   4.153   0.607   8.099  0.6129  0.1830 -0.6387
  872TIP3   OH224250   0.980   4.179   1.799  0.6301  0.2370 -0.3628
  872TIP3    H124251   1.069   4.197   1.830 -0.1342  4.1146  0.1748
  872TIP3    H224252   0.924   4.234   1.853 -2.3609 -2.9228  0.1191
  873TIP3   OH224253   5.829   6.592   8.442 -0.9101  0.1092 -0.3075
  873TIP3    H124254   5.813   6.636   8.358 -1.5730  0.3971 -0.0371
  873TIP3    H224255   5.924   6.585   8.447 -0.8857 -0.8880 -1.5738
  874TIP3   OH224256   2.398   3.142   7.051  0.1111 -0.4137  0.1083
  874TIP3    H124257   2.418   3.063   7.000  1.0804 -1.1334  1.5115
  874TIP3    H224258   2.456   3.209   7.015  0.6154 -0.8496  0.0920
  875TIP3   OH224259   3.578   0.913   6.799  0.3389  0.7027 -0.1077
  875TIP3    H124260   3.509   0.886   6.860  2.6105 -0.4101  2.1789
  875TIP3    H224261   3.553   1.001   6.772 -2.6549 -0.1597 -0.5348
  876TIP3   OH224262   4.088   3.488   1.467 -0.2623 -0.0686  0.6221
  876TIP3    H124263   4.174   3.529   1.478  0.5264 -1.3580 -0.5025
  876TIP3    H224264   4.053   3.528   1.387 -0.4131 -0.0672  0.6883
  877TIP3   OH224265   1.148   4.165   1.509 -0.1200  0.2347 -0.1218
  877TIP3    H124266   1.064   4.177   1.464 -0.6092  0.3915  0.8045
  877TIP3    H224267   1.135   4.086   1.563  1.2699 -1.4056 -2.0652
  878TIP3   OH224268   4.711   4.884   2.940 -0.7353  0.7496 -0.1410
  878TIP3    H124269   4.646   4.815   2.930 -0.0670 -0.1508  1.3190
  878TIP3    H224270   4.679   4.936   3.014  0.8060 -0.5092  1.4970
  879TIP3   OH224271   6.249   2.470   0.072 -0.7856 -0.1668  0.3827
  879TIP3    H124272   6.255   2.375   0.065  1.4166  0.0172 -1.4673
  879TIP3    H224273   6.246   2.487   0.166 -0.1131 -2.0243  0.7789
  880TIP3   OH224274   5.100   4.705   0.221  0.0198  0.3064 -0.1935
  880TIP3    H124275   5.036   4.634   0.216 -1.4682  1.5788  0.1957
  880TIP3    H224276   5.158   4.679   0.292 -0.6523 -0.4078  0.1139
  881TIP3   OH224277   2.182   5.518   8.549  0.0830 -0.1069 -0.1926
  881TIP3    H124278   2.171   5.525   8.643 -1.5464 -0.9644 -0.2838
  881TIP3    H224279   2.200   5.608   8.520  1.8206 -0.0174  1.0343
  882TIP3   OH224280   2.389   0.503   8.112 -0.0711  0.0020  0.3012
  882TIP3    H124281   2.388   0.519   8.018 -1.3595 -0.1964  0.2673
  882TIP3    H224282   2.387   0.590   8.151  1.0288  0.1051  0.1694
  883TIP3   OH224283   0.213   6.656   1.398 -0.1796 -0.4097  0.0926
  883TIP3    H124284   0.243   6.746   1.386 -0.1203 -0.4906 -0.3583
  883TIP3    H224285   0.215   6.643   1.493 -2.2979  0.8071  0.3866
  884TIP3   OH224286   0.774   3.108   1.565 -0.5425  0.0477 -0.0444
  884TIP3    H124287   0.770   3.098   1.660 -2.0890  0.0806 -0.0927
  884TIP3    H224288   0.732   3.029   1.531  0.0954 -0.0135 -0.7166
  885TIP3   OH224289   2.606   0.755   7.595  0.0269  0.4197  0.3809
  885TIP3    H124290   2.638   0.672   7.561 -0.2957 -0.0488  1.2043
  885TIP3    H224291   2.578   0.804   7.517 -3.3662 -1.7128  0.0721
  886TIP3   OH224292   6.824   5.381   8.131  0.4767  0.0688 -0.1633
  886TIP3    H124293   6.792   5.461   8.172 -0.4306  0.3926 -1.4051
  886TIP3    H224294   6.756   5.316   8.150 -1.1997  0.8037 -2.9646
  887TIP3   OH224295   5.562   5.558   7.686  0.5657 -0.0002  0.2720
  887TIP3    H124296   5.569   5.579   7.593  2.1113 -0.0792  0.3472
  887TIP3    H224297   5.556   5.643   7.729  3.7587  0.3054  0.3467
  888TIP3   OH224298   2.109   6.728   0.862 -0.0977  0.2833  0.2115
  888TIP3    H124299   2.028   6.743   0.911 -0.0250  1.5036 -0.0120
  888TIP3    H224300   2.146   6.649   0.900 -1.7901 -0.7471 -0.1929
  889TIP3   OH224301   5.117   5.787   7.661  0.2506  0.2929 -0.5142
  889TIP3    H124302   5.026   5.814   7.644 -0.9018 -2.4713  0.6323
  889TIP3    H224303   5.144   5.741   7.582 -0.1369 -0.6812 -0.0950
  890TIP3   OH224304   6.230   4.966   7.678  0.1891 -0.0830 -0.2634
  890TIP3    H124305   6.227   5.062   7.676  0.3789 -0.0854 -1.3109
  890TIP3    H224306   6.173   4.938   7.606 -1.5370 -0.8276  1.3104
  891TIP3   OH224307   6.604   2.280   6.904 -0.6637  0.2041 -0.2674
  891TIP3    H124308   6.620   2.246   6.817 -2.1676  2.1757 -1.4007
  891TIP3    H224309   6.529   2.339   6.894 -0.1227  1.4562  2.0961
  892TIP3   OH224310   5.921   6.379   2.180  0.5196  0.3544 -0.0737
  892TIP3    H124311   5.929   6.380   2.276 -0.0841  0.4110 -0.0232
  892TIP3    H224312   5.827   6.381   2.164  0.6285  0.6323 -0.6765
  893TIP3   OH224313   0.723   6.499   7.466 -0.3851 -0.3359  0.1904
  893TIP3    H124314   0.787   6.562   7.430 -1.4075  1.0603  0.7244
  893TIP3    H224315   0.763   6.414   7.450  1.0710  0.4317 -0.5610
  894TIP3   OH224316   4.538   1.446   6.725  0.2917 -0.1627 -0.5086
  894TIP3    H124317   4.449   1.411   6.722  0.2142  0.0669 -1.0185
  894TIP3    H224318   4.593   1.371   6.749 -0.1441 -0.0874  0.8258
  895TIP3   OH224319   4.078   5.301   7.540 -0.3968  0.5297  0.1653
  895TIP3    H124320   4.036   5.223   7.504 -1.2775  1.2975 -0.5306
  895TIP3    H224321   4.011   5.341   7.595 -0.0475  0.9398  0.2981
  896TIP3   OH224322   2.647   4.655   7.814 -0.2175 -0.4794  0.8489
  896TIP3    H124323   2.621   4.747   7.804  2.4341  0.5095  2.0718
  896TIP3    H224324   2.583   4.619   7.876 -0.0427  1.1833  2.0632
  897TIP3   OH224325   4.904   5.802   7.281 -0.0443  0.2191  0.3862
  897TIP3    H124326   4.985   5.846   7.255 -0.8433  0.5023 -1.8412
  897TIP3    H224327   4.899   5.816   7.376  2.7045 -0.1975  0.6781
  898TIP3   OH224328   1.117   3.081   2.519  0.0729 -0.2611 -0.0462
  898TIP3    H124329   1.095   2.988   2.523 -0.8336 -0.0114  1.1608
  898TIP3    H224330   1.145   3.103   2.607  1.2250  0.4051 -0.5626
  899TIP3   OH224331   2.400   2.502   1.961  0.5843 -0.1399 -0.4616
  899TIP3    H124332   2.434   2.589   1.977 -0.5644  0.1095  0.7162
  899TIP3    H224333   2.333   2.514   1.894  0.6179 -0.1722 -0.5020
  900TIP3   OH224334   6.761   1.603   0.579  0.3079  0.6151  0.2381
  900TIP3    H124335   6.761   1.554   0.497  0.9914  0.8654  0.0803
  900TIP3    H224336   6.852   1.600   0.608 -0.1338 -0.4839  1.6005
  901TIP3   OH224337   6.127   5.545   1.325 -0.2320  0.0263 -0.0266
  901TIP3    H124338   6.055   5.485   1.306 -0.1580 -0.0795  0.0201
  901TIP3    H224339   6.203   5.487   1.337  0.0915  0.1981 -1.1519
  902TIP3   OH224340   3.704   5.893   7.679  0.5915 -0.1696 -0.3311
  902TIP3    H124341   3.711   5.973   7.627  1.6557  0.7247  1.0974
  902TIP3    H224342   3.768   5.905   7.750 -0.6312 -1.4153  1.0496
  903TIP3   OH224343   2.449   6.077   2.048 -0.3383 -0.3217 -0.2646
  903TIP3    H124344   2.475   6.067   2.140 -1.4474 -1.0936 -0.0162
  903TIP3    H224345   2.531   6.069   1.999  0.4546  1.3177  0.7047
  904TIP3   OH224346   0.245   6.144   1.420 -0.6467 -0.0372  0.0585
  904TIP3    H124347   0.211   6.057   1.401 -1.4568  0.0055  1.1830
  904TIP3    H224348   0.332   6.145   1.381 -0.7301 -1.2600 -0.2003
  905TIP3   OH224349   3.842   1.488   1.008  0.0125  0.2965 -0.0456
  905TIP3    H124350   3.907   1.469   0.939 -0.4216 -1.1501 -0.0768
  905TIP3    H224351   3.877   1.446   1.086 -1.5862 -1.8882 -0.4114
  906TIP3   OH224352   4.531   3.366   6.823  0.0631  0.1999 -0.1409
  906TIP3    H124353   4.591   3.417   6.768 -1.1098  1.5532 -0.2302
  906TIP3    H224354   4.534   3.278   6.787  0.6495  0.6543 -1.2579
  907TIP3   OH224355   5.348   3.084   1.557 -0.1168 -0.5530 -0.2031
  907TIP3    H124356   5.295   3.055   1.483 -0.5292  0.4464 -0.3160
  907TIP3    H224357   5.334   3.179   1.561 -0.6508 -0.6738  1.5658
  908TIP3   OH224358   3.400   0.515   0.493  0.5731 -0.4184 -0.2442
  908TIP3    H124359   3.309   0.488   0.508  0.5440 -1.5473 -2.1904
  908TIP3    H224360   3.397   0.563   0.411  1.9496 -1.8100 -1.1476
  909TIP3   OH224361   4.314   3.327   8.587 -0.9700  0.1106  0.2563
  909TIP3    H124362   4.263   3.368   8.518 -0.9368  0.2185  0.2960
  909TIP3    H224363   4.380   3.275   8.541 -1.6868 -0.7794  0.1816
  910TIP3   OH224364   5.079   2.524   1.277  0.1463 -0.5769 -0.0025
  910TIP3    H124365   5.102   2.494   1.190  0.3425 -3.3310  0.9017
  910TIP3    H224366   5.031   2.606   1.263 -0.5822 -1.3812 -2.7200
  911TIP3   OH224367   0.927   2.361   7.487 -0.1398  0.4533  0.2768
  911TIP3    H124368   0.851   2.346   7.430  0.0385 -0.6877  0.3199
  911TIP3    H224369   0.980   2.424   7.439  0.5844 -1.3416 -1.4097
  912TIP3   OH224370   0.901   0.344   7.750  0.2506 -0.1888 -0.4608
  912TIP3    H124371   0.910   0.402   7.825  0.8023 -1.1230  0.2172
  912TIP3    H224372   0.986   0.347   7.707 -0.3244  1.0140 -1.5745
  913TIP3   OH224373   3.386   3.031   8.221  0.2192 -0.1471  0.8617
  913TIP3    H124374   3.428   2.961   8.172  0.3282 -0.0218  0.7758
  913TIP3    H224375   3.458   3.091   8.243 -0.4524  2.6824 -3.4663
  914TIP3   OH224376   2.954   3.825   7.370 -0.1665  0.2013 -0.1126
  914TIP3    H124377   2.950   3.730   7.377 -1.9569 -0.0661 -3.2216
  914TIP3    H224378   3.048   3.844   7.359  0.1210 -1.2686 -0.3950
  915TIP3   OH224379   1.700   1.098   8.100  0.8825  0.1113 -0.7710
  915TIP3    H124380   1.640   1.115   8.028 -0.6396  0.1401  0.4521
  915TIP3    H224381   1.733   1.185   8.125 -0.0389  0.3358 -0.2625
  916TIP3   OH224382   3.245   2.058   1.410  0.1904 -0.3584  0.9499
  916TIP3    H124383   3.166   2.112   1.410 -0.2952 -0.9393 -1.5275
  916TIP3    H224384   3.316   2.120   1.429 -0.2470  1.5128 -2.6142
  917TIP3   OH224385   2.160   2.139   7.751  0.5584  0.5250 -0.2036
  917TIP3    H124386   2.175   2.234   7.752 -1.4949  0.8876  0.7835
  917TIP3    H224387   2.084   2.127   7.694 -1.4005 -0.0808  2.3614
  918TIP3   OH224388   5.940   4.181   7.063  0.1573  0.3293  0.6663
  918TIP3    H124389   6.017   4.236   7.076  1.4290 -1.3044  0.3784
  918TIP3    H224390   5.931   4.132   7.144  0.2117 -0.4228  0.2259
  919TIP3   OH224391   4.336   0.413   1.900  0.3524 -0.1789 -0.2656
  919TIP3    H124392   4.342   0.483   1.965  1.0011 -1.7295  1.4413
  919TIP3    H224393   4.380   0.339   1.941  0.8106 -1.2300 -2.5278
  920TIP3   OH224394   1.349   2.435   1.267 -0.1001 -0.3361  0.3515
  920TIP3    H124395   1.290   2.361   1.282  0.8189 -1.1193  0.2492
  920TIP3    H224396   1.296   2.512   1.283 -0.7410 -1.0352  1.8615
  921TIP3   OH224397   6.048   2.602   8.551 -0.5023 -0.0503 -0.4047
  921TIP3    H124398   6.023   2.540   8.482 -2.7433 -1.4929  1.5551
  921TIP3    H224399   6.111   2.554   8.605  0.4649  0.7120 -0.8121
  922TIP3   OH224400   0.685   0.729   1.140  0.2118  0.4865 -0.3970
  922TIP3    H124401   0.689   0.811   1.090  1.1083  1.3655  1.0415
  922TIP3    H224402   0.749   0.672   1.097  1.9054  1.6698  0.4001
  923TIP3   OH224403   3.665   1.381   0.697 -0.4608  0.1498 -0.3884
  923TIP3    H124404   3.600   1.428   0.749 -0.1427  0.2704 -0.0982
  923TIP3    H224405   3.711   1.450   0.649  0.2383  0.1672  0.3010
  924TIP3   OH224406   5.355   3.046   7.962  1.0292 -0.1373 -0.1928
  924TIP3    H124407   5.345   2.982   8.033 -1.0075 -0.8414 -1.0503
  924TIP3    H224408   5.352   3.131   8.006  0.1519 -0.5707  0.6306
  925TIP3   OH224409   3.618   3.493   8.388 -0.3079  0.0835  0.7177
  925TIP3    H124410   3.683   3.503   8.458  0.4373 -1.8494  0.3580
  925TIP3    H224411   3.534   3.497   8.432  0.1552 -1.5348  1.8267
  926TIP3   OH224412   3.542   5.282   1.428  0.2764  0.2992 -0.2474
  926TIP3    H124413   3.587   5.307   1.509 -0.1427  1.0377 -0.2341
  926TIP3    H224414   3.528   5.365   1.382 -0.8281  0.0610 -0.3718
  927TIP3   OH224415   0.005   2.050   0.608 -0.1593  0.2174  0.5003
  927TIP3    H124416  -0.053   2.015   0.676  0.4701 -2.7660 -0.3921
  927TIP3    H224417   0.092   2.046   0.646 -0.1544  1.8772  0.7372
  928TIP3   OH224418   0.840   2.518   0.094  0.0759  0.5919 -0.0100
  928TIP3    H124419   0.823   2.425   0.077 -0.2485  0.8075 -0.9535
  928TIP3    H224420   0.920   2.519   0.146  0.7890 -0.1831 -1.0351
  929TIP3   OH224421   3.114   2.124   2.559  0.7002 -0.2448  0.6126
  929TIP3    H124422   3.040   2.184   2.566  1.3226  0.7288 -0.6999
  929TIP3    H224423   3.191   2.178   2.578  1.0548 -1.5849  3.6581
  930TIP3   OH224424   5.793   6.205   0.822 -0.2520 -0.0251 -0.2911
  930TIP3    H124425   5.837   6.288   0.844 -0.2268 -0.2020  0.3429
  930TIP3    H224426   5.786   6.159   0.906 -0.0544 -0.7684 -0.6795
  931TIP3   OH224427   4.842   3.360   6.895  0.0837 -0.0677 -0.4109
  931TIP3    H124428   4.803   3.419   6.831 -0.1150  0.7665  0.4556
  931TIP3    H224429   4.792   3.278   6.886 -0.3679  0.2523 -0.8615
  932TIP3   OH224430   0.730   5.861   0.689  0.1679 -0.1696  0.3534
  932TIP3    H124431   0.802   5.887   0.631  0.0278  0.1950  0.3361
  932TIP3    H224432   0.717   5.768   0.672  0.1203 -0.0638 -0.2086
  933TIP3   OH224433   6.362   2.898   0.365  0.5198  0.1057 -0.2201
  933TIP3    H124434   6.369   2.948   0.446  0.2508 -1.2883  0.6846
  933TIP3    H224435   6.384   2.808   0.389 -2.6238 -0.9987 -0.9382
  934TIP3   OH224436   6.563   5.047   0.120  0.3397  0.3460 -0.6363
  934TIP3    H124437   6.523   5.077   0.038  1.8532  1.3125 -1.0563
  934TIP3    H224438   6.641   5.000   0.093  1.3736  1.4728  0.2475
  935TIP3   OH224439   2.180   4.602   0.429  0.4721  0.3552 -0.3260
  935TIP3    H124440   2.239   4.571   0.498  0.3183 -0.6986 -0.6411
  935TIP3    H224441   2.236   4.648   0.368  0.8272  0.1217 -0.1781
  936TIP3   OH224442   3.292   0.709   7.314 -0.4091  0.2936  0.1254
  936TIP3    H124443   3.216   0.753   7.353 -1.7194  0.7313 -2.6877
  936TIP3    H224444   3.271   0.616   7.320 -1.6210  0.4276 -1.2958
  937TIP3   OH224445   0.709   0.428   1.267  0.2629  0.0652  0.0918
  937TIP3    H124446   0.782   0.489   1.262  1.0758 -0.6639  2.2858
  937TIP3    H224447   0.647   0.469   1.327  0.0096 -0.4757  0.2054
  938TIP3   OH224448   1.373   2.995   0.825 -0.7966  0.0040 -0.0622
  938TIP3    H124449   1.440   3.003   0.893  0.0440 -0.2943 -0.8324
  938TIP3    H224450   1.349   3.086   0.805  0.4162  0.2027 -0.7578
  939TIP3   OH224451   5.034   4.106   7.639  0.6037  0.5292  0.5599
  939TIP3    H124452   5.004   4.133   7.552 -1.4085 -0.6136  0.8430
  939TIP3    H224453   4.966   4.138   7.699  0.3293 -1.4170  1.3507
  940TIP3   OH224454   1.108   5.235   1.430 -0.5232  0.3523  0.7101
  940TIP3    H124455   1.166   5.277   1.495 -0.5889  1.5999 -0.0030
  940TIP3    H224456   1.168   5.196   1.366 -0.4570  0.9430  0.4055
  941TIP3   OH224457   2.456   4.098   6.861  0.2074 -0.7925 -0.6747
  941TIP3    H124458   2.543   4.136   6.852 -0.2215 -0.2054 -3.4082
  941TIP3    H224459   2.469   4.004   6.850  0.6800 -0.9593  1.0153
  942TIP3   OH224460   2.411   0.897   0.536 -0.2550 -0.0790 -0.5126
  942TIP3    H124461   2.322   0.881   0.567 -0.1106  1.7768  1.0955
  942TIP3    H224462   2.411   0.990   0.514  1.2002 -0.1368 -0.8088
  943TIP3   OH224463   5.999   1.955   1.444  0.3937 -0.7956  0.5739
  943TIP3    H124464   6.006   2.024   1.377  0.3347 -0.3433  1.0281
  943TIP3    H224465   6.055   1.885   1.412  1.2307 -0.1421  0.5827
  944TIP3   OH224466   1.376   0.509   1.238  0.3958  0.4561  0.1321
  944TIP3    H124467   1.346   0.429   1.194  0.5267  0.5296 -0.0945
  944TIP3    H224468   1.469   0.495   1.253  0.0155 -0.3003  1.9918
  945TIP3   OH224469   4.013   1.379   7.384  0.3265  0.6565  0.0081
  945TIP3    H124470   4.038   1.455   7.437  1.2631  0.1081  0.3749
  945TIP3    H224471   3.928   1.353   7.418  1.7163 -0.8289  2.5677
  946TIP3   OH224472   2.639   4.701   0.135 -0.1464 -0.1712 -0.4932
  946TIP3    H124473   2.692   4.642   0.188  0.2015  0.4712 -0.1107
  946TIP3    H224474   2.632   4.658   0.050  1.5287  0.0105 -0.7583
  947TIP3   OH224475   4.695   1.423   7.070  0.1103 -0.3189  0.5507
  947TIP3    H124476   4.689   1.330   7.046 -1.6778 -0.0503 -0.1375
  947TIP3    H224477   4.771   1.455   7.022  1.9534 -1.8169  2.2649
  948TIP3   OH224478   1.407   6.099   1.683  0.4352  0.0044  0.1310
  948TIP3    H124479   1.479   6.158   1.703  0.5846  0.1005 -0.6542
  948TIP3    H224480   1.333   6.157   1.665  0.7862  0.0053 -1.4400
  949TIP3   OH224481   2.990   4.178   0.858  0.2774 -0.1041 -0.2073
  949TIP3    H124482   2.947   4.172   0.943  0.4189 -0.5411 -0.1639
  949TIP3    H224483   3.046   4.100   0.853  0.4825  0.0601 -0.5827
  950TIP3   OH224484   5.189   3.126   7.120  0.2093 -0.0945 -0.2296
  950TIP3    H124485   5.206   3.210   7.078  1.8323 -0.5812 -0.6206
  950TIP3    H224486   5.258   3.068   7.086 -0.6148 -1.4662  0.3605
  951TIP3   OH224487   0.083   1.513   8.086 -0.6653  0.0095  0.2003
  951TIP3    H124488   0.082   1.608   8.100 -1.6366 -0.0366  0.5220
  951TIP3    H224489   0.090   1.503   7.991  1.7717  0.3611  0.2754
  952TIP3   OH224490   3.101   3.366   1.469 -0.6405 -0.1528  0.1921
  952TIP3    H124491   3.061   3.283   1.495 -2.3192  0.8115  0.8648
  952TIP3    H224492   3.161   3.387   1.540  0.4548 -1.1864 -0.3983
  953TIP3   OH224493   1.901   0.141   0.320 -0.1573 -0.5616 -0.0769
  953TIP3    H124494   1.890   0.222   0.370 -0.4094 -0.5910 -0.0807
  953TIP3    H224495   1.982   0.153   0.271  0.9249 -1.1410  1.5009
  954TIP3   OH224496   4.708   2.595   8.079  0.4938  0.3782 -0.0055
  954TIP3    H124497   4.646   2.668   8.071  0.4112  0.4114  0.8155
  954TIP3    H224498   4.739   2.601   8.169  0.4298 -0.6530  0.0927
  955TIP3   OH224499   4.411   1.500   1.516 -0.3771 -0.0684  0.0115
  955TIP3    H124500   4.411   1.456   1.431 -0.4082  1.5153 -0.8466
  955TIP3    H224501   4.501   1.526   1.529 -0.0650 -1.5931  1.2131
  956TIP3   OH224502   6.866   1.540   6.973 -0.1950  0.0335  0.3844
  956TIP3    H124503   6.842   1.601   7.043  0.1554 -1.8934  2.3089
  956TIP3    H224504   6.787   1.487   6.960 -0.6110  1.0341 -1.5062
  957TIP3   OH224505   4.469   2.351   0.031 -0.1426  0.2441  0.4149
  957TIP3    H124506   4.545   2.402   0.058 -0.5175  0.9110  0.2445
  957TIP3    H224507   4.423   2.407  -0.032 -0.3311 -0.4890 -0.1152
  958TIP3   OH224508   1.776   4.263   8.170 -0.3736  0.0730  0.1706
  958TIP3    H124509   1.851   4.244   8.227 -1.2314 -1.8491  0.7385
  958TIP3    H224510   1.710   4.301   8.228 -0.2488  0.7332 -0.1122
  959TIP3   OH224511   0.764   3.932   1.067  0.3496  0.4507 -0.3996
  959TIP3    H124512   0.773   3.997   0.998 -0.8437  0.2253 -0.7933
  959TIP3    H224513   0.699   3.870   1.034  1.2723 -0.8202  0.0635
  960TIP3   OH224514   2.354   5.444   1.061  0.2461 -0.4742  0.2314
  960TIP3    H124515   2.340   5.539   1.068 -1.8478 -0.6356 -1.0051
  960TIP3    H224516   2.399   5.432   0.977 -1.2662 -0.6900 -0.5723
  961TIP3   OH224517   5.247   3.759   7.506 -0.3059 -0.2289 -0.4017
  961TIP3    H124518   5.205   3.818   7.443  0.5843 -1.8905 -2.6933
  961TIP3    H224519   5.209   3.673   7.487 -1.0398 -0.6095  2.3585
  962TIP3   OH224520   6.670   4.240   8.381 -0.0822 -0.1474  0.1927
  962TIP3    H124521   6.639   4.270   8.296  0.3124  0.6664  0.3256
  962TIP3    H224522   6.650   4.146   8.383 -1.3841  0.1136 -0.2151
  963TIP3   OH224523   4.308   5.062   3.086  0.3822 -0.4396  0.6667
  963TIP3    H124524   4.401   5.078   3.101 -0.0078 -0.3923  3.5366
  963TIP3    H224525   4.304   4.973   3.050  1.5504 -0.1177 -0.3177
  964TIP3   OH224526   2.010   0.801   0.343 -0.3025 -0.1443 -0.0133
  964TIP3    H124527   1.975   0.849   0.268 -1.7188 -0.9111  0.1230
  964TIP3    H224528   1.933   0.781   0.396  0.7207  0.9324  1.9933
  965TIP3   OH224529   5.757   0.848   1.766  0.3198  0.3587  0.1171
  965TIP3    H124530   5.738   0.883   1.679 -0.1187  1.6432  0.7052
  965TIP3    H224531   5.672   0.838   1.808  0.5088 -0.5022  0.3221
  966TIP3   OH224532   4.950   5.538   2.206  0.6196 -0.3847  0.3909
  966TIP3    H124533   4.910   5.524   2.120 -1.7648  0.2435  1.3282
  966TIP3    H224534   4.978   5.451   2.234  0.9925 -0.6644 -0.7912
  967TIP3   OH224535   3.338   3.809   1.749 -0.4222 -0.0413  0.6177
  967TIP3    H124536   3.260   3.864   1.741  0.2539  0.9382  0.5401
  967TIP3    H224537   3.399   3.863   1.800  0.3298 -0.6471  0.3627
  968TIP3   OH224538   0.543   6.403   8.224 -0.2418 -0.4660 -0.7911
  968TIP3    H124539   0.588   6.330   8.181  1.6066 -0.7827  1.4512
  968TIP3    H224540   0.468   6.363   8.268  0.8827 -1.1255  0.6011
  969TIP3   OH224541   6.761   1.812   8.607  0.3368  0.1094 -0.0605
  969TIP3    H124542   6.807   1.866   8.544  1.6800 -0.1589  0.6617
  969TIP3    H224543   6.668   1.826   8.588  0.7073  0.3512 -1.8029
  970TIP3   OH224544   6.816   5.525   7.171 -0.4987  0.3529 -0.5344
  970TIP3    H124545   6.891   5.579   7.146 -0.5090  0.6632  0.0871
  970TIP3    H224546   6.855   5.442   7.199 -0.2686  0.9271  0.9538
  971TIP3   OH224547   6.589   1.765   0.268  0.0085  0.6117  0.2375
  971TIP3    H124548   6.632   1.838   0.314  0.7227  1.1323 -1.1827
  971TIP3    H224549   6.654   1.735   0.205 -0.9992  0.0727 -0.5824
  972TIP3   OH224550   1.879   5.202   0.188 -0.5520 -0.2893  0.1025
  972TIP3    H124551   1.830   5.233   0.112  0.2075 -0.6610 -0.5597
  972TIP3    H224552   1.818   5.146   0.235 -0.9009 -0.3896 -0.4621
  973TIP3   OH224553   4.567   6.730   8.626  0.0354 -0.2866 -0.6346
  973TIP3    H124554   4.481   6.719   8.666  0.8001 -0.1980  1.1249
  973TIP3    H224555   4.549   6.750   8.534 -1.8342  0.7119 -0.0877
  974TIP3   OH224556   5.219   5.602   0.364  0.0244  0.1220  0.2103
  974TIP3    H124557   5.202   5.529   0.423  0.3688  0.4189  0.6820
  974TIP3    H224558   5.256   5.562   0.285  0.0662 -0.2238  0.4050
  975TIP3   OH224559   0.643   4.738   0.644 -1.0036 -0.3428 -0.1993
  975TIP3    H124560   0.672   4.829   0.640  1.0654 -0.8472  1.5282
  975TIP3    H224561   0.576   4.731   0.575 -0.3988  2.1520 -1.1496
  976TIP3   OH224562   3.196   6.108   1.639  0.3021  0.0100 -0.2756
  976TIP3    H124563   3.187   6.013   1.638  1.3248 -0.1362  1.1416
  976TIP3    H224564   3.106   6.140   1.631 -0.0468 -1.0548 -0.9072
  977TIP3   OH224565   1.858   4.799   1.545 -0.6299  0.4634  0.0888
  977TIP3    H124566   1.844   4.877   1.491  0.3737  0.7515  0.2360
  977TIP3    H224567   1.905   4.831   1.622 -2.3049  0.1220  1.3232
  978TIP3   OH224568   2.056   3.406   0.535  0.2577 -0.2045 -0.1334
  978TIP3    H124569   2.047   3.501   0.523 -0.0353 -0.1121  0.7338
  978TIP3    H224570   2.148   3.393   0.558  0.6452 -0.3019 -1.6746
  979TIP3   OH224571   2.776   1.826   1.277  0.2625  0.6437 -0.5435
  979TIP3    H124572   2.794   1.826   1.371  1.1118 -0.5075 -0.6811
  979TIP3    H224573   2.854   1.787   1.238  0.3802  2.0980 -1.8362
  980TIP3   OH224574   4.187   1.454   1.032  0.1501 -0.2871 -0.6351
  980TIP3    H124575   4.126   1.408   0.974 -0.4618 -0.6452  0.2718
  980TIP3    H224576   4.195   1.397   1.108  0.2584  0.5769  0.0148
  981TIP3   OH224577   1.158   5.856   6.157 -0.3183  0.5784  0.1475
  981TIP3    H124578   1.107   5.931   6.188  0.1899  0.9203  0.1760
  981TIP3    H224579   1.102   5.780   6.174 -0.2269  0.7938  1.5361
  982TIP3   OH224580   6.522   5.938   7.936 -0.7395  0.2291 -0.1135
  982TIP3    H124581   6.441   5.944   7.986 -0.5099 -0.9375  0.4344
  982TIP3    H224582   6.527   6.021   7.889 -0.9442  1.4272  1.8400
  983TIP3   OH224583   3.591   5.874   8.273  1.1762  0.7405  0.3590
  983TIP3    H124584   3.673   5.870   8.323  1.6035  0.0676 -0.3784
  983TIP3    H224585   3.612   5.930   8.198  1.3893 -0.5700 -0.5845
  984TIP3   OH224586   3.622   3.396   0.765 -0.1230 -0.1869 -0.2762
  984TIP3    H124587   3.646   3.397   0.858 -1.3525  1.4956  0.0738
  984TIP3    H224588   3.655   3.313   0.732  1.7849 -0.1010  1.2754
  985TIP3   OH224589   3.695   3.672   7.425  0.0827 -0.1842  0.2458
  985TIP3    H124590   3.621   3.681   7.485 -1.0774  1.7548 -1.3629
  985TIP3    H224591   3.722   3.761   7.405  2.1443 -0.8294 -0.1136
  986TIP3   OH224592   3.931   6.374   7.971 -0.1423  0.1986 -0.0029
  986TIP3    H124593   3.956   6.296   7.921 -0.8022  0.5070 -0.8272
  986TIP3    H224594   3.921   6.342   8.061  1.0233 -0.3671 -0.0522
  987TIP3   OH224595   0.240   6.888   1.915 -0.1594 -0.1047 -0.5009
  987TIP3    H124596   0.268   6.954   1.978  0.2254 -0.7304 -0.0058
  987TIP3    H224597   0.306   6.892   1.846 -0.5066  0.4865 -0.8078
  988TIP3   OH224598   3.562   2.174   7.591  0.0640 -0.6221 -0.3538
  988TIP3    H124599   3.470   2.175   7.621 -0.2854 -1.8793 -1.2787
  988TIP3    H224600   3.602   2.105   7.643  0.7381  0.4991  0.6598
  989TIP3   OH224601   3.470   6.311   0.594  0.3747 -0.0926  0.4396
  989TIP3    H124602   3.543   6.372   0.595 -1.0258  1.6660  2.0528
  989TIP3    H224603   3.393   6.366   0.580 -0.6299 -2.0589 -3.3873
  990TIP3   OH224604   2.105   2.858   7.732 -0.3252 -0.5011  0.1512
  990TIP3    H124605   2.160   2.811   7.795 -0.1645 -1.1152 -0.4344
  990TIP3    H224606   2.018   2.821   7.746 -0.1984 -0.9861 -0.3109
  991TIP3   OH224607   4.122   4.345   0.503 -0.4643 -0.5954 -0.3885
  991TIP3    H124608   4.111   4.414   0.438  0.6155 -0.6438 -0.6346
  991TIP3    H224609   4.134   4.265   0.451 -2.1989 -1.0773 -0.1099
  992TIP3   OH224610   4.993   5.288   1.142 -0.1589 -0.3720  0.2346
  992TIP3    H124611   4.902   5.259   1.145  0.2793 -1.8799 -0.1127
  992TIP3    H224612   5.010   5.321   1.230 -1.3510  0.9931 -0.0156
  993TIP3   OH224613   5.185   5.554   7.826 -0.1850 -0.0253 -0.3955
  993TIP3    H124614   5.203   5.565   7.733  1.0039 -2.0816 -0.4638
  993TIP3    H224615   5.090   5.563   7.833 -0.2240  0.8618 -1.6805
  994TIP3   OH224616   0.760   1.262   7.442 -0.1895 -0.0383  0.4568
  994TIP3    H124617   0.803   1.178   7.426 -2.4837 -0.8493 -2.6493
  994TIP3    H224618   0.818   1.327   7.402  0.1904 -0.5462  0.1681
  995TIP3   OH224619   1.356   3.097   1.139 -0.4911 -0.5676  0.3425
  995TIP3    H124620   1.446   3.064   1.140 -0.3985 -0.3493 -0.4127
  995TIP3    H224621   1.344   3.136   1.226 -0.0565 -1.1226  0.6568
  996TIP3   OH224622   5.575   1.133   0.642 -0.2046 -0.8589  0.0458
  996TIP3    H124623   5.612   1.055   0.601 -0.3068 -0.3709 -1.0268
  996TIP3    H224624   5.486   1.139   0.607  0.0027  0.0552 -0.3602
  997TIP3   OH224625   3.214   5.812   8.477 -0.0078  0.4421 -0.2248
  997TIP3    H124626   3.287   5.769   8.431  0.4971  1.6261 -0.5648
  997TIP3    H224627   3.212   5.769   8.563 -0.3472 -1.1253 -0.9954
  998TIP3   OH224628   0.223   4.204   2.128 -0.5066 -0.7436  0.9080
  998TIP3    H124629   0.258   4.199   2.217 -1.6397 -1.0025  1.3478
  998TIP3    H224630   0.278   4.145   2.077 -0.7759 -1.7350  1.7464
  999TIP3   OH224631   3.619   3.493   8.135  0.1622  0.5506 -0.1627
  999TIP3    H124632   3.637   3.490   8.229 -1.5010  1.2673  0.2234
  999TIP3    H224633   3.595   3.403   8.112 -0.6990  0.6229  0.4003
 1000TIP3   OH224634   5.192   3.519   2.159  0.0130  0.1843  0.2616
 1000TIP3    H124635   5.232   3.564   2.234 -1.2348  1.3461  0.2871
 1000TIP3    H224636   5.230   3.431   2.160  2.1693  1.0561  0.5203
 1001TIP3   OH224637   2.220   4.380   7.313  0.1333  0.3405  0.3535
 1001TIP3    H124638   2.196   4.338   7.231  1.0735  0.5240 -0.0266
 1001TIP3    H224639   2.147   4.362   7.372  0.7964 -2.4340  0.4404
 1002TIP3   OH224640   3.858   6.692   6.482  0.0093  0.0662 -0.2422
 1002TIP3    H124641   3.884   6.711   6.572  0.5545  1.6490 -0.7076
 1002TIP3    H224642   3.779   6.745   6.468 -0.8628 -1.1955 -0.2989
 1003TIP3   OH224643   6.742   1.902   8.301 -0.3909  0.1624 -0.5399
 1003TIP3    H124644   6.764   1.979   8.249  1.7483 -2.0767 -3.2722
 1003TIP3    H224645   6.648   1.889   8.287 -0.4004  1.2142 -1.6053
 1004TIP3   OH224646   2.821   5.740   6.897 -0.2190  0.1826  0.4476
 1004TIP3    H124647   2.809   5.735   6.992  0.1330 -1.6539  0.4502
 1004TIP3    H224648   2.741   5.702   6.861  0.4980 -1.0849  0.1138
 1005TIP3   OH224649   2.997   0.597   1.382  0.3628 -0.1242  0.5194
 1005TIP3    H124650   3.087   0.618   1.357 -0.1931 -0.0281 -1.6627
 1005TIP3    H224651   2.954   0.683   1.391  0.0850 -0.1724 -0.2303
 1006TIP3   OH224652   0.268   1.732   1.057  0.2570  0.1694 -0.8999
 1006TIP3    H124653   0.276   1.641   1.031 -3.3016 -0.6146  0.1477
 1006TIP3    H224654   0.232   1.776   0.980 -2.1697 -0.3429 -0.1454
 1007TIP3   OH224655   6.605   6.720   8.244  0.0679 -0.2785 -0.2298
 1007TIP3    H124656   6.669   6.693   8.310  0.3372 -1.4310 -0.9272
 1007TIP3    H224657   6.646   6.794   8.200  1.4509 -1.6315 -1.3623
 1008TIP3   OH224658   6.684   6.436   1.505  0.2128  0.3857  0.7627
 1008TIP3    H124659   6.733   6.378   1.446 -0.5960 -0.7411  1.1559
 1008TIP3    H224660   6.749   6.499   1.537  1.2878 -0.7537  0.8823
 1009TIP3   OH224661   0.488   3.829   1.663 -0.3290  0.8166 -0.4394
 1009TIP3    H124662   0.396   3.841   1.636 -0.7089  1.3601  1.0183
 1009TIP3    H224663   0.517   3.751   1.615 -1.7804  0.1972 -0.3622
 1010TIP3   OH224664   0.786   0.594   7.310 -0.2406  0.3698 -0.3658
 1010TIP3    H124665   0.717   0.655   7.284  0.7677  0.9858 -1.7448
 1010TIP3    H224666   0.743   0.509   7.315 -0.9258  0.5480 -2.2820
 1011TIP3   OH224667   6.860   6.699   8.045 -0.1826  0.1441 -0.2774
 1011TIP3    H124668   6.873   6.691   8.139  1.1264 -1.5531 -0.5523
 1011TIP3    H224669   6.919   6.770   8.019  0.5111 -0.3229  0.0023
 1012TIP3   OH224670   5.254   3.697   7.145  0.8053 -0.1662  0.1412
 1012TIP3    H124671   5.348   3.708   7.157  0.8986 -1.2719  0.5514
 1012TIP3    H224672   5.222   3.784   7.122  1.8320  0.3438  0.6106
 1013TIP3   OH224673   5.195   0.512   0.189 -0.1410  0.4387 -0.0092
 1013TIP3    H124674   5.170   0.591   0.142 -0.1244  0.5432  0.1576
 1013TIP3    H224675   5.112   0.468   0.207 -0.1426  0.3537 -0.2105
 1014TIP3   OH224676   3.395   0.706   7.737 -0.0894 -0.0550  0.2278
 1014TIP3    H124677   3.462   0.763   7.775 -0.9153  0.8466  0.3654
 1014TIP3    H224678   3.430   0.683   7.651 -0.6662  2.4676 -0.7785
 1015TIP3   OH224679   3.742   4.719   0.183 -0.2378  0.2701 -0.5128
 1015TIP3    H124680   3.682   4.664   0.233 -0.3834 -0.4034 -1.4020
 1015TIP3    H224681   3.748   4.676   0.098  2.4027 -0.3343 -0.0908
 1016TIP3   OH224682   5.294   3.594   0.185 -0.0107  0.0823 -0.1913
 1016TIP3    H124683   5.210   3.594   0.230 -0.2586  2.5626 -0.5520
 1016TIP3    H224684   5.360   3.589   0.254 -0.4174 -0.1116  0.1809
 1017TIP3   OH224685   0.844   5.128   1.376 -0.1441 -0.2419  0.2937
 1017TIP3    H124686   0.845   5.101   1.284 -0.7282  0.3447  0.1036
 1017TIP3    H224687   0.932   5.162   1.392 -0.1485 -0.0153 -0.1523
 1018TIP3   OH224688   1.071   4.846   1.728  0.0599  0.0628  0.0106
 1018TIP3    H124689   1.040   4.768   1.682  0.0833  0.2443 -0.3189
 1018TIP3    H224690   0.992   4.886   1.764 -0.0748  0.4346 -0.6859
 1019TIP3   OH224691   2.995   1.402   0.496 -0.4225  0.2891  0.1952
 1019TIP3    H124692   2.955   1.341   0.558  0.1409  2.0098  2.3827
 1019TIP3    H224693   2.921   1.443   0.452 -0.8695 -0.4600  0.2364
 1020TIP3   OH224694   2.238   6.498   7.542  0.2688 -0.2850 -0.3204
 1020TIP3    H124695   2.297   6.514   7.469  1.7591 -1.5228  0.5587
 1020TIP3    H224696   2.276   6.545   7.616 -0.6718  0.1274 -0.0738
 1021TIP3   OH224697   0.709   3.041   8.625  0.1919 -0.0412 -0.2292
 1021TIP3    H124698   0.654   2.965   8.646  0.1719 -0.7506 -2.4850
 1021TIP3    H224699   0.650   3.102   8.582  0.5653  0.5255  0.0506
 1022TIP3   OH224700   0.742   0.201   8.242 -0.1102 -0.4712 -0.0363
 1022TIP3    H124701   0.728   0.285   8.285  0.1305 -1.1872  1.5174
 1022TIP3    H224702   0.836   0.198   8.226  0.4045 -1.6345  2.6584
 1023TIP3   OH224703   1.263   0.457   2.030  0.2655  0.1902  0.1163
 1023TIP3    H124704   1.200   0.496   2.091  1.6780  2.6515  0.1165
 1023TIP3    H224705   1.243   0.498   1.946  0.7524 -0.3088 -0.2479
 1024TIP3   OH224706   3.775   2.924   0.845  0.9638  0.0809  0.0839
 1024TIP3    H124707   3.843   2.941   0.911  1.7645 -0.4058 -0.6059
 1024TIP3    H224708   3.794   2.836   0.812  0.0894  0.0007 -0.2358
 1025TIP3   OH224709   5.259   1.418   1.773  0.2947  0.7064  0.2292
 1025TIP3    H124710   5.256   1.341   1.829 -1.3817 -1.7972 -2.9585
 1025TIP3    H224711   5.174   1.460   1.786  0.9426  1.7220  1.4451
 1026TIP3   OH224712   3.669   1.241   1.630 -0.1652 -0.4735 -0.3577
 1026TIP3    H124713   3.762   1.262   1.635 -0.0173 -0.3041 -2.7255
 1026TIP3    H224714   3.652   1.186   1.706  1.8624 -0.5088  0.1105
 1027TIP3   OH224715   6.929   4.960   8.177 -1.1873 -0.5914  0.3292
 1027TIP3    H124716   6.916   4.920   8.263 -0.2438 -1.0688  0.2606
 1027TIP3    H224717   6.965   5.047   8.196 -1.1269 -0.6373  0.4252
 1028TIP3   OH224718   2.607   0.675   2.559 -0.0441  0.1774  0.1632
 1028TIP3    H124719   2.517   0.703   2.576 -0.6160  0.4058 -2.7636
 1028TIP3    H224720   2.659   0.754   2.575 -0.1914 -0.1537  2.6176
 1029TIP3   OH224721   4.131   1.781   8.617  0.0437  0.5687  0.1528
 1029TIP3    H124722   4.140   1.877   8.622 -1.5624  0.7237  0.7687
 1029TIP3    H224723   4.066   1.760   8.684  0.0903 -0.9213 -0.2449
 1030TIP3   OH224724   2.395   3.093   0.249  1.3211 -0.2471 -0.0102
 1030TIP3    H124725   2.319   3.073   0.194  1.6482 -1.2258 -0.1180
 1030TIP3    H224726   2.425   3.179   0.218  0.7203 -0.1948 -0.4728
 1031TIP3   OH224727   6.795   6.177   0.024  0.2579  0.2833 -0.0372
 1031TIP3    H124728   6.820   6.125   0.100 -0.9713  0.7245  0.7017
 1031TIP3    H224729   6.714   6.137  -0.007 -0.6594  1.6631  0.4926
 1032TIP3   OH224730   3.518   1.954   0.234 -0.1722  0.7090 -0.2506
 1032TIP3    H124731   3.470   1.883   0.277  0.6945  0.1219 -0.2445
 1032TIP3    H224732   3.580   1.911   0.177 -0.8667  1.4867 -1.6462
 1033TIP3   OH224733   2.782   0.628   8.537  0.3510 -0.0207 -0.4913
 1033TIP3    H124734   2.838   0.689   8.489 -0.6691 -0.2187 -2.0023
 1033TIP3    H224735   2.843   0.562   8.571  1.2728  0.9449 -0.2271
 1034TIP3   OH224736   2.252   0.034   7.836 -0.0392  0.4959  0.1108
 1034TIP3    H124737   2.251  -0.039   7.898  0.0446 -1.2756 -1.8654
 1034TIP3    H224738   2.159   0.052   7.818 -0.0732 -0.4314 -0.7812
 1035TIP3   OH224739   2.507   6.467   8.316  0.0447  0.2829  0.5656
 1035TIP3    H124740   2.459   6.401   8.266 -0.1902 -0.3876  1.6458
 1035TIP3    H224741   2.596   6.464   8.281 -0.3060  0.4278 -0.3785
 1036TIP3   OH224742   3.734   6.505   6.296  0.0037  0.2080 -0.4035
 1036TIP3    H124743   3.662   6.550   6.254 -2.3619 -0.8172  2.2097
 1036TIP3    H224744   3.769   6.569   6.359 -0.2844 -0.0590  0.0384
 1037TIP3   OH224745   4.358   2.841   8.367  0.3757 -0.0098  0.4195
 1037TIP3    H124746   4.384   2.861   8.457 -0.3029  0.5969  0.4940
 1037TIP3    H224747   4.382   2.919   8.317  0.9718 -0.4400  0.0212
 1038TIP3   OH224748   2.652   5.672   0.590 -0.4946  0.2460 -0.0872
 1038TIP3    H124749   2.577   5.627   0.630  0.0386 -1.4078 -0.8565
 1038TIP3    H224750   2.631   5.765   0.597 -1.0132 -0.0154  2.8135
 1039TIP3   OH224751   0.723   4.857   1.400 -0.1810  0.5723  0.4212
 1039TIP3    H124752   0.780   4.931   1.421 -0.8952  0.5077  2.8959
 1039TIP3    H224753   0.738   4.794   1.471  1.3235 -2.2879 -2.2176
 1040TIP3   OH224754   4.739   4.751   6.770  0.2795  0.2896  0.2430
 1040TIP3    H124755   4.757   4.837   6.731 -0.0722  0.2602  0.0170
 1040TIP3    H224756   4.680   4.708   6.709  0.4442 -0.1142  0.3598
 1041TIP3   OH224757   4.383   1.833   7.216 -0.0708 -0.3052 -0.3054
 1041TIP3    H124758   4.396   1.822   7.121  0.0789 -0.7943 -0.2338
 1041TIP3    H224759   4.396   1.745   7.252  0.3093 -0.0376  0.2200
 1042TIP3   OH224760   6.064   6.341   1.148 -0.3077  0.1102  0.8383
 1042TIP3    H124761   6.056   6.331   1.243  2.9856 -1.7076  1.0759
 1042TIP3    H224762   6.086   6.253   1.116  1.2379  1.1423 -1.2233
 1043TIP3   OH224763   0.672   5.486   1.067  0.3808 -0.0113 -0.3229
 1043TIP3    H124764   0.666   5.575   1.032 -0.2151 -0.0825 -0.4206
 1043TIP3    H224765   0.751   5.486   1.120 -1.4374  1.6859  2.7198
 1044TIP3   OH224766   5.852   4.983   7.403 -0.0471  0.3100 -0.7318
 1044TIP3    H124767   5.817   4.988   7.492  0.2573  1.1689 -0.6516
 1044TIP3    H224768   5.857   4.889   7.384 -0.1837  0.1236  0.1246
 1045TIP3   OH224769   1.280   0.369   8.232 -0.0200  0.0828 -0.0573
 1045TIP3    H124770   1.231   0.336   8.306  0.9144 -1.3881 -0.0531
 1045TIP3    H224771   1.222   0.357   8.157 -0.2467 -0.1768  0.1607
 1046TIP3   OH224772   2.727   5.803   7.184  0.8364 -0.7686 -0.0716
 1046TIP3    H124773   2.802   5.860   7.165  1.2716 -1.2982  0.0257
 1046TIP3    H224774   2.749   5.762   7.268  0.7352 -1.3959 -0.3413
 1047TIP3   OH224775   2.449   6.531   0.975 -0.4105  0.1229 -0.0780
 1047TIP3    H124776   2.411   6.504   0.891 -1.7736 -1.0634  0.8764
 1047TIP3    H224777   2.491   6.615   0.956 -0.0226 -0.4591 -2.1092
 1048TIP3   OH224778   6.660   2.122   6.692  0.1711  0.4505  0.3990
 1048TIP3    H124779   6.735   2.069   6.667  0.9083  1.8870 -0.6136
 1048TIP3    H224780   6.585   2.079   6.652  0.6433 -0.2573  0.2671
 1049TIP3   OH224781   1.880   6.535   2.004  0.1499 -0.9847 -0.3227
 1049TIP3    H124782   1.800   6.576   2.039  0.8597  0.0245  0.1580
 1049TIP3    H224783   1.951   6.582   2.046  1.0199 -1.0674 -1.6613
 1050TIP3   OH224784   1.724   6.176   7.601 -0.2267 -0.0306 -0.5671
 1050TIP3    H124785   1.815   6.147   7.606 -0.1485  0.1765 -0.7786
 1050TIP3    H224786   1.704   6.179   7.508  0.5942  3.0666 -0.7803
 1051TIP3   OH224787   6.672   0.837   2.867 -0.5662  0.6293  0.4554
 1051TIP3    H124788   6.739   0.890   2.911  0.8699  0.3925 -1.3360
 1051TIP3    H224789   6.699   0.746   2.884  0.0128  0.5357 -0.8796
 1052TIP3   OH224790   5.326   1.147   8.366  0.0752  0.0196  0.4186
 1052TIP3    H124791   5.407   1.153   8.317  0.9423 -2.3173  1.4056
 1052TIP3    H224792   5.266   1.098   8.309 -0.5155  1.3329 -0.1206
 1053TIP3   OH224793   4.596   4.043   7.777  0.1793 -0.1666  0.1024
 1053TIP3    H124794   4.558   4.131   7.777 -1.5572 -0.8754  0.3253
 1053TIP3    H224795   4.688   4.056   7.800 -0.1431  1.5456  0.5328
 1054TIP3   OH224796   4.943   3.217   8.201 -0.2185 -0.0878  0.0373
 1054TIP3    H124797   4.983   3.233   8.115 -1.3704  0.7993 -0.3560
 1054TIP3    H224798   4.861   3.267   8.199 -0.8427 -1.0176  1.2089
 1055TIP3   OH224799   0.103   5.227   8.258 -0.0884 -0.8382  0.6974
 1055TIP3    H124800   0.048   5.305   8.265 -0.3754 -1.0658  1.0762
 1055TIP3    H224801   0.193   5.260   8.261 -0.2025 -0.4539 -0.0261
 1056TIP3   OH224802   3.581   3.224   7.479  0.2689 -0.6683 -0.8941
 1056TIP3    H124803   3.548   3.303   7.524 -0.7629 -1.2312 -0.6444
 1056TIP3    H224804   3.599   3.253   7.390 -1.7367 -0.5239 -1.2914
 1057TIP3   OH224805   6.059   5.110   6.059 -0.1093  0.3001 -0.0310
 1057TIP3    H124806   6.103   5.136   6.140 -0.1381 -0.1560  0.1361
 1057TIP3    H224807   6.055   5.014   6.064 -1.0584  0.3295 -0.0736
 1058TIP3   OH224808   6.785   6.364   7.383  0.2790  0.0393  0.0269
 1058TIP3    H124809   6.777   6.380   7.477 -2.8861 -0.4086 -0.0523
 1058TIP3    H224810   6.741   6.438   7.342 -0.6359 -1.0177 -0.9723
 1059TIP3   OH224811   3.599   5.966   1.171 -0.0919 -0.8270 -0.2243
 1059TIP3    H124812   3.626   6.049   1.210 -0.1166  1.1393 -3.9502
 1059TIP3    H224813   3.503   5.967   1.179 -0.1831  0.0917 -1.1897
 1060TIP3   OH224814   6.100   6.473   0.848 -0.1219 -0.1597  0.4676
 1060TIP3    H124815   6.192   6.489   0.872 -0.4099 -0.3252  1.7776
 1060TIP3    H224816   6.071   6.405   0.909 -1.0957 -0.1830 -0.0047
 1061TIP3   OH224817   1.711   4.344   7.569  0.0964 -0.1018  0.6157
 1061TIP3    H124818   1.718   4.424   7.622  0.0766  0.8515 -0.7812
 1061TIP3    H224819   1.724   4.273   7.632  0.2733  0.9959  1.8663
 1062TIP3   OH224820   2.056   6.187   0.729 -0.2218 -0.1909  0.0136
 1062TIP3    H124821   1.964   6.176   0.754 -0.0676 -1.1799  0.1704
 1062TIP3    H224822   2.052   6.244   0.652 -1.1780 -2.0872 -1.4250
 1063TIP3   OH224823   0.244   5.114   7.501  0.1294 -0.1434  0.7899
 1063TIP3    H124824   0.286   5.045   7.449  0.5217 -0.0808  1.0219
 1063TIP3    H224825   0.297   5.120   7.581  0.0299  0.3489  0.8232
 1064TIP3   OH224826   2.330   5.138   8.142  0.1017  0.4001 -0.3528
 1064TIP3    H124827   2.334   5.061   8.199 -1.6366  0.2823 -0.3187
 1064TIP3    H224828   2.420   5.153   8.116  0.6632 -0.8414  0.7140
 1065TIP3   OH224829   1.070   6.216   1.657  0.5687 -0.4316  0.0731
 1065TIP3    H124830   1.077   6.133   1.610  0.4941 -1.0342  1.0837
 1065TIP3    H224831   0.987   6.210   1.705  0.6714  0.1246  0.3304
 1066TIP3   OH224832   3.141   5.998   6.384 -0.4876  0.3505  0.0191
 1066TIP3    H124833   3.063   5.974   6.334 -0.6374 -2.7408  1.4984
 1066TIP3    H224834   3.213   5.956   6.338 -0.0975  0.6708  0.3263
 1067TIP3   OH224835   4.091   4.049   1.239 -0.4598  0.6861 -0.3450
 1067TIP3    H124836   4.177   4.055   1.280 -1.0706 -1.1435  1.3835
 1067TIP3    H224837   4.030   4.073   1.308 -1.4618 -1.3587 -0.4357
 1068TIP3   OH224838   5.540   4.978   8.041 -0.1688 -0.1651  0.2003
 1068TIP3    H124839   5.498   4.919   8.103  1.4190 -1.0369  0.5044
 1068TIP3    H224840   5.468   5.023   7.998 -1.3537 -0.5075  1.7309
 1069TIP3   OH224841   4.655   5.294   1.757  0.5832 -0.3121 -0.9109
 1069TIP3    H124842   4.571   5.311   1.801  1.8733 -0.7501  1.9766
 1069TIP3    H224843   4.691   5.380   1.741  0.3031 -0.1389 -0.6292
 1070TIP3   OH224844   0.358   1.699   8.064 -0.3526  0.3038 -0.4246
 1070TIP3    H124845   0.354   1.613   8.023 -0.1174 -0.8040  1.7235
 1070TIP3    H224846   0.406   1.754   8.001  1.1434 -1.6233 -1.0667
 1071TIP3   OH224847   0.350   6.646   2.555  0.4432 -0.1978  0.0448
 1071TIP3    H124848   0.439   6.682   2.558  0.3905  0.0361 -0.9559
 1071TIP3    H224849   0.294   6.722   2.567  0.3716 -0.3234  0.5150
 1072TIP3   OH224850   5.965   4.290   8.277 -0.5627 -0.1954  0.2834
 1072TIP3    H124851   5.996   4.305   8.187  0.2405 -0.9382  0.4191
 1072TIP3    H224852   5.881   4.246   8.267 -0.5201 -0.1902 -0.1083
 1073TIP3   OH224853   4.123   2.821   2.196 -0.7291 -0.4681  0.0893
 1073TIP3    H124854   4.185   2.797   2.265 -0.3009 -1.8348 -0.7352
 1073TIP3    H224855   4.048   2.857   2.243  1.0813  2.3474  1.0739
 1074TIP3   OH224856   0.672   5.204   6.284 -0.4308  0.2490 -0.2127
 1074TIP3    H124857   0.658   5.296   6.262  0.0489 -0.1131 -2.3351
 1074TIP3    H224858   0.590   5.160   6.259 -1.0783  0.2154  1.8347
 1075TIP3   OH224859   0.350   3.151   0.586  0.2718 -0.0804  0.2886
 1075TIP3    H124860   0.431   3.177   0.542 -0.1830  0.1358 -0.4407
 1075TIP3    H224861   0.281   3.190   0.533 -0.2579  1.9539  2.3227
 1076TIP3   OH224862   4.784   1.030   7.504  0.2763 -0.4755  0.1917
 1076TIP3    H124863   4.726   1.104   7.521 -0.5484 -1.3454  1.3534
 1076TIP3    H224864   4.851   1.065   7.446 -0.6660  0.9090 -0.1253
 1077TIP3   OH224865   5.713   6.380   7.859 -0.1802  0.2984 -0.4114
 1077TIP3    H124866   5.632   6.431   7.852  0.0828  1.0002  1.3526
 1077TIP3    H224867   5.686   6.291   7.836 -1.3838  0.5795 -0.1595
 1078TIP3   OH224868   6.385   5.319   8.209  0.7069 -0.0230  0.1105
 1078TIP3    H124869   6.311   5.260   8.215 -0.8785  1.6492 -1.6517
 1078TIP3    H224870   6.370   5.384   8.278  0.5635  0.2459 -0.1676
 1079TIP3   OH224871   5.487   0.905   7.367  0.2757 -0.2169  0.3152
 1079TIP3    H124872   5.436   0.888   7.288 -1.7131  1.0610  1.2588
 1079TIP3    H224873   5.457   0.840   7.430  2.1413 -1.4934  0.0023
 1080TIP3   OH224874   3.944   1.088   8.117 -0.8128 -0.0065  0.2108
 1080TIP3    H124875   3.957   1.030   8.041 -1.4150  1.4520 -1.0667
 1080TIP3    H224876   3.936   1.028   8.191  0.4367 -1.4687 -0.7590
 1081TIP3   OH224877   0.153   1.721   7.725  0.3992 -0.3672 -0.0346
 1081TIP3    H124878   0.125   1.631   7.741 -1.3625 -0.5208 -3.1829
 1081TIP3    H224879   0.081   1.775   7.759  0.8710 -0.1749  0.6912
 1082TIP3   OH224880   4.790   6.536   0.959  0.0321  0.0592  0.0407
 1082TIP3    H124881   4.794   6.453   0.912 -0.0339 -0.5334  1.0564
 1082TIP3    H224882   4.878   6.572   0.951 -0.8898  1.9184 -3.8864
 1083TIP3   OH224883   6.917   5.099   0.136  0.1996  0.7174  0.7487
 1083TIP3    H124884   6.888   5.106   0.045  0.0765 -1.5878  0.5642
 1083TIP3    H224885   6.856   5.037   0.176  0.0018  1.9854  2.5431
 1084TIP3   OH224886   1.348   1.092   1.458 -0.2332 -0.0753  0.3458
 1084TIP3    H124887   1.372   1.000   1.449  0.9976  0.3411 -0.8166
 1084TIP3    H224888   1.272   1.102   1.401 -0.9079 -0.5413  1.1331
 1085TIP3   OH224889   1.730   3.028   8.515  0.3135 -0.0522 -0.3673
 1085TIP3    H124890   1.780   2.967   8.461 -0.4345 -0.7567 -0.2846
 1085TIP3    H224891   1.647   2.983   8.532 -0.1241  0.8535 -0.0279
 1086TIP3   OH224892   1.816   5.781   8.090 -0.0116 -0.0202 -0.2171
 1086TIP3    H124893   1.830   5.687   8.092 -2.1207 -0.3618  0.9926
 1086TIP3    H224894   1.887   5.817   8.144 -0.3370 -1.0846  0.9535
 1087TIP3   OH224895   2.444   6.782   6.896  0.5714  0.0730 -0.0388
 1087TIP3    H124896   2.386   6.777   6.971  1.6601  4.5268  1.4161
 1087TIP3    H224897   2.386   6.798   6.821 -0.3131  0.4815  0.7194
 1088TIP3   OH224898   0.030   3.504   8.059  0.1248 -0.5806  0.4180
 1088TIP3    H124899   0.049   3.488   7.967  1.2399  0.3639  0.4570
 1088TIP3    H224900   0.106   3.470   8.106 -0.1308 -0.4502  0.9346
 1089TIP3   OH224901   0.255   1.993   0.749 -0.4557  0.4680  0.0561
 1089TIP3    H124902   0.320   1.975   0.681 -0.2169 -0.0096  0.4018
 1089TIP3    H224903   0.193   1.920   0.743 -0.0882  0.0909  0.7579
 1090TIP3   OH224904   2.679   5.698   8.377  0.3372  0.1532  0.2277
 1090TIP3    H124905   2.760   5.748   8.389  0.4968  0.2626 -1.1529
 1090TIP3    H224906   2.640   5.735   8.298  0.3883 -1.8013 -0.7505
 1091TIP3   OH224907   3.206   0.034   6.426  0.2895  0.0901  0.0428
 1091TIP3    H124908   3.257   0.115   6.424  0.6573 -0.1009  0.9150
 1091TIP3    H224909   3.229  -0.006   6.510  0.3746 -1.0930 -0.5373
 1092TIP3   OH224910   4.307   3.612   7.376 -0.6699  0.1142  0.0079
 1092TIP3    H124911   4.399   3.637   7.386 -0.2846 -1.1740 -0.1435
 1092TIP3    H224912   4.308   3.538   7.316 -1.5826 -1.2043  1.5353
 1093TIP3   OH224913   1.076   4.864   1.406 -0.3630  0.4823  0.7566
 1093TIP3    H124914   1.062   4.948   1.363 -1.4398 -0.6397 -1.2868
 1093TIP3    H224915   1.018   4.866   1.482  1.0264  2.2492  1.8518
 1094TIP3   OH224916   5.438   2.558   6.988 -0.0350  0.1664 -0.3880
 1094TIP3    H124917   5.463   2.617   7.059 -1.2407  1.9522 -1.3467
 1094TIP3    H224918   5.486   2.591   6.911 -1.9306  1.0277 -1.2973
 1095TIP3   OH224919   5.418   1.801   8.342 -0.5445 -0.2520 -0.5404
 1095TIP3    H124920   5.510   1.775   8.348 -0.8364 -1.1954 -0.0094
 1095TIP3    H224921   5.383   1.747   8.271 -1.4540 -2.3244  1.3743
 1096TIP3   OH224922   1.867   2.116   7.891 -0.0582  0.3045  0.5453
 1096TIP3    H124923   1.859   2.206   7.922 -0.4222  0.3965  0.1953
 1096TIP3    H224924   1.790   2.071   7.925 -0.9568  0.6342 -0.9693
 1097TIP3   OH224925   6.423   6.007   8.242  0.2192 -0.1678  0.7001
 1097TIP3    H124926   6.379   6.065   8.180  1.2884  0.0906  0.1697
 1097TIP3    H224927   6.353   5.953   8.278 -0.6770  0.8985  0.5996
 1098TIP3   OH224928   5.117   4.162   0.986  0.2969  0.5213  0.4825
 1098TIP3    H124929   5.132   4.236   1.045 -0.4448 -0.3182  1.7935
 1098TIP3    H224930   5.022   4.158   0.977  0.3218 -0.3370  0.5372
 1099TIP3   OH224931   6.066   1.468   0.645 -0.2840 -0.2216 -0.2147
 1099TIP3    H124932   6.048   1.555   0.681 -0.3287 -0.1073 -0.5033
 1099TIP3    H224933   6.161   1.463   0.641 -0.2488 -0.6339  0.8568
 1100TIP3   OH224934   1.203   5.867   6.966  0.0020  0.0770 -0.5252
 1100TIP3    H124935   1.263   5.792   6.965 -1.1405 -0.8660 -0.9555
 1100TIP3    H224936   1.138   5.844   7.032 -1.8891 -0.5831 -2.5312
 1101TIP3   OH224937   6.447   5.981   1.622  0.1518  0.3428 -0.2672
 1101TIP3    H124938   6.408   5.972   1.708  0.1117  0.0964 -0.3092
 1101TIP3    H224939   6.535   6.014   1.639 -0.3062  1.5684 -0.2181
 1102TIP3   OH224940   0.164   0.224   1.785 -0.6315 -0.6294 -0.1041
 1102TIP3    H124941   0.181   0.131   1.771  0.8533 -0.2456 -1.0072
 1102TIP3    H224942   0.139   0.230   1.878 -2.8988 -2.1723 -0.5359
 1103TIP3   OH224943   6.310   2.375   7.707 -0.8645  0.1428  0.2436
 1103TIP3    H124944   6.345   2.463   7.721  0.8729 -0.5991  0.9047
 1103TIP3    H224945   6.359   2.341   7.632  1.2917 -1.5712  2.2723
 1104TIP3   OH224946   1.396   6.467   7.025 -0.0019 -0.2793  0.3459
 1104TIP3    H124947   1.411   6.476   7.120 -0.3156  1.0246  0.2865
 1104TIP3    H224948   1.302   6.456   7.016 -0.2350  1.6148  0.0837
 1105TIP3   OH224949   5.618   5.791   8.505 -0.3371 -0.0619 -0.4926
 1105TIP3    H124950   5.645   5.726   8.440  2.0520  1.4998 -1.1819
 1105TIP3    H224951   5.550   5.843   8.461 -0.7072 -0.7192 -0.7105
 1106TIP3   OH224952   3.947   4.239   0.193 -0.0345 -0.1671  0.3476
 1106TIP3    H124953   4.027   4.202   0.230 -0.9601 -0.2865  2.3615
 1106TIP3    H224954   3.876   4.205   0.248 -1.4263  0.3993 -1.0076
 1107TIP3   OH224955   0.287   5.965   0.532  0.3575 -0.2184 -0.5317
 1107TIP3    H124956   0.346   5.898   0.498  0.5384 -0.6594  0.6318
 1107TIP3    H224957   0.325   6.048   0.501  0.0968 -0.6249 -2.0177
 1108TIP3   OH224958   3.089   6.645   1.424 -0.4058  0.0852 -0.5649
 1108TIP3    H124959   3.178   6.633   1.458 -0.8438 -2.6589 -0.1252
 1108TIP3    H224960   3.059   6.726   1.464  1.1754 -0.0297  0.9923
 1109TIP3   OH224961   6.603   0.614   1.693 -0.3551  0.1731 -0.4151
 1109TIP3    H124962   6.516   0.596   1.728 -0.7240  1.2704 -0.7083
 1109TIP3    H224963   6.591   0.694   1.641  1.1211  1.1495  0.6912
 1110TIP3   OH224964   1.890   3.196   0.565 -0.1358  0.1682 -0.2525
 1110TIP3    H124965   1.796   3.207   0.579  0.3151  0.5224  3.4292
 1110TIP3    H224966   1.923   3.285   0.548 -0.2230  0.3737  0.6094
 1111TIP3   OH224967   5.264   1.233   1.979 -0.0317 -0.2654 -0.1066
 1111TIP3    H124968   5.305   1.164   2.031  1.3129  1.8071  1.7444
 1111TIP3    H224969   5.194   1.266   2.035  0.0308  0.5848 -0.5255
 1112TIP3   OH224970   0.110   3.504   6.930 -1.0689  0.3804  0.0948
 1112TIP3    H124971   0.018   3.527   6.940 -1.0700 -0.3395  2.0657
 1112TIP3    H224972   0.127   3.438   6.998  0.9213  0.5749 -0.1392
 1113TIP3   OH224973   0.932   6.913   7.512 -0.1821  0.3871  0.3028
 1113TIP3    H124974   0.900   6.869   7.591 -0.5865  1.0047  0.4972
 1113TIP3    H224975   0.856   6.963   7.482 -0.3661 -0.6875 -1.1059
 1114TIP3   OH224976   6.127   4.696   0.178 -0.5324  0.1739  0.3793
 1114TIP3    H124977   6.103   4.670   0.267 -2.0661  1.1443  0.2924
 1114TIP3    H224978   6.047   4.735   0.142  0.1636  0.1415 -1.2996
 1115TIP3   OH224979   5.376   5.993   6.935  0.2728  0.4393  0.0501
 1115TIP3    H124980   5.423   5.925   6.886 -1.6155  0.2416 -1.6762
 1115TIP3    H224981   5.329   6.042   6.867 -0.4455  1.8313  1.4909
 1116TIP3   OH224982   1.602   6.883   0.165 -1.1043  0.5302 -0.1771
 1116TIP3    H124983   1.693   6.865   0.139 -0.7393  0.5875  1.0102
 1116TIP3    H224984   1.584   6.970   0.131 -0.0117  1.3712  1.2934
 1117TIP3   OH224985   3.116   6.109   1.152 -0.1063 -0.1268  0.2636
 1117TIP3    H124986   3.156   6.193   1.172 -1.0092  0.9527 -2.0893
 1117TIP3    H224987   3.056   6.093   1.225  1.1820  0.4766  1.5034
 1118TIP3   OH224988   0.078   5.499   1.116  0.1831  0.0220 -0.2737
 1118TIP3    H124989   0.008   5.544   1.163  1.1757  1.3267  0.0161
 1118TIP3    H224990   0.110   5.564   1.053  1.8290 -0.1622  0.3246
 1119TIP3   OH224991   5.898   5.474   1.802  0.3349 -0.2994 -0.2388
 1119TIP3    H124992   5.939   5.395   1.766  2.7828  0.6334  0.2880
 1119TIP3    H224993   5.857   5.517   1.726  1.0631 -0.8725 -0.9715
 1120TIP3   OH224994   1.308   6.561   0.298  0.1250 -0.2328 -0.0049
 1120TIP3    H124995   1.243   6.527   0.359  0.3536 -0.1392  0.2919
 1120TIP3    H224996   1.275   6.536   0.211 -0.9346  0.8550  0.0508
 1121TIP3   OH224997   1.912   0.158   0.689 -0.9015 -0.2875 -0.1299
 1121TIP3    H124998   1.968   0.233   0.668 -0.3441 -0.7473 -0.3185
 1121TIP3    H224999   1.864   0.141   0.608 -1.9383  0.6113  0.2652
 1122TIP3   OH225000   5.541   1.406   7.239  0.3632 -0.1177  0.1402
 1122TIP3    H125001   5.507   1.328   7.283 -0.3234 -0.0884 -0.3324
 1122TIP3    H225002   5.613   1.373   7.184 -0.1519 -0.4801 -0.3268
 1123TIP3   OH225003   6.863   3.162   0.577  0.0349 -0.2732 -0.1013
 1123TIP3    H125004   6.879   3.073   0.608  0.2361 -0.1261  0.2250
 1123TIP3    H225005   6.934   3.214   0.615  0.8441 -0.2490 -1.5508
 1124TIP3   OH225006   6.574   4.365   2.416  0.3894  0.1486 -0.1345
 1124TIP3    H125007   6.620   4.438   2.375  2.0261 -0.7317  0.0663
 1124TIP3    H225008   6.590   4.377   2.510  0.1442 -0.1310 -0.0564
 1125TIP3   OH225009   5.806   3.444   7.394  0.1911 -0.1801  0.1961
 1125TIP3    H125010   5.746   3.403   7.332 -0.8206  1.3200  0.1372
 1125TIP3    H225011   5.754   3.454   7.474  1.3697 -1.7747  1.2337
 1126TIP3   OH225012   4.861   1.646   6.515  0.0359 -0.1239  0.2836
 1126TIP3    H125013   4.785   1.680   6.563  0.3266 -0.0032  0.6575
 1126TIP3    H225014   4.914   1.602   6.581  0.3473 -0.1184  0.0402
 1127TIP3   OH225015   5.715   5.040   6.785 -0.1019 -0.1673 -0.4024
 1127TIP3    H125016   5.647   5.062   6.721 -0.1344 -0.0503 -0.3283
 1127TIP3    H225017   5.745   4.953   6.759 -1.1725 -0.7781  0.3050
 1128TIP3   OH225018   0.840   6.781   1.059 -0.2564 -0.1377 -0.0980
 1128TIP3    H125019   0.776   6.743   1.119  0.3113 -1.0094 -0.0279
 1128TIP3    H225020   0.922   6.780   1.109  0.4614 -1.8537 -1.2206
 1129TIP3   OH225021   4.393   4.231   1.946 -0.2267 -0.7373  0.9236
 1129TIP3    H125022   4.457   4.209   1.879  0.5432  0.7524  1.1207
 1129TIP3    H225023   4.409   4.323   1.966 -2.6588 -0.1857  0.7435
 1130TIP3   OH225024   3.602   1.000   0.608 -0.0402  0.1379 -0.6191
 1130TIP3    H125025   3.516   0.990   0.650  0.5277 -1.6344  0.2593
 1130TIP3    H225026   3.582   1.017   0.516 -1.3235  3.2823  0.1265
 1131TIP3   OH225027   5.424   2.082   0.448  0.0509  0.1015 -0.0946
 1131TIP3    H125028   5.456   2.172   0.439 -0.4182  0.2477 -0.3463
 1131TIP3    H225029   5.370   2.084   0.527 -2.1247  0.7086 -1.5080
 1132TIP3   OH225030   6.831   1.522   0.068  0.0425 -0.0463  0.0336
 1132TIP3    H125031   6.794   1.446   0.025 -2.4681  0.9984  0.1925
 1132TIP3    H225032   6.807   1.596   0.012  3.3580  0.6226 -0.7160
 1133TIP3   OH225033   2.400   6.243   8.178  0.1971 -0.4388  0.4789
 1133TIP3    H125034   2.356   6.202   8.103  0.1191  0.4697  0.0226
 1133TIP3    H225035   2.402   6.174   8.244 -0.0290 -1.1532 -0.2385
 1134TIP3   OH225036   1.646   3.784   1.339 -0.2440 -0.1218 -0.0971
 1134TIP3    H125037   1.624   3.691   1.336  1.0127 -0.4531  0.5280
 1134TIP3    H225038   1.610   3.819   1.258 -0.8438 -1.1178 -0.2853
 1135TIP3   OH225039   1.643   5.368   6.969 -0.2088 -0.5625 -0.1454
 1135TIP3    H125040   1.553   5.361   6.937 -0.5452  0.4471  0.5320
 1135TIP3    H225041   1.657   5.288   7.019 -1.5690  0.2820  1.7185
 1136TIP3   OH225042   1.982   0.992   6.540  0.6035 -0.4182  0.5182
 1136TIP3    H125043   2.050   0.928   6.520 -0.8968 -1.6661 -0.8855
 1136TIP3    H225044   1.926   0.948   6.604 -0.3477 -0.4829 -0.3352
 1137TIP3   OH225045   0.722   0.813   0.125  0.3049 -0.9207  0.6893
 1137TIP3    H125046   0.811   0.819   0.092  0.1119 -1.2343  0.1091
 1137TIP3    H225047   0.730   0.829   0.219  0.4553  3.7151  0.1270
 1138TIP3   OH225048   1.103   5.054   6.333  0.3701  0.3845 -0.0358
 1138TIP3    H125049   1.187   5.074   6.375  0.4293  1.4318 -0.6292
 1138TIP3    H225050   1.047   5.027   6.405  0.2824  2.7376  0.8742
 1139TIP3   OH225051   2.191   1.583   7.090 -0.2663  0.0347  0.4302
 1139TIP3    H125052   2.188   1.664   7.141  2.1364  0.6962 -0.3694
 1139TIP3    H225053   2.221   1.517   7.152 -2.5714 -0.4102  1.1779
 1140TIP3   OH225054   1.534   0.291   8.400 -0.4024  0.2362  0.0932
 1140TIP3    H125055   1.447   0.304   8.364 -0.7992 -1.5493  0.3255
 1140TIP3    H225056   1.592   0.291   8.324 -0.8803 -0.6833 -0.2802
 1141TIP3   OH225057   4.129   4.012   2.499 -0.3851  0.0367  0.3064
 1141TIP3    H125058   4.055   3.987   2.443 -0.3654  1.0526 -0.1902
 1141TIP3    H225059   4.148   3.933   2.549 -2.2566 -0.0738  0.9455
 1142TIP3   OH225060   5.619   0.440   0.896  0.2402  0.4000  0.4323
 1142TIP3    H125061   5.693   0.387   0.871 -0.5608 -0.2134 -0.7222
 1142TIP3    H225062   5.617   0.512   0.832 -0.9396 -0.3483 -0.4183
 1143TIP3   OH225063   6.052   0.730   6.828 -0.1410  0.0603  0.4521
 1143TIP3    H125064   6.120   0.710   6.763  0.7240  0.2116  1.2812
 1143TIP3    H225065   6.076   0.677   6.904 -1.0467  0.0078  0.7080
 1144TIP3   OH225066   5.376   5.292   0.062  0.1048  0.2771 -0.4859
 1144TIP3    H125067   5.362   5.227   0.130  1.1585 -0.0641 -0.5834
 1144TIP3    H225068   5.371   5.243  -0.020 -0.0895  0.4954 -0.6073
 1145TIP3   OH225069   0.080   1.366   6.517  0.1070 -0.1469 -0.5381
 1145TIP3    H125070   0.031   1.312   6.455 -0.3815 -0.0624 -0.2373
 1145TIP3    H225071   0.144   1.413   6.464  0.2672 -0.7147 -0.8562
 1146TIP3   OH225072   3.445   2.366   7.172  0.3381 -0.1052 -0.7956
 1146TIP3    H125073   3.508   2.342   7.239 -1.1374 -0.7459  0.4275
 1146TIP3    H225074   3.439   2.289   7.115  0.0547 -0.3748 -0.4102
 1147TIP3   OH225075   2.669   1.304   1.367  0.1308  0.3188  0.0211
 1147TIP3    H125076   2.639   1.293   1.457 -0.2123 -1.7727 -0.3021
 1147TIP3    H225077   2.596   1.347   1.322 -0.0550  0.5353  0.5274
 1148TIP3   OH225078   1.744   2.818   8.069  0.3311  0.3725 -0.0328
 1148TIP3    H125079   1.741   2.723   8.057 -0.1239  0.2244  1.1590
 1148TIP3    H225080   1.661   2.850   8.035  1.4117  0.6522 -2.6407
 1149TIP3   OH225081   4.655   3.692   8.231 -0.2548  0.1608  0.2135
 1149TIP3    H125082   4.658   3.772   8.285  0.6465  1.6128 -1.8749
 1149TIP3    H225083   4.570   3.653   8.252  0.5988 -0.1817  3.7170
 1150TIP3   OH225084   0.971   2.582   0.751  0.2028 -0.2196  0.0314
 1150TIP3    H125085   0.946   2.601   0.841 -0.6496  2.0739 -0.6040
 1150TIP3    H225086   1.052   2.633   0.738 -0.2926  0.3791 -0.7965
 1151TIP3   OH225087   1.007   1.715   7.044  0.2566  0.4050  0.2861
 1151TIP3    H125088   1.035   1.625   7.055  2.4529  0.9875  0.0164
 1151TIP3    H225089   1.088   1.766   7.049 -0.7716  2.2559 -0.7055
 1152TIP3   OH225090   2.398   4.392   6.967  0.5268 -0.2593  0.4743
 1152TIP3    H125091   2.430   4.316   7.017 -0.5375 -0.2732  1.1665
 1152TIP3    H225092   2.442   4.385   6.883  0.6047 -1.5483  0.5997
 1153TIP3   OH225093   6.343   3.537   7.379  0.1684 -0.1061 -0.0409
 1153TIP3    H125094   6.325   3.451   7.340 -0.2061 -0.4224  0.8015
 1153TIP3    H225095   6.256   3.571   7.400  0.3402  0.3219 -0.0259
 1154TIP3   OH225096   0.658   2.156   8.001  0.3084 -0.2105 -0.5878
 1154TIP3    H125097   0.692   2.108   8.077 -1.6272  1.4020  1.4277
 1154TIP3    H225098   0.735   2.199   7.963  1.2126 -0.3672  0.9870
 1155TIP3   OH225099   2.090   4.235   7.068  0.1619  0.2219 -0.5615
 1155TIP3    H125100   2.094   4.292   6.991 -0.9111 -0.5827 -1.2439
 1155TIP3    H225101   2.107   4.147   7.033  3.4713  0.1943  0.7013
 1156TIP3   OH225102   5.948   4.264   1.551 -0.2432 -0.5231  0.0381
 1156TIP3    H125103   5.935   4.341   1.495  0.4324 -0.2524  0.2402
 1156TIP3    H225104   6.042   4.266   1.572  0.3362 -2.7472 -1.9272
 1157TIP3   OH225105   5.712   0.324   7.263  0.0127  0.0864  0.2023
 1157TIP3    H125106   5.739   0.359   7.178 -1.7363  1.0693  0.0075
 1157TIP3    H225107   5.747   0.234   7.264  0.5659  0.2535 -1.2833
 1158TIP3   OH225108   6.169   2.011   7.635  0.5505  0.0497 -0.2752
 1158TIP3    H125109   6.192   2.061   7.556 -0.3009  1.2973  0.2281
 1158TIP3    H225110   6.091   2.055   7.668  1.3574  0.0583  1.7250
 1159TIP3   OH225111   6.300   4.524   8.344  0.8540 -0.5360  0.7016
 1159TIP3    H125112   6.225   4.520   8.403 -1.1015 -1.4327 -1.6671
 1159TIP3    H225113   6.373   4.487   8.394 -0.2625  0.2627  3.0527
 1160TIP3   OH225114   5.298   4.396   7.291 -0.2564 -0.2546  0.0118
 1160TIP3    H125115   5.204   4.383   7.275 -0.3074  0.5930 -0.4765
 1160TIP3    H225116   5.340   4.322   7.248 -0.4312  1.5998 -3.8171
 1161TIP3   OH225117   0.010   6.163   0.487 -0.2799  0.5814  0.4839
 1161TIP3    H125118   0.047   6.093   0.433 -1.1176  0.0708  0.5566
 1161TIP3    H225119  -0.084   6.155   0.476 -0.5511 -0.2937  2.9219
 1162TIP3   OH225120   4.415   6.034   8.241  0.0003  0.2736 -0.2822
 1162TIP3    H125121   4.338   6.050   8.186  0.0628  2.2713  0.1334
 1162TIP3    H225122   4.381   6.038   8.330  0.0213 -2.2994 -0.0606
 1163TIP3   OH225123   4.425   3.777   6.784  0.2016 -0.1430  0.3868
 1163TIP3    H125124   4.387   3.700   6.742 -0.4738 -0.1681  1.0120
 1163TIP3    H225125   4.505   3.745   6.824  0.8734 -0.1058 -0.8930
 1164TIP3   OH225126   3.486   0.972   6.216 -0.2819 -0.2183  0.3290
 1164TIP3    H125127   3.550   0.946   6.150 -0.6051 -1.2611  0.3950
 1164TIP3    H225128   3.499   0.908   6.287 -1.8309 -0.8712  0.0602
 1165TIP3   OH225129   0.012   5.291   2.078 -0.3588  0.5301  0.2114
 1165TIP3    H125130   0.087   5.270   2.022 -0.1705 -0.1421  0.7082
 1165TIP3    H225131  -0.046   5.215   2.071 -2.3095  2.0774 -2.2436
 1166TIP3   OH225132   4.180   6.422   0.219 -0.1272 -0.2188  0.0156
 1166TIP3    H125133   4.248   6.405   0.154 -0.8346  0.7761 -1.0167
 1166TIP3    H225134   4.228   6.454   0.296  0.6991 -1.2139 -0.0602
 1167TIP3   OH225135   6.190   5.536   6.787  0.2894  0.7183  0.2168
 1167TIP3    H125136   6.265   5.536   6.846 -0.7513 -0.7957  1.6146
 1167TIP3    H225137   6.229   5.545   6.699  2.2186 -1.3003  0.7777
 1168TIP3   OH225138   1.849   2.393   7.978 -0.2008 -0.3319  0.1322
 1168TIP3    H125139   1.780   2.397   7.912 -0.9308 -0.1316  0.8866
 1168TIP3    H225140   1.819   2.452   8.047  0.4133 -0.7390  0.7610
 1169TIP3   OH225141   0.339   2.500   8.503 -0.0845 -0.3719 -0.1458
 1169TIP3    H125142   0.391   2.580   8.509  2.1846 -1.5539 -2.1844
 1169TIP3    H225143   0.276   2.519   8.434 -0.7564  0.2175  0.6058
 1170TIP3   OH225144   4.011   5.594   7.383  0.3068  0.2287 -0.0732
 1170TIP3    H125145   4.006   5.499   7.371  0.3516  0.0651  1.0978
 1170TIP3    H225146   3.960   5.630   7.310 -0.2996 -0.7147 -0.1366
 1171TIP3   OH225147   3.318   3.404   7.912 -0.4490 -1.0585 -0.1557
 1171TIP3    H125148   3.278   3.480   7.952  0.1853 -1.0403  0.4448
 1171TIP3    H225149   3.361   3.358   7.984 -1.1698 -2.2128 -0.4271
 1172TIP3   OH225150   5.668   3.193   8.139 -0.6232  0.1288 -0.0802
 1172TIP3    H125151   5.620   3.243   8.073 -1.1941  0.5406  0.6426
 1172TIP3    H225152   5.728   3.139   8.088 -0.4050  1.1133 -0.9093
 1173TIP3   OH225153   3.096   6.270   7.887  0.4130  0.5425  0.1069
 1173TIP3    H125154   3.016   6.261   7.938  0.5893  0.0430  0.3044
 1173TIP3    H225155   3.126   6.180   7.873  1.2682  0.7408  0.5714
 1174TIP3   OH225156   6.681   2.794   0.929 -0.0304  0.1943  0.5141
 1174TIP3    H125157   6.661   2.760   1.016 -2.1156 -1.1439 -0.4310
 1174TIP3    H225158   6.738   2.728   0.890  0.7769  0.7224  0.7474
 1175TIP3   OH225159   0.353   1.411   8.009 -0.4380  0.2043  0.0354
 1175TIP3    H125160   0.286   1.350   8.040  0.5902 -0.8998  0.1020
 1175TIP3    H225161   0.434   1.361   8.009  0.0050  0.8212 -2.3398
 1176TIP3   OH225162   6.158   0.245   7.697  0.1241  0.1125 -0.6967
 1176TIP3    H125163   6.251   0.228   7.684  0.0741  0.7514 -2.1498
 1176TIP3    H225164   6.155   0.324   7.752  0.4186 -0.2927 -0.0907
 1177TIP3   OH225165   6.877   2.476   8.597  0.7022  0.2956 -0.8359
 1177TIP3    H125166   6.818   2.428   8.539 -2.4629  1.8346  0.8543
 1177TIP3    H225167   6.857   2.443   8.685  1.7846  1.4480 -0.1142
 1178TIP3   OH225168   0.324   5.971   1.643  0.3843  0.2639 -0.9037
 1178TIP3    H125169   0.410   5.982   1.686 -0.3673 -0.9187  1.0392
 1178TIP3    H225170   0.307   6.056   1.604  0.0939  2.4267  3.3135
 1179TIP3   OH225171   6.205   3.906   6.547 -0.0730  0.5597 -1.3954
 1179TIP3    H125172   6.217   3.821   6.505 -1.9669 -0.3128 -0.2874
 1179TIP3    H225173   6.291   3.948   6.541  1.6354 -2.3994  0.1436
 1180TIP3   OH225174   5.487   4.185   7.214  0.3881  0.4806  0.0746
 1180TIP3    H125175   5.517   4.160   7.302 -0.3935 -1.4405 -0.1397
 1180TIP3    H225176   5.560   4.234   7.177  1.4010 -0.1033  1.2056
 1181TIP3   OH225177   6.692   6.275   6.742 -0.1221  0.0893  0.1269
 1181TIP3    H125178   6.706   6.368   6.761  1.1318  0.0721 -0.6517
 1181TIP3    H225179   6.606   6.273   6.699  1.3437  1.4410 -3.2625
 1182TIP3   OH225180   0.388   6.828   1.694  0.4561  0.3056  0.2162
 1182TIP3    H125181   0.311   6.856   1.645  0.9785 -0.3400 -1.0225
 1182TIP3    H225182   0.382   6.733   1.696  0.0514  0.3255  2.1237
 1183TIP3   OH225183   2.075   0.583   0.561  0.0990  0.2759  0.9766
 1183TIP3    H125184   2.158   0.614   0.525  0.8894 -2.8834 -0.2308
 1183TIP3    H225185   2.097   0.557   0.651  0.9515 -2.1889  0.1222
 1184TIP3   OH225186   2.478   5.104   2.152 -0.1188 -0.1594  0.1179
 1184TIP3    H125187   2.453   5.026   2.202  1.6121 -0.5963  0.3884
 1184TIP3    H225188   2.560   5.132   2.192 -1.2259  2.4942  0.7432
 1185TIP3   OH225189   3.323   5.541   7.916 -0.7053 -0.4480 -0.1906
 1185TIP3    H125190   3.305   5.540   8.010 -2.5009 -2.1943 -0.4879
 1185TIP3    H225191   3.238   5.555   7.875 -0.0854 -0.5491 -1.5874
 1186TIP3   OH225192   1.746   5.063   1.917  0.5512 -0.0359  0.4321
 1186TIP3    H125193   1.684   5.043   1.987 -0.3690 -1.1624 -0.6703
 1186TIP3    H225194   1.738   4.990   1.856  0.2879  1.5555 -1.5538
 1187TIP3   OH225195   6.344   0.648   1.748 -0.0408  0.0877  0.7560
 1187TIP3    H125196   6.280   0.595   1.795  0.8980 -0.7228  1.1516
 1187TIP3    H225197   6.300   0.673   1.667 -2.2408  2.7106  2.5710
 1188TIP3   OH225198   0.518   5.358   7.695 -0.0485 -0.1650 -0.5121
 1188TIP3    H125199   0.529   5.269   7.728  0.5236 -0.5887 -1.8096
 1188TIP3    H225200   0.424   5.371   7.690 -0.1381 -0.9329 -0.9138
 1189TIP3   OH225201   1.110   1.084   8.078 -0.1663  0.2370  0.2041
 1189TIP3    H125202   1.019   1.076   8.106  0.1275  0.8809  1.4048
 1189TIP3    H225203   1.161   1.080   8.159  0.8676  0.1163 -0.4282
 1190TIP3   OH225204   6.937   0.070   8.471 -0.3717  0.2507  0.1873
 1190TIP3    H125205   7.015   0.118   8.497  0.2615 -0.3346 -0.5822
 1190TIP3    H225206   6.920   0.100   8.381 -2.1678  1.8103  0.9770
 1191TIP3   OH225207   0.987   4.137   0.985 -0.0097 -0.0156 -0.1277
 1191TIP3    H125208   0.900   4.146   0.945 -0.2276  0.0845  0.3622
 1191TIP3    H225209   0.993   4.209   1.048 -0.7410 -1.6482  1.9406
 1192TIP3   OH225210   0.102   5.852   0.093 -0.3041  0.6929  0.0644
 1192TIP3    H125211   0.184   5.846   0.142 -0.2524 -0.8552 -0.1750
 1192TIP3    H225212   0.128   5.852   0.002 -0.5127  1.6539 -0.0104
 1193TIP3   OH225213   2.434   0.299   8.471  0.0895  0.3184 -0.2121
 1193TIP3    H125214   2.519   0.296   8.426  0.6434  0.2508  0.8031
 1193TIP3    H225215   2.432   0.386   8.510 -0.2202  0.2466 -0.0711
 1194TIP3   OH225216   1.030   4.621   2.191 -0.3274 -0.5442  0.5006
 1194TIP3    H125217   1.095   4.563   2.152  0.7799  0.1669  1.1943
 1194TIP3    H225218   0.946   4.578   2.177  0.1000 -0.7216 -1.8743
 1195TIP3   OH225219   2.228   1.391   1.064 -0.1783  0.0981  0.7275
 1195TIP3    H125220   2.165   1.346   1.008  1.5289 -0.3054 -0.9273
 1195TIP3    H225221   2.222   1.483   1.037  1.0217 -0.1758 -0.5303
 1196TIP3   OH225222   1.011   6.607   8.392  0.3580 -0.3250  0.0427
 1196TIP3    H125223   0.924   6.621   8.428  0.2585  0.2968 -0.4324
 1196TIP3    H225224   0.998   6.546   8.319  0.6336 -2.0436  1.3619
 1197TIP3   OH225225   0.281   1.552   6.436 -0.0223 -0.3637  0.0431
 1197TIP3    H125226   0.331   1.632   6.450  0.1384 -0.0517 -2.0244
 1197TIP3    H225227   0.346   1.482   6.440  0.0999 -0.2392  0.2415
 1198TIP3   OH225228   1.605   1.579   1.888  0.0075 -0.4010  0.0198
 1198TIP3    H125229   1.572   1.492   1.865 -0.3635 -0.5161  0.9599
 1198TIP3    H225230   1.623   1.574   1.981  0.6603  0.3259 -0.0588
 1199TIP3   OH225231   5.703   2.248   0.789  0.1458  0.4387 -0.0130
 1199TIP3    H125232   5.726   2.341   0.802 -0.8373  0.5066  1.4928
 1199TIP3    H225233   5.608   2.245   0.799 -0.0059 -0.5476 -1.4641
 1200TIP3   OH225234   3.852   6.425   8.330 -0.3094 -0.0769 -0.0708
 1200TIP3    H125235   3.899   6.446   8.411 -1.6620  1.2318  0.4210
 1200TIP3    H225236   3.875   6.495   8.270  0.3647 -0.8256 -0.7148
 1201TIP3   OH225237   0.381   4.134   8.401  0.7444 -0.3171  0.9369
 1201TIP3    H125238   0.383   4.139   8.305 -1.6476 -2.3504  0.6849
 1201TIP3    H225239   0.340   4.217   8.428  0.0763 -0.3439  0.0692
 1202TIP3   OH225240   1.534   1.189   7.683  0.4655 -0.6056 -0.7739
 1202TIP3    H125241   1.511   1.282   7.682  0.1617 -0.6160  1.1712
 1202TIP3    H225242   1.613   1.184   7.630  0.4110  0.7432 -1.0289
 1203TIP3   OH225243   6.599   6.479   2.457 -0.5772  0.4228  0.7082
 1203TIP3    H125244   6.518   6.527   2.440 -2.0446 -2.5096 -1.2304
 1203TIP3    H225245   6.575   6.412   2.521  0.7662  0.5358  1.3740
 1204TIP3   OH225246   1.193   4.772   0.015 -0.2156 -0.0869 -0.5856
 1204TIP3    H125247   1.278   4.817   0.011  1.2517 -2.3923  1.9476
 1204TIP3    H225248   1.199   4.705  -0.053  0.4238 -0.8515  0.2025
 1205TIP3   OH225249   5.416   6.455   0.505  0.5006 -0.3525  0.1933
 1205TIP3    H125250   5.445   6.526   0.448  1.5848 -0.2073  0.8962
 1205TIP3    H225251   5.381   6.389   0.446  3.7835 -1.2835 -0.9268
 1206TIP3   OH225252   0.469   0.675   7.835 -0.1292  0.4619 -0.5255
 1206TIP3    H125253   0.409   0.689   7.762  1.9810  0.4260 -2.3710
 1206TIP3    H225254   0.413   0.666   7.912 -2.4187  0.8205 -2.0862
 1207TIP3   OH225255   2.665   1.941   7.958  0.1781 -0.5006 -0.1554
 1207TIP3    H125256   2.583   1.990   7.951  0.4862 -0.1959 -2.1781
 1207TIP3    H225257   2.731   2.008   7.979 -0.0987 -0.8022  1.8789
 1208TIP3   OH225258   3.551   6.162   0.877 -0.1339  0.3028  0.1647
 1208TIP3    H125259   3.588   6.220   0.944  1.9708 -1.1007  0.2970
 1208TIP3    H225260   3.585   6.075   0.899 -0.0636 -0.3462 -2.2426
 1209TIP3   OH225261   4.694   3.288   1.975 -0.5615 -0.3663  0.0777
 1209TIP3    H125262   4.636   3.255   1.907 -1.7758 -0.2849  1.0449
 1209TIP3    H225263   4.635   3.324   2.041  0.6334  2.6042 -0.3288
 1210TIP3   OH225264   0.444   3.069   0.817 -0.1876 -0.0381  0.2399
 1210TIP3    H125265   0.388   3.123   0.873 -0.5404 -0.4300  0.2737
 1210TIP3    H225266   0.417   3.090   0.728  2.0009  2.3863  0.0385
 1211TIP3   OH225267   4.323   4.066   1.423  0.3944  0.1280  0.0927
 1211TIP3    H125268   4.308   4.063   1.517 -0.1963 -1.4988 -0.0101
 1211TIP3    H225269   4.373   3.986   1.405 -1.0320 -0.5443 -1.1801
 1212TIP3   OH225270   4.031   6.907   6.039 -0.3813 -0.0759 -0.1393
 1212TIP3    H125271   4.087   6.958   6.097 -0.2695 -0.7948  0.3975
 1212TIP3    H225272   4.086   6.836   6.008 -1.2528 -1.4167  1.2378
 1213TIP3   OH225273   4.990   5.429   8.566  0.0479  0.5204 -0.0002
 1213TIP3    H125274   5.001   5.415   8.472 -0.4656  1.1274 -0.1616
 1213TIP3    H225275   5.075   5.461   8.596  0.1199  0.6346 -0.3237
 1214TIP3   OH225276   4.452   5.507   7.748  0.2563 -0.2848 -0.4126
 1214TIP3    H125277   4.500   5.511   7.665 -1.2137  1.2051 -1.2303
 1214TIP3    H225278   4.407   5.422   7.745  0.6418 -0.4838 -0.8630
 1215TIP3   OH225279   2.606   1.121   8.040 -0.2057  0.4406 -0.1139
 1215TIP3    H125280   2.527   1.135   8.092  0.3490 -0.7552  1.1271
 1215TIP3    H225281   2.660   1.198   8.056 -1.4222  1.6558 -1.6240
 1216TIP3   OH225282   3.697   6.206   1.277 -0.2985 -0.4035 -0.1315
 1216TIP3    H125283   3.665   6.285   1.233 -2.2095 -0.1094  1.6120
 1216TIP3    H225284   3.792   6.215   1.278 -0.4001  1.1311 -1.2912
 1217TIP3   OH225285   1.217   1.875   7.013  0.3583  0.0670 -0.0557
 1217TIP3    H125286   1.233   1.940   7.082  1.0346  0.8472 -0.9249
 1217TIP3    H225287   1.305   1.854   6.980  0.0904 -0.8163 -0.2216
 1218TIP3   OH225288   6.625   2.530   8.120 -0.5252 -0.0664 -0.3999
 1218TIP3    H125289   6.646   2.581   8.042 -0.3559  1.1695  0.4141
 1218TIP3    H225290   6.595   2.445   8.087  1.7612 -0.4412 -1.7533
 1219TIP3   OH225291   1.915   1.386   1.432  0.2117 -0.3814  0.2868
 1219TIP3    H125292   1.915   1.463   1.489 -1.0925 -0.5228  0.5127
 1219TIP3    H225293   1.877   1.317   1.486 -2.1662 -0.2389 -1.0707
 1220TIP3   OH225294   2.742   0.301   0.746  0.1322  0.7257 -0.4200
 1220TIP3    H125295   2.820   0.356   0.748  0.9389 -0.3809 -0.3277
 1220TIP3    H225296   2.676   0.351   0.794  0.9568  1.4333  0.0090
 1221TIP3   OH225297   5.564   6.740   2.262 -0.1038  0.1389  0.2179
 1221TIP3    H125298   5.643   6.779   2.300  1.1945 -0.2883 -1.8668
 1221TIP3    H225299   5.551   6.660   2.312  1.2653 -0.1747  0.1268
 1222TIP3   OH225300   4.668   1.668   6.699 -0.1385 -0.4246  0.1692
 1222TIP3    H125301   4.607   1.736   6.729  0.2017 -0.7048  1.5827
 1222TIP3    H225302   4.618   1.587   6.706  0.4072 -0.6657  1.4186
 1223TIP3   OH225303   2.985   4.195   8.508  0.4011 -0.1061 -0.3838
 1223TIP3    H125304   2.994   4.101   8.496  0.5004 -0.0708 -0.5925
 1223TIP3    H225305   2.924   4.205   8.582  0.3745 -0.3319 -0.3766
 1224TIP3   OH225306   1.735   5.750   0.563 -0.1009 -0.2928  0.1009
 1224TIP3    H125307   1.686   5.826   0.592  1.4333  0.7383  0.1458
 1224TIP3    H225308   1.803   5.786   0.505  2.9886 -1.0401  2.8996
 1225TIP3   OH225309   6.790   3.936   0.531 -0.7538  0.6283 -0.2007
 1225TIP3    H125310   6.739   3.938   0.612 -0.1298 -0.4774  0.2526
 1225TIP3    H225311   6.747   3.999   0.474 -2.5086 -0.1145  0.2297
 1226TIP3   OH225312   2.436   0.407   1.822 -0.4987  0.0265 -0.1613
 1226TIP3    H125313   2.375   0.456   1.877 -0.8659 -2.8250  2.2425
 1226TIP3    H225314   2.522   0.447   1.838 -0.9061  0.4496  1.0115
 1227TIP3   OH225315   1.487   3.752   6.429  0.1989 -0.2602 -0.4967
 1227TIP3    H125316   1.501   3.735   6.523  0.1023 -0.2198 -0.4754
 1227TIP3    H225317   1.561   3.808   6.404 -0.4820  0.8147 -0.1487
 1228TIP3   OH225318   0.640   5.545   8.239 -0.6451  0.1996 -0.3146
 1228TIP3    H125319   0.679   5.466   8.203  1.5648  0.1591  1.9277
 1228TIP3    H225320   0.669   5.615   8.181 -1.1826 -0.3684 -1.3114
 1229TIP3   OH225321   6.304   0.016   0.705 -0.7831  0.1007  0.3160
 1229TIP3    H125322   6.287   0.107   0.680  1.4812  0.5190  0.0487
 1229TIP3    H225323   6.355   0.023   0.786  1.3182 -0.7857 -0.8635
 1230TIP3   OH225324   0.308   0.345   1.500 -0.2334 -0.0011 -0.1533
 1230TIP3    H125325   0.281   0.358   1.591  0.2089  0.2272 -0.0501
 1230TIP3    H225326   0.232   0.369   1.448 -1.0354 -1.6141  0.2023
 1231TIP3   OH225327   2.616   2.092   0.466 -0.0998 -0.5844  0.5954
 1231TIP3    H125328   2.568   2.009   0.459  0.9187 -1.1592  0.1865
 1231TIP3    H225329   2.568   2.152   0.408 -0.1302 -1.2427 -0.0835
 1232TIP3   OH225330   6.507   4.201   6.192 -0.1685  0.1585 -0.1365
 1232TIP3    H125331   6.426   4.153   6.211 -0.1500  0.1375 -0.1095
 1232TIP3    H225332   6.495   4.286   6.233  0.7523 -0.6355  1.9059
 1233TIP3   OH225333   6.523   3.008   2.023  0.4657  0.3600  0.6982
 1233TIP3    H125334   6.483   3.062   2.091  0.2271  0.8730  0.1636
 1233TIP3    H225335   6.579   2.947   2.070 -1.2246 -0.6422  1.5169
 1234TIP3   OH225336   2.209   6.270   6.808  0.0062  0.5155 -0.7205
 1234TIP3    H125337   2.155   6.192   6.791  0.8280 -0.1276 -0.4223
 1234TIP3    H225338   2.290   6.236   6.845  0.2640  1.5424 -0.3097
 1235TIP3   OH225339   4.649   6.387   7.679  0.3486  0.2552  0.0944
 1235TIP3    H125340   4.558   6.360   7.688  0.2936 -0.8247 -2.5806
 1235TIP3    H225341   4.646   6.483   7.680 -0.4408  0.2600  2.3684
 1236TIP3   OH225342   2.803   2.466   7.496  0.3323  0.6464 -0.6155
 1236TIP3    H125343   2.778   2.492   7.407 -2.9466 -1.1924 -0.3957
 1236TIP3    H225344   2.772   2.537   7.551  0.7091  0.9531 -0.7964
 1237TIP3   OH225345   2.501   4.992   0.986 -0.2024 -0.1829 -0.3212
 1237TIP3    H125346   2.498   5.063   1.050  1.7647 -0.5776  0.2676
 1237TIP3    H225347   2.533   5.033   0.905  1.2268 -0.4106  0.1014
 1238TIP3   OH225348   4.331   0.393   6.910 -0.2352  0.1182  0.4500
 1238TIP3    H125349   4.313   0.400   7.003  0.9465 -0.6016  0.7447
 1238TIP3    H225350   4.300   0.306   6.886 -2.9345  1.1941 -0.4365
 1239TIP3   OH225351   5.044   3.510   0.234 -0.3037  0.0583  0.5568
 1239TIP3    H125352   4.999   3.564   0.298  0.7912  0.6835  0.8201
 1239TIP3    H225353   5.003   3.423   0.243 -0.5200  0.2645  1.7353
 1240TIP3   OH225354   4.551   3.913   1.386 -0.0743  0.3632  0.0511
 1240TIP3    H125355   4.640   3.931   1.418  0.4688 -1.4358 -0.3232
 1240TIP3    H225356   4.563   3.844   1.321 -1.8309 -0.3648  0.4496
 1241TIP3   OH225357   4.408   4.604   1.547  0.1057 -0.1924  0.0794
 1241TIP3    H125358   4.427   4.639   1.461  2.6789 -1.6983 -0.0674
 1241TIP3    H225359   4.413   4.509   1.536  0.2084 -0.4262  1.8262
 1242TIP3   OH225360   1.739   4.139   7.755  0.3611 -0.9547 -0.3391
 1242TIP3    H125361   1.815   4.169   7.805  1.5543 -1.3463 -1.8396
 1242TIP3    H225362   1.666   4.147   7.816  1.5601 -0.3768  1.0956
 1243TIP3   OH225363   6.434   2.335   7.465  0.3235  0.1020 -0.2027
 1243TIP3    H125364   6.437   2.383   7.382  0.4071 -1.9959 -1.4723
 1243TIP3    H225365   6.388   2.254   7.445  2.4210 -1.5508  1.2119
 1244TIP3   OH225366   2.208   1.542   8.282  0.1975 -0.2170 -0.4676
 1244TIP3    H125367   2.205   1.516   8.374  2.0732 -0.2932 -0.3969
 1244TIP3    H225368   2.157   1.475   8.236  0.3730 -0.9295  0.3632
 1245TIP3   OH225369   3.474   3.720   7.588 -0.2074 -0.7043 -0.2259
 1245TIP3    H125370   3.473   3.644   7.646  1.0308 -0.2904  0.3710
 1245TIP3    H225371   3.441   3.792   7.642  0.8782 -0.3331 -0.0399
 1246TIP3   OH225372   2.897   0.240   1.744 -0.2550  0.0899 -0.2496
 1246TIP3    H125373   2.902   0.293   1.664 -0.5901  1.0915  0.3771
 1246TIP3    H225374   2.961   0.279   1.803 -1.7145  0.9083  0.8465
 1247TIP3   OH225375   0.901   0.701   0.752 -0.0876  0.4742  0.4605
 1247TIP3    H125376   0.918   0.625   0.697  1.2633  1.3240 -0.3484
 1247TIP3    H225377   0.975   0.760   0.736 -1.3265  2.1787  0.6860
 1248TIP3   OH225378   4.635   2.316   7.485 -0.1681 -0.3278 -0.0773
 1248TIP3    H125379   4.571   2.363   7.538  0.0087 -0.1664 -0.0099
 1248TIP3    H225380   4.588   2.237   7.456 -0.5723  0.0472 -0.4630
 1249TIP3   OH225381   5.259   6.371   7.994  0.2232 -0.5815 -0.2793
 1249TIP3    H125382   5.282   6.402   7.907  0.0870 -0.9336 -0.4469
 1249TIP3    H225383   5.221   6.284   7.978 -2.4424  0.4775 -0.1693
 1250TIP3   OH225384   0.499   4.144   1.952  0.4024 -0.0073 -0.1266
 1250TIP3    H125385   0.552   4.216   1.988  1.7772 -0.8147 -0.4824
 1250TIP3    H225386   0.559   4.095   1.896 -0.9879 -0.3888 -1.3504
 1251TIP3   OH225387   6.555   2.022   7.993  0.6113 -0.0636 -0.0309
 1251TIP3    H125388   6.485   2.051   7.935  2.0412 -0.6522 -2.2075
 1251TIP3    H225389   6.618   2.094   7.992  0.9518 -0.3510  0.2694
 1252TIP3   OH225390   3.676   6.191   6.127 -0.6028 -0.0907  0.3328
 1252TIP3    H125391   3.649   6.281   6.108  2.2160  0.9797  1.0124
 1252TIP3    H225392   3.617   6.163   6.196 -3.5001  0.0588 -1.8762
 1253TIP3   OH225393   2.306   5.083   0.465  0.3164  0.0085  0.6134
 1253TIP3    H125394   2.221   5.118   0.441  0.2113 -0.1393  0.7625
 1253TIP3    H225395   2.287   4.997   0.503  0.6558 -0.7059 -0.7670
 1254TIP3   OH225396   0.172   4.598   7.804  0.6126  0.0305  0.1559
 1254TIP3    H125397   0.107   4.589   7.735  1.3162  0.2903 -0.5567
 1254TIP3    H225398   0.129   4.649   7.872 -1.0857 -2.6119  1.2162
 1255TIP3   OH225399   4.412   0.845   7.456 -0.3416  0.2573 -0.1528
 1255TIP3    H125400   4.440   0.789   7.528  0.4297  2.6370  1.4943
 1255TIP3    H225401   4.318   0.828   7.448 -0.0614 -1.5814 -0.0621
 1256TIP3   OH225402   6.907   4.071   7.804 -0.2707  0.0513  0.3267
 1256TIP3    H125403   6.817   4.037   7.806 -0.1067 -0.4290 -0.2264
 1256TIP3    H225404   6.900   4.155   7.760 -0.6238  0.5934  1.3702
 1257TIP3   OH225405   6.265   2.661   6.508 -0.1723  0.5435 -0.1384
 1257TIP3    H125406   6.249   2.696   6.596  2.2424 -1.6826  1.3500
 1257TIP3    H225407   6.304   2.734   6.460  0.5598  1.2231  1.4094
 1258TIP3   OH225408   0.718   0.282   0.478  0.3163  0.2188  0.0955
 1258TIP3    H125409   0.807   0.257   0.450  0.9281  2.5457 -0.2279
 1258TIP3    H225410   0.718   0.269   0.572  1.1673  0.6616  0.1609
 1259TIP3   OH225411   5.965   2.431   0.875 -0.3500 -0.3316  0.7184
 1259TIP3    H125412   6.041   2.421   0.818 -0.4433  0.1095  0.5165
 1259TIP3    H225413   5.895   2.462   0.817 -0.4327  0.1648  1.0829
 1260TIP3   OH225414   2.608   1.189   7.101  0.3328  0.0555 -0.6665
 1260TIP3    H125415   2.552   1.128   7.149  2.4951 -1.5551 -0.0338
 1260TIP3    H225416   2.614   1.152   7.013  1.4594 -0.5604 -0.3478
 1261TIP3   OH225417   3.646   0.660   7.559 -0.0559  0.2874  0.0437
 1261TIP3    H125418   3.727   0.678   7.512  0.1194  0.4292  0.4001
 1261TIP3    H225419   3.652   0.568   7.583  0.3226  0.4750  0.6897
 1262TIP3   OH225420   4.535   3.031   6.380  0.1455  0.1188 -0.3505
 1262TIP3    H125421   4.628   3.018   6.362  0.1658  2.1462 -2.1180
 1262TIP3    H225422   4.497   2.944   6.374  1.8487 -0.6731 -0.1224
 1263TIP3   OH225423   3.323   4.981   6.917  0.1040  0.0672 -0.5095
 1263TIP3    H125424   3.268   5.059   6.910  0.3252  0.2165 -0.6373
 1263TIP3    H225425   3.365   4.990   7.002 -0.9719 -0.6590  0.1078
 1264TIP3   OH225426   4.200   0.842   6.649  0.1549  0.2500 -0.7858
 1264TIP3    H125427   4.278   0.795   6.679 -0.7758 -0.5938  0.4412
 1264TIP3    H225428   4.233   0.927   6.621  1.5658 -0.2231 -0.6673
 1265TIP3   OH225429   1.838   6.619   6.783 -0.1794  0.2220  0.2255
 1265TIP3    H125430   1.830   6.568   6.864 -0.0151  0.6382  0.5065
 1265TIP3    H225431   1.750   6.653   6.767 -0.0330  0.8455  0.7015
 1266TIP3   OH225432   3.831   1.851   8.493  0.1441 -0.2439 -0.0950
 1266TIP3    H125433   3.862   1.939   8.514  0.0129 -0.1845 -0.1484
 1266TIP3    H225434   3.903   1.794   8.519  0.6915 -0.0350 -1.0848
 1267TIP3   OH225435   6.921   5.134   0.570 -0.2972 -0.2751  0.5041
 1267TIP3    H125436   6.975   5.110   0.495  0.7306  1.4537  0.6342
 1267TIP3    H225437   6.887   5.051   0.603 -0.6712 -1.0915 -1.7637
 1268TIP3   OH225438   4.983   4.654   7.214  0.1488 -0.2054  0.2325
 1268TIP3    H125439   4.953   4.684   7.300  1.0724  2.3908 -0.2500
 1268TIP3    H225440   5.074   4.630   7.228  0.1969 -0.1339  0.0318
 1269TIP3   OH225441   5.222   2.835   6.298  0.1861 -0.3048  0.1512
 1269TIP3    H125442   5.166   2.773   6.251  1.0314 -2.2148  1.5476
 1269TIP3    H225443   5.174   2.854   6.378 -0.1310  1.0171 -0.3264
 1270TIP3   OH225444   6.553   2.919   0.158  0.3767  0.0746  0.1699
 1270TIP3    H125445   6.476   2.911   0.214 -0.1744  1.3298 -0.3685
 1270TIP3    H225446   6.612   2.977   0.206  0.9412 -0.7614  0.5109
 1271TIP3   OH225447   1.676   3.244   1.248  0.1264  0.0862  0.7771
 1271TIP3    H125448   1.648   3.153   1.243 -2.0056  0.6194  1.8680
 1271TIP3    H225449   1.755   3.242   1.301  0.5589 -1.1877  0.1253
 1272TIP3   OH225450   2.612   5.006   8.233  0.0120 -0.1180 -0.2955
 1272TIP3    H125451   2.581   4.916   8.249 -0.3946  0.0434 -0.1646
 1272TIP3    H225452   2.664   4.999   8.153 -0.7666 -0.3086 -0.7952
 1273TIP3   OH225453   5.805   1.650   7.875  0.3868  0.3783  0.0854
 1273TIP3    H125454   5.725   1.700   7.890  0.5383  0.9274 -0.8628
 1273TIP3    H225455   5.852   1.700   7.808  1.4337 -0.0361  0.5005
 1274TIP3   OH225456   1.726   0.004   6.162  0.7442  0.1585 -0.0234
 1274TIP3    H125457   1.650  -0.016   6.217  0.9318  0.4595  0.3482
 1274TIP3    H225458   1.705  -0.036   6.077  1.6869 -2.9406  1.0626
 1275TIP3   OH225459   2.098   3.094   7.897 -0.1447 -0.5281 -0.4520
 1275TIP3    H125460   2.063   3.064   7.813 -1.5093  0.5096 -0.2932
 1275TIP3    H225461   2.183   3.050   7.905 -0.2594 -1.1135 -2.0828
 1276TIP3   OH225462   2.339   1.975   8.433 -0.2336 -0.3641  1.1438
 1276TIP3    H125463   2.331   1.902   8.372 -1.1006 -1.3314  2.3862
 1276TIP3    H225464   2.407   2.030   8.394 -0.2988 -1.2802 -0.3520
 1277TIP3   OH225465   3.297   1.842   7.785  0.7587 -0.0178  0.4178
 1277TIP3    H125466   3.307   1.872   7.875  2.4061  0.8706 -0.0311
 1277TIP3    H225467   3.384   1.849   7.747  0.2559 -1.1024 -1.0445
 1278TIP3   OH225468   0.267   5.405   6.960 -0.9301 -0.2978 -0.2386
 1278TIP3    H125469   0.261   5.399   6.865 -1.9311 -0.6083 -0.1691
 1278TIP3    H225470   0.361   5.403   6.979 -0.7188  0.0426 -1.2329
 1279TIP3   OH225471   1.624   5.696   1.100 -0.0796 -0.2724 -0.0125
 1279TIP3    H125472   1.566   5.622   1.115 -0.2109  0.0421  1.1402
 1279TIP3    H225473   1.580   5.770   1.142  0.9251  0.0615  0.4949
 1280TIP3   OH225474   6.351   3.326   7.004 -0.1815  0.1839 -0.9065
 1280TIP3    H125475   6.304   3.365   6.930 -0.8448 -0.7061 -0.9778
 1280TIP3    H225476   6.283   3.313   7.071  0.2930  0.4131 -0.3704
 1281TIP3   OH225477   1.976   1.011   1.269 -0.0723  0.4575  0.0874
 1281TIP3    H125478   2.036   0.948   1.230 -0.2828  1.3068 -1.7403
 1281TIP3    H225479   2.033   1.070   1.319  0.4987  0.5604 -0.6588
 1282TIP3   OH225480   3.258   0.660   1.326  0.2361  0.7300 -0.2612
 1282TIP3    H125481   3.219   0.747   1.326 -2.5228 -0.3915 -0.1687
 1282TIP3    H225482   3.300   0.652   1.240  1.0936  2.3260 -0.0232
 1283TIP3   OH225483   4.408   5.785   1.110 -0.0500 -0.3239 -0.0224
 1283TIP3    H125484   4.461   5.853   1.152 -0.6119  0.2925 -0.2926
 1283TIP3    H225485   4.393   5.720   1.179 -0.0543  0.1497  0.4263
 1284TIP3   OH225486   2.634   0.833   0.202 -0.2020 -0.3842  0.1598
 1284TIP3    H125487   2.653   0.868   0.115 -0.1309  0.7744  0.6281
 1284TIP3    H225488   2.548   0.869   0.224  0.0816 -0.1280  0.8494
 1285TIP3   OH225489   0.581   2.507   8.158 -0.4326 -0.2583 -0.5513
 1285TIP3    H125490   0.627   2.450   8.220  0.5345  0.2915 -0.7247
 1285TIP3    H225491   0.540   2.574   8.213  0.6719  0.4006 -0.4885
 1286TIP3   OH225492   2.478   2.764   2.012  0.1333 -0.0975  0.1271
 1286TIP3    H125493   2.539   2.836   1.999 -2.0042  1.5115 -1.7398
 1286TIP3    H225494   2.464   2.760   2.106  0.8058  1.4969  0.3116
 1287TIP3   OH225495   4.566   3.601   1.347 -0.1769  0.2869 -0.3790
 1287TIP3    H125496   4.558   3.552   1.266  1.4164 -0.0628 -0.3517
 1287TIP3    H225497   4.475   3.617   1.374 -0.7291 -0.9516 -1.3834
 1288TIP3   OH225498   1.590   4.110   0.393 -0.0203 -0.5781  0.0706
 1288TIP3    H125499   1.674   4.072   0.366  0.2100 -0.2305  0.2954
 1288TIP3    H225500   1.605   4.205   0.391  0.2196 -0.5324  2.1159
 1289TIP3   OH225501   3.210   3.104   0.216  0.0852 -0.0181  0.6692
 1289TIP3    H125502   3.169   3.173   0.268 -4.0828 -1.7607  0.0453
 1289TIP3    H225503   3.170   3.023   0.247  2.7521 -1.9566 -0.5074
 1290TIP3   OH225504   6.327   0.119   0.402  0.7380 -0.1222 -0.2306
 1290TIP3    H125505   6.271   0.134   0.478  0.7032  0.4847 -0.3720
 1290TIP3    H225506   6.329   0.203   0.357 -0.6782 -0.9069 -1.8744
 1291TIP3   OH225507   4.262   0.394   1.626  0.3628 -0.7372  0.3697
 1291TIP3    H125508   4.180   0.442   1.637 -0.4278 -1.2552 -2.5264
 1291TIP3    H225509   4.308   0.407   1.709 -2.2135  0.3382  1.7586
 1292TIP3   OH225510   2.879   6.111   2.331 -0.0147  0.1252  0.1784
 1292TIP3    H125511   2.859   6.028   2.289  3.1518  0.1516 -1.7447
 1292TIP3    H225512   2.949   6.091   2.393  0.2183  1.1951  0.2922
 1293TIP3   OH225513   0.605   4.900   7.402  0.1917 -0.6610  0.1512
 1293TIP3    H125514   0.616   4.889   7.497 -0.1941 -1.0212  0.1550
 1293TIP3    H225515   0.648   4.984   7.383 -1.9852  0.7582  1.0565
 1294TIP3   OH225516   5.283   1.604   8.141  0.3613 -0.7244  1.4642
 1294TIP3    H125517   5.251   1.537   8.202 -1.4171 -0.8019  0.5182
 1294TIP3    H225518   5.204   1.634   8.096  1.4793  0.1827  0.0521
 1295TIP3   OH225519   4.352   2.236   1.917 -0.3204 -0.1387 -0.0044
 1295TIP3    H125520   4.401   2.253   1.997 -0.8861 -3.2442  1.1548
 1295TIP3    H225521   4.261   2.228   1.946 -0.3878 -2.5210 -0.6491
 1296TIP3   OH225522   3.600   3.328   7.230  0.0283 -0.3287 -0.0126
 1296TIP3    H125523   3.623   3.417   7.201 -0.1735  0.4004  1.9030
 1296TIP3    H225524   3.623   3.272   7.156 -0.5345  1.3926 -1.5753
 1297TIP3   OH225525   4.741   4.254   8.434 -0.4343 -0.2484 -0.4424
 1297TIP3    H125526   4.818   4.262   8.377  0.5566  3.5452  1.1495
 1297TIP3    H225527   4.668   4.280   8.378 -0.2468 -1.4242 -1.2743
 1298TIP3   OH225528   6.336   4.159   7.298  0.4720  0.1707 -0.0525
 1298TIP3    H125529   6.268   4.094   7.314 -0.5371  1.5901  1.9196
 1298TIP3    H225530   6.399   4.115   7.242 -0.2141 -2.4559  1.0841
 1299TIP3   OH225531   0.715   2.881   0.839  0.0240 -0.2887  0.3135
 1299TIP3    H125532   0.661   2.949   0.880  0.1778 -0.1127  0.2235
 1299TIP3    H225533   0.802   2.919   0.833  0.1603 -0.5729  0.4542
 1300TIP3   OH225534   5.025   2.512   7.701  0.1303 -0.7120  0.0411
 1300TIP3    H125535   5.089   2.441   7.711  0.8134 -0.1309 -0.1519
 1300TIP3    H225536   5.078   2.591   7.693 -0.5861 -0.3248 -1.0496
 1301TIP3   OH225537   1.118   2.345   8.572  0.8508  0.2442  0.0987
 1301TIP3    H125538   1.169   2.340   8.653  0.0556  0.1770  0.6132
 1301TIP3    H225539   1.182   2.330   8.502  1.5239  0.1403  0.7192
 1302TIP3   OH225540   5.276   5.307   7.907  0.0575 -0.0575 -0.1016
 1302TIP3    H125541   5.243   5.393   7.884 -0.5968 -0.2567  0.0678
 1302TIP3    H225542   5.368   5.309   7.882  0.1143  0.7756  0.1376
 1303TIP3   OH225543   1.601   0.540   7.398 -0.4486 -0.4905  0.2771
 1303TIP3    H125544   1.693   0.512   7.396 -0.0180  0.7687  1.1986
 1303TIP3    H225545   1.555   0.473   7.347  1.3071  0.1495 -2.3658
 1304TIP3   OH225546   3.333   5.413   8.585  0.4234 -0.1665 -0.5097
 1304TIP3    H125547   3.319   5.319   8.598  0.7220 -0.2076 -0.4574
 1304TIP3    H225548   3.250   5.446   8.552  0.6762 -0.6775 -1.7226
 1305TIP3   OH225549   2.211   4.808   1.587 -0.2499 -0.3027  0.4951
 1305TIP3    H125550   2.193   4.886   1.640 -0.0390 -1.1425  1.8396
 1305TIP3    H225551   2.184   4.735   1.641  2.0913 -1.3256  0.4126
 1306TIP3   OH225552   3.079   3.495   0.274 -0.3717  0.3876 -0.1121
 1306TIP3    H125553   3.107   3.523   0.361 -1.3704 -0.2221  0.4294
 1306TIP3    H225554   3.010   3.431   0.291 -0.3954  0.0609 -1.3549
 1307TIP3   OH225555   2.936   5.151   0.841  0.1316 -0.1254 -0.5702
 1307TIP3    H125556   2.920   5.170   0.934 -0.6301 -2.7990 -0.0673
 1307TIP3    H225557   2.933   5.056   0.835 -0.0980 -0.0353 -3.4030
 1308TIP3   OH225558   2.047   6.396   0.506 -0.2081  0.0231  0.1715
 1308TIP3    H125559   2.130   6.443   0.494 -0.5871  1.3850  2.2558
 1308TIP3    H225560   1.980   6.459   0.484 -0.7298 -0.8268 -0.7397
 1309TIP3   OH225561   4.715   5.752   0.151 -0.7942 -0.2077  0.3892
 1309TIP3    H125562   4.719   5.702   0.233 -4.1156  1.5505  1.8395
 1309TIP3    H225563   4.794   5.806   0.152 -0.9468  0.0954  2.7319
 1310TIP3   OH225564   1.070   3.275   7.604  0.2466  0.6119  0.3933
 1310TIP3    H125565   1.147   3.308   7.557  0.6422 -1.7045 -0.7367
 1310TIP3    H225566   1.103   3.251   7.691  1.0371 -1.0865 -0.3367
 1311TIP3   OH225567   0.100   3.164   2.463  0.6849 -0.3398  0.6710
 1311TIP3    H125568   0.054   3.224   2.522  3.1195  1.6433  0.7101
 1311TIP3    H225569   0.056   3.175   2.379 -0.8810 -0.9037  1.3750
 1312TIP3   OH225570   6.373   2.481   7.242 -0.0464  0.3307 -0.0846
 1312TIP3    H125571   6.430   2.486   7.165  1.0447  1.0054  0.7375
 1312TIP3    H225572   6.316   2.558   7.234 -0.2930  0.1081 -0.4876
 1313TIP3   OH225573   3.610   4.180   7.088  0.1471  0.2948 -0.8227
 1313TIP3    H125574   3.538   4.121   7.067  0.0924  0.3766 -0.8687
 1313TIP3    H225575   3.570   4.248   7.143  0.6365 -0.8330  0.9961
 1314TIP3   OH225576   3.712   0.975   1.145  0.1542 -0.1117  0.0248
 1314TIP3    H125577   3.806   0.957   1.156  0.2669  0.0359 -0.6339
 1314TIP3    H225578   3.709   1.066   1.114 -0.2300 -0.0032  0.3678
 1315TIP3   OH225579   2.282   2.705   7.901  0.1759 -0.6508  0.5298
 1315TIP3    H125580   2.308   2.614   7.889 -0.4249 -0.6712 -0.7251
 1315TIP3    H225581   2.365   2.752   7.915  0.4914 -1.3668  1.1436
 1316TIP3   OH225582   6.269   4.490   0.040  0.3417 -0.1005  0.2216
 1316TIP3    H125583   6.185   4.444   0.048 -0.3038  0.8012 -1.0373
 1316TIP3    H225584   6.248   4.580   0.066  0.9302  0.1297 -0.1063
 1317TIP3   OH225585   5.828   4.267   0.488 -0.1687  0.1948 -0.0445
 1317TIP3    H125586   5.818   4.239   0.397  1.1118 -0.5365  0.0242
 1317TIP3    H225587   5.851   4.187   0.536 -0.1042  0.7023  0.7950
 1318TIP3   OH225588   1.203   3.444   7.019 -0.2513  0.2081 -0.2024
 1318TIP3    H125589   1.161   3.475   6.938 -0.3440  0.2827 -0.1256
 1318TIP3    H225590   1.297   3.451   7.000 -0.2302  1.9397  0.3133
 1319TIP3   OH225591   5.127   6.001   7.306  0.5186 -0.2391 -0.4460
 1319TIP3    H125592   5.143   6.069   7.242  0.3128  1.1007  0.8640
 1319TIP3    H225593   5.083   6.046   7.378 -0.2775 -1.9038  0.1610
 1320TIP3   OH225594   6.262   1.502   1.620  0.4598 -0.0658  0.1992
 1320TIP3    H125595   6.197   1.536   1.560  0.8970 -0.2663 -0.3953
 1320TIP3    H225596   6.223   1.421   1.654  0.0852  0.2069  0.4163
 1321TIP3   OH225597   6.365   4.019   1.520  0.4675  0.0050 -0.2424
 1321TIP3    H125598   6.403   3.988   1.602  1.0919  1.3061 -0.0096
 1321TIP3    H225599   6.296   3.956   1.499  1.0619 -0.9651  0.6854
 1322TIP3   OH225600   6.045   5.195   2.502 -0.5013  0.1641  0.5790
 1322TIP3    H125601   5.961   5.169   2.540 -0.2182  0.2670  1.3056
 1322TIP3    H225602   6.069   5.123   2.444 -0.2136 -0.7456  1.7864
 1323TIP3   OH225603   2.614   0.285   0.494 -0.3995 -0.1236 -0.0701
 1323TIP3    H125604   2.525   0.300   0.526 -0.0866  1.4257  0.1841
 1323TIP3    H225605   2.661   0.248   0.569 -0.3056  1.1084  0.5012
 1324TIP3   OH225606   6.437   2.037   8.396  0.2584  0.4367 -0.4293
 1324TIP3    H125607   6.505   2.091   8.357 -0.0821 -0.1139 -1.8513
 1324TIP3    H225608   6.365   2.098   8.413  0.5085  0.7324 -0.4248
 1325TIP3   OH225609   6.056   4.754   7.535  0.0145  0.0469  0.3291
 1325TIP3    H125610   6.135   4.768   7.483  0.3600  1.6968  1.2486
 1325TIP3    H225611   5.988   4.736   7.471  0.7574  0.4310 -0.5859
 1326TIP3   OH225612   2.736   3.835   7.669  0.0258  0.6767  0.0509
 1326TIP3    H125613   2.668   3.775   7.700  1.5162 -0.8894  0.4484
 1326TIP3    H225614   2.787   3.856   7.747  1.6123 -0.3786 -0.6344
 1327TIP3   OH225615   6.247   0.678   8.628 -0.2108  0.5569 -0.3758
 1327TIP3    H125616   6.293   0.718   8.554  0.2502  1.2845  0.2976
 1327TIP3    H225617   6.176   0.738   8.648  0.1324  0.7561  0.2661
 1328TIP3   OH225618   2.832   6.739   7.524  0.7527  0.1692  0.4635
 1328TIP3    H125619   2.768   6.810   7.526 -0.9075 -1.2629  0.8258
 1328TIP3    H225620   2.822   6.700   7.437  0.9078 -0.2692  0.6411
 1329TIP3   OH225621   0.901   0.486   7.965  0.2951 -0.3649  0.1310
 1329TIP3    H125622   0.818   0.459   8.003 -0.6253 -0.0287 -1.5576
 1329TIP3    H225623   0.935   0.553   8.025 -1.4218  0.6430  0.0221
 1330TIP3   OH225624   6.124   6.826   8.589 -0.0605  0.1892  0.3047
 1330TIP3    H125625   6.198   6.772   8.563  2.2856  2.3792  2.0095
 1330TIP3    H225626   6.102   6.876   8.510  0.8680  0.1849  0.0416
 1331TIP3   OH225627   6.072   3.372   1.606  0.0567 -0.7393  0.0295
 1331TIP3    H125628   6.004   3.305   1.612  0.2234 -1.0679 -1.3533
 1331TIP3    H225629   6.093   3.377   1.512  0.1420  1.1414  0.0930
 1332TIP3   OH225630   1.912   5.132   1.092  0.5710  0.1707 -0.8814
 1332TIP3    H125631   1.842   5.182   1.049 -0.7404 -0.0789  0.8540
 1332TIP3    H225632   1.950   5.193   1.154  0.5469 -0.2799 -0.4195
 1333TIP3   OH225633   4.088   3.378   6.196  0.5230 -0.4554  0.0220
 1333TIP3    H125634   4.133   3.461   6.213  0.7868 -0.2093 -1.6654
 1333TIP3    H225635   4.156   3.312   6.206  0.2428 -0.5310  1.6785
 1334TIP3   OH225636   2.580   1.164   0.221  0.4626 -0.7634 -0.4679
 1334TIP3    H125637   2.641   1.118   0.279 -1.5288 -2.0001  0.7693
 1334TIP3    H225638   2.495   1.155   0.264 -0.3548  2.5210 -1.1601
 1335TIP3   OH225639   3.056   2.991   7.271  0.1145 -0.7919  0.2629
 1335TIP3    H125640   3.114   2.922   7.305  2.9056  0.9880 -0.5147
 1335TIP3    H225641   3.061   2.980   7.176 -0.9149 -0.6342  0.1866
 1336TIP3   OH225642   6.662   2.122   0.227 -0.1570 -0.0744  0.3564
 1336TIP3    H125643   6.613   2.075   0.160  1.1501 -0.2419 -0.5088
 1336TIP3    H225644   6.667   2.061   0.301  0.4831 -0.8441 -0.3108
 1337TIP3   OH225645   1.628   6.875   1.497  0.1285  0.0348 -0.1504
 1337TIP3    H125646   1.582   6.926   1.564  0.4550  0.3195 -0.1405
 1337TIP3    H225647   1.702   6.929   1.472 -0.6553  0.4715 -1.6225
 1338TIP3   OH225648   1.915   4.768   8.458  0.0116 -0.1770 -0.2608
 1338TIP3    H125649   1.990   4.825   8.472  0.0760 -0.0904 -0.9371
 1338TIP3    H225650   1.953   4.680   8.455  0.0121 -0.1859 -0.0286
 1339TIP3   OH225651   6.042   2.040   8.003  0.6609  0.2121  0.1317
 1339TIP3    H125652   6.097   2.080   8.070  0.5192 -0.2201  0.5016
 1339TIP3    H225653   6.024   1.952   8.034 -1.0029  0.6322  0.4631
 1340TIP3   OH225654   6.142   4.481   1.061  0.0149  0.3215 -0.4385
 1340TIP3    H125655   6.173   4.551   1.119 -0.5594  0.0385  0.2211
 1340TIP3    H225656   6.147   4.519   0.973 -0.2660  1.1898 -0.0905
 1341TIP3   OH225657   3.337   1.540   8.104 -0.1777  0.0776  0.2910
 1341TIP3    H125658   3.383   1.486   8.168 -0.0486  1.6518  1.5827
 1341TIP3    H225659   3.254   1.563   8.145 -0.4219  0.5093 -0.4103
 1342TIP3   OH225660   3.361   0.993   0.163  0.7315  0.5671 -0.1874
 1342TIP3    H125661   3.375   1.083   0.134 -0.7124  0.2702 -1.9778
 1342TIP3    H225662   3.380   0.939   0.086 -0.7058 -0.4580  0.1159
 1343TIP3   OH225663   3.680   2.776   8.480 -0.1736  0.3448 -0.4870
 1343TIP3    H125664   3.633   2.837   8.537  0.8274  1.5235 -0.8801
 1343TIP3    H225665   3.647   2.795   8.392 -0.5717 -0.3853 -0.5062
 1344TIP3   OH225666   0.075   0.735   1.594 -0.1939  0.4781 -0.1286
 1344TIP3    H125667   0.084   0.646   1.629  0.8408  0.3422 -0.6799
 1344TIP3    H225668   0.023   0.724   1.514 -0.8478  0.5010  0.2926
 1345TIP3   OH225669   5.657   3.158   7.448 -0.0572 -0.7750 -0.2222
 1345TIP3    H125670   5.700   3.084   7.405  0.9465  0.0604 -0.7029
 1345TIP3    H225671   5.606   3.200   7.379  1.6619  0.6480 -0.6981
 1346TIP3   OH225672   5.875   2.428   1.162 -0.0444 -0.4326  0.5862
 1346TIP3    H125673   5.809   2.497   1.155  1.2603  0.9018  0.7033
 1346TIP3    H225674   5.922   2.431   1.079  1.1853  0.0941  1.2742
 1347TIP3   OH225675   1.863   4.366   7.152  0.0778 -0.5789 -0.3642
 1347TIP3    H125676   1.941   4.310   7.160  0.0374 -0.6144 -0.2245
 1347TIP3    H225677   1.835   4.355   7.061  0.3658 -0.3970 -0.4786
 1348TIP3   OH225678   1.640   4.965   8.129  0.0795  0.1217 -0.0455
 1348TIP3    H125679   1.694   4.958   8.051 -0.7829 -0.3054 -0.6166
 1348TIP3    H225680   1.562   4.913   8.109 -1.1529  1.7848  0.2426
 1349TIP3   OH225681   3.001   5.689   8.109 -0.1083 -0.2949 -0.0431
 1349TIP3    H125682   2.975   5.605   8.148  1.1552 -0.8138 -0.2770
 1349TIP3    H225683   2.996   5.674   8.015 -2.0883  0.6227 -0.1378
 1350TIP3   OH225684   6.239   1.121   7.077 -0.2166  0.0536  0.2306
 1350TIP3    H125685   6.266   1.029   7.068  0.4442  0.4384 -3.1999
 1350TIP3    H225686   6.161   1.129   7.022  1.1654  2.0029 -1.6048
 1351TIP3   OH225687   6.650   6.513   0.547  0.3713  0.1228 -0.4261
 1351TIP3    H125688   6.578   6.451   0.559  0.3100  0.2157 -0.3139
 1351TIP3    H225689   6.646   6.570   0.624  1.5514 -0.8661  0.3883
 1352TIP3   OH225690   6.698   5.424   6.749 -0.4535  0.0424 -0.2756
 1352TIP3    H125691   6.618   5.455   6.707 -1.2071 -0.9400  0.3742
 1352TIP3    H225692   6.744   5.375   6.680 -1.5275 -1.2923 -0.1010
 1353TIP3   OH225693   0.665   0.654   0.586  0.6766  0.7911 -0.1145
 1353TIP3    H125694   0.753   0.617   0.573 -0.3179 -2.6610  1.7315
 1353TIP3    H225695   0.648   0.641   0.680 -1.9248  1.0453 -0.4902
 1354TIP3   OH225696   5.696   4.837   2.596  0.0160 -0.3429 -0.0106
 1354TIP3    H125697   5.678   4.871   2.509  2.8709  1.6043  0.0121
 1354TIP3    H225698   5.651   4.898   2.655  0.4894  0.0798 -0.0822
 1355TIP3   OH225699   3.572   1.519   1.302 -0.0182 -0.1462  0.4942
 1355TIP3    H125700   3.614   1.569   1.373 -1.2646  0.8295  0.5841
 1355TIP3    H225701   3.554   1.584   1.234  0.7747 -0.9994 -0.5584
 1356TIP3   OH225702   1.607   4.497   1.043 -0.7861 -0.0272  0.5244
 1356TIP3    H125703   1.646   4.577   1.008 -0.8369 -0.9206 -1.7301
 1356TIP3    H225704   1.537   4.527   1.101  1.1127  1.5596  2.1256
 1357TIP3   OH225705   6.357   4.534   7.195  0.2180  0.0882 -0.8471
 1357TIP3    H125706   6.431   4.595   7.187 -0.2636  0.9464  0.7431
 1357TIP3    H225707   6.366   4.497   7.283 -0.7865 -0.4163 -0.9432
 1358TIP3   OH225708   2.134   5.162   7.920 -1.0196  0.7858  0.5344
 1358TIP3    H125709   2.172   5.135   8.004  0.0387  2.5598  0.6700
 1358TIP3    H225710   2.158   5.091   7.860 -1.8504 -0.5415  1.6987
 1359TIP3   OH225711   2.696   5.430   1.177 -0.0630 -0.0137  0.5838
 1359TIP3    H125712   2.629   5.459   1.238  0.3085  0.3544  0.8217
 1359TIP3    H225713   2.682   5.483   1.098  1.0669  1.3749  1.2696
 1360TIP3   OH225714   0.762   6.551   2.089 -0.3713 -0.3898 -0.1482
 1360TIP3    H125715   0.834   6.614   2.091 -1.8356  1.6260 -2.9310
 1360TIP3    H225716   0.801   6.469   2.060  0.8426  0.6361 -1.5244
 1361TIP3   OH225717   3.101   0.944   1.074  0.0139  0.3960 -0.3828
 1361TIP3    H125718   3.077   0.888   1.000  1.4602 -2.6849  1.3012
 1361TIP3    H225719   3.194   0.964   1.060  0.4891 -0.7868  0.8703
 1362TIP3   OH225720   4.266   0.364   7.190  0.5775  0.2696  0.6753
 1362TIP3    H125721   4.229   0.373   7.278  1.6642  0.7989  1.0917
 1362TIP3    H225722   4.274   0.270   7.177  0.3015  0.1855  1.0832
 1363TIP3   OH225723   0.170   6.280   0.670  0.0276 -0.1361 -0.2105
 1363TIP3    H125724   0.220   6.198   0.661 -1.6674 -1.3791  1.1926
 1363TIP3    H225725   0.093   6.266   0.615 -0.0107  0.7770 -0.3960
 1364TIP3   OH225726   2.979   6.059   0.933  0.1885  0.0563  0.2038
 1364TIP3    H125727   2.998   6.131   0.874 -2.0834  1.0777  0.5963
 1364TIP3    H225728   3.033   6.075   1.009 -0.3514  1.4533  0.3293
 1365TIP3   OH225729   5.167   3.475   0.589 -0.3182  0.6189 -0.2384
 1365TIP3    H125730   5.081   3.472   0.548 -0.5122 -0.0732  0.1990
 1365TIP3    H225731   5.148   3.482   0.683  0.0652 -1.4113  0.0292
 1366TIP3   OH225732   2.175   3.819   1.221  0.0348  0.1556  0.8038
 1366TIP3    H125733   2.183   3.834   1.127 -0.0078 -2.8435  0.2224
 1366TIP3    H225734   2.081   3.822   1.239 -0.4085 -3.5323 -0.2128
 1367TIP3   OH225735   2.273   6.180   1.608 -0.4954 -0.1483  0.0664
 1367TIP3    H125736   2.275   6.187   1.512 -0.4848 -1.5552 -0.0482
 1367TIP3    H225737   2.185   6.210   1.632  0.0959  1.9974 -0.1874
 1368TIP3   OH225738   1.059   4.241   0.419  0.6023  0.2000  0.2803
 1368TIP3    H125739   1.145   4.221   0.457 -0.4823  0.9568  3.3595
 1368TIP3    H225740   1.055   4.337   0.419 -0.1151  0.1769 -0.1573
 1369TIP3   OH225741   5.357   0.003   1.359  0.2245 -0.1207 -0.2531
 1369TIP3    H125742   5.381   0.006   1.266  2.0303 -1.9373  0.0740
 1369TIP3    H225743   5.418   0.064   1.401  0.2836 -0.2871 -0.0997
 1370TIP3   OH225744   2.303   6.013   7.459 -0.1735 -0.4734 -0.2665
 1370TIP3    H125745   2.301   5.969   7.374  1.6782  1.3990 -1.3749
 1370TIP3    H225746   2.280   6.104   7.439  0.7834  0.1133  1.1472
 1371TIP3   OH225747   0.150   5.238   6.437 -0.8388  0.2577  0.2252
 1371TIP3    H125748   0.230   5.289   6.430 -0.7500  0.0839 -0.0694
 1371TIP3    H225749   0.123   5.222   6.347 -1.1233  0.1857  0.3188
 1372TIP3   OH225750   3.291   2.201   7.603 -0.2125 -0.0992  0.1572
 1372TIP3    H125751   3.254   2.148   7.532  1.5856 -0.8501 -0.2996
 1372TIP3    H225752   3.230   2.190   7.676 -1.8791  0.3396 -1.1137
 1373TIP3   OH225753   6.590   6.546   1.006 -0.2716  0.0273 -0.3001
 1373TIP3    H125754   6.625   6.462   1.036  0.8468  0.6691  0.2579
 1373TIP3    H225755   6.496   6.531   0.996 -0.3802 -0.7692  1.5838
 1374TIP3   OH225756   0.846   1.405   0.334  0.3993  0.4928 -0.2428
 1374TIP3    H125757   0.830   1.424   0.241  0.8912  0.3432 -0.3600
 1374TIP3    H225758   0.761   1.374   0.367  0.0514  1.1517 -0.4835
 1375TIP3   OH225759   3.349   0.121   0.016 -0.3535 -0.3144  0.7358
 1375TIP3    H125760   3.351   0.025   0.014 -0.0465 -0.5002  3.8075
 1375TIP3    H225761   3.317   0.147  -0.070 -0.7599 -3.1753 -0.0766
 1376TIP3   OH225762   6.715   0.859   0.468  0.2611 -0.2627  0.1599
 1376TIP3    H125763   6.801   0.818   0.461  0.2115 -0.3916  0.3071
 1376TIP3    H225764   6.716   0.927   0.400  0.4140 -0.3779  0.0452
 1377TIP3   OH225765   1.249   6.766   7.903 -0.4094 -0.1723 -0.0860
 1377TIP3    H125766   1.302   6.777   7.825  1.8723 -1.5387  1.1570
 1377TIP3    H225767   1.245   6.854   7.942  0.7619  0.0199 -0.3491
 1378TIP3   OH225768   0.983   1.240   7.089 -0.1667  1.0665  0.5336
 1378TIP3    H125769   1.005   1.256   7.181  0.8703 -1.6796  0.8590
 1378TIP3    H225770   0.938   1.155   7.090 -3.3734  2.5916 -1.1585
 1379TIP3   OH225771   2.332   2.867   7.559  0.1763  0.2497  0.5227
 1379TIP3    H125772   2.272   2.794   7.541 -1.5720  1.6247  0.4762
 1379TIP3    H225773   2.311   2.893   7.648  2.4862 -0.7805  1.4432
 1380TIP3   OH225774   0.871   0.574   1.018  0.4024 -0.4343  0.6710
 1380TIP3    H125775   0.919   0.635   0.962 -0.9533 -0.3200 -0.4053
 1380TIP3    H225776   0.909   0.488   0.998  0.4658 -0.2913  0.1721
 1381TIP3   OH225777   2.406   2.020   7.579 -0.0401  0.3245  0.2285
 1381TIP3    H125778   2.369   1.933   7.567 -1.5171  0.8285  0.8887
 1381TIP3    H225779   2.355   2.058   7.650  0.9396  1.5372  0.3133
 1382TIP3   OH225780   3.353   2.411   6.385 -0.1720  0.7630 -0.0661
 1382TIP3    H125781   3.417   2.469   6.425  1.2954 -0.0108 -1.1826
 1382TIP3    H225782   3.323   2.458   6.308  0.4349  0.4004 -0.5384
 1383TIP3   OH225783   4.907   4.090   0.363 -0.0184  0.1801 -0.4183
 1383TIP3    H125784   4.903   4.179   0.328  0.5831 -0.0547 -1.1187
 1383TIP3    H225785   4.818   4.056   0.352 -0.9897  1.5594  2.2970
 1384TIP3   OH225786   3.626   3.932   7.995  0.1713 -0.8036  0.2801
 1384TIP3    H125787   3.610   3.848   8.038  0.3477 -1.9238 -1.7276
 1384TIP3    H225788   3.718   3.951   8.013  0.0536 -0.8780  0.9855
 1385TIP3   OH225789   4.643   4.343   0.342 -0.1756 -0.0918 -0.3524
 1385TIP3    H125790   4.689   4.303   0.268  0.0384  0.1579 -0.3538
 1385TIP3    H225791   4.706   4.341   0.414  0.4138  1.6829 -0.7728
 1386TIP3   OH225792   6.523   5.544   7.251 -0.0201 -0.0724  0.1481
 1386TIP3    H125793   6.545   5.622   7.302 -2.8048  2.1645 -1.7138
 1386TIP3    H225794   6.435   5.521   7.281 -0.5788 -0.4116 -1.6465
 1387TIP3   OH225795   4.424   1.960   7.775  0.0694 -0.1211  0.1374
 1387TIP3    H125796   4.498   2.005   7.734 -0.0322 -0.2288 -0.1719
 1387TIP3    H225797   4.464   1.888   7.824  0.3172  0.8955  1.4686
 1388TIP3   OH225798   2.460   6.797   1.589 -0.3437  0.0736 -0.0634
 1388TIP3    H125799   2.521   6.856   1.546 -0.7715 -0.1016 -0.9237
 1388TIP3    H225800   2.495   6.788   1.678  1.6930 -1.1088 -0.9036
 1389TIP3   OH225801   1.533   0.939   0.668 -0.0286 -0.0995  0.2216
 1389TIP3    H125802   1.577   0.859   0.638  0.8316  0.0484  1.0365
 1389TIP3    H225803   1.528   0.994   0.590 -0.1033 -0.7183 -0.2164
 1390TIP3   OH225804   5.351   0.805   0.407 -0.2707  0.2329 -0.1172
 1390TIP3    H125805   5.391   0.743   0.346 -2.5948  0.4347 -2.0276
 1390TIP3    H225806   5.257   0.800   0.387 -0.7680  2.7517  1.1943
 1391TIP3   OH225807   0.236   6.259   1.152 -0.0461  0.0460  0.0555
 1391TIP3    H125808   0.212   6.254   1.059 -0.5760 -0.2211  0.2025
 1391TIP3    H225809   0.196   6.182   1.191 -0.9656  0.8591  0.7611
 1392TIP3   OH225810   0.890   1.689   7.614  0.4054 -0.4588 -0.6083
 1392TIP3    H125811   0.834   1.766   7.604  0.9882 -0.0508 -0.8138
 1392TIP3    H225812   0.923   1.695   7.704 -0.9827 -1.4689 -0.0094
 1393TIP3   OH225813   2.254   4.450   7.742  0.2935  0.4448  0.4009
 1393TIP3    H125814   2.284   4.436   7.653 -1.3027  1.4587 -0.3331
 1393TIP3    H225815   2.219   4.540   7.742  0.1353  0.4175  2.0013
 1394TIP3   OH225816   4.992   3.863   8.337  0.0403 -0.3558 -0.0379
 1394TIP3    H125817   4.935   3.914   8.279  1.1095  0.8083 -0.1171
 1394TIP3    H225818   5.017   3.787   8.284  1.9616  1.2819 -1.6513
 1395TIP3   OH225819   3.340   0.952   0.806 -0.1047  0.4469  0.3676
 1395TIP3    H125820   3.325   0.868   0.763 -0.6201  0.4961  0.4521
 1395TIP3    H225821   3.369   0.929   0.894  0.5896  0.3509  0.1224
 1396TIP3   OH225822   6.347   2.726   1.748  0.2150  0.2449  0.8607
 1396TIP3    H125823   6.439   2.719   1.721  0.6164  1.4096  1.8647
 1396TIP3    H225824   6.304   2.651   1.706  1.2302  0.7459 -1.1868
 1397TIP3   OH225825   4.806   0.799   7.239 -0.1767 -0.0683 -0.0149
 1397TIP3    H125826   4.893   0.836   7.225 -0.4532  0.4212 -0.4788
 1397TIP3    H225827   4.768   0.853   7.309 -0.7450  0.8504 -0.9877
 1398TIP3   OH225828   3.031   5.357   7.699 -0.0965  0.4580  0.1099
 1398TIP3    H125829   2.958   5.404   7.659 -1.9183 -1.8255  0.5437
 1398TIP3    H225830   3.066   5.303   7.628  0.2549  0.4891  0.2571
 1399TIP3   OH225831   6.091   6.658   2.607  0.5898  0.2155  0.1480
 1399TIP3    H125832   6.053   6.630   2.690  1.9365 -0.9416  0.4246
 1399TIP3    H225833   6.018   6.655   2.545 -0.1835 -0.0445  1.0424
 1400TIP3   OH225834   6.477   1.487   1.032 -0.1803  0.6803  0.1885
 1400TIP3    H125835   6.385   1.497   1.006  0.0415 -0.2415 -1.0794
 1400TIP3    H225836   6.519   1.450   0.954  1.8875  3.7809 -0.3259
 1401TIP3   OH225837   3.591   0.156   1.677 -0.1102  0.0879  0.4150
 1401TIP3    H125838   3.631   0.221   1.735 -3.6622  1.0812  2.0093
 1401TIP3    H225839   3.609   0.189   1.589  1.1066  1.2965  1.0655
 1402TIP3   OH225840   0.090   5.932   6.957 -0.3305 -0.0923  0.1740
 1402TIP3    H125841   0.017   5.982   6.920 -2.6151 -3.5454 -0.4429
 1402TIP3    H225842   0.148   5.914   6.882  0.1277  0.9386  0.2650
 1403TIP3   OH225843   1.029   2.454   1.678 -0.2249  0.8261  0.2780
 1403TIP3    H125844   1.071   2.538   1.692  1.4451 -0.1802  1.7804
 1403TIP3    H225845   1.088   2.390   1.718 -1.2530 -1.1124 -1.0775
 1404TIP3   OH225846   6.835   0.147   7.900  0.2431  0.4193  0.6593
 1404TIP3    H125847   6.805   0.091   7.829  0.2858 -0.3771  1.2570
 1404TIP3    H225848   6.770   0.217   7.904 -0.5648 -0.3161  0.7758
 1405TIP3   OH225849   2.707   6.149   1.659 -0.2069 -0.0498 -0.3697
 1405TIP3    H125850   2.679   6.204   1.586 -0.9942 -0.6885 -0.5528
 1405TIP3    H225851   2.663   6.065   1.646 -0.0432 -0.3106  0.6201
 1406TIP3   OH225852   1.069   0.273   8.028 -0.0881 -0.2930  0.3530
 1406TIP3    H125853   1.012   0.233   8.094  0.1095  0.2636  0.8759
 1406TIP3    H225854   1.018   0.346   7.994 -0.3114 -0.7658 -0.3488
 1407TIP3   OH225855   5.743   2.831   2.036 -0.8629  0.0569 -0.2188
 1407TIP3    H125856   5.798   2.854   1.961  0.4734 -0.0749  0.6844
 1407TIP3    H225857   5.767   2.742   2.058 -1.1535  0.1330  0.4490
 1408TIP3   OH225858   6.140   3.660   6.736  0.6927 -0.7142 -0.3162
 1408TIP3    H125859   6.215   3.710   6.767  0.0741  0.6714 -0.9592
 1408TIP3    H225860   6.168   3.568   6.740  2.1649 -0.2622  0.0880
 1409TIP3   OH225861   5.435   4.902   0.871 -0.2091  0.6442 -0.5946
 1409TIP3    H125862   5.505   4.932   0.814  0.3801  1.1041  0.3379
 1409TIP3    H225863   5.413   4.978   0.924  0.3522 -0.1463  0.8552
 1410TIP3   OH225864   4.602   5.103   3.061 -0.4795  0.2872 -0.4886
 1410TIP3    H125865   4.637   5.190   3.081  0.5059  0.1262 -1.4623
 1410TIP3    H225866   4.574   5.109   2.970  0.4043 -0.6640 -0.8355
 1411TIP3   OH225867   1.603   4.096   8.006  0.4635  0.0911 -0.0228
 1411TIP3    H125868   1.610   4.139   8.091 -0.9801 -0.8995  0.6421
 1411TIP3    H225869   1.615   4.003   8.024  0.8590 -0.0721 -1.0260
 1412TIP3   OH225870   6.715   4.192   6.575 -0.6717  0.1860 -0.2536
 1412TIP3    H125871   6.705   4.097   6.575  0.2926  0.0734 -0.4784
 1412TIP3    H225872   6.631   4.225   6.542 -0.9964 -0.5824 -0.2180
 1413TIP3   OH225873   4.148   0.224   1.007  0.6051 -0.1678 -0.1976
 1413TIP3    H125874   4.158   0.129   1.013 -1.3192 -0.4330 -0.4401
 1413TIP3    H225875   4.218   0.252   0.949  1.9086 -1.2689  0.7787
 1414TIP3   OH225876   6.872   3.324   0.326 -0.5678  0.0240 -0.0148
 1414TIP3    H125877   6.892   3.258   0.392  0.4842  0.0457 -0.2935
 1414TIP3    H225878   6.777   3.330   0.326 -0.7685 -2.2564 -0.7373
 1415TIP3   OH225879   1.787   1.994   6.915  0.2170 -0.0038 -0.3387
 1415TIP3    H125880   1.693   2.012   6.912  0.4347  1.1427 -0.6858
 1415TIP3    H225881   1.814   1.992   6.823  0.6857  0.5546 -0.2195
 1416TIP3   OH225882   3.064   0.767   0.607 -0.3812 -0.5187 -0.1063
 1416TIP3    H125883   3.036   0.690   0.557 -0.6717  0.3008 -1.2455
 1416TIP3    H225884   3.106   0.824   0.543 -1.4346  0.9099  0.4031
 1417TIP3   OH225885   6.802   0.126   8.219  0.4471 -0.5021 -0.0394
 1417TIP3    H125886   6.878   0.167   8.178 -0.1861  1.0644  0.3159
 1417TIP3    H225887   6.727   0.158   8.168 -0.2094  0.2110  1.3347
 1418TIP3   OH225888   6.160   4.567   0.814 -0.3296  0.3337  0.0459
 1418TIP3    H125889   6.214   4.526   0.747 -0.1513 -2.2522  1.6305
 1418TIP3    H225890   6.071   4.544   0.791 -0.1977 -1.5123  1.2013
 1419TIP3   OH225891   2.790   5.449   1.784  0.2475  0.1145 -0.2509
 1419TIP3    H125892   2.759   5.426   1.697 -1.5778  1.0420  0.0968
 1419TIP3    H225893   2.737   5.396   1.843 -0.8307  1.7778  0.3676
 1420TIP3   OH225894   0.711   2.362   8.359 -0.1978 -0.2425 -0.6969
 1420TIP3    H125895   0.691   2.305   8.284 -0.9930 -0.8813 -0.0149
 1420TIP3    H225896   0.743   2.303   8.426  2.6816  0.5714 -1.2170
 1421TIP3   OH225897   4.028   6.331   5.886  0.0260 -0.0072  0.1854
 1421TIP3    H125898   3.951   6.322   5.830 -0.3027  1.5914  0.3523
 1421TIP3    H225899   4.072   6.410   5.854  1.9005 -1.1422 -0.2417
 1422TIP3   OH225900   4.443   3.292   0.653  0.0561  0.1068  0.0415
 1422TIP3    H125901   4.376   3.330   0.596 -0.4064 -0.5407  0.1488
 1422TIP3    H225902   4.478   3.218   0.604  1.1514  0.8109 -0.2819
 1423TIP3   OH225903   1.167   1.879   7.863  0.2341 -0.3148 -0.5439
 1423TIP3    H125904   1.117   1.797   7.860  0.0664 -0.4591  2.7447
 1423TIP3    H225905   1.252   1.856   7.827 -0.4350 -1.3971 -1.5020
 1424TIP3   OH225906   1.968   2.636   1.746 -0.1018  0.3248 -0.4090
 1424TIP3    H125907   1.899   2.631   1.680 -0.7016  1.4384  0.1077
 1424TIP3    H225908   1.929   2.598   1.824 -0.1286  0.9041 -0.1312
 1425TIP3   OH225909   3.188   5.140   0.728  0.6003  0.1711 -0.0857
 1425TIP3    H125910   3.094   5.144   0.745  0.7957  2.6639  0.7510
 1425TIP3    H225911   3.226   5.115   0.812  0.6075 -4.3278 -1.1801
 1426TIP3   OH225912   4.750   0.388   7.561  0.4404  0.3423 -0.0181
 1426TIP3    H125913   4.724   0.297   7.573 -3.3883  1.0096 -1.8107
 1426TIP3    H225914   4.734   0.430   7.646 -0.6576 -0.0903 -0.0074
 1427TIP3   OH225915   5.818   4.474   6.828 -0.0147 -0.4385  1.0627
 1427TIP3    H125916   5.742   4.472   6.770  0.5758 -0.9896  0.2938
 1427TIP3    H225917   5.892   4.493   6.771  0.1575  2.8472  2.1398
 1428TIP3   OH225918   2.250   1.090   6.155 -0.1791 -0.4209 -0.1597
 1428TIP3    H125919   2.232   1.143   6.232  1.8552  0.1250  0.0139
 1428TIP3    H225920   2.222   1.001   6.179 -0.2813 -0.1104  0.9116
 1429TIP3   OH225921   2.190   6.790   2.051 -0.2589 -0.2620 -0.1920
 1429TIP3    H125922   2.211   6.821   1.963  0.6292 -0.4565 -0.0615
 1429TIP3    H225923   2.269   6.744   2.080  0.2611  1.5743  1.5122
 1430TIP3   OH225924   5.740   5.488   2.450 -0.0499  0.0028 -0.7630
 1430TIP3    H125925   5.682   5.411   2.450 -0.4251  0.2809 -0.7178
 1430TIP3    H225926   5.704   5.544   2.381 -1.0551  1.0826  0.5750
 1431TIP3   OH225927   1.000   5.051   6.606  0.2201  0.0639 -0.4345
 1431TIP3    H125928   0.907   5.045   6.628  0.7457 -2.5536  1.4203
 1431TIP3    H225929   1.043   4.988   6.664  3.1668  1.1304 -1.2999
 1432TIP3   OH225930   6.069   2.027   0.866  0.8377 -0.0434 -0.2594
 1432TIP3    H125931   6.053   2.081   0.789  0.0030 -0.5890 -0.4947
 1432TIP3    H225932   5.995   2.046   0.924  0.1956 -1.3409 -0.6065
 1433TIP3   OH225933   5.354   0.813   0.730  0.6478 -0.4346 -0.1142
 1433TIP3    H125934   5.347   0.835   0.637 -1.0541 -0.3711 -0.0125
 1433TIP3    H225935   5.302   0.733   0.739 -2.5837  1.6103  1.3878
 1434TIP3   OH225936   6.169   4.325   7.108 -0.0448  0.6426  0.2772
 1434TIP3    H125937   6.204   4.408   7.142  1.7887  0.7299 -1.6358
 1434TIP3    H225938   6.218   4.258   7.157  0.2038  0.7272  0.1485
 1435TIP3   OH225939   4.003   5.508   6.576  0.5622  0.0100 -0.4252
 1435TIP3    H125940   4.029   5.417   6.560  0.5080 -0.1350  0.2576
 1435TIP3    H225941   3.908   5.506   6.575  0.5609  0.2323 -1.2955
 1436TIP3   OH225942   0.814   3.389   1.873  0.2382 -0.2344  0.2007
 1436TIP3    H125943   0.738   3.425   1.826  1.1686  2.7997  0.7809
 1436TIP3    H225944   0.786   3.387   1.965  0.8464  1.0227  0.4339
 1437TIP3   OH225945   2.211   2.851   7.288  0.3373 -0.7752  0.5144
 1437TIP3    H125946   2.156   2.882   7.359  2.6608  1.2558  1.5795
 1437TIP3    H225947   2.300   2.872   7.315  1.3579  0.6250 -3.2050
 1438TIP3   OH225948   4.119   1.786   8.331  0.4814 -0.5023  0.3268
 1438TIP3    H125949   4.177   1.710   8.321  2.5088  1.0194 -0.2481
 1438TIP3    H225950   4.125   1.809   8.424 -1.5670 -2.0318  0.9134
 1439TIP3   OH225951   1.130   4.680   0.716  0.0507 -0.6117 -0.4221
 1439TIP3    H125952   1.114   4.772   0.694  1.8373 -0.0458  0.4747
 1439TIP3    H225953   1.049   4.636   0.692 -1.2708  1.3631  0.1230
 1440TIP3   OH225954   0.021   0.506   7.649 -0.0754  0.0651 -0.1107
 1440TIP3    H125955   0.038   0.567   7.577  0.7088  1.3546  1.1150
 1440TIP3    H225956  -0.064   0.533   7.684 -0.1315 -0.0994 -0.1204
 1441TIP3   OH225957   1.661   6.853   8.394 -0.2024 -0.3193  0.0830
 1441TIP3    H125958   1.618   6.887   8.316  0.8893 -1.2348 -0.9760
 1441TIP3    H225959   1.621   6.767   8.407  1.2420 -1.1991 -0.9420
 1442TIP3   OH225960   3.276   6.316   0.858  0.5933 -0.4548  0.2596
 1442TIP3    H125961   3.254   6.328   0.950 -1.5257 -1.0469 -0.1204
 1442TIP3    H225962   3.253   6.400   0.817  1.3765 -0.2498  0.2178
 1443TIP3   OH225963   0.232   3.892   1.604  0.5018 -0.0120 -0.0305
 1443TIP3    H125964   0.223   3.916   1.696  2.3214 -1.6809  0.6621
 1443TIP3    H225965   0.143   3.893   1.569 -0.2746  0.1813  1.8634
 1444TIP3   OH225966   3.062   4.103   7.300  0.1351 -1.1183 -0.5539
 1444TIP3    H125967   2.995   4.172   7.303  1.9488  0.7414 -0.5536
 1444TIP3    H225968   3.081   4.094   7.206  0.1680 -1.3332 -0.5249
 1445TIP3   OH225969   5.396   2.937   0.893  0.5537 -0.5531  0.1223
 1445TIP3    H125970   5.432   3.022   0.868 -3.6675  1.0245 -1.4349
 1445TIP3    H225971   5.380   2.944   0.987  0.1044  0.4661 -0.0201
 1446TIP3   OH225972   3.363   1.232   0.847  0.9522 -1.0207  0.4378
 1446TIP3    H125973   3.448   1.191   0.827  0.3917 -1.2117 -1.8272
 1446TIP3    H225974   3.299   1.162   0.832  0.3217 -0.5969  1.1428
 1447TIP3   OH225975   3.397   4.218   6.245 -0.3023  0.0283  0.3597
 1447TIP3    H125976   3.400   4.145   6.306 -1.5456 -0.3937 -0.0505
 1447TIP3    H225977   3.434   4.184   6.164 -0.4588  0.0007  0.3009
 1448TIP3   OH225978   6.653   5.772   7.767  0.1235  0.3614 -0.4250
 1448TIP3    H125979   6.699   5.843   7.722  0.1684  0.0695 -0.8390
 1448TIP3    H225980   6.606   5.816   7.839 -0.2496  0.8806 -0.9749
 1449TIP3   OH225981   0.204   6.815   7.764  0.2661  0.3583  0.5502
 1449TIP3    H125982   0.176   6.852   7.848 -0.0171 -0.8501  1.0029
 1449TIP3    H225983   0.264   6.881   7.728  0.1901  1.0120  1.5759
 1450TIP3   OH225984   6.251   5.039   0.852  0.3901 -0.1027  0.5007
 1450TIP3    H125985   6.232   5.113   0.794 -0.6640  0.0472  1.0111
 1450TIP3    H225986   6.318   5.073   0.911  0.2346  0.3015  0.4543
 1451TIP3   OH225987   5.784   5.222   0.501 -0.9700  0.0975  0.1455
 1451TIP3    H125988   5.818   5.134   0.520 -0.2146  0.4375  0.4320
 1451TIP3    H225989   5.832   5.248   0.422  0.8951  1.3271  1.5952
 1452TIP3   OH225990   6.625   4.739   2.006 -0.7892 -0.3620  0.0434
 1452TIP3    H125991   6.606   4.734   2.099 -0.3373 -1.1253  0.1023
 1452TIP3    H225992   6.539   4.748   1.965 -1.2028 -2.2716  0.4030
 1453TIP3   OH225993   6.213   3.001   7.289  0.4697  0.1533 -0.5612
 1453TIP3    H125994   6.176   3.068   7.232 -1.9957 -1.3643 -0.8968
 1453TIP3    H225995   6.176   3.019   7.376  0.7053 -0.1155 -0.4001
 1454TIP3   OH225996   0.065   3.137   7.722  0.3708  0.3781 -0.2137
 1454TIP3    H125997  -0.024   3.123   7.754  0.2339  2.7088  0.5399
 1454TIP3    H225998   0.059   3.214   7.666  1.9164  0.6071 -0.1082
 1455TIP3   OH225999   1.576   0.146   7.559  0.3358 -0.4811  0.5998
 1455TIP3    H126000   1.602   0.072   7.503 -2.3443 -1.2335  0.2053
 1455TIP3    H226001   1.614   0.126   7.644  2.9907 -0.2248 -0.4112
 1456TIP3   OH226002   3.750   1.507   1.924 -0.8771 -0.2663  0.0013
 1456TIP3    H126003   3.760   1.594   1.886 -0.6790 -0.2177  0.1624
 1456TIP3    H226004   3.659   1.504   1.952 -0.6595  0.2211  0.7970
 1457TIP3   OH226005   4.716   3.170   2.433 -0.0716 -0.0740  0.1108
 1457TIP3    H126006   4.627   3.171   2.396 -0.9262 -1.8765  1.9427
 1457TIP3    H226007   4.773   3.161   2.357 -1.4986  0.1751 -1.0434
 1458TIP3   OH226008   6.860   3.818   7.642  0.4833 -0.2236 -0.9634
 1458TIP3    H126009   6.893   3.732   7.613  1.4512 -0.4275  0.6554
 1458TIP3    H226010   6.800   3.797   7.713 -0.1171  0.3970 -1.2833
 1459TIP3   OH226011   5.465   3.793   0.122  0.2263  0.3346 -0.5275
 1459TIP3    H126012   5.416   3.872   0.147  0.3546  0.2496  0.0058
 1459TIP3    H226013   5.417   3.721   0.162  0.0022  0.1170 -1.1731
 1460TIP3   OH226014   1.640   6.065   0.176 -0.0083 -0.2133 -0.4908
 1460TIP3    H126015   1.611   6.155   0.190 -0.2086 -0.0877 -1.6437
 1460TIP3    H226016   1.714   6.072   0.116  0.7097 -0.7485  0.2911
 1461TIP3   OH226017   1.551   2.335   1.887  0.5988  0.6838  0.2533
 1461TIP3    H126018   1.474   2.353   1.940  1.2425 -1.5433  2.1441
 1461TIP3    H226019   1.625   2.349   1.946  1.4660 -0.0791 -0.5948
 1462TIP3   OH226020   2.070   2.810   0.201  0.3970  0.0153 -0.6596
 1462TIP3    H126021   2.049   2.723   0.235  1.0511  0.5412  1.2121
 1462TIP3    H226022   1.986   2.856   0.200  0.4071  0.1337  0.8208
 1463TIP3   OH226023   1.294   1.243   6.617  0.7063 -0.0217 -0.2980
 1463TIP3    H126024   1.310   1.167   6.561 -1.6879 -2.2844  1.7737
 1463TIP3    H226025   1.238   1.300   6.565  2.3997  0.3242 -1.8305
 1464TIP3   OH226026   6.563   0.442   0.506 -0.5299 -0.2814 -0.7111
 1464TIP3    H126027   6.494   0.444   0.440 -1.3250 -1.0766  0.0680
 1464TIP3    H226028   6.534   0.502   0.574  0.3986  0.7119 -1.1714
 1465TIP3   OH226029   5.320   1.102   6.897 -0.0471  0.7342 -0.5674
 1465TIP3    H126030   5.236   1.066   6.867 -0.6439  0.3058  1.4427
 1465TIP3    H226031   5.302   1.195   6.911 -0.3532  0.5608  0.2871
 1466TIP3   OH226032   5.146   6.806   2.309  0.4836 -0.0142 -0.2923
 1466TIP3    H126033   5.188   6.734   2.263  0.4624 -0.3948  0.2683
 1466TIP3    H226034   5.218   6.864   2.334  0.5328  0.0041 -0.4760
 1467TIP3   OH226035   0.382   5.574   1.945  0.3138  0.2679 -0.4382
 1467TIP3    H126036   0.324   5.504   1.915 -0.1673  0.0971  0.8218
 1467TIP3    H226037   0.464   5.530   1.966 -0.9033 -0.5698  3.3109
 1468TIP3   OH226038   0.027   5.511   6.168  0.0407 -1.1187  0.7650
 1468TIP3    H126039   0.054   5.425   6.136 -1.6466 -1.5349  0.3873
 1468TIP3    H226040  -0.059   5.525   6.130  0.5917  1.1046  0.1820
 1469TIP3   OH226041   5.000   4.650   1.809 -0.1939  0.0554  0.1710
 1469TIP3    H126042   5.052   4.570   1.803 -1.4563 -0.7803  0.1963
 1469TIP3    H226043   5.003   4.674   1.902 -0.7337 -0.5941  0.3602
 1470TIP3   OH226044   1.840   0.098   1.515  0.5098  0.0577 -0.6587
 1470TIP3    H126045   1.908   0.155   1.479 -0.5729  0.2392 -2.6267
 1470TIP3    H226046   1.810   0.143   1.594  1.5081  0.8564 -0.7157
 1471TIP3   OH226047   6.035   4.432   1.795 -0.2955 -0.2934 -0.5120
 1471TIP3    H126048   5.995   4.483   1.724 -0.0534  0.0785 -0.3897
 1471TIP3    H226049   5.965   4.376   1.827 -0.9354  0.8573  0.1793
 1472TIP3   OH226050   0.795   4.638   1.255  0.5281  0.0150  0.3025
 1472TIP3    H126051   0.719   4.591   1.290  1.0850 -0.8961  0.3241
 1472TIP3    H226052   0.794   4.723   1.299  0.1263 -0.3943  1.0986
 1473TIP3   OH226053   6.767   4.968   7.601 -0.4179 -0.2151 -0.2987
 1473TIP3    H126054   6.818   5.041   7.636 -0.6616  0.9489 -2.1970
 1473TIP3    H226055   6.678   4.985   7.630 -0.3725 -0.1109 -0.2182
 1474TIP3   OH226056   1.682   3.306   7.863  0.0490 -0.2860  0.3786
 1474TIP3    H126057   1.635   3.326   7.945  0.6677 -1.1433  0.9614
 1474TIP3    H226058   1.767   3.347   7.875 -0.1261  0.2532 -0.1791
 1475TIP3   OH226059   0.913   5.018   7.853 -0.3757 -0.0128  0.1665
 1475TIP3    H126060   0.890   5.086   7.790 -1.3381 -1.4049 -1.0536
 1475TIP3    H226061   1.005   4.997   7.833 -0.3831  0.2286 -0.1259
 1476TIP3   OH226062   2.282   2.909   2.191 -0.3853 -0.2425  0.1389
 1476TIP3    H126063   2.328   2.978   2.142  0.5357 -1.2370 -0.4406
 1476TIP3    H226064   2.339   2.892   2.266 -1.3539  0.6518  1.1061
 1477TIP3   OH226065   0.523   1.640   2.114 -0.4967 -0.5334  0.2061
 1477TIP3    H126066   0.603   1.606   2.076 -1.1646 -0.1205 -1.6543
 1477TIP3    H226067   0.488   1.567   2.165 -1.0325 -2.1639 -2.3107
 1478TIP3   OH226068   0.190   2.903   1.114  0.4716  0.2108 -0.1910
 1478TIP3    H126069   0.213   2.842   1.044  2.1190  1.9863 -1.2907
 1478TIP3    H226070   0.113   2.863   1.155  1.0670 -2.2485 -1.2445
 1479TIP3   OH226071   0.910   2.934   2.671  0.5077  0.0367 -0.3835
 1479TIP3    H126072   0.830   2.891   2.641  0.6651  0.5852 -1.6325
 1479TIP3    H226073   0.980   2.876   2.644  0.6199  0.2758 -0.6084
 1480TIP3   OH226074   3.708   4.574   7.208 -0.1094 -0.0421 -0.0285
 1480TIP3    H126075   3.646   4.633   7.252 -2.3116 -0.9140 -1.8064
 1480TIP3    H226076   3.683   4.576   7.116 -0.0017 -3.3633 -0.2554
 1481TIP3   OH226077   4.015   0.755   6.894  0.0727  0.3866 -0.1949
 1481TIP3    H126078   3.965   0.674   6.901  0.3048  0.3198  0.8968
 1481TIP3    H226079   3.977   0.800   6.819 -0.7377 -0.2748 -0.1974
 1482TIP3   OH226080   3.711   0.193   2.486 -0.5692 -0.0099  0.5522
 1482TIP3    H126081   3.642   0.180   2.420 -2.2395  0.5245  2.0911
 1482TIP3    H226082   3.732   0.286   2.481 -1.0277  0.1270  1.0462
 1483TIP3   OH226083   5.805   2.257   8.375 -0.3186  0.4080  0.3587
 1483TIP3    H126084   5.712   2.262   8.397 -0.9781  1.8258 -2.3246
 1483TIP3    H226085   5.846   2.223   8.454 -2.7705  2.0299  2.5085
 1484TIP3   OH226086   2.116   5.239   7.454  0.2715 -0.2795 -0.6819
 1484TIP3    H126087   2.040   5.211   7.403 -0.4381 -0.4407  0.4371
 1484TIP3    H226088   2.084   5.245   7.544  1.5460 -0.2053 -0.2137
 1485TIP3   OH226089   1.818   0.167   2.026  0.8802 -0.5314  0.1612
 1485TIP3    H126090   1.766   0.165   2.107  0.1238 -0.5178 -0.3197
 1485TIP3    H226091   1.869   0.086   2.029  0.7654 -0.5932  0.5894
 1486TIP3   OH226092   2.633   6.286   0.700 -0.2630 -0.2133 -0.0297
 1486TIP3    H126093   2.564   6.292   0.634 -1.0888 -1.3149  0.6692
 1486TIP3    H226094   2.715   6.285   0.651 -0.8101  0.0261 -0.9605
 1487TIP3   OH226095   3.507   1.486   0.924  0.2161 -0.2631 -0.4043
 1487TIP3    H126096   3.557   1.566   0.938 -0.6198  0.3244 -0.6730
 1487TIP3    H226097   3.547   1.422   0.983 -0.3436  0.9049  1.3625
 1488TIP3   OH226098   4.187   0.563   6.646  0.0308  0.3069 -0.3284
 1488TIP3    H126099   4.204   0.536   6.556 -0.5633 -0.4050 -0.2392
 1488TIP3    H226100   4.152   0.652   6.639  1.2585  0.7670 -0.6899
 1489TIP3   OH226101   3.433   4.147   8.316  0.0173  0.1955  0.3569
 1489TIP3    H126102   3.501   4.165   8.380 -2.6255 -0.9830  3.8030
 1489TIP3    H226103   3.381   4.228   8.313  0.2196  0.3034 -0.4763
 1490TIP3   OH226104   5.322   0.461   8.221 -0.1596 -0.6917  0.0341
 1490TIP3    H126105   5.229   0.485   8.227 -0.4828 -1.6381 -0.9009
 1490TIP3    H226106   5.363   0.508   8.293 -1.1850  0.5918 -0.1730
 1491TIP3   OH226107   0.912   2.443   1.430 -0.1162 -0.5986 -0.2006
 1491TIP3    H126108   0.864   2.525   1.435  0.4651 -0.2781  0.2834
 1491TIP3    H226109   0.938   2.425   1.520  2.1598  0.1631 -0.6330
 1492TIP3   OH226110   3.425   6.358   8.174  0.6416  0.4289  0.1577
 1492TIP3    H126111   3.447   6.382   8.084 -0.0934 -1.7526 -0.6859
 1492TIP3    H226112   3.426   6.262   8.174 -1.8457  0.3033  1.8277
 1493TIP3   OH226113   2.140   5.564   6.196  0.7112 -0.1948  0.3017
 1493TIP3    H126114   2.210   5.533   6.254 -0.2173 -0.2624  1.4070
 1493TIP3    H226115   2.187   5.602   6.121  1.9104 -1.6359  0.2691
 1494TIP3   OH226116   4.969   0.951   2.016 -0.2888  0.2705 -0.0797
 1494TIP3    H126117   4.897   0.919   1.961 -0.0629 -0.9616  0.3267
 1494TIP3    H226118   5.040   0.889   2.002  0.2810  0.7816  0.4846
 1495TIP3   OH226119   5.645   1.231   2.132 -0.2255 -0.0746  0.2916
 1495TIP3    H126120   5.594   1.301   2.173 -1.6296 -0.2466 -1.0962
 1495TIP3    H226121   5.615   1.229   2.042  0.7976 -1.5621 -0.0450
 1496TIP3   OH226122   6.666   5.678   0.320  0.0131  0.3904  0.1804
 1496TIP3    H126123   6.750   5.672   0.274 -0.6938 -1.5437 -1.0117
 1496TIP3    H226124   6.601   5.665   0.251 -1.3603  2.7451  0.9202
 1497TIP3   OH226125   1.704   4.631   7.021 -0.3115 -0.0429  0.2879
 1497TIP3    H126126   1.746   4.554   6.983  1.2292 -0.6124  2.8573
 1497TIP3    H226127   1.617   4.600   7.047  0.0663 -0.7642  0.7380
 1498TIP3   OH226128   2.470   4.737   1.614  0.3201  0.5266 -0.5775
 1498TIP3    H126129   2.386   4.773   1.586 -1.0506 -1.0376  1.3132
 1498TIP3    H226130   2.488   4.780   1.698  1.7053  1.1902 -1.1694
 1499TIP3   OH226131   2.416   5.548   7.558 -0.1923 -0.2065 -1.1051
 1499TIP3    H126132   2.448   5.457   7.564  0.1609 -0.0523 -0.5759
 1499TIP3    H226133   2.323   5.541   7.580 -0.1570 -0.4358 -1.0149
 1500TIP3   OH226134   6.913   3.928   6.297  0.0923  0.0277  0.2070
 1500TIP3    H126135   6.858   3.981   6.239  0.4826 -0.2872 -0.4674
 1500TIP3    H226136   7.002   3.948   6.268  0.2158 -2.5207 -1.4574
 1501TIP3   OH226137   3.419   3.592   7.044 -0.3059  0.2030  0.4146
 1501TIP3    H126138   3.406   3.557   7.133 -1.9171  0.4721  0.3280
 1501TIP3    H226139   3.380   3.526   6.987 -0.2128  0.5170 -0.0130
 1502TIP3   OH226140   4.091   3.236   0.386 -0.2361 -0.4184  0.8956
 1502TIP3    H126141   4.022   3.255   0.449  3.1973  1.0516  4.6422
 1502TIP3    H226142   4.129   3.153   0.416  1.1569  0.0347  0.4711
 1503TIP3   OH226143   5.046   1.248   7.588 -0.1143 -0.2219  0.0055
 1503TIP3    H126144   4.951   1.258   7.592 -0.0129  0.4785  1.4897
 1503TIP3    H226145   5.069   1.275   7.499 -1.4193 -1.7604 -0.8424
 1504TIP3   OH226146   4.929   3.521   2.047  0.5459  0.0676  0.2187
 1504TIP3    H126147   4.877   3.460   2.100  0.6078  0.8872  1.2656
 1504TIP3    H226148   5.018   3.511   2.080  0.6571  0.3000 -0.0114
 1505TIP3   OH226149   3.184   4.957   7.439  0.5895  0.5160 -0.8398
 1505TIP3    H126150   3.207   4.942   7.531  0.1627  1.2137 -0.6178
 1505TIP3    H226151   3.138   4.877   7.413  2.1371 -0.3986 -0.9448
 1506TIP3   OH226152   6.656   2.717   7.590 -0.5650 -0.0029  0.1407
 1506TIP3    H126153   6.653   2.776   7.514  1.1558  0.0550  0.0745
 1506TIP3    H226154   6.739   2.738   7.634  0.2911 -2.5323 -0.0612
 1507TIP3   OH226155   0.454   4.576   8.398 -0.5300  0.1386 -0.4088
 1507TIP3    H126156   0.504   4.530   8.465  0.0213  1.8804  0.4173
 1507TIP3    H226157   0.382   4.516   8.376 -1.2035 -0.1595  2.3224
 1508TIP3   OH226158   3.841   5.399   1.440  0.0753  0.7797 -0.0103
 1508TIP3    H126159   3.769   5.454   1.411  0.2710  1.8220  1.3297
 1508TIP3    H226160   3.811   5.361   1.523  1.3593  1.9903  1.0741
 1509TIP3   OH226161   2.843   5.094   1.564 -0.6479 -0.1590  0.2326
 1509TIP3    H126162   2.752   5.065   1.556 -0.7142 -0.6363  2.2924
 1509TIP3    H226163   2.877   5.047   1.639  0.7978  1.2851  0.5449
 1510TIP3   OH226164   1.525   3.237   0.310  0.0768  0.0635  0.1371
 1510TIP3    H126165   1.560   3.181   0.379  0.4471 -0.1358 -0.2179
 1510TIP3    H226166   1.594   3.242   0.244 -1.2918 -2.0242 -1.5707
 1511TIP3   OH226167   2.696   0.772   6.420 -0.1709  0.0097  0.4911
 1511TIP3    H126168   2.755   0.711   6.374 -0.6585 -0.5741  0.6281
 1511TIP3    H226169   2.662   0.721   6.493  0.3656  0.8478  1.3385
 1512TIP3   OH226170   0.746   3.405   0.378  0.8720 -0.2913  0.1927
 1512TIP3    H126171   0.814   3.400   0.445 -0.4028  0.5382  1.5825
 1512TIP3    H226172   0.686   3.333   0.399 -0.0883  0.6064  0.6007
 1513TIP3   OH226173   0.099   6.021   0.959 -0.2067  0.4956  0.0422
 1513TIP3    H126174   0.122   5.961   1.031  2.3969  1.9489  0.5204
 1513TIP3    H226175   0.066   5.963   0.890  0.4267 -1.3001  1.1600
 1514TIP3   OH226176   4.602   5.718   6.953 -0.1993  0.1784 -0.6215
 1514TIP3    H126177   4.590   5.623   6.958 -0.6153  0.2431 -0.3687
 1514TIP3    H226178   4.520   5.754   6.985  0.0173  0.6271 -0.5688
 1515TIP3   OH226179   2.378   3.705   0.515 -0.4371 -0.1136  0.8507
 1515TIP3    H126180   2.370   3.670   0.426 -1.2983  0.2896  0.7599
 1515TIP3    H226181   2.342   3.794   0.510  0.0681  0.1343  1.4703
 1516TIP3   OH226182   0.845   1.772   2.186 -0.3202 -0.2346  0.0796
 1516TIP3    H126183   0.827   1.691   2.234  3.7198 -0.3464  1.8057
 1516TIP3    H226184   0.787   1.837   2.225 -1.1244 -1.5304  1.1499
 1517TIP3   OH226185   2.191   6.559   1.511  0.0435 -0.2408  0.1398
 1517TIP3    H126186   2.229   6.549   1.598  1.0754  0.2011 -0.2408
 1517TIP3    H226187   2.237   6.495   1.457 -0.8202 -0.7405 -0.0210
 1518TIP3   OH226188   4.698   5.481   1.367  0.1464  0.2472 -0.1425
 1518TIP3    H126189   4.793   5.478   1.374  0.0871  0.7881  1.5138
 1518TIP3    H226190   4.669   5.515   1.452 -1.4504  1.4722 -1.1108
 1519TIP3   OH226191   0.425   4.284   0.947  0.1367 -0.2147 -0.0780
 1519TIP3    H126192   0.416   4.297   1.042  0.4244 -0.5210 -0.0069
 1519TIP3    H226193   0.471   4.362   0.917 -1.8639  0.9368 -0.3125
 1520TIP3   OH226194   1.573   2.138   7.697  0.0245  0.2307  0.7849
 1520TIP3    H126195   1.496   2.091   7.667 -0.8229  2.5588 -1.0309
 1520TIP3    H226196   1.542   2.191   7.771 -0.2484  1.4089 -0.1471
 1521TIP3   OH226197   6.884   2.586   2.159  0.0300  0.3727  0.2915
 1521TIP3    H126198   6.795   2.553   2.147  1.1106 -1.9460 -2.2611
 1521TIP3    H226199   6.891   2.599   2.254 -1.7561 -3.3268  1.1190
 1522TIP3   OH226200   0.492   5.872   8.226 -0.8411 -0.5452  0.9445
 1522TIP3    H126201   0.466   5.784   8.199 -1.7848  0.0484 -0.1883
 1522TIP3    H226202   0.511   5.918   8.144  0.6670  0.0134  1.5693
 1523TIP3   OH226203   4.770   6.137   7.989 -0.2751  0.3251  0.5647
 1523TIP3    H126204   4.790   6.170   7.901  0.5675  1.5328  1.1758
 1523TIP3    H226205   4.814   6.052   7.994  0.4013  0.6470  0.1143
 1524TIP3   OH226206   2.071   0.332   7.591 -0.0624  0.0799 -0.0750
 1524TIP3    H126207   1.986   0.289   7.579  0.0003 -0.1277  0.2248
 1524TIP3    H226208   2.053   0.424   7.575 -1.0110  0.5072  2.9089
 1525TIP3   OH226209   0.341   0.894   0.541  0.2689  0.0156 -0.3155
 1525TIP3    H126210   0.297   0.837   0.604 -1.2443  0.6540 -0.7499
 1525TIP3    H226211   0.390   0.956   0.594  0.6202 -0.6757  0.1840
 1526TIP3   OH226212   3.420   5.673   8.346 -0.5622 -0.2209 -0.0680
 1526TIP3    H126213   3.485   5.603   8.334 -0.7302 -0.5678  0.9213
 1526TIP3    H226214   3.467   5.753   8.326  0.5212 -0.3617  1.6473
 1527TIP3   OH226215   6.131   5.756   1.781 -0.1680  0.2781 -0.3140
 1527TIP3    H126216   6.121   5.749   1.686 -0.2620  0.9914 -0.3584
 1527TIP3    H226217   6.222   5.731   1.797  0.3023  1.6175 -0.7629
 1528TIP3   OH226218   3.446   6.860   7.605 -0.3378  0.0291  0.1830
 1528TIP3    H126219   3.371   6.801   7.617  0.4686 -0.7887  1.4559
 1528TIP3    H226220   3.513   6.805   7.564 -0.3940  0.7362 -0.8757
 1529TIP3   OH226221   2.366   0.343   0.620  0.0978  0.2904  0.2640
 1529TIP3    H126222   2.409   0.411   0.673 -1.6703  0.4156  1.6408
 1529TIP3    H226223   2.298   0.308   0.677  0.6122 -2.3454 -0.5710
 1530TIP3   OH226224   3.180   5.303   7.129 -0.0353  0.3877 -0.8750
 1530TIP3    H126225   3.245   5.246   7.168 -0.9060  0.4517  0.7480
 1530TIP3    H226226   3.111   5.244   7.098 -0.6102  0.5019  0.1691
 1531TIP3   OH226227   4.807   3.769   7.327  0.1914  0.3626  0.0310
 1531TIP3    H126228   4.775   3.811   7.406  1.4756  2.5914 -0.5567
 1531TIP3    H226229   4.812   3.839   7.262  0.4440 -1.1292 -1.6438
 1532TIP3   OH226230   6.058   3.795   0.006 -0.2049  0.2463 -0.0293
 1532TIP3    H126231   6.125   3.833   0.062 -0.6996  0.2167  0.5933
 1532TIP3    H226232   5.977   3.804   0.056 -0.8528  1.2569 -1.2052
 1533TIP3   OH226233   5.459   2.393   7.555 -0.0254 -0.6876  0.1611
 1533TIP3    H126234   5.451   2.338   7.633 -2.6017 -0.5973  0.0500
 1533TIP3    H226235   5.546   2.431   7.561  0.4597 -1.9661  2.1171
 1534TIP3   OH226236   0.698   1.245   6.984  0.3794 -1.0291 -0.4281
 1534TIP3    H126237   0.656   1.167   6.947 -1.1980  0.8934 -3.0511
 1534TIP3    H226238   0.638   1.274   7.052  0.5219 -1.5851 -0.0563
 1535TIP3   OH226239   1.144   6.684   7.490  0.1372 -0.2750 -0.0349
 1535TIP3    H126240   1.226   6.696   7.539  0.2992  1.4597 -0.6842
 1535TIP3    H226241   1.077   6.673   7.558  0.5137  1.0503  0.5833
 1536TIP3   OH226242   5.450   6.109   1.436 -0.3803 -0.2642  0.0303
 1536TIP3    H126243   5.394   6.183   1.411  0.8471  0.7998  0.3029
 1536TIP3    H226244   5.538   6.147   1.443  0.1493 -1.5903  0.9601
 1537TIP3   OH226245   4.449   3.971   7.985 -0.5123 -0.4394  0.2725
 1537TIP3    H126246   4.401   3.892   7.961 -0.3763 -0.0667 -1.3601
 1537TIP3    H226247   4.518   3.978   7.919 -0.4701  0.9915  0.4330
 1538TIP3   OH226248   6.336   5.681   1.160 -0.2287  0.2976 -0.2883
 1538TIP3    H126249   6.299   5.647   1.242 -0.6810 -0.7950 -0.9357
 1538TIP3    H226250   6.329   5.776   1.170  1.2178  0.2780  1.6240
 1539TIP3   OH226251   5.822   2.093   0.280 -0.2084 -0.5492 -0.0585
 1539TIP3    H126252   5.799   2.141   0.360 -0.1349  2.2697 -1.6175
 1539TIP3    H226253   5.893   2.035   0.307 -0.5712 -0.1122  2.0445
 1540TIP3   OH226254   6.439   0.820   7.271  0.0541 -0.1881  0.9272
 1540TIP3    H126255   6.382   0.806   7.195 -0.2902 -1.7622  1.4398
 1540TIP3    H226256   6.389   0.878   7.328 -1.8791 -2.8061  2.1165
 1541TIP3   OH226257   4.760   4.472   0.808  0.0042 -0.1020  0.7782
 1541TIP3    H126258   4.711   4.521   0.741  0.0696 -0.9666  0.0800
 1541TIP3    H226259   4.823   4.536   0.842 -0.1361  0.4084  0.1182
 1542TIP3   OH226260   6.119   3.598   1.760  0.4437 -0.3029 -0.5222
 1542TIP3    H126261   6.095   3.521   1.708  1.0925 -0.5138 -0.5214
 1542TIP3    H226262   6.107   3.672   1.701 -0.7626 -0.3369 -0.3412
 1543TIP3   OH226263   3.534   3.206   8.042 -0.1458 -0.0029 -0.1121
 1543TIP3    H126264   3.471   3.133   8.044 -0.2283  0.0747  0.6876
 1543TIP3    H226265   3.600   3.179   7.978 -1.2096  0.1032 -1.2765
 1544TIP3   OH226266   4.226   6.046   7.703  1.0015 -0.0343 -0.0241
 1544TIP3    H126267   4.266   6.010   7.783 -1.6539 -1.0075  0.9694
 1544TIP3    H226268   4.266   5.997   7.632  0.2213 -2.4020  1.0617
 1545TIP3   OH226269   1.578   2.148   1.373  0.3041  0.4517  0.6418
 1545TIP3    H126270   1.520   2.073   1.359  0.6782  0.2115  0.3698
 1545TIP3    H226271   1.571   2.167   1.467  1.5481 -1.0392  1.0747
 1546TIP3   OH226272   1.461   4.948   0.006 -0.2087 -0.2047  0.2244
 1546TIP3    H126273   1.508   4.910  -0.068  1.5420  0.4873  0.9324
 1546TIP3    H226274   1.466   4.881   0.075  2.5074  0.9892  1.3279
 1547TIP3   OH226275   2.227   3.088   0.044 -0.1163  0.6924  0.0210
 1547TIP3    H126276   2.141   3.075   0.004 -0.2543  1.8289 -0.0707
 1547TIP3    H226277   2.268   3.156  -0.010 -0.5938  2.8391  2.2279
 1548TIP3   OH226278   5.768   5.832   0.557  0.1826 -0.1504 -0.5264
 1548TIP3    H126279   5.729   5.791   0.634 -1.8270 -1.3297 -2.0827
 1548TIP3    H226280   5.862   5.819   0.568 -0.0061  0.1807  1.9434
 1549TIP3   OH226281   0.242   0.647   0.017  0.1203 -0.3860 -0.0080
 1549TIP3    H126282   0.173   0.677  -0.042 -0.1277 -1.6481 -0.3832
 1549TIP3    H226283   0.324   0.671  -0.027 -0.0294  1.6893  0.7304
 1550TIP3   OH226284   2.407   2.912   1.074 -0.0792 -0.5573  0.6496
 1550TIP3    H126285   2.394   2.827   1.117 -1.4864 -1.1540 -0.8266
 1550TIP3    H226286   2.381   2.977   1.140  0.2015 -1.3031  1.5140
 1551TIP3   OH226287   6.433   6.283   1.211 -0.4897  0.4140  0.1829
 1551TIP3    H126288   6.500   6.217   1.229 -0.2201  0.5110 -0.4641
 1551TIP3    H226289   6.439   6.344   1.285  0.3432  0.5907 -0.0258
 1552TIP3   OH226290   1.910   1.582   0.971 -0.1088  0.0019 -0.3271
 1552TIP3    H126291   1.874   1.526   1.040 -3.2671  1.4401 -0.6123
 1552TIP3    H226292   1.979   1.632   1.015 -1.4383  0.2370  1.6450
 1553TIP3   OH226293   4.342   2.304   6.820  0.4745  0.2755 -0.4645
 1553TIP3    H126294   4.376   2.387   6.787 -1.6070  2.1385  1.6818
 1553TIP3    H226295   4.410   2.271   6.878  1.0590  0.8393 -0.8204
 1554TIP3   OH226296   0.602   6.521   0.074  0.2181  0.2630  0.4804
 1554TIP3    H126297   0.605   6.509   0.169  0.2269 -0.8338  0.3573
 1554TIP3    H226298   0.562   6.441   0.041 -0.4847  0.9482 -0.3924
 1555TIP3   OH226299   2.488   0.368   2.172  0.1452  0.0634 -0.3067
 1555TIP3    H126300   2.403   0.337   2.202  0.5932  0.9827  2.1362
 1555TIP3    H226301   2.510   0.310   2.099 -2.7468  0.1158 -1.3314
 1556TIP3   OH226302   2.879   3.220   1.583 -0.3731 -0.2623 -0.2087
 1556TIP3    H126303   2.855   3.190   1.671 -2.0117 -2.1020 -1.2032
 1556TIP3    H226304   2.965   3.181   1.567 -1.2334 -2.2001 -0.3836
 1557TIP3   OH226305   4.008   3.156   8.312 -0.4423  0.1430 -0.0547
 1557TIP3    H126306   4.044   3.135   8.225  2.3314 -2.1210  1.4617
 1557TIP3    H226307   4.082   3.196   8.358 -1.7393  0.9069  1.4379
 1558TIP3   OH226308   0.539   2.488   0.532  0.3528 -0.8033 -0.2864
 1558TIP3    H126309   0.493   2.504   0.449 -0.0065  0.5206  0.1374
 1558TIP3    H226310   0.612   2.550   0.532  0.9094 -1.4412 -0.0129
 1559TIP3   OH226311   2.410   4.093   0.213 -0.1529  0.1819  0.5379
 1559TIP3    H126312   2.497   4.057   0.230  1.8591  3.7856 -0.9910
 1559TIP3    H226313   2.401   4.089   0.117 -1.1800  0.8102  0.5903
 1560TIP3   OH226314   3.612   1.631   2.604  0.0524  0.3986  0.2866
 1560TIP3    H126315   3.662   1.552   2.625 -0.5089  0.2773  1.2126
 1560TIP3    H226316   3.523   1.600   2.589  0.1228  0.6844 -0.8175
 1561TIP3   OH226317   4.871   5.552   7.160  0.0386  0.5294  0.4792
 1561TIP3    H126318   4.861   5.638   7.200 -0.1682  0.0844  1.3998
 1561TIP3    H226319   4.963   5.529   7.174  0.7221  1.5725 -1.8034
 1562TIP3   OH226320   6.634   1.285   7.849  0.0098 -0.4251 -0.0731
 1562TIP3    H126321   6.671   1.211   7.803  0.1151 -0.0194 -0.6570
 1562TIP3    H226322   6.651   1.268   7.942  1.6255 -0.2741 -0.3110
 1563TIP3   OH226323   0.469   5.688   6.289  0.6721  0.0700 -0.7213
 1563TIP3    H126324   0.501   5.776   6.267  0.2044  0.1029 -1.2811
 1563TIP3    H226325   0.441   5.695   6.380  0.9974  0.3988 -0.6458
 1564TIP3   OH226326   1.157   2.684   6.523  0.8052  0.8290 -0.1808
 1564TIP3    H126327   1.128   2.596   6.500  1.2915  0.4167  0.7576
 1564TIP3    H226328   1.117   2.740   6.456 -2.6944  0.4063  1.3391
 1565TIP3   OH226329   1.203   1.450   6.193  0.0557  0.0206 -0.0769
 1565TIP3    H126330   1.165   1.445   6.105  0.8949 -0.0187 -0.4413
 1565TIP3    H226331   1.297   1.452   6.178  0.2631  4.4819  0.5517
 1566TIP3   OH226332   2.599   1.716   0.705 -0.1651 -0.2746  0.2659
 1566TIP3    H126333   2.622   1.666   0.626  1.2444  1.5923 -0.5643
 1566TIP3    H226334   2.625   1.659   0.777 -1.9597 -2.2523 -0.5255
 1567TIP3   OH226335   6.355   0.940   0.619 -0.1055  0.3031  0.0182
 1567TIP3    H126336   6.331   0.899   0.536 -0.0895  0.7453 -0.2088
 1567TIP3    H226337   6.386   1.027   0.594  0.3447  0.2691  0.4455
 1568TIP3   OH226338   4.273   4.405   0.748  0.2613 -0.3898 -0.0982
 1568TIP3    H126339   4.356   4.356   0.743 -0.4573 -1.7683  0.8114
 1568TIP3    H226340   4.240   4.405   0.658  1.2019  0.1231 -0.4635
 1569TIP3   OH226341   0.384   2.526   0.292  0.1221 -0.0290 -0.0588
 1569TIP3    H126342   0.442   2.602   0.286  2.1558 -1.4003  0.9796
 1569TIP3    H226343   0.424   2.460   0.234 -0.3176 -1.0548  0.7605
 1570TIP3   OH226344   6.373   1.277   7.322 -0.1677  0.3028 -0.3228
 1570TIP3    H126345   6.292   1.266   7.373 -0.1360 -0.6888 -0.4787
 1570TIP3    H226346   6.367   1.367   7.288 -0.8254  0.5158  0.3165
 1571TIP3   OH226347   2.289   1.015   6.868  0.4011 -0.9363  0.0422
 1571TIP3    H126348   2.356   0.954   6.899 -0.7309 -2.3912 -0.2747
 1571TIP3    H226349   2.310   1.027   6.775  0.4671 -1.0394  0.0437
 1572TIP3   OH226350   0.923   5.462   0.116  0.0686  0.7735  0.6496
 1572TIP3    H126351   0.872   5.405   0.058  0.6068  0.5536  0.3850
 1572TIP3    H226352   0.858   5.505   0.171 -0.7349  3.0516 -1.8961
 1573TIP3   OH226353   0.917   0.481   1.546  0.0028  0.3571 -0.3305
 1573TIP3    H126354   0.957   0.408   1.594  1.8673  1.4854 -0.0695
 1573TIP3    H226355   0.931   0.460   1.454 -1.6306 -0.7465 -0.3680
 1574TIP3   OH226356   2.304   1.010   7.937  0.2974  0.1763  0.4108
 1574TIP3    H126357   2.336   1.095   7.907 -0.9855  0.6299  0.2636
 1574TIP3    H226358   2.337   0.948   7.873  1.0188  0.5889  0.3643
 1575TIP3   OH226359   4.933   0.534   1.902  0.9127  0.2079 -0.7861
 1575TIP3    H126360   4.917   0.514   1.995  1.0294  0.3504 -0.7359
 1575TIP3    H226361   4.971   0.622   1.902  1.6015 -0.0792 -0.9118
 1576TIP3   OH226362   0.279   6.445   0.182  0.2267  0.7795  0.3574
 1576TIP3    H126363   0.316   6.369   0.226  1.3958  1.3678  0.4499
 1576TIP3    H226364   0.302   6.519   0.238 -1.3136  1.1580  0.5194
 1577TIP3   OH226365   2.965   2.414   7.231  0.0199 -0.0222 -0.5054
 1577TIP3    H126366   2.877   2.390   7.203  0.0500 -0.7851  0.0459
 1577TIP3    H226367   3.005   2.454   7.153 -0.9060  0.6028 -0.6735
 1578TIP3   OH226368   4.585   3.597   7.282  0.3201  0.1030 -0.1046
 1578TIP3    H126369   4.605   3.535   7.212  1.4908  0.2974  0.0257
 1578TIP3    H226370   4.650   3.666   7.271  0.3180  0.2875  0.9823
 1579TIP3   OH226371   3.112   0.201   0.916  0.2803 -0.1520  0.3460
 1579TIP3    H126372   3.059   0.177   0.840  0.8258 -1.3042  0.3063
 1579TIP3    H226373   3.169   0.272   0.885  1.2010 -1.2900 -0.6264
 1580TIP3   OH226374   4.162   4.060   7.699 -0.2695 -0.0542  0.2828
 1580TIP3    H126375   4.105   4.050   7.623 -1.8549  1.4986  1.1828
 1580TIP3    H226376   4.249   4.074   7.662 -0.1541 -3.5471 -1.1232
 1581TIP3   OH226377   4.415   1.220   7.941 -0.2975 -0.6279  0.0624
 1581TIP3    H126378   4.457   1.303   7.920  0.3751 -0.7520  0.9060
 1581TIP3    H226379   4.348   1.209   7.873  0.6597 -0.1676 -0.9695
 1582TIP3   OH226380   4.978   2.152   6.773 -0.4572 -0.2975 -0.5223
 1582TIP3    H126381   5.048   2.198   6.727  0.9650 -1.0901  0.7575
 1582TIP3    H226382   4.908   2.143   6.708  0.5968  0.5658 -1.8288
 1583TIP3   OH226383   4.697   3.563   6.254  0.2761  0.7971 -0.3032
 1583TIP3    H126384   4.784   3.564   6.295  1.1520  1.0586 -2.0322
 1583TIP3    H226385   4.701   3.489   6.193 -1.2817 -0.1254  0.6830
 1584TIP3   OH226386   1.970   1.137   7.381  0.1936  0.0968 -0.2357
 1584TIP3    H126387   2.044   1.095   7.424  0.2679 -0.4744 -0.8914
 1584TIP3    H226388   2.001   1.225   7.360  1.1631 -0.5269 -1.6226
 1585TIP3   OH226389   4.140   4.270   1.667 -0.3272 -0.0570  0.0360
 1585TIP3    H126390   4.183   4.294   1.585  1.0521 -2.2736  0.0468
 1585TIP3    H226391   4.187   4.193   1.697 -1.1647  0.3658  2.6499
 1586TIP3   OH226392   5.409   4.217   1.521  0.0789  0.0290  0.4542
 1586TIP3    H126393   5.448   4.208   1.608  2.6836 -3.9359 -0.8075
 1586TIP3    H226394   5.469   4.275   1.474  0.4964 -0.3682  0.4835
 1587TIP3   OH226395   1.153   3.713   7.149  0.1611  0.0234  0.0910
 1587TIP3    H126396   1.164   3.802   7.115 -0.1046  0.4597  1.0981
 1587TIP3    H226397   1.234   3.668   7.125  0.1237  0.4061 -0.7943
 1588TIP3   OH226398   0.685   4.186   1.158  0.2126  0.1797  0.1659
 1588TIP3    H126399   0.776   4.200   1.185  0.8999  0.5695 -2.1701
 1588TIP3    H226400   0.685   4.099   1.117 -0.1109  0.7856 -1.1621
 1589TIP3   OH226401   6.603   1.452   8.444 -0.4647 -0.6245  0.3551
 1589TIP3    H126402   6.691   1.436   8.409 -0.1696  0.2059  0.6966
 1589TIP3    H226403   6.546   1.448   8.367 -0.0083 -0.2880 -0.0103
 1590TIP3   OH226404   1.796   0.297   2.382  0.0011  0.2781  0.1592
 1590TIP3    H126405   1.796   0.271   2.475 -0.8497  1.3864  0.4818
 1590TIP3    H226406   1.734   0.237   2.341  0.2058 -0.0671  0.3402
 1591TIP3   OH226407   5.440   4.736   2.007  0.3341 -0.5158 -0.0942
 1591TIP3    H126408   5.490   4.655   2.016 -0.1432 -0.9067 -0.8340
 1591TIP3    H226409   5.353   4.714   2.038  0.4925  0.0465  0.7919
 1592TIP3   OH226410   4.680   4.656   6.336  0.5761  0.0069 -0.4391
 1592TIP3    H126411   4.700   4.593   6.267 -0.8022  0.5114 -1.3418
 1592TIP3    H226412   4.758   4.712   6.340  0.6446  0.0274 -1.6817
 1593TIP3   OH226413   0.871   1.400   6.483 -0.1152  0.1425  0.7841
 1593TIP3    H126414   0.847   1.477   6.432  1.3005 -1.0298 -1.8119
 1593TIP3    H226415   0.788   1.368   6.518 -0.7602  2.6736  1.8301
 1594TIP3   OH226416   2.096   1.381   7.372 -0.0295  0.0023 -0.2428
 1594TIP3    H126417   2.069   1.473   7.378  2.1831  0.6021  3.5819
 1594TIP3    H226418   2.188   1.385   7.344 -0.2013 -1.1380 -1.0271
 1595TIP3   OH226419   6.667   1.714   0.843  0.4067  0.3470 -0.4778
 1595TIP3    H126420   6.680   1.684   0.753 -0.8972 -2.0828  0.0656
 1595TIP3    H226421   6.581   1.680   0.868  0.8147  0.7772  1.7616
 1596TIP3   OH226422   5.297   0.107   0.989  0.2244 -0.0144 -0.1327
 1596TIP3    H126423   5.380   0.092   0.944  1.0953 -0.2547  1.4719
 1596TIP3    H226424   5.309   0.189   1.036 -1.1395  0.9180 -1.3441
 1597TIP3   OH226425   6.923   5.557   2.102  0.0589  0.3863 -0.1450
 1597TIP3    H126426   6.920   5.464   2.078 -1.9242 -0.0300  1.4404
 1597TIP3    H226427   6.993   5.563   2.167  0.7884  0.2057 -0.8899
 1598TIP3   OH226428   2.468   4.770   6.591 -0.5491 -0.3223 -0.2479
 1598TIP3    H126429   2.391   4.779   6.646  0.2268  0.5792  0.7462
 1598TIP3    H226430   2.505   4.685   6.614  1.7265  1.3888  3.3960
 1599TIP3   OH226431   2.825   6.625   7.268  0.3548  0.0538 -0.1329
 1599TIP3    H126432   2.764   6.598   7.199  1.5609 -0.2282 -1.1298
 1599TIP3    H226433   2.870   6.702   7.232 -1.1348  1.8495  1.5956
 1600TIP3   OH226434   0.985   3.197   2.304 -0.2253  0.1301  0.1212
 1600TIP3    H126435   1.050   3.202   2.233 -1.5218 -0.4487 -1.1473
 1600TIP3    H226436   1.036   3.171   2.381  1.2548  0.9756 -0.5327
 1601TIP3   OH226437   2.300   2.990   8.105 -0.1931  0.1569 -0.4954
 1601TIP3    H126438   2.356   2.972   8.180  0.9899  0.8606 -1.1942
 1601TIP3    H226439   2.258   2.906   8.086  1.7968 -0.8101 -0.8881
 1602TIP3   OH226440   2.490   2.165   8.279  0.0622 -0.2747  0.0247
 1602TIP3    H126441   2.562   2.108   8.305 -0.7469 -0.9326  0.8940
 1602TIP3    H226442   2.491   2.164   8.183  1.4458  0.0555  0.0168
 1603TIP3   OH226443   0.048   5.053   1.948  0.5434 -0.1293 -0.0690
 1603TIP3    H126444   0.062   5.093   1.862  0.7132 -0.9832 -0.4495
 1603TIP3    H226445  -0.020   4.986   1.933  0.1189  0.1424  0.5928
 1604TIP3   OH226446   1.442   2.054   7.961 -0.4957  0.3705 -0.2743
 1604TIP3    H126447   1.507   2.001   7.916 -0.3322  0.3491 -0.0198
 1604TIP3    H226448   1.361   2.003   7.955 -0.0067 -0.7076  1.3347
 1605TIP3   OH226449   4.753   5.158   7.699  0.1960  0.6985 -0.3494
 1605TIP3    H126450   4.692   5.195   7.762 -1.0306 -3.0528  0.9861
 1605TIP3    H226451   4.839   5.191   7.725 -0.7365  2.3278  0.7729
 1606TIP3   OH226452   0.285   3.021   8.302  0.4902 -0.0010  0.3297
 1606TIP3    H126453   0.287   2.945   8.360  0.4491  0.4219  0.9013
 1606TIP3    H226454   0.275   3.096   8.362  1.8441  0.5639 -0.1248
 1607TIP3   OH226455   0.493   3.952   8.130 -0.6092  0.4252  0.0557
 1607TIP3    H126456   0.583   3.969   8.156  0.1986 -1.8574 -0.9122
 1607TIP3    H226457   0.469   4.026   8.075  0.4147  1.4133  0.9043
 1608TIP3   OH226458   6.634   3.964   8.343  0.4478 -0.1294  0.0602
 1608TIP3    H126459   6.619   3.952   8.437  2.3409 -0.4927  0.3484
 1608TIP3    H226460   6.673   3.881   8.314 -1.2993 -0.5366 -1.3658
 1609TIP3   OH226461   5.916   0.226   1.651 -0.1902 -0.5698  0.2191
 1609TIP3    H126462   5.875   0.282   1.717  1.6604  1.4038 -0.1687
 1609TIP3    H226463   5.856   0.226   1.577 -0.1062  1.2031  0.1246
 1610TIP3   OH226464   1.329   2.520   7.259  0.9763 -0.2658  0.4022
 1610TIP3    H126465   1.366   2.443   7.216  3.0594  0.2525  1.1370
 1610TIP3    H226466   1.358   2.514   7.350  0.0395  0.7119  0.7914
 1611TIP3   OH226467   3.868   5.819   0.510  0.1664  0.2498  0.6708
 1611TIP3    H126468   3.806   5.812   0.584  1.1563  0.8658  1.5820
 1611TIP3    H226469   3.923   5.894   0.532  1.7296 -0.7254  0.2600
 1612TIP3   OH226470   2.321   0.572   8.522  0.7771  0.2903 -0.4615
 1612TIP3    H126471   2.394   0.574   8.460 -0.0155 -0.1834 -1.4325
 1612TIP3    H226472   2.242   0.568   8.467  0.0642 -0.4778  0.5623
 1613TIP3   OH226473   2.402   1.946   1.920  0.5608 -0.1086  0.2349
 1613TIP3    H126474   2.396   1.867   1.974  0.0347 -0.2128  0.0314
 1613TIP3    H226475   2.317   1.951   1.875  1.4114 -0.7028 -1.5322
 1614TIP3   OH226476   5.989   3.733   0.588 -0.4580 -0.3597 -0.4064
 1614TIP3    H126477   5.994   3.657   0.530  1.3954 -1.1145  0.6572
 1614TIP3    H226478   6.069   3.728   0.641 -0.4629  2.1249 -0.0390
 1615TIP3   OH226479   2.950   1.957   0.808  0.5360 -0.8971  0.6315
 1615TIP3    H126480   2.978   1.894   0.740 -0.2701 -0.6097  0.0254
 1615TIP3    H226481   2.869   1.994   0.775 -0.3572 -1.3976  2.1820
 1616TIP3   OH226482   0.449   4.620   1.126  0.0002  0.6840 -0.3702
 1616TIP3    H126483   0.448   4.543   1.183 -0.2456  0.0411 -1.2222
 1616TIP3    H226484   0.496   4.591   1.048 -1.0964  1.0241 -1.1918
 1617TIP3   OH226485   5.139   2.789   1.135 -0.0309 -0.0190 -0.2475
 1617TIP3    H126486   5.226   2.760   1.108  0.5350 -0.4837  1.8727
 1617TIP3    H226487   5.155   2.865   1.191 -0.7736 -1.2020  1.6869
 1618TIP3   OH226488   2.217   6.882   1.792 -0.2473 -0.1880 -0.2402
 1618TIP3    H126489   2.282   6.951   1.790  0.2537 -0.6233  0.4844
 1618TIP3    H226490   2.174   6.887   1.706  0.0771  0.7243 -0.3570
 1619TIP3   OH226491   1.676   1.467   7.896  0.5447 -0.0807  0.7631
 1619TIP3    H126492   1.629   1.427   7.969  2.4085 -0.5373  1.7844
 1619TIP3    H226493   1.631   1.436   7.818 -0.4299 -1.0153  1.6674
 1620TIP3   OH226494   4.025   0.450   7.050 -0.3739  0.4502  0.1368
 1620TIP3    H126495   4.030   0.382   7.118  0.2551 -0.2645 -0.6081
 1620TIP3    H226496   4.096   0.511   7.072  0.7802 -0.5492 -0.6638
 1621TIP3   OH226497   2.990   1.982   0.209 -0.0078 -0.6956  0.5753
 1621TIP3    H126498   2.922   2.038   0.171  0.9119  0.3671  0.4433
 1621TIP3    H226499   2.956   1.957   0.294 -0.4165  0.1126  0.6549
 1622TIP3   OH226500   0.929   4.579   7.474 -0.0998  0.1782 -0.5273
 1622TIP3    H126501   0.960   4.604   7.561 -2.6505  0.4723  0.4070
 1622TIP3    H226502   0.999   4.605   7.414  1.8125 -0.1896  1.4252
 1623TIP3   OH226503   5.599   4.737   1.478 -0.1191  0.9334 -0.2048
 1623TIP3    H126504   5.682   4.727   1.432  0.2133  0.1507  0.5314
 1623TIP3    H226505   5.561   4.817   1.443 -0.3735 -0.1650 -2.6031
 1624TIP3   OH226506   0.420   2.841   1.240 -0.0673  0.2822  0.3856
 1624TIP3    H126507   0.392   2.877   1.156  0.4322  0.3046  0.2210
 1624TIP3    H226508   0.378   2.895   1.306 -0.1949  0.4764  0.1449
 1625TIP3   OH226509   3.903   6.336   0.173  0.0570 -0.2127  0.0929
 1625TIP3    H126510   3.894   6.247   0.208  0.3172 -0.0078  0.7074
 1625TIP3    H226511   3.998   6.351   0.172  0.1515 -0.6555 -1.8797
 1626TIP3   OH226512   4.966   2.251   2.243 -0.3142 -0.0298  0.0985
 1626TIP3    H126513   4.967   2.320   2.308 -0.3687 -0.5102  0.6174
 1626TIP3    H226514   4.884   2.263   2.196 -0.2203  0.3880  0.0429
 1627TIP3   OH226515   4.730   2.187   6.643  0.2042  0.7714  0.9450
 1627TIP3    H126516   4.712   2.114   6.584  0.9873  0.3236  1.2445
 1627TIP3    H226517   4.663   2.252   6.623 -0.0903  0.2441  0.2071
 1628TIP3   OH226518   0.721   2.605   1.617  0.1318 -0.7287 -0.0837
 1628TIP3    H126519   0.649   2.610   1.681  1.4913  0.7889  1.4297
 1628TIP3    H226520   0.737   2.511   1.607 -0.4276 -1.0300  1.4912
 1629TIP3   OH226521   4.394   4.199   8.113  0.4940  0.1203 -0.5813
 1629TIP3    H126522   4.327   4.223   8.049 -0.3579  1.1336  0.6311
 1629TIP3    H226523   4.413   4.107   8.095 -1.5447 -0.3250 -0.7186
 1630TIP3   OH226524   1.116   5.568   1.198  0.3612 -0.4283 -0.2601
 1630TIP3    H126525   1.061   5.491   1.206  0.7015 -0.7868 -1.2712
 1630TIP3    H226526   1.124   5.583   1.104  1.2130  0.1662 -0.1079
 1631TIP3   OH226527   2.890   2.767   7.099  0.4033  0.7213  0.2894
 1631TIP3    H126528   2.907   2.674   7.086 -1.4295  0.2425  1.0501
 1631TIP3    H226529   2.967   2.811   7.062  0.3139 -0.9781 -2.1387
 1632TIP3   OH226530   5.696   0.321   6.541 -0.5803 -0.1108  0.1649
 1632TIP3    H126531   5.760   0.261   6.502  0.6277  0.8788  0.5836
 1632TIP3    H226532   5.701   0.303   6.635  0.2831  1.0737  0.3709
 1633TIP3   OH226533   1.233   6.140   5.915 -0.5144 -0.3086  0.6094
 1633TIP3    H126534   1.305   6.080   5.937 -1.4708 -0.9541  2.2283
 1633TIP3    H226535   1.262   6.225   5.948 -0.5797 -0.6235  1.5219
 1634TIP3   OH226536   6.670   6.660   0.762  0.5479  0.7870  0.1475
 1634TIP3    H126537   6.646   6.752   0.762  1.3646  1.0400  2.0602
 1634TIP3    H226538   6.655   6.630   0.851  2.1335 -0.4095  0.0737
 1635TIP3   OH226539   6.178   4.155   7.669  0.7102  0.1426 -0.6019
 1635TIP3    H126540   6.260   4.191   7.637  0.1847  2.6067  0.6240
 1635TIP3    H226541   6.181   4.168   7.764 -1.9712  2.4102 -0.7054
 1636TIP3   OH226542   2.072   6.125   8.538  0.6962 -0.2569  0.2384
 1636TIP3    H126543   2.115   6.208   8.559  2.2851 -1.0094  0.1541
 1636TIP3    H226544   2.118   6.061   8.593 -0.8002 -1.0252  0.6320
 1637TIP3   OH226545   1.580   0.473   6.513  0.1191  0.3684  0.1141
 1637TIP3    H126546   1.556   0.404   6.575  2.8876  0.9074  1.9988
 1637TIP3    H226547   1.597   0.427   6.431  1.2086 -1.1549  1.1347
 1638TIP3   OH226548   5.016   2.267   1.371  0.3824  0.3347 -0.5416
 1638TIP3    H126549   5.068   2.252   1.451 -0.9316 -1.3545  0.0354
 1638TIP3    H226550   5.030   2.360   1.352  0.9102  0.7445  1.5319
 1639TIP3   OH226551   2.382   4.196   6.441  0.2276 -0.7682  0.3116
 1639TIP3    H126552   2.353   4.263   6.503  0.4785 -2.2061  2.0631
 1639TIP3    H226553   2.475   4.214   6.428 -0.0261  0.0974 -0.4172
 1640TIP3   OH226554   1.773   2.804   7.383 -0.3030 -0.3904  0.0767
 1640TIP3    H126555   1.754   2.715   7.354  0.9584 -0.7003  0.1508
 1640TIP3    H226556   1.743   2.859   7.311 -1.5691 -0.8283  0.2483
 1641TIP3   OH226557   2.433   6.387   0.218 -0.2997  0.3004 -0.2032
 1641TIP3    H126558   2.372   6.461   0.223  2.1600  2.4629 -0.0575
 1641TIP3    H226559   2.510   6.416   0.267  2.0091 -1.0666 -2.7561
 1642TIP3   OH226560   1.941   4.674   0.547 -0.1433 -0.5353  0.0191
 1642TIP3    H126561   2.013   4.649   0.489 -1.2335  0.8412 -2.0845
 1642TIP3    H226562   1.981   4.733   0.611  0.4054  1.8401 -2.3145
 1643TIP3   OH226563   6.624   4.206   0.999 -0.1363  0.2425  0.2262
 1643TIP3    H126564   6.535   4.170   1.006 -0.6178  0.8009 -2.1284
 1643TIP3    H226565   6.669   4.147   0.938  0.4466  1.1256 -0.2140
 1644TIP3   OH226566   4.675   6.653   7.640  0.1318  0.0524 -0.1379
 1644TIP3    H126567   4.597   6.692   7.680 -0.9770 -1.0523 -1.1232
 1644TIP3    H226568   4.694   6.709   7.565 -1.3647 -1.1496 -1.4622
 1645TIP3   OH226569   2.851   1.075   8.383  0.0833  0.0835 -0.0305
 1645TIP3    H126570   2.768   1.077   8.431  0.2741 -0.1156  0.3152
 1645TIP3    H226571   2.862   1.164   8.350 -0.2760  0.1057 -0.0930
 1646TIP3   OH226572   1.730   0.319   0.178 -0.4682  0.3985  0.4448
 1646TIP3    H126573   1.637   0.294   0.176 -0.8997  1.9284 -0.9840
 1646TIP3    H226574   1.776   0.237   0.191 -1.9627 -0.6199 -0.3667
 1647TIP3   OH226575   5.896   0.528   7.414  0.1616 -0.5163 -0.3506
 1647TIP3    H126576   5.916   0.445   7.372  0.6224  0.2379 -1.6856
 1647TIP3    H226577   5.816   0.558   7.370 -0.1832 -0.3881  0.3456
 1648TIP3   OH226578   5.689   0.335   6.819  0.3103  0.4716 -0.0995
 1648TIP3    H126579   5.613   0.383   6.854 -0.1741 -0.8812  0.8099
 1648TIP3    H226580   5.744   0.403   6.780 -0.5884  1.6968  0.6603
 1649TIP3   OH226581   3.210   6.368   1.141  0.4014  0.8992  0.2598
 1649TIP3    H126582   3.159   6.448   1.151  1.5781  1.8740 -1.0079
 1649TIP3    H226583   3.299   6.393   1.164  0.7302 -0.1379  0.1851
 1650TIP3   OH226584   1.755   1.364   6.864  0.5065 -0.4588  0.5782
 1650TIP3    H126585   1.841   1.392   6.896  0.1107  0.6668  0.6874
 1650TIP3    H226586   1.759   1.378   6.769  1.1045 -2.2445  0.3088
 1651TIP3   OH226587   5.855   3.915   1.191 -0.2041  0.1291 -0.8604
 1651TIP3    H126588   5.904   3.970   1.253 -1.7535  0.3053  0.2661
 1651TIP3    H226589   5.923   3.875   1.136  1.1626  0.7188  0.3224
 1652TIP3   OH226590   5.650   3.170   1.571  0.1134 -0.5241 -0.3838
 1652TIP3    H126591   5.574   3.111   1.573 -0.6002  0.3845 -0.2939
 1652TIP3    H226592   5.622   3.247   1.621  0.9426  0.0011 -0.7143
 1653TIP3   OH226593   0.854   2.235   0.145 -0.6035  0.2577  0.5929
 1653TIP3    H126594   0.918   2.164   0.138 -2.2083 -1.1472 -0.8585
 1653TIP3    H226595   0.818   2.226   0.234  0.7977  0.7719  1.2517
 1654TIP3   OH226596   1.226   2.987   8.100 -0.4464 -0.3469 -0.0119
 1654TIP3    H126597   1.147   2.962   8.147  0.4864 -0.7062  1.4194
 1654TIP3    H226598   1.227   2.931   8.022 -0.6354 -1.6841  0.9270
 1655TIP3   OH226599   5.659   5.055   7.061 -0.0584 -0.1164  0.0992
 1655TIP3    H126600   5.743   5.061   7.107  0.0765  1.0103 -0.2402
 1655TIP3    H226601   5.683   5.053   6.968 -0.3805 -0.8289  0.0232
 1656TIP3   OH226602   1.110   3.755   2.091  0.2020  0.0408  0.2749
 1656TIP3    H126603   1.023   3.718   2.082  0.5298 -0.5250 -0.7920
 1656TIP3    H226604   1.101   3.822   2.159 -1.4257  1.0730 -0.8585
 1657TIP3   OH226605   0.537   3.489   8.432  0.1251 -0.5335 -0.2620
 1657TIP3    H126606   0.533   3.579   8.402 -1.6373 -0.7078 -0.6990
 1657TIP3    H226607   0.547   3.496   8.527 -0.5040  0.1531 -0.2339
 1658TIP3   OH226608   3.030   1.100   6.153  0.1512  0.4717 -0.0254
 1658TIP3    H126609   2.946   1.144   6.140 -0.5527 -0.4806  1.1476
 1658TIP3    H226610   3.012   1.008   6.132  1.5342  0.6102 -2.1676
 1659TIP3   OH226611   2.654   2.170   0.902  0.6692  0.4040  0.6922
 1659TIP3    H126612   2.671   2.107   0.832  0.6938  0.4750  0.6339
 1659TIP3    H226613   2.711   2.143   0.974  1.8503  1.2755  0.1229
 1660TIP3   OH226614   1.397   4.009   5.962  0.1556  0.6468  0.7348
 1660TIP3    H126615   1.366   4.013   6.053  0.0700 -0.5878  0.7753
 1660TIP3    H226616   1.327   3.963   5.915  0.2409  1.2018  0.0524
 1661TIP3   OH226617   5.479   6.512   7.264  0.3193 -0.2515  0.0807
 1661TIP3    H126618   5.429   6.573   7.319  0.0991  1.7747 -2.1740
 1661TIP3    H226619   5.413   6.453   7.228  0.2553 -0.6298  0.8056
 1662TIP3   OH226620   4.180   0.717   7.363 -0.5745  0.0076  0.6160
 1662TIP3    H126621   4.088   0.689   7.369 -0.9407  0.8509 -0.5699
 1662TIP3    H226622   4.180   0.782   7.292  0.5149  1.8356  2.2085
 1663TIP3   OH226623   6.217   0.683   7.608  0.1021 -0.5025  0.1517
 1663TIP3    H126624   6.173   0.631   7.541 -1.6495 -0.9626  1.5867
 1663TIP3    H226625   6.160   0.759   7.621  1.1094  0.2738  0.1870
 1664TIP3   OH226626   3.443   5.727   7.267  0.4450  0.0428  0.3110
 1664TIP3    H126627   3.430   5.818   7.240 -1.3059  0.0939  1.1960
 1664TIP3    H226628   3.441   5.677   7.186 -0.9740  0.5631  0.0043
 1665TIP3   OH226629   3.378   5.160   0.030  0.1512  0.4723 -0.2120
 1665TIP3    H126630   3.419   5.082  -0.009  0.0382  0.6779 -0.7424
 1665TIP3    H226631   3.443   5.191   0.093  0.1573 -0.1058  0.0756
 1666TIP3   OH226632   3.415   3.566   1.833  0.5781 -0.1902 -0.1363
 1666TIP3    H126633   3.334   3.565   1.884 -0.2190 -1.3321 -1.3501
 1666TIP3    H226634   3.430   3.658   1.812 -1.2223 -0.0612 -1.0839
 1667TIP3   OH226635   6.487   4.173   8.040 -0.2437 -0.3177 -0.1569
 1667TIP3    H126636   6.565   4.223   8.063 -1.0002  0.8516 -0.0456
 1667TIP3    H226637   6.520   4.100   7.988  0.7270  1.4982 -2.2561
 1668TIP3   OH226638   1.013   5.788   6.767 -0.2057  0.5147 -0.8634
 1668TIP3    H126639   1.040   5.844   6.840 -1.5351 -0.4334  0.4142
 1668TIP3    H226640   0.989   5.850   6.698 -0.0904  1.4783 -0.0697
 1669TIP3   OH226641   5.828   6.674   8.184 -0.4191 -0.4497 -0.0286
 1669TIP3    H126642   5.793   6.701   8.099  0.1889 -1.1786 -0.5296
 1669TIP3    H226643   5.920   6.702   8.181 -0.7493  0.8504  0.9970
 1670TIP3   OH226644   4.416   1.096   6.849 -0.3136  0.2348  0.5472
 1670TIP3    H126645   4.392   1.114   6.759 -2.7539  2.0265  1.4456
 1670TIP3    H226646   4.334   1.068   6.891  0.3586  1.0359  2.5380
 1671TIP3   OH226647   0.191   3.920   0.188 -0.6014  0.4423  0.3837
 1671TIP3    H126648   0.249   3.914   0.263 -1.5056 -0.1850  1.0515
 1671TIP3    H226649   0.232   3.865   0.121  0.6579  1.6865  0.0767
 1672TIP3   OH226650   5.044   6.351   8.209  0.6647 -0.3309  0.2926
 1672TIP3    H126651   5.039   6.419   8.143 -0.4016 -0.0692  0.6249
 1672TIP3    H226652   5.071   6.273   8.162  0.8999  0.0917 -0.2712
 1673TIP3   OH226653   6.753   1.659   8.132  0.2663  0.3054  0.2562
 1673TIP3    H126654   6.725   1.723   8.197 -0.7280  1.0764 -0.9069
 1673TIP3    H226655   6.843   1.684   8.111 -0.6995  2.5665 -1.5803
 1674TIP3   OH226656   6.517   5.304   7.741  0.9005  0.7948  0.5702
 1674TIP3    H126657   6.596   5.355   7.757  2.5033 -0.7200 -1.8314
 1674TIP3    H226658   6.531   5.265   7.655 -1.7788 -0.8237  0.7565
 1675TIP3   OH226659   0.119   1.513   0.257 -0.4596  0.3526  0.2676
 1675TIP3    H126660   0.164   1.434   0.228  0.4000  1.0559 -0.4067
 1675TIP3    H226661   0.042   1.519   0.200 -1.2009 -0.6307  1.1398
 1676TIP3   OH226662   2.915   4.650   7.055 -0.5146 -0.0512 -1.0575
 1676TIP3    H126663   2.847   4.711   7.026  0.7255  1.3998 -1.0229
 1676TIP3    H226664   2.952   4.615   6.974  0.8756  1.6669 -1.2124
 1677TIP3   OH226665   6.077   1.983   0.192  0.0315 -0.2933 -0.3949
 1677TIP3    H126666   6.055   1.909   0.135  0.5910 -1.1086  0.4142
 1677TIP3    H226667   6.124   1.943   0.265 -0.4562  0.7514  0.5188
 1678TIP3   OH226668   4.901   2.684   1.024  0.3401 -0.0365 -0.3499
 1678TIP3    H126669   4.985   2.711   1.060  1.6388 -2.3024 -1.4614
 1678TIP3    H226670   4.861   2.632   1.093 -0.6140  1.7115  0.4951
 1679TIP3   OH226671   1.662   3.401   7.387  0.2838  0.1799 -0.2552
 1679TIP3    H126672   1.707   3.328   7.429  0.0053  0.6840  0.9831
 1679TIP3    H226673   1.731   3.466   7.372  0.1264  0.6909  1.0491
 1680TIP3   OH226674   5.658   6.850   1.005  0.2549  0.7085  0.5289
 1680TIP3    H126675   5.582   6.811   0.962 -0.4850  2.7097 -0.0729
 1680TIP3    H226676   5.710   6.888   0.934  0.8981  0.9103  1.0913
 1681TIP3   OH226677   5.579   5.897   0.373  0.4372 -0.7224 -0.1017
 1681TIP3    H126678   5.630   5.973   0.346  1.3063 -1.1025  0.4401
 1681TIP3    H226679   5.628   5.859   0.446 -0.0630 -1.7082 -0.2530
 1682TIP3   OH226680   1.126   6.272   6.323  0.0112 -0.3549 -0.6093
 1682TIP3    H126681   1.108   6.181   6.300  0.9646 -0.4973 -0.8112
 1682TIP3    H226682   1.039   6.310   6.338 -0.4731 -0.9456 -1.8135
 1683TIP3   OH226683   6.667   4.262   0.588  0.2454 -0.2837 -0.1225
 1683TIP3    H126684   6.733   4.251   0.657  0.2108 -1.3661 -0.2547
 1683TIP3    H226685   6.634   4.351   0.602  2.7396  0.8581 -0.9333
 1684TIP3   OH226686   4.012   1.182   6.971  0.0955 -0.0158  0.1138
 1684TIP3    H126687   4.041   1.227   6.892  1.3728 -0.2753  0.4119
 1684TIP3    H226688   4.023   1.247   7.041 -0.9401  0.1823  0.1159
 1685TIP3   OH226689   5.064   0.938   0.516 -0.4397  0.2918 -0.7227
 1685TIP3    H126690   4.978   0.897   0.527 -0.6408  0.7952 -0.3370
 1685TIP3    H226691   5.080   0.934   0.422 -0.9925  0.3886 -0.8291
 1686TIP3   OH226692   5.715   3.910   7.394  0.3370  0.2415  0.4109
 1686TIP3    H126693   5.633   3.951   7.423 -0.3185 -0.3141 -0.6117
 1686TIP3    H226694   5.714   3.918   7.299  0.3889 -1.7302  0.2027
 1687TIP3   OH226695   3.165   1.713   7.530 -0.1877  0.2903 -0.1352
 1687TIP3    H126696   3.142   1.622   7.546 -1.6025  0.3003 -1.7902
 1687TIP3    H226697   3.166   1.754   7.617  1.4265 -1.4616  0.7287
 1688TIP3   OH226698   6.448   2.671   0.482  0.0534  0.2830 -0.0303
 1688TIP3    H126699   6.517   2.716   0.532  1.8984 -2.1149 -0.2129
 1688TIP3    H226700   6.438   2.587   0.527 -1.2165 -0.2822 -1.3181
 1689TIP3   OH226701   5.114   5.793   8.240 -0.0966  0.2660 -0.3535
 1689TIP3    H126702   5.192   5.746   8.268 -0.8827 -2.0206 -1.7515
 1689TIP3    H226703   5.135   5.827   8.154 -0.0976  1.1216 -0.0295
 1690TIP3   OH226704   3.502   2.238   0.365 -0.4608 -0.3156 -0.4673
 1690TIP3    H126705   3.407   2.250   0.359 -0.3616  1.0268  0.3373
 1690TIP3    H226706   3.515   2.146   0.341 -1.8736 -0.3184 -1.3832
 1691TIP3   OH226707   2.651   2.270   7.677  0.0785 -0.0160  0.1392
 1691TIP3    H126708   2.660   2.182   7.713 -1.1899  0.4934  1.8211
 1691TIP3    H226709   2.740   2.295   7.653  0.3838 -1.9644 -0.9611
 1692TIP3   OH226710   6.541   0.484   1.955  0.2995 -0.1173 -0.0738
 1692TIP3    H126711   6.576   0.491   2.044 -0.7806  1.3191  0.2795
 1692TIP3    H226712   6.533   0.575   1.925  0.9368 -0.5893 -1.7702
 1693TIP3   OH226713   6.634   1.517   1.516 -0.0342  0.0809 -0.0062
 1693TIP3    H126714   6.620   1.558   1.602  0.5429  0.1646  0.0533
 1693TIP3    H226715   6.613   1.586   1.453 -1.2107 -0.2189  0.0476
 1694TIP3   OH226716   2.638   5.538   6.249  0.5576 -0.4353  0.7853
 1694TIP3    H126717   2.544   5.523   6.264  0.7538 -1.8212  0.7912
 1694TIP3    H226718   2.678   5.453   6.267  1.7993  0.1023  0.6066
 1695TIP3   OH226719   4.473   4.126   1.177 -0.0365 -0.0107 -0.1754
 1695TIP3    H126720   4.381   4.124   1.205 -0.1139  0.8968 -0.3356
 1695TIP3    H226721   4.521   4.092   1.253 -0.5081 -0.5789 -0.1238
 1696TIP3   OH226722   5.610   5.302   8.281  0.2059  0.1874  0.4579
 1696TIP3    H126723   5.595   5.208   8.266 -0.2552  0.2875  0.2592
 1696TIP3    H226724   5.646   5.334   8.198 -0.9800  0.4562  0.0189
 1697TIP3   OH226725   6.634   0.128   0.501 -0.3255  0.0552 -0.1261
 1697TIP3    H126726   6.547   0.111   0.538  0.0709 -0.7026  0.4801
 1697TIP3    H226727   6.617   0.168   0.416 -1.2811 -2.3267 -1.1075
 1698TIP3   OH226728   1.167   3.680   6.442 -0.3914  0.0161 -0.3176
 1698TIP3    H126729   1.196   3.720   6.524  1.3278 -3.1381  0.7730
 1698TIP3    H226730   1.072   3.675   6.450 -0.4506  1.6122  0.5057
 1699TIP3   OH226731   0.821   4.978   1.760 -0.3160 -0.4659  0.3796
 1699TIP3    H126732   0.756   4.944   1.699  2.0752 -1.5084 -1.7968
 1699TIP3    H226733   0.776   5.049   1.806 -3.5784 -2.4293  0.5516
 1700TIP3   OH226734   2.243   1.345   6.709 -0.1619  0.4790  0.4496
 1700TIP3    H126735   2.156   1.308   6.695  0.6241 -1.6663  0.8839
 1700TIP3    H226736   2.280   1.353   6.621  0.2628 -1.4076  0.4235
 1701TIP3   OH226737   2.547   1.493   0.516  0.5345 -0.7077  0.2425
 1701TIP3    H126738   2.458   1.486   0.481  0.8130 -0.2680 -0.5986
 1701TIP3    H226739   2.573   1.403   0.535  0.5599 -1.0417 -1.2205
 1702TIP3   OH226740   5.336   2.253   1.818  0.3980 -0.1040 -0.6827
 1702TIP3    H126741   5.371   2.279   1.903  1.7195 -1.7415 -0.6759
 1702TIP3    H226742   5.398   2.287   1.755 -0.3391  0.7127 -0.9842
 1703TIP3   OH226743   5.551   2.569   1.925 -0.3970  0.1035  0.3817
 1703TIP3    H126744   5.538   2.514   2.003  0.2585  0.4799  0.7644
 1703TIP3    H226745   5.467   2.613   1.913 -1.1899 -1.5190 -0.3693
 1704TIP3   OH226746   2.802   0.029   0.744 -0.6549  0.0018 -0.3515
 1704TIP3    H126747   2.802   0.008   0.837  1.5894 -0.2779 -0.3521
 1704TIP3    H226748   2.762   0.116   0.739  1.8243  1.3463  1.2919
 1705TIP3   OH226749   3.769   5.326   7.385 -0.3670 -0.0568  0.1361
 1705TIP3    H126750   3.841   5.321   7.322 -0.8252 -1.7658 -0.3219
 1705TIP3    H226751   3.729   5.411   7.368  2.5614  1.7823  1.6318
 1706TIP3   OH226752   5.963   2.833   0.041  0.0622  0.4367  0.9909
 1706TIP3    H126753   5.970   2.902  -0.025 -0.3042 -0.4220  0.0125
 1706TIP3    H226754   5.991   2.754  -0.005  0.2435 -0.1110  2.0129
 1707TIP3   OH226755   4.933   2.540   7.331  0.6572  0.0942  0.1906
 1707TIP3    H126756   4.998   2.605   7.359  0.6587  1.1012 -1.9266
 1707TIP3    H226757   4.981   2.457   7.331  1.1112  0.3336  1.3963
 1708TIP3   OH226758   0.370   1.721   7.233 -0.0510 -0.3340  0.4870
 1708TIP3    H126759   0.304   1.701   7.167  1.2924 -0.9626 -0.7280
 1708TIP3    H226760   0.419   1.640   7.245 -1.9900 -1.1540  4.4668
 1709TIP3   OH226761   4.904   6.278   1.574 -0.3753 -0.1219 -0.3372
 1709TIP3    H126762   4.836   6.240   1.518 -1.5005  0.4967  0.5658
 1709TIP3    H226763   4.981   6.284   1.517 -0.9279 -1.2775 -1.2456
 1710TIP3   OH226764   5.817   2.907   7.419  0.3306  0.0411 -0.7224
 1710TIP3    H126765   5.756   2.897   7.492 -1.4602 -4.1150 -2.4624
 1710TIP3    H226766   5.902   2.881   7.454  0.1192  0.9204  0.5048
 1711TIP3   OH226767   1.451   5.412   7.496  0.1979  0.1520  0.0669
 1711TIP3    H126768   1.490   5.360   7.566 -0.3173 -2.1629 -1.2521
 1711TIP3    H226769   1.359   5.388   7.496 -0.0405  0.9862 -0.6981
 1712TIP3   OH226770   4.359   4.838   8.467 -0.6209  0.3390  0.6245
 1712TIP3    H126771   4.420   4.868   8.400  0.3834 -1.5201  0.6694
 1712TIP3    H226772   4.297   4.782   8.421 -1.8891  1.5701  0.7287
 1713TIP3   OH226773   4.223   6.194   6.006  0.4728 -0.2471 -0.4938
 1713TIP3    H126774   4.144   6.210   5.953  0.8563  0.4309 -0.8733
 1713TIP3    H226775   4.224   6.099   6.019 -0.2504 -0.2959 -0.7333
 1714TIP3   OH226776   4.299   0.423   7.988 -1.1425  0.2724 -0.4510
 1714TIP3    H126777   4.324   0.424   7.895 -0.1892 -0.8290 -0.2218
 1714TIP3    H226778   4.374   0.461   8.033 -1.5033  0.5716 -0.1017
 1715TIP3   OH226779   0.154   3.441   0.995  0.1340  0.0242 -0.0064
 1715TIP3    H126780   0.182   3.532   0.983  1.6422 -0.4343 -0.1762
 1715TIP3    H226781   0.210   3.409   1.066 -0.6378 -0.6758  0.2970
 1716TIP3   OH226782   6.728   3.842   1.734 -0.0813 -0.0983  0.2850
 1716TIP3    H126783   6.792   3.777   1.760  0.5772  0.8784  1.1782
 1716TIP3    H226784   6.703   3.817   1.645  0.1596 -1.5450  0.5986
 1717TIP3   OH226785   3.915   0.151   6.757  0.2073  0.2413 -0.9901
 1717TIP3    H126786   3.993   0.097   6.766 -1.0625 -1.6952 -0.8586
 1717TIP3    H226787   3.946   0.241   6.766  2.0540 -0.5442  1.5449
 1718TIP3   OH226788   6.440   4.565   7.953  0.7438  0.0840  0.2229
 1718TIP3    H126789   6.414   4.648   7.994  1.1532  1.1143 -1.5207
 1718TIP3    H226790   6.367   4.506   7.972 -0.4122  1.3751 -0.0515
 1719TIP3   OH226791   3.632   0.187   0.129 -0.4215 -0.2350  0.2448
 1719TIP3    H126792   3.620   0.241   0.207  0.5050  1.1502 -0.5468
 1719TIP3    H226793   3.544   0.179   0.092 -1.0227 -1.5930  1.8163
 1720TIP3   OH226794   4.829   6.796   7.984 -0.1572  0.4377  0.3789
 1720TIP3    H126795   4.818   6.779   8.077 -1.2566  1.9192  0.5582
 1720TIP3    H226796   4.920   6.821   7.974 -0.6585  3.0430  1.5809
 1721TIP3   OH226797   2.401   0.794   7.769 -0.4368  0.0371 -0.4043
 1721TIP3    H126798   2.391   0.700   7.783 -0.1135 -0.0788 -0.9037
 1721TIP3    H226799   2.483   0.802   7.720  0.1930  0.6764  0.7172
 1722TIP3   OH226800   1.206   2.364   6.954 -0.5661 -0.5560 -0.0960
 1722TIP3    H126801   1.165   2.444   6.922  0.1409  0.8394  2.2669
 1722TIP3    H226802   1.299   2.374   6.933 -0.6056 -1.2607 -0.6773
 1723TIP3   OH226803   1.596   6.125   1.351  0.4271  0.4893  0.3221
 1723TIP3    H126804   1.591   6.093   1.261  0.7738  0.3082  0.3644
 1723TIP3    H226805   1.578   6.048   1.405  0.9499  0.4307  0.4185
 1724TIP3   OH226806   1.687   0.479   6.995  0.5847  0.0694  0.5115
 1724TIP3    H126807   1.732   0.554   7.034  1.2653  0.0248 -0.1489
 1724TIP3    H226808   1.754   0.439   6.939 -0.0454 -0.4921  0.1552
 1725TIP3   OH226809   0.431   6.178   0.415  0.8027 -0.1045  0.3980
 1725TIP3    H126810   0.480   6.128   0.349 -0.1140  0.2516 -0.5917
 1725TIP3    H226811   0.468   6.266   0.411 -1.5001  0.9157 -2.2537
 1726TIP3   OH226812   6.685   3.911   6.467  0.3383 -0.2151  0.2819
 1726TIP3    H126813   6.671   3.816   6.465  0.6112 -0.2403 -0.8424
 1726TIP3    H226814   6.759   3.926   6.408 -1.4004  0.9685 -1.7127
 1727TIP3   OH226815   0.691   2.639   7.185 -0.5295  0.2235  0.3955
 1727TIP3    H126816   0.713   2.731   7.167  1.1107 -0.3036 -0.5839
 1727TIP3    H226817   0.741   2.590   7.120 -2.5046 -1.3221 -0.0520
 1728TIP3   OH226818   3.671   1.874   8.274  0.0721  0.4631  0.4746
 1728TIP3    H126819   3.737   1.876   8.343 -1.5765  1.1866  2.1198
 1728TIP3    H226820   3.602   1.934   8.305 -0.6921  0.8926 -1.8530
 1729TIP3   OH226821   6.826   4.478   6.649  0.0540 -0.2189 -0.6402
 1729TIP3    H126822   6.868   4.392   6.640  0.0224 -0.3234  0.1299
 1729TIP3    H226823   6.775   4.472   6.730  0.4570  0.6851 -0.2985
 1730TIP3   OH226824   1.519   2.325   7.897  0.2163 -0.3600 -0.0830
 1730TIP3    H126825   1.447   2.384   7.877  0.4683 -0.1206 -0.2966
 1730TIP3    H226826   1.484   2.266   7.964 -0.0998 -0.0948 -0.0116
 1731TIP3   OH226827   4.635   2.170   8.481 -0.1347 -1.4825  0.0227
 1731TIP3    H126828   4.599   2.087   8.448 -0.3304 -1.6026  0.5328
 1731TIP3    H226829   4.575   2.196   8.551 -0.9093 -0.1697 -1.0654
 1732TIP3   OH226830   2.661   6.107   0.409  0.3149  0.5813 -0.3356
 1732TIP3    H126831   2.718   6.180   0.384 -0.1126  1.8604  2.0743
 1732TIP3    H226832   2.615   6.084   0.329  0.5603  2.8983 -1.2209
 1733TIP3   OH226833   2.338   5.164   1.513  0.3553  0.2168 -0.1761
 1733TIP3    H126834   2.256   5.148   1.560  0.4300  2.7202  0.9486
 1733TIP3    H226835   2.311   5.176   1.422 -0.7422  2.1235  0.3462
 1734TIP3   OH226836   5.415   2.985   6.418  0.0282  0.4672  0.1421
 1734TIP3    H126837   5.385   3.075   6.424 -0.6950  0.2518 -0.0170
 1734TIP3    H226838   5.348   2.942   6.363 -0.1119 -0.3543  0.9288
 1735TIP3   OH226839   5.680   2.539   2.232  0.0444 -0.2784  0.4482
 1735TIP3    H126840   5.749   2.564   2.170 -0.5180  0.7900  0.2203
 1735TIP3    H226841   5.680   2.444   2.233  1.4861 -0.2913  0.4116
 1736TIP3   OH226842   3.714   5.571   6.566 -0.4306  0.8698  0.0185
 1736TIP3    H126843   3.710   5.478   6.588 -0.2665  0.4385 -1.6461
 1736TIP3    H226844   3.636   5.587   6.513  0.1523  1.3800 -0.7176
 1737TIP3   OH226845   1.703   6.425   8.217  0.3815 -0.0345 -0.1566
 1737TIP3    H126846   1.680   6.516   8.230  1.9363  0.6436 -1.6776
 1737TIP3    H226847   1.661   6.378   8.289  0.0054  1.9431  0.9715
 1738TIP3   OH226848   5.145   6.887   0.146 -0.3223 -0.4725 -0.1862
 1738TIP3    H126849   5.109   6.972   0.121  2.2777  1.3058  1.6181
 1738TIP3    H226850   5.080   6.851   0.207 -0.7243  0.9658  0.2763
 1739TIP3   OH226851   1.276   6.093   8.603 -0.1796 -0.4601 -0.2664
 1739TIP3    H126852   1.345   6.158   8.617 -0.1381 -0.5205 -0.1931
 1739TIP3    H226853   1.196   6.136   8.634 -0.2507 -0.2186 -0.7650
 1740TIP3   OH226854   5.262   5.050   1.588 -0.3541  0.0402 -0.5423
 1740TIP3    H126855   5.284   4.968   1.632  0.7938 -0.2689 -1.6566
 1740TIP3    H226856   5.222   5.104   1.657 -0.7215 -1.2687  0.3116
 1741TIP3   OH226857   6.020   3.039   6.586 -0.1768  0.6157 -0.4488
 1741TIP3    H126858   5.995   3.049   6.678 -1.3657  1.6468 -0.8544
 1741TIP3    H226859   5.940   3.058   6.537  0.6821  1.0828 -1.7302
 1742TIP3   OH226860   2.218   4.911   7.300 -0.0225  0.0942 -0.1094
 1742TIP3    H126861   2.235   4.823   7.268 -1.6069 -0.5860  0.8529
 1742TIP3    H226862   2.134   4.906   7.344  1.7208  1.0309  3.8071
 1743TIP3   OH226863   2.611   1.701   2.264 -0.3520  0.2732  0.5585
 1743TIP3    H126864   2.672   1.760   2.219 -0.8998 -0.6194 -1.4715
 1743TIP3    H226865   2.668   1.638   2.309  0.2538  0.3792 -0.0317
 1744TIP3   OH226866   4.843   0.783   0.581  0.1092  0.3875  0.2172
 1744TIP3    H126867   4.778   0.853   0.585 -1.2191 -0.7136 -1.1559
 1744TIP3    H226868   4.797   0.709   0.543  2.0610 -0.5835 -0.3886
 1745TIP3   OH226869   5.854   4.199   1.264  0.4896 -0.3265 -0.3231
 1745TIP3    H126870   5.800   4.159   1.332  0.2955 -0.6204 -0.6481
 1745TIP3    H226871   5.848   4.293   1.280  1.5899 -0.4396  0.9451
 1746TIP3   OH226872   1.077   3.376   6.443 -0.1851  0.5308  0.0645
 1746TIP3    H126873   1.102   3.441   6.378  1.8420  0.0772  0.3336
 1746TIP3    H226874   1.142   3.384   6.513 -2.4353  1.1824  2.2292
 1747TIP3   OH226875   4.621   1.108   0.864 -0.0128 -0.7754 -0.0227
 1747TIP3    H126876   4.533   1.100   0.829 -0.3659 -0.4540  0.7731
 1747TIP3    H226877   4.669   1.036   0.825 -0.1669  0.0298 -1.8013
 1748TIP3   OH226878   2.516   2.807   7.889  0.3979  0.1331 -0.3012
 1748TIP3    H126879   2.581   2.876   7.897 -0.1652  0.5563  0.8436
 1748TIP3    H226880   2.556   2.730   7.930  0.8842 -0.1473 -1.2602
 1749TIP3   OH226881   2.128   4.455   6.933  0.4933 -0.9714 -0.0813
 1749TIP3    H126882   2.118   4.514   6.859  1.6179 -0.0987  0.4356
 1749TIP3    H226883   2.222   4.458   6.954  0.1296 -0.8409  1.6587
 1750TIP3   OH226884   1.169   0.885   1.993 -0.4875  0.2765  0.3105
 1750TIP3    H126885   1.206   0.960   2.039  0.1957  0.7216 -0.9292
 1750TIP3    H226886   1.088   0.919   1.954  0.2914  0.6462 -1.0254
 1751TIP3   OH226887   4.964   5.415   1.408  0.2445  0.5153  0.2642
 1751TIP3    H126888   4.963   5.323   1.435  0.6529 -0.3623 -2.4834
 1751TIP3    H226889   5.054   5.443   1.423  0.8137 -0.3564 -1.2843
 1752TIP3   OH226890   5.703   2.398   6.903 -0.0286 -0.5286  0.3703
 1752TIP3    H126891   5.762   2.468   6.931  0.3889 -0.8350  0.2562
 1752TIP3    H226892   5.645   2.384   6.978  3.4894 -4.0661  2.8388
 1753TIP3   OH226893   4.719   0.918   8.123  0.2986 -0.1856 -0.7933
 1753TIP3    H126894   4.742   0.856   8.053 -0.1885 -0.0600 -1.0670
 1753TIP3    H226895   4.658   0.869   8.179 -0.1607  0.0761 -1.0623
 1754TIP3   OH226896   6.776   1.027   7.773  0.4540  0.7972  0.5936
 1754TIP3    H126897   6.698   0.978   7.749  2.9190 -1.5506 -3.8074
 1754TIP3    H226898   6.843   0.960   7.787  2.4021  2.7861  1.4119
 1755TIP3   OH226899   6.408   5.720   1.806  0.3663  0.3826 -0.1691
 1755TIP3    H126900   6.494   5.732   1.766  0.5380 -0.9446 -0.2469
 1755TIP3    H226901   6.388   5.804   1.848  2.0554  0.4644  0.5336
 1756TIP3   OH226902   3.482   2.509   0.316  0.3638  0.4658 -0.3069
 1756TIP3    H126903   3.417   2.499   0.246  0.0705  0.3091 -0.0131
 1756TIP3    H226904   3.509   2.420   0.337  0.0043  0.4719  0.1946
 1757TIP3   OH226905   6.425   5.219   6.783  0.1113 -0.2380  0.2944
 1757TIP3    H126906   6.518   5.232   6.803  0.4808 -0.8989 -0.9130
 1757TIP3    H226907   6.415   5.250   6.693 -1.1125  0.9527  0.8075
 1758TIP3   OH226908   2.216   5.484   0.590  0.1211 -0.0851 -1.0693
 1758TIP3    H126909   2.133   5.460   0.630 -0.4718  0.5145 -1.8865
 1758TIP3    H226910   2.193   5.551   0.525  1.1148 -0.5470 -1.9467
 1759TIP3   OH226911   1.017   1.515   1.546  0.1820 -0.0582  0.0094
 1759TIP3    H126912   0.961   1.581   1.587 -1.1241 -2.7605  3.1169
 1759TIP3    H226913   0.962   1.474   1.480  0.2261  0.4837 -0.3683
 1760TIP3   OH226914   6.036   6.072   0.750  0.5332 -0.8165 -0.5352
 1760TIP3    H126915   5.957   6.124   0.765  1.9595  1.7339 -1.2535
 1760TIP3    H226916   6.034   6.052   0.656  1.3567  0.4393 -0.8439
 1761TIP3   OH226917   3.586   4.149   8.527  0.3962  0.2125  0.1924
 1761TIP3    H126918   3.679   4.127   8.535  0.4352 -1.0550 -2.4488
 1761TIP3    H226919   3.542   4.093   8.591  1.3900  0.4447  1.1057
 1762TIP3   OH226920   0.524   5.078   1.097 -0.5152  0.1290 -0.8908
 1762TIP3    H126921   0.532   5.029   1.015 -0.1444 -0.1832 -0.6704
 1762TIP3    H226922   0.462   5.027   1.149 -0.4469  0.1155 -0.8229
 1763TIP3   OH226923   3.072   3.080   1.482 -0.2045 -0.9716  0.1912
 1763TIP3    H126924   3.081   2.999   1.532 -2.0006 -1.5331 -0.3150
 1763TIP3    H226925   3.140   3.075   1.415  1.9275 -0.4254  2.1940
 1764TIP3   OH226926   3.063   6.889   0.208 -0.5786 -0.7731  0.0480
 1764TIP3    H126927   2.995   6.948   0.176  0.0947 -0.3359 -0.5990
 1764TIP3    H226928   3.059   6.814   0.149  0.9129  0.1968 -1.3567
 1765TIP3   OH226929   4.885   4.560   0.122  1.1322 -0.6744 -0.0744
 1765TIP3    H126930   4.832   4.615   0.178  1.9049  0.1338 -0.1107
 1765TIP3    H226931   4.852   4.576   0.033  0.0988 -1.7394  0.0917
 1766TIP3   OH226932   4.138   3.887   7.118  0.0351  0.3873  0.2736
 1766TIP3    H126933   4.180   3.924   7.040  1.1990 -0.7825  0.3144
 1766TIP3    H226934   4.126   3.961   7.177 -1.6369  1.4737 -1.3043
 1767TIP3   OH226935   4.549   5.453   0.762  0.4279  0.7150 -0.3838
 1767TIP3    H126936   4.586   5.491   0.683  1.0689  0.4046 -0.2348
 1767TIP3    H226937   4.563   5.520   0.830  1.0211  0.4546 -0.2518
 1768TIP3   OH226938   0.869   1.636   6.348  0.0154  0.2409  0.5615
 1768TIP3    H126939   0.921   1.665   6.423  0.5241  1.4199 -0.2059
 1768TIP3    H226940   0.934   1.621   6.279 -0.4457 -0.7733  0.3424
 1769TIP3   OH226941   4.831   4.832   7.847  0.0615 -0.0199  0.2764
 1769TIP3    H126942   4.748   4.862   7.887 -0.6693  0.6171 -1.5983
 1769TIP3    H226943   4.841   4.887   7.769 -0.0819 -3.0251 -2.0473
 1770TIP3   OH226944   6.908   1.737   1.028  0.1451 -0.0022 -0.3923
 1770TIP3    H126945   6.840   1.724   0.962  0.2369 -1.4494 -0.2539
 1770TIP3    H226946   6.927   1.648   1.059 -0.8820  0.7044  2.5689
 1771TIP3   OH226947   3.777   5.303   6.515 -0.4740  0.0843  0.2149
 1771TIP3    H126948   3.725   5.242   6.568 -0.3386 -0.5336 -0.3581
 1771TIP3    H226949   3.769   5.270   6.426  1.1776 -0.2127  0.1531
 1772TIP3   OH226950   4.338   5.357   0.988 -0.1189  0.3312 -0.2414
 1772TIP3    H126951   4.400   5.296   1.027 -0.2790 -0.3225 -0.9746
 1772TIP3    H226952   4.345   5.340   0.894 -0.4728  1.1582 -0.4247
 1773TIP3   OH226953   1.364   4.248   6.778  0.6675 -0.3790 -0.4562
 1773TIP3    H126954   1.283   4.236   6.828 -0.1132 -2.0115 -1.9964
 1773TIP3    H226955   1.431   4.203   6.829 -0.1288 -2.0663 -0.8068
 1774TIP3   OH226956   0.253   6.787   7.094 -0.3038  0.1477  0.7635
 1774TIP3    H126957   0.191   6.758   7.161 -1.6244 -0.1724 -0.5285
 1774TIP3    H226958   0.201   6.845   7.037  0.6893  0.1948 -0.1210
 1775TIP3   OH226959   5.917   0.709   0.602 -0.1481 -0.0148  0.1654
 1775TIP3    H126960   5.976   0.683   0.673  0.2793  0.4726 -0.0052
 1775TIP3    H226961   5.881   0.627   0.569  0.2470 -0.2990  0.4348
 1776TIP3   OH226962   0.601   6.611   6.684 -0.8240 -0.4857 -0.4187
 1776TIP3    H126963   0.540   6.653   6.745 -1.1756 -0.9336 -0.4564
 1776TIP3    H226964   0.571   6.520   6.678 -0.4782 -0.5773 -0.8571
 1777TIP3   OH226965   3.814   1.673   0.712  0.6476  0.3004  0.2114
 1777TIP3    H126966   3.891   1.625   0.680  1.0193  0.7136  0.4853
 1777TIP3    H226967   3.840   1.706   0.798 -0.4559 -1.0839  1.1184
 1778TIP3   OH226968   4.652   1.174   0.017 -1.0287 -0.6590 -0.0564
 1778TIP3    H126969   4.591   1.125  -0.039 -0.7390  0.8057 -1.7662
 1778TIP3    H226970   4.693   1.237  -0.042  1.8101 -1.2300  1.1165
 1779TIP3   OH226971   2.734   3.003   7.084  0.1264 -0.0979 -0.1890
 1779TIP3    H126972   2.773   2.917   7.100  0.4138  0.3079  1.4519
 1779TIP3    H226973   2.681   2.991   7.005  2.8233 -0.8992 -2.0280
 1780TIP3   OH226974   2.931   4.267   0.521 -0.0146 -0.5812  0.3251
 1780TIP3    H126975   2.964   4.178   0.535 -1.0895 -0.7850  1.6665
 1780TIP3    H226976   2.945   4.311   0.605  0.3128  0.4634 -0.2646
 1781TIP3   OH226977   6.028   5.690   8.522 -0.3637  0.3508  0.6783
 1781TIP3    H126978   5.982   5.774   8.526 -0.8459  0.0944  0.5767
 1781TIP3    H226979   6.025   5.657   8.611 -0.8661  0.0806  0.5683
 1782TIP3   OH226980   1.776   0.807   0.140  0.3376  0.2978 -0.0223
 1782TIP3    H126981   1.725   0.728   0.158 -2.1697  1.4100 -1.6440
 1782TIP3    H226982   1.814   0.792   0.053 -0.1566  0.8319 -0.3414
 1783TIP3   OH226983   5.306   3.835   1.233 -0.0579 -0.1215  0.7206
 1783TIP3    H126984   5.386   3.789   1.208 -0.7196  0.4145 -2.9034
 1783TIP3    H226985   5.310   3.919   1.186 -1.7315  0.9099  2.2575
 1784TIP3   OH226986   0.979   2.097   7.371 -0.2981  0.1340 -0.0969
 1784TIP3    H126987   1.000   2.147   7.292  1.9232  0.3111  0.5385
 1784TIP3    H226988   0.966   2.164   7.439  1.1301 -0.0315  0.3940
 1785TIP3   OH226989   6.476   3.541   1.686 -0.4131  0.0414 -0.4398
 1785TIP3    H126990   6.537   3.584   1.626 -0.4986 -0.5633 -0.9665
 1785TIP3    H226991   6.485   3.448   1.667  2.0003 -0.5465  2.7170
 1786TIP3   OH226992   1.692   2.718   0.795 -0.2764  0.1734  0.0824
 1786TIP3    H126993   1.783   2.690   0.791 -0.5155 -0.6799  0.2194
 1786TIP3    H226994   1.677   2.739   0.887 -0.5926 -1.1070  0.3548
 1787TIP3   OH226995   3.482   0.062   7.834 -0.0953  0.2835 -0.1378
 1787TIP3    H126996   3.404   0.033   7.880 -0.1719 -0.7716 -0.8873
 1787TIP3    H226997   3.477   0.018   7.749  0.7583  1.0632 -0.6081
 1788TIP3   OH226998   4.745   3.494   6.673 -0.1905  0.6701 -0.3177
 1788TIP3    H126999   4.769   3.425   6.612  1.4829  0.1277  0.8704
 1788TIP3    H227000   4.706   3.562   6.619  0.5675 -0.0843 -1.8763
 1789TIP3   OH227001   5.140   5.473   7.193 -0.3273  0.0773 -0.4150
 1789TIP3    H127002   5.168   5.384   7.172  0.5205  0.1272  0.4151
 1789TIP3    H227003   5.185   5.493   7.275 -1.2931  0.9052 -0.0662
 1790TIP3   OH227004   1.839   6.115   2.640 -0.2517 -0.0398  0.2602
 1790TIP3    H127005   1.883   6.080   2.563 -1.8192 -2.3443  0.3282
 1790TIP3    H227006   1.908   6.122   2.706  0.6026 -0.5969 -0.5598
 1791TIP3   OH227007   4.017   5.535   1.654  0.2896  0.3937  0.2649
 1791TIP3    H127008   4.022   5.442   1.630  1.3469 -0.1295  2.2295
 1791TIP3    H227009   3.925   5.557   1.643  0.1128 -0.7146 -0.7922
 1792TIP3   OH227010   1.015   0.717   7.781  0.8461  0.3308  0.4859
 1792TIP3    H127011   1.035   0.629   7.812  0.1779  0.0847  0.2342
 1792TIP3    H227012   0.920   0.725   7.792  0.5921  0.2868 -1.3176
 1793TIP3   OH227013   4.555   6.773   8.081 -0.2178  0.0915  0.3673
 1793TIP3    H127014   4.532   6.682   8.063 -0.9555 -0.3753  3.2330
 1793TIP3    H227015   4.635   6.788   8.030  0.4060 -2.4321  0.4907
 1794TIP3   OH227016   3.206   5.721   0.175 -0.0869  0.0961  0.0013
 1794TIP3    H127017   3.298   5.715   0.203 -0.4143 -0.5491  0.9860
 1794TIP3    H227018   3.160   5.752   0.253 -0.7388  0.2610 -0.4459
 1795TIP3   OH227019   2.030   1.161   7.084 -0.1377 -0.0417 -0.1838
 1795TIP3    H127020   1.982   1.144   7.165  1.6251 -1.3923  0.6506
 1795TIP3    H227021   2.045   1.074   7.047 -1.1976  0.5761 -2.1838
 1796TIP3   OH227022   5.086   2.528   0.802 -0.2364 -0.4865  0.1555
 1796TIP3    H127023   5.078   2.622   0.784  1.2950 -0.7458 -2.5515
 1796TIP3    H227024   5.048   2.486   0.725  0.8055 -2.0276  0.4409
 1797TIP3   OH227025   0.261   4.842   6.281  1.1349  0.2378  0.2755
 1797TIP3    H127026   0.285   4.787   6.355  1.1792 -0.1133  0.0029
 1797TIP3    H227027   0.165   4.846   6.284  1.0967 -0.3142 -0.0260
 1798TIP3   OH227028   5.223   2.386   8.038 -0.5652 -0.1599  0.5287
 1798TIP3    H127029   5.177   2.457   7.995 -1.5071 -0.5065  0.9278
 1798TIP3    H227030   5.278   2.429   8.104 -1.6445  0.1745  1.2392
 1799TIP3   OH227031   0.197   2.396   6.655 -0.0694  0.4435 -0.5823
 1799TIP3    H127032   0.221   2.385   6.563  0.1447 -0.3756 -0.4327
 1799TIP3    H227033   0.235   2.320   6.699  2.1532  2.1480  0.6255
 1800TIP3   OH227034   5.435   2.291   0.807 -0.2843  0.4850 -0.2847
 1800TIP3    H127035   5.399   2.379   0.796 -0.0361  0.5274 -0.7759
 1800TIP3    H227036   5.370   2.233   0.768  0.5951  0.6350 -2.0968
 1801TIP3   OH227037   3.968   1.765   0.202 -0.0977  0.6766  0.0062
 1801TIP3    H127038   4.002   1.834   0.259 -0.7945  0.5657  0.5739
 1801TIP3    H227039   3.917   1.709   0.260 -0.5585  0.3832 -0.6684
 1802TIP3   OH227040   0.032   3.933   6.828 -0.5064  0.0533 -0.1266
 1802TIP3    H127041   0.016   3.894   6.742  0.9655 -0.0119 -0.3849
 1802TIP3    H227042   0.127   3.938   6.836 -0.6211  0.6460  1.2419
 1803TIP3   OH227043   1.222   2.680   8.271  0.2971 -0.1492  0.6080
 1803TIP3    H127044   1.266   2.766   8.273  0.9133 -0.4674  1.2288
 1803TIP3    H227045   1.290   2.620   8.241  0.2780 -0.6372  1.5043
 1804TIP3   OH227046   4.017   1.163   2.414 -0.2631  0.5295 -0.4617
 1804TIP3    H127047   4.072   1.149   2.337  1.0530  1.8521  0.1875
 1804TIP3    H227048   4.034   1.087   2.470  0.9853  0.9348 -0.2528
 1805TIP3   OH227049   0.553   0.443   8.626 -0.0067 -0.2954  0.0162
 1805TIP3    H127050   0.535   0.368   8.569  1.5348 -0.6192 -0.0973
 1805TIP3    H227051   0.606   0.407   8.697 -1.2143  0.2637  1.2262
 1806TIP3   OH227052   2.229   5.946   0.022  0.0505  0.4983  0.2450
 1806TIP3    H127053   2.290   5.888  -0.023 -0.7247  0.1784 -0.4036
 1806TIP3    H227054   2.160   5.889   0.055 -0.8265  1.0540 -0.5750
 1807TIP3   OH227055   4.678   0.284   8.174  0.1476  0.5588 -0.1039
 1807TIP3    H127056   4.735   0.333   8.234  1.4816 -0.1922 -0.7122
 1807TIP3    H227057   4.630   0.225   8.231  4.2988 -3.1132  0.1395
 1808TIP3   OH227058   1.280   3.697   8.352  0.4018  0.0474  0.1724
 1808TIP3    H127059   1.267   3.604   8.370 -0.5792  0.0468 -0.4119
 1808TIP3    H227060   1.370   3.703   8.321  0.1902 -0.8804 -0.7051
 1809TIP3   OH227061   5.894   3.569   1.186  0.0484  0.2315  0.9858
 1809TIP3    H127062   5.879   3.477   1.208  0.0003 -0.0326 -0.0789
 1809TIP3    H227063   5.831   3.587   1.115 -0.0926  1.1497  1.3259
 1810TIP3   OH227064   4.941   5.124   1.445  0.1820 -0.2314 -0.2173
 1810TIP3    H127065   4.898   5.093   1.525  3.0049 -1.2320  1.0633
 1810TIP3    H227066   4.993   5.050   1.415  1.6693  1.1026 -1.1283
 1811TIP3   OH227067   3.646   5.189   6.948 -0.2411  0.5566  0.8540
 1811TIP3    H127068   3.615   5.170   6.859 -0.6195 -1.7693  1.4194
 1811TIP3    H227069   3.667   5.282   6.946 -1.8094  0.9561 -1.2004
 1812TIP3   OH227070   3.065   2.610   7.927  0.0381 -0.6497  0.3552
 1812TIP3    H127071   3.043   2.621   7.834 -2.7832  0.9342  1.0603
 1812TIP3    H227072   3.090   2.518   7.936  0.8981 -0.7011 -2.0424
 1813TIP3   OH227073   3.316   6.913   8.035 -0.6654  0.0810  0.6157
 1813TIP3    H127074   3.243   6.964   8.071 -0.3178 -0.1536  1.6613
 1813TIP3    H227075   3.302   6.824   8.066  0.3303  0.1287  1.2365
 1814TIP3   OH227076   2.568   1.632   7.175 -0.4913  0.5646 -0.3821
 1814TIP3    H127077   2.484   1.641   7.221 -0.0985  2.1049  0.1159
 1814TIP3    H227078   2.602   1.547   7.204 -1.6582  0.1291 -0.2330
 1815TIP3   OH227079   2.714   5.217   2.252  0.1135 -0.8214  0.7828
 1815TIP3    H127080   2.789   5.217   2.311  0.9209 -1.2991 -0.2288
 1815TIP3    H227081   2.669   5.300   2.270  1.1415 -0.3181  1.0739
 1816TIP3   OH227082   3.333   5.177   0.502  0.2400  0.6773 -0.1285
 1816TIP3    H127083   3.289   5.170   0.587  0.4557  3.5066  0.3029
 1816TIP3    H227084   3.316   5.267   0.474 -0.9178 -0.5263 -3.7392
 1817TIP3   OH227085   0.805   4.216   1.598 -0.1907  0.0840 -0.2912
 1817TIP3    H127086   0.877   4.213   1.661 -1.2804  1.6982  1.1480
 1817TIP3    H227087   0.737   4.161   1.637  0.5143 -2.2601 -2.1242
 1818TIP3   OH227088   3.812   4.119   0.386 -0.1254  0.4794  0.8472
 1818TIP3    H127089   3.829   4.170   0.465 -1.1753  2.0401  0.1127
 1818TIP3    H227090   3.731   4.072   0.404  0.3041 -0.1715  1.1414
 1819TIP3   OH227091   1.608   2.965   1.225  0.3471 -0.2976  0.1172
 1819TIP3    H127092   1.648   2.916   1.153 -0.0774 -1.0434  0.3826
 1819TIP3    H227093   1.618   2.908   1.301  2.0102  1.0457  0.9811
 1820TIP3   OH227094   5.359   0.289   0.195 -0.8008  0.2847 -0.9866
 1820TIP3    H127095   5.294   0.360   0.192 -1.9805 -0.6859  0.4127
 1820TIP3    H227096   5.331   0.234   0.267  0.4860 -1.2608 -1.6146
 1821TIP3   OH227097   1.952   6.225   7.280 -0.0273  0.3330 -0.5122
 1821TIP3    H127098   1.921   6.297   7.335  0.4358  0.0332  0.1518
 1821TIP3    H227099   2.045   6.215   7.304 -0.4264 -1.4349  0.4816
 1822TIP3   OH227100   6.779   1.276   2.174 -0.2132 -0.2598  0.2070
 1822TIP3    H127101   6.746   1.337   2.240 -0.7891  1.0692 -1.2370
 1822TIP3    H227102   6.777   1.326   2.092  2.0912 -1.2818 -0.5508
 1823TIP3   OH227103   0.489   1.173   7.392 -0.6601 -0.0491  0.1465
 1823TIP3    H127104   0.576   1.210   7.404  0.1790 -1.7003 -0.5266
 1823TIP3    H227105   0.449   1.173   7.479 -0.1816  1.1395  0.3780
 1824TIP3   OH227106   6.138   4.944   1.349 -0.1480 -0.0245  0.8386
 1824TIP3    H127107   6.220   4.987   1.374  0.3717 -1.4916  1.7927
 1824TIP3    H227108   6.105   4.997   1.277  1.4606  0.8173  0.6591
 1825TIP3   OH227109   0.147   5.527   2.404 -0.7272  0.2572 -0.2162
 1825TIP3    H127110   0.061   5.511   2.444 -1.0571  0.0569 -0.9817
 1825TIP3    H227111   0.193   5.443   2.411 -0.6078  0.3488  0.1430
 1826TIP3   OH227112   0.910   4.172   1.339 -0.5969  0.2360  0.3781
 1826TIP3    H127113   0.962   4.252   1.342  1.2745 -0.9381  1.2394
 1826TIP3    H227114   0.836   4.190   1.398 -0.5270  1.4924  0.1218
 1827TIP3   OH227115   0.580   3.653   7.344  0.2454 -0.1222 -0.3109
 1827TIP3    H127116   0.560   3.563   7.366 -1.6053  0.4902  0.6877
 1827TIP3    H227117   0.633   3.685   7.418 -0.4726  0.0645  0.1289
 1828TIP3   OH227118   5.384   2.991   6.991 -0.1266  0.1066 -0.1262
 1828TIP3    H127119   5.336   2.911   7.012  1.0223 -0.3497  0.9488
 1828TIP3    H227120   5.430   2.971   6.910 -1.1759  0.3029 -0.7870
 1829TIP3   OH227121   1.737   4.592   0.012  0.6557 -0.4986  0.9064
 1829TIP3    H127122   1.731   4.498   0.029 -0.8912 -0.7708 -0.8742
 1829TIP3    H227123   1.828   4.614   0.033  0.8809 -2.2402  1.9545
 1830TIP3   OH227124   2.747   6.896   1.476  0.0781 -0.0573 -0.0470
 1830TIP3    H127125   2.743   6.981   1.434  0.2641 -0.9621 -1.9995
 1830TIP3    H227126   2.839   6.885   1.501  0.2475 -0.0857 -0.6811
 1831TIP3   OH227127   3.917   0.323   1.675 -0.0754  0.3518  0.1479
 1831TIP3    H127128   3.950   0.411   1.691 -0.8177  0.5831  0.4739
 1831TIP3    H227129   3.830   0.336   1.638 -1.0255 -0.2183  2.0167
 1832TIP3   OH227130   2.789   2.313   1.851  0.2981  0.0006  0.0069
 1832TIP3    H127131   2.795   2.242   1.788 -0.5448 -0.1834  0.1154
 1832TIP3    H227132   2.708   2.294   1.900  2.0272 -1.1295  2.6778
 1833TIP3   OH227133   6.824   2.160   8.140  0.3117  0.2962  0.2743
 1833TIP3    H127134   6.874   2.139   8.062 -0.0534 -0.2374  0.1768
 1833TIP3    H227135   6.879   2.221   8.189  0.7114  0.3200 -0.2041
 1834TIP3   OH227136   4.455   2.592   7.126 -0.3661  0.4586  0.0757
 1834TIP3    H127137   4.454   2.603   7.031  0.2760  1.0774  0.1311
 1834TIP3    H227138   4.530   2.535   7.144 -1.6694 -1.3407  0.0704
 1835TIP3   OH227139   6.240   6.068   1.405 -0.4719  0.3522 -0.3051
 1835TIP3    H127140   6.322   6.070   1.455  0.5450 -0.3555 -1.8657
 1835TIP3    H227141   6.249   6.139   1.341 -1.3112  0.5904 -0.1758
 1836TIP3   OH227142   4.854   1.495   8.301 -0.1754  0.1265 -0.3251
 1836TIP3    H127143   4.907   1.530   8.229  1.0864 -1.5986 -0.2933
 1836TIP3    H227144   4.879   1.548   8.376 -0.1748  0.7740 -0.7663
 1837TIP3   OH227145   6.766   4.777   7.056 -0.4988 -0.0003 -0.1519
 1837TIP3    H127146   6.849   4.755   7.100 -1.1194  1.2642  1.7859
 1837TIP3    H227147   6.789   4.847   6.995  0.1631 -0.9326 -1.0086
 1838TIP3   OH227148   1.588   5.059   1.143 -0.1948  0.6181  0.4326
 1838TIP3    H127149   1.607   5.034   1.233  1.9761 -1.1281 -0.4304
 1838TIP3    H227150   1.535   4.987   1.108 -1.5172  1.5538  0.4359
 1839TIP3   OH227151   6.632   1.094   7.525 -0.0724  1.1247 -0.1736
 1839TIP3    H127152   6.575   1.017   7.524  0.3956  0.7747 -0.2814
 1839TIP3    H227153   6.572   1.168   7.533 -0.7140  0.9116 -2.3448
 1840TIP3   OH227154   1.820   2.544   8.593 -0.0102  0.2408  0.3057
 1840TIP3    H127155   1.883   2.487   8.549 -0.0051 -0.9839  1.7951
 1840TIP3    H227156   1.746   2.549   8.533 -0.6934 -2.6939  0.7352
 1841TIP3   OH227157   6.849   2.016   1.049  0.0323  1.0757  0.2393
 1841TIP3    H127158   6.869   1.925   1.072  0.0280  1.2987  1.1722
 1841TIP3    H227159   6.906   2.036   0.975  1.0816  0.7672  0.9518
 1842TIP3   OH227160   0.277   2.166   0.964  0.2576 -0.3283  0.3572
 1842TIP3    H127161   0.215   2.237   0.980  0.8965  0.5740 -0.9229
 1842TIP3    H227162   0.275   2.155   0.869  2.4573  0.1451  0.1897
 1843TIP3   OH227163   6.715   1.405   1.211 -0.0740  0.1759 -0.2202
 1843TIP3    H127164   6.666   1.428   1.132  0.8004  0.8037 -0.5945
 1843TIP3    H227165   6.681   1.463   1.279  0.1408  0.6030 -0.4749
 1844TIP3   OH227166   4.367   0.619   8.587 -0.2141  0.4974 -0.7301
 1844TIP3    H127167   4.283   0.605   8.631  0.7471  2.9988  2.2536
 1844TIP3    H227168   4.344   0.624   8.494 -2.7561 -2.5491 -0.4376
 1845TIP3   OH227169   0.259   1.767   0.264 -0.5348  0.0683 -0.1334
 1845TIP3    H127170   0.229   1.689   0.310 -1.0027 -0.1737 -0.8283
 1845TIP3    H227171   0.227   1.756   0.175  1.0094  0.1680 -0.7280
 1846TIP3   OH227172   1.332   4.245   0.550 -0.0282 -0.8070 -0.2098
 1846TIP3    H127173   1.321   4.223   0.643  0.2263 -1.4094 -0.3133
 1846TIP3    H227174   1.407   4.193   0.523  0.3106 -0.1284 -0.5942
 1847TIP3   OH227175   4.513   6.476   8.098 -0.4145  0.0340 -0.7166
 1847TIP3    H127176   4.593   6.424   8.095 -0.4756 -0.0185 -1.7513
 1847TIP3    H227177   4.443   6.412   8.110 -0.2043  0.2081  2.0639
 1848TIP3   OH227178   5.209   2.865   0.210  0.2927  0.5516 -0.4135
 1848TIP3    H127179   5.120   2.837   0.231 -0.7880  2.2440 -2.3511
 1848TIP3    H227180   5.264   2.788   0.230 -1.5121 -0.3791  1.2161
 1849TIP3   OH227181   0.526   2.783   0.336 -0.4459 -0.6752 -0.3781
 1849TIP3    H127182   0.448   2.810   0.287 -0.8354 -1.0095  0.0486
 1849TIP3    H227183   0.523   2.834   0.417 -1.0868 -1.8219  0.3529
 1850TIP3   OH227184   1.595   0.425   0.984  0.3213  0.0128  0.1912
 1850TIP3    H127185   1.558   0.344   1.017 -1.4471  0.6184 -0.2257
 1850TIP3    H227186   1.580   0.422   0.890  0.3556  0.7616  0.1557
 1851TIP3   OH227187   5.884   2.193   6.965  0.5290  0.0970 -0.4104
 1851TIP3    H127188   5.856   2.285   6.965  1.8482  0.5406  0.5411
 1851TIP3    H227189   5.806   2.144   6.991  0.6877  1.3244  2.8241
 1852TIP3   OH227190   1.201   6.445   1.673  0.0736 -0.1369 -0.1376
 1852TIP3    H127191   1.152   6.362   1.672 -0.4567  0.1659 -1.8134
 1852TIP3    H227192   1.159   6.495   1.743 -1.0464 -0.4685 -0.5383
 1853TIP3   OH227193   0.717   4.254   8.248 -0.4831  0.0959 -0.1034
 1853TIP3    H127194   0.633   4.268   8.204 -0.5612  0.5645  0.1952
 1853TIP3    H227195   0.778   4.314   8.205 -0.1857 -0.5767 -0.6349
 1854TIP3   OH227196   1.579   2.820   1.506 -0.0907  0.3169 -0.8971
 1854TIP3    H127197   1.614   2.843   1.592  0.1241  0.8588 -1.1170
 1854TIP3    H227198   1.486   2.808   1.519  0.2197 -1.5939 -0.2095
 1855TIP3   OH227199   6.097   2.502   0.640  0.2166  1.2171  0.3531
 1855TIP3    H127200   6.091   2.527   0.548  0.5740  4.0328  0.9706
 1855TIP3    H227201   6.190   2.485   0.654 -0.0590 -0.8865 -0.1214
 1856TIP3   OH227202   3.601   2.691   7.891 -0.3769  0.0477 -0.2358
 1856TIP3    H127203   3.516   2.714   7.852 -0.2017  1.1294 -0.0208
 1856TIP3    H227204   3.630   2.615   7.841 -1.4212 -0.2726 -0.3915
 1857TIP3   OH227205   3.752   3.861   6.294 -0.0279  1.0022 -0.2964
 1857TIP3    H127206   3.696   3.825   6.362  0.7212 -0.8583 -0.5978
 1857TIP3    H227207   3.730   3.954   6.291 -1.5556  0.7233  1.0262
 1858TIP3   OH227208   0.519   1.321   0.073 -0.1842  0.3707 -0.2081
 1858TIP3    H127209   0.543   1.228   0.068  1.3296  0.7250  0.0413
 1858TIP3    H227210   0.580   1.358   0.136 -0.0504  1.7558 -1.1090
 1859TIP3   OH227211   3.570   5.758   1.868 -0.2474 -0.2165 -0.5676
 1859TIP3    H127212   3.524   5.724   1.944 -1.1429 -0.0273 -1.0150
 1859TIP3    H227213   3.627   5.827   1.902  0.3344 -1.0119  0.1045
 1860TIP3   OH227214   4.063   1.331   8.069 -0.2120  0.1625 -0.5442
 1860TIP3    H127215   4.011   1.362   7.995  0.7630 -0.1893 -1.4125
 1860TIP3    H227216   4.023   1.247   8.094  0.3614 -0.4878 -1.7067
 1861TIP3   OH227217   4.719   1.463   6.345  0.4387 -0.5917 -0.1829
 1861TIP3    H127218   4.776   1.523   6.393 -1.0712  0.2460  0.6813
 1861TIP3    H227219   4.730   1.379   6.388  1.7424 -0.6905 -0.6768
 1862TIP3   OH227220   5.933   5.582   8.297  0.0074 -0.4321  0.5665
 1862TIP3    H127221   5.844   5.595   8.330 -0.2493  2.4242 -0.9049
 1862TIP3    H227222   5.989   5.602   8.372 -0.5839 -0.1035  0.9314
 1863TIP3   OH227223   5.764   1.535   1.105 -0.2291  0.8490 -0.2067
 1863TIP3    H127224   5.762   1.460   1.164 -0.1579 -0.5933 -1.9334
 1863TIP3    H227225   5.840   1.586   1.133  1.3980 -1.1965 -0.6185
 1864TIP3   OH227226   0.817   3.802   0.600  0.0372  0.3671  0.0909
 1864TIP3    H127227   0.737   3.829   0.644  0.6482  0.5900  1.1027
 1864TIP3    H227228   0.859   3.740   0.660  1.2449  1.2289  0.1811
 1865TIP3   OH227229   6.050   4.527   8.457 -0.2017 -0.1765 -0.7941
 1865TIP3    H127230   6.054   4.481   8.541 -2.8609  0.5491 -0.1592
 1865TIP3    H227231   5.999   4.469   8.401 -0.1959  0.2442 -1.2370
 1866TIP3   OH227232   5.674   3.577   0.661  0.4692 -0.3856 -0.3822
 1866TIP3    H127233   5.712   3.533   0.737  0.4805  1.9074  1.0087
 1866TIP3    H227234   5.686   3.514   0.589  2.0668 -1.8986  1.1108
 1867TIP3   OH227235   1.366   3.629   6.751 -0.5010  0.0087  0.5171
 1867TIP3    H127236   1.429   3.608   6.820 -0.3621  2.3148  1.1764
 1867TIP3    H227237   1.392   3.716   6.720 -1.2312 -0.4999 -1.7122
 1868TIP3   OH227238   6.745   4.322   0.042  0.0451  0.4268  0.4841
 1868TIP3    H127239   6.742   4.290  -0.048  0.5819  0.7372  0.3478
 1868TIP3    H227240   6.661   4.297   0.080 -0.1531  0.2265 -0.0808
 1869TIP3   OH227241   1.955   1.591   1.992 -0.2934 -0.6198  0.1923
 1869TIP3    H127242   2.046   1.611   1.968 -0.5349  0.7465  0.3253
 1869TIP3    H227243   1.907   1.597   1.909 -0.4416 -0.2370  0.3074
 1870TIP3   OH227244   4.233   0.361   1.245  0.1245 -0.3487  0.3828
 1870TIP3    H127245   4.182   0.322   1.173  0.5930  0.6673 -0.5282
 1870TIP3    H227246   4.319   0.377   1.206  0.4429  0.0354  1.2424
 1871TIP3   OH227247   5.500   4.987   1.303  0.3914  0.0981 -0.2560
 1871TIP3    H127248   5.404   4.989   1.297  0.4041 -0.0636 -0.5218
 1871TIP3    H227249   5.518   5.011   1.394 -0.0144 -2.6095  0.6414
 1872TIP3   OH227250   1.861   0.451   0.743 -0.2174  0.4761 -0.7175
 1872TIP3    H127251   1.850   0.412   0.829  0.0138  0.5275 -0.6634
 1872TIP3    H227252   1.851   0.545   0.757 -0.6509  0.4485 -0.8269
 1873TIP3   OH227253   1.061   5.075   8.118  0.6883  0.4106  0.6344
 1873TIP3    H127254   0.968   5.077   8.140  0.5022 -0.7611  0.0318
 1873TIP3    H227255   1.076   5.156   8.069  0.0682  0.7647  1.0149
 1874TIP3   OH227256   4.776   4.220   0.102 -0.0814 -0.0008 -0.2134
 1874TIP3    H127257   4.758   4.235   0.009 -1.4877 -4.1169 -0.8280
 1874TIP3    H227258   4.867   4.192   0.105 -0.6768 -2.2208 -0.8506
 1875TIP3   OH227259   6.788   4.620   8.299  0.2608 -0.1632 -0.2582
 1875TIP3    H127260   6.882   4.613   8.312  0.3096  0.5369 -0.2034
 1875TIP3    H227261   6.774   4.594   8.208  0.4138 -0.9679 -0.0602
 1876TIP3   OH227262   2.518   2.816   1.551 -0.2180  0.1192  0.1416
 1876TIP3    H127263   2.508   2.726   1.584  1.6296 -0.4499 -0.7407
 1876TIP3    H227264   2.553   2.865   1.626  3.3315 -1.0166 -0.6136
 1877TIP3   OH227265   0.121   1.749   0.034 -0.1235 -0.1351  0.6506
 1877TIP3    H127266   0.135   1.659   0.003 -0.5526 -0.1973  0.6208
 1877TIP3    H227267   0.030   1.768   0.010 -0.1464  0.1808  0.9793
 1878TIP3   OH227268   4.936   6.679   8.581 -0.0405  0.1199  0.0636
 1878TIP3    H127269   4.943   6.590   8.616  0.5037  0.0272 -0.2715
 1878TIP3    H227270   5.026   6.706   8.566 -0.2253  0.5374 -0.3224
 1879TIP3   OH227271   0.522   6.198   8.614 -0.8525  0.3904 -0.5870
 1879TIP3    H127272   0.602   6.245   8.592 -0.4244 -0.3003 -0.5350
 1879TIP3    H227273   0.544   6.149   8.694 -1.1039 -0.3524 -0.9625
 1880TIP3   OH227274   4.124   3.418   8.390 -0.4393  0.0322 -0.3658
 1880TIP3    H127275   4.161   3.464   8.315  0.9749 -0.0842  0.2292
 1880TIP3    H227276   4.032   3.445   8.391 -0.3544  0.4699 -1.7936
 1881TIP3   OH227277   4.377   1.818   1.612 -0.1075  0.7271  0.1755
 1881TIP3    H127278   4.419   1.809   1.527  0.1166 -1.2204  0.4581
 1881TIP3    H227279   4.434   1.878   1.661  0.6120  0.6219 -0.5154
 1882TIP3   OH227280   3.178   2.296   1.193 -0.2423 -0.4730  0.2097
 1882TIP3    H127281   3.203   2.288   1.101 -0.1709 -2.4254  0.3496
 1882TIP3    H227282   3.261   2.309   1.240 -0.5030  4.0048 -0.1941
 1883TIP3   OH227283   4.183   0.116   8.292  0.1275 -0.2241  0.5650
 1883TIP3    H127284   4.258   0.065   8.260  1.3851  0.3928  2.3488
 1883TIP3    H227285   4.107   0.059   8.277  0.8321 -0.5993 -1.8802
 1884TIP3   OH227286   2.313   4.540   0.672  0.1356 -0.0283  0.7658
 1884TIP3    H127287   2.373   4.594   0.723  0.5792  0.9200 -0.7097
 1884TIP3    H227288   2.357   4.455   0.664  0.1774 -0.1055  1.6961
 1885TIP3   OH227289   3.517   5.171   0.283  0.0163  0.0391 -0.9790
 1885TIP3    H127290   3.594   5.182   0.339 -0.5779 -1.7879  0.3216
 1885TIP3    H227291   3.444   5.162   0.345 -0.9092 -0.5113 -2.1030
 1886TIP3   OH227292   4.181   6.047   8.076 -1.0113 -0.2676 -0.1753
 1886TIP3    H127293   4.215   5.979   8.019  1.4068  0.6888  0.0315
 1886TIP3    H227294   4.093   6.016   8.100 -1.0648 -1.9479 -2.2366
 1887TIP3   OH227295   1.173   5.845   0.562 -0.1694 -0.0435 -0.2147
 1887TIP3    H127296   1.148   5.920   0.509  1.3843  0.9168  0.3520
 1887TIP3    H227297   1.107   5.841   0.632 -0.0273  1.0663 -0.0029
 1888TIP3   OH227298   2.789   0.137   6.752  0.3881  0.1693  0.2918
 1888TIP3    H127299   2.764   0.045   6.761  0.5790 -0.1668 -2.0220
 1888TIP3    H227300   2.712   0.186   6.782 -0.3151 -0.7599  0.0474
 1889TIP3   OH227301   5.090   5.948   8.463  0.1194 -0.6107 -0.3229
 1889TIP3    H127302   5.093   5.891   8.386 -0.4769 -1.4331  0.2472
 1889TIP3    H227303   5.128   5.895   8.534 -1.5882 -0.7939  0.5012
 1890TIP3   OH227304   6.716   3.230   8.494  0.0382  0.0149 -0.0516
 1890TIP3    H127305   6.796   3.281   8.500  0.2988 -0.5209  1.6706
 1890TIP3    H227306   6.647   3.288   8.527 -0.4343  0.7033 -2.1451
 1891TIP3   OH227307   1.313   6.107   6.900 -0.2779 -0.0640  0.2128
 1891TIP3    H127308   1.292   6.013   6.906 -2.3666  0.4104  1.5166
 1891TIP3    H227309   1.246   6.143   6.842  1.0582  0.5025 -1.0067
 1892TIP3   OH227310   6.841   3.375   6.357 -0.1114 -0.2120 -0.1546
 1892TIP3    H127311   6.879   3.337   6.436 -0.7747  0.7766  0.6569
 1892TIP3    H227312   6.856   3.469   6.365 -0.9050 -0.0124 -0.8061
 1893TIP3   OH227313   2.400   6.261   1.857 -0.8621 -0.4053 -0.6236
 1893TIP3    H127314   2.380   6.204   1.931 -2.1757  0.3377 -0.3697
 1893TIP3    H227315   2.377   6.209   1.780 -0.3793 -0.8389 -0.4819
 1894TIP3   OH227316   2.456   3.526   8.493  0.0026 -0.0723 -0.2188
 1894TIP3    H127317   2.490   3.515   8.404 -0.3043 -1.1771 -0.2160
 1894TIP3    H227318   2.436   3.620   8.500  1.5314  0.3311 -0.7544
 1895TIP3   OH227319   1.095   3.458   1.938 -0.1249  0.0365 -0.2235
 1895TIP3    H127320   1.080   3.522   2.007 -0.6375 -0.8527  0.5148
 1895TIP3    H227321   1.009   3.420   1.922  0.3160 -1.0867 -0.0211
 1896TIP3   OH227322   2.319   5.955   1.769 -0.1402 -0.4812 -0.3832
 1896TIP3    H127323   2.254   5.968   1.838 -0.3881  0.0709 -0.7221
 1896TIP3    H227324   2.296   6.018   1.701  1.4669  0.5830  0.0097
 1897TIP3   OH227325   6.823   4.485   6.936  0.3943 -0.5583 -0.0316
 1897TIP3    H127326   6.817   4.559   6.996  0.4325 -0.3491 -0.2866
 1897TIP3    H227327   6.907   4.495   6.892  0.2888 -0.6160 -0.2481
 1898TIP3   OH227328   6.599   0.854   1.103 -0.4312  0.8011 -0.4137
 1898TIP3    H127329   6.652   0.901   1.167  1.5176 -1.2843 -0.3324
 1898TIP3    H227330   6.521   0.826   1.151  1.4027 -1.5176  1.4793
 1899TIP3   OH227331   5.605   1.075   7.824 -0.3290 -0.5673 -0.8813
 1899TIP3    H127332   5.639   1.017   7.892  0.1467 -0.4573 -1.0213
 1899TIP3    H227333   5.525   1.112   7.862 -0.1777 -0.6657 -0.4638
 1900TIP3   OH227334   1.522   2.687   0.564  0.3098 -0.0570 -0.6351
 1900TIP3    H127335   1.573   2.667   0.642 -0.7035 -1.8159 -0.3936
 1900TIP3    H227336   1.577   2.657   0.491  1.3933  1.8638 -0.6999
 1901TIP3   OH227337   6.593   1.103   2.070  0.0033 -0.8796 -0.0461
 1901TIP3    H127338   6.652   1.105   2.145 -0.9500  0.4328  0.6960
 1901TIP3    H227339   6.563   1.193   2.060 -1.1181 -1.3359 -1.0220
 1902TIP3   OH227340   1.824   5.211   0.517 -0.2603  0.2097  0.1577
 1902TIP3    H127341   1.777   5.294   0.506 -0.4865  0.0302 -0.2685
 1902TIP3    H227342   1.774   5.148   0.465  1.2406  0.3010 -1.4815
 1903TIP3   OH227343   5.160   3.640   1.317  0.3668  0.5399  0.4696
 1903TIP3    H127344   5.205   3.723   1.301  1.7838  0.0099  1.5031
 1903TIP3    H227345   5.173   3.623   1.410 -0.9496 -0.2557  0.5287
 1904TIP3   OH227346   6.817   5.995   1.873 -0.5092 -0.1121 -0.0811
 1904TIP3    H127347   6.827   6.045   1.955  2.1441  0.3500 -0.5901
 1904TIP3    H227348   6.785   6.060   1.810 -1.3958 -0.1827  0.2746
 1905TIP3   OH227349   4.686   6.055   0.833 -0.8390 -0.1692  0.0388
 1905TIP3    H127350   4.633   5.986   0.872  0.9301 -0.7103  1.6780
 1905TIP3    H227351   4.714   6.019   0.748 -0.2242 -1.3584  0.7180
 1906TIP3   OH227352   5.466   0.277   0.555 -0.0617  0.0056 -0.1533
 1906TIP3    H127353   5.498   0.340   0.490 -0.3356 -1.1748 -1.4928
 1906TIP3    H227354   5.387   0.317   0.590  0.2699  0.8126 -0.3101
 1907TIP3   OH227355   1.987   3.191   0.830  0.0629  0.6620  0.5140
 1907TIP3    H127356   2.075   3.154   0.836 -0.9301 -1.8430  1.2499
 1907TIP3    H227357   1.957   3.168   0.742  0.2157  1.7665  0.1578
 1908TIP3   OH227358   3.535   0.770   7.225  0.1484 -0.0477  0.5546
 1908TIP3    H127359   3.574   0.693   7.266  0.3395  1.3007  3.1043
 1908TIP3    H227360   3.446   0.774   7.260  0.1576  0.9306  0.5017
 1909TIP3   OH227361   6.353   0.397   0.323  0.7798  0.1114 -0.0201
 1909TIP3    H127362   6.307   0.361   0.248 -1.3038  1.1214  0.6805
 1909TIP3    H227363   6.426   0.446   0.286 -0.3642  0.8147 -1.4282
 1910TIP3   OH227364   4.550   1.403   7.649  0.0725 -0.0557 -1.0920
 1910TIP3    H127365   4.480   1.455   7.689  0.8022  1.2003 -1.3811
 1910TIP3    H227366   4.512   1.371   7.567  0.1789  1.6615 -1.8705
 1911TIP3   OH227367   5.538   4.126   7.807 -0.3465  0.5876 -0.3036
 1911TIP3    H127368   5.527   4.204   7.861  0.5146  1.6318 -1.5784
 1911TIP3    H227369   5.453   4.115   7.764  0.0904  1.9904 -1.5881
 1912TIP3   OH227370   4.778   3.079   0.677  0.1711  0.2271 -0.5872
 1912TIP3    H127371   4.765   3.103   0.768 -2.0957  1.0902 -1.0628
 1912TIP3    H227372   4.758   2.985   0.674  0.0790  0.2349 -0.2182
 1913TIP3   OH227373   2.669   5.008   7.207  0.4118  0.3863 -0.2344
 1913TIP3    H127374   2.682   4.924   7.162  3.5664  1.2232 -1.1247
 1913TIP3    H227375   2.577   5.029   7.192 -0.0723 -2.1294 -1.3494
 1914TIP3   OH227376   0.946   5.597   2.257 -0.4845 -0.2035 -0.5107
 1914TIP3    H127377   0.993   5.531   2.207  1.9721  1.1999 -0.2115
 1914TIP3    H227378   1.012   5.634   2.315 -2.3255  0.9493  0.9567
 1915TIP3   OH227379   1.036   4.364   8.300 -0.0551 -0.0088  0.1997
 1915TIP3    H127380   1.006   4.274   8.316  1.1357 -0.4343  0.1073
 1915TIP3    H227381   1.017   4.379   8.208  0.0324 -0.2821  0.1356
 1916TIP3   OH227382   1.953   0.128   6.189 -0.2366 -0.1831 -0.1292
 1916TIP3    H127383   1.864   0.103   6.165 -0.2648  1.2775 -1.7133
 1916TIP3    H227384   1.959   0.221   6.167  1.8715 -0.3883 -0.6417
 1917TIP3   OH227385   2.398   5.579   7.243 -0.1059  0.6625 -0.1764
 1917TIP3    H127386   2.430   5.660   7.205 -0.3453  1.2911  0.9234
 1917TIP3    H227387   2.350   5.606   7.321  0.6951 -0.5956  0.7931
 1918TIP3   OH227388   3.675   2.977   2.383 -0.2643 -0.1497  0.9255
 1918TIP3    H127389   3.667   2.974   2.288 -3.2471 -1.3029  1.0987
 1918TIP3    H227390   3.610   3.042   2.410  0.2974 -0.0891  2.1939
 1919TIP3   OH227391   5.152   2.758   7.273  0.4960  0.0244  0.8064
 1919TIP3    H127392   5.180   2.704   7.200  0.6521  2.4754 -1.0548
 1919TIP3    H227393   5.231   2.804   7.301 -0.4195  2.7565 -0.7729
 1920TIP3   OH227394   1.350   6.819   8.596 -0.0049  0.2089 -0.6920
 1920TIP3    H127395   1.399   6.752   8.549 -0.0901 -0.6663  0.4373
 1920TIP3    H227396   1.366   6.800   8.688 -1.0522  0.9815 -0.3350
 1921TIP3   OH227397   0.065   4.214   8.022  0.0149 -0.1271 -0.5200
 1921TIP3    H127398   0.043   4.156   7.948  2.5842 -1.0186 -0.6868
 1921TIP3    H227399   0.066   4.156   8.098  0.3048  0.1842 -0.2856
 1922TIP3   OH227400   5.496   3.490   2.006  0.1798  0.0740  0.2983
 1922TIP3    H127401   5.469   3.567   2.056  0.4564  1.1182 -1.0983
 1922TIP3    H227402   5.456   3.417   2.052 -0.7455  1.1169  1.2227
 1923TIP3   OH227403   4.557   4.282   1.503  0.5598 -0.0375 -0.2241
 1923TIP3    H127404   4.570   4.323   1.589  1.1688 -0.8060  0.0563
 1923TIP3    H227405   4.502   4.206   1.521  1.6457 -0.8725 -0.3221
 1924TIP3   OH227406   2.174   6.278   7.763  0.4167 -0.4095 -0.4514
 1924TIP3    H127407   2.122   6.225   7.703 -0.5650  0.1600 -0.1255
 1924TIP3    H227408   2.165   6.367   7.729  0.3015 -0.1615  0.2241
 1925TIP3   OH227409   5.660   4.062   2.472  0.0913  0.2520 -0.7424
 1925TIP3    H127410   5.568   4.052   2.447 -0.3748  0.5928  0.7754
 1925TIP3    H227411   5.662   4.142   2.524  1.1892  0.0465 -0.4487
 1926TIP3   OH227412   0.138   4.209   1.783 -0.4281 -0.2158 -0.6996
 1926TIP3    H127413   0.071   4.232   1.718 -1.0048 -0.2373 -0.1303
 1926TIP3    H227414   0.121   4.117   1.803 -0.9102  0.0539  0.2110
 1927TIP3   OH227415   5.511   0.857   8.072 -0.1962 -0.0249  0.8524
 1927TIP3    H127416   5.420   0.836   8.093 -0.2969  0.1158  0.5561
 1927TIP3    H227417   5.555   0.772   8.068 -0.6816 -0.2348 -0.7247
 1928TIP3   OH227418   2.470   3.383   0.563  0.0485 -0.3268  0.4577
 1928TIP3    H127419   2.557   3.401   0.526  0.5132  0.1752  1.7325
 1928TIP3    H227420   2.420   3.462   0.545 -0.9142 -1.4374 -2.2699
 1929TIP3   OH227421   0.030   3.683   6.686 -0.3271  0.1512 -0.3456
 1929TIP3    H127422  -0.049   3.699   6.738  0.5539 -0.6049  1.3084
 1929TIP3    H227423   0.074   3.610   6.730  1.2412  0.4820 -1.2724
 1930TIP3   OH227424   6.720   5.181   1.669 -0.0357  0.3107 -0.1241
 1930TIP3    H127425   6.710   5.272   1.694  1.8531  0.1283  1.5545
 1930TIP3    H227426   6.677   5.131   1.738 -1.0380 -0.1088 -1.0152
 1931TIP3   OH227427   3.058   1.733   8.612 -0.4833 -0.1474 -0.5881
 1931TIP3    H127428   3.100   1.807   8.656 -1.2399 -0.5870  0.9582
 1931TIP3    H227429   3.126   1.666   8.610 -0.8870 -0.6861  1.4553
 1932TIP3   OH227430   6.216   1.036   1.053  0.3921  0.0012  0.5861
 1932TIP3    H127431   6.198   0.964   1.114  0.9928 -0.3804  0.3186
 1932TIP3    H227432   6.274   1.094   1.101 -0.6214  0.6643  1.0452
 1933TIP3   OH227433   4.703   0.234   0.538  0.0651  0.0112 -0.6845
 1933TIP3    H127434   4.618   0.210   0.575 -0.1633  1.3121 -0.3108
 1933TIP3    H227435   4.703   0.194   0.451 -0.5417 -0.7691 -0.3384
 1934TIP3   OH227436   4.380   2.493   7.942  0.3373  0.9791  0.1699
 1934TIP3    H127437   4.460   2.485   7.995  1.1278 -0.6187 -1.1516
 1934TIP3    H227438   4.310   2.504   8.006  1.4892  1.2721  1.4312
 1935TIP3   OH227439   6.163   1.730   1.376  0.1177 -0.2865 -0.1080
 1935TIP3    H127440   6.173   1.640   1.347  0.5417 -0.7958  1.5473
 1935TIP3    H227441   6.247   1.771   1.356 -0.3866  0.0487 -1.7414
 1936TIP3   OH227442   2.510   6.902   0.025 -0.1584 -0.3570  0.2574
 1936TIP3    H127443   2.569   6.886  -0.049 -1.9269 -0.0399 -1.2957
 1936TIP3    H227444   2.538   6.987   0.060  0.0773 -0.0431 -0.6799
 1937TIP3   OH227445   0.274   3.742   2.431 -0.3528 -0.2478 -0.1630
 1937TIP3    H127446   0.215   3.802   2.477 -0.8446 -0.9612  0.1537
 1937TIP3    H227447   0.362   3.766   2.463 -0.7278 -1.1245  1.6475
 1938TIP3   OH227448   1.844   3.918   6.880  0.0521  0.1190  0.6984
 1938TIP3    H127449   1.914   3.945   6.939  0.4388  0.1336  0.2335
 1938TIP3    H227450   1.884   3.852   6.823 -0.4479 -0.2438  0.7576
 1939TIP3   OH227451   2.122   5.663   0.418 -0.3886 -0.4680  0.6470
 1939TIP3    H127452   2.117   5.650   0.323  2.6261  0.7636  0.2146
 1939TIP3    H227453   2.042   5.710   0.440 -0.8286 -0.1614 -1.3977
 1940TIP3   OH227454   4.623   2.748   0.463  0.4895  0.0603 -0.9800
 1940TIP3    H127455   4.552   2.685   0.447 -0.1038  0.8472 -1.5086
 1940TIP3    H227456   4.683   2.735   0.390  1.5821 -1.4850  0.1128
 1941TIP3   OH227457   4.737   6.448   1.282  0.1334  0.0601  0.4567
 1941TIP3    H127458   4.717   6.365   1.324 -0.2822  0.3629  0.8735
 1941TIP3    H227459   4.733   6.430   1.189 -0.5068 -0.2612  0.5395
 1942TIP3   OH227460   2.198   1.295   7.625 -0.0006  0.5730  0.3389
 1942TIP3    H127461   2.125   1.342   7.666 -2.1421 -1.9806 -0.2638
 1942TIP3    H227462   2.166   1.274   7.537  1.1006 -1.3651  0.3539
 1943TIP3   OH227463   6.733   4.397   1.690  0.2965 -0.3485  0.8083
 1943TIP3    H127464   6.640   4.390   1.709  0.4828 -0.2744  1.7824
 1943TIP3    H227465   6.750   4.327   1.626 -0.9735  1.4135 -1.6115
 1944TIP3   OH227466   2.651   3.385   7.623 -0.1999  0.2090  0.0075
 1944TIP3    H127467   2.702   3.306   7.608  0.6343  0.6399  0.4732
 1944TIP3    H227468   2.576   3.377   7.564  0.6230 -0.2424 -1.0162
 1945TIP3   OH227469   0.899   1.724   0.699 -0.0936 -0.3995  0.2815
 1945TIP3    H127470   0.982   1.677   0.702  0.2689  0.1268 -0.8125
 1945TIP3    H227471   0.898   1.779   0.777  0.8370 -0.0219  0.0335
 1946TIP3   OH227472   1.947   5.859   0.736 -0.1147  0.0535  0.9469
 1946TIP3    H127473   1.959   5.879   0.643  0.5364  1.2041  1.2585
 1946TIP3    H227474   1.853   5.842   0.745 -0.2496  0.3466  0.1591
 1947TIP3   OH227475   0.894   4.386   8.051  0.4369  0.0883  0.5389
 1947TIP3    H127476   0.947   4.323   8.002  1.0854 -0.0578  1.3954
 1947TIP3    H227477   0.863   4.448   7.985 -1.5705 -1.9973 -0.6111
 1948TIP3   OH227478   4.831   5.240   0.891  0.1628  0.3801 -1.0599
 1948TIP3    H127479   4.853   5.147   0.893  0.3646  0.4253 -1.1518
 1948TIP3    H227480   4.744   5.245   0.930  1.6570  0.5993  2.6669
 1949TIP3   OH227481   5.963   2.902   0.654  0.5665 -0.4064  0.1893
 1949TIP3    H127482   5.890   2.880   0.596  1.1960  0.6449 -1.0433
 1949TIP3    H227483   5.973   2.824   0.710 -1.5316 -0.5268  0.4613
 1950TIP3   OH227484   1.701   6.145   8.016  0.2341  0.0661  0.5743
 1950TIP3    H127485   1.751   6.064   8.008  0.0954  0.0537 -0.3884
 1950TIP3    H227486   1.631   6.136   7.951  1.0590  1.5363 -0.5847
 1951TIP3   OH227487   3.594   6.789   6.472 -0.1817  0.6779  0.2947
 1951TIP3    H127488   3.573   6.748   6.389  0.0230  0.7528  0.2062
 1951TIP3    H227489   3.514   6.779   6.525  0.8601 -2.6594  1.4380
 1952TIP3   OH227490   5.908   3.068   8.018  0.0419 -0.1767  0.1242
 1952TIP3    H127491   5.961   3.064   7.938 -0.2619 -0.4043 -0.0689
 1952TIP3    H227492   5.901   2.976   8.046 -0.6676 -0.2023 -0.1281
 1953TIP3   OH227493   1.660   2.106   8.211  0.4328  0.1922 -0.0987
 1953TIP3    H127494   1.635   2.071   8.126  3.7939 -1.1530 -0.6867
 1953TIP3    H227495   1.629   2.041   8.274 -0.5217  0.3242 -0.4133
 1954TIP3   OH227496   2.918   6.820   6.900  0.3057 -0.1448 -0.1346
 1954TIP3    H127497   2.912   6.889   6.965 -1.3466 -0.2318 -0.1512
 1954TIP3    H227498   2.827   6.802   6.876  0.7824 -1.3972 -1.1020
 1955TIP3   OH227499   6.200   3.183   2.348 -0.4824  0.1806 -0.3454
 1955TIP3    H127500   6.163   3.149   2.430  0.3909  1.0774  0.4556
 1955TIP3    H227501   6.152   3.263   2.331 -0.1003  0.4319 -0.2519
 1956TIP3   OH227502   1.299   0.093   0.459 -0.3241  0.4125 -0.2459
 1956TIP3    H127503   1.282   0.124   0.548 -0.5502 -1.1209  0.2651
 1956TIP3    H227504   1.217   0.051   0.433  0.8186 -2.2102  0.1678
 1957TIP3   OH227505   1.852   4.006   0.364 -0.4085 -0.0520 -0.4361
 1957TIP3    H127506   1.878   4.085   0.317  0.7042 -0.0874  0.0898
 1957TIP3    H227507   1.928   3.948   0.357 -1.2066 -1.0872 -0.8152
 1958TIP3   OH227508   3.316   6.649   1.123  0.6255 -0.0010 -0.7798
 1958TIP3    H127509   3.237   6.664   1.072 -0.3233  1.1336  0.9232
 1958TIP3    H227510   3.387   6.687   1.070 -0.3378  1.2190 -1.2442
 1959TIP3   OH227511   3.632   4.901   1.163  0.4630  0.1455  0.7214
 1959TIP3    H127512   3.684   4.949   1.099 -1.9646  2.6638  0.4617
 1959TIP3    H227513   3.653   4.941   1.247  0.1719  0.0145  0.8584
 1960TIP3   OH227514   5.617   5.623   2.220 -0.3150  0.1331 -0.0872
 1960TIP3    H127515   5.605   5.661   2.133 -1.5570  0.9046  0.3870
 1960TIP3    H227516   5.607   5.697   2.280 -1.5280 -0.7071  0.8039
 1961TIP3   OH227517   1.055   2.227   6.696 -0.5001 -0.1336  0.1299
 1961TIP3    H127518   1.059   2.132   6.696 -0.4164 -0.1371  1.0564
 1961TIP3    H227519   1.064   2.252   6.788 -2.2298  0.6918  0.1230
 1962TIP3   OH227520   6.278   3.095   6.816  0.2672  0.5545 -0.0660
 1962TIP3    H127521   6.336   3.171   6.824  0.0410  0.5914  1.4561
 1962TIP3    H227522   6.219   3.101   6.891  0.2817 -1.1491  0.1268
 1963TIP3   OH227523   2.368   0.981   1.392  0.2384 -0.2645  0.4576
 1963TIP3    H127524   2.427   0.996   1.467  0.2690  1.3093  0.1596
 1963TIP3    H227525   2.301   1.049   1.401 -1.3933 -1.7957  0.5886
 1964TIP3   OH227526   4.829   5.495   6.890 -0.3618  0.8767  0.4858
 1964TIP3    H127527   4.734   5.502   6.896 -0.3024  2.0531  0.4236
 1964TIP3    H227528   4.860   5.531   6.974 -0.0064 -1.9862  1.6956
 1965TIP3   OH227529   3.089   2.169   8.574 -0.3318 -0.0009  0.2100
 1965TIP3    H127530   3.046   2.108   8.634 -1.1177 -1.4562 -1.7096
 1965TIP3    H227531   3.019   2.194   8.513  1.2698 -1.9605 -2.6533
 1966TIP3   OH227532   4.318   2.574   1.211  0.4131  0.1534 -0.2000
 1966TIP3    H127533   4.390   2.541   1.264 -0.2038 -0.3353  0.3397
 1966TIP3    H227534   4.239   2.537   1.251 -0.0991  0.2079 -1.1324
 1967TIP3   OH227535   4.531   0.464   7.410  0.3982 -0.1314  0.1694
 1967TIP3    H127536   4.572   0.548   7.390  0.9300 -0.8178 -1.8554
 1967TIP3    H227537   4.593   0.420   7.468  1.4236 -0.1846 -0.9376
 1968TIP3   OH227538   2.786   1.339   6.166  0.1641 -0.7639  0.0113
 1968TIP3    H127539   2.719   1.368   6.228  1.3357 -1.3438  1.6092
 1968TIP3    H227540   2.762   1.248   6.146  0.3008 -0.8759  0.3500
 1969TIP3   OH227541   4.764   6.254   1.072 -0.5014  0.8775  0.2125
 1969TIP3    H127542   4.766   6.241   0.977  1.0998 -2.0251  0.5479
 1969TIP3    H227543   4.855   6.269   1.096 -0.8177  1.0251  1.3605
 1970TIP3   OH227544   5.209   6.272   0.878 -0.0719  0.6517  0.1849
 1970TIP3    H127545   5.232   6.362   0.856 -0.2353  1.2425  2.1543
 1970TIP3    H227546   5.285   6.239   0.925 -0.4748  0.1959  0.5292
 1971TIP3   OH227547   3.066   2.492   8.472 -0.2949  0.2881 -0.2820
 1971TIP3    H127548   2.984   2.446   8.453  0.9301 -2.1905 -0.0032
 1971TIP3    H227549   3.059   2.516   8.564 -0.8584  0.4684 -0.3654
 1972TIP3   OH227550   4.378   1.581   7.795  0.2226  0.2594 -0.0222
 1972TIP3    H127551   4.449   1.630   7.836  0.3493 -1.3312  1.7748
 1972TIP3    H227552   4.304   1.590   7.855 -0.1311 -0.6864 -0.2988
 1973TIP3   OH227553   5.670   2.714   1.713  0.5476  0.2954 -0.6606
 1973TIP3    H127554   5.690   2.658   1.788  2.1695 -1.5858 -2.3496
 1973TIP3    H227555   5.581   2.744   1.727  0.4550 -0.8449  1.4774
 1974TIP3   OH227556   2.643   2.991   0.670 -0.2212  0.2103  0.0620
 1974TIP3    H127557   2.570   3.006   0.610  1.0755  0.3015 -1.5463
 1974TIP3    H227558   2.655   2.896   0.671  1.3979  0.3366 -1.9276
 1975TIP3   OH227559   2.359   3.789   8.527  0.4707  0.2310  0.2310
 1975TIP3    H127560   2.367   3.867   8.471  1.2280 -0.1561 -0.2197
 1975TIP3    H227561   2.299   3.816   8.597 -0.0386  0.9103 -0.4453
 1976TIP3   OH227562   4.565   5.815   0.868 -0.2870  0.5365 -0.4087
 1976TIP3    H127563   4.488   5.785   0.916 -0.0927 -0.7267 -0.8634
 1976TIP3    H227564   4.639   5.789   0.923 -0.1566  1.6568 -0.0236
 1977TIP3   OH227565   2.063   1.663   0.548 -0.0621 -0.2998 -0.0164
 1977TIP3    H127566   2.025   1.642   0.462  0.4719 -1.3826 -0.0102
 1977TIP3    H227567   2.002   1.726   0.587 -1.0382 -0.8372 -0.6314
 1978TIP3   OH227568   2.145   4.195   0.537 -0.0065  0.1149 -0.7778
 1978TIP3    H127569   2.159   4.103   0.513 -2.0264  0.2305 -2.6676
 1978TIP3    H227570   2.186   4.245   0.466 -1.5156  0.5780 -1.3596
 1979TIP3   OH227571   4.436   1.164   7.545 -0.0827 -0.2662 -0.1123
 1979TIP3    H127572   4.452   1.148   7.452 -0.7102  0.3913 -0.3460
 1979TIP3    H227573   4.395   1.083   7.577  1.1261 -0.9062 -0.1414
 1980TIP3   OH227574   2.684   4.811   6.961 -0.4959 -0.2093 -0.3826
 1980TIP3    H127575   2.592   4.788   6.950 -0.5836 -0.5413  0.9247
 1980TIP3    H227576   2.729   4.763   6.891 -0.8852 -3.0653  1.1867
 1981TIP3   OH227577   4.598   1.592   8.530  0.1393  0.1611 -0.0921
 1981TIP3    H127578   4.610   1.639   8.613 -0.8051  0.3423 -0.0497
 1981TIP3    H227579   4.667   1.526   8.530  1.0532  1.0791  0.1747
 1982TIP3   OH227580   1.162   4.836   7.564 -0.4208  0.6185 -0.4101
 1982TIP3    H127581   1.125   4.753   7.594 -0.6949  0.4692 -1.1373
 1982TIP3    H227582   1.185   4.883   7.645 -1.9140  0.5835  0.0656
 1983TIP3   OH227583   4.155   1.209   1.227  0.0448 -0.2827  0.0210
 1983TIP3    H127584   4.184   1.156   1.153  0.9354 -1.0701  0.8920
 1983TIP3    H227585   4.133   1.145   1.295  0.5970  0.4382  0.9055
 1984TIP3   OH227586   3.653   2.259   1.029  0.0427  0.0150 -0.4549
 1984TIP3    H127587   3.698   2.343   1.019  0.5528 -0.2018 -0.0168
 1984TIP3    H227588   3.593   2.256   0.955  0.8799  0.2255 -1.1670
 1985TIP3   OH227589   2.741   2.980   7.984  0.0222  0.0891  0.0028
 1985TIP3    H127590   2.807   2.964   8.052  2.9573 -1.1423 -2.9095
 1985TIP3    H227591   2.737   3.076   7.977  1.9042  0.1968 -0.0649
 1986TIP3   OH227592   4.441   4.579   2.584 -0.3570  0.4940  0.3870
 1986TIP3    H127593   4.444   4.487   2.560  0.5990  0.4244  0.7572
 1986TIP3    H227594   4.475   4.625   2.507 -0.9737  0.5548  0.1456
 1987TIP3   OH227595   5.099   5.813   2.373 -0.0146 -0.2230 -0.5607
 1987TIP3    H127596   5.030   5.841   2.433  0.7257 -0.8692  0.6131
 1987TIP3    H227597   5.147   5.894   2.354 -2.0275  0.5956 -2.7424
 1988TIP3   OH227598   2.163   3.182   1.422  0.0130  0.0885 -0.2917
 1988TIP3    H127599   2.211   3.247   1.472  1.7673 -1.9144  0.7971
 1988TIP3    H227600   2.221   3.157   1.351 -1.6895  1.5079 -2.2812
 1989TIP3   OH227601   2.687   1.988   0.719 -0.5965  0.3101 -0.2011
 1989TIP3    H127602   2.672   2.055   0.653  0.3780  0.7336 -0.0208
 1989TIP3    H227603   2.648   1.908   0.683 -2.9654  1.2374  0.1665
 1990TIP3   OH227604   0.657   1.444   1.292  0.2487 -0.3056  0.2131
 1990TIP3    H127605   0.647   1.532   1.255  1.0621 -0.5691 -0.6696
 1990TIP3    H227606   0.601   1.444   1.370  1.9291  1.7107  1.5013
 1991TIP3   OH227607   1.775   0.928   7.239 -0.4782  0.3034  0.4513
 1991TIP3    H127608   1.716   0.898   7.308  0.0806  0.4220  0.9941
 1991TIP3    H227609   1.719   0.977   7.179 -1.1564 -0.6592  0.2712
 1992TIP3   OH227610   2.429   2.275   0.350  0.1194  0.4882  0.4217
 1992TIP3    H127611   2.340   2.302   0.372  0.0334  0.0309  0.6582
 1992TIP3    H227612   2.425   2.248   0.259  0.0933  0.7987  0.3317
 1993TIP3   OH227613   5.239   3.578   8.210  0.8972  0.1685 -0.1852
 1993TIP3    H127614   5.147   3.587   8.236  0.8630  1.5679 -0.6885
 1993TIP3    H227615   5.235   3.553   8.117  1.0241  0.1163 -0.1774
 1994TIP3   OH227616   3.067   5.753   1.368  0.9742 -0.2202  0.6768
 1994TIP3    H127617   3.095   5.718   1.283  0.4367  0.0211  0.3992
 1994TIP3    H227618   3.020   5.681   1.409  0.8219 -0.1823  0.5694
 1995TIP3   OH227619   6.688   6.913   2.245  0.0395  0.3609 -0.1592
 1995TIP3    H127620   6.622   6.900   2.313 -0.0298  0.5846 -0.1836
 1995TIP3    H227621   6.771   6.915   2.293  0.0992 -0.5685 -0.1921
 1996TIP3   OH227622   5.169   5.180   8.162  0.4089 -0.2069 -0.1517
 1996TIP3    H127623   5.221   5.100   8.157 -0.6760 -0.9408  0.1080
 1996TIP3    H227624   5.217   5.243   8.107  1.0353 -1.1510 -0.7162
 1997TIP3   OH227625   2.604   4.383   0.080 -0.3402 -0.2076  0.0111
 1997TIP3    H127626   2.623   4.435   0.002  1.0134  1.7156  1.5409
 1997TIP3    H227627   2.689   4.352   0.110 -0.6989  0.0471  1.3548
 1998TIP3   OH227628   5.402   4.076   2.393 -0.1406 -0.8124  0.0694
 1998TIP3    H127629   5.360   3.996   2.363 -0.7678 -1.1632  1.7738
 1998TIP3    H227630   5.337   4.118   2.449  0.6351  0.2456  0.2181
 1999TIP3   OH227631   5.592   1.080   6.487 -0.8021 -0.1367  0.1256
 1999TIP3    H127632   5.520   1.088   6.425  0.2004 -0.7479 -1.1795
 1999TIP3    H227633   5.571   1.141   6.557 -2.0545  0.4667 -0.7399
 2000TIP3   OH227634   3.431   1.642   7.541  0.0920 -0.6046  0.2523
 2000TIP3    H127635   3.337   1.655   7.552 -0.1212 -0.1078 -1.7321
 2000TIP3    H227636   3.449   1.672   7.452  2.0943 -0.9252  0.5018
 2001TIP3   OH227637   0.120   1.013   0.028  0.0839  0.4059 -0.7947
 2001TIP3    H127638   0.042   0.981  -0.016  0.2856  0.9985 -1.6028
 2001TIP3    H227639   0.173   1.052  -0.042  0.1343  1.9299  0.0494
 2002TIP3   OH227640   3.628   6.380   1.052 -0.6803 -0.2745  0.3521
 2002TIP3    H127641   3.651   6.468   1.021 -0.5182 -0.4113  0.0771
 2002TIP3    H227642   3.568   6.395   1.125 -0.4863  0.0698  0.4434
 2003TIP3   OH227643   0.761   3.988   8.194  0.1727  0.1412 -0.0378
 2003TIP3    H127644   0.850   3.962   8.169  0.2143 -0.0646  0.3095
 2003TIP3    H227645   0.768   4.081   8.215  0.3574  0.0780  0.1938
 2004TIP3   OH227646   5.339   0.754   1.086  0.4091 -0.2801 -0.2058
 2004TIP3    H127647   5.249   0.736   1.113  0.2945  0.5429 -0.0087
 2004TIP3    H227648   5.391   0.687   1.129 -0.0129 -0.2186  0.4165
 2005TIP3   OH227649   3.617   6.525   0.025  0.7286  0.3540 -0.0134
 2005TIP3    H127650   3.567   6.455   0.067  1.4895  0.4216  1.0274
 2005TIP3    H227651   3.594   6.518  -0.068 -1.0534  0.2440  0.3858
 2006TIP3   OH227652   2.718   0.642   1.571 -0.0353  0.4015  0.0005
 2006TIP3    H127653   2.751   0.732   1.584  1.2498  0.0714 -0.7801
 2006TIP3    H227654   2.630   0.654   1.537 -0.0683  1.3630  0.3693
 2007TIP3   OH227655   5.073   6.386   0.341 -0.0762  0.2197 -0.3511
 2007TIP3    H127656   5.068   6.430   0.426  0.8990 -1.2437  0.5171
 2007TIP3    H227657   5.159   6.342   0.343 -1.3430 -2.4736 -0.7343
 2008TIP3   OH227658   1.028   4.195   6.526  0.2850  0.1893 -0.1238
 2008TIP3    H127659   1.096   4.146   6.480 -0.1299 -1.9502  1.4042
 2008TIP3    H227660   0.947   4.149   6.505 -0.7204  2.4222 -1.5395
 2009TIP3   OH227661   5.042   1.432   7.346  0.0450 -0.3830  0.6685
 2009TIP3    H127662   5.057   1.367   7.277  0.1766 -0.4465  0.7554
 2009TIP3    H227663   4.993   1.502   7.303 -0.2057 -0.5981  0.6047
 2010TIP3   OH227664   6.729   1.452   0.325  0.0372  0.3572 -0.3840
 2010TIP3    H127665   6.749   1.488   0.238  0.1761 -1.0405 -0.9544
 2010TIP3    H227666   6.682   1.371   0.307  0.9362 -0.4617  0.8413
 2011TIP3   OH227667   0.435   3.991   2.187 -0.5289  0.3533  0.0168
 2011TIP3    H127668   0.472   4.026   2.106  0.3703  0.5570  0.4986
 2011TIP3    H227669   0.499   4.015   2.254 -1.7423  1.0650  0.9527
 2012TIP3   OH227670   0.500   0.719   8.567 -0.2406 -0.1783  0.1387
 2012TIP3    H127671   0.563   0.753   8.631 -1.5048 -0.9523  1.8715
 2012TIP3    H227672   0.528   0.628   8.552 -0.8974 -0.5041  0.8637
 2013TIP3   OH227673   4.791   1.920   6.839  0.7634  0.0945  0.7634
 2013TIP3    H127674   4.805   2.014   6.852  1.5642  0.4424 -1.9776
 2013TIP3    H227675   4.714   1.914   6.783  1.1828 -0.8342  0.2590
 2014TIP3   OH227676   4.281   3.446   6.899 -0.1017 -0.2101  0.2804
 2014TIP3    H127677   4.275   3.537   6.928  0.9313  0.4292 -1.3548
 2014TIP3    H227678   4.373   3.435   6.874 -1.0983 -0.0489 -4.3780
 2015TIP3   OH227679   4.462   5.371   8.397 -0.4284  0.4997  0.3016
 2015TIP3    H127680   4.427   5.355   8.485 -0.2230  1.4446  0.5681
 2015TIP3    H227681   4.537   5.428   8.412  1.3062 -1.5248 -0.2473
 2016TIP3   OH227682   2.311   4.930   1.823 -0.3593 -0.4580 -0.3551
 2016TIP3    H127683   2.223   4.955   1.851  0.0645  1.6174 -0.7709
 2016TIP3    H227684   2.316   4.836   1.843 -1.7865 -0.1242  1.9074
 2017TIP3   OH227685   0.319   4.013   0.610  0.1278 -0.5996  0.1921
 2017TIP3    H127686   0.355   4.045   0.528 -0.8133 -0.9240 -0.3640
 2017TIP3    H227687   0.258   3.944   0.584 -1.0677  0.0998  1.0820
 2018TIP3   OH227688   0.733   5.576   1.505 -0.0896 -0.6329  0.4346
 2018TIP3    H127689   0.659   5.515   1.505  0.4531 -1.3484 -1.1224
 2018TIP3    H227690   0.744   5.600   1.412  0.1184  1.3617  0.9279
 2019TIP3   OH227691   3.891   0.619   0.431  0.2930  0.5665 -0.0736
 2019TIP3    H127692   3.824   0.670   0.385  0.5606  0.0962 -1.0010
 2019TIP3    H227693   3.847   0.587   0.509 -0.1534  1.4259  0.0422
 2020TIP3   OH227694   3.834   1.893   0.530  0.5091  0.0655  0.1005
 2020TIP3    H127695   3.767   1.954   0.560 -1.5075 -2.4185  1.0063
 2020TIP3    H227696   3.824   1.816   0.586  1.3193 -2.0495 -2.4204
 2021TIP3   OH227697   3.686   3.841   1.225  0.2773  0.1350  0.5131
 2021TIP3    H127698   3.627   3.914   1.204  0.8553  0.2999 -0.6437
 2021TIP3    H227699   3.746   3.837   1.151  1.4599 -0.3049  1.4653
 2022TIP3   OH227700   2.702   5.477   7.293 -0.2291  0.5572  0.0508
 2022TIP3    H127701   2.613   5.509   7.280  0.0567  1.6431  0.6033
 2022TIP3    H227702   2.710   5.402   7.235 -2.7397 -2.0533  2.7323
 2023TIP3   OH227703   3.360   2.861   2.033  0.0296 -0.5552  0.0375
 2023TIP3    H127704   3.329   2.934   1.980 -0.7001 -0.7580  0.1679
 2023TIP3    H227705   3.405   2.902   2.106 -1.1972 -0.1892  0.6163
 2024TIP3   OH227706   4.246   3.621   1.009 -0.0423  0.3152 -0.4225
 2024TIP3    H127707   4.275   3.711   1.018  0.5704  0.1739 -0.9133
 2024TIP3    H227708   4.326   3.569   1.019 -0.1641 -0.0973 -1.4475
 2025TIP3   OH227709   5.703   6.226   1.187  0.2883 -0.0968  0.4285
 2025TIP3    H127710   5.742   6.280   1.118 -0.3471 -0.1844 -0.0080
 2025TIP3    H227711   5.714   6.278   1.267  1.2066 -0.0824  0.3018
 2026TIP3   OH227712   4.489   6.785   0.735 -0.1788 -0.7672 -0.7109
 2026TIP3    H127713   4.505   6.765   0.827 -1.5685  1.1150 -0.0105
 2026TIP3    H227714   4.483   6.699   0.693  0.3823 -1.6658  0.9426
 2027TIP3   OH227715   3.856   6.177   2.492 -0.1675  0.4421  0.4938
 2027TIP3    H127716   3.838   6.179   2.398 -2.6949 -1.3201  0.8244
 2027TIP3    H227717   3.930   6.236   2.504  0.1283  0.8493 -2.5627
 2028TIP3   OH227718   0.811   6.015   6.750  0.0200 -0.0727 -0.0971
 2028TIP3    H127719   0.805   6.109   6.767 -1.6226 -0.4013  1.4270
 2028TIP3    H227720   0.881   6.007   6.685  0.9422  2.0988  0.5358
 2029TIP3   OH227721   1.420   6.019   7.219 -0.2876 -0.1671 -0.5455
 2029TIP3    H127722   1.436   6.002   7.126  0.4142 -0.7383 -0.3252
 2029TIP3    H227723   1.419   5.932   7.260 -1.0384  0.0484 -0.0822
 2030TIP3   OH227724   5.706   0.848   1.500  0.2027 -0.6204  0.0268
 2030TIP3    H127725   5.793   0.867   1.463  0.0015 -0.9681 -0.6361
 2030TIP3    H227726   5.645   0.885   1.437 -0.1444  1.0372  1.2598
 2031TIP3   OH227727   6.670   5.489   1.607 -0.6788  0.4909 -0.0188
 2031TIP3    H127728   6.757   5.513   1.640 -0.7167  0.5390  0.0473
 2031TIP3    H227729   6.614   5.488   1.685 -0.2518 -1.8460  0.3134
 2032TIP3   OH227730   3.593   2.565   7.001 -1.0482  0.0120  0.8461
 2032TIP3    H127731   3.568   2.540   6.912 -0.2588  2.3803 -0.1429
 2032TIP3    H227732   3.544   2.505   7.058 -0.9655 -2.0977 -1.1628
 2033TIP3   OH227733   1.517   5.185   2.394  0.4792 -0.0273 -0.0316
 2033TIP3    H127734   1.434   5.232   2.405  1.4438  1.3214  2.2085
 2033TIP3    H227735   1.519   5.122   2.466  0.6993 -1.2412 -1.0597
 2034TIP3   OH227736   3.015   5.232   8.370 -0.4098  0.2721 -0.0147
 2034TIP3    H127737   2.957   5.181   8.427 -1.0437 -0.5625 -1.3699
 2034TIP3    H227738   3.094   5.179   8.364  1.2054  2.0191  2.9366
 2035TIP3   OH227739   5.242   2.298   0.162  0.0065  0.5809 -0.3431
 2035TIP3    H127740   5.267   2.206   0.170 -0.7653  0.2095 -1.7443
 2035TIP3    H227741   5.268   2.322   0.073 -1.6199  1.1096 -0.7123
 2036TIP3   OH227742   5.712   2.537   0.771 -0.3504 -0.5730  0.1745
 2036TIP3    H127743   5.667   2.577   0.845 -0.1613 -0.4596  0.2276
 2036TIP3    H227744   5.669   2.574   0.694  0.5552  0.5707  0.2118
 2037TIP3   OH227745   4.532   2.044   7.311 -0.3733 -0.1280  0.5671
 2037TIP3    H127746   4.504   1.955   7.287 -1.7921 -0.0586  1.7871
 2037TIP3    H227747   4.453   2.097   7.301  0.3091  0.8959  0.4387
 2038TIP3   OH227748   5.805   4.809   0.979  0.2166  0.1209 -0.2910
 2038TIP3    H127749   5.851   4.889   0.954  1.5588 -0.6163 -0.3052
 2038TIP3    H227750   5.819   4.749   0.906  0.4391 -0.5917  0.3251
 2039TIP3   OH227751   5.554   4.285   1.026  0.1812 -0.1510 -0.6255
 2039TIP3    H127752   5.602   4.330   0.958  2.8543 -0.8520  0.6824
 2039TIP3    H227753   5.566   4.339   1.104  0.9422 -1.5833  0.2858
 2040TIP3   OH227754   4.678   1.414   1.852 -0.1458 -0.4508 -1.1632
 2040TIP3    H127755   4.600   1.375   1.891 -0.7496  1.0817 -0.8016
 2040TIP3    H227756   4.672   1.393   1.759 -1.1208 -0.1346 -1.1785
 2041TIP3   OH227757   3.778   2.554   0.331  0.4509 -0.0000 -0.2301
 2041TIP3    H127758   3.684   2.544   0.343  0.3583  1.1480  0.1577
 2041TIP3    H227759   3.789   2.584   0.241  0.2302  2.1388  0.4108
 2042TIP3   OH227760   1.852   6.657   5.945 -0.1192  0.0820 -0.4283
 2042TIP3    H127761   1.918   6.706   5.995  2.0283 -0.7792 -2.2444
 2042TIP3    H227762   1.885   6.567   5.945 -1.9899 -0.6349 -0.3721
 2043TIP3   OH227763   4.206   3.447   8.126  0.5610 -0.0096 -0.1651
 2043TIP3    H127764   4.228   3.473   8.037 -3.3778 -0.6813 -1.4917
 2043TIP3    H227765   4.207   3.351   8.125  0.3199 -0.0275  0.4728
 2044TIP3   OH227766   5.408   4.117   6.713  0.8092 -0.0424  0.0112
 2044TIP3    H127767   5.378   4.196   6.667 -1.8576  0.2262  1.9982
 2044TIP3    H227768   5.371   4.044   6.662  1.5092  0.0351 -0.6343
 2045TIP3   OH227769   1.803   0.676   1.345 -0.3015  0.0204  0.3493
 2045TIP3    H127770   1.728   0.648   1.398 -0.1032 -0.1654  0.5343
 2045TIP3    H227771   1.793   0.628   1.263 -0.7524  0.5066  0.1136
 2046TIP3   OH227772   0.794   1.980   7.558  0.5249  0.3209  0.1147
 2046TIP3    H127773   0.721   1.970   7.497 -0.0980  1.3698  0.6770
 2046TIP3    H227774   0.858   2.033   7.510  0.4203  0.3820  0.0423
 2047TIP3   OH227775   5.775   6.713   6.661  0.1703 -0.8223  0.9152
 2047TIP3    H127776   5.730   6.655   6.723 -1.6632  0.7841  1.2037
 2047TIP3    H227777   5.797   6.657   6.587 -0.4744 -2.1192  1.6697
 2048TIP3   OH227778   2.417   3.747   6.530  0.5392  0.4572  0.3477
 2048TIP3    H127779   2.417   3.812   6.459 -0.6622  0.8673  0.6942
 2048TIP3    H227780   2.328   3.711   6.529  1.2631 -1.4574 -0.0536
 2049TIP3   OH227781   4.594   3.645   6.947  0.1830 -0.2091 -0.3932
 2049TIP3    H127782   4.540   3.709   6.993 -0.7810 -0.5427 -1.0129
 2049TIP3    H227783   4.619   3.582   7.014 -0.1852 -0.0348 -0.0860
 2050TIP3   OH227784   3.443   6.633   2.150  0.0144 -0.1450 -0.1655
 2050TIP3    H127785   3.352   6.635   2.121 -0.4622 -0.4688  1.2408
 2050TIP3    H227786   3.491   6.594   2.077 -0.8650  0.5991 -1.1650
 2051TIP3   OH227787   3.669   6.463   2.005 -0.4618 -0.2968  0.7669
 2051TIP3    H127788   3.715   6.382   1.982 -0.3468  0.0448 -0.2602
 2051TIP3    H227789   3.711   6.493   2.085 -0.6805 -1.3890  1.2948
 2052TIP3   OH227790   2.518   2.474   7.967  0.0356 -0.1168 -0.0047
 2052TIP3    H127791   2.612   2.483   7.957 -0.0446  2.6766  0.8259
 2052TIP3    H227792   2.488   2.434   7.886  1.8630 -0.6109 -0.4676
 2053TIP3   OH227793   1.260   3.271   7.228  0.3844  0.8123 -0.3127
 2053TIP3    H127794   1.328   3.222   7.182 -0.1312  1.3693 -1.7360
 2053TIP3    H227795   1.220   3.326   7.160 -1.2710  0.7359  0.5402
 2054TIP3   OH227796   4.613   6.924   1.396  0.3340 -0.0439 -0.5811
 2054TIP3    H127797   4.542   6.873   1.435 -0.7872  1.2793 -0.8224
 2054TIP3    H227798   4.665   6.860   1.348 -0.2406 -1.1631  0.2450
 2055TIP3   OH227799   1.753   2.782   2.208  0.2984  0.4680  0.7827
 2055TIP3    H127800   1.792   2.857   2.254  0.3288  1.2067 -0.4002
 2055TIP3    H227801   1.811   2.709   2.229  0.9056  1.0156  1.0772
 2056TIP3   OH227802   6.863   1.422   8.383 -0.0945 -0.0971  0.8416
 2056TIP3    H127803   6.873   1.517   8.372 -0.3325 -0.0558  0.9726
 2056TIP3    H227804   6.952   1.389   8.386  0.2910  0.6669  5.7624
 2057TIP3   OH227805   6.487   3.565   6.970  0.6985  0.3814  0.0280
 2057TIP3    H127806   6.489   3.577   6.875  2.4697  0.3320  0.0124
 2057TIP3    H227807   6.450   3.478   6.983 -1.1658  1.0509 -0.4978
 2058TIP3   OH227808   5.083   0.907   7.223 -0.3087  0.3423  0.1275
 2058TIP3    H127809   5.157   0.850   7.202  0.0598  1.4258 -1.7806
 2058TIP3    H227810   5.113   0.994   7.196 -1.3415  1.2320  1.7440
 2059TIP3   OH227811   2.825   6.103   7.144  0.0161 -0.0437  0.3839
 2059TIP3    H127812   2.847   6.092   7.051 -1.4214 -3.5193  0.2901
 2059TIP3    H227813   2.908   6.094   7.190  0.7595  1.8236 -0.5010
 2060TIP3   OH227814   3.925   6.104   0.348  0.1687  0.1154 -0.0448
 2060TIP3    H127815   3.934   6.103   0.443 -0.1605  0.5410 -0.0106
 2060TIP3    H227816   4.015   6.114   0.316  0.2788 -0.0187  0.2166
 2061TIP3   OH227817   5.107   5.082   7.495  0.5063 -0.0432 -0.1511
 2061TIP3    H127818   5.165   5.137   7.548  0.1852 -2.0760  2.5314
 2061TIP3    H227819   5.164   5.015   7.459  0.3446 -0.0387 -0.4167
 2062TIP3   OH227820   4.207   4.736   0.258  0.2564 -0.5733 -0.3826
 2062TIP3    H127821   4.277   4.781   0.211 -0.9321  1.8616  0.0025
 2062TIP3    H227822   4.232   4.741   0.350  0.8931 -2.2054 -0.4477
 2063TIP3   OH227823   1.109   3.914   1.592  0.4552  0.6774  0.4092
 2063TIP3    H127824   1.130   3.834   1.544 -3.6570 -3.0209  3.9408
 2063TIP3    H227825   1.169   3.913   1.667 -0.2279  0.3213  0.9581
 2064TIP3   OH227826   3.095   0.887   7.726  0.2348  0.0396  0.0444
 2064TIP3    H127827   3.110   0.833   7.648  0.2291 -0.0485  0.1038
 2064TIP3    H227828   3.157   0.960   7.717  2.0586 -1.2564  1.1738
 2065TIP3   OH227829   3.905   3.280   0.624  0.1146 -0.2374  0.6929
 2065TIP3    H127830   3.930   3.372   0.620  0.0499 -0.1434  2.1366
 2065TIP3    H227831   3.816   3.278   0.588  0.4908  0.1011 -0.2766
 2066TIP3   OH227832   3.518   2.857   6.619  0.7245 -0.5466 -0.4856
 2066TIP3    H127833   3.488   2.817   6.701  0.9359 -0.5509 -0.4116
 2066TIP3    H227834   3.463   2.935   6.609 -0.1284 -1.1932 -0.9599
 2067TIP3   OH227835   1.930   0.232   6.685  0.1941 -0.2474  0.0801
 2067TIP3    H127836   1.986   0.191   6.619  1.0097  0.6881  0.1536
 2067TIP3    H227837   1.882   0.159   6.725  0.9827 -1.0232 -0.3450
 2068TIP3   OH227838   5.376   6.786   8.054 -0.3205 -0.5328 -0.2401
 2068TIP3    H127839   5.379   6.690   8.054 -1.0435 -0.5616  0.6518
 2068TIP3    H227840   5.453   6.812   8.105 -0.9153 -0.6840  0.7604
 2069TIP3   OH227841   5.576   4.708   1.134 -0.7434 -0.3838  0.4713
 2069TIP3    H127842   5.661   4.712   1.088  0.2159 -0.5516  2.1539
 2069TIP3    H227843   5.548   4.799   1.141 -0.0522 -0.2039  1.0222
 2070TIP3   OH227844   4.220   1.472   6.788 -0.3046 -0.1446 -0.2615
 2070TIP3    H127845   4.254   1.433   6.869  0.8015 -1.2332 -1.1962
 2070TIP3    H227846   4.177   1.399   6.744  0.3214  0.0795 -1.2730
 2071TIP3   OH227847   3.515   6.670   7.164  0.3859 -0.0360 -0.5007
 2071TIP3    H127848   3.442   6.644   7.220 -0.4789  1.2445 -0.9707
 2071TIP3    H227849   3.592   6.661   7.219  0.0099 -2.2003 -0.2350
 2072TIP3   OH227850   3.774   2.550   6.564 -0.2234 -0.1343  0.4925
 2072TIP3    H127851   3.827   2.536   6.642 -1.1763  0.5346  1.2828
 2072TIP3    H227852   3.812   2.627   6.522 -0.6214  0.4150  1.1217
 2073TIP3   OH227853   6.438   4.137   6.917  0.4449  0.0218  0.1484
 2073TIP3    H127854   6.389   4.178   6.846 -0.9851 -0.7370  0.6568
 2073TIP3    H227855   6.403   4.048   6.921  0.5611  0.0317  1.7475
 2074TIP3   OH227856   4.893   5.591   8.289 -0.2240  0.1372  0.5257
 2074TIP3    H127857   4.963   5.653   8.271 -1.4648  1.2333 -0.6578
 2074TIP3    H227858   4.937   5.506   8.291  1.1575  0.8079  0.0042
 2075TIP3   OH227859   0.912   6.152   0.763 -0.5557 -0.2976  0.0038
 2075TIP3    H127860   0.958   6.075   0.797 -0.9257 -0.7254 -0.4402
 2075TIP3    H227861   0.822   6.122   0.751 -0.5670  0.0278 -0.7575
 2076TIP3   OH227862   4.907   5.294   0.623 -0.3342  0.3785  0.1702
 2076TIP3    H127863   4.870   5.248   0.698 -1.8417 -0.3984 -0.9926
 2076TIP3    H227864   4.960   5.228   0.578  3.1390  1.5880  2.0814
 2077TIP3   OH227865   6.362   4.839   8.033  0.7712 -0.6930 -0.1243
 2077TIP3    H127866   6.412   4.909   7.991 -0.5601  0.1797 -0.3288
 2077TIP3    H227867   6.392   4.839   8.124 -0.9553  1.9496  0.5786
 2078TIP3   OH227868   2.968   2.227   7.444 -0.1303 -0.3737  0.3418
 2078TIP3    H127869   2.935   2.293   7.505 -2.8867 -1.3256  0.0027
 2078TIP3    H227870   2.983   2.275   7.363  1.4123  0.4677  1.0770
 2079TIP3   OH227871   4.059   3.929   0.992  0.8528 -0.2475  0.3618
 2079TIP3    H127872   3.978   3.879   0.999  0.5251  0.4166  1.4877
 2079TIP3    H227873   4.078   3.958   1.081  1.8723  0.3311 -0.0206
 2080TIP3   OH227874   6.105   0.937   7.588  0.2110  0.4295 -0.3077
 2080TIP3    H127875   6.077   0.868   7.528 -0.5841  0.0637  0.4724
 2080TIP3    H227876   6.027   0.958   7.639  0.6947  1.2369  0.1124
 2081TIP3   OH227877   4.785   4.425   1.362 -0.1989 -0.4268  0.3743
 2081TIP3    H127878   4.758   4.398   1.274  0.9122 -0.1040 -0.0893
 2081TIP3    H227879   4.729   4.375   1.421  0.0204 -1.7382 -0.4912
 2082TIP3   OH227880   0.127   2.765   2.070 -0.1417 -0.6318 -0.9222
 2082TIP3    H127881   0.060   2.723   2.123  0.5622 -1.8274 -0.9534
 2082TIP3    H227882   0.206   2.762   2.125 -0.0552  0.6230 -0.9415
 2083TIP3   OH227883   6.208   6.623   7.994 -0.4223 -0.3278 -0.2857
 2083TIP3    H127884   6.114   6.616   8.010 -0.4835 -1.9281 -1.1722
 2083TIP3    H227885   6.226   6.717   7.999 -2.3140  0.1440 -1.3781
 2084TIP3   OH227886   6.004   6.663   0.164  0.2363 -0.4938 -0.1496
 2084TIP3    H127887   6.023   6.721   0.090 -2.3306  3.1765  1.7369
 2084TIP3    H227888   6.076   6.676   0.225 -0.0343  0.2996  0.0087
 2085TIP3   OH227889   0.793   0.529   2.276 -0.2009 -0.0197 -0.0629
 2085TIP3    H127890   0.754   0.466   2.337  0.0902 -1.4465 -1.2681
 2085TIP3    H227891   0.879   0.490   2.255 -0.7806 -0.2315 -2.2793
 2086TIP3   OH227892   1.167   3.249   2.104 -0.3621 -0.0165 -0.3785
 2086TIP3    H127893   1.225   3.314   2.143 -0.3621 -1.2761  1.8757
 2086TIP3    H227894   1.140   3.288   2.021  1.4383  1.8343 -0.1737
 2087TIP3   OH227895   3.925   3.834   8.022  0.4159  0.5553  0.3185
 2087TIP3    H127896   4.003   3.811   7.971  0.4276  1.0493  0.1111
 2087TIP3    H227897   3.868   3.758   8.013  0.9615  0.0930  0.6546
 2088TIP3   OH227898   0.092   6.430   0.390  0.5079  0.2639  0.1571
 2088TIP3    H127899   0.113   6.423   0.297 -0.7311 -0.1330 -0.1122
 2088TIP3    H227900   0.110   6.343   0.425  1.1723  0.4690  0.3499
 2089TIP3   OH227901   4.350   6.501   7.792 -0.1416  0.0208 -0.4098
 2089TIP3    H127902   4.367   6.449   7.713 -0.9618  1.7813 -1.8242
 2089TIP3    H227903   4.346   6.592   7.761  0.4813  0.8844  1.8330
 2090TIP3   OH227904   5.285   4.794   0.535 -0.6527 -0.0892  0.2684
 2090TIP3    H127905   5.289   4.727   0.467  1.3459  1.3768 -1.1996
 2090TIP3    H227906   5.360   4.775   0.592 -1.2623 -0.2555  1.0283
 2091TIP3   OH227907   3.207   4.748   6.895  0.2441  0.2212  0.3918
 2091TIP3    H127908   3.255   4.830   6.898  0.7152 -0.0046 -0.6668
 2091TIP3    H227909   3.118   4.773   6.869  0.4562  0.3822 -0.1997
 2092TIP3   OH227910   0.733   0.809   1.389 -0.4501  0.3327  0.2861
 2092TIP3    H127911   0.716   0.782   1.299 -0.3203  1.0897  0.0318
 2092TIP3    H227912   0.657   0.776   1.438 -0.8920  0.5644 -0.2254
 2093TIP3   OH227913   4.824   4.041   0.725 -0.4891 -0.0738  0.2630
 2093TIP3    H127914   4.878   4.082   0.793  0.1139  0.2247 -0.3782
 2093TIP3    H227915   4.769   3.979   0.772  0.1890 -0.1477  0.9808
 2094TIP3   OH227916   2.967   3.297   0.438 -0.1314  0.4338  0.3375
 2094TIP3    H127917   2.957   3.203   0.448 -1.2564  0.5684  0.5494
 2094TIP3    H227918   2.976   3.330   0.528  0.3786  0.5300  0.2589
 2095TIP3   OH227919   0.359   6.618   8.534  0.1277  0.6798  0.0500
 2095TIP3    H127920   0.356   6.560   8.610 -0.7661 -0.1695 -0.6155
 2095TIP3    H227921   0.282   6.673   8.543  0.4989  1.1861  0.2105
 2096TIP3   OH227922   0.374   1.605   1.838  0.4834 -0.0386  0.4063
 2096TIP3    H127923   0.448   1.662   1.820 -1.0276  1.8105 -0.2847
 2096TIP3    H227924   0.304   1.665   1.866 -0.6083 -1.7626  1.5752
 2097TIP3   OH227925   0.140   5.984   7.231 -0.4405  0.0444  0.1098
 2097TIP3    H127926   0.078   6.048   7.268  0.0724  1.7468 -1.7840
 2097TIP3    H227927   0.120   5.983   7.137 -1.5583 -3.9337  0.2101
 2098TIP3   OH227928   0.549   2.354   1.439  0.1210  0.0487 -0.3073
 2098TIP3    H127929   0.607   2.363   1.364  1.3882  1.3515  0.7728
 2098TIP3    H227930   0.467   2.321   1.402  1.3309 -1.2628 -1.9522
 2099TIP3   OH227931   1.308   4.213   1.041  0.0925  0.6209  0.1939
 2099TIP3    H127932   1.403   4.216   1.055  0.3714  1.0986 -1.4737
 2099TIP3    H227933   1.299   4.171   0.955 -1.3020 -0.7736  0.9877
 2100TIP3   OH227934   2.796   0.902   7.735  0.2646 -0.1184 -0.4380
 2100TIP3    H127935   2.890   0.896   7.717  0.3939  3.5421 -1.9761
 2100TIP3    H227936   2.759   0.820   7.701  2.8573 -1.6837  0.2904
 2101TIP3   OH227937   0.750   4.972   0.527  0.1497  0.1379  0.4327
 2101TIP3    H127938   0.823   5.009   0.478 -0.8184 -0.5506 -1.6530
 2101TIP3    H227939   0.672   5.006   0.483 -0.7731 -2.6776 -0.2940
 2102TIP3   OH227940   3.347   5.800   1.397 -0.6588 -0.6411 -0.0702
 2102TIP3    H127941   3.264   5.802   1.444  0.0354 -0.4268  1.1890
 2102TIP3    H227942   3.412   5.781   1.464  0.5901  1.4081 -0.6266
 2103TIP3   OH227943   1.510   4.557   6.063  0.3206  0.0524 -0.6637
 2103TIP3    H127944   1.571   4.620   6.101  1.0215  0.9530 -3.1595
 2103TIP3    H227945   1.564   4.499   6.010 -0.4703 -1.9853  0.6249
 2104TIP3   OH227946   0.012   6.705   8.323  0.5506 -0.2566  0.3233
 2104TIP3    H127947   0.069   6.661   8.387 -0.3188 -1.8250  0.0803
 2104TIP3    H227948  -0.011   6.788   8.364  1.3599 -0.4992  1.3148
 2105TIP3   OH227949   4.905   2.655   8.449 -0.0407  0.0626  0.4506
 2105TIP3    H127950   4.834   2.591   8.452  1.6069 -1.8866  0.0695
 2105TIP3    H227951   4.937   2.650   8.359  0.4930  1.0190  0.5768
 2106TIP3   OH227952   5.016   4.071   1.354  0.0470  0.1629 -0.0478
 2106TIP3    H127953   5.100   4.044   1.392  0.4623  1.0677 -0.2911
 2106TIP3    H227954   5.030   4.161   1.327 -1.2740  0.6221  0.6958
 2107TIP3   OH227955   1.412   4.521   1.227 -0.1779  0.3585  0.2381
 2107TIP3    H127956   1.377   4.442   1.185 -1.1282  0.6907  0.3763
 2107TIP3    H227957   1.338   4.581   1.230  0.0904  0.6574  1.6064
 2108TIP3   OH227958   0.702   3.061   7.647 -0.3918  0.4051  0.2736
 2108TIP3    H127959   0.769   3.055   7.715 -2.2155  1.4731  2.3187
 2108TIP3    H227960   0.731   3.133   7.591  0.7362  0.0912  0.4358
 2109TIP3   OH227961   0.800   4.143   0.518 -0.4644  0.7421  0.2599
 2109TIP3    H127962   0.884   4.154   0.475 -0.4610  2.8990  0.7312
 2109TIP3    H227963   0.779   4.050   0.506  1.0624  0.5751 -1.5038
 2110TIP3   OH227964   1.658   1.056   6.669 -0.0661 -0.0373 -0.6831
 2110TIP3    H127965   1.586   1.015   6.717 -0.5723 -1.3321 -2.4318
 2110TIP3    H227966   1.620   1.077   6.583  2.0441 -2.4560 -2.3606
 2111TIP3   OH227967   5.023   1.605   7.122 -0.0990  0.4999 -0.2343
 2111TIP3    H127968   5.065   1.524   7.091 -0.3965 -1.1925  3.2847
 2111TIP3    H227969   4.941   1.610   7.073  0.2267 -0.9498 -0.9860
 2112TIP3   OH227970   5.959   4.946   2.401 -0.2471  0.1311 -0.4937
 2112TIP3    H127971   5.890   4.987   2.453 -0.6890 -0.9735 -0.1790
 2112TIP3    H227972   5.915   4.875   2.355  0.7289 -0.7642 -0.0871
 2113TIP3   OH227973   3.998   3.551   0.886  0.1884 -0.0473  0.3675
 2113TIP3    H127974   4.086   3.560   0.923 -0.6163  1.2690  2.0412
 2113TIP3    H227975   3.974   3.460   0.904  0.7988 -0.1210  0.8442
 2114TIP3   OH227976   2.842   3.326   8.538  0.3999  0.1379  0.0296
 2114TIP3    H127977   2.902   3.256   8.565  1.6299  1.3647  0.6129
 2114TIP3    H227978   2.781   3.284   8.478  0.0698 -1.8117  1.6249
 2115TIP3   OH227979   6.871   5.990   0.233  0.2035 -0.0128 -0.2843
 2115TIP3    H127980   6.889   5.937   0.311 -0.0295 -0.3492 -0.4558
 2115TIP3    H227981   6.934   5.959   0.168  3.3280  3.1239  0.9760
 2116TIP3   OH227982   4.987   3.881   0.586 -0.2346 -0.4692 -0.4814
 2116TIP3    H127983   5.006   3.859   0.677 -2.7295  0.2958  0.2946
 2116TIP3    H227984   4.916   3.945   0.591  0.1465  0.2444 -2.9617
 2117TIP3   OH227985   1.017   5.599   8.126 -0.0555 -0.0332  0.0607
 2117TIP3    H127986   1.079   5.644   8.069 -0.3016  1.8906  1.2118
 2117TIP3    H227987   1.069   5.534   8.173  0.7357  0.3848 -0.2246
 2118TIP3   OH227988   2.804   3.487   0.632 -0.0064  0.5449  0.5899
 2118TIP3    H127989   2.783   3.405   0.675 -1.5336  0.1615 -0.7952
 2118TIP3    H227990   2.835   3.544   0.702  1.9586 -1.4248  1.4546
 2119TIP3   OH227991   1.935   0.590   7.591 -0.9201 -0.0266 -0.7493
 2119TIP3    H127992   2.000   0.652   7.625 -1.7087  0.7824 -0.6861
 2119TIP3    H227993   1.851   0.625   7.621 -1.3771 -1.1524 -0.6871
 2120TIP3   OH227994   1.676   2.391   7.633 -0.2487 -0.1895 -0.8903
 2120TIP3    H127995   1.623   2.446   7.692  0.5830 -0.6279  0.2929
 2120TIP3    H227996   1.635   2.304   7.639 -0.3243 -0.1744 -1.1761
 2121TIP3   OH227997   1.153   1.267   7.334  0.1442  0.6013  0.0871
 2121TIP3    H127998   1.204   1.247   7.412 -0.3029  2.3388  0.8676
 2121TIP3    H227999   1.209   1.328   7.285  0.3762 -0.3887 -0.9278
 2122TIP3   OH228000   6.011   0.084   1.196  0.1115 -0.0244  0.0622
 2122TIP3    H128001   6.013  -0.001   1.151 -1.7946  0.8984 -1.9485
 2122TIP3    H228002   5.922   0.092   1.229 -0.3052  1.9022 -1.3678
 2123TIP3   OH228003   3.763   3.613   7.945  0.2575 -0.5156 -0.1144
 2123TIP3    H128004   3.679   3.643   7.910  0.6105  0.4351 -0.1758
 2123TIP3    H228005   3.740   3.561   8.022 -0.3656  0.1759  0.1722
 2124TIP3   OH228006   5.368   1.057   2.570  0.4242  0.0537  0.5235
 2124TIP3    H128007   5.357   1.082   2.478 -0.6152  0.2676  0.6908
 2124TIP3    H228008   5.402   1.135   2.613 -0.2007  0.3229  0.5338
 2125TIP3   OH228009   1.659   3.135   8.246 -0.1094  0.1442  0.0375
 2125TIP3    H128010   1.742   3.114   8.204  1.1621  1.6263  1.6525
 2125TIP3    H228011   1.682   3.153   8.337 -1.9389  2.0273  0.2087
 2126TIP3   OH228012   5.206   2.017   7.846  0.9667 -0.1317  0.2248
 2126TIP3    H128013   5.211   2.026   7.751  0.5143 -0.5689  0.1592
 2126TIP3    H228014   5.138   2.079   7.873  0.9149 -0.1931  0.2357
 2127TIP3   OH228015   2.825   4.218   0.106 -0.3949 -0.6686  0.1933
 2127TIP3    H128016   2.763   4.145   0.102 -0.5158 -0.5241 -2.2977
 2127TIP3    H228017   2.892   4.190   0.167  0.1416 -3.4005 -1.4821
 2128TIP3   OH228018   6.428   1.826   0.491 -0.0155 -0.1173 -0.0613
 2128TIP3    H128019   6.444   1.753   0.430 -0.0699 -0.3824  0.2396
 2128TIP3    H228020   6.333   1.836   0.492 -0.0022  0.0284 -0.1816
 2129TIP3   OH228021   0.674   3.281   0.785 -0.8074  0.2721 -0.4597
 2129TIP3    H128022   0.727   3.271   0.864  0.5160  1.0585 -1.2046
 2129TIP3    H228023   0.606   3.214   0.793  2.4209 -3.4253 -1.2190
 2130TIP3   OH228024   3.861   3.056   8.524 -0.0553  0.1500  0.5168
 2130TIP3    H128025   3.941   3.037   8.573  0.0712  2.1022  1.1642
 2130TIP3    H228026   3.880   3.027   8.435  2.1660  2.2901  0.1899
 2131TIP3   OH228027   1.358   6.240   7.985 -0.8342  0.5914 -0.4192
 2131TIP3    H128028   1.423   6.198   7.929  1.3293  1.2952  1.3940
 2131TIP3    H228029   1.334   6.320   7.939 -0.8180  0.0715 -1.3525
 2132TIP3   OH228030   4.953   3.609   0.468 -0.6001 -0.8053  1.0952
 2132TIP3    H128031   4.871   3.581   0.508 -0.7357 -0.7288  0.8678
 2132TIP3    H228032   4.978   3.688   0.517  0.1851 -1.7386  2.2694
 2133TIP3   OH228033   0.217   3.230   7.020 -0.0900  0.6533  0.2488
 2133TIP3    H128034   0.296   3.267   6.979 -0.5858  0.3709 -1.0110
 2133TIP3    H228035   0.233   3.135   7.021  0.4073  0.7177  1.8184
 2134TIP3   OH228036   4.957   2.346   0.102 -0.2540  0.2456  0.1121
 2134TIP3    H128037   5.041   2.321   0.139 -0.4883 -0.4183  0.1995
 2134TIP3    H228038   4.951   2.298   0.020 -1.3528 -1.1787  0.9770
 2135TIP3   OH228039   2.916   1.375   1.374 -0.0163 -0.6926 -0.1326
 2135TIP3    H128040   2.821   1.381   1.369 -0.0778 -1.3121  0.1765
 2135TIP3    H228041   2.939   1.425   1.453 -0.2633 -2.0796  0.8454
 2136TIP3   OH228042   5.050   6.587   8.066 -0.8819  0.2619  0.2815
 2136TIP3    H128043   5.005   6.636   8.135 -0.7548  1.2179 -0.2890
 2136TIP3    H228044   5.081   6.655   8.005 -1.0987 -0.5643 -0.7753
 2137TIP3   OH228045   3.562   1.580   8.416  0.1079 -0.0873 -0.1389
 2137TIP3    H128046   3.648   1.575   8.374 -0.1495 -0.4932 -0.6347
 2137TIP3    H228047   3.531   1.490   8.416 -0.7480  0.1962 -0.8794
 2138TIP3   OH228048   4.919   2.985   0.412  0.2844  0.3531  0.2905
 2138TIP3    H128049   4.917   2.891   0.426  0.8737  0.2835 -0.0162
 2138TIP3    H228050   4.880   3.023   0.490 -1.4190 -0.1921 -0.2580
 2139TIP3   OH228051   6.516   0.028   8.101  0.5246  0.2072 -0.2090
 2139TIP3    H128052   6.469   0.099   8.144  1.8378  2.2983 -1.9784
 2139TIP3    H228053   6.448  -0.025   8.060 -0.4561  1.3297 -0.0867
 2140TIP3   OH228054   5.680   2.474   7.757  0.2939 -0.2186  0.3183
 2140TIP3    H128055   5.648   2.536   7.823  3.0240 -0.6072  2.2201
 2140TIP3    H228056   5.630   2.394   7.773 -1.6291  0.7378 -0.6084
 2141TIP3   OH228057   5.645   2.152   7.740  0.1483 -0.1527 -0.0124
 2141TIP3    H128058   5.603   2.116   7.818 -0.0391 -0.0167 -0.0494
 2141TIP3    H228059   5.737   2.126   7.748  0.7132  2.0895  1.5622
 2142TIP3   OH228060   5.339   0.204   8.076 -0.1663 -0.3592  0.6354
 2142TIP3    H128061   5.296   0.260   8.140  0.2326 -0.3000  0.8553
 2142TIP3    H228062   5.335   0.116   8.115  1.8901 -0.0194  1.7225
 2143TIP3   OH228063   1.472   0.565   6.851  0.5846 -0.8707  0.1512
 2143TIP3    H128064   1.468   0.505   6.777  3.1298 -0.1019 -0.7222
 2143TIP3    H228065   1.552   0.540   6.898  0.2203  0.0977  1.3309
 2144TIP3   OH228066   4.102   3.992   8.590  0.1065  0.0488 -0.4597
 2144TIP3    H128067   4.136   3.969   8.676 -0.7717  1.0250  0.1803
 2144TIP3    H228068   4.151   4.070   8.564 -1.3576  1.3311  0.3713
 2145TIP3   OH228069   1.606   4.224   1.039  0.3106 -0.7009  0.4602
 2145TIP3    H128070   1.691   4.203   1.000 -0.5219 -1.1815 -1.1433
 2145TIP3    H228071   1.597   4.319   1.025  1.0046 -0.4450  1.5619
 2146TIP3   OH228072   1.254   0.913   0.962 -0.3364  0.0178  0.1337
 2146TIP3    H128073   1.270   0.877   0.874  0.3927  1.6907 -0.4549
 2146TIP3    H228074   1.165   0.884   0.983 -0.4444 -0.6105 -1.0638
 2147TIP3   OH228075   0.874   3.420   8.321 -0.0606  0.6017 -0.4632
 2147TIP3    H128076   0.779   3.416   8.327 -0.0110 -0.0372 -0.0578
 2147TIP3    H228077   0.905   3.360   8.389  0.6312  0.8622 -0.5425
 2148TIP3   OH228078   6.865   2.981   1.679  0.4720  0.1287 -0.1763
 2148TIP3    H128079   6.775   3.002   1.656  0.2115  0.3936  1.0168
 2148TIP3    H228080   6.916   3.056   1.647 -0.0226  1.0088  1.0403
 2149TIP3   OH228081   2.035   2.812   2.093  0.3702  0.4043 -0.4412
 2149TIP3    H128082   2.123   2.813   2.130  0.5115 -0.2635 -0.7536
 2149TIP3    H228083   2.000   2.726   2.115  1.2509 -0.9280 -3.6523
 2150TIP3   OH228084   4.390   6.363   1.101  0.1714 -0.5758  0.1583
 2150TIP3    H128085   4.447   6.289   1.086  0.2465 -0.4822 -0.0183
 2150TIP3    H228086   4.373   6.362   1.196  0.3330 -0.6966  0.1853
 2151TIP3   OH228087   4.061   4.930   0.979  0.6122  0.6773  0.8118
 2151TIP3    H128088   4.027   4.994   1.042  0.5941  1.4784  0.0127
 2151TIP3    H228089   4.095   4.984   0.907  0.0339 -0.2336 -0.1673
 2152TIP3   OH228090   6.534   3.898   7.521  0.3908  0.7030  0.2057
 2152TIP3    H128091   6.460   3.900   7.460  1.4098  1.3734 -1.0616
 2152TIP3    H228092   6.591   3.829   7.488  0.1133 -0.1450  1.4656
 2153TIP3   OH228093   6.001   6.750   7.264 -0.4034  0.1147  0.1861
 2153TIP3    H128094   6.062   6.706   7.322 -0.3132  0.7506  0.5873
 2153TIP3    H228095   5.919   6.701   7.273 -0.0846 -0.4624 -0.0106
 2154TIP3   OH228096   3.731   1.332   8.194 -0.0481 -0.1028  0.3433
 2154TIP3    H128097   3.682   1.298   8.269  0.7430 -0.9461  0.5076
 2154TIP3    H228098   3.751   1.422   8.217  0.6191 -0.4986  1.4084
 2155TIP3   OH228099   4.830   6.849   0.711  0.4954 -0.9870  0.1389
 2155TIP3    H128100   4.748   6.837   0.759 -0.0897  0.1102 -0.5490
 2155TIP3    H228101   4.827   6.785   0.641 -1.9831  1.9315 -2.7050
 2156TIP3   OH228102   6.308   2.979   1.866  0.3995 -0.1453 -0.6503
 2156TIP3    H128103   6.391   2.984   1.912 -0.9693  0.7950  1.9698
 2156TIP3    H228104   6.307   2.893   1.825  2.6373 -0.1503 -0.7651
 2157TIP3   OH228105   0.827   6.935   1.714  0.2615 -0.1536  0.2919
 2157TIP3    H128106   0.740   6.973   1.708  0.3298 -0.0241  0.1277
 2157TIP3    H228107   0.812   6.840   1.716  0.1192 -0.1315  0.2610
 2158TIP3   OH228108   2.999   4.442   0.741 -0.0421  0.0732 -0.3906
 2158TIP3    H128109   3.015   4.351   0.769  0.9291 -0.3606 -2.2268
 2158TIP3    H228110   3.040   4.495   0.809 -0.4570 -0.8537  0.6161
 2159TIP3   OH228111   5.549   2.300   7.152  0.0624 -0.0788 -0.0604
 2159TIP3    H128112   5.582   2.306   7.242  0.5599  0.7402 -0.2822
 2159TIP3    H228113   5.545   2.207   7.133 -2.6557 -0.4650  1.7615
 2160TIP3   OH228114   2.736   4.647   7.304  0.0814  0.6314 -0.1095
 2160TIP3    H128115   2.765   4.578   7.364  0.7673  1.1322  0.1620
 2160TIP3    H228116   2.665   4.609   7.254  0.9602 -0.5337 -0.5111
 2161TIP3   OH228117   0.570   5.747   7.348 -0.4150  0.3691  0.1220
 2161TIP3    H128118   0.475   5.741   7.343 -0.2889 -1.3378 -1.3869
 2161TIP3    H228119   0.599   5.658   7.369  0.8911  0.5434 -0.7806
 2162TIP3   OH228120   1.589   3.394   1.961 -0.0639 -0.5069 -0.4831
 2162TIP3    H128121   1.632   3.465   1.914 -1.0582 -0.3631 -1.2322
 2162TIP3    H228122   1.566   3.431   2.046  0.9450 -0.4772 -0.2222
 2163TIP3   OH228123   1.799   3.196   2.449 -0.0164 -0.4929  0.1139
 2163TIP3    H128124   1.789   3.243   2.532 -1.3310 -1.8561  0.7786
 2163TIP3    H228125   1.819   3.264   2.385 -0.8845  0.8438  1.2105
 2164TIP3   OH228126   5.410   4.876   7.129 -0.1840  0.0197  0.3557
 2164TIP3    H128127   5.496   4.912   7.108  0.0548 -0.3901  0.6266
 2164TIP3    H228128   5.357   4.896   7.052 -0.2582  1.5527  0.7624
 2165TIP3   OH228129   3.295   0.344   0.188 -0.6171 -0.8344  0.3475
 2165TIP3    H128130   3.320   0.267   0.137  1.0302 -1.3761  1.8724
 2165TIP3    H228131   3.230   0.311   0.250  0.8224 -1.3019  1.6782
 2166TIP3   OH228132   0.919   2.824   1.574  0.1743 -0.1428  0.0442
 2166TIP3    H128133   0.831   2.788   1.563  0.7947 -1.4577 -0.8346
 2166TIP3    H228134   0.919   2.861   1.663 -1.8487  1.6473 -0.6258
 2167TIP3   OH228135   2.352   3.994   7.518 -0.0400  0.2862 -0.0009
 2167TIP3    H128136   2.263   4.000   7.484  0.4437 -0.2131 -1.4280
 2167TIP3    H228137   2.369   3.901   7.524  0.7762  0.3621 -0.8723
 2168TIP3   OH228138   0.462   5.328   6.511 -0.3596 -0.0534  0.1479
 2168TIP3    H128139   0.496   5.241   6.529 -0.9564 -0.3909 -0.3168
 2168TIP3    H228140   0.466   5.335   6.415 -1.8044 -0.1988  0.0582
 2169TIP3   OH228141   5.804   1.560   6.549 -0.3790 -0.0966  0.0225
 2169TIP3    H128142   5.739   1.550   6.619  0.5586 -0.7715  0.8256
 2169TIP3    H228143   5.877   1.606   6.591  0.9580 -2.1023  0.0449
 2170TIP3   OH228144   2.010   5.310   8.498 -0.2824 -0.0568  0.0578
 2170TIP3    H128145   2.054   5.393   8.519 -0.9909  0.2159  0.5306
 2170TIP3    H228146   2.079   5.244   8.501  0.1213  0.3843  0.6426
 2171TIP3   OH228147   5.695   1.202   1.847  0.4017 -0.5065 -0.1708
 2171TIP3    H128148   5.751   1.170   1.776  2.7654  0.3501  1.1576
 2171TIP3    H228149   5.742   1.279   1.880 -1.5433  0.1704  1.1725
 2172TIP3   OH228150   4.110   3.068   0.029  0.3126 -0.2970  0.4241
 2172TIP3    H128151   4.083   3.157   0.054 -0.7078 -0.8710  1.4962
 2172TIP3    H228152   4.161   3.080  -0.051  0.2153  1.2571  0.5591
 2173TIP3   OH228153   5.501   5.395   7.321 -0.2811  0.4708  0.1327
 2173TIP3    H128154   5.591   5.368   7.307 -0.3317 -0.0479  0.7472
 2173TIP3    H228155   5.504   5.490   7.323  0.0950  0.4874 -0.8334
 2174TIP3   OH228156   4.341   5.860   7.531 -0.0847  0.2077  0.6488
 2174TIP3    H128157   4.323   5.767   7.520  0.0069 -0.0499  2.3365
 2174TIP3    H228158   4.377   5.888   7.447  0.7165 -1.4820  0.3829
 2175TIP3   OH228159   0.544   2.437   0.796 -0.0653  0.3539 -0.1407
 2175TIP3    H128160   0.589   2.514   0.832  0.6344 -0.1125  0.0087
 2175TIP3    H228161   0.541   2.452   0.702  0.4495  0.3726 -0.1570
 2176TIP3   OH228162   1.193   5.041   0.790 -0.1930  0.0791  0.7098
 2176TIP3    H128163   1.170   5.133   0.801 -0.9458 -0.2104  1.7689
 2176TIP3    H228164   1.121   5.004   0.740 -0.6585 -0.2415  1.5987
 2177TIP3   OH228165   0.840   6.583   6.794 -0.1008  0.4276  0.1764
 2177TIP3    H128166   0.758   6.600   6.747 -0.2681  2.1773  1.0143
 2177TIP3    H228167   0.904   6.642   6.752 -0.0686  1.4464  1.5718
 2178TIP3   OH228168   5.693   4.044   0.987  0.1556 -0.4578 -0.4207
 2178TIP3    H128169   5.648   4.114   1.035 -1.2115 -0.0752 -2.1398
 2178TIP3    H228170   5.755   4.008   1.050  0.0093  1.4623  0.9182
 2179TIP3   OH228171   2.569   6.940   7.158  0.0367  0.3947  0.3068
 2179TIP3    H128172   2.498   6.989   7.200 -1.1581  2.0791 -3.2814
 2179TIP3    H228173   2.526   6.864   7.120  0.7803 -0.2678  0.7714
 2180TIP3   OH228174   2.328   4.452   0.092 -0.0184  0.0315  0.0976
 2180TIP3    H128175   2.423   4.441   0.094  0.0981  1.0365  0.5372
 2180TIP3    H228176   2.314   4.546   0.103 -1.0771 -0.1842  0.7782
 2181TIP3   OH228177   1.186   2.728   8.536  0.2445  0.6779  0.1776
 2181TIP3    H128178   1.097   2.746   8.506  0.1088 -1.7070 -1.1354
 2181TIP3    H228179   1.230   2.690   8.460  1.4699 -0.8928  1.5662
 2182TIP3   OH228180   6.430   5.171   0.643 -0.2728  0.5800 -0.3075
 2182TIP3    H128181   6.471   5.199   0.725 -1.2723 -2.4958  1.4187
 2182TIP3    H228182   6.502   5.165   0.581  0.3108  4.5209 -0.3199
 2183TIP3   OH228183   0.985   3.909   7.535 -0.2564  0.0280  0.1828
 2183TIP3    H128184   0.941   3.824   7.537 -0.0682 -0.0654  2.3163
 2183TIP3    H228185   0.917   3.972   7.561 -0.1353  0.4121 -0.4063
 2184TIP3   OH228186   2.515   0.382   7.447  0.2509  0.3111 -0.0382
 2184TIP3    H128187   2.605   0.413   7.436  0.5389 -0.7805 -0.8926
 2184TIP3    H228188   2.513   0.347   7.537  0.7995 -0.0364 -0.1559
 2185TIP3   OH228189   1.228   1.258   2.207  0.0028  0.3411 -0.3692
 2185TIP3    H128190   1.134   1.257   2.186 -0.4251  2.1820  1.1956
 2185TIP3    H228191   1.259   1.172   2.180 -2.2276 -0.4832 -0.5269
 2186TIP3   OH228192   4.005   2.103   7.162 -0.2391  0.4270  0.5042
 2186TIP3    H128193   4.066   2.056   7.104 -0.1220  0.3818  0.6621
 2186TIP3    H228194   3.927   2.116   7.109  0.6270  2.2721 -0.3972
 2187TIP3   OH228195   1.048   6.490   7.699  0.0614  0.5483  0.2661
 2187TIP3    H128196   1.100   6.466   7.622  1.0607 -1.0501  1.3514
 2187TIP3    H228197   0.972   6.432   7.696  0.2086  0.3325  0.5651
 2188TIP3   OH228198   4.171   4.447   1.879  0.5417  0.0130 -1.3323
 2188TIP3    H128199   4.154   4.383   1.811  0.8556 -0.4192 -1.0073
 2188TIP3    H228200   4.266   4.458   1.879  0.5645 -0.1653 -0.8064
 2189TIP3   OH228201   4.139   1.835   0.720  0.3149  0.6330  0.3577
 2189TIP3    H128202   4.232   1.835   0.742  0.5378  0.4675 -0.5749
 2189TIP3    H228203   4.100   1.899   0.780  0.7076 -0.6325  2.0358
 2190TIP3   OH228204   2.455   4.213   7.678  0.5955 -0.0734 -0.7197
 2190TIP3    H128205   2.382   4.221   7.739  1.7830 -3.2504  1.4200
 2190TIP3    H228206   2.427   4.145   7.616  0.9612  0.1689 -1.1593
 2191TIP3   OH228207   3.271   5.083   1.426 -0.4465  0.3406 -0.0776
 2191TIP3    H128208   3.288   5.177   1.426  0.9717  0.1107  0.7027
 2191TIP3    H228209   3.185   5.074   1.385 -0.8898  2.0271  0.4030
 2192TIP3   OH228210   2.881   3.267   1.249  0.4103  0.1502 -0.2082
 2192TIP3    H128211   2.963   3.268   1.298  0.7004 -0.7178 -0.6542
 2192TIP3    H228212   2.813   3.275   1.316  0.8520  0.6769  0.1808
 2193TIP3   OH228213   5.847   6.410   0.983  0.3336  0.1237  0.3169
 2193TIP3    H128214   5.850   6.505   0.996 -0.5541  0.0163  1.4798
 2193TIP3    H228215   5.922   6.377   1.032 -0.0394  0.1342  0.8982
 2194TIP3   OH228216   5.069   5.114   2.984  0.0550  0.4243  0.0300
 2194TIP3    H128217   5.153   5.096   2.942 -0.8091 -1.6737 -0.9052
 2194TIP3    H228218   5.083   5.090   3.076  0.3460 -0.2989 -0.2030
 2195TIP3   OH228219   3.507   1.227   1.412  0.3482 -0.1437 -0.1436
 2195TIP3    H128220   3.552   1.222   1.496  1.1265 -0.7965 -0.5849
 2195TIP3    H228221   3.544   1.304   1.369 -0.2928  0.3892  0.2325
 2196TIP3   OH228222   4.926   2.245   7.409 -0.3546 -0.5554  0.1123
 2196TIP3    H128223   4.964   2.234   7.496 -0.8304  0.5895  0.4771
 2196TIP3    H228224   4.847   2.190   7.411 -1.1231  0.5478  0.9002
 2197TIP3   OH228225   2.548   6.391   2.051  0.1627  0.1790 -0.1078
 2197TIP3    H128226   2.510   6.335   1.983  0.2439  0.6627 -0.5526
 2197TIP3    H228227   2.627   6.427   2.011  1.4033 -1.2009  0.9641
 2198TIP3   OH228228   6.388   1.256   6.903 -0.3247 -0.4766 -0.0347
 2198TIP3    H128229   6.345   1.227   6.984  0.2593  1.2911  0.9696
 2198TIP3    H228230   6.387   1.179   6.846 -1.5404 -1.5216  1.3185
 2199TIP3   OH228231   0.839   0.936   6.830 -0.0853 -0.3127 -0.0658
 2199TIP3    H128232   0.926   0.966   6.857 -0.8537  0.9159  1.2003
 2199TIP3    H228233   0.813   0.872   6.897 -0.3963 -0.2214 -0.0950
 2200TIP3   OH228234   6.939   3.210   6.855 -0.1135 -0.1021  0.2040
 2200TIP3    H128235   6.910   3.124   6.885 -0.2807 -0.2461 -0.3729
 2200TIP3    H228236   7.015   3.230   6.910 -0.7441 -0.1195  1.1075
 2201TIP3   OH228237   1.870   2.199   1.283 -0.1954 -0.2162  0.6352
 2201TIP3    H128238   1.865   2.149   1.202  2.4244 -0.9305  0.8420
 2201TIP3    H228239   1.795   2.168   1.335 -1.1762 -0.6462 -0.9784
 2202TIP3   OH228240   0.301   6.080   8.357 -0.5067 -0.0271  0.4096
 2202TIP3    H128241   0.374   6.094   8.418 -0.1132  4.1839 -0.6936
 2202TIP3    H228242   0.335   6.019   8.292  1.3721  0.3269  1.0008
 2203TIP3   OH228243   1.773   4.391   6.879 -0.3233 -0.1120 -0.4718
 2203TIP3    H128244   1.788   4.401   6.785  1.4598  1.4178 -0.0962
 2203TIP3    H228245   1.747   4.300   6.890 -1.8334 -0.0016 -2.5620
 2204TIP3   OH228246   3.393   0.108   0.391  0.3095 -0.4916 -0.0385
 2204TIP3    H128247   3.471   0.157   0.364 -1.0118  0.2479 -2.9089
 2204TIP3    H228248   3.319   0.164   0.365 -1.2051 -2.5969 -0.5338
 2205TIP3   OH228249   0.001   3.169   2.212 -0.0426  0.6193 -0.2122
 2205TIP3    H128250   0.069   3.191   2.148  0.3446  1.1545  0.3669
 2205TIP3    H228251  -0.071   3.229   2.192  0.2103  1.0211  0.0581
 2206TIP3   OH228252   5.281   3.388   8.022 -0.2811 -0.2274 -0.4148
 2206TIP3    H128253   5.373   3.361   8.019 -0.5675 -1.2722 -0.1843
 2206TIP3    H228254   5.269   3.442   7.943  0.2130 -1.1327 -1.1217
 2207TIP3   OH228255   1.517   4.207   7.080 -0.0392 -0.3235 -0.1681
 2207TIP3    H128256   1.562   4.239   7.158 -2.0055 -0.7334  1.2229
 2207TIP3    H228257   1.587   4.188   7.017  1.4848  2.0210  0.6910
 2208TIP3   OH228258   2.107   0.149   0.133 -0.1822  0.4380  0.2598
 2208TIP3    H128259   2.101   0.237   0.096 -2.8453  0.2151 -0.0063
 2208TIP3    H228260   2.143   0.096   0.061 -0.4381  0.9533 -0.2596
 2209TIP3   OH228261   0.151   3.180   1.529 -0.0810 -0.5365  0.6548
 2209TIP3    H128262   0.224   3.205   1.472 -0.7308 -0.5643 -0.2092
 2209TIP3    H228263   0.130   3.260   1.578  0.8062 -0.6472  1.2345
 2210TIP3   OH228264   3.702   4.468   0.465 -0.0603  0.1139  0.2810
 2210TIP3    H128265   3.792   4.493   0.445 -0.1413  0.3063  0.1631
 2210TIP3    H228266   3.675   4.415   0.389  0.1092 -0.3365  0.5269
 2211TIP3   OH228267   4.933   0.539   1.594 -0.1194  0.4486  0.0046
 2211TIP3    H128268   4.849   0.580   1.615  0.4182  1.6471 -0.1395
 2211TIP3    H228269   4.965   0.504   1.677 -0.3078  0.8300  0.2380
 2212TIP3   OH228270   2.479   1.024   1.091  0.1346  0.1270 -0.0466
 2212TIP3    H128271   2.411   1.050   1.029 -1.3275 -0.2691  1.3194
 2212TIP3    H228272   2.435   1.024   1.176  1.8109 -0.3222  0.8642
 2213TIP3   OH228273   2.682   6.293   2.378  0.3047 -0.4388 -0.3250
 2213TIP3    H128274   2.772   6.264   2.362  0.6624  0.3091  0.2696
 2213TIP3    H228275   2.680   6.382   2.344 -0.4452 -0.7351 -1.0673
 2214TIP3   OH228276   6.697   2.326   7.308  0.0270  0.5668 -0.2717
 2214TIP3    H128277   6.696   2.233   7.284 -1.9323  0.3659  0.4163
 2214TIP3    H228278   6.617   2.362   7.270  0.7749  2.0216 -0.5676
 2215TIP3   OH228279   2.003   4.282   7.441  0.3062 -0.2470  0.3368
 2215TIP3    H128280   1.918   4.238   7.433 -0.0150  0.5080 -0.4978
 2215TIP3    H228281   1.986   4.357   7.498  0.4705 -0.2486  0.3881
 2216TIP3   OH228282   3.755   5.127   0.461 -0.0999 -0.7099 -0.3880
 2216TIP3    H128283   3.761   5.159   0.551  0.6356  0.1451 -0.7197
 2216TIP3    H228284   3.847   5.118   0.433 -0.3158 -0.5081 -1.2006
 2217TIP3   OH228285   3.849   6.595   0.306  0.0114  0.0030  0.4263
 2217TIP3    H128286   3.837   6.509   0.266  0.0122 -0.1616  0.7694
 2217TIP3    H228287   3.798   6.654   0.252  0.7853 -0.0527 -0.3704
 2218TIP3   OH228288   6.593   5.697   0.042  0.2338  0.5001  0.1703
 2218TIP3    H128289   6.568   5.623  -0.014 -0.7534  1.7068 -1.0571
 2218TIP3    H228290   6.688   5.702   0.034  0.2297 -0.1398 -0.3962
 2219TIP3   OH228291   0.416   1.950   1.084 -0.5010  0.4900  0.2907
 2219TIP3    H128292   0.358   1.874   1.080 -0.4856  0.3232  2.0775
 2219TIP3    H228293   0.362   2.024   1.057 -1.0046  0.0826  0.1638
 2220TIP3   OH228294   3.856   2.775   7.283  0.0589 -0.3206 -0.0298
 2220TIP3    H128295   3.888   2.853   7.328  0.6222 -0.7875  0.4025
 2220TIP3    H228296   3.832   2.715   7.353 -0.0307 -0.6731 -0.3574
 2221TIP3   OH228297   3.859   3.277   6.759  0.1837  0.0954 -0.6417
 2221TIP3    H128298   3.881   3.216   6.689  0.1737 -0.7527  0.0927
 2221TIP3    H228299   3.787   3.235   6.806  1.4187 -0.2254  1.0273
 2222TIP3   OH228300   6.838   2.307   6.570 -0.0926  0.0135  0.0339
 2222TIP3    H128301   6.769   2.245   6.596 -0.1930  0.2744  0.4052
 2222TIP3    H228302   6.870   2.274   6.486 -0.0014 -0.6573  0.3294
 2223TIP3   OH228303   1.037   6.436   6.573 -0.1734 -0.0975 -0.3322
 2223TIP3    H128304   1.002   6.424   6.485  2.0075 -0.0456 -1.2602
 2223TIP3    H228305   1.049   6.530   6.582  1.4656 -0.2349 -0.7842
 2224TIP3   OH228306   3.833   6.067   5.946  0.4497 -0.1598 -0.1372
 2224TIP3    H128307   3.794   6.118   6.017 -0.0954 -0.3759 -0.2848
 2224TIP3    H228308   3.802   6.109   5.866  2.3718  1.1245 -0.2879
 2225TIP3   OH228309   1.490   5.865   8.114 -0.0178 -0.0467 -0.0809
 2225TIP3    H128310   1.544   5.835   8.040  1.5260  1.0076  0.5605
 2225TIP3    H228311   1.525   5.818   8.190 -0.5478  0.0489  0.2313
 2226TIP3   OH228312   4.000   0.868   1.145 -0.3513 -0.0329 -0.0322
 2226TIP3    H128313   3.966   0.830   1.226  1.8480 -0.9670  0.5361
 2226TIP3    H228314   3.976   0.805   1.076 -1.4966  0.3443  0.0144
 2227TIP3   OH228315   5.855   3.868   0.218  0.1985  0.0636 -0.3129
 2227TIP3    H128316   5.805   3.941   0.182  2.8420  0.9376 -2.6319
 2227TIP3    H228317   5.922   3.910   0.273  0.0414 -0.8442  0.5968
 2228TIP3   OH228318   2.432   3.155   1.581  0.0279  0.1706  0.9478
 2228TIP3    H128319   2.399   3.073   1.617 -2.4695  0.5706 -0.2145
 2228TIP3    H228320   2.393   3.223   1.637 -0.7001  0.6459 -0.0922
 2229TIP3   OH228321   5.904   2.572   7.629 -0.4782  0.0977 -0.1326
 2229TIP3    H128322   5.885   2.560   7.536 -0.6682  2.8163 -0.5245
 2229TIP3    H228323   5.821   2.552   7.673 -0.7801  0.0814 -0.6960
 2230TIP3   OH228324   2.152   6.477   1.017  0.6022 -0.5457  0.3969
 2230TIP3    H128325   2.138   6.382   1.013  1.2772 -0.6651  0.8128
 2230TIP3    H228326   2.247   6.488   1.013  0.4887  0.1839 -1.0035
 2231TIP3   OH228327   1.016   5.850   0.028 -0.4716  0.2798  0.7018
 2231TIP3    H128328   1.033   5.796  -0.049  0.2252 -0.8834  1.6281
 2231TIP3    H228329   0.945   5.909   0.002 -0.9812 -0.8230 -0.4782
 2232TIP3   OH228330   5.600   0.027   7.354  0.1683 -0.0315  0.0153
 2232TIP3    H128331   5.555  -0.024   7.287  0.4363 -0.0867 -0.1255
 2232TIP3    H228332   5.682   0.054   7.312  0.6750 -0.6775  0.5589
 2233TIP3   OH228333   3.453   0.475   8.287 -0.3032  0.7205 -0.4382
 2233TIP3    H128334   3.501   0.432   8.358  0.1042 -0.3086 -1.3093
 2233TIP3    H228335   3.467   0.418   8.211 -0.7414  1.7864 -1.3429
 2234TIP3   OH228336   1.255   0.411   0.400  0.1131 -1.1309  0.3863
 2234TIP3    H128337   1.265   0.333   0.347 -1.2882 -0.7802 -0.4413
 2234TIP3    H228338   1.246   0.482   0.337 -0.3941 -0.5435  1.0988
 2235TIP3   OH228339   1.842   0.512   1.060  0.1452 -0.3699 -0.0761
 2235TIP3    H128340   1.867   0.466   1.140 -1.1271  0.2073  0.6872
 2235TIP3    H228341   1.756   0.477   1.038  0.0526  0.1869 -0.6257
 2236TIP3   OH228342   6.189   6.812   7.559 -0.3852 -0.2016  0.6273
 2236TIP3    H128343   6.137   6.856   7.492  1.5770  1.2528 -0.0580
 2236TIP3    H228344   6.238   6.883   7.601  2.3781 -1.6007 -0.0306
 2237TIP3   OH228345   4.985   0.875   8.388 -0.5450 -0.3302 -0.2631
 2237TIP3    H128346   4.957   0.805   8.447 -0.5295 -2.1441 -2.2753
 2237TIP3    H228347   4.906   0.926   8.372 -1.3739 -1.8326 -1.2293
 2238TIP3   OH228348   3.093   0.276   7.812  0.3023 -0.3087  0.3161
 2238TIP3    H128349   3.154   0.350   7.811  0.4147 -0.3884 -1.0804
 2238TIP3    H228350   3.086   0.251   7.904  0.0452  1.6179  0.8582
 2239TIP3   OH228351   6.491   1.591   6.603 -0.2851 -0.1286  0.2479
 2239TIP3    H128352   6.453   1.552   6.681 -0.0715 -2.5926 -0.7693
 2239TIP3    H228353   6.422   1.646   6.566 -0.7578  0.1695  1.5332
 2240TIP3   OH228354   1.643   5.774   7.899 -0.2156 -0.1514  0.1143
 2240TIP3    H128355   1.733   5.761   7.927 -0.3131  0.4500  0.7221
 2240TIP3    H228356   1.649   5.821   7.816  0.0379 -0.8368 -0.2717
 2241TIP3   OH228357   0.008   1.753   6.803  0.0494 -0.7285  0.2169
 2241TIP3    H128358   0.101   1.755   6.824 -0.1618  0.7376  1.1736
 2241TIP3    H228359  -0.026   1.675   6.847  0.7504 -1.0307  0.2185
 2242TIP3   OH228360   1.082   3.175   7.863  0.1569 -0.1700  0.1422
 2242TIP3    H128361   1.029   3.236   7.914  0.7809 -0.5583  1.2765
 2242TIP3    H228362   1.021   3.105   7.839 -0.1143 -0.0281  0.4205
 2243TIP3   OH228363   3.278   3.050   0.625  0.4273  0.0860 -0.1291
 2243TIP3    H128364   3.287   3.145   0.629 -2.6566  0.5269 -0.9318
 2243TIP3    H228365   3.188   3.033   0.654  0.1678 -2.3859 -2.0208
 2244TIP3   OH228366   5.154   2.687   7.966  0.5624  0.0459 -0.0134
 2244TIP3    H128367   5.220   2.749   7.993 -0.4028  0.9947  0.2313
 2244TIP3    H228368   5.131   2.713   7.876  1.5813 -1.2133 -0.6746
 2245TIP3   OH228369   1.303   0.497   0.668  0.3972  0.1071  0.0368
 2245TIP3    H128370   1.282   0.483   0.575  1.0231  0.1808 -0.1255
 2245TIP3    H228371   1.299   0.411   0.708  2.5187 -0.3477 -0.5849
 2246TIP3   OH228372   0.421   2.731   8.347  0.5481  0.5505 -0.0217
 2246TIP3    H128373   0.371   2.734   8.266  1.6957  2.1976 -0.7276
 2246TIP3    H228374   0.360   2.761   8.414 -0.1927 -0.1116 -0.3819
 2247TIP3   OH228375   3.585   0.294   0.729  0.4172  0.1349  0.4959
 2247TIP3    H128376   3.596   0.204   0.700 -0.0184  0.3092 -0.2382
 2247TIP3    H228377   3.490   0.306   0.737  0.5053  0.2146  1.6390
 2248TIP3   OH228378   2.535   0.026   1.288 -0.2697  0.0170  0.6260
 2248TIP3    H128379   2.595   0.097   1.313 -0.8849  0.8397 -0.1918
 2248TIP3    H228380   2.593  -0.042   1.254  0.3887 -0.1756  2.0369
 2249TIP3   OH228381   0.529   5.981   7.970 -0.1160 -0.8047  0.1443
 2249TIP3    H128382   0.454   5.934   7.934  0.1177 -0.1660 -1.2600
 2249TIP3    H228383   0.604   5.949   7.919  0.0653  0.9621 -0.7915
 2250TIP3   OH228384   4.817   2.807   1.662  0.1628 -0.4089 -0.1767
 2250TIP3    H128385   4.784   2.897   1.655  0.2575 -0.1633  1.8723
 2250TIP3    H228386   4.857   2.803   1.749  0.3617 -2.3839 -0.3130
 2251TIP3   OH228387   4.616   0.925   1.228  0.0683 -0.0298  0.2375
 2251TIP3    H128388   4.650   1.007   1.262  0.3172  0.3288 -0.8380
 2251TIP3    H228389   4.521   0.933   1.236  0.1250 -0.0626  1.0509
 2252TIP3   OH228390   5.632   0.277   7.520  0.1170  0.0100  0.2869
 2252TIP3    H128391   5.646   0.191   7.481  1.4193 -0.1421  1.0317
 2252TIP3    H228392   5.663   0.338   7.453 -0.8595 -0.0897 -0.2640
 2253TIP3   OH228393   1.249   1.908   0.793 -0.9368  0.0542  0.3683
 2253TIP3    H128394   1.317   1.953   0.744 -1.0666 -1.3139 -1.1831
 2253TIP3    H228395   1.168   1.952   0.769 -0.9950 -0.5886 -0.6820
 2254TIP3   OH228396   5.583   6.651   0.392 -0.3018 -0.6080  0.1873
 2254TIP3    H128397   5.615   6.740   0.408 -0.6528 -0.3097 -0.6711
 2254TIP3    H228398   5.590   6.640   0.297 -1.5703 -0.9787  0.1167
 2255TIP3   OH228399   1.371   4.345   1.567 -0.4529  0.0696  0.4064
 2255TIP3    H128400   1.421   4.311   1.641 -0.1374 -0.5969 -0.1012
 2255TIP3    H228401   1.292   4.290   1.564 -0.4426  0.0625  0.2252
 2256TIP3   OH228402   6.535   0.838   1.536  0.4765 -0.2103  0.4663
 2256TIP3    H128403   6.469   0.906   1.546  0.6245 -0.2096  1.6064
 2256TIP3    H228404   6.554   0.836   1.443 -2.0156 -1.0323 -0.1098
 2257TIP3   OH228405   3.241   6.457   8.336  0.6147 -0.0519 -0.0547
 2257TIP3    H128406   3.157   6.411   8.335  0.7249 -0.2587  0.2168
 2257TIP3    H228407   3.294   6.412   8.270  0.8367 -0.5332  0.4431
 2258TIP3   OH228408   0.901   1.345   7.888  0.8456  0.0412 -0.1518
 2258TIP3    H128409   0.882   1.418   7.947 -1.8103  0.1427 -0.9772
 2258TIP3    H228410   0.838   1.355   7.816  1.9191 -1.7952 -1.4569
 2259TIP3   OH228411   1.958   5.916   7.779 -0.1550 -0.0926  0.4596
 2259TIP3    H128412   1.953   5.981   7.709  3.3706 -1.4731 -1.3405
 2259TIP3    H228413   1.920   5.837   7.741  1.4701 -0.7558  0.1184
 2260TIP3   OH228414   4.353   0.858   1.199 -0.4984  0.4757  0.0222
 2260TIP3    H128415   4.322   0.824   1.282 -1.3833  2.1398  0.4194
 2260TIP3    H228416   4.322   0.795   1.134 -3.5405  1.2846  0.5544
 2261TIP3   OH228417   1.531   1.572   1.453  0.2959  0.3686 -0.1220
 2261TIP3    H128418   1.454   1.576   1.511 -0.7562 -0.0528 -1.4425
 2261TIP3    H228419   1.544   1.479   1.438  2.4290  0.2754  1.7685
 2262TIP3   OH228420   6.133   5.929   2.140  0.0591 -0.2181  0.4749
 2262TIP3    H128421   6.189   5.981   2.198 -0.6149  1.6143 -0.4360
 2262TIP3    H228422   6.044   5.946   2.171 -0.1474 -1.7968  0.8739
 2263TIP3   OH228423   6.105   0.492   1.830 -0.3625 -0.2363  0.2941
 2263TIP3    H128424   6.035   0.552   1.856  0.7410  1.6539 -0.8168
 2263TIP3    H228425   6.100   0.420   1.892 -0.3668  2.0878  3.2053
 2264TIP3   OH228426   3.946   4.175   1.430 -0.5651 -0.5800 -0.0992
 2264TIP3    H128427   3.952   4.270   1.431 -2.3985 -0.4089  1.6391
 2264TIP3    H228428   3.884   4.154   1.499  0.4015 -3.1116  0.1152
 2265TIP3   OH228429   0.841   3.793   0.028  0.0910  0.3592  0.0396
 2265TIP3    H128430   0.812   3.740   0.103 -0.6124  0.3399 -0.2366
 2265TIP3    H228431   0.831   3.735  -0.048 -2.6946  1.4799 -0.5705
 2266TIP3   OH228432   1.303   0.343   6.343 -0.2080 -0.2643 -0.2527
 2266TIP3    H128433   1.291   0.261   6.390 -1.6602 -0.1523 -0.3565
 2266TIP3    H228434   1.314   0.409   6.411  2.2641 -0.6723 -0.1827
 2267TIP3   OH228435   1.900   5.226   8.109 -0.8297 -0.5305 -0.0641
 2267TIP3    H128436   1.981   5.266   8.075 -1.8999  0.8147 -1.1709
 2267TIP3    H228437   1.902   5.245   8.203  1.0865 -2.3076  0.3234
 2268TIP3   OH228438   4.368   6.119   0.764  0.2320  0.0560  0.3571
 2268TIP3    H128439   4.318   6.130   0.845  0.6285  1.8940  0.3914
 2268TIP3    H228440   4.448   6.073   0.791 -0.4615 -0.9874  0.6707
 2269TIP3   OH228441   5.369   0.034   2.303 -0.2262  0.4733 -1.0285
 2269TIP3    H128442   5.417   0.044   2.385 -1.5104  0.7358 -0.2918
 2269TIP3    H228443   5.407  -0.045   2.263  1.2774  1.0606 -0.8170
 2270TIP3   OH228444   4.795   1.279   6.788 -0.2552 -0.3556 -0.4811
 2270TIP3    H128445   4.857   1.258   6.858  0.3032  1.5007 -0.3521
 2270TIP3    H228446   4.841   1.259   6.707 -1.3458 -3.7110 -0.4215
 2271TIP3   OH228447   5.825   1.906   8.393 -0.0723 -0.0229 -0.2458
 2271TIP3    H128448   5.830   1.976   8.459 -0.2493  0.1784 -0.4415
 2271TIP3    H228449   5.774   1.837   8.435  1.3865 -0.6863  0.5144
 2272TIP3   OH228450   4.732   0.227   8.589 -0.5382 -0.7659 -0.7307
 2272TIP3    H128451   4.759   0.141   8.556 -1.2600 -1.5784  0.7186
 2272TIP3    H228452   4.644   0.214   8.624 -0.9905  0.7665 -1.2050
 2273TIP3   OH228453   0.482   0.173   1.080 -0.1764 -0.1126 -0.5536
 2273TIP3    H128454   0.484   0.079   1.062  0.3353 -0.4821  1.2283
 2273TIP3    H228455   0.426   0.181   1.158  0.0755  1.0163 -0.4696
 2274TIP3   OH228456   1.555   6.225   2.382  0.4786  0.6036  0.5825
 2274TIP3    H128457   1.537   6.225   2.288 -0.1802  1.1066  0.7046
 2274TIP3    H228458   1.601   6.142   2.397  0.7516  0.6009 -0.2094
 2275TIP3   OH228459   2.254   2.356   6.995  0.4259  0.1835 -0.2637
 2275TIP3    H128460   2.250   2.383   7.087 -0.2855  0.8686 -0.4827
 2275TIP3    H228461   2.326   2.293   6.991 -1.0150 -1.6545  1.2213
 2276TIP3   OH228462   6.121   2.052   1.203  0.0310  0.4389  0.0120
 2276TIP3    H128463   6.114   1.976   1.146  1.6376 -1.1606  1.7985
 2276TIP3    H228464   6.163   2.119   1.148  0.7244 -0.7278 -0.9286
 2277TIP3   OH228465   6.559   4.023   1.327  0.0129  0.1830 -0.4819
 2277TIP3    H128466   6.494   4.047   1.393  0.4756 -1.9156  0.8268
 2277TIP3    H228467   6.643   4.047   1.365  0.1249  1.6408 -1.5924
 2278TIP3   OH228468   5.682   4.675   0.175 -0.6307 -0.2590  0.0178
 2278TIP3    H128469   5.746   4.744   0.157 -2.0087  0.9511 -0.4648
 2278TIP3    H228470   5.597   4.716   0.156 -1.5269 -1.9274  0.2580
 2279TIP3   OH228471   0.016   3.774   1.474  0.1515 -0.5207  0.5086
 2279TIP3    H128472  -0.005   3.698   1.527 -0.7010 -1.3310 -0.9423
 2279TIP3    H228473   0.054   3.738   1.394 -1.5374  0.4633 -0.7916
 2280TIP3   OH228474   0.974   2.033   6.908  0.0468 -0.3881  0.1096
 2280TIP3    H128475   1.006   1.968   6.970  0.5471  0.1939  0.4725
 2280TIP3    H228476   1.013   2.007   6.824 -1.3653 -1.7079 -0.1707
 2281TIP3   OH228477   0.477   6.888   7.218 -0.3964 -0.8539  0.3661
 2281TIP3    H128478   0.486   6.843   7.302  0.4805 -0.6009  0.4243
 2281TIP3    H228479   0.400   6.848   7.177 -0.7001 -1.1256  1.1952
 2282TIP3   OH228480   0.548   4.531   1.840 -0.1329  0.2169  0.6353
 2282TIP3    H128481   0.560   4.467   1.911 -0.5685 -0.0752  0.4485
 2282TIP3    H228482   0.457   4.519   1.813 -0.4595  1.4664  1.1271
 2283TIP3   OH228483   6.455   2.482   6.580 -0.1326 -0.0866 -0.6023
 2283TIP3    H128484   6.377   2.535   6.567  0.3130  0.7126 -0.0620
 2283TIP3    H228485   6.522   2.544   6.608  0.1715 -1.0582  0.9186
 2284TIP3   OH228486   6.432   4.108   0.684  0.6553  0.1696 -0.1386
 2284TIP3    H128487   6.447   4.022   0.645  1.6256 -0.4525  1.4865
 2284TIP3    H228488   6.507   4.161   0.656  0.2334  0.3976 -0.8595
 2285TIP3   OH228489   1.914   0.628   7.896 -0.3424 -0.1967  0.0776
 2285TIP3    H128490   1.998   0.644   7.853 -0.9694 -0.7208 -1.4241
 2285TIP3    H228491   1.893   0.537   7.875 -1.0132 -0.2535  0.9245
 2286TIP3   OH228492   4.289   3.225   6.272  0.0009  0.2819 -0.0627
 2286TIP3    H128493   4.365   3.194   6.321  0.2415  0.1355 -0.5275
 2286TIP3    H228494   4.215   3.209   6.331  0.1285 -1.0732 -0.2416
 2287TIP3   OH228495   1.505   5.502   0.296  0.4810 -0.1029 -0.6178
 2287TIP3    H128496   1.486   5.461   0.212 -0.6932  1.1781 -1.0181
 2287TIP3    H228497   1.444   5.576   0.301  2.0491  1.1994  0.3574
 2288TIP3   OH228498   3.805   5.852   2.268  0.5934 -0.5392  0.6533
 2288TIP3    H128499   3.798   5.898   2.351 -0.2481 -1.1359  0.9284
 2288TIP3    H228500   3.720   5.810   2.256  0.4207  0.1836 -0.9047
 2289TIP3   OH228501   5.485   5.262   0.467  0.0531  0.9273  0.0044
 2289TIP3    H128502   5.480   5.242   0.374 -0.9302 -1.1933  0.4615
 2289TIP3    H228503   5.571   5.230   0.494 -0.5217 -0.5169  0.2218
 2290TIP3   OH228504   4.926   0.479   1.161 -0.8408 -0.6123  0.0820
 2290TIP3    H128505   4.983   0.424   1.215 -1.7351 -0.1634  1.5225
 2290TIP3    H228506   4.943   0.568   1.190  0.4014 -0.0898 -2.0657
 2291TIP3   OH228507   0.139   0.109   7.315 -0.2342  0.1739 -0.1524
 2291TIP3    H128508   0.070   0.167   7.347 -0.6719  0.3099 -1.3033
 2291TIP3    H228509   0.189   0.162   7.253 -0.1389 -0.4348 -0.6014
 2292TIP3   OH228510   6.687   6.789   7.807 -0.1265  0.0763  0.5688
 2292TIP3    H128511   6.632   6.724   7.763  0.0366  0.2274  0.1400
 2292TIP3    H228512   6.760   6.738   7.842  0.2502  0.0857 -0.1731
 2293TIP3   OH228513   5.183   1.749   8.565  0.0584  0.5420 -0.0746
 2293TIP3    H128514   5.172   1.802   8.487  0.9840  2.0629  0.7635
 2293TIP3    H228515   5.158   1.807   8.637  0.5245 -0.3533  0.8401
 2294TIP3   OH228516   5.859   0.252   0.815 -0.9441  0.1736  0.4292
 2294TIP3    H128517   5.834   0.160   0.801 -1.4897  0.4655 -0.6070
 2294TIP3    H228518   5.896   0.279   0.731 -1.4876  1.1229  0.4919
 2295TIP3   OH228519   1.241   2.776   7.878  0.4617  0.2393  0.7014
 2295TIP3    H128520   1.158   2.773   7.926  0.0920  1.2131  0.1520
 2295TIP3    H228521   1.224   2.726   7.798  0.1791  1.0208  0.2663
 2296TIP3   OH228522   5.876   5.510   0.972  0.2207 -0.0072 -0.0505
 2296TIP3    H128523   5.880   5.589   0.917  0.8420 -1.2341 -1.8443
 2296TIP3    H228524   5.967   5.491   0.992  0.0070  0.3016  1.2628
 2297TIP3   OH228525   2.395   0.712   1.203  0.3534 -0.5396 -0.0239
 2297TIP3    H128526   2.349   0.791   1.231 -0.2889 -1.1123  0.5527
 2297TIP3    H228527   2.372   0.646   1.268  1.6882 -0.9477  0.0676
 2298TIP3   OH228528   3.024   0.626   1.708 -0.4225  0.0193 -0.2285
 2298TIP3    H128529   3.023   0.564   1.781  0.9788  0.6063  0.3231
 2298TIP3    H228530   2.973   0.583   1.639 -0.7843 -1.0547  0.6841
 2299TIP3   OH228531   6.391   4.101   1.128  0.2402  0.7661 -0.3952
 2299TIP3    H128532   6.326   4.156   1.171  0.0020 -0.5198  0.9582
 2299TIP3    H228533   6.452   4.077   1.198 -0.7630 -2.2972 -0.4552
 2300TIP3   OH228534   1.081   2.230   8.220  0.6024 -0.0843  0.0661
 2300TIP3    H128535   1.075   2.326   8.222 -0.4022 -0.0954 -1.0295
 2300TIP3    H228536   1.015   2.200   8.283 -1.0319 -0.0441 -1.5306
 2301TIP3   OH228537   6.321   3.910   2.174 -0.1046  0.0872  0.4779
 2301TIP3    H128538   6.407   3.875   2.198  0.0584 -0.9333 -1.4197
 2301TIP3    H228539   6.277   3.925   2.257  0.7131 -2.4559  1.4509
 2302TIP3   OH228540   5.240   5.009   1.243  0.2348 -0.1070  0.4089
 2302TIP3    H128541   5.179   4.960   1.298  1.4194 -1.2477  0.7641
 2302TIP3    H228542   5.246   5.095   1.285 -0.0821 -0.4433  1.1607
 2303TIP3   OH228543   6.011   0.249   6.890  0.1780  0.0187  0.1069
 2303TIP3    H128544   6.019   0.317   6.823 -0.0233 -1.2485 -1.2326
 2303TIP3    H228545   6.045   0.170   6.849  0.2116 -0.7585  1.5682
 2304TIP3   OH228546   4.973   3.249   7.921 -0.4010 -0.2283 -0.2566
 2304TIP3    H128547   4.932   3.258   7.835 -0.4021 -1.4163 -0.3864
 2304TIP3    H228548   5.057   3.293   7.911 -0.1542 -0.8538 -1.0387
 2305TIP3   OH228549   3.317   3.377   6.836 -0.3427  0.1677 -0.5637
 2305TIP3    H128550   3.239   3.323   6.821 -1.4731  0.1573  3.8493
 2305TIP3    H228551   3.379   3.318   6.880 -0.3028  1.5312  1.3651
 2306TIP3   OH228552   2.406   5.909   0.867 -0.4076  0.1391  0.3103
 2306TIP3    H128553   2.435   5.844   0.803  2.4229 -0.8649  2.3935
 2306TIP3    H228554   2.463   5.985   0.851 -0.3817  0.2595  0.9426
 2307TIP3   OH228555   1.026   0.637   8.425  0.3546 -0.5898  0.6703
 2307TIP3    H128556   1.066   0.563   8.473  0.5798  0.2323  1.7907
 2307TIP3    H228557   1.039   0.712   8.482  0.1891  0.3477 -0.4921
 2308TIP3   OH228558   0.102   6.856   0.487 -0.1226 -0.0413  0.1297
 2308TIP3    H128559   0.075   6.781   0.539 -0.5882  0.3855  0.5237
 2308TIP3    H228560   0.045   6.927   0.517  1.8703  1.0692  1.4661
 2309TIP3   OH228561   0.533   0.400   7.419  0.4167 -0.2040 -0.1346
 2309TIP3    H128562   0.499   0.334   7.359 -1.2343  0.1888  0.3202
 2309TIP3    H228563   0.555   0.352   7.499 -0.9050 -0.2272  0.2447
 2310TIP3   OH228564   2.374   3.942   1.672 -0.6444 -0.4289 -0.1863
 2310TIP3    H128565   2.334   3.891   1.602  0.4579 -0.8835 -0.5080
 2310TIP3    H228566   2.428   3.879   1.720 -1.4394 -0.1405  1.1208
 2311TIP3   OH228567   1.839   1.645   1.674 -0.1394  0.9392 -0.5647
 2311TIP3    H128568   1.743   1.644   1.671 -0.1799 -0.9443 -0.2336
 2311TIP3    H228569   1.863   1.734   1.649 -1.9690  1.4405 -0.7118
 2312TIP3   OH228570   2.281   3.777   1.476 -0.5482  0.0784 -0.1023
 2312TIP3    H128571   2.249   3.784   1.386  3.3645 -1.3193 -1.8172
 2312TIP3    H228572   2.302   3.685   1.487  0.2184  0.4379  1.8059
 2313TIP3   OH228573   6.847   5.669   8.243 -0.1264  0.2023  0.8724
 2313TIP3    H128574   6.920   5.673   8.181  0.4879 -0.6216  1.5231
 2313TIP3    H228575   6.792   5.744   8.220  0.4735  0.3376 -0.1847
 2314TIP3   OH228576   3.263   2.592   0.926 -0.0449 -0.4513 -0.1762
 2314TIP3    H128577   3.200   2.616   0.858 -0.5354 -0.0686  0.4115
 2314TIP3    H228578   3.335   2.654   0.915  0.5980 -1.3382 -1.3180
 2315TIP3   OH228579   3.355   4.681   6.568 -0.4718 -0.5316  0.5835
 2315TIP3    H128580   3.383   4.596   6.534  0.0407  0.6277 -2.1421
 2315TIP3    H228581   3.298   4.717   6.501  0.9645  2.1469  0.6305
 2316TIP3   OH228582   1.615   0.451   1.354 -0.5737  0.4682 -0.8276
 2316TIP3    H128583   1.672   0.382   1.320  1.3863  1.0727  1.0310
 2316TIP3    H228584   1.594   0.424   1.443 -0.6763  1.7266 -0.4508
 2317TIP3   OH228585   5.529   1.794   0.589 -1.0588 -0.7473 -0.1098
 2317TIP3    H128586   5.534   1.797   0.684 -3.9019 -1.8395  0.1681
 2317TIP3    H228587   5.487   1.876   0.564  1.2558  0.3583 -0.6813
 2318TIP3   OH228588   4.890   3.571   0.819  0.0662 -0.1931  0.0407
 2318TIP3    H128589   4.828   3.552   0.749  1.2635 -0.2479 -1.0236
 2318TIP3    H228590   4.888   3.492   0.874 -0.4150 -0.4047 -0.2689
 2319TIP3   OH228591   3.736   3.414   0.207 -0.2682 -0.0262  0.0315
 2319TIP3    H128592   3.729   3.505   0.235 -0.4400 -0.0917  0.2081
 2319TIP3    H228593   3.827   3.403   0.179 -0.3973  0.3617 -0.5640
 2320TIP3   OH228594   2.950   1.872   1.535  0.3299 -0.2126  0.5336
 2320TIP3    H128595   2.948   1.962   1.504  2.1924  0.1177  1.1913
 2320TIP3    H228596   2.968   1.879   1.629  0.9193 -1.2536  0.5214
 2321TIP3   OH228597   0.642   2.998   6.884  0.6490  0.7417 -0.6996
 2321TIP3    H128598   0.600   3.051   6.815  2.2454  1.1232 -1.4253
 2321TIP3    H228599   0.637   2.908   6.852 -0.1139  0.7101 -0.5047
 2322TIP3   OH228600   1.687   2.050   1.855 -0.1004  0.3483  0.5025
 2322TIP3    H128601   1.663   1.961   1.829  3.0573 -0.5849  0.4346
 2322TIP3    H228602   1.705   2.095   1.773 -0.3025  0.6220  0.6074
 2323TIP3   OH228603   3.255   2.779   0.580 -0.7522 -0.3175 -0.3145
 2323TIP3    H128604   3.273   2.870   0.556  0.8126 -0.9883 -1.9487
 2323TIP3    H228605   3.219   2.784   0.668 -1.5036  1.9318 -0.6728
 2324TIP3   OH228606   0.118   6.898   1.159 -0.2435 -0.1641  0.3128
 2324TIP3    H128607   0.142   6.900   1.066 -1.2192 -0.1843  0.0491
 2324TIP3    H228608   0.201   6.898   1.205  0.2561 -0.1442 -0.5658
 2325TIP3   OH228609   0.063   3.373   0.706 -0.3208 -0.0539  0.3404
 2325TIP3    H128610   0.114   3.435   0.653 -2.4343  1.6273  0.1705
 2325TIP3    H228611   0.101   3.380   0.794  0.9790 -0.3323 -0.1603
 2326TIP3   OH228612   1.834   1.979   7.302 -0.1856  0.1767  0.2024
 2326TIP3    H128613   1.752   1.946   7.266  0.9041 -4.3970  1.3733
 2326TIP3    H228614   1.827   1.964   7.397  1.3049  1.4988  0.5756
 2327TIP3   OH228615   1.546   1.827   1.786  0.1026 -0.5333 -0.2089
 2327TIP3    H128616   1.587   1.803   1.703 -0.6436 -1.0226 -0.4508
 2327TIP3    H228617   1.565   1.753   1.844  2.1149  0.5629  0.6279
 2328TIP3   OH228618   5.768   1.212   6.778 -0.1612  0.1707  0.3866
 2328TIP3    H128619   5.706   1.261   6.723 -0.7589  0.6958  1.5046
 2328TIP3    H228620   5.716   1.142   6.817  0.1358  0.1154  0.6894
 2329TIP3   OH228621   3.406   4.675   0.492  0.4860  0.8713  0.0061
 2329TIP3    H128622   3.370   4.761   0.470  1.1147  0.7428 -1.6505
 2329TIP3    H228623   3.499   4.681   0.469  0.7219 -0.0008  0.6622
 2330TIP3   OH228624   1.887   3.770   7.604  0.1299 -0.0143 -0.1994
 2330TIP3    H128625   1.915   3.849   7.559  1.5400  0.0001  0.6452
 2330TIP3    H228626   1.924   3.778   7.692 -1.1173 -0.8384  0.4341
 2331TIP3   OH228627   1.965   1.443   7.738  0.3717  0.2086 -0.4365
 2331TIP3    H128628   1.899   1.469   7.673  1.4177 -0.9469 -2.0071
 2331TIP3    H228629   1.935   1.359   7.771 -0.6459  1.2084  1.3364
 2332TIP3   OH228630   6.115   1.996   8.467 -0.2097  0.7631 -0.4187
 2332TIP3    H128631   6.067   1.955   8.395 -0.9048  0.9923 -0.1029
 2332TIP3    H228632   6.131   1.925   8.530  0.9986  0.4185 -1.0891
 2333TIP3   OH228633   6.340   3.253   0.470  0.7885 -0.7257  0.3051
 2333TIP3    H128634   6.360   3.331   0.522 -0.8086  0.0504 -0.1759
 2333TIP3    H228635   6.420   3.201   0.472  1.6987  0.6590  1.1071
 2334TIP3   OH228636   6.398   6.845   6.887  0.3587  0.0026 -0.0549
 2334TIP3    H128637   6.390   6.933   6.924 -0.8278 -0.1857  0.1712
 2334TIP3    H228638   6.487   6.818   6.909 -0.1535  0.0512  2.3611
 2335TIP3   OH228639   5.532   6.362   7.491 -0.3366 -0.0592 -0.2349
 2335TIP3    H128640   5.627   6.373   7.501 -0.1166 -0.3612 -1.8142
 2335TIP3    H228641   5.512   6.405   7.408 -1.8434  1.2790  0.7568
 2336TIP3   OH228642   5.242   4.859   1.824  0.2597  0.1110  0.9935
 2336TIP3    H128643   5.287   4.793   1.877 -0.5503 -0.9596  0.3889
 2336TIP3    H228644   5.183   4.808   1.768  1.0007  1.1929 -0.8765
 2337TIP3   OH228645   6.723   2.133   7.540  0.5082  0.3695 -0.0421
 2337TIP3    H128646   6.718   2.126   7.445  1.4030 -1.0081 -0.0078
 2337TIP3    H228647   6.695   2.223   7.559  1.9049  1.2030 -1.7196
 2338TIP3   OH228648   3.309   6.524   0.533 -0.6352  0.5584  0.1338
 2338TIP3    H128649   3.288   6.546   0.442 -0.4053 -0.0845 -0.0811
 2338TIP3    H228650   3.228   6.542   0.581 -0.8650  0.5842 -0.2565
 2339TIP3   OH228651   1.146   4.583   8.147 -0.0832 -0.5316  0.6364
 2339TIP3    H128652   1.216   4.557   8.088  0.5876 -0.3625  1.3521
 2339TIP3    H228653   1.190   4.627   8.219 -1.0232  0.8380  0.4187
 2340TIP3   OH228654   2.136   5.301   0.985 -0.2483  0.1447 -0.0538
 2340TIP3    H128655   2.212   5.339   1.028  1.3151 -1.3406 -1.3975
 2340TIP3    H228656   2.116   5.361   0.914  1.0266 -0.5083 -0.9992
 2341TIP3   OH228657   4.245   5.363   0.728  0.0852 -0.3445  0.0010
 2341TIP3    H128658   4.207   5.279   0.700 -0.8546 -0.2023  0.7812
 2341TIP3    H228659   4.336   5.359   0.699 -0.2760 -1.1024 -1.1075
 2342TIP3   OH228660   4.306   2.223   7.249 -0.0567 -0.6590 -0.0001
 2342TIP3    H128661   4.230   2.267   7.211  0.8508  0.7360 -0.2706
 2342TIP3    H228662   4.311   2.257   7.339 -0.2443 -1.4040  0.2981
 2343TIP3   OH228663   5.154   0.241   7.878 -0.0097 -0.0201 -0.0641
 2343TIP3    H128664   5.233   0.225   7.929 -0.4047 -0.0188  0.5502
 2343TIP3    H228665   5.145   0.163   7.822  0.7096  0.2123 -0.5195
 2344TIP3   OH228666   5.489   2.370   6.661  0.0041 -0.1912 -0.0063
 2344TIP3    H128667   5.562   2.391   6.604 -0.2219 -1.8977 -0.9955
 2344TIP3    H228668   5.528   2.361   6.748  0.5194  1.4302 -0.0520
 2345TIP3   OH228669   6.251   2.967   0.603 -0.3858 -0.5762  0.1743
 2345TIP3    H128670   6.201   3.045   0.579  0.2277 -0.6664 -1.6077
 2345TIP3    H228671   6.185   2.900   0.619 -0.8843 -0.0960  0.1772
 2346TIP3   OH228672   6.921   4.870   2.152  0.3312 -0.0587  0.0107
 2346TIP3    H128673   6.874   4.911   2.079  1.4525 -1.8704 -1.8401
 2346TIP3    H228674   6.966   4.942   2.196  1.2610  0.8797 -2.3547
 2347TIP3   OH228675   3.942   6.013   1.080 -0.1066  0.6538  0.0312
 2347TIP3    H128676   3.931   6.093   1.131 -1.0287  0.2959  0.4110
 2347TIP3    H228677   4.031   6.018   1.045 -0.0135  1.6375  0.4021
 2348TIP3   OH228678   2.139   4.903   8.565  0.1274 -0.0800 -0.3511
 2348TIP3    H128679   2.141   4.916   8.660 -1.6027  0.2219 -0.3107
 2348TIP3    H228680   2.182   4.981   8.529 -0.6788  0.6266  0.1674
 2349TIP3   OH228681   5.634   5.862   1.610 -0.2088  0.1841  0.0108
 2349TIP3    H128682   5.707   5.800   1.615  1.5394  2.1484  0.1562
 2349TIP3    H228683   5.569   5.826   1.671  0.7225 -1.4829  0.0993
 2350TIP3   OH228684   2.980   2.695   7.661 -0.4057  0.0649 -0.0759
 2350TIP3    H128685   2.961   2.740   7.579 -1.5216  0.1686  0.2202
 2350TIP3    H228686   3.009   2.764   7.721  1.8054 -0.2013 -0.7565
 2351TIP3   OH228687   6.499   4.734   6.873 -0.0845 -0.3315  0.4031
 2351TIP3    H128688   6.446   4.738   6.794  0.8760 -1.2706 -0.3136
 2351TIP3    H228689   6.546   4.818   6.874 -0.6462 -0.0132  0.3788
 2352TIP3   OH228690   3.442   2.534   6.770  0.7028 -0.2854  0.1434
 2352TIP3    H128691   3.487   2.539   6.686 -0.0272 -0.1912 -0.2481
 2352TIP3    H228692   3.361   2.487   6.751  0.4974 -0.1943  0.7790
 2353TIP3   OH228693   2.152   0.374   1.079  0.0254  0.0165  0.3493
 2353TIP3    H128694   2.125   0.465   1.092  0.0124  0.4773 -2.4314
 2353TIP3    H228695   2.221   0.360   1.144 -0.3492  1.7945  1.1958
 2354TIP3   OH228696   1.059   3.124   0.818  0.2382 -0.2366 -0.7179
 2354TIP3    H128697   1.102   3.188   0.761  0.0214 -2.3696 -3.5387
 2354TIP3    H228698   1.027   3.057   0.758 -2.4325 -1.4003  1.7406
 2355TIP3   OH228699   4.079   6.350   2.478  0.0635  0.2849 -0.0350
 2355TIP3    H128700   4.065   6.428   2.425  0.6637  0.7186  0.4293
 2355TIP3    H228701   4.039   6.370   2.562 -0.2645 -0.1268 -0.0888
 2356TIP3   OH228702   4.468   0.612   0.508  0.0733 -0.2075 -0.4200
 2356TIP3    H128703   4.516   0.674   0.452  0.3720 -0.9372 -0.9856
 2356TIP3    H228704   4.534   0.580   0.570 -0.2523  0.5844  0.3522
 2357TIP3   OH228705   2.140   3.340   1.750 -0.0116  0.4281  0.4922
 2357TIP3    H128706   2.197   3.350   1.673  1.8215 -0.5578  1.6327
 2357TIP3    H228707   2.052   3.336   1.714  0.8764 -1.6976 -1.7665
 2358TIP3   OH228708   4.115   1.126   7.400  0.2758 -0.1530 -0.1523
 2358TIP3    H128709   4.207   1.140   7.421  0.2776  0.5661 -0.6076
 2358TIP3    H228710   4.081   1.213   7.378 -1.2934  0.1665  2.9020
 2359TIP3   OH228711   1.282   5.270   6.130 -0.2198 -0.3029 -1.2722
 2359TIP3    H128712   1.329   5.296   6.209 -0.0284  1.7305 -2.0022
 2359TIP3    H228713   1.291   5.174   6.127  0.9937 -0.2765  0.3758
 2360TIP3   OH228714   1.787   5.158   2.374 -0.4279 -0.1567  0.0883
 2360TIP3    H128715   1.694   5.173   2.363 -0.1346  1.9371  0.1838
 2360TIP3    H228716   1.808   5.195   2.460  0.4033 -1.1785  0.3574
 2361TIP3   OH228717   5.808   3.309   2.122  0.2196 -0.3154 -0.0551
 2361TIP3    H128718   5.752   3.254   2.067 -0.7871 -0.0046  0.6319
 2361TIP3    H228719   5.854   3.366   2.060 -2.5333  1.5697 -0.5517
 2362TIP3   OH228720   5.003   0.251   7.557  0.0169 -0.1036  0.0925
 2362TIP3    H128721   5.020   0.222   7.467  1.3999  2.5712 -0.6477
 2362TIP3    H228722   5.036   0.180   7.612  1.5674 -0.7223 -1.5348
 2363TIP3   OH228723   6.507   4.366   2.062  0.5347  0.0903  0.6664
 2363TIP3    H128724   6.529   4.409   2.144 -0.9026  1.3142  0.4467
 2363TIP3    H228725   6.443   4.424   2.020 -1.4250 -2.1706  0.2892
 2364TIP3   OH228726   2.806   4.017   7.474  0.4027  0.3038  0.7480
 2364TIP3    H128727   2.851   3.951   7.422  0.4704  0.5477  0.4988
 2364TIP3    H228728   2.781   3.971   7.554 -1.4084 -0.6299 -0.2878
 2365TIP3   OH228729   2.796   5.564   0.918 -0.2093  0.4431 -0.2704
 2365TIP3    H128730   2.822   5.656   0.929 -0.3805  0.3131  1.5525
 2365TIP3    H228731   2.844   5.517   0.987 -1.4898 -0.5463 -0.0089
 2366TIP3   OH228732   6.828   2.136   7.837 -0.3433  0.3619  0.5366
 2366TIP3    H128733   6.844   2.042   7.850  1.7995  0.7857  1.3128
 2366TIP3    H228734   6.793   2.142   7.748  0.0938 -1.1101  0.2335
 2367TIP3   OH228735   2.864   1.815   8.380  0.3250 -0.6642  0.5490
 2367TIP3    H128736   2.938   1.792   8.435  0.8237 -0.2653  0.0646
 2367TIP3    H228737   2.811   1.736   8.375  1.8192 -1.6248 -0.8180
 2368TIP3   OH228738   1.246   3.882   6.958 -0.3131 -0.4653 -0.5824
 2368TIP3    H128739   1.206   3.884   6.871 -1.7703 -5.4010 -0.3191
 2368TIP3    H228740   1.339   3.897   6.941 -0.7143 -0.0445 -2.8034
 2369TIP3   OH228741   0.607   4.647   7.560  0.2781  0.8450  0.1713
 2369TIP3    H128742   0.529   4.618   7.514 -0.3838  0.8450  1.2591
 2369TIP3    H228743   0.679   4.626   7.501 -0.2194 -2.2042  0.4931
 2370TIP3   OH228744   5.654   6.723   0.125 -0.5269  0.4198 -0.0725
 2370TIP3    H128745   5.693   6.785   0.187  1.1320  0.6556 -1.2845
 2370TIP3    H228746   5.586   6.774   0.081 -0.0238  0.9969 -0.1881
 2371TIP3   OH228747   0.018   0.196   1.425  0.5797 -0.4001 -0.1329
 2371TIP3    H128748  -0.024   0.270   1.468 -0.4162 -0.9306 -0.1805
 2371TIP3    H228749   0.045   0.230   1.339 -0.1322 -0.1688 -0.2696
 2372TIP3   OH228750   4.130   1.064   0.983 -0.2409 -0.2583  0.4662
 2372TIP3    H128751   4.088   0.988   1.023 -0.9284  0.3250  0.8567
 2372TIP3    H228752   4.181   1.027   0.911  0.1211 -1.1918  1.1758
 2373TIP3   OH228753   4.383   6.202   1.979 -0.3782  0.5371  0.2642
 2373TIP3    H128754   4.323   6.200   1.904 -0.2525  0.3997  0.1660
 2373TIP3    H228755   4.418   6.291   1.979 -0.6371  0.6408  0.3661
 2374TIP3   OH228756   6.930   2.394   0.666  0.9882 -0.4017  0.3437
 2374TIP3    H128757   7.006   2.336   0.666  1.0458 -0.3633 -1.1320
 2374TIP3    H228758   6.907   2.403   0.574  0.4728  1.2627  0.6051
 2375TIP3   OH228759   3.212   4.196   0.621 -0.4249 -0.1175  0.0134
 2375TIP3    H128760   3.216   4.183   0.716  1.5146  0.0056 -0.0013
 2375TIP3    H228761   3.265   4.275   0.605 -0.7185 -0.1356 -1.1628
 2376TIP3   OH228762   3.771   3.456   7.727  0.1933 -0.3726 -0.1791
 2376TIP3    H128763   3.676   3.465   7.720  0.1501 -0.9571 -0.4194
 2376TIP3    H228764   3.796   3.520   7.794 -0.3786 -0.2708 -0.0543
 2377TIP3   OH228765   3.129   4.094   7.027  0.3294  0.2778 -0.2135
 2377TIP3    H128766   3.069   4.045   6.971 -1.0176 -0.6591  1.9684
 2377TIP3    H228767   3.198   4.032   7.049  0.9764  0.7113 -0.9564
 2378TIP3   OH228768   5.173   4.371   2.135  0.0492 -0.5764 -0.3482
 2378TIP3    H128769   5.217   4.289   2.114  0.6774 -0.1857 -0.5883
 2378TIP3    H228770   5.160   4.369   2.229  3.4046  0.6363  0.2729
 2379TIP3   OH228771   1.345   0.815   8.050 -0.6130  0.1931  0.1438
 2379TIP3    H128772   1.433   0.851   8.038 -0.6647  0.1047 -0.5033
 2379TIP3    H228773   1.328   0.826   8.144  0.3175 -0.3196  0.3812
 2380TIP3   OH228774   5.370   5.717   1.070  0.1565  0.2696 -0.0362
 2380TIP3    H128775   5.345   5.767   0.992  0.8139  0.6733  0.0048
 2380TIP3    H228776   5.383   5.783   1.138  0.9664  0.0543  0.0380
 2381TIP3   OH228777   4.233   4.426   1.141 -0.4181 -0.1622  0.2517
 2381TIP3    H128778   4.207   4.518   1.132 -1.1107 -0.4518 -0.8718
 2381TIP3    H228779   4.170   4.378   1.088  1.3080 -1.0715 -1.1010
 2382TIP3   OH228780   4.716   0.048   7.821  0.3555  0.1383 -0.9498
 2382TIP3    H128781   4.747  -0.037   7.790  0.5345 -0.2852  0.3121
 2382TIP3    H228782   4.791   0.084   7.869 -0.8900 -0.8197  1.9818
 2383TIP3   OH228783   0.651   0.297   7.658 -0.2329 -0.1538 -0.5458
 2383TIP3    H128784   0.738   0.313   7.695 -0.8479  2.8301 -0.1234
 2383TIP3    H228785   0.591   0.311   7.732 -1.1881  0.3115 -1.3962
 2384TIP3   OH228786   3.837   1.538   6.722  0.1259  0.2368  0.3495
 2384TIP3    H128787   3.782   1.460   6.713  1.9910 -1.1941  0.7034
 2384TIP3    H228788   3.898   1.533   6.648  2.0677 -0.2246  1.9042
 2385TIP3   OH228789   4.786   1.067   1.443 -0.4819 -0.1096  0.1492
 2385TIP3    H128790   4.876   1.092   1.462 -1.1496  0.9787  2.1060
 2385TIP3    H228791   4.792   0.974   1.417  1.2438  0.1482 -0.5106
 2386TIP3   OH228792   6.835   4.845   1.878  0.0034 -0.7025  0.3697
 2386TIP3    H128793   6.767   4.795   1.924 -0.1398 -0.4566  0.4249
 2386TIP3    H228794   6.816   4.831   1.785 -0.2137 -0.5139  0.3839
 2387TIP3   OH228795   2.947   6.417   7.091  0.2658 -0.6066 -0.0588
 2387TIP3    H128796   2.855   6.415   7.066  0.2551  0.7548 -0.2093
 2387TIP3    H228797   2.946   6.413   7.187  0.0924 -1.2743 -0.0851
 2388TIP3   OH228798   4.532   0.585   1.774 -0.7820 -0.5084 -0.1912
 2388TIP3    H128799   4.542   0.548   1.862  0.5333  2.3187  0.9652
 2388TIP3    H228800   4.452   0.638   1.780  0.4449  1.4146  0.0484
 2389TIP3   OH228801   5.595   4.541   6.323  0.1343  0.0527 -0.1598
 2389TIP3    H128802   5.658   4.500   6.264  3.0897  0.1461  2.6377
 2389TIP3    H228803   5.544   4.468   6.358  2.3041 -0.8422  1.3780
 2390TIP3   OH228804   1.363   4.648   0.877  0.4373 -0.7478 -0.6896
 2390TIP3    H128805   1.410   4.575   0.836 -1.3559 -3.3741  1.5117
 2390TIP3    H228806   1.274   4.642   0.842  0.0709 -0.1371  0.1095
 2391TIP3   OH228807   2.065   4.226   8.250  0.9497  0.0654 -0.3648
 2391TIP3    H128808   2.107   4.312   8.254  1.7739 -0.3590  1.5168
 2391TIP3    H228809   2.101   4.185   8.172  2.3040  0.5966 -0.0432
 2392TIP3   OH228810   3.688   0.354   7.602  0.6520  0.6830 -0.0286
 2392TIP3    H128811   3.778   0.367   7.574  1.1067  0.0012  1.0663
 2392TIP3    H228812   3.667   0.264   7.579  0.2024  0.8720 -0.3834
 2393TIP3   OH228813   1.291   4.205   8.232  0.2648  0.2372 -0.5483
 2393TIP3    H128814   1.290   4.189   8.137 -1.5638  0.2394 -0.5685
 2393TIP3    H228815   1.211   4.255   8.248 -1.1098 -2.3642  1.4030
 2394TIP3   OH228816   3.839   0.779   7.173 -0.1965  0.2380  0.8077
 2394TIP3    H128817   3.924   0.822   7.177  0.6618 -1.1245 -1.1174
 2394TIP3    H228818   3.781   0.844   7.134  0.3456  0.6374  0.6549
 2395TIP3   OH228819   3.235   1.441   7.589 -0.0106 -0.1832  0.1322
 2395TIP3    H128820   3.139   1.444   7.591 -0.0097  1.2897 -0.7283
 2395TIP3    H228821   3.262   1.486   7.669 -0.0106 -0.8820  0.5407
 2396TIP3   OH228822   1.942   0.019   8.263  0.0173  0.0145  0.1095
 2396TIP3    H128823   1.951   0.035   8.357  0.4979  2.0747 -0.2325
 2396TIP3    H228824   2.028   0.041   8.227 -0.4243  0.1156 -0.9098
 2397TIP3   OH228825   5.168   4.004   7.354 -0.0722  0.1173  0.1588
 2397TIP3    H128826   5.203   3.988   7.266 -0.4605  0.5706 -0.0816
 2397TIP3    H228827   5.094   4.064   7.340  0.9358  1.5959  0.9708
 2398TIP3   OH228828   1.054   2.537   7.321 -0.0971 -0.3213  0.0289
 2398TIP3    H128829   1.130   2.512   7.270  0.1029 -1.1412  0.6930
 2398TIP3    H228830   1.030   2.624   7.289  1.5729  0.2888  0.3343
 2399TIP3   OH228831   5.577   4.087   0.420  0.0428  0.7176  0.3605
 2399TIP3    H128832   5.626   4.042   0.489  1.8382  2.7337  0.5127
 2399TIP3    H228833   5.641   4.102   0.351 -1.3362  0.1347 -1.1077
 2400TIP3   OH228834   1.113   6.565   1.446  0.3446 -0.6774 -0.2571
 2400TIP3    H128835   1.168   6.519   1.382 -1.5166 -1.4959 -1.3828
 2400TIP3    H228836   1.131   6.522   1.529  1.7629 -0.5680 -0.4942
 2401TIP3   OH228837   2.917   3.038   8.193 -0.2564  0.2532 -0.3931
 2401TIP3    H128838   2.997   3.076   8.158  0.0534 -1.6761 -1.9838
 2401TIP3    H228839   2.936   3.021   8.285  0.9380  0.4030 -0.5962
 2402TIP3   OH228840   2.405   1.046   2.385 -0.0315 -0.3461 -0.6441
 2402TIP3    H128841   2.496   1.070   2.367 -0.1438 -1.4259 -3.0861
 2402TIP3    H228842   2.370   1.120   2.434  2.5304 -0.5758  1.8213
 2403TIP3   OH228843   0.553   6.363   1.446  0.3380  0.0550 -0.3472
 2403TIP3    H128844   0.640   6.327   1.458  0.6830  0.8628 -0.3625
 2403TIP3    H228845   0.506   6.296   1.395  0.5245 -0.9616  0.7588
 2404TIP3   OH228846   4.478   3.680   0.563 -0.2764  0.2407 -0.4322
 2404TIP3    H128847   4.388   3.648   0.576  0.4706 -1.7817  0.1046
 2404TIP3    H228848   4.500   3.726   0.644 -0.6869  0.4257 -0.4213
 2405TIP3   OH228849   2.945   6.855   1.220 -0.7868 -0.5301 -0.2527
 2405TIP3    H128850   2.956   6.827   1.311 -1.7871 -2.1872 -0.6147
 2405TIP3    H228851   3.028   6.899   1.199 -1.0213  1.0694  1.8301
 2406TIP3   OH228852   4.086   5.300   2.393 -0.3021  0.2940 -0.3505
 2406TIP3    H128853   4.145   5.255   2.455 -0.7945 -1.2052 -0.9363
 2406TIP3    H228854   4.127   5.386   2.381  1.2201 -0.3222  0.0594
 2407TIP3   OH228855   5.834   0.993   6.324 -0.2453  0.0766 -0.1273
 2407TIP3    H128856   5.775   1.047   6.376 -0.4211 -1.5555  1.4575
 2407TIP3    H228857   5.835   0.908   6.368  1.2307 -0.7559 -1.6293
 2408TIP3   OH228858   2.033   4.945   7.613 -1.2296 -0.5435  0.6809
 2408TIP3    H128859   1.962   4.975   7.670 -1.6188 -1.1833  0.5456
 2408TIP3    H228860   1.992   4.935   7.527 -0.6554  0.3672  0.2862
 2409TIP3   OH228861   6.858   4.423   1.941 -0.3246  0.1616 -0.6622
 2409TIP3    H128862   6.834   4.412   1.849  1.1283 -0.3934 -1.0048
 2409TIP3    H228863   6.892   4.513   1.947  0.7269 -0.1937 -0.9725
 2410TIP3   OH228864   1.872   5.102   7.767 -0.5482 -0.0001  0.3096
 2410TIP3    H128865   1.908   5.061   7.846  0.5285  0.0393 -0.1330
 2410TIP3    H228866   1.792   5.144   7.796 -0.5611 -0.6166  1.2256
 2411TIP3   OH228867   3.283   5.800   2.265 -0.1148  0.0922  0.1950
 2411TIP3    H128868   3.193   5.824   2.243  0.3491  1.1188 -0.7024
 2411TIP3    H228869   3.305   5.856   2.339  0.7062  2.0553 -1.4107
 2412TIP3   OH228870   4.130   4.680   1.131  0.3324  0.0303 -0.3128
 2412TIP3    H128871   4.134   4.771   1.102 -0.4728  0.4232  0.7387
 2412TIP3    H228872   4.085   4.634   1.060 -0.1555  0.6528 -0.4137
 2413TIP3   OH228873   0.671   1.922   1.546  0.2807  0.4474  0.5398
 2413TIP3    H128874   0.601   1.986   1.540 -0.1131  0.0323  0.6579
 2413TIP3    H228875   0.667   1.890   1.636  2.3505  2.3500  1.4190
 2414TIP3   OH228876   0.267   2.547   1.143  0.2477 -0.7781 -0.1154
 2414TIP3    H128877   0.339   2.609   1.147  0.3502 -0.7556 -1.7771
 2414TIP3    H228878   0.305   2.464   1.174  0.2906 -0.2159  1.4320
 2415TIP3   OH228879   2.146   0.740   7.699 -0.1852 -0.1311 -0.1932
 2415TIP3    H128880   2.235   0.766   7.722 -0.9446  0.6030  2.1559
 2415TIP3    H228881   2.105   0.819   7.665 -0.0761 -0.3637 -0.8771
 2416TIP3   OH228882   4.343   6.261   2.425 -0.5189 -0.2923  0.2850
 2416TIP3    H128883   4.251   6.281   2.442  0.0984  2.1712  1.1397
 2416TIP3    H228884   4.371   6.329   2.364  0.8597 -0.7495  0.3694
 2417TIP3   OH228885   0.246   2.644   7.823 -0.2605  0.0062 -1.0323
 2417TIP3    H128886   0.162   2.690   7.823  0.5729  1.7057  1.0078
 2417TIP3    H228887   0.311   2.713   7.811  0.9378 -0.9071 -0.0319
 2418TIP3   OH228888   4.939   0.426   0.059  0.1171  1.0696  0.2608
 2418TIP3    H128889   4.846   0.409   0.075  0.4466 -3.0940 -0.9624
 2418TIP3    H228890   4.940   0.473  -0.025 -0.8958  0.5056 -0.0919
 2419TIP3   OH228891   2.588   2.033   7.232 -0.0183  0.0026  0.1840
 2419TIP3    H128892   2.581   1.945   7.194  0.3635  0.0693 -0.0519
 2419TIP3    H228893   2.669   2.032   7.282 -1.4328 -0.6754  2.6350
 2420TIP3   OH228894   5.098   4.585   8.268 -1.2461  0.4301  0.0428
 2420TIP3    H128895   5.165   4.585   8.200 -1.5847 -0.3750 -0.2958
 2420TIP3    H228896   5.034   4.649   8.239 -0.3031  1.7404  0.7134
 2421TIP3   OH228897   4.163   6.735   2.159 -0.5653 -0.0345 -0.4043
 2421TIP3    H128898   4.104   6.719   2.232  0.4838  0.7495  0.6513
 2421TIP3    H228899   4.154   6.658   2.103 -0.8412 -0.9943  0.9211
 2422TIP3   OH228900   4.236   4.483   7.269 -0.3614  0.0288 -0.0365
 2422TIP3    H128901   4.317   4.451   7.230  0.2374  0.3193  0.9347
 2422TIP3    H228902   4.257   4.497   7.361 -1.4044  0.4925  0.1521
 2423TIP3   OH228903   3.942   5.651   0.872 -0.9230  0.2236  0.0551
 2423TIP3    H128904   3.959   5.594   0.947 -3.5998 -0.1552  0.4804
 2423TIP3    H228905   3.856   5.689   0.890 -0.2013  2.6938 -1.2999
 2424TIP3   OH228906   4.184   3.873   0.186  0.4689 -0.0259 -0.5850
 2424TIP3    H128907   4.137   3.891   0.267  1.6774 -0.7614  0.3178
 2424TIP3    H228908   4.270   3.841   0.214  0.5030 -1.4568 -2.1398
 2425TIP3   OH228909   4.211   5.237   7.250  0.5196 -0.2535 -0.1111
 2425TIP3    H128910   4.204   5.232   7.155 -0.4948  1.1204 -0.1239
 2425TIP3    H228911   4.129   5.201   7.283  0.1756  0.7919  0.1945
 2426TIP3   OH228912   2.390   4.046   2.198  0.0413  0.1937 -1.0655
 2426TIP3    H128913   2.349   4.031   2.113 -0.2209  0.7923 -1.0473
 2426TIP3    H228914   2.454   3.976   2.206 -0.6259 -0.4496 -1.3133
 2427TIP3   OH228915   3.577   3.179   6.788 -0.0324 -0.1299 -0.2791
 2427TIP3    H128916   3.640   3.107   6.781  0.3542  0.1952 -0.1303
 2427TIP3    H228917   3.522   3.169   6.710  0.8264  0.1800 -0.9354
 2428TIP3   OH228918   2.790   3.887   7.149 -0.2559 -0.1825  0.2402
 2428TIP3    H128919   2.809   3.854   7.237 -1.8082  1.4586  1.2710
 2428TIP3    H228920   2.779   3.981   7.160 -0.6585  0.0509 -1.6954
 2429TIP3   OH228921   3.195   4.354   7.048  0.8427 -0.7918 -0.1594
 2429TIP3    H128922   3.176   4.260   7.043  1.4418 -1.1138  2.3359
 2429TIP3    H228923   3.186   4.376   7.140 -0.2383  1.8605 -0.7863
 2430TIP3   OH228924   2.728   1.000   0.882 -0.4464  0.2918  0.3544
 2430TIP3    H128925   2.657   0.991   0.946 -0.9607  3.4292  0.3985
 2430TIP3    H228926   2.807   1.006   0.935 -0.2734 -1.7300  0.3839
 2431TIP3   OH228927   4.201   5.164   8.098  0.4531  0.2497  0.6915
 2431TIP3    H128928   4.178   5.154   8.006 -1.0258 -0.1244  1.0876
 2431TIP3    H228929   4.223   5.076   8.127  5.8326  0.8304 -0.4256
 2432TIP3   OH228930   2.410   0.139   6.443 -0.1958  0.2242 -0.8022
 2432TIP3    H128931   2.381   0.227   6.420 -0.2106  0.5503  0.4267
 2432TIP3    H228932   2.333   0.096   6.479 -0.3344 -0.5009 -1.8834
 2433TIP3   OH228933   1.544   0.737   8.361  0.3309 -0.1734 -0.1487
 2433TIP3    H128934   1.456   0.774   8.355  0.6793  0.6485 -0.3048
 2433TIP3    H228935   1.544   0.664   8.299 -1.4810 -2.8300  2.6568
 2434TIP3   OH228936   1.890   2.750   0.496  0.3883 -0.1120 -0.0879
 2434TIP3    H128937   1.941   2.707   0.565 -0.6064  0.5782  1.1267
 2434TIP3    H228938   1.849   2.677   0.448 -0.8859 -0.6018  1.6388
 2435TIP3   OH228939   2.950   0.530   0.160 -0.5084  0.1879  0.6567
 2435TIP3    H128940   2.994   0.593   0.103  1.9103 -0.9512  1.1389
 2435TIP3    H228941   2.948   0.449   0.110 -1.0098 -0.0880  1.1047
 2436TIP3   OH228942   3.201   0.342   8.090  0.6901 -0.5012  0.4528
 2436TIP3    H128943   3.291   0.328   8.059  0.7812  0.1446  0.4053
 2436TIP3    H228944   3.195   0.291   8.171  1.7396  0.9907  1.5248
 2437TIP3   OH228945   2.137   6.758   8.026  0.5839 -0.4785  0.3971
 2437TIP3    H128946   2.186   6.786   8.103  1.0650 -2.0383  0.6996
 2437TIP3    H228947   2.136   6.662   8.032 -1.3013 -0.5496 -0.3598
 2438TIP3   OH228948   6.449   1.159   0.524  0.5520 -0.2654 -0.6624
 2438TIP3    H128949   6.534   1.154   0.568 -0.3512  0.3805  1.2683
 2438TIP3    H228950   6.470   1.181   0.433  2.4586 -0.6238 -0.3513
 2439TIP3   OH228951   2.531   5.405   2.304 -0.4024 -0.8316 -0.4414
 2439TIP3    H128952   2.522   5.470   2.373 -0.9842 -1.5191  0.1453
 2439TIP3    H228953   2.454   5.418   2.248  1.2263  1.3178 -2.4005
 2440TIP3   OH228954   3.511   5.235   7.431  0.3693 -0.2960 -0.2245
 2440TIP3    H128955   3.574   5.170   7.402  1.3538  1.3570 -2.0547
 2440TIP3    H228956   3.564   5.310   7.458 -0.7550  0.1861  0.7409
 2441TIP3   OH228957   6.737   2.948   6.721  0.2949 -0.6725 -0.0336
 2441TIP3    H128958   6.681   2.944   6.798  0.5597  1.0940  0.2728
 2441TIP3    H228959   6.820   2.983   6.752 -0.0814  1.5714 -1.3299
 2442TIP3   OH228960   0.905   1.824   0.309 -0.3333  0.3756  0.4528
 2442TIP3    H128961   0.925   1.879   0.233 -1.0944  0.5257  0.3553
 2442TIP3    H228962   0.811   1.807   0.302 -0.5717  1.0106  1.7554
 2443TIP3   OH228963   6.815   0.721   1.430  0.1739  0.0983  0.2121
 2443TIP3    H128964   6.776   0.790   1.484  0.4638 -0.0495  0.6098
 2443TIP3    H228965   6.833   0.765   1.347  0.0766  0.4241  0.3586
 2444TIP3   OH228966   0.187   1.140   0.454 -0.0314 -0.2044  0.3659
 2444TIP3    H128967   0.239   1.059   0.454  0.7736  0.3020 -0.3524
 2444TIP3    H228968   0.215   1.186   0.533 -0.9725 -0.9089  1.1390
 2445TIP3   OH228969   4.100   2.015   6.561 -0.2439  0.3370 -0.4807
 2445TIP3    H128970   4.180   1.971   6.533  0.9243  0.8046  1.8175
 2445TIP3    H228971   4.029   1.956   6.535  1.0077 -1.0572 -0.8386
 2446TIP3   OH228972   2.004   3.491   8.103  0.4208 -0.2531  0.1954
 2446TIP3    H128973   1.939   3.432   8.142  1.6349  0.2459  3.2515
 2446TIP3    H228974   2.084   3.439   8.099  0.3943 -0.2216 -1.6214
 2447TIP3   OH228975   4.635   6.125   8.383  0.3321 -0.5346  0.3679
 2447TIP3    H128976   4.630   6.209   8.337 -0.3176 -0.5228  0.4410
 2447TIP3    H228977   4.605   6.061   8.319 -0.7217 -0.4990  0.8072
 2448TIP3   OH228978   2.417   3.269   8.574  0.2565  0.4337 -0.4674
 2448TIP3    H128979   2.433   3.332   8.504 -0.4395  1.7881  0.5510
 2448TIP3    H228980   2.420   3.321   8.655  1.1664 -1.1041  0.5321
 2449TIP3   OH228981   2.347   0.774   8.160  0.3260 -0.1298 -0.0158
 2449TIP3    H128982   2.325   0.803   8.071  0.9047 -0.9616 -0.4414
 2449TIP3    H228983   2.279   0.813   8.215 -0.3923 -0.0800 -0.9038
 2450TIP3   OH228984   5.862   0.243   0.256 -0.3081  0.8379  0.3535
 2450TIP3    H128985   5.931   0.189   0.217 -1.3437  1.2370 -2.1619
 2450TIP3    H228986   5.890   0.333   0.241 -0.3270  1.0317  1.3612
 2451TIP3   OH228987   0.632   3.163   0.402 -0.3332 -0.5475  0.4214
 2451TIP3    H128988   0.696   3.098   0.372 -0.6349 -0.4616 -0.4505
 2451TIP3    H228989   0.603   3.206   0.322 -0.3404  0.4870  0.9603
 2452TIP3   OH228990   3.741   3.928   7.382  0.2817 -0.3346  0.0521
 2452TIP3    H128991   3.666   3.982   7.407 -1.0155 -1.4398 -1.3249
 2452TIP3    H228992   3.764   3.959   7.295 -1.0814 -2.5415 -1.1686
 2453TIP3   OH228993   5.620   5.642   2.662 -0.3857  0.6062  0.0800
 2453TIP3    H128994   5.569   5.716   2.630 -0.8254  0.7022  0.9750
 2453TIP3    H228995   5.686   5.628   2.595 -0.1387  1.9685  0.0093
 2454TIP3   OH228996   6.238   5.262   1.360  0.3213 -0.2058 -0.2404
 2454TIP3    H128997   6.158   5.261   1.413  0.6092  0.2886  0.2088
 2454TIP3    H228998   6.298   5.204   1.406  0.7780  0.6946  0.3020
 2455TIP3   OH228999   1.888   4.373   0.937 -0.0601  0.3021  0.5212
 2455TIP3    H129000   1.813   4.349   0.883  1.0497  0.7509 -1.3001
 2455TIP3    H229001   1.943   4.425   0.879  0.3591  2.3688  2.6235
 2456TIP3   OH229002   2.400   4.431   7.517 -0.1795 -0.7300  0.1755
 2456TIP3    H129003   2.354   4.399   7.439  0.7692 -2.2843  0.2269
 2456TIP3    H229004   2.441   4.353   7.555  0.6449  0.2558  1.3831
 2457TIP3   OH229005   4.859   5.866   8.032  0.0671 -0.2556  0.7019
 2457TIP3    H129006   4.792   5.798   8.023  0.0375 -0.1542  0.0784
 2457TIP3    H229007   4.915   5.836   8.103 -0.6445 -0.3424  1.2375
 2458TIP3   OH229008   1.804   1.520   0.692  0.6526  0.4577 -1.5073
 2458TIP3    H129009   1.710   1.511   0.679  0.6306  1.3510 -1.9889
 2458TIP3    H229010   1.822   1.612   0.678  1.5280  0.3932 -0.9003
 2459TIP3   OH229011   6.818   0.360   1.567  0.2632  0.1787  0.5150
 2459TIP3    H129012   6.805   0.335   1.658 -1.8872  0.3075  0.2814
 2459TIP3    H229013   6.755   0.431   1.552  0.5184  0.0977 -1.0961
 2460TIP3   OH229014   5.973   2.629   0.410 -0.2371 -0.0982 -0.2622
 2460TIP3    H129015   5.906   2.649   0.344 -1.9768 -4.1172 -0.0360
 2460TIP3    H229016   5.942   2.671   0.490 -0.8869  0.5709 -0.8552
 2461TIP3   OH229017   5.048   5.798   1.454 -1.0022 -0.1297  0.1664
 2461TIP3    H129018   5.012   5.811   1.367  0.4523 -0.2809 -0.4817
 2461TIP3    H229019   5.121   5.737   1.442 -0.7953 -0.1859  1.4860
 2462TIP3   OH229020   6.573   1.164   6.465 -0.3187 -0.4139  0.2914
 2462TIP3    H129021   6.512   1.178   6.393  0.8982 -0.9305 -0.8844
 2462TIP3    H229022   6.566   1.071   6.486 -0.2306 -0.3893  0.4363
 2463TIP3   OH229023   0.933   1.324   1.292 -0.0819  0.3722 -0.3090
 2463TIP3    H129024   0.855   1.378   1.281  0.0067  0.7356  0.7038
 2463TIP3    H229025   0.899   1.236   1.308 -0.3334  0.6352  0.7389
 2464TIP3   OH229026   2.308   0.154   7.582  0.1382 -0.1771  0.4596
 2464TIP3    H129027   2.277   0.097   7.652 -0.9335  0.2768  0.3837
 2464TIP3    H229028   2.232   0.210   7.561  0.6016  0.0668 -0.6761
 2465TIP3   OH229029   4.333   5.869   7.897 -0.0669  0.0952 -0.5974
 2465TIP3    H129030   4.377   5.839   7.977  0.3057  0.4176 -0.6796
 2465TIP3    H229031   4.284   5.792   7.866 -1.4983  0.3823  0.7975
 2466TIP3   OH229032   6.608   6.916   0.828 -0.3982  0.1276 -0.4001
 2466TIP3    H129033   6.570   6.999   0.798  0.3280  0.2693 -0.9382
 2466TIP3    H229034   6.686   6.941   0.876 -0.9085 -0.1731  0.6107
 2467TIP3   OH229035   2.000   1.868   2.249 -0.3682  0.7109  0.1846
 2467TIP3    H129036   2.082   1.874   2.199 -0.6416 -1.1542 -0.5631
 2467TIP3    H229037   2.018   1.919   2.329  1.4349  0.5588 -0.0667
 2468TIP3   OH229038   4.718   3.738   1.152 -0.0924  0.2799 -0.2767
 2468TIP3    H129039   4.656   3.675   1.116  0.7891 -0.6939 -0.1303
 2468TIP3    H229040   4.768   3.688   1.217 -0.6784  1.6191  1.2950
 2469TIP3   OH229041   5.457   0.491   7.208 -0.0731  0.2436 -0.2125
 2469TIP3    H129042   5.376   0.540   7.221  0.6194  1.3885 -0.1044
 2469TIP3    H229043   5.448   0.415   7.267 -0.3924  1.1993  1.0252
 2470TIP3   OH229044   0.237   2.840   8.508 -0.5351  0.4412 -0.0632
 2470TIP3    H129045   0.149   2.825   8.541 -0.0082 -0.3349  1.0340
 2470TIP3    H229046   0.284   2.879   8.581  0.0673  0.7819 -0.6163
 2471TIP3   OH229047   2.461   1.764   1.666  0.3565  0.1187  0.4562
 2471TIP3    H129048   2.395   1.821   1.626 -0.6113 -0.8172  0.6696
 2471TIP3    H229049   2.410   1.696   1.711  1.4117  0.5608  2.4429
 2472TIP3   OH229050   6.569   5.597   7.564  0.2958 -0.3566 -0.5988
 2472TIP3    H129051   6.589   5.646   7.645  2.5138 -0.3129 -1.1078
 2472TIP3    H229052   6.634   5.628   7.501 -1.0296 -0.8169 -2.2664
 2473TIP3   OH229053   6.134   0.973   0.781  0.1681  0.0000 -0.7658
 2473TIP3    H129054   6.216   0.963   0.733  0.2788  0.7928 -0.7494
 2473TIP3    H229055   6.157   0.958   0.873 -0.1449 -2.0702 -0.9822
 2474TIP3   OH229056   0.684   6.835   6.542 -0.0570 -0.2539 -0.4037
 2474TIP3    H129057   0.622   6.778   6.589 -0.5731  0.8587  0.3095
 2474TIP3    H229058   0.631   6.880   6.477 -0.1229  1.0441  0.5088
 2475TIP3   OH229059   0.609   6.856   1.984 -0.4549 -0.0328  0.3501
 2475TIP3    H129060   0.591   6.950   1.977 -1.6170 -0.2699 -0.0978
 2475TIP3    H229061   0.593   6.835   2.076 -2.1879 -0.1441  0.0655
 2476TIP3   OH229062   5.350   2.771   1.895 -0.4215  0.0647 -0.2281
 2476TIP3    H129063   5.257   2.749   1.905  0.0952 -1.1190  3.3676
 2476TIP3    H229064   5.357   2.860   1.930 -0.3204  0.6019 -1.5581
 2477TIP3   OH229065   1.468   3.455   6.942 -0.4222  0.4862  0.8813
 2477TIP3    H129066   1.502   3.414   6.863  0.2138  0.0151  1.3869
 2477TIP3    H229067   1.496   3.397   7.013  3.1516  3.2161  1.9980
 2478TIP3   OH229068   6.097   0.106   8.007 -0.7039  0.3876  0.1864
 2478TIP3    H129069   6.031   0.084   7.942 -0.0303 -0.1890 -0.3214
 2478TIP3    H229070   6.078   0.196   8.032 -0.7262  0.7643 -1.1111
 2479TIP3   OH229071   6.027   2.178   0.600  0.3498 -0.0048 -0.7281
 2479TIP3    H129072   6.093   2.139   0.543  0.6548 -0.0844 -0.3237
 2479TIP3    H229073   6.040   2.272   0.589  1.8630  0.0236  0.8270
 2480TIP3   OH229074   4.094   1.840   7.260  0.1154  0.2946 -0.2972
 2480TIP3    H129075   4.039   1.904   7.214  0.1740  0.4755 -0.1190
 2480TIP3    H229076   4.172   1.831   7.206  1.3089  2.3333  0.9224
 2481TIP3   OH229077   6.197   3.752   7.894 -0.8007 -0.1583  0.0965
 2481TIP3    H129078   6.205   3.786   7.805 -0.6905 -1.1373 -0.2817
 2481TIP3    H229079   6.112   3.782   7.924  0.0411  2.0301  0.4923
 2482TIP3   OH229080   4.254   0.086   1.885  0.0440 -0.0073 -0.1653
 2482TIP3    H129081   4.185   0.135   1.930 -0.2507  0.1167 -0.7429
 2482TIP3    H229082   4.308   0.051   1.955 -0.2992  0.3447  0.2797
 2483TIP3   OH229083   0.714   5.701   8.622 -0.2309  0.1430 -0.3556
 2483TIP3    H129084   0.716   5.794   8.641 -2.4711  0.1060  0.3606
 2483TIP3    H229085   0.698   5.659   8.707 -1.4154 -0.6955 -0.9478
 2484TIP3   OH229086   5.334   2.044   0.159  0.8545  0.2171  0.2610
 2484TIP3    H129087   5.347   2.028   0.252  0.3724  2.0222  0.6729
 2484TIP3    H229088   5.246   2.012   0.140  0.4050  1.1277  0.7642
 2485TIP3   OH229089   0.575   0.087   1.735 -0.3659  0.0789 -0.3279
 2485TIP3    H129090   0.517   0.144   1.786 -1.7090  1.5240 -3.2185
 2485TIP3    H229091   0.532   0.002   1.736  0.3525 -0.3191  1.9656
 2486TIP3   OH229092   3.860   1.987   1.551 -0.1897  0.2612 -0.6453
 2486TIP3    H129093   3.798   1.955   1.485 -0.0622 -1.6567  0.0996
 2486TIP3    H229094   3.935   1.929   1.544  1.0575  1.8296 -0.7209
 2487TIP3   OH229095   4.867   4.279   6.497  0.3888  0.3587 -0.2041
 2487TIP3    H129096   4.850   4.313   6.409  0.4000  0.0626 -0.3228
 2487TIP3    H229097   4.943   4.222   6.487 -0.6239 -1.0310 -0.3534
 2488TIP3   OH229098   6.495   0.593   0.898 -0.3078 -0.0231 -0.0386
 2488TIP3    H129099   6.521   0.643   0.820 -2.6529 -0.2715 -1.0798
 2488TIP3    H229100   6.461   0.660   0.958  0.8900  0.0975  0.5204
 2489TIP3   OH229101   4.679   0.016   2.196  0.0505 -0.0871 -0.7996
 2489TIP3    H129102   4.628  -0.048   2.148 -1.8610  0.4262  0.4191
 2489TIP3    H229103   4.672  -0.012   2.288  1.5275  0.3130 -0.5407
 2490TIP3   OH229104   4.935   2.724   0.542 -1.0277  0.1407 -0.2881
 2490TIP3    H129105   4.992   2.775   0.600 -1.1528  1.6102 -1.3773
 2490TIP3    H229106   4.847   2.739   0.576 -1.0155  0.2508 -0.3025
 2491TIP3   OH229107   3.279   1.048   8.318  0.6298  0.4354 -0.0458
 2491TIP3    H129108   3.366   1.072   8.351  1.6590  0.1571 -2.4037
 2491TIP3    H229109   3.226   1.040   8.397  2.6942  0.7294  1.4700
 2492TIP3   OH229110   6.252   6.713   1.323 -0.0324  0.1478  0.2901
 2492TIP3    H129111   6.320   6.654   1.292 -0.0347 -0.1217  0.7996
 2492TIP3    H229112   6.251   6.702   1.418 -1.7417 -0.8976  0.1980
 2493TIP3   OH229113   1.046   6.833   1.507  0.1729 -0.3168  0.7868
 2493TIP3    H129114   0.953   6.830   1.526  0.2243 -0.0851  1.0740
 2493TIP3    H229115   1.069   6.741   1.490 -0.3016 -0.2473 -0.2622
 2494TIP3   OH229116   4.719   1.748   7.054 -0.1358  0.3339  0.0967
 2494TIP3    H129117   4.716   1.671   6.997  2.4734 -0.6488  1.1204
 2494TIP3    H229118   4.723   1.823   6.995 -0.9969 -0.4092 -0.9353
 2495TIP3   OH229119   0.503   5.088   6.706  0.4678 -0.0282  0.0153
 2495TIP3    H129120   0.491   5.030   6.781  0.8039  0.9194  0.8254
 2495TIP3    H229121   0.419   5.083   6.659 -0.3267  0.5093  1.3000
 2496TIP3   OH229122   1.139   3.948   7.787  0.0853 -0.3936  0.3089
 2496TIP3    H129123   1.210   4.008   7.768  0.1102  0.0046  1.5366
 2496TIP3    H229124   1.090   3.941   7.706  2.1038 -1.5230 -0.8950
 2497TIP3   OH229125   1.385   5.876   5.922 -0.9528 -0.1212 -0.8797
 2497TIP3    H129126   1.299   5.849   5.955 -0.9599  0.6273 -0.2737
 2497TIP3    H229127   1.439   5.797   5.928 -0.6806  0.1870  1.8383
 2498TIP3   OH229128   5.585   6.870   8.227  0.0610  0.5257 -0.0862
 2498TIP3    H129129   5.669   6.842   8.190  0.3817  0.6049  0.5714
 2498TIP3    H229130   5.609   6.922   8.304 -0.5634  1.3203 -0.4138
 2499TIP3   OH229131   4.028   2.533   7.792  0.0579  0.2315  0.7362
 2499TIP3    H129132   3.983   2.531   7.708  1.0872  1.5216  0.1304
 2499TIP3    H229133   4.049   2.441   7.810  0.8462  0.0364 -0.9787
 2500TIP3   OH229134   6.248   5.793   0.864 -0.0341 -0.1385  0.0204
 2500TIP3    H129135   6.177   5.786   0.928 -0.4829  0.1342 -0.4414
 2500TIP3    H229136   6.307   5.858   0.900 -0.8928  0.9123 -0.3928
 2501TIP3   OH229137   2.251   0.780   7.145  0.1325  0.0377  0.3567
 2501TIP3    H129138   2.185   0.786   7.076 -0.9045 -1.3888  1.1677
 2501TIP3    H229139   2.329   0.822   7.108 -0.3440 -0.7899 -1.7386
 2502TIP3   OH229140   6.122   6.259   6.920 -0.3528 -0.0402 -0.2629
 2502TIP3    H129141   6.079   6.177   6.895  0.7466 -1.0891  1.1025
 2502TIP3    H229142   6.184   6.276   6.849 -0.5781 -0.4041 -0.5502
 2503TIP3   OH229143   5.000   3.898   8.607  0.4083 -0.0754  0.4391
 2503TIP3    H129144   4.999   3.893   8.511  0.5730 -1.5446  0.4978
 2503TIP3    H229145   5.026   3.989   8.625  0.5170  0.1871 -0.9025
 2504TIP3   OH229146   3.376   1.965   0.600  0.4643 -0.1120  0.1385
 2504TIP3    H129147   3.382   1.963   0.696  1.1763 -0.6404  0.0914
 2504TIP3    H229148   3.440   1.900   0.571 -0.6665 -0.9008 -0.6616
 2505TIP3   OH229149   4.932   6.309   6.894  1.1334  0.6737  0.1168
 2505TIP3    H129150   5.014   6.334   6.851  0.1254  2.7642 -0.7648
 2505TIP3    H229151   4.864   6.328   6.829 -0.0882 -0.6912  0.9373
 2506TIP3   OH229152   5.651   0.765   0.431  0.0613  0.7596 -1.0639
 2506TIP3    H129153   5.559   0.782   0.410  0.0797 -0.0108 -1.8597
 2506TIP3    H229154   5.692   0.851   0.429 -0.4453  1.0014 -1.8046
 2507TIP3   OH229155   1.786   0.730   7.028 -0.6774 -0.0941  0.0143
 2507TIP3    H129156   1.861   0.732   7.087  1.1737  0.2528 -2.1961
 2507TIP3    H229157   1.785   0.818   6.989 -1.1371 -0.6369 -1.2471
 2508TIP3   OH229158   5.455   5.700   6.370 -0.4003  0.2288 -0.0523
 2508TIP3    H129159   5.404   5.687   6.450  0.0913 -0.7861  0.1128
 2508TIP3    H229160   5.389   5.713   6.301 -1.0859 -3.5252 -0.3122
 2509TIP3   OH229161   2.403   6.809   6.496 -0.4443 -0.1191 -0.1744
 2509TIP3    H129162   2.453   6.769   6.566 -1.9631  0.5070  1.3466
 2509TIP3    H229163   2.445   6.893   6.481 -0.6947  0.1764  0.7190
 2510TIP3   OH229164   0.790   3.214   5.916  0.3736  0.6773  0.4869
 2510TIP3    H129165   0.756   3.141   5.968 -0.7780  0.9633  0.1645
 2510TIP3    H229166   0.802   3.284   5.980  1.5682  0.2025  0.8133
 2511TIP3   OH229167   6.019   0.851   7.170  0.2889 -0.3097  0.0112
 2511TIP3    H129168   5.952   0.881   7.109  1.1048  1.1126 -0.2272
 2511TIP3    H229169   6.102   0.868   7.125  0.8467 -1.4249  0.5704
 2512TIP3   OH229170   4.909   5.500   7.862  0.3718  0.2939  0.1522
 2512TIP3    H129171   4.888   5.588   7.832 -0.9819  0.1176  0.4989
 2512TIP3    H229172   4.835   5.476   7.918  0.5761 -1.1636 -0.1663
 2513TIP3   OH229173   4.648   2.307   8.186 -0.1050 -0.4353  0.5492
 2513TIP3    H129174   4.611   2.267   8.108 -0.2457 -1.3873  1.0882
 2513TIP3    H229175   4.720   2.362   8.154  1.0976 -2.3060 -0.0984
 2514TIP3   OH229176   0.582   3.913   0.716  0.1103 -0.2213 -0.1617
 2514TIP3    H129177   0.536   3.907   0.800  0.4838  0.2633  0.0816
 2514TIP3    H229178   0.516   3.948   0.656  0.9301  3.5861  0.8794
 2515TIP3   OH229179   1.930   0.942   7.637 -0.0143  0.1952 -0.0177
 2515TIP3    H129180   1.959   0.912   7.551  0.9517  0.0744  0.3349
 2515TIP3    H229181   1.853   0.889   7.657 -1.6511  1.7496 -1.7630
 2516TIP3   OH229182   6.682   6.008   0.688  0.0742  0.2855  0.2716
 2516TIP3    H129183   6.638   6.079   0.735  0.3261  0.3045  0.4797
 2516TIP3    H229184   6.698   6.044   0.600 -2.4400 -0.5163 -0.6154
 2517TIP3   OH229185   3.554   1.966   7.813  0.7569  0.4352 -0.5371
 2517TIP3    H129186   3.631   1.979   7.869  1.0740  0.8110 -1.0531
 2517TIP3    H229187   3.490   2.029   7.846  1.2877  1.3497 -1.2091
 2518TIP3   OH229188   1.371   4.055   7.689  0.2206  0.5708 -0.0046
 2518TIP3    H129189   1.439   4.007   7.644 -0.1751 -0.3480  0.3407
 2518TIP3    H229190   1.417   4.125   7.736  0.6925  1.1444 -1.3018
 2519TIP3   OH229191   2.874   5.370   6.331 -0.0909  0.1142 -0.6258
 2519TIP3    H129192   2.817   5.307   6.285  0.0643  0.2537 -1.0120
 2519TIP3    H229193   2.962   5.333   6.322 -0.1903 -0.4314  0.5206
 2520TIP3   OH229194   1.195   3.013   1.768 -0.2744  0.0095 -0.5646
 2520TIP3    H129195   1.187   2.927   1.809  0.7479  0.2716  0.2014
 2520TIP3    H229196   1.140   3.071   1.821  1.2949  0.4151  0.6740
 2521TIP3   OH229197   5.136   4.787   8.597  0.1390 -0.1221  0.0705
 2521TIP3    H129198   5.138   4.759   8.688 -1.6747  0.1959  0.2525
 2521TIP3    H229199   5.184   4.719   8.549  2.3736  0.4314  1.3871
 2522TIP3   OH229200   1.824   5.234   1.534 -0.5391 -0.1499 -0.2105
 2522TIP3    H129201   1.751   5.184   1.570  0.3431 -0.1932  1.6290
 2522TIP3    H229202   1.811   5.323   1.566  0.4404 -0.2608  0.5404
 2523TIP3   OH229203   0.825   1.298   1.640 -0.2236 -0.3189 -0.2915
 2523TIP3    H129204   0.824   1.393   1.626  1.1014 -0.4471 -1.6376
 2523TIP3    H229205   0.818   1.287   1.735 -2.5317  1.0080 -0.2388
 2524TIP3   OH229206   4.974   1.226   6.977 -0.6226 -0.4672  0.1078
 2524TIP3    H129207   5.046   1.284   7.000 -0.5620 -0.0546 -1.0325
 2524TIP3    H229208   5.017   1.145   6.949 -0.5039  0.0756 -1.4272
 2525TIP3   OH229209   2.838   3.504   1.758  0.1353 -0.5229  0.6007
 2525TIP3    H129210   2.899   3.508   1.832  0.7844  0.9226  0.0204
 2525TIP3    H229211   2.847   3.414   1.725  1.8668 -0.3911  0.6166
 2526TIP3   OH229212   5.493   6.398   8.598  0.2832 -0.4971  0.4619
 2526TIP3    H129213   5.412   6.437   8.632  1.6547  1.4042  1.7389
 2526TIP3    H229214   5.486   6.305   8.619 -1.3336 -0.2973  0.9683
 2527TIP3   OH229215   5.478   0.182   1.576  0.0663  0.5565  0.2536
 2527TIP3    H129216   5.422   0.144   1.645  1.1952 -0.1048  0.8409
 2527TIP3    H229217   5.495   0.271   1.605 -2.1733  1.4263 -0.8680
 2528TIP3   OH229218   2.789   2.466   8.397  0.3902  0.4103 -0.3283
 2528TIP3    H129219   2.772   2.421   8.479  0.7858  0.7792 -0.0370
 2528TIP3    H229220   2.743   2.549   8.405  0.4189  0.4416 -0.4827
 2529TIP3   OH229221   6.114   3.177   1.322  0.0058 -0.0597  0.0196
 2529TIP3    H129222   6.154   3.140   1.401  1.1471 -0.9888 -0.9436
 2529TIP3    H229223   6.164   3.258   1.306  1.0005 -0.7852 -0.7080
 2530TIP3   OH229224   1.068   2.338   1.018 -0.6625 -0.6158 -0.2138
 2530TIP3    H129225   1.132   2.350   0.948 -0.7596  0.2905 -0.1507
 2530TIP3    H229226   1.121   2.319   1.096 -0.3870  1.0465  0.0451
 2531TIP3   OH229227   1.058   1.505   6.674  0.3793  0.6298  0.5340
 2531TIP3    H129228   1.011   1.585   6.651 -0.1053  0.3205  0.4327
 2531TIP3    H229229   1.008   1.435   6.633  1.0020  0.3015  0.3148
 2532TIP3   OH229230   4.252   3.434   0.499 -0.2377 -0.1870  0.2227
 2532TIP3    H129231   4.191   3.376   0.454  1.1252  0.1930 -2.2800
 2532TIP3    H229232   4.208   3.520   0.498 -0.4454 -0.2933  0.0748
 2533TIP3   OH229233   1.313   2.044   6.756  0.2142 -0.4674 -0.5216
 2533TIP3    H129234   1.327   2.100   6.680 -0.5049  0.7328  0.2103
 2533TIP3    H229235   1.218   2.033   6.761  0.3489 -2.0115 -0.8128
 2534TIP3   OH229236   4.578   6.030   1.940  0.1213 -0.0153 -0.3579
 2534TIP3    H129237   4.659   6.062   1.903 -0.7073 -1.7112 -4.0688
 2534TIP3    H229238   4.524   6.108   1.952  0.6932  0.7064 -2.2416
 2535TIP3   OH229239   1.027   0.064   0.339  0.0375  0.4318 -0.0237
 2535TIP3    H129240   0.982   0.001   0.283  1.0750 -0.6649  0.3254
 2535TIP3    H229241   0.989   0.050   0.426  1.2011 -0.6888  0.3269
 2536TIP3   OH229242   6.262   6.560   0.618 -1.0221  0.2393 -0.1812
 2536TIP3    H129243   6.198   6.498   0.653 -0.4301 -0.6293 -0.5740
 2536TIP3    H229244   6.344   6.534   0.659 -0.7028  0.5250 -0.6339
 2537TIP3   OH229245   4.490   5.768   8.181  0.0792  0.1075 -0.3004
 2537TIP3    H129246   4.409   5.730   8.214  0.3332 -0.3006 -0.1516
 2537TIP3    H229247   4.476   5.863   8.188  0.5432  0.0529  2.0198
 2538TIP3   OH229248   4.431   4.763   6.457  0.7393  0.5120 -0.0392
 2538TIP3    H129249   4.477   4.735   6.378  2.6285 -1.2467  1.5923
 2538TIP3    H229250   4.491   4.825   6.499 -0.1028  1.1745  0.2132
 2539TIP3   OH229251   3.830   0.602   0.107 -0.2590 -0.4131  0.0549
 2539TIP3    H129252   3.918   0.599   0.146 -0.8259 -0.6031  1.3850
 2539TIP3    H229253   3.822   0.690   0.072 -0.0411  0.0845  1.2052
 2540TIP3   OH229254   6.886   2.087   1.515 -0.3307  0.2498 -0.0559
 2540TIP3    H129255   6.864   2.090   1.608  0.4641  0.7700  0.1215
 2540TIP3    H229256   6.879   1.994   1.492  0.9407 -0.1092  0.8988
 2541TIP3   OH229257   1.688   4.778   0.995 -0.6568  0.4606  0.3592
 2541TIP3    H129258   1.680   4.801   0.902  0.2642  1.0157  0.4004
 2541TIP3    H229259   1.615   4.823   1.037 -0.6572  0.8041 -0.0001
 2542TIP3   OH229260   0.121   1.847   1.281 -0.7637 -0.2187  0.0509
 2542TIP3    H129261   0.027   1.856   1.268 -0.6001  1.9393  0.0217
 2542TIP3    H229262   0.150   1.794   1.207 -1.8472 -0.2085 -0.4104
 2543TIP3   OH229263   6.045   1.269   7.187 -0.2949  0.3899  0.1791
 2543TIP3    H129264   6.127   1.221   7.175 -0.1938  1.0532 -2.1956
 2543TIP3    H229265   6.018   1.247   7.276  2.4950  0.2360  1.0764
 2544TIP3   OH229266   4.759   2.945   8.126 -0.3354 -0.0586  0.3204
 2544TIP3    H129267   4.671   2.982   8.117 -0.1300  0.6424  1.0800
 2544TIP3    H229268   4.792   2.940   8.036 -0.8241  0.5067  0.1035
 2545TIP3   OH229269   3.238   5.461   2.057 -0.4604  0.0642  0.4227
 2545TIP3    H129270   3.155   5.480   2.013  0.7357 -1.6683 -2.9769
 2545TIP3    H229271   3.249   5.366   2.047  2.1800  0.3228  0.2477
 2546TIP3   OH229272   2.898   6.355   8.097 -0.2855  0.9135  0.0261
 2546TIP3    H129273   2.849   6.320   8.171  0.2666 -1.3953 -0.6171
 2546TIP3    H229274   2.832   6.373   8.031 -0.4110 -3.2064 -1.2495
 2547TIP3   OH229275   6.860   2.606   2.424 -0.1358 -0.2619  0.8996
 2547TIP3    H129276   6.895   2.691   2.451  1.0921 -1.3970  3.1548
 2547TIP3    H229277   6.919   2.542   2.463 -1.1034 -2.1863 -0.6259
 2548TIP3   OH229278   3.301   3.893   7.115  0.0634  0.1024  0.1408
 2548TIP3    H129279   3.239   3.821   7.106 -0.7037  0.5941  1.3407
 2548TIP3    H229280   3.386   3.853   7.096 -0.4933 -0.8066 -0.5127
 2549TIP3   OH229281   5.533   2.930   2.533 -0.6197 -0.0591 -0.6246
 2549TIP3    H129282   5.586   2.940   2.454 -2.4865  2.3333 -1.7108
 2549TIP3    H229283   5.556   3.006   2.587 -3.2670  1.4507 -1.4374
 2550TIP3   OH229284   0.130   0.531   0.588  0.2245  0.2948  0.3208
 2550TIP3    H129285   0.178   0.488   0.518  0.9274  1.1169  0.2748
 2550TIP3    H229286   0.066   0.466   0.618  3.3353 -2.0748  2.4939
 2551TIP3   OH229287   0.548   2.575   1.832  0.5159 -0.7486 -0.5546
 2551TIP3    H129288   0.512   2.505   1.887 -1.2793 -1.3159 -2.3530
 2551TIP3    H229289   0.554   2.651   1.891 -0.2219 -1.6459  0.7219
 2552TIP3   OH229290   2.778   0.986   1.551  0.4061 -0.1054  0.0253
 2552TIP3    H129291   2.773   0.973   1.457  2.9082 -0.3887 -0.1394
 2552TIP3    H229292   2.843   1.056   1.562  2.3570 -2.0448  1.5780
 2553TIP3   OH229293   1.866   3.138   1.071  0.1141 -0.1191  0.4682
 2553TIP3    H129294   1.938   3.189   1.035 -0.6672  0.8141  0.1642
 2553TIP3    H229295   1.838   3.187   1.149 -0.3596 -0.3244  0.4335
 2554TIP3   OH229296   5.190   2.355   7.304  0.0185  0.2765 -0.3056
 2554TIP3    H129297   5.118   2.312   7.349 -0.3169  1.0828 -0.0512
 2554TIP3    H229298   5.269   2.313   7.339 -0.3186 -0.6602 -0.6427
 2555TIP3   OH229299   1.310   6.719   8.208 -0.4211 -0.1051 -0.0600
 2555TIP3    H129300   1.286   6.744   8.119 -1.3073 -1.6255 -0.2887
 2555TIP3    H229301   1.228   6.719   8.257 -0.4370 -2.0844  0.0081
 2556TIP3   OH229302   5.972   5.017   0.888  0.1275 -0.3153 -0.1238
 2556TIP3    H129303   6.049   4.981   0.845  0.3088 -0.2775  0.1685
 2556TIP3    H229304   5.966   5.107   0.855  0.2973 -0.2697 -0.0324
 2557TIP3   OH229305   0.067   5.989   1.252 -0.3128  0.3133 -0.1940
 2557TIP3    H129306   0.074   5.922   1.321 -0.8644  1.1414  0.7062
 2557TIP3    H229307  -0.013   5.966   1.205 -0.6499  0.4729  0.2866
 2558TIP3   OH229308   4.990   0.608   6.802 -0.5062  0.4491  0.2438
 2558TIP3    H129309   5.047   0.651   6.738 -1.5656  1.7851  0.1492
 2558TIP3    H229310   4.905   0.605   6.758 -0.4247 -2.0644  0.1308
 2559TIP3   OH229311   3.656   0.434   1.700 -0.1493 -0.2292 -0.4885
 2559TIP3    H129312   3.626   0.461   1.613 -1.9511 -0.2060  0.0930
 2559TIP3    H229313   3.613   0.495   1.760 -0.0326 -1.0964  0.5030
 2560TIP3   OH229314   2.568   3.004   6.863  0.1397 -0.6991 -0.0809
 2560TIP3    H129315   2.525   2.947   6.799  0.5967  0.1980 -1.2341
 2560TIP3    H229316   2.623   3.062   6.810 -1.9318  2.2845  0.7451
 2561TIP3   OH229317   2.342   0.241   8.092 -0.3490  0.9629 -0.2770
 2561TIP3    H129318   2.303   0.231   8.005  0.1809  0.7634 -0.4957
 2561TIP3    H229319   2.360   0.335   8.100 -1.5568  1.1766  0.1313
 2562TIP3   OH229320   2.959   6.809   2.106 -0.4463 -0.0053 -0.2993
 2562TIP3    H129321   2.983   6.899   2.086  1.4014  0.5462  3.5234
 2562TIP3    H229322   3.008   6.757   2.043 -1.1799  1.5508 -2.2750
 2563TIP3   OH229323   4.943   3.326   0.500  0.6571  0.2979 -0.5469
 2563TIP3    H129324   4.869   3.324   0.439  0.2448  0.5420 -0.0677
 2563TIP3    H229325   5.000   3.255   0.471 -0.0771 -0.3087 -0.5442
 2564TIP3   OH229326   5.958   5.235   1.686 -0.9824 -0.6105  0.0472
 2564TIP3    H129327   5.984   5.150   1.722 -2.2876 -0.4449  1.4986
 2564TIP3    H229328   5.938   5.216   1.594 -0.3987 -1.6804  0.1183
 2565TIP3   OH229329   3.083   0.879   1.337 -0.5272 -0.2406 -0.0672
 2565TIP3    H129330   3.061   0.906   1.248 -0.2107  2.4628  0.5619
 2565TIP3    H229331   3.135   0.952   1.372 -1.4755 -0.7274  2.6399
 2566TIP3   OH229332   6.808   5.076   6.246  0.1176  0.2264 -0.8969
 2566TIP3    H129333   6.835   4.991   6.280  0.7994  0.0959 -1.7348
 2566TIP3    H229334   6.722   5.060   6.206  0.5770 -0.2390 -1.7124
 2567TIP3   OH229335   3.589   3.275   6.521 -1.1343 -0.4671  0.6871
 2567TIP3    H129336   3.549   3.189   6.511 -0.8527 -0.6022  0.7013
 2567TIP3    H229337   3.675   3.267   6.478 -0.3699 -0.7291  2.1793
 2568TIP3   OH229338   3.572   0.025   0.591  0.0632 -0.7429 -0.2457
 2568TIP3    H129339   3.541  -0.065   0.606 -1.2378 -0.2794  0.0371
 2568TIP3    H229340   3.516   0.057   0.520  0.8491 -0.3175 -0.6767
 2569TIP3   OH229341   3.141   4.242   2.181  0.6804  0.2911  0.7862
 2569TIP3    H129342   3.093   4.167   2.213 -1.7836  0.6798 -1.6069
 2569TIP3    H229343   3.150   4.300   2.257  0.5188 -1.3300  2.0884
 2570TIP3   OH229344   4.708   0.495   0.638 -0.3054  0.5146  0.1751
 2570TIP3    H129345   4.712   0.468   0.729 -0.9277  1.2040  0.4200
 2570TIP3    H229346   4.708   0.413   0.588 -1.9665  0.0320  0.8860
 2571TIP3   OH229347   0.190   2.102   1.766  0.1601 -0.4041  0.3189
 2571TIP3    H129348   0.235   2.141   1.841  0.6787 -1.0267  0.3352
 2571TIP3    H229349   0.097   2.118   1.784  0.3453  0.6619  0.4055
 2572TIP3   OH229350   4.069   3.648   7.203  0.1397 -0.5557  0.1554
 2572TIP3    H129351   4.150   3.624   7.249 -0.3408  1.0703  1.9539
 2572TIP3    H229352   4.086   3.736   7.170 -0.7263 -0.4016  0.1146
 2573TIP3   OH229353   0.334   0.152   7.947  0.6027 -0.0020  0.0301
 2573TIP3    H129354   0.293   0.196   8.021 -0.9716  0.9857 -1.3600
 2573TIP3    H229355   0.428   0.165   7.960  0.2978  1.0005  1.3317
 2574TIP3   OH229356   1.701   4.578   8.284 -0.2889 -0.1240  0.2060
 2574TIP3    H129357   1.780   4.545   8.328  0.0922 -0.0042 -0.3611
 2574TIP3    H229358   1.633   4.516   8.307  0.5341 -1.6723 -1.2697
 2575TIP3   OH229359   4.179   6.017   0.958 -0.0248  0.0353  0.6669
 2575TIP3    H129360   4.227   5.956   1.013 -1.0956 -1.1900  0.2837
 2575TIP3    H229361   4.163   5.969   0.877  1.0027  1.5977 -0.5229
 2576TIP3   OH229362   3.711   5.562   1.716  0.0995 -0.1138  0.0365
 2576TIP3    H129363   3.686   5.635   1.774 -0.8940  0.8179 -1.5004
 2576TIP3    H229364   3.636   5.551   1.658  1.0078 -1.1200 -0.9807
 2577TIP3   OH229365   2.016   4.494   7.983  0.2920 -0.0601 -0.7360
 2577TIP3    H129366   2.064   4.561   7.934 -0.8519  0.8371 -0.6811
 2577TIP3    H229367   2.064   4.485   8.065  0.0271  1.2959 -0.4039
 2578TIP3   OH229368   2.699   4.123   8.122  0.1263  0.1623  0.1277
 2578TIP3    H129369   2.791   4.145   8.138  0.6622 -1.1465 -0.8878
 2578TIP3    H229370   2.665   4.198   8.073  0.5508  0.7979  0.7821
 2579TIP3   OH229371   4.696   3.792   7.961 -0.1767  0.6973 -0.3482
 2579TIP3    H129372   4.639   3.738   7.906 -0.2429  1.6564 -1.2535
 2579TIP3    H229373   4.681   3.760   8.050 -2.1378  0.8910 -0.5458
 2580TIP3   OH229374   1.669   6.563   7.336 -0.0253 -0.0696  0.2372
 2580TIP3    H129375   1.574   6.571   7.325  0.0417  0.4657  0.0207
 2580TIP3    H229376   1.704   6.577   7.248  0.3198  0.9509  0.5217
 2581TIP3   OH229377   6.218   3.413   7.861  0.0715 -0.2921 -0.5627
 2581TIP3    H129378   6.134   3.371   7.843 -0.1677  0.3333 -0.9520
 2581TIP3    H229379   6.271   3.345   7.902 -0.3013 -0.9772 -1.1982
 2582TIP3   OH229380   5.560   1.243   8.248 -0.6545 -0.6340 -0.5373
 2582TIP3    H129381   5.616   1.258   8.172 -0.7509  0.8353 -0.3516
 2582TIP3    H229382   5.614   1.190   8.307  1.2639  2.0659  0.3506
 2583TIP3   OH229383   5.457   6.765   0.796  0.5761 -0.1601 -0.4055
 2583TIP3    H129384   5.423   6.810   0.720  1.4882 -1.5994 -1.7327
 2583TIP3    H229385   5.541   6.729   0.767 -0.0426 -2.5836  0.5611
 2584TIP3   OH229386   5.426   0.392   7.789  0.8621  0.1517 -0.7704
 2584TIP3    H129387   5.376   0.344   7.722 -2.4593  1.6200  0.4265
 2584TIP3    H229388   5.396   0.483   7.780 -0.0651  0.3651  2.8694
 2585TIP3   OH229389   6.366   0.063   7.638  0.8972  0.1063  0.0527
 2585TIP3    H129390   6.424   0.065   7.714  0.4868  0.0826  0.3711
 2585TIP3    H229391   6.424   0.043   7.564  1.1721 -0.7708  0.4847
 2586TIP3   OH229392   1.834   0.067   8.555 -0.6146 -0.0433 -0.6058
 2586TIP3    H129393   1.879   0.020   8.626  0.5821  2.0924  0.1319
 2586TIP3    H229394   1.765   0.006   8.526 -0.1317 -1.6084  1.3067
 2587TIP3   OH229395   6.687   4.950   6.814  0.3349  0.1475  0.1889
 2587TIP3    H129396   6.724   4.918   6.732  1.9435  0.9450  0.5576
 2587TIP3    H229397   6.727   5.036   6.826 -0.9036  0.6125  1.1521
 2588TIP3   OH229398   6.514   1.886   6.871  0.5712 -0.3630 -0.3930
 2588TIP3    H129399   6.432   1.856   6.912  1.0189 -0.7177  0.2594
 2588TIP3    H229400   6.489   1.967   6.825  0.2982  0.8472  1.7152
 2589TIP3   OH229401   0.748   3.311   1.382  0.0692  0.2341 -0.2202
 2589TIP3    H129402   0.819   3.373   1.397  0.7730 -1.1309  2.7349
 2589TIP3    H229403   0.786   3.225   1.399 -1.6008 -0.8050 -1.3720
 2590TIP3   OH229404   0.355   3.625   7.704 -0.4365  0.3589 -0.0091
 2590TIP3    H129405   0.361   3.667   7.789 -1.6282  1.7987 -0.5774
 2590TIP3    H229406   0.362   3.531   7.722  0.0172  0.6763  1.5756
 2591TIP3   OH229407   2.503   4.539   1.169 -0.1604 -0.2935 -0.0515
 2591TIP3    H129408   2.438   4.577   1.110  0.6777  1.8217  0.2898
 2591TIP3    H229409   2.530   4.612   1.224  0.7982 -1.6772  1.3857
 2592TIP3   OH229410   1.676   2.567   8.122 -0.4210  0.2652  0.4538
 2592TIP3    H129411   1.580   2.559   8.124 -0.4141 -1.2329 -1.6089
 2592TIP3    H229412   1.705   2.521   8.201 -1.3912  0.0209  0.6902
 2593TIP3   OH229413   2.305   1.557   1.456 -0.1118  0.2095 -0.2960
 2593TIP3    H129414   2.230   1.587   1.404 -0.7814 -0.3280  0.3435
 2593TIP3    H229415   2.277   1.567   1.547  0.9501  0.8847 -0.0331
 2594TIP3   OH229416   0.072   3.262   1.800 -0.1098 -0.5252 -0.0268
 2594TIP3    H129417   0.123   3.309   1.866 -0.6594 -0.1703  0.1508
 2594TIP3    H229418   0.126   3.187   1.777  0.3557 -0.3220  0.3838
 2595TIP3   OH229419   1.886   2.813   8.336  0.3707 -0.6653  0.1146
 2595TIP3    H129420   1.873   2.822   8.241 -3.6787 -1.0378  0.4654
 2595TIP3    H229421   1.867   2.721   8.354 -1.5183 -0.0573  1.5163
 2596TIP3   OH229422   6.496   1.848   8.207 -0.3647 -0.1016  0.5685
 2596TIP3    H129423   6.456   1.894   8.281 -3.2123  1.7757 -1.8788
 2596TIP3    H229424   6.506   1.916   8.140  1.5547 -1.8119 -1.0040
 2597TIP3   OH229425   4.343   1.891   0.446  0.3034  0.1806 -0.8727
 2597TIP3    H129426   4.250   1.901   0.424 -0.4455 -1.9938  0.9550
 2597TIP3    H229427   4.367   1.974   0.488 -1.9489 -0.5080  2.1208
 2598TIP3   OH229428   6.278   1.263   7.956 -0.0091 -0.1864  0.1707
 2598TIP3    H129429   6.279   1.220   8.042  2.7844 -0.0623  0.2929
 2598TIP3    H229430   6.272   1.190   7.893  0.8454 -0.5114  0.4477
 2599TIP3   OH229431   2.439   3.341   7.475  0.1681  0.9797 -0.0261
 2599TIP3    H129432   2.365   3.282   7.483  1.6292 -0.7266  1.8666
 2599TIP3    H229433   2.498   3.298   7.413  0.9973  0.6719  0.9452
 2600TIP3   OH229434   0.901   4.953   7.083 -0.0550 -0.0105 -0.3671
 2600TIP3    H129435   0.970   4.974   7.147  1.4671  0.9014 -2.2060
 2600TIP3    H229436   0.851   4.883   7.124  0.6735  0.7311  1.9340
 2601TIP3   OH229437   2.022   2.409   0.965  0.4577 -0.3011 -0.2311
 2601TIP3    H129438   2.085   2.481   0.957  0.4601 -0.4350 -1.7782
 2601TIP3    H229439   1.939   2.452   0.984  0.2491  0.2643 -2.1417
 2602TIP3   OH229440   3.873   1.880   6.726  0.2783  0.0631  0.2299
 2602TIP3    H129441   3.959   1.838   6.719  0.7309  1.1586 -1.7958
 2602TIP3    H229442   3.861   1.924   6.641 -1.1879  2.0089  1.3486
 2603TIP3   OH229443   6.598   1.443   6.944 -0.5113 -0.0342 -0.0663
 2603TIP3    H129444   6.615   1.370   6.885  2.0290 -2.5957  3.4173
 2603TIP3    H229445   6.514   1.422   6.984 -1.8724  1.3255 -2.0190
 2604TIP3   OH229446   4.288   6.046   1.243 -0.4694 -0.3563  0.0296
 2604TIP3    H129447   4.371   6.081   1.212  0.2076 -0.5633  1.5294
 2604TIP3    H229448   4.225   6.116   1.226  0.1613  0.1242 -0.3746
 2605TIP3   OH229449   5.666   1.637   7.135 -0.1822 -0.0625 -0.5608
 2605TIP3    H129450   5.735   1.591   7.088  0.8738  1.1529 -0.2516
 2605TIP3    H229451   5.697   1.640   7.226 -0.0926  1.4757 -0.6254
 2606TIP3   OH229452   3.068   4.356   0.281  0.5061 -0.8117  0.1934
 2606TIP3    H129453   3.014   4.360   0.360 -1.0439  0.7332 -0.8419
 2606TIP3    H229454   3.135   4.423   0.294 -0.3071  0.1033 -0.1095
 2607TIP3   OH229455   2.168   0.895   8.318 -0.6776  0.0232 -0.7113
 2607TIP3    H129456   2.220   0.957   8.369  1.1889 -1.4222 -0.7738
 2607TIP3    H229457   2.118   0.950   8.258 -0.3364  1.5441  0.3421
 2608TIP3   OH229458   1.705   1.888   2.169  0.0721 -0.4003 -0.2414
 2608TIP3    H129459   1.699   1.797   2.139 -0.3437 -0.4941  0.1115
 2608TIP3    H229460   1.782   1.888   2.227 -1.9116 -1.4007  2.6147
 2609TIP3   OH229461   3.782   6.242   7.630 -0.1031 -0.0834 -0.0517
 2609TIP3    H129462   3.705   6.270   7.681  0.5444  2.8361 -0.4876
 2609TIP3    H229463   3.854   6.241   7.693  0.4185  2.1650 -0.5147
 2610TIP3   OH229464   0.049   3.693   7.323 -0.2798  0.8113 -0.4324
 2610TIP3    H129465   0.143   3.688   7.309 -0.3565  0.8522 -1.0023
 2610TIP3    H229466   0.032   3.786   7.342 -0.2993  0.9432 -1.0800
 2611TIP3   OH229467   4.462   0.518   8.256 -0.0810 -0.5764 -0.2900
 2611TIP3    H129468   4.482   0.608   8.280  0.6764  0.0781 -3.0039
 2611TIP3    H229469   4.540   0.469   8.284 -0.4771 -0.4357  1.1538
 2612TIP3   OH229470   2.212   0.244   1.990  0.3685 -0.3201 -0.2047
 2612TIP3    H129471   2.210   0.216   2.082  0.2681 -3.4156 -1.0140
 2612TIP3    H229472   2.281   0.192   1.950 -0.6553 -0.2711 -2.1990
 2613TIP3   OH229473   4.554   5.678   6.077 -0.4933  0.1804 -0.4005
 2613TIP3    H129474   4.466   5.714   6.089 -0.3557  0.9995 -1.5760
 2613TIP3    H229475   4.610   5.756   6.072  0.2996 -0.3325  0.2700
 2614TIP3   OH229476   4.062   2.460   0.229 -0.3472  0.4592 -0.1641
 2614TIP3    H129477   4.015   2.377   0.239 -0.2572  0.5030  0.7035
 2614TIP3    H229478   4.015   2.507   0.160 -1.1465  0.2068  0.2033
 2615TIP3   OH229479   0.445   4.613   7.998 -0.3466  0.3467 -0.2381
 2615TIP3    H129480   0.393   4.570   8.067  0.8029  1.3187  1.3095
 2615TIP3    H229481   0.532   4.625   8.038 -0.2437  2.9024 -1.0561
 2616TIP3   OH229482   5.650   2.055   6.962  0.7092 -0.0317  0.0357
 2616TIP3    H129483   5.655   1.976   6.908  1.9932 -0.8291  1.2640
 2616TIP3    H229484   5.574   2.041   7.018  0.3057  0.0984 -0.4678
 2617TIP3   OH229485   6.668   4.140   1.566 -0.0478 -0.0247 -0.4885
 2617TIP3    H129486   6.741   4.124   1.626  0.6843 -0.7450 -1.5250
 2617TIP3    H229487   6.591   4.105   1.612  0.1118  1.3348  0.8997
 2618TIP3   OH229488   3.240   6.080   0.560 -0.2760  0.4041 -0.5908
 2618TIP3    H129489   3.251   6.135   0.482 -3.7013  1.7642 -0.2767
 2618TIP3    H229490   3.237   5.991   0.527 -3.3145  1.0293 -2.4076
 2619TIP3   OH229491   1.188   5.558   8.616  1.0919 -0.4834  0.0601
 2619TIP3    H129492   1.097   5.569   8.645  0.7207 -1.5929 -0.6281
 2619TIP3    H229493   1.213   5.645   8.584 -0.2538 -0.4900 -1.1386
 2620TIP3   OH229494   0.425   5.119   0.552  0.2739 -0.4449  0.0115
 2620TIP3    H129495   0.416   5.093   0.460 -0.1726 -3.9753  0.9204
 2620TIP3    H229496   0.336   5.112   0.587  0.2839  1.7019  0.6100
 2621TIP3   OH229497   5.904   3.653   7.957 -0.2090  0.1935 -0.1719
 2621TIP3    H129498   5.977   3.617   8.008 -1.0744  1.5701  2.1711
 2621TIP3    H229499   5.912   3.748   7.967 -2.2208  0.3868  0.0630
 2622TIP3   OH229500   0.437   3.697   2.099 -0.4605  0.1687  0.3415
 2622TIP3    H129501   0.444   3.789   2.125  0.4037  0.4262 -0.6994
 2622TIP3    H229502   0.513   3.683   2.043  0.1646 -1.5553  1.5289
 2623TIP3   OH229503   0.734   0.846   7.567 -0.9741  0.0745 -1.0599
 2623TIP3    H129504   0.786   0.922   7.594 -1.3167  0.1427 -0.5750
 2623TIP3    H229505   0.730   0.791   7.646  0.1615 -0.9638 -1.7003
 2624TIP3   OH229506   0.179   1.352   8.289 -0.2596  0.1662 -0.1317
 2624TIP3    H129507   0.192   1.275   8.234 -0.0599  0.7851 -0.9597
 2624TIP3    H229508   0.154   1.421   8.229  0.6510  1.0400  0.4616
 2625TIP3   OH229509   6.604   6.863   7.469 -0.7098  0.3317  0.6501
 2625TIP3    H129510   6.576   6.786   7.518  1.9547  0.5560  2.7374
 2625TIP3    H229511   6.651   6.828   7.393 -0.9384 -0.0856  0.7035
 2626TIP3   OH229512   3.854   3.535   1.634  0.3026 -0.1376 -0.4279
 2626TIP3    H129513   3.948   3.523   1.646  0.1937  0.2812  1.0688
 2626TIP3    H229514   3.845   3.615   1.583  0.7492  1.1445  1.3965
 2627TIP3   OH229515   3.709   3.456   6.294  0.1625  0.2667 -0.5219
 2627TIP3    H129516   3.732   3.513   6.221  0.7848 -1.3439 -1.6216
 2627TIP3    H229517   3.626   3.416   6.269 -0.4487  0.8959  0.4011
 2628TIP3   OH229518   1.399   0.011   6.739 -0.1574 -0.0279 -0.6576
 2628TIP3    H129519   1.306  -0.008   6.735 -0.1004 -0.1669 -1.9201
 2628TIP3    H229520   1.438  -0.045   6.671  0.5236  1.6997 -1.7744
 2629TIP3   OH229521   3.806   4.978   0.165 -0.2400 -0.3434  0.4760
 2629TIP3    H129522   3.766   4.892   0.177 -0.0037 -0.6334 -0.6787
 2629TIP3    H229523   3.758   5.035   0.224 -0.5436 -1.2255  1.1042
 2630TIP3   OH229524   5.103   6.819   7.933  0.1260  0.2269 -0.2000
 2630TIP3    H129525   5.116   6.861   7.848  0.3361 -2.1939 -1.4527
 2630TIP3    H229526   5.190   6.795   7.962  0.0026  0.5283  0.4341
 2631TIP3   OH229527   5.183   0.212   0.747  0.0442 -0.1945  0.9238
 2631TIP3    H129528   5.147   0.165   0.672 -0.0226  0.2281  0.6895
 2631TIP3    H229529   5.188   0.146   0.817  1.0872 -0.8616  0.2483
 2632TIP3   OH229530   6.050   2.479   1.404 -0.3264  0.1959 -0.1458
 2632TIP3    H129531   6.008   2.470   1.319 -3.4802  1.0087  1.1548
 2632TIP3    H229532   5.977   2.494   1.465  1.9416  2.4186  2.3040
 2633TIP3   OH229533   6.855   0.006   0.964  0.3280 -0.2202  0.1916
 2633TIP3    H129534   6.894   0.063   0.898  0.5307 -0.1368  0.3820
 2633TIP3    H229535   6.895  -0.080   0.949  0.0081 -0.3177 -0.1081
 2634TIP3   OH229536   0.942   2.963   7.749 -0.2058 -0.0577  0.2836
 2634TIP3    H129537   0.959   2.893   7.686 -1.6352  0.5194 -0.7809
 2634TIP3    H229538   0.948   2.920   7.834 -0.3228 -1.3164 -0.3182
 2635TIP3   OH229539   4.288   3.002   7.631 -0.1730  0.3486  0.3449
 2635TIP3    H129540   4.300   2.907   7.623 -2.5615  0.1312 -1.6994
 2635TIP3    H229541   4.316   3.037   7.547  0.6504  1.5149  1.0659
 2636TIP3   OH229542   6.274   0.840   0.319  0.3148  0.3732 -0.0341
 2636TIP3    H129543   6.182   0.848   0.344  0.3003 -1.1379  0.5286
 2636TIP3    H229544   6.288   0.911   0.257 -0.9133  1.3602  0.7634
 2637TIP3   OH229545   0.140   3.330   7.567  0.0465  0.1221  0.6085
 2637TIP3    H129546   0.151   3.316   7.473  0.7595  0.5272  0.6222
 2637TIP3    H229547   0.228   3.318   7.604 -0.4229 -1.1472  1.3795
 2638TIP3   OH229548   1.472   0.845   6.830  0.3446  0.2517  0.2698
 2638TIP3    H129549   1.468   0.777   6.763 -0.0799  0.9180 -0.3910
 2638TIP3    H229550   1.540   0.815   6.891 -0.1799 -0.9978  0.2597
 2639TIP3   OH229551   3.551   4.633   1.229  0.0072  0.4668  0.1344
 2639TIP3    H129552   3.572   4.718   1.188 -1.0095  0.9367  0.5458
 2639TIP3    H229553   3.559   4.649   1.323 -0.9146  0.3153  0.2438
 2640TIP3   OH229554   3.393   3.511   8.537 -0.3163  0.2364  0.4553
 2640TIP3    H129555   3.366   3.584   8.592  0.9733  0.1381  1.2751
 2640TIP3    H229556   3.355   3.434   8.579  0.0797  0.2334  0.8134
 2641TIP3   OH229557   0.562   5.804   1.946  0.0805 -0.5174 -0.1998
 2641TIP3    H129558   0.487   5.747   1.934 -0.2948 -0.0610 -0.0490
 2641TIP3    H229559   0.631   5.746   1.979  0.5336 -1.4035 -2.5596
 2642TIP3   OH229560   3.625   6.131   1.522 -0.1557 -0.1401 -0.1328
 2642TIP3    H129561   3.661   6.149   1.435  1.1542  1.3563  0.6814
 2642TIP3    H229562   3.623   6.035   1.527  1.0673 -0.2641 -1.2889
 2643TIP3   OH229563   2.059   2.583   6.986 -0.2666 -0.3724 -0.6764
 2643TIP3    H129564   2.068   2.621   7.073 -1.2413  1.1801 -1.2003
 2643TIP3    H229565   2.143   2.540   6.970  0.9439  1.5828 -0.0047
 2644TIP3   OH229566   0.654   1.790   1.815  0.2716  0.4919 -0.3391
 2644TIP3    H129567   0.624   1.867   1.863 -0.8806  0.7820 -1.4691
 2644TIP3    H229568   0.678   1.727   1.883 -2.9136  0.2534  0.7347
 2645TIP3   OH229569   5.400   2.938   1.179  0.1906  0.2330 -0.3375
 2645TIP3    H129570   5.437   2.858   1.218  0.9266  0.3711 -0.7314
 2645TIP3    H229571   5.460   3.007   1.207  0.2755  0.4500 -1.0434
 2646TIP3   OH229572   4.288   0.507   7.518 -1.0372  0.4590  0.0148
 2646TIP3    H129573   4.239   0.557   7.453 -1.0646 -0.4857 -0.7057
 2646TIP3    H229574   4.358   0.466   7.469 -1.4307 -0.7743  0.4566
 2647TIP3   OH229575   6.262   0.850   1.938  0.2422  0.5044  0.3178
 2647TIP3    H129576   6.297   0.791   1.871  2.3535  3.2110 -1.2193
 2647TIP3    H229577   6.173   0.870   1.909  0.8843  1.0894 -1.4050
 2648TIP3   OH229578   2.387   2.191   7.351 -0.4548  0.8201 -0.4083
 2648TIP3    H129579   2.413   2.155   7.436 -2.1353 -1.0198 -0.6011
 2648TIP3    H229580   2.436   2.139   7.287 -1.4295  0.1337 -0.6256
 2649TIP3   OH229581   5.685   3.618   7.611  0.2786  0.4031 -0.4266
 2649TIP3    H129582   5.667   3.708   7.640 -2.2587  0.0846 -0.7634
 2649TIP3    H229583   5.612   3.596   7.554  2.4189 -0.8578 -2.8927
 2650TIP3   OH229584   6.894   2.798   6.228  0.7397  0.1338  0.8050
 2650TIP3    H129585   6.892   2.740   6.152 -2.3434  0.9594  0.0996
 2650TIP3    H229586   6.913   2.740   6.302 -1.8058 -1.8144  0.0827
 2651TIP3   OH229587   6.283   6.167   0.858  0.2696 -0.4116  0.0223
 2651TIP3    H129588   6.202   6.116   0.866  0.7304 -1.0534  0.7563
 2651TIP3    H229589   6.303   6.165   0.764 -0.8448  0.2251 -0.2554
 2652TIP3   OH229590   0.295   2.853   0.576 -0.3131 -0.2141 -0.2563
 2652TIP3    H129591   0.382   2.882   0.602  0.1312 -1.0580 -0.7575
 2652TIP3    H229592   0.245   2.934   0.566  0.3970  0.2763  0.0790
 2653TIP3   OH229593   5.152   3.640   0.852  0.1293  0.6165  0.7573
 2653TIP3    H129594   5.064   3.602   0.850  1.6022 -3.1628  0.2597
 2653TIP3    H229595   5.138   3.733   0.835 -3.6679 -0.0227 -0.5373
 2654TIP3   OH229596   4.006   3.591   1.201  0.3646  0.2486 -1.1590
 2654TIP3    H129597   4.068   3.614   1.132 -0.4169  0.5514 -1.7724
 2654TIP3    H229598   3.934   3.654   1.191  1.1037  1.6205  1.1611
 2655TIP3   OH229599   1.290   1.598   1.607  0.5225 -0.3242  0.0007
 2655TIP3    H129600   1.206   1.578   1.568  0.8395 -0.2746 -0.7106
 2655TIP3    H229601   1.280   1.687   1.642  0.7056  0.2125 -1.2878
 2656TIP3   OH229602   6.770   0.437   0.758  0.0759 -0.0800  0.1674
 2656TIP3    H129603   6.742   0.409   0.671  0.0512 -2.2523  0.7892
 2656TIP3    H229604   6.751   0.530   0.761  0.6392  0.1981 -2.3434
 2657TIP3   OH229605   2.061   1.412   0.696  0.0372  0.4910 -0.2460
 2657TIP3    H129606   2.111   1.492   0.691 -0.1304  0.5967 -0.2476
 2657TIP3    H229607   1.970   1.441   0.703  0.1334  0.3583  2.5541
 2658TIP3   OH229608   1.543   6.555   0.558 -0.1945 -0.1106  0.2644
 2658TIP3    H129609   1.476   6.509   0.507 -1.2642  1.9216 -0.2844
 2658TIP3    H229610   1.535   6.646   0.531  0.0777  0.8650  3.0961
 2659TIP3   OH229611   6.869   5.652   0.145 -0.1992 -0.4689 -0.5333
 2659TIP3    H129612   6.938   5.716   0.131 -0.2814  0.3900  2.3405
 2659TIP3    H229613   6.911   5.567   0.127  1.0371  0.1472 -0.6482
 2660TIP3   OH229614   5.884   2.050   6.097 -0.3169 -0.2162  0.0529
 2660TIP3    H129615   5.913   1.959   6.104  0.1585 -0.2801 -2.1691
 2660TIP3    H229616   5.964   2.101   6.113 -0.3480 -0.2142  0.2025
 2661TIP3   OH229617   6.794   0.556   6.623 -0.0820 -0.7675 -1.4480
 2661TIP3    H129618   6.859   0.492   6.653 -0.4802 -0.7387 -0.5055
 2661TIP3    H229619   6.831   0.641   6.648 -0.7959 -0.7857 -0.2382
 2662TIP3   OH229620   2.164   1.330   0.191 -0.0017 -0.3567  0.0915
 2662TIP3    H129621   2.074   1.311   0.165  0.0998 -0.4243 -0.2200
 2662TIP3    H229622   2.213   1.327   0.109 -0.1490  2.4766 -0.1881
 2663TIP3   OH229623   4.044   1.596   0.593 -1.1156  0.0519  0.4504
 2663TIP3    H129624   4.063   1.688   0.612 -0.6319  0.4589 -1.7199
 2663TIP3    H229625   4.128   1.551   0.604 -0.9255  0.2176 -0.2708
 2664TIP3   OH229626   5.783   0.981   0.541  0.4713  0.0532 -0.5843
 2664TIP3    H129627   5.839   1.057   0.558 -1.5402  1.8046 -1.2944
 2664TIP3    H229628   5.811   0.916   0.604  0.9922  2.1200  1.4739
 2665TIP3   OH229629   6.566   5.557   0.993 -0.4728  0.0830 -0.5096
 2665TIP3    H129630   6.621   5.523   1.064  1.1513  1.0856 -1.2210
 2665TIP3    H229631   6.507   5.619   1.035  0.0529  0.2068  0.0531
 2666TIP3   OH229632   3.282   6.338   7.249 -0.2080  0.2092  0.0652
 2666TIP3    H129633   3.293   6.375   7.161 -0.8396 -0.5561 -0.3525
 2666TIP3    H229634   3.212   6.273   7.238 -0.6155  0.4382  1.2356
 2667TIP3   OH229635   3.045   6.681   7.084  0.2910  0.0002 -0.2155
 2667TIP3    H129636   3.015   6.742   7.018  2.5957  0.7668 -0.6370
 2667TIP3    H229637   3.024   6.594   7.049 -0.6370  0.4655 -0.8285
 2668TIP3   OH229638   5.572   4.211   1.996  0.1028  0.4863 -0.2382
 2668TIP3    H129639   5.635   4.138   1.998  2.0843  2.1186  0.2259
 2668TIP3    H229640   5.491   4.173   2.030  1.2370 -1.3588  0.6082
 2669TIP3   OH229641   1.117   4.319   7.728 -0.2029 -0.6197 -0.2275
 2669TIP3    H129642   1.097   4.410   7.747 -1.0339 -0.1919 -2.7293
 2669TIP3    H229643   1.103   4.273   7.811  0.1085  1.4836  1.0428
 2670TIP3   OH229644   2.069   5.071   1.484  0.5279 -0.6855 -0.4660
 2670TIP3    H129645   2.019   5.044   1.407  0.1777  0.1709 -0.5441
 2670TIP3    H229646   2.017   5.140   1.524  1.3225 -0.2493 -0.1664
 2671TIP3   OH229647   5.018   3.048   0.029 -0.0935  0.0809  0.0279
 2671TIP3    H129648   5.069   3.058  -0.052 -0.3816  2.0216  0.0431
 2671TIP3    H229649   5.083   3.054   0.099 -0.1955  1.9681  0.0248
 2672TIP3   OH229650   4.607   4.587   6.593  0.1165  0.8153 -0.0523
 2672TIP3    H129651   4.603   4.492   6.576  2.1421  0.4784  1.1453
 2672TIP3    H229652   4.627   4.625   6.507  0.9839 -0.0041 -0.2310
 2673TIP3   OH229653   2.275   2.446   1.299  0.4001  0.6585 -0.2222
 2673TIP3    H129654   2.188   2.412   1.322 -0.5871  1.5539 -2.4064
 2673TIP3    H229655   2.315   2.375   1.248  1.9210 -0.6491  2.5725
 2674TIP3   OH229656   1.198   0.901   6.635 -0.0500  0.2332  0.1121
 2674TIP3    H129657   1.218   0.950   6.555  0.7541 -0.2291  0.0180
 2674TIP3    H229658   1.240   0.816   6.623 -1.4299 -0.5063  0.2698
 2675TIP3   OH229659   2.576   6.574   1.476 -0.3425  0.5356 -0.2710
 2675TIP3    H129660   2.513   6.645   1.489 -1.2904  0.0111 -1.7563
 2675TIP3    H229661   2.603   6.549   1.565 -1.7453  1.1953  0.3678
 2676TIP3   OH229662   5.289   6.311   7.225 -0.6139  0.6312 -0.1988
 2676TIP3    H129663   5.213   6.305   7.167  0.3228  1.3355 -1.5755
 2676TIP3    H229664   5.253   6.307   7.313 -2.1993  0.5203 -0.8218
 2677TIP3   OH229665   1.885   6.738   7.919 -0.2416 -0.0216  0.5533
 2677TIP3    H129666   1.976   6.752   7.943 -0.2821  0.2533  0.5480
 2677TIP3    H229667   1.840   6.726   8.003 -0.4434  1.2978  0.6435
 2678TIP3   OH229668   5.020   1.844   6.359  0.4008  0.4992 -0.8619
 2678TIP3    H129669   4.955   1.775   6.374  0.0666  1.3998  2.6609
 2678TIP3    H229670   5.104   1.798   6.360  0.0378 -0.2204 -1.8518
 2679TIP3   OH229671   0.151   5.747   6.705  0.0115 -0.3003  0.5345
 2679TIP3    H129672   0.241   5.735   6.676 -0.0921 -1.4051  0.6329
 2679TIP3    H229673   0.098   5.710   6.635 -0.2455 -2.8749  1.9490
 2680TIP3   OH229674   3.203   6.503   6.639  0.8595 -0.1615 -0.1499
 2680TIP3    H129675   3.153   6.424   6.622 -1.3135  0.3921  2.9180
 2680TIP3    H229676   3.275   6.475   6.696  0.8056 -0.0801 -0.0433
 2681TIP3   OH229677   3.922   3.125   1.541 -0.4136  0.0234  0.3197
 2681TIP3    H129678   3.954   3.204   1.584 -0.4683 -0.0265  0.4519
 2681TIP3    H229679   3.831   3.118   1.570 -1.5751  1.8766 -2.4005
 2682TIP3   OH229680   6.631   2.381   7.677 -0.0580 -0.1399  0.7693
 2682TIP3    H129681   6.611   2.437   7.753 -1.1591  0.5523 -0.0111
 2682TIP3    H229682   6.556   2.390   7.619  0.0586 -1.9048  0.2848
 2683TIP3   OH229683   1.600   1.444   0.128  0.8904  0.1884  0.6485
 2683TIP3    H129684   1.680   1.440   0.076  1.5160  1.7830  1.4324
 2683TIP3    H229685   1.630   1.470   0.215 -0.5632  1.8564  0.6963
 2684TIP3   OH229686   0.116   4.356   0.104 -0.3833 -0.5562  0.4025
 2684TIP3    H129687   0.109   4.285   0.168 -1.2954 -0.1507  0.7801
 2684TIP3    H229688   0.039   4.411   0.122 -0.6109 -0.3987 -1.0011
 2685TIP3   OH229689   5.122   5.191   0.198  1.2958  0.4689 -1.1348
 2685TIP3    H129690   5.155   5.141   0.124  0.5275 -0.6014 -0.7716
 2685TIP3    H229691   5.164   5.151   0.274  1.3526  0.9507 -0.9104
 2686TIP3   OH229692   1.784   2.384   0.212 -0.4032  0.0790 -0.0908
 2686TIP3    H129693   1.766   2.292   0.230  1.3281 -0.1957  0.4276
 2686TIP3    H229694   1.747   2.399   0.126 -0.0061 -1.3443 -0.5420
 2687TIP3   OH229695   2.597   0.896   8.302  0.1998  0.6822 -0.2254
 2687TIP3    H129696   2.671   0.876   8.244  0.2394  0.6635 -0.1686
 2687TIP3    H229697   2.524   0.848   8.265  0.5721 -0.5690  0.6112
 2688TIP3   OH229698   6.008   0.827   1.842 -0.3923  0.2075  0.0281
 2688TIP3    H129699   5.985   0.770   1.916 -2.5901  1.0901  0.0819
 2688TIP3    H229700   5.925   0.843   1.796  0.2242  2.8592 -0.3439
 2689TIP3   OH229701   4.620   1.630   1.309  0.1500 -0.3620 -0.1148
 2689TIP3    H129702   4.620   1.619   1.404  0.0298  1.5932  0.1687
 2689TIP3    H229703   4.661   1.716   1.295 -0.2287 -0.4105 -1.7997
 2690TIP3   OH229704   5.340   2.183   1.048 -0.3546 -0.0828  0.0171
 2690TIP3    H129705   5.288   2.247   1.096  0.7299 -0.0130  1.1616
 2690TIP3    H229706   5.404   2.236   1.000 -0.0084 -0.2557  0.2822
 2691TIP3   OH229707   2.761   6.282   0.209  0.1601  0.2977 -0.0613
 2691TIP3    H129708   2.727   6.298   0.121 -0.1503  1.1507  0.2058
 2691TIP3    H229709   2.766   6.368   0.250 -0.7611 -0.1878  1.1454
 2692TIP3   OH229710   1.974   6.093   7.546  0.2730 -0.5171  0.3401
 2692TIP3    H129711   2.033   6.150   7.497  0.9905 -1.5255  0.0115
 2692TIP3    H229712   1.940   6.031   7.481  0.8751 -1.5790  1.0068
 2693TIP3   OH229713   5.616   4.313   8.064 -0.5037 -0.3071 -0.3975
 2693TIP3    H129714   5.572   4.369   8.000  2.3271  1.6487 -0.8134
 2693TIP3    H229715   5.558   4.313   8.140 -1.9675  0.8060 -1.4633
 2694TIP3   OH229716   4.277   0.029   1.329  0.5060  0.0774  0.6229
 2694TIP3    H129717   4.268   0.018   1.235 -0.5034  1.5986  0.5087
 2694TIP3    H229718   4.337  -0.041   1.356  0.3171 -0.7664 -1.0320
 2695TIP3   OH229719   6.603   5.718   7.038 -0.9266  0.4211  0.1157
 2695TIP3    H129720   6.617   5.673   7.121 -0.3277 -0.0717 -0.2398
 2695TIP3    H229721   6.557   5.655   6.983 -2.5631  1.2210  0.5013
 2696TIP3   OH229722   5.057   3.293   0.746 -0.1783  0.0251 -0.3259
 2696TIP3    H129723   5.007   3.221   0.784 -0.5861  0.2677 -0.3999
 2696TIP3    H229724   5.012   3.314   0.665 -0.6071  0.9648  0.1368
 2697TIP3   OH229725   1.195   3.566   1.144  0.5282 -0.2745 -0.1647
 2697TIP3    H129726   1.231   3.477   1.139 -1.8335 -1.3501  0.5951
 2697TIP3    H229727   1.227   3.599   1.228  1.4891 -0.3627 -0.4862
 2698TIP3   OH229728   6.868   5.454   8.431  0.0818 -0.4836 -0.7355
 2698TIP3    H129729   6.925   5.436   8.506  0.9913 -1.0827 -1.5450
 2698TIP3    H229730   6.908   5.530   8.388 -1.0720  0.5646 -0.0002
 2699TIP3   OH229731   1.664   3.646   6.629  0.5235  0.5855  0.2247
 2699TIP3    H129732   1.673   3.551   6.631 -2.0204  0.1649 -2.3680
 2699TIP3    H229733   1.753   3.678   6.614  1.0747 -1.6040 -1.8205
 2700TIP3   OH229734   6.404   6.484   7.852  0.2987 -0.3563 -0.3539
 2700TIP3    H129735   6.319   6.509   7.887  0.4988  1.0157 -0.7635
 2700TIP3    H229736   6.457   6.462   7.929  0.5182  1.9099  0.2105
 2701TIP3   OH229737   4.467   2.905   0.016  0.0700 -0.4326  0.1825
 2701TIP3    H129738   4.559   2.921   0.038  0.5634 -1.8532 -0.7088
 2701TIP3    H229739   4.418   2.948   0.086  1.4593 -0.7582  1.4044
 2702TIP3   OH229740   3.701   3.510   1.893  0.5682  0.1225 -0.4129
 2702TIP3    H129741   3.621   3.555   1.920  0.0318 -0.3331 -1.1938
 2702TIP3    H229742   3.694   3.505   1.797  1.1101 -0.6993 -0.4164
 2703TIP3   OH229743   1.399   1.932   1.331  0.3869  0.2512  0.0054
 2703TIP3    H129744   1.320   1.943   1.278  1.5594  1.2995 -1.6146
 2703TIP3    H229745   1.367   1.920   1.420 -1.5885  0.8226 -0.5841
 2704TIP3   OH229746   4.710   0.676   7.466  0.1841 -0.2184 -0.2240
 2704TIP3    H129747   4.729   0.711   7.378  0.0455 -1.3672 -0.7256
 2704TIP3    H229748   4.794   0.642   7.496 -0.0275 -0.9575 -0.4452
 2705TIP3   OH229749   3.724   5.088   1.348  0.5797 -0.0378 -0.6616
 2705TIP3    H129750   3.792   5.071   1.413  2.4224  2.6984 -1.6590
 2705TIP3    H229751   3.674   5.162   1.384 -0.7072 -0.7989 -0.8115
 2706TIP3   OH229752   4.968   2.460   7.978  0.1406 -0.3392 -0.2855
 2706TIP3    H129753   4.925   2.523   8.035 -0.0697  0.8483 -1.7112
 2706TIP3    H229754   4.953   2.492   7.889  0.9986 -1.7865 -1.0061
 2707TIP3   OH229755   6.879   0.008   0.122 -0.1098  0.2399 -0.4773
 2707TIP3    H129756   6.957   0.051   0.156 -0.1280 -0.9511  1.1697
 2707TIP3    H229757   6.881   0.025   0.028  3.0592 -1.1610 -0.7805
 2708TIP3   OH229758   6.284   0.843   8.411  0.2013  0.6585  0.2886
 2708TIP3    H129759   6.299   0.799   8.327 -0.8433 -0.1675  0.4966
 2708TIP3    H229760   6.206   0.896   8.396  0.7941  1.5690  0.3721
 2709TIP3   OH229761   6.701   1.810   1.627  0.2444 -0.3149 -0.2363
 2709TIP3    H129762   6.796   1.804   1.631  0.2390 -0.1588  0.1268
 2709TIP3    H229763   6.671   1.771   1.708  0.0584  1.0296  0.3708
 2710TIP3   OH229764   1.086   4.403   1.317  0.0829 -0.9627 -0.2151
 2710TIP3    H129765   1.069   4.399   1.411  0.0698  0.2523 -0.1541
 2710TIP3    H229766   1.122   4.490   1.302 -1.5641 -0.4434 -1.5868
 2711TIP3   OH229767   5.045   6.293   1.089  0.2738  0.1490  0.1128
 2711TIP3    H129768   5.114   6.284   1.024  1.8005  1.4720  1.4462
 2711TIP3    H229769   5.048   6.385   1.114 -1.9828  0.2235  0.2485
 2712TIP3   OH229770   2.860   1.009   0.646 -0.6822 -0.4755  0.1709
 2712TIP3    H129771   2.818   0.986   0.729 -0.6925  0.8490  0.5477
 2712TIP3    H229772   2.890   0.925   0.611 -1.4239 -1.1508  1.0983
 2713TIP3   OH229773   0.877   3.401   0.612 -0.6807  0.0953  0.0886
 2713TIP3    H129774   0.810   3.345   0.650 -0.4164  0.9097  1.8831
 2713TIP3    H229775   0.876   3.480   0.667  1.7583  0.1044  0.2399
 2714TIP3   OH229776   5.127   6.481   1.742 -0.7236 -0.7734  0.1334
 2714TIP3    H129777   5.085   6.489   1.828  0.4614 -0.0236  0.6897
 2714TIP3    H229778   5.214   6.519   1.756  0.0653 -2.1040 -0.9991
 2715TIP3   OH229779   2.443   1.440   1.236 -0.0823 -0.5233 -0.4266
 2715TIP3    H129780   2.376   1.398   1.183  0.3674  1.3147 -2.6089
 2715TIP3    H229781   2.393   1.492   1.300 -0.7927  0.4588 -1.7223
 2716TIP3   OH229782   0.584   6.708   7.726  0.1171  0.3169 -0.2449
 2716TIP3    H129783   0.608   6.616   7.715 -2.3598 -0.6349  1.2820
 2716TIP3    H229784   0.554   6.714   7.816 -1.2005  2.2533 -0.7490
 2717TIP3   OH229785   6.590   2.723   1.619  0.0822 -0.6030  0.0140
 2717TIP3    H129786   6.623   2.802   1.662  0.4063 -0.3003 -0.7770
 2717TIP3    H229787   6.646   2.652   1.652  0.6460 -0.2968 -0.2642
 2718TIP3   OH229788   4.661   2.003   0.405 -0.5143  0.1046  0.5782
 2718TIP3    H129789   4.738   2.013   0.348 -0.3494  1.0332  0.9425
 2718TIP3    H229790   4.661   1.910   0.428 -0.0345 -0.0947 -0.1676
 2719TIP3   OH229791   5.635   1.412   0.224 -0.5817  0.4530  0.3711
 2719TIP3    H129792   5.696   1.396   0.296  1.0821 -1.3034 -1.3019
 2719TIP3    H229793   5.658   1.499   0.191  1.0644 -0.1559 -0.1943
 2720TIP3   OH229794   4.514   0.224   1.358 -0.5599  0.3519  0.5796
 2720TIP3    H129795   4.570   0.266   1.293 -2.6639 -2.3365 -3.3835
 2720TIP3    H229796   4.553   0.138   1.372 -2.4566 -0.7935 -0.7029
 2721TIP3   OH229797   4.464   2.455   7.655 -0.3388 -0.1037 -0.1315
 2721TIP3    H129798   4.438   2.529   7.600 -2.3555 -0.7672 -0.1737
 2721TIP3    H229799   4.433   2.478   7.742  0.7963 -0.0652  0.2783
 2722TIP3   OH229800   3.432   5.249   8.251 -0.1048 -0.1188 -0.4736
 2722TIP3    H129801   3.371   5.312   8.210  0.2799 -0.7062 -2.0185
 2722TIP3    H229802   3.496   5.304   8.296  0.3843  0.6584 -2.0285
 2723TIP3   OH229803   0.454   2.367   7.212 -0.8273  0.2752  0.2417
 2723TIP3    H129804   0.531   2.350   7.267 -0.7860 -2.0612 -0.4186
 2723TIP3    H229805   0.391   2.409   7.271  0.9374  2.3742  0.7727
 2724TIP3   OH229806   2.325   4.730   0.256  0.1801 -0.1675  0.5869
 2724TIP3    H129807   2.350   4.822   0.248 -1.3729  0.1673 -1.0391
 2724TIP3    H229808   2.409   4.683   0.264  1.0542  1.2608  0.1504
 2725TIP3   OH229809   4.752   3.068   7.454  0.4955  0.0345  0.0844
 2725TIP3    H129810   4.831   3.014   7.455  0.5592  0.1379  0.6443
 2725TIP3    H229811   4.687   3.014   7.408  1.3079  0.5636 -1.7684
 2726TIP3   OH229812   6.490   5.976   7.056 -0.1198 -0.0859 -0.2078
 2726TIP3    H129813   6.429   5.988   6.983 -0.3748 -2.2153 -0.3918
 2726TIP3    H229814   6.522   5.887   7.046  1.3207  0.2296  1.2041
 2727TIP3   OH229815   4.491   1.096   8.174  0.0095 -0.3837 -0.6240
 2727TIP3    H129816   4.562   1.058   8.123  0.5334  0.0095 -0.2020
 2727TIP3    H229817   4.439   1.146   8.111 -2.6421 -4.3032 -1.9286
 2728TIP3   OH229818   1.273   2.429   7.855 -0.3110 -0.1127  0.2889
 2728TIP3    H129819   1.204   2.377   7.813  0.1450 -0.1734 -0.4070
 2728TIP3    H229820   1.272   2.512   7.807 -0.1726  0.0383  0.5455
 2729TIP3   OH229821   2.546   1.506   7.983 -0.4899  0.0821 -0.4425
 2729TIP3    H129822   2.635   1.485   7.953 -0.9424 -0.6389 -1.3366
 2729TIP3    H229823   2.546   1.483   8.076 -0.0660 -1.0424 -0.7029
 2730TIP3   OH229824   2.685   6.769   1.818 -0.0990 -0.1423  0.0804
 2730TIP3    H129825   2.669   6.739   1.908 -1.5085 -0.8787 -0.3948
 2730TIP3    H229826   2.758   6.715   1.788 -0.5754 -0.9370  0.3026
 2731TIP3   OH229827   2.606   1.952   6.949 -0.4113  0.1376  0.3305
 2731TIP3    H129828   2.520   1.966   6.911 -0.4028  0.0079  0.2596
 2731TIP3    H229829   2.625   1.859   6.932  1.2301  0.9202 -2.7729
 2732TIP3   OH229830   5.874   0.063   7.793  0.6472  0.1245  0.5154
 2732TIP3    H129831   5.812   0.135   7.801  0.1150 -0.4807  2.5200
 2732TIP3    H229832   5.882   0.048   7.699 -1.6357  0.7661  0.1541
 2733TIP3   OH229833   5.847   5.687   1.973 -0.0151  0.0037 -0.0279
 2733TIP3    H129834   5.879   5.632   1.901  2.6325 -1.2897  1.9331
 2733TIP3    H229835   5.899   5.767   1.967  0.2035 -0.1009  0.4120
 2734TIP3   OH229836   0.765   1.437   8.400  0.0350 -0.2805 -0.1701
 2734TIP3    H129837   0.836   1.501   8.402 -1.2162  1.1860  1.1125
 2734TIP3    H229838   0.707   1.469   8.330 -1.4241  1.0518  1.5458
 2735TIP3   OH229839   4.623   5.590   8.360  0.0363  0.1263  0.1930
 2735TIP3    H129840   4.590   5.673   8.325  1.3347  1.2187  1.3868
 2735TIP3    H229841   4.715   5.590   8.336  0.0116 -1.0650  0.0830
 2736TIP3   OH229842   6.087   3.348   0.985 -0.2501  0.0859  0.4892
 2736TIP3    H129843   6.107   3.325   1.076  0.1135 -3.1492 -0.2787
 2736TIP3    H229844   5.998   3.315   0.970  0.1264 -0.4914 -0.6144
 2737TIP3   OH229845   4.995   2.342   1.947  0.0916 -0.1513 -0.8176
 2737TIP3    H129846   5.088   2.367   1.952  0.3563 -0.9173 -1.5996
 2737TIP3    H229847   4.966   2.337   2.038  0.4519  1.3834 -0.5905
 2738TIP3   OH229848   2.352   5.684   6.033 -0.2851  0.2005  0.3024
 2738TIP3    H129849   2.424   5.686   5.970 -1.5779 -0.6072 -1.2982
 2738TIP3    H229850   2.303   5.765   6.016 -1.4984 -0.7284 -0.8690
 2739TIP3   OH229851   4.106   6.425   0.626 -0.4975 -0.1113 -0.0513
 2739TIP3    H129852   4.167   6.484   0.672 -1.2088 -0.0354  0.8166
 2739TIP3    H229853   4.049   6.484   0.576 -1.6275  0.0055  1.3287
 2740TIP3   OH229854   4.506   4.680   0.056 -0.1390 -0.4833  0.3379
 2740TIP3    H129855   4.571   4.694  -0.013  3.0045  3.2448  3.5541
 2740TIP3    H229856   4.445   4.753   0.047 -1.0878 -1.2581  0.2579
 2741TIP3   OH229857   2.584   5.246   1.869 -0.1703 -0.4417  0.4196
 2741TIP3    H129858   2.496   5.245   1.907 -1.1051 -0.8137 -1.6008
 2741TIP3    H229859   2.596   5.157   1.834  0.9838 -0.3710  0.5861
 2742TIP3   OH229860   4.491   3.569   0.191 -0.0649  0.4101 -0.2078
 2742TIP3    H129861   4.514   3.556   0.098 -0.4711 -0.8384 -0.1564
 2742TIP3    H229862   4.455   3.657   0.195  1.8707  1.2727 -0.8479
 2743TIP3   OH229863   5.806   2.022   1.199 -0.2045 -0.3671  0.4427
 2743TIP3    H129864   5.808   2.035   1.105  1.4268  0.0408  0.5099
 2743TIP3    H229865   5.764   2.101   1.234  0.2576  0.0258  0.1243
 2744TIP3   OH229866   5.519   2.132   8.199 -0.0481  0.3125  0.5119
 2744TIP3    H129867   5.604   2.134   8.157 -0.2738  0.1316  0.0378
 2744TIP3    H229868   5.535   2.163   8.288  0.6688 -0.6051  0.7069
 2745TIP3   OH229869   6.751   0.051   1.536  0.1055 -0.4761  0.7140
 2745TIP3    H129870   6.816   0.121   1.542 -0.3454  0.0794 -0.5702
 2745TIP3    H229871   6.680   0.088   1.484 -0.3169 -1.7635  0.3284
 2746TIP3   OH229872   6.361   2.462   2.355 -0.1739 -0.5362  0.2535
 2746TIP3    H129873   6.301   2.509   2.413  2.9692  1.3471  2.2592
 2746TIP3    H229874   6.387   2.385   2.405 -0.0244 -0.7270 -0.1155
 2747TIP3   OH229875   4.393   6.787   1.496  0.2884  0.2212  0.1451
 2747TIP3    H129876   4.316   6.731   1.496 -1.5294  2.5500 -1.3404
 2747TIP3    H229877   4.395   6.825   1.584 -1.7533  1.9273 -0.4645
 2748TIP3   OH229878   0.566   4.607   1.403 -0.0477 -0.4731 -0.0726
 2748TIP3    H129879   0.619   4.560   1.467  1.0894  0.9482  0.0839
 2748TIP3    H229880   0.506   4.659   1.456 -1.2750 -1.6630 -0.2450
 2749TIP3   OH229881   4.285   5.577   1.868 -0.2461  0.3784 -0.0076
 2749TIP3    H129882   4.376   5.590   1.844 -0.3340  0.4435 -0.3080
 2749TIP3    H229883   4.286   5.568   1.964  0.0564  0.5199  0.0018
 2750TIP3   OH229884   6.141   6.218   8.331 -0.1484  0.8268 -0.4211
 2750TIP3    H129885   6.189   6.288   8.286  1.3430 -0.6577 -1.2332
 2750TIP3    H229886   6.116   6.257   8.415  1.6299  2.0087 -0.3850
 2751TIP3   OH229887   5.778   1.734   0.493 -0.1007  0.0291  0.6719
 2751TIP3    H129888   5.693   1.743   0.536  0.2312 -2.6104  2.0898
 2751TIP3    H229889   5.807   1.645   0.514  2.6045  0.4973 -0.5518
 2752TIP3   OH229890   1.430   5.062   7.645 -0.8738  0.1878  0.2902
 2752TIP3    H129891   1.352   5.065   7.590 -0.7231 -1.4447 -0.0720
 2752TIP3    H229892   1.438   5.150   7.681 -0.4046  1.7100 -3.0960
 2753TIP3   OH229893   1.058   2.763   7.153  0.2435 -0.7126  0.1260
 2753TIP3    H129894   1.003   2.797   7.084 -0.9034 -4.1897 -0.8693
 2753TIP3    H229895   1.140   2.739   7.109  1.4974  1.5466  1.0265
 2754TIP3   OH229896   5.821   5.479   7.172  0.2197 -0.3796  0.6533
 2754TIP3    H129897   5.764   5.445   7.103  0.8714 -0.6251  0.2233
 2754TIP3    H229898   5.831   5.572   7.152 -1.1769 -0.0145  1.5534
 2755TIP3   OH229899   6.224   4.178   1.790  0.0223 -0.1097 -0.2036
 2755TIP3    H129900   6.304   4.126   1.785  0.6218  0.8089 -0.4460
 2755TIP3    H229901   6.227   4.235   1.713 -1.0016 -0.2413 -0.3577
 2756TIP3   OH229902   5.524   2.336   0.379 -0.1311 -0.2076  0.8094
 2756TIP3    H129903   5.617   2.311   0.381 -0.0819 -0.0604  0.4886
 2756TIP3    H229904   5.515   2.385   0.297 -0.6457 -0.8196  0.4956
 2757TIP3   OH229905   6.221   6.205   0.134 -0.2979  0.4332 -0.4206
 2757TIP3    H129906   6.171   6.235   0.058  0.0975 -0.3687 -1.0085
 2757TIP3    H229907   6.249   6.116   0.111  0.1802  0.3350  0.4932
 2758TIP3   OH229908   0.427   0.837   8.130 -0.1717  0.5082  0.1780
 2758TIP3    H129909   0.408   0.863   8.220 -0.1822  1.3306 -0.0524
 2758TIP3    H229910   0.348   0.860   8.082 -0.6809 -1.1342  0.1705
 2759TIP3   OH229911   5.540   1.858   0.322  0.0566  0.2421  0.3199
 2759TIP3    H129912   5.617   1.876   0.268 -1.6123 -0.1475 -2.4012
 2759TIP3    H229913   5.511   1.944   0.352 -1.5005  1.1465 -3.2736
 2760TIP3   OH229914   3.596   4.485   1.679 -0.4708  0.2176 -0.1147
 2760TIP3    H129915   3.592   4.392   1.699  4.1397 -0.2050 -0.1603
 2760TIP3    H229916   3.631   4.526   1.758  0.3592  1.4320 -1.0717
 2761TIP3   OH229917   1.169   5.933   7.758  0.6618  0.4822  0.1151
 2761TIP3    H129918   1.084   5.915   7.719  0.7522  0.4364 -0.0590
 2761TIP3    H229919   1.156   6.016   7.805 -0.2378 -0.8357  2.3543
 2762TIP3   OH229920   3.971   2.239   7.399  0.4848 -0.8971 -0.2549
 2762TIP3    H129921   3.995   2.148   7.417 -0.8817 -1.3124 -0.3691
 2762TIP3    H229922   3.925   2.234   7.315 -1.6187 -0.4963  0.7926
 2763TIP3   OH229923   4.045   5.983   0.628 -0.1867  0.2895 -0.3979
 2763TIP3    H129924   4.098   5.907   0.647 -0.4301 -0.4252 -2.3369
 2763TIP3    H229925   4.104   6.044   0.584 -0.1362  1.0102  0.6215
 2764TIP3   OH229926   5.426   4.063   8.134  0.0316 -0.1986 -0.0820
 2764TIP3    H129927   5.334   4.080   8.111  0.4723  0.5450 -1.3601
 2764TIP3    H229928   5.431   3.968   8.140 -0.3566 -0.3935 -2.1340
 2765TIP3   OH229929   3.406   5.417   0.662  0.2661  0.1835  0.6926
 2765TIP3    H129930   3.383   5.481   0.730  1.2854  0.6318  0.6451
 2765TIP3    H229931   3.500   5.400   0.676 -0.0640 -1.6149  0.9542
 2766TIP3   OH229932   6.489   1.570   7.514 -0.3449 -0.2708 -0.1801
 2766TIP3    H129933   6.450   1.494   7.558  1.2391 -0.6212  0.6909
 2766TIP3    H229934   6.464   1.644   7.568  0.6599 -0.5674  0.7264
 2767TIP3   OH229935   1.204   0.790   1.549  0.1965  0.4867  0.0252
 2767TIP3    H129936   1.202   0.787   1.453  0.0996 -0.9482  0.0595
 2767TIP3    H229937   1.112   0.793   1.574  0.0397 -2.4465  0.1121
 2768TIP3   OH229938   1.731   6.253   1.007  0.0152 -0.0752 -0.0093
 2768TIP3    H129939   1.735   6.347   1.021 -2.0606 -0.1723  1.6789
 2768TIP3    H229940   1.746   6.242   0.913 -1.2040  2.0679 -0.5079
 2769TIP3   OH229941   2.964   6.005   1.345  0.4240  0.0491 -0.2651
 2769TIP3    H129942   2.870   5.994   1.350  0.3359  0.7975 -0.1563
 2769TIP3    H229943   3.000   5.921   1.374 -0.1761  0.4362  1.7336
 2770TIP3   OH229944   2.747   6.430   6.827  0.6201  0.0618 -0.3335
 2770TIP3    H129945   2.749   6.335   6.836 -0.9073 -0.0260 -0.5728
 2770TIP3    H229946   2.765   6.447   6.735 -1.1153 -0.1620 -0.7575
 2771TIP3   OH229947   3.021   4.475   8.122 -0.6998  0.1618  0.1157
 2771TIP3    H129948   2.999   4.426   8.043  1.0460  1.1284 -1.0132
 2771TIP3    H229949   3.023   4.567   8.094  0.3531  0.4877  1.1735
 2772TIP3   OH229950   6.926   4.361   0.421 -0.4548 -0.3537  0.5730
 2772TIP3    H129951   6.905   4.269   0.409 -1.5544 -0.2857  1.7506
 2772TIP3    H229952   6.865   4.408   0.364 -0.3523 -0.3372  0.4779
 2773TIP3   OH229953   1.883   2.332   0.551 -0.5122 -0.3375 -0.1672
 2773TIP3    H129954   1.883   2.260   0.488 -2.1948 -1.5846  1.1513
 2773TIP3    H229955   1.791   2.343   0.575 -0.0214  0.5765  1.5043
 2774TIP3   OH229956   6.491   5.357   8.574 -0.3067 -0.3094  0.0155
 2774TIP3    H129957   6.424   5.318   8.519 -0.9177  2.0100 -1.0208
 2774TIP3    H229958   6.516   5.437   8.528  1.8853 -0.1781  1.2823
 2775TIP3   OH229959   2.863   0.004   6.221  0.0830 -0.3812  0.2492
 2775TIP3    H129960   2.907  -0.059   6.278  1.7267  0.1619 -0.3694
 2775TIP3    H229961   2.839  -0.046   6.143 -1.4635 -0.9380  1.0312
 2776TIP3   OH229962   1.916   4.945   0.807 -0.5245 -0.5378  0.1231
 2776TIP3    H129963   1.841   4.935   0.748  0.7667 -0.1013 -1.6774
 2776TIP3    H229964   1.923   4.860   0.851 -1.6005 -0.8380 -0.2505
 2777TIP3   OH229965   6.177   2.435   6.386 -0.1313  0.0432  0.1309
 2777TIP3    H129966   6.227   2.510   6.416  0.9581  0.2945 -2.0931
 2777TIP3    H229967   6.087   2.454   6.411  0.3525  1.3226  0.9990
 2778TIP3   OH229968   5.929   4.116   0.012 -0.6279  0.3009 -0.1916
 2778TIP3    H129969   5.990   4.104  -0.061 -0.3170  0.1121  0.0971
 2778TIP3    H229970   5.874   4.038   0.011 -1.8059  1.1119 -1.3294
 2779TIP3   OH229971   1.939   1.989   1.964  0.2121 -0.0787 -0.1349
 2779TIP3    H129972   1.846   1.969   1.956  0.1326 -0.1692  0.8683
 2779TIP3    H229973   1.944   2.084   1.963  0.0011 -0.0477  0.7086
 2780TIP3   OH229974   1.931   0.394   2.190 -0.2327  0.1310  0.0843
 2780TIP3    H129975   1.894   0.365   2.273 -0.7004  0.6249  0.0557
 2780TIP3    H229976   1.923   0.318   2.133  0.7292 -0.4376  0.6837
 2781TIP3   OH229977   2.159   5.958   1.296 -0.1531  0.0504  0.8616
 2781TIP3    H129978   2.234   6.017   1.289  0.6110 -0.8828  0.9665
 2781TIP3    H229979   2.084   6.015   1.313  0.5245  0.9991  0.6963
 2782TIP3   OH229980   0.097   5.875   2.174  0.8518 -0.4061 -0.4366
 2782TIP3    H129981   0.043   5.827   2.235  1.2361  1.2841  1.3289
 2782TIP3    H229982   0.041   5.946   2.142  1.4996  0.4016  0.1719
 2783TIP3   OH229983   6.468   3.026   1.506  0.1855  0.1027 -0.3330
 2783TIP3    H129984   6.546   3.051   1.456  0.6327 -1.8590 -0.7128
 2783TIP3    H229985   6.452   2.935   1.481  0.8210 -1.2355  3.5156
 2784TIP3   OH229986   0.497   2.394   0.084  0.1244 -0.3462 -0.2947
 2784TIP3    H129987   0.472   2.449   0.010 -3.1159 -0.9771  0.1562
 2784TIP3    H229988   0.528   2.313   0.044 -0.7284 -0.3346 -1.0199
 2785TIP3   OH229989   3.331   3.550   0.210 -0.4850 -0.5762  0.3712
 2785TIP3    H129990   3.360   3.467   0.172  0.6901  0.6937 -1.6979
 2785TIP3    H229991   3.241   3.534   0.238 -1.0942 -1.9595 -2.0703
 2786TIP3   OH229992   6.384   2.470   0.630  0.4289  0.2351 -0.4364
 2786TIP3    H129993   6.455   2.415   0.599  1.3894  0.9871  0.3790
 2786TIP3    H229994   6.404   2.488   0.722  1.5185  3.8816 -1.2027
 2787TIP3   OH229995   0.071   6.929   8.008  0.6415  0.3478 -0.0875
 2787TIP3    H129996   0.013   6.996   7.972 -1.3540 -0.6653  1.0912
 2787TIP3    H229997   0.112   6.972   8.083  1.4505  1.0599 -0.9105
 2788TIP3   OH229998   6.680   2.780   0.594  0.0908 -0.9544 -0.2793
 2788TIP3    H129999   6.671   2.873   0.577  0.6292 -1.2021 -2.2898
 2788TIP3    H230000   6.756   2.773   0.652 -0.4787 -0.1062  0.5814
 2789TIP3   OH230001   6.035   3.288   8.114 -0.3361  0.3380 -0.1232
 2789TIP3    H130002   5.981   3.233   8.058 -1.0316 -0.6649  1.4783
 2789TIP3    H230003   6.067   3.230   8.183  2.2617  1.0441 -0.6016
 2790TIP3   OH230004   3.227   5.032   1.051  0.0338  0.2411 -0.5694
 2790TIP3    H130005   3.311   5.015   1.009 -0.9753 -2.2843 -1.7774
 2790TIP3    H230006   3.209   4.955   1.104 -0.5526  1.6958  1.4681
 2791TIP3   OH230007   1.676   6.882   7.754  0.6164 -0.2781  0.1517
 2791TIP3    H130008   1.664   6.796   7.794 -0.4300 -0.9094 -1.4332
 2791TIP3    H230009   1.730   6.865   7.677  2.2044  0.8377  0.9683
 2792TIP3   OH230010   0.321   2.700   7.100  0.4754  0.1041  0.0785
 2792TIP3    H130011   0.375   2.673   7.026  0.6769  0.1108  0.2236
 2792TIP3    H230012   0.370   2.673   7.178 -1.3131 -3.2698  0.2770
 2793TIP3   OH230013   4.072   2.814   8.126 -0.1468  0.5627 -0.1541
 2793TIP3    H130014   4.031   2.813   8.213 -0.1852  1.7225 -0.1449
 2793TIP3    H230015   4.006   2.779   8.067 -0.3383  0.3328  0.1961
 2794TIP3   OH230016   5.825   4.273   1.775 -0.2218 -0.4189 -1.2016
 2794TIP3    H130017   5.878   4.240   1.702  0.7889 -0.3029 -0.5431
 2794TIP3    H230018   5.860   4.227   1.852 -1.7841 -1.1328 -0.8707
 2795TIP3   OH230019   2.356   0.551   0.343 -0.2788 -0.0359 -0.5016
 2795TIP3    H130020   2.333   0.460   0.362 -4.3641  0.9609  0.2043
 2795TIP3    H230021   2.450   0.549   0.328  0.0508 -4.1212  0.9059
 2796TIP3   OH230022   2.045   5.700   2.030  0.4862  0.7104 -0.4014
 2796TIP3    H130023   2.025   5.752   2.108  2.2524  1.1151 -0.1778
 2796TIP3    H230024   1.993   5.619   2.042  0.3861  0.9405  0.9698
 2797TIP3   OH230025   4.714   4.168   6.858 -0.1482 -0.6158  0.1957
 2797TIP3    H130026   4.792   4.114   6.857 -0.0772 -0.5644  1.3998
 2797TIP3    H230027   4.660   4.132   6.929 -0.0209  0.9561  1.1588
 2798TIP3   OH230028   5.333   3.882   0.682 -0.1792  0.3350 -0.2881
 2798TIP3    H130029   5.271   3.951   0.660 -0.4320 -0.4041 -2.0921
 2798TIP3    H230030   5.415   3.928   0.699 -0.2476  1.0812 -1.8237
 2799TIP3   OH230031   2.954   3.942   6.861 -0.1979  0.3904  0.8544
 2799TIP3    H130032   2.880   3.999   6.838  0.1662  1.5535  2.4155
 2799TIP3    H230033   2.917   3.880   6.924  0.0764  0.7798  1.4028
 2800TIP3   OH230034   0.419   1.320   1.552 -0.0190 -0.1847  0.1070
 2800TIP3    H130035   0.482   1.252   1.531  1.3288  0.4275  1.8704
 2800TIP3    H230036   0.405   1.312   1.647 -1.2538  0.8091  0.0433
 2801TIP3   OH230037   3.885   2.391   6.809 -0.3326 -0.1021  0.4736
 2801TIP3    H130038   3.809   2.341   6.836  0.7689 -1.0061  2.0524
 2801TIP3    H230039   3.946   2.325   6.774 -0.1575  0.5689 -0.5291
 2802TIP3   OH230040   3.595   2.866   8.153 -0.1610  0.4042 -0.0209
 2802TIP3    H130041   3.626   2.835   8.068 -1.8231 -2.2767  0.2219
 2802TIP3    H230042   3.662   2.927   8.183  1.3350  0.0782 -2.4407
 2803TIP3   OH230043   2.963   0.137   6.552  0.0592  0.3802  0.2563
 2803TIP3    H130044   2.920   0.135   6.638  0.5971  0.0866  0.5286
 2803TIP3    H230045   2.981   0.045   6.532 -0.2546  0.4319 -0.2751
 2804TIP3   OH230046   1.883   6.337   6.884  0.1130  0.7857  0.2159
 2804TIP3    H130047   1.935   6.412   6.910  0.0658  1.5752 -1.8378
 2804TIP3    H230048   1.934   6.294   6.816 -1.0235  0.4275 -0.4333
 2805TIP3   OH230049   5.015   4.328   7.232  0.1507  0.0174 -0.0162
 2805TIP3    H130050   4.961   4.276   7.292  2.1927  1.1601  3.0694
 2805TIP3    H230051   5.030   4.270   7.157 -1.2382 -2.1566  1.2741
 2806TIP3   OH230052   2.155   2.940   0.600  0.0409 -0.4322  0.2094
 2806TIP3    H130053   2.201   2.975   0.677  1.4351  0.8761 -1.1507
 2806TIP3    H230054   2.225   2.923   0.537 -1.3058  1.8299 -2.0386
 2807TIP3   OH230055   5.125   3.948   7.874 -0.0283 -0.2692  0.4534
 2807TIP3    H130056   5.209   3.903   7.859  0.6551  0.4248  1.9713
 2807TIP3    H230057   5.124   4.018   7.808  0.4186 -0.5102  0.1824
 2808TIP3   OH230058   5.714   2.675   7.947 -0.3543  0.1910  0.0976
 2808TIP3    H130059   5.729   2.593   7.995  1.5644  0.1469 -0.4877
 2808TIP3    H230060   5.752   2.743   8.003  1.7825  0.1546 -1.2213
 2809TIP3   OH230061   6.019   4.073   7.317 -0.1612  0.5317  0.5645
 2809TIP3    H130062   6.066   4.002   7.275  2.5889  3.1811 -1.2575
 2809TIP3    H230063   6.033   4.060   7.411  0.9056 -0.8662  0.2401
 2810TIP3   OH230064   3.234   0.290   6.199  0.5476 -0.0900 -0.1284
 2810TIP3    H130065   3.252   0.311   6.107  0.1478 -0.4435 -0.2923
 2810TIP3    H230066   3.138   0.280   6.202  0.3726  1.4618  0.6455
 2811TIP3   OH230067   5.837   6.293   7.106 -0.6169  0.6394 -0.1649
 2811TIP3    H130068   5.931   6.298   7.091 -0.4414 -1.9239 -0.2947
 2811TIP3    H230069   5.807   6.220   7.052 -2.6353  1.1490  0.1611
 2812TIP3   OH230070   1.933   2.575   0.719  0.3241 -0.4199 -0.2353
 2812TIP3    H130071   2.016   2.611   0.750  0.2549 -0.1153 -0.4092
 2812TIP3    H230072   1.954   2.484   0.697  0.6463 -0.2972 -0.4321
 2813TIP3   OH230073   3.448   4.939   6.677 -0.4187  0.0273 -0.0641
 2813TIP3    H130074   3.399   4.948   6.759  0.4325  0.9296  0.3594
 2813TIP3    H230075   3.428   4.850   6.647 -1.4036 -0.0198  0.6810
 2814TIP3   OH230076   5.128   0.348   6.728  0.0150  0.1674 -0.4417
 2814TIP3    H130077   5.071   0.343   6.652 -1.8599  0.3139  0.8740
 2814TIP3    H230078   5.072   0.382   6.798  0.8044 -2.5729  1.7455
 2815TIP3   OH230079   0.499   5.647   8.480 -0.0725  0.0641  0.1303
 2815TIP3    H130080   0.531   5.595   8.406 -0.6815 -0.1847  0.0385
 2815TIP3    H230081   0.577   5.661   8.534 -0.1559 -2.4798  1.0867
 2816TIP3   OH230082   2.699   6.837   5.967  0.2700  0.3744  0.1789
 2816TIP3    H130083   2.646   6.791   5.902  0.0857  1.4232 -0.4469
 2816TIP3    H230084   2.652   6.826   6.049 -0.1238  0.0160 -0.0905
 2817TIP3   OH230085   5.467   4.733   7.862  0.1252  0.5259  0.7793
 2817TIP3    H130086   5.429   4.803   7.808  0.2187 -1.3571 -1.9339
 2817TIP3    H230087   5.556   4.762   7.879  0.3271  0.8934 -0.7427
 2818TIP3   OH230088   1.950   3.872   7.953 -0.1156  0.5586  0.4693
 2818TIP3    H130089   1.881   3.929   7.987 -0.9290  0.0398 -0.2635
 2818TIP3    H230090   1.907   3.787   7.939 -0.2039  1.0199 -2.9479
 2819TIP3   OH230091   4.118   0.685   8.479  0.0720  0.3087  0.4689
 2819TIP3    H130092   4.167   0.739   8.417 -1.8005  1.6954  0.1137
 2819TIP3    H230093   4.035   0.668   8.435 -0.3760 -0.7019  1.6553
 2820TIP3   OH230094   0.880   4.666   1.541  0.5124  0.2413 -0.1319
 2820TIP3    H130095   0.928   4.658   1.459 -1.7763 -1.7358 -1.3787
 2820TIP3    H230096   0.877   4.577   1.576 -0.5538  0.6670  0.9018
 2821TIP3   OH230097   4.478   3.295   8.029 -0.0842  0.2604  0.3271
 2821TIP3    H130098   4.513   3.234   7.964  0.0459  0.7952 -0.1002
 2821TIP3    H230099   4.447   3.370   7.979 -1.1493  0.1399  0.7662
 2822TIP3   OH230100   4.319   4.970   0.410  0.3541 -0.7219 -0.0247
 2822TIP3    H130101   4.357   5.054   0.437 -1.0875  0.4770 -1.4913
 2822TIP3    H230102   4.301   4.981   0.316 -1.5201 -2.0014  0.1300
 2823TIP3   OH230103   0.170   2.035   8.449 -0.1810  0.3978 -0.5353
 2823TIP3    H130104   0.235   1.987   8.500  0.6716  1.8705 -0.1735
 2823TIP3    H230105   0.199   2.026   8.358 -0.6972 -0.7275 -0.6063
 2824TIP3   OH230106   6.332   1.030   1.560  0.1455 -0.2011  0.0312
 2824TIP3    H130107   6.264   1.092   1.533 -2.0786 -2.1175  0.9231
 2824TIP3    H230108   6.370   1.070   1.638 -1.3797 -0.0062  0.7116
 2825TIP3   OH230109   6.019   1.019   8.385 -0.4793 -0.2108 -0.2126
 2825TIP3    H130110   5.952   1.010   8.318 -1.8573  0.8149  0.9702
 2825TIP3    H230111   6.039   1.113   8.386  0.6300 -0.4346 -0.2061
 2826TIP3   OH230112   5.045   1.688   7.953 -0.3043 -0.2312 -0.1294
 2826TIP3    H130113   5.037   1.762   7.893  0.6109 -0.5422 -0.6564
 2826TIP3    H230114   5.001   1.616   7.909 -1.0857 -0.0368  0.3275
 2827TIP3   OH230115   2.061   3.575   7.527 -0.5115 -0.5490  0.0057
 2827TIP3    H130116   2.070   3.532   7.612 -0.8133  1.3660  1.0520
 2827TIP3    H230117   1.985   3.631   7.536  0.7738  1.4238 -0.7170
 2828TIP3   OH230118   5.684   4.269   7.025  0.6245  0.0471 -0.1743
 2828TIP3    H130119   5.768   4.227   7.044  0.5793 -0.0214 -0.1244
 2828TIP3    H230120   5.707   4.347   6.974  0.6854 -0.2485 -0.6111
 2829TIP3   OH230121   2.118   3.830   1.870  0.2007 -0.1311  0.1947
 2829TIP3    H130122   2.158   3.745   1.885 -0.0890 -0.1450  0.9069
 2829TIP3    H230123   2.052   3.838   1.939  1.3327  1.3787  1.1396
 2830TIP3   OH230124   2.378   3.282   0.828  0.3647 -0.3224 -1.0238
 2830TIP3    H130125   2.422   3.323   0.902  0.1837 -1.2006 -0.4099
 2830TIP3    H230126   2.439   3.290   0.755  1.0348 -0.4651 -0.4840
 2831TIP3   OH230127   3.155   3.165   8.141 -0.1812  0.1686 -0.1758
 2831TIP3    H130128   3.233   3.111   8.153 -0.1355  0.1544 -0.5262
 2831TIP3    H230129   3.170   3.241   8.197 -1.1264 -1.0717  1.8991
 2832TIP3   OH230130   6.322   5.296   1.077 -0.0107  0.4684 -0.2573
 2832TIP3    H130131   6.409   5.311   1.114  0.2278 -2.7416  0.8048
 2832TIP3    H230132   6.262   5.304   1.151 -0.2694  0.0259 -0.4112
 2833TIP3   OH230133   3.334   1.776   1.092  0.6505  0.0561 -0.1443
 2833TIP3    H130134   3.324   1.856   1.040  3.2741  2.3503  2.5467
 2833TIP3    H230135   3.404   1.728   1.047  1.3966  0.9632 -0.0033
 2834TIP3   OH230136   6.823   2.653   6.445  0.2641  0.4139  0.0682
 2834TIP3    H130137   6.753   2.667   6.509 -1.1753  1.5681 -1.6613
 2834TIP3    H230138   6.821   2.559   6.428 -1.9479  0.5994 -1.0228
 2835TIP3   OH230139   4.514   0.761   7.019 -0.6797  0.1313  0.0232
 2835TIP3    H130140   4.563   0.681   7.041 -0.5533  0.1195 -0.2962
 2835TIP3    H230141   4.457   0.775   7.095  1.4680  1.4638  1.5050
 2836TIP3   OH230142   0.848   4.559   0.971  0.0104  0.3004  0.3746
 2836TIP3    H130143   0.816   4.567   1.061  1.0326 -2.2405  1.0324
 2836TIP3    H230144   0.932   4.514   0.979 -0.2548 -0.7252 -1.8922
 2837TIP3   OH230145   1.671   5.461   0.501  0.1126  0.3351  0.1845
 2837TIP3    H130146   1.701   5.551   0.513 -0.8299  0.7420 -0.3765
 2837TIP3    H230147   1.610   5.466   0.427  0.1273 -0.7821  0.0842
 2838TIP3   OH230148   0.256   5.228   1.489 -0.1568  0.1003 -0.6594
 2838TIP3    H130149   0.244   5.322   1.504 -0.5511  0.3442 -2.2985
 2838TIP3    H230150   0.207   5.210   1.409  0.0439 -1.4816 -0.4584
 2839TIP3   OH230151   4.206   5.849   1.430  0.0721  0.5195  0.4443
 2839TIP3    H130152   4.111   5.861   1.419 -0.1440 -1.3294 -0.1734
 2839TIP3    H230153   4.245   5.917   1.376 -0.9264  0.7061 -0.0745
 2840TIP3   OH230154   3.168   6.265   0.355 -0.5714  0.0690  0.3431
 2840TIP3    H130155   3.119   6.345   0.378  1.1042  1.5648 -0.9943
 2840TIP3    H230156   3.138   6.243   0.267  1.4708  1.3821 -0.7678
 2841TIP3   OH230157   6.355   4.080   8.276 -0.0363 -0.4175  0.1200
 2841TIP3    H130158   6.393   4.135   8.208 -0.7988  0.4737  0.3841
 2841TIP3    H230159   6.413   4.005   8.282  0.2254 -0.3549 -1.2782
 2842TIP3   OH230160   3.439   4.646   8.611  0.2377 -0.3568 -0.6238
 2842TIP3    H130161   3.524   4.625   8.570 -0.4105 -1.7785 -1.3232
 2842TIP3    H230162   3.397   4.561   8.622 -0.8335  0.2804  0.3309
 2843TIP3   OH230163   4.793   5.089   1.659  0.0941 -0.3584 -0.4307
 2843TIP3    H130164   4.744   5.162   1.699  0.7325 -0.6916  1.0134
 2843TIP3    H230165   4.732   5.015   1.663  0.9850 -1.0382  2.3087
 2844TIP3   OH230166   0.355   6.826   0.329  0.6854  0.2248  1.0991
 2844TIP3    H130167   0.267   6.862   0.323  0.9257  0.6069 -0.7434
 2844TIP3    H230168   0.412   6.903   0.325  1.1541 -0.1914 -0.8842
 2845TIP3   OH230169   1.266   0.869   8.315  0.5676 -0.4592 -0.1762
 2845TIP3    H130170   1.179   0.907   8.320 -0.0705 -1.9865  0.8143
 2845TIP3    H230171   1.325   0.940   8.342 -0.4024  0.4094 -0.2951
 2846TIP3   OH230172   0.709   1.004   8.502 -0.1973  0.0491 -0.1606
 2846TIP3    H130173   0.628   1.032   8.546  0.1920  0.4204  0.3382
 2846TIP3    H230174   0.680   0.942   8.436 -0.8946  0.1737  0.0156
 2847TIP3   OH230175   5.850   6.622   2.466  0.6971 -0.0554  0.8048
 2847TIP3    H130176   5.758   6.595   2.473  0.1015  1.9899  1.9465
 2847TIP3    H230177   5.849   6.692   2.400  1.8850 -1.5609 -0.8869
 2848TIP3   OH230178   0.306   6.134   0.132 -0.2357 -0.1278 -0.0535
 2848TIP3    H130179   0.371   6.161   0.068 -0.7620 -1.8033 -1.3796
 2848TIP3    H230180   0.347   6.061   0.178 -0.7734 -0.5423 -0.2147
 2849TIP3   OH230181   6.418   5.768   6.281 -0.6488 -0.7515  0.5468
 2849TIP3    H130182   6.467   5.716   6.344  1.3054  0.0593 -0.2228
 2849TIP3    H230183   6.351   5.708   6.248  0.4661 -2.2673  0.8981
 2850TIP3   OH230184   2.877   1.287   1.782  0.2572  0.1510 -0.0462
 2850TIP3    H130185   2.893   1.325   1.869  2.1436  0.8423 -0.6481
 2850TIP3    H230186   2.827   1.208   1.799  0.2265  0.4990  1.6384
 2851TIP3   OH230187   1.195   0.178   2.513 -0.3276 -0.2113  0.5100
 2851TIP3    H130188   1.265   0.152   2.453 -1.0082 -2.4014  0.5878
 2851TIP3    H230189   1.200   0.116   2.585 -1.5424  0.3862  1.1412
 2852TIP3   OH230190   3.325   6.040   6.136 -0.0317 -0.4272  0.5142
 2852TIP3    H130191   3.340   6.118   6.082 -0.8007  1.2751  2.6363
 2852TIP3    H230192   3.388   5.976   6.103  1.5505  1.5194 -0.4436
 2853TIP3   OH230193   1.264   0.527   7.286 -0.2081  0.3726 -0.7069
 2853TIP3    H130194   1.336   0.559   7.232  0.0754 -1.1215 -1.2699
 2853TIP3    H230195   1.185   0.553   7.239  0.0120  0.3314 -1.1020
 2854TIP3   OH230196   2.917   6.173   2.057 -0.1216 -0.4062 -0.1130
 2854TIP3    H130197   2.941   6.266   2.058  0.1402 -0.4699 -0.5757
 2854TIP3    H230198   2.907   6.151   2.150  0.9773 -0.2110  0.0700
 2855TIP3   OH230199   6.333   6.775   7.221 -0.1617 -0.6662 -0.0631
 2855TIP3    H130200   6.333   6.719   7.144 -2.4379  0.1387 -0.7328
 2855TIP3    H230201   6.401   6.840   7.204  1.6274 -2.3936  0.1568
 2856TIP3   OH230202   4.095   1.744   6.671 -0.9487  0.4654  0.3633
 2856TIP3    H130203   4.077   1.674   6.733 -0.6542  2.2273  2.5736
 2856TIP3    H230204   4.187   1.767   6.687 -1.0593  1.3932 -0.2689
 2857TIP3   OH230205   1.534   5.965   6.821  0.5321 -0.0057  0.0397
 2857TIP3    H130206   1.452   6.012   6.834  0.7234  0.2412  0.3796
 2857TIP3    H230207   1.575   5.965   6.908  1.2272  0.5248 -0.2769
 2858TIP3   OH230208   1.872   1.909   1.648 -0.1249 -0.0314  0.3154
 2858TIP3    H130209   1.893   2.002   1.657  0.7739  0.0781 -2.1130
 2858TIP3    H230210   1.779   1.906   1.629  0.1438  0.5594 -1.2296
 2859TIP3   OH230211   3.170   0.606   8.235 -0.2856 -0.0408  0.1905
 2859TIP3    H130212   3.195   0.514   8.238  3.3252  0.8144  0.8001
 2859TIP3    H230213   3.190   0.634   8.146 -2.6152 -0.0257 -0.4122
 2860TIP3   OH230214   3.440   6.347   0.172 -0.1349  0.0553  0.4727
 2860TIP3    H130215   3.501   6.294   0.224  0.1811  0.2975  0.3568
 2860TIP3    H230216   3.397   6.403   0.237  1.8974  2.0007  0.3129
 2861TIP3   OH230217   4.325   0.118   7.797  0.4086 -0.0387  0.0081
 2861TIP3    H130218   4.375   0.181   7.848  0.1770 -0.4869  0.8144
 2861TIP3    H230219   4.270   0.171   7.739  0.7050  0.4805  0.2006
 2862TIP3   OH230220   2.616   6.462   0.423  0.0547  0.1510  0.0128
 2862TIP3    H130221   2.594   6.552   0.445  1.7635  0.9528 -1.3761
 2862TIP3    H230222   2.678   6.435   0.490 -1.7857 -0.7007  1.4992
 2863TIP3   OH230223   5.210   3.526   7.804  0.4923 -0.6088  0.0662
 2863TIP3    H130224   5.189   3.522   7.710 -0.2683 -0.8661  0.2376
 2863TIP3    H230225   5.256   3.609   7.815  0.5727 -0.5667 -0.5328
 2864TIP3   OH230226   3.463   4.359   7.228  0.9876 -0.3117 -0.2872
 2864TIP3    H130227   3.372   4.371   7.255  0.3984  0.6069 -2.5114
 2864TIP3    H230228   3.511   4.426   7.277  0.1843  0.3915 -0.4345
 2865TIP3   OH230229   0.767   1.332   0.869 -0.5113  0.0210  0.3062
 2865TIP3    H130230   0.828   1.347   0.941 -0.4718  0.0116  0.2745
 2865TIP3    H230231   0.681   1.328   0.911 -0.4204 -0.6526  0.4373
 2866TIP3   OH230232   5.631   6.087   0.617  0.0038 -0.3125 -0.2194
 2866TIP3    H130233   5.689   6.011   0.613  0.6370  0.1966 -1.2023
 2866TIP3    H230234   5.681   6.152   0.667 -0.5082 -0.5040  0.5620
 2867TIP3   OH230235   3.990   5.881   2.088  0.4226 -0.2011  0.4488
 2867TIP3    H130236   4.031   5.795   2.078  0.4983 -0.6872  3.7965
 2867TIP3    H230237   3.929   5.871   2.161 -2.1076  1.7965 -1.1859
 2868TIP3   OH230238   0.591   4.698   8.622 -0.1123 -0.0346 -0.2475
 2868TIP3    H130239   0.656   4.635   8.655  0.0568  0.4886  0.4269
 2868TIP3    H230240   0.568   4.664   8.535 -0.3404 -1.2619  0.2659
 2869TIP3   OH230241   1.742   6.261   7.114  0.5220 -0.2559  0.6363
 2869TIP3    H130242   1.765   6.285   7.025 -0.2180  0.4345  0.6223
 2869TIP3    H230243   1.824   6.268   7.163  0.5138  1.6195  0.4748
 2870TIP3   OH230244   1.029   1.103   0.941 -0.5068  0.0799  0.3374
 2870TIP3    H130245   1.094   1.168   0.912  0.5914 -0.9115  0.4724
 2870TIP3    H230246   0.983   1.078   0.861 -1.5489  1.6300  0.4120
 2871TIP3   OH230247   3.262   1.103   7.695 -0.8114 -0.5248  0.2924
 2871TIP3    H130248   3.241   1.193   7.718  2.3166  0.2195  0.6939
 2871TIP3    H230249   3.304   1.109   7.609 -1.0697 -1.6942  0.0583
 2872TIP3   OH230250   3.829   0.890   7.456 -0.0176  0.1196 -0.2686
 2872TIP3    H130251   3.877   0.940   7.390 -0.5667  1.4294  0.2797
 2872TIP3    H230252   3.874   0.806   7.460  1.7686  1.0181 -0.3157
 2873TIP3   OH230253   1.564   2.602   7.751  0.0576 -0.2115  0.4417
 2873TIP3    H130254   1.532   2.653   7.677 -0.8051 -0.2795  0.7461
 2873TIP3    H230255   1.549   2.659   7.827  1.0587 -0.0850  0.5622
 2874TIP3   OH230256   0.723   2.285   1.628 -0.0353 -0.0105 -0.9253
 2874TIP3    H130257   0.654   2.305   1.566  0.3930  0.3655 -1.2849
 2874TIP3    H230258   0.678   2.241   1.701 -0.8510  1.4194 -0.5406
 2875TIP3   OH230259   5.800   2.181   1.738  0.0128 -0.5220  0.6649
 2875TIP3    H130260   5.785   2.206   1.830 -0.3504 -2.1833  1.0925
 2875TIP3    H230261   5.888   2.212   1.718 -0.3568  0.9460  1.1693
 2876TIP3   OH230262   0.704   1.598   0.551 -0.0760 -0.7235  0.4249
 2876TIP3    H130263   0.704   1.648   0.469  0.7103 -2.2231 -0.5379
 2876TIP3    H230264   0.770   1.641   0.605  0.2790 -0.4516 -0.2104
 2877TIP3   OH230265   3.703   5.423   0.609  0.1118  0.3195  0.0617
 2877TIP3    H130266   3.777   5.460   0.560 -0.6035  3.0162  0.8461
 2877TIP3    H230267   3.740   5.347   0.653  2.0493  0.7148 -0.7520
 2878TIP3   OH230268   0.282   1.167   8.122 -0.1096  0.2432 -0.2534
 2878TIP3    H130269   0.325   1.159   8.037  0.8908  0.3838  0.2234
 2878TIP3    H230270   0.220   1.093   8.124  2.4577 -2.0546  0.3431
 2879TIP3   OH230271   3.920   4.481   6.969 -0.0706 -0.1826  0.1806
 2879TIP3    H130272   3.948   4.535   7.043 -0.9927  0.3243  0.1663
 2879TIP3    H230273   3.884   4.543   6.906 -0.6434 -0.7555 -0.0649
 2880TIP3   OH230274   2.521   5.956   1.570  0.0005 -0.5209 -0.2513
 2880TIP3    H130275   2.439   5.950   1.618 -0.6809  1.0771 -1.1331
 2880TIP3    H230276   2.509   6.030   1.510  1.8492 -0.6444 -0.8587
 2881TIP3   OH230277   1.817   6.716   8.216  0.2289 -0.3168 -0.3527
 2881TIP3    H130278   1.758   6.730   8.291  1.4532 -1.2823  0.8334
 2881TIP3    H230279   1.870   6.796   8.213  0.0969 -0.2237 -0.2664
 2882TIP3   OH230280   3.485   0.265   8.096 -0.1570  0.6996 -0.3042
 2882TIP3    H130281   3.516   0.201   8.160 -0.5582  1.0372  0.2459
 2882TIP3    H230282   3.472   0.215   8.016 -1.2874 -0.0981  0.3397
 2883TIP3   OH230283   6.018   1.750   8.030 -0.2903  0.0051 -0.3664
 2883TIP3    H130284   6.086   1.713   7.973 -0.5452 -0.3471 -0.4448
 2883TIP3    H230285   5.938   1.704   8.004 -0.7160  0.9934 -0.8392
 2884TIP3   OH230286   4.071   0.177   1.528  0.8028  0.1178 -0.6317
 2884TIP3    H130287   4.011   0.199   1.456  0.0407 -2.4698 -0.8686
 2884TIP3    H230288   4.041   0.233   1.600 -0.0874  0.8955 -1.5560
 2885TIP3   OH230289   1.030   2.418   6.479  0.0445 -0.4697 -0.4992
 2885TIP3    H130290   1.088   2.389   6.408  0.2665 -0.7560 -0.2048
 2885TIP3    H230291   1.052   2.360   6.552  0.2336  0.2147 -0.0145
 2886TIP3   OH230292   0.196   4.821   7.611  0.1510 -0.3539  0.4271
 2886TIP3    H130293   0.235   4.831   7.697  0.2962 -0.6098  0.3934
 2886TIP3    H230294   0.127   4.755   7.623 -0.7750  0.6386  0.6436
 2887TIP3   OH230295   1.335   6.088   2.488  0.0531 -0.0644 -0.0755
 2887TIP3    H130296   1.411   6.144   2.474  0.3952 -0.6115 -0.4176
 2887TIP3    H230297   1.371   6.000   2.496 -0.5759 -0.3902 -0.7162
 2888TIP3   OH230298   2.520   5.005   1.304  0.0017 -0.4303 -0.2059
 2888TIP3    H130299   2.507   5.087   1.256 -0.3895 -0.8641 -0.8416
 2888TIP3    H230300   2.540   5.034   1.393 -0.7286  0.3439 -0.2773
 2889TIP3   OH230301   2.791   4.196   7.113 -0.0253 -0.3482 -0.7555
 2889TIP3    H130302   2.808   4.246   7.192  2.3997 -1.6215 -0.3901
 2889TIP3    H230303   2.696   4.204   7.100 -0.0699  2.2614  0.6006
 2890TIP3   OH230304   4.565   6.246   0.484 -0.2930 -0.2002  0.3709
 2890TIP3    H130305   4.588   6.300   0.408 -0.7504  0.1307  0.4652
 2890TIP3    H230306   4.512   6.304   0.539  0.0809 -0.4236  0.9675
 2891TIP3   OH230307   3.173   6.090   0.137 -0.2712 -0.3771 -0.4224
 2891TIP3    H130308   3.250   6.049   0.176  0.5872  0.3791 -1.2679
 2891TIP3    H230309   3.191   6.091   0.043 -1.1868  0.0624 -0.6070
 2892TIP3   OH230310   1.401   5.390   0.061  0.3156 -0.1975  0.2870
 2892TIP3    H130311   1.395   5.318  -0.003  2.0352  0.5760 -0.8070
 2892TIP3    H230312   1.328   5.448   0.038  0.1120 -0.5906 -0.0940
 2893TIP3   OH230313   4.912   2.965   7.059 -0.3120 -0.0673 -0.0943
 2893TIP3    H130314   4.881   2.941   7.147 -1.4789 -1.4061 -0.8248
 2893TIP3    H230315   5.004   2.937   7.058 -0.2018  0.2382  0.7906
 2894TIP3   OH230316   6.776   4.598   0.371  0.5902  0.9028 -0.4920
 2894TIP3    H130317   6.784   4.560   0.459 -0.7124 -0.8281 -1.0734
 2894TIP3    H230318   6.687   4.633   0.368  0.8777  1.6343 -0.8969
 2895TIP3   OH230319   1.718   4.080   1.243  0.1078 -0.3917 -0.4393
 2895TIP3    H130320   1.665   4.056   1.320 -0.8048  1.1805 -0.5337
 2895TIP3    H230321   1.654   4.117   1.182  1.2119  0.8935 -0.8500
 2896TIP3   OH230322   1.569   6.557   1.643  0.1969 -0.2438 -0.1802
 2896TIP3    H130323   1.525   6.596   1.718 -0.4099  1.7945 -1.5131
 2896TIP3    H230324   1.642   6.615   1.624 -0.6887  0.3234 -2.2005
 2897TIP3   OH230325   1.669   2.661   1.977  0.3883  0.1194 -0.3015
 2897TIP3    H130326   1.739   2.597   1.969 -0.3737 -0.9003  0.7883
 2897TIP3    H230327   1.686   2.707   2.059 -0.0877  0.0291 -0.1471
 2898TIP3   OH230328   3.903   2.195   1.848 -0.3077 -0.1095  0.4681
 2898TIP3    H130329   3.884   2.102   1.858  0.3373 -0.4723 -1.2074
 2898TIP3    H230330   3.825   2.240   1.881 -1.6400 -1.3258 -0.8668
 2899TIP3   OH230331   0.330   2.667   8.094 -0.2761  0.1965 -0.6745
 2899TIP3    H130332   0.329   2.761   8.077  0.1430  0.1395 -1.0108
 2899TIP3    H230333   0.328   2.627   8.008  1.6340 -0.0948 -0.6166
 2900TIP3   OH230334   5.847   1.468   0.466  0.2631  0.0193  0.0822
 2900TIP3    H130335   5.929   1.443   0.509  0.3338  0.1146  0.0049
 2900TIP3    H230336   5.779   1.435   0.524  0.3458 -0.8821 -0.3237
 2901TIP3   OH230337   0.036   6.743   7.557 -0.4892 -0.1778  0.3383
 2901TIP3    H130338   0.082   6.767   7.637  1.5010 -1.1218 -0.4669
 2901TIP3    H230339  -0.011   6.663   7.580  0.3010 -0.6025  0.5036
 2902TIP3   OH230340   4.147   4.416   7.627 -0.1988  0.0209 -0.6810
 2902TIP3    H130341   4.071   4.367   7.596 -0.4238 -0.3975  0.4610
 2902TIP3    H230342   4.124   4.441   7.717  1.0395 -0.1991 -0.2734
 2903TIP3   OH230343   0.588   0.391   0.995  0.4169  0.2223  0.0710
 2903TIP3    H130344   0.536   0.315   1.019 -0.3809  1.3518  2.1231
 2903TIP3    H230345   0.649   0.403   1.068 -0.6365  2.5473  0.6432
 2904TIP3   OH230346   3.865   4.587   2.174  0.2181  0.1334 -0.1774
 2904TIP3    H130347   3.931   4.540   2.224  2.5141  0.1479 -2.9426
 2904TIP3    H230348   3.865   4.675   2.210  3.1733  0.6702 -1.2349
 2905TIP3   OH230349   3.080   0.358   0.016 -0.4362 -0.2872 -0.0977
 2905TIP3    H130350   3.162   0.370   0.062 -0.4144  0.3874 -0.3006
 2905TIP3    H230351   3.105   0.346  -0.076 -0.5035 -1.1837 -0.0052
 2906TIP3   OH230352   4.037   2.572   8.574 -0.0588  0.5143 -0.6575
 2906TIP3    H130353   3.978   2.517   8.524 -0.3116 -0.5849  0.7856
 2906TIP3    H230354   3.984   2.603   8.648  0.8552  0.3733  0.0800
 2907TIP3   OH230355   0.973   4.344   7.297 -0.1137 -0.7787 -1.3800
 2907TIP3    H130356   0.995   4.437   7.287  1.8203 -0.7645  1.8053
 2907TIP3    H230357   0.915   4.325   7.223  1.8326  2.1723 -3.9027
 2908TIP3   OH230358   0.226   5.485   8.383  0.0595  0.3703  0.3253
 2908TIP3    H130359   0.205   5.490   8.476 -1.8368 -2.8654  0.2067
 2908TIP3    H230360   0.291   5.416   8.376  0.5355  0.8960 -0.7469
 2909TIP3   OH230361   5.281   6.004   2.237 -0.0579  0.1726  0.1088
 2909TIP3    H130362   5.337   6.039   2.168  1.0483 -1.7822 -0.0484
 2909TIP3    H230363   5.192   6.028   2.209  0.3587 -0.4501 -1.9683
 2910TIP3   OH230364   5.988   3.424   1.950  0.2420 -0.4092 -0.5736
 2910TIP3    H130365   6.017   3.350   1.896  1.6863  0.1457 -0.5783
 2910TIP3    H230366   6.043   3.497   1.923 -2.3610  1.2318 -1.8914
 2911TIP3   OH230367   2.832   4.277   7.362 -0.3227 -0.1017 -0.7201
 2911TIP3    H130368   2.847   4.205   7.423 -1.7221 -0.1414 -0.3976
 2911TIP3    H230369   2.799   4.349   7.417  0.0093  0.4238 -1.1953
 2912TIP3   OH230370   3.316   3.021   0.999 -0.3398  0.2132 -0.2926
 2912TIP3    H130371   3.281   2.940   0.964 -0.1569 -0.4110  0.9135
 2912TIP3    H230372   3.394   3.039   0.947 -0.5694 -0.2011 -0.7802
 2913TIP3   OH230373   5.208   6.370   7.485  1.0442 -0.0433  0.4240
 2913TIP3    H130374   5.119   6.407   7.488  0.9661 -0.0813 -0.8715
 2913TIP3    H230375   5.263   6.436   7.528  0.9301  1.7235 -1.9979
 2914TIP3   OH230376   0.437   1.476   7.667 -0.0746  0.2093 -0.4660
 2914TIP3    H130377   0.410   1.390   7.699  1.2225  0.1844  0.6388
 2914TIP3    H230378   0.367   1.534   7.694 -0.3815 -0.3007 -0.1402
 2915TIP3   OH230379   5.610   5.905   6.439 -0.0331  0.0195 -0.1172
 2915TIP3    H130380   5.699   5.875   6.420  0.4202  1.2161 -0.0058
 2915TIP3    H230381   5.553   5.841   6.398  0.8959  0.3088 -1.9481
 2916TIP3   OH230382   4.159   4.902   8.204 -0.4362 -0.0610  0.3593
 2916TIP3    H130383   4.103   4.824   8.206 -0.2984 -0.1991 -0.8305
 2916TIP3    H230384   4.232   4.879   8.146 -0.2677  0.8701  0.1777
 2917TIP3   OH230385   6.845   4.287   0.789  0.0981  0.0677  0.0812
 2917TIP3    H130386   6.930   4.242   0.790 -0.3295 -0.7658  0.0925
 2917TIP3    H230387   6.861   4.370   0.833  1.4449  0.9340 -1.9358
 2918TIP3   OH230388   6.260   3.933   6.835 -0.5697  0.1928 -0.0296
 2918TIP3    H130389   6.250   3.924   6.740  1.7428 -2.5705 -0.1335
 2918TIP3    H230390   6.171   3.950   6.867 -1.5845  0.1096 -2.5798
 2919TIP3   OH230391   3.762   2.080   8.026 -0.4519  0.0928  0.1540
 2919TIP3    H130392   3.845   2.068   8.072 -0.9870 -0.7793  0.9132
 2919TIP3    H230393   3.697   2.091   8.095 -0.7344  2.7569 -0.4316
 2920TIP3   OH230394   4.693   6.709   0.258  0.3217 -0.1325  0.2523
 2920TIP3    H130395   4.677   6.620   0.226  0.9297  0.2607 -1.2189
 2920TIP3    H230396   4.659   6.766   0.189  1.8159  0.7558  0.2053
 2921TIP3   OH230397   2.844   6.931   7.170 -0.2312  0.1920  0.1706
 2921TIP3    H130398   2.878   6.985   7.241  1.1407  0.1644 -0.4346
 2921TIP3    H230399   2.749   6.937   7.179 -0.0975  0.2316  1.9605
 2922TIP3   OH230400   3.955   3.924   7.599  0.3476  0.8854  0.4604
 2922TIP3    H130401   4.031   3.884   7.558 -0.2305  1.8605 -1.7074
 2922TIP3    H230402   3.894   3.940   7.527 -1.1441  1.8233  1.8571
 2923TIP3   OH230403   5.560   6.659   7.807 -0.3289  0.1725  0.0533
 2923TIP3    H130404   5.535   6.751   7.815  0.5508  0.5767 -1.5247
 2923TIP3    H230405   5.653   6.661   7.784 -0.2168 -1.1257  0.3128
 2924TIP3   OH230406   1.211   1.233   0.645  0.2755 -0.1319  0.3557
 2924TIP3    H130407   1.284   1.288   0.673  0.1080 -0.6739  1.9682
 2924TIP3    H230408   1.133   1.286   0.661  0.2263 -0.0584 -0.1032
 2925TIP3   OH230409   5.663   5.930   1.336  0.1481 -0.1848  0.2659
 2925TIP3    H130410   5.587   5.941   1.279  0.3983  0.0215 -0.0298
 2925TIP3    H230411   5.625   5.915   1.423 -0.2540 -1.5332 -0.1145
 2926TIP3   OH230412   0.946   3.303   1.168  0.3596 -0.1988 -0.0479
 2926TIP3    H130413   1.035   3.280   1.142  0.6473  1.1111 -0.2886
 2926TIP3    H230414   0.958   3.364   1.241 -0.3081  0.8990 -0.8372
 2927TIP3   OH230415   6.839   0.559   1.852  0.5600  0.4982  0.5569
 2927TIP3    H130416   6.762   0.556   1.795  1.0876  1.6533 -0.2613
 2927TIP3    H230417   6.816   0.622   1.920  0.7121  0.7181  0.4066
 2928TIP3   OH230418   2.099   0.324   1.741 -0.3959 -0.3052  0.5624
 2928TIP3    H130419   2.127   0.289   1.826  0.7186  0.7417  0.6519
 2928TIP3    H230420   2.136   0.412   1.738 -1.2376  0.0291 -0.6099
 2929TIP3   OH230421   5.692   6.713   7.464 -0.0301  0.7812  0.0285
 2929TIP3    H130422   5.726   6.671   7.385  1.1245 -0.1405  0.9713
 2929TIP3    H230423   5.664   6.800   7.435 -0.2414  0.2297 -1.5082
 2930TIP3   OH230424   4.466   1.727   0.646  0.4287  0.6334  0.1041
 2930TIP3    H130425   4.410   1.759   0.575 -1.4248 -0.8845  0.7985
 2930TIP3    H230426   4.513   1.805   0.676  0.1658  1.5950 -1.7837
 2931TIP3   OH230427   3.606   3.040   1.876  0.0381  0.3837  1.1318
 2931TIP3    H130428   3.549   2.966   1.897 -0.3522  0.8135  1.6225
 2931TIP3    H230429   3.553   3.117   1.896  0.3155  0.8022  0.2894
 2932TIP3   OH230430   5.401   0.228   7.287  0.3183 -0.4697  0.7993
 2932TIP3    H130431   5.458   0.162   7.327  0.1375 -2.5711 -2.0859
 2932TIP3    H230432   5.312   0.193   7.298  0.1294 -0.2321  0.0793
 2933TIP3   OH230433   1.876   5.271   0.770  0.2167  0.1159  0.3070
 2933TIP3    H130434   1.868   5.233   0.682 -0.7876  0.9940 -0.0046
 2933TIP3    H230435   1.807   5.228   0.821  0.9164 -0.5264  0.7271
 2934TIP3   OH230436   6.563   0.234   0.793 -0.1190 -0.3304 -0.0597
 2934TIP3    H130437   6.638   0.294   0.800  1.5656 -2.2670 -0.5016
 2934TIP3    H230438   6.494   0.276   0.845  1.3462  1.3872  0.6304
 2935TIP3   OH230439   1.846   5.674   7.354 -0.7365  0.2500  0.0260
 2935TIP3    H130440   1.835   5.767   7.370  0.4513  0.3874  0.1178
 2935TIP3    H230441   1.874   5.668   7.262 -3.0964 -0.2125 -0.7362
 2936TIP3   OH230442   4.372   4.785   2.953 -0.1990 -0.2140 -0.3515
 2936TIP3    H130443   4.392   4.691   2.947 -0.2529 -0.2295 -0.2903
 2936TIP3    H230444   4.344   4.809   2.865 -1.9464 -0.6545  0.0535
 2937TIP3   OH230445   2.114   2.977   8.417 -0.0074  0.1176 -0.1629
 2937TIP3    H130446   2.052   2.913   8.383 -1.2175  0.8495  0.6170
 2937TIP3    H230447   2.198   2.951   8.379 -0.7009 -1.1457 -0.8921
 2938TIP3   OH230448   0.262   5.419   6.692 -0.1988  0.2739 -0.3137
 2938TIP3    H130449   0.316   5.382   6.621 -0.5459 -1.1862  0.1491
 2938TIP3    H230450   0.198   5.475   6.647  0.6750  0.7563 -0.9952
 2939TIP3   OH230451   6.908   2.884   0.377  0.0801 -0.2845  0.4911
 2939TIP3    H130452   6.964   2.822   0.331 -0.5563 -0.4828 -0.0294
 2939TIP3    H230453   6.927   2.870   0.470  0.9932 -0.2453  0.3181
 2940TIP3   OH230454   3.995   5.465   0.660 -0.7607 -0.0085 -0.6398
 2940TIP3    H130455   3.966   5.527   0.727  1.1676 -0.0462  0.3062
 2940TIP3    H230456   4.073   5.425   0.697 -0.9165 -1.7078 -1.9927
 2941TIP3   OH230457   6.590   2.685   6.659  0.3146 -0.2967 -0.1286
 2941TIP3    H130458   6.588   2.661   6.752  3.1343 -1.3004 -0.2221
 2941TIP3    H230459   6.593   2.781   6.659 -2.9966 -0.0560  0.5773
 2942TIP3   OH230460   1.626   1.138   7.007  0.0333 -0.2992  0.5989
 2942TIP3    H130461   1.656   1.228   6.995  2.5005 -0.6779  2.8450
 2942TIP3    H230462   1.543   1.134   6.961  1.3760  2.1697 -2.4131
 2943TIP3   OH230463   6.397   3.428   0.676 -0.2398 -0.2453  0.3848
 2943TIP3    H130464   6.323   3.453   0.731 -0.9919  0.4219 -0.8656
 2943TIP3    H230465   6.451   3.372   0.732 -1.5986 -0.6164  1.3963
 2944TIP3   OH230466   0.233   5.374   1.838  0.2469 -0.0331  0.0355
 2944TIP3    H130467   0.166   5.341   1.779  0.5836 -0.3362 -0.1826
 2944TIP3    H230468   0.314   5.334   1.807  0.3113 -0.8768  1.2132
 2945TIP3   OH230469   4.741   4.443   7.283 -0.1690  0.5793  0.6081
 2945TIP3    H130470   4.818   4.492   7.255 -0.2003  0.7721  0.8624
 2945TIP3    H230471   4.728   4.468   7.374 -0.0612 -0.0630  0.8046
 2946TIP3   OH230472   0.706   5.581   0.264 -0.3663 -0.2840  0.4384
 2946TIP3    H130473   0.690   5.581   0.358 -0.6086 -2.2375  0.4381
 2946TIP3    H230474   0.635   5.530   0.228 -0.9209  1.3890 -0.9743
 2947TIP3   OH230475   1.832   5.764   8.442 -0.5906 -1.1680  0.4726
 2947TIP3    H130476   1.748   5.720   8.427 -0.1543 -2.3771  1.3707
 2947TIP3    H230477   1.893   5.719   8.383 -0.2324 -1.4717  1.0637
 2948TIP3   OH230478   0.453   0.564   0.847 -0.1748 -0.0950  0.0012
 2948TIP3    H130479   0.531   0.520   0.882  0.3564  1.3983  0.7672
 2948TIP3    H230480   0.386   0.496   0.845  0.8085 -1.1062  0.4821
 2949TIP3   OH230481   3.111   5.015   6.612 -0.0735 -0.9199  0.0718
 2949TIP3    H130482   3.183   4.965   6.573 -0.7438 -1.0093 -1.0661
 2949TIP3    H230483   3.155   5.077   6.671  0.8696 -1.6818  0.2083
 2950TIP3   OH230484   3.411   4.476   6.419  0.0776 -0.0290 -0.1089
 2950TIP3    H130485   3.465   4.497   6.343 -0.6544 -0.6843 -0.8353
 2950TIP3    H230486   3.389   4.383   6.408  0.7461 -0.4027  1.4160
 2951TIP3   OH230487   6.081   3.792   7.519  0.2195 -0.1442  1.5018
 2951TIP3    H130488   6.023   3.769   7.446  0.7732  1.5444  0.4638
 2951TIP3    H230489   6.085   3.712   7.572 -1.1987 -1.0343  0.3734
 2952TIP3   OH230490   3.087   2.432   2.403 -0.6160 -0.6991 -0.4888
 2952TIP3    H130491   3.160   2.481   2.365 -0.1730 -0.6683  0.3840
 2952TIP3    H230492   3.042   2.394   2.327 -0.4595  0.3346 -1.1195
 2953TIP3   OH230493   2.549   3.308   1.878 -0.6717 -0.1785  0.0640
 2953TIP3    H130494   2.483   3.250   1.916  0.1654 -0.2984  1.4298
 2953TIP3    H230495   2.627   3.294   1.932  1.2369 -1.6994 -2.8048
 2954TIP3   OH230496   3.088   2.788   0.843 -0.3093  0.4263 -0.4306
 2954TIP3    H130497   3.021   2.776   0.776 -0.3981 -0.3064 -0.2190
 2954TIP3    H230498   3.039   2.803   0.924 -0.2064  0.9095 -0.4562
 2955TIP3   OH230499   1.666   5.951   2.344 -0.6628 -0.9484 -0.0890
 2955TIP3    H130500   1.666   5.933   2.250 -1.0854  0.7754 -0.4605
 2955TIP3    H230501   1.752   5.989   2.361 -1.4636  1.0767 -0.3188
 2956TIP3   OH230502   1.612   4.746   6.382  0.1150 -0.0042  0.4407
 2956TIP3    H130503   1.672   4.813   6.350  0.6247  0.6268  2.5567
 2956TIP3    H230504   1.533   4.795   6.407 -0.4476 -0.5329 -0.2716
 2957TIP3   OH230505   6.849   2.905   8.339  0.1552  0.3692  0.2567
 2957TIP3    H130506   6.832   2.972   8.273 -2.1589 -1.1273 -0.7933
 2957TIP3    H230507   6.910   2.845   8.297 -0.1615  0.2087  0.0197
 2958TIP3   OH230508   4.757   1.239   1.146  1.0974  0.7018 -0.5972
 2958TIP3    H130509   4.838   1.265   1.189  1.6628 -0.0945 -1.1572
 2958TIP3    H230510   4.687   1.271   1.204  1.8224 -0.1763  0.8087
 2959TIP3   OH230511   2.853   6.598   1.689 -0.7301  0.0392  0.0894
 2959TIP3    H130512   2.942   6.586   1.656 -1.3996 -0.3981 -1.6546
 2959TIP3    H230513   2.810   6.652   1.623 -1.9048 -0.1564  0.6731
 2960TIP3   OH230514   3.197   4.317   8.375 -0.2312  0.4988 -0.3368
 2960TIP3    H130515   3.244   4.363   8.444 -0.5902  2.8649 -1.5571
 2960TIP3    H230516   3.122   4.278   8.419  0.4403  0.5079  0.8694
 2961TIP3   OH230517   0.094   2.330   1.064  0.0876 -0.8847 -0.0515
 2961TIP3    H130518   0.075   2.290   1.148  0.3048  0.1578  0.5192
 2961TIP3    H230519   0.128   2.417   1.086  0.5745 -0.7587 -1.2001
 2962TIP3   OH230520   4.121   0.639   0.137  0.0914 -0.0748  0.5103
 2962TIP3    H130521   4.131   0.714   0.196  0.7832 -0.1948  0.5528
 2962TIP3    H230522   4.118   0.676   0.049  0.6017 -0.0054  0.5199
 2963TIP3   OH230523   4.370   0.754   1.486  0.5506  0.3548  0.0549
 2963TIP3    H130524   4.346   0.764   1.578  1.5761  0.0928  0.3541
 2963TIP3    H230525   4.299   0.700   1.449 -0.4321  1.3465  0.4190
 2964TIP3   OH230526   0.595   0.229   7.983  0.2665 -0.4420  0.0684
 2964TIP3    H130527   0.630   0.205   8.069  1.1803  1.5843  0.3247
 2964TIP3    H230528   0.622   0.320   7.971 -1.0156 -0.2521 -1.7835
 2965TIP3   OH230529   4.341   3.087   8.203  0.4032  0.3190  0.0547
 2965TIP3    H130530   4.362   3.170   8.161 -0.2209  0.6178  0.3124
 2965TIP3    H230531   4.330   3.026   8.131 -0.7084  0.8394 -0.2373
 2966TIP3   OH230532   5.271   3.988   1.481  0.1663 -0.4307  0.0833
 2966TIP3    H130533   5.306   3.936   1.409  2.0523 -0.5532  1.0439
 2966TIP3    H230534   5.326   4.067   1.483 -0.2511 -0.1533  1.0250
 2967TIP3   OH230535   5.347   2.288   6.957 -0.0782  0.4490 -0.3189
 2967TIP3    H130536   5.380   2.378   6.960  0.9586  0.1048 -0.7108
 2967TIP3    H230537   5.399   2.242   7.023  0.5127 -0.1935 -1.2075
 2968TIP3   OH230538   5.624   2.876   7.099 -0.2923 -0.1303 -0.1050
 2968TIP3    H130539   5.615   2.962   7.139 -0.7829 -0.3450  0.2606
 2968TIP3    H230540   5.613   2.892   7.006 -3.3949 -0.1546  0.1484
 2969TIP3   OH230541   1.782   2.992   0.316 -0.9798  0.1443  0.5519
 2969TIP3    H130542   1.691   3.008   0.343 -0.7842 -0.2104  1.4283
 2969TIP3    H230543   1.774   2.930   0.243 -1.4524  0.3445  0.4242
 2970TIP3   OH230544   5.668   2.940   2.284  0.1946  0.5242  0.2134
 2970TIP3    H130545   5.750   2.988   2.295  0.7781 -0.5880  0.8607
 2970TIP3    H230546   5.676   2.897   2.199 -0.4945  1.8340 -0.5519
 2971TIP3   OH230547   6.488   1.753   8.570 -0.3479 -0.2650  0.1248
 2971TIP3    H130548   6.494   1.671   8.618 -0.3694  0.7602  1.9652
 2971TIP3    H230549   6.437   1.732   8.492  2.1069 -2.6284 -0.9760
 2972TIP3   OH230550   0.286   1.997   2.205 -0.6857 -0.3647  0.6245
 2972TIP3    H130551   0.233   1.944   2.264  0.3976  0.6873  2.6568
 2972TIP3    H230552   0.258   2.087   2.221 -0.0550 -0.0079 -0.1499
 2973TIP3   OH230553   6.587   1.583   6.069  0.1250  0.0053 -0.2452
 2973TIP3    H130554   6.547   1.497   6.057  1.9946 -0.7800 -1.3106
 2973TIP3    H230555   6.570   1.629   5.987  1.1303 -0.2476 -0.6118
 2974TIP3   OH230556   0.127   3.845   7.843  0.3301 -0.4969  0.1884
 2974TIP3    H130557   0.087   3.786   7.779 -0.7128 -0.1206  0.4668
 2974TIP3    H230558   0.082   3.928   7.829  2.1715  0.4257 -0.5897
 2975TIP3   OH230559   1.619   5.046   1.635 -0.3662  0.4093  0.1524
 2975TIP3    H130560   1.530   5.071   1.662 -0.4677  0.3337 -0.1113
 2975TIP3    H230561   1.635   4.962   1.678 -0.4805  0.3492  0.0782
 2976TIP3   OH230562   4.110   2.486   2.415 -0.0265 -0.3239 -0.4224
 2976TIP3    H130563   4.081   2.513   2.502  0.0982  0.3518 -0.5885
 2976TIP3    H230564   4.038   2.512   2.357 -0.7810 -2.1034 -0.3484
 2977TIP3   OH230565   4.752   5.275   8.625  0.2412  0.4622 -0.1693
 2977TIP3    H130566   4.699   5.355   8.628  0.2940  0.4793  1.7695
 2977TIP3    H230567   4.842   5.306   8.618  0.1816  0.5156 -0.7586
 2978TIP3   OH230568   2.965   2.311   2.053  0.4111  0.0234  0.3156
 2978TIP3    H130569   2.917   2.326   1.971  1.5697 -0.0480 -0.3916
 2978TIP3    H230570   3.011   2.394   2.069 -0.7274  0.4631  1.5559
 2979TIP3   OH230571   6.445   6.306   2.665  0.1808  0.3016 -0.1674
 2979TIP3    H130572   6.536   6.286   2.686  1.2849  2.3409 -2.6128
 2979TIP3    H230573   6.432   6.271   2.577 -1.5032 -0.1404  0.2201
 2980TIP3   OH230574   0.171   3.660   6.044 -0.1812 -0.3615 -0.6101
 2980TIP3    H130575   0.114   3.583   6.042  0.0366 -0.6261  1.3635
 2980TIP3    H230576   0.118   3.728   6.086 -0.5961  0.8230 -2.8958
 2981TIP3   OH230577   3.204   5.808   0.444  0.2610  0.0109  0.2259
 2981TIP3    H130578   3.177   5.720   0.470  0.6089  0.3735  1.9142
 2981TIP3    H230579   3.296   5.798   0.419 -0.1417 -0.3848 -1.1954
 2982TIP3   OH230580   1.095   4.598   7.225  0.1530 -0.1324  0.6238
 2982TIP3    H130581   1.184   4.584   7.260  0.1211 -2.1301  0.0183
 2982TIP3    H230582   1.088   4.693   7.217  1.7046  0.1650  2.0548
 2983TIP3   OH230583   6.278   1.019   0.124 -0.1350  0.8352  0.6276
 2983TIP3    H130584   6.208   1.079   0.150 -0.4126  0.8893 -0.2229
 2983TIP3    H230585   6.331   1.070   0.062  0.4320  0.6641  0.9668
 2984TIP3   OH230586   3.267   5.340   0.262 -0.0278  0.8733 -0.4683
 2984TIP3    H130587   3.355   5.363   0.233 -0.0325  0.5185 -0.7776
 2984TIP3    H230588   3.216   5.334   0.180 -0.8081  2.9448 -0.2073
 2985TIP3   OH230589   5.704   1.686   8.513 -0.7702 -0.1852  0.1179
 2985TIP3    H130590   5.643   1.622   8.474 -0.0796 -0.9861  0.3287
 2985TIP3    H230591   5.688   1.680   8.607  0.8974 -1.7784  0.3590
 2986TIP3   OH230592   5.476   5.375   2.167  0.1013 -0.1043  0.0793
 2986TIP3    H130593   5.509   5.464   2.157  1.6548 -0.5124  1.0768
 2986TIP3    H230594   5.424   5.359   2.089  0.6775  1.3044 -0.6256
 2987TIP3   OH230595   3.133   6.768   6.743  0.1754  0.3267  0.5925
 2987TIP3    H130596   3.052   6.800   6.781 -0.5121 -0.8227  0.1703
 2987TIP3    H230597   3.125   6.672   6.747 -0.4705  0.0499 -3.3867
 2988TIP3   OH230598   2.204   3.950   7.150  0.2006  0.4616  0.1582
 2988TIP3    H130599   2.155   3.879   7.191 -0.5165 -0.5931 -2.3341
 2988TIP3    H230600   2.279   3.965   7.207 -0.1033 -1.6934  1.1955
 2989TIP3   OH230601   0.030   0.345   0.224 -0.8935  0.2868 -0.4224
 2989TIP3    H130602   0.074   0.426   0.196  0.4996  0.3148  1.6651
 2989TIP3    H230603   0.098   0.278   0.219 -0.8481  0.1105  1.8552
 2990TIP3   OH230604   2.946   4.686   0.620 -0.0431 -0.1383 -0.3449
 2990TIP3    H130605   2.961   4.598   0.654 -0.7958  0.0912  0.6223
 2990TIP3    H230606   2.851   4.689   0.603 -1.1651  2.0739  4.5823
 2991TIP3   OH230607   1.744   1.758   0.890  0.2654  0.0211 -0.0112
 2991TIP3    H130608   1.649   1.743   0.894  0.0767  0.9842 -0.6874
 2991TIP3    H230609   1.782   1.671   0.906 -0.7106 -0.2827  0.7903
 2992TIP3   OH230610   2.985   6.299   8.448 -0.1561 -0.3077  0.6456
 2992TIP3    H130611   2.897   6.271   8.473 -0.8108 -0.0785 -1.2306
 2992TIP3    H230612   3.020   6.224   8.399 -0.3896  0.6010 -0.9734
 2993TIP3   OH230613   6.288   1.783   6.982 -0.3504 -0.3804  0.0560
 2993TIP3    H130614   6.295   1.764   7.075  2.1362  1.6895  0.4352
 2993TIP3    H230615   6.207   1.833   6.973 -0.9125 -1.1076  0.9751
 2994TIP3   OH230616   2.834   6.687   2.351  0.4384  0.5475  0.2680
 2994TIP3    H130617   2.846   6.738   2.271 -1.9371 -1.0508 -1.2149
 2994TIP3    H230618   2.895   6.614   2.342  1.4841  1.3195  0.8425
 2995TIP3   OH230619   3.085   5.946   1.942  0.3942  0.1599 -0.4810
 2995TIP3    H130620   3.046   6.033   1.932 -0.9524 -0.5976 -2.3812
 2995TIP3    H230621   3.056   5.917   2.028 -1.9094  0.3366 -1.1194
 2996TIP3   OH230622   1.525   6.149   7.783  0.3643 -0.1237 -0.1244
 2996TIP3    H130623   1.456   6.115   7.726  0.6745 -1.9858  0.5636
 2996TIP3    H230624   1.604   6.147   7.729  0.4183 -0.7122 -0.0302
 2997TIP3   OH230625   0.145   3.951   1.879  0.4920 -0.0735 -0.4722
 2997TIP3    H130626   0.067   3.904   1.909  0.2669  2.0307  2.7515
 2997TIP3    H230627   0.216   3.919   1.936  0.9005  1.4488 -0.0789
 2998TIP3   OH230628   2.924   1.767   8.096 -0.3845 -0.6414  0.3601
 2998TIP3    H130629   2.945   1.845   8.046  1.9789 -1.1222  0.4913
 2998TIP3    H230630   2.857   1.796   8.158  1.0537  1.5430  1.0031
 2999TIP3   OH230631   5.657   5.501   1.958 -0.2875 -0.1646  0.6166
 2999TIP3    H130632   5.739   5.548   1.974  0.0853 -0.4534 -0.3502
 2999TIP3    H230633   5.625   5.535   1.875 -1.7842  0.7839  1.5556
 3000TIP3   OH230634   4.030   6.708   0.472 -0.6170  0.0186  0.1228
 3000TIP3    H130635   3.985   6.659   0.403  0.5059 -0.6392 -0.1721
 3000TIP3    H230636   3.960   6.737   0.530 -1.6236  0.7858 -1.3944
 3001TIP3   OH230637   6.154   2.790   6.782  0.3622  0.5761 -0.0603
 3001TIP3    H130638   6.175   2.882   6.798  0.9062  0.2225  1.5111
 3001TIP3    H230639   6.063   2.780   6.810  0.5048  0.5076  0.3858
 3002TIP3   OH230640   4.991   4.705   0.690 -0.1159 -0.3634  0.1593
 3002TIP3    H130641   4.938   4.716   0.611 -0.7405  1.8685  0.8146
 3002TIP3    H230642   5.080   4.731   0.664 -0.5939  1.7650  0.4554
 3003TIP3   OH230643   1.279   2.102   8.522 -0.1629  0.0345  0.1625
 3003TIP3    H130644   1.301   2.010   8.508  1.9340 -0.1224  3.3399
 3003TIP3    H230645   1.193   2.099   8.565 -1.3236 -0.1692 -2.0411
 3004TIP3   OH230646   3.724   2.471   7.565 -0.1056 -0.0831 -0.7078
 3004TIP3    H130647   3.675   2.554   7.558  0.0942  0.0277 -0.8090
 3004TIP3    H230648   3.816   2.497   7.555  0.0057 -0.2432 -0.1111
 3005TIP3   OH230649   5.869   3.064   1.063  0.1195 -0.4202  0.0443
 3005TIP3    H130650   5.780   3.092   1.040  0.2324  0.4078  0.5959
 3005TIP3    H230651   5.859   2.972   1.088 -0.7148 -0.1206  0.8590
 3006TIP3   OH230652   4.161   1.468   1.315  0.2629  0.1565 -0.0691
 3006TIP3    H130653   4.171   1.379   1.280 -1.5000  0.1365 -0.6561
 3006TIP3    H230654   4.069   1.472   1.342  0.2319  1.9108 -0.3513
 3007TIP3   OH230655   4.213   0.703   7.710 -0.3004 -0.4635  0.5740
 3007TIP3    H130656   4.138   0.740   7.758  1.2987  1.2184  1.9218
 3007TIP3    H230657   4.179   0.621   7.674 -2.9691  0.5071  0.5860
 3008TIP3   OH230658   6.388   2.430   6.852  0.2036 -0.0590  0.0882
 3008TIP3    H130659   6.402   2.423   6.758  1.3857 -2.1838  0.3644
 3008TIP3    H230660   6.296   2.407   6.864  0.1377 -0.1112 -0.5068
 3009TIP3   OH230661   5.001   4.347   2.700 -0.2521  0.2389 -0.4615
 3009TIP3    H130662   5.051   4.429   2.707  0.4104 -0.2503  1.0163
 3009TIP3    H230663   4.939   4.363   2.629  0.1075  1.8897 -0.4558
 3010TIP3   OH230664   6.399   1.361   8.209  0.0823  0.4225 -0.1441
 3010TIP3    H130665   6.388   1.331   8.119  0.3519 -0.8687  0.2310
 3010TIP3    H230666   6.369   1.452   8.208 -0.4853  0.2418 -1.4035
 3011TIP3   OH230667   6.221   5.861   7.966  0.0846 -0.4913 -0.2409
 3011TIP3    H130668   6.213   5.812   8.048 -0.7486  0.5195  0.3112
 3011TIP3    H230669   6.227   5.794   7.899  0.7630 -1.3432  0.6411
 3012TIP3   OH230670   3.005   4.699   1.552  0.2125 -0.0563  0.2739
 3012TIP3    H130671   3.044   4.623   1.596 -0.5704 -0.5291  0.1623
 3012TIP3    H230672   2.912   4.680   1.549  0.1157  0.5048 -0.5598
 3013TIP3   OH230673   1.294   3.421   8.040 -0.4896 -0.1451 -0.8175
 3013TIP3    H130674   1.199   3.410   8.046 -0.4646 -0.6490 -1.3364
 3013TIP3    H230675   1.329   3.333   8.056 -0.0652  0.2002  0.2662
 3014TIP3   OH230676   0.423   4.826   7.200  0.6922  0.1718  0.2243
 3014TIP3    H130677   0.343   4.863   7.235 -0.0830 -0.5304 -0.7632
 3014TIP3    H230678   0.492   4.856   7.260 -0.3713  0.3242  1.4008
 3015TIP3   OH230679   3.912   6.434   1.012  0.3417 -0.6838  0.1874
 3015TIP3    H130680   3.833   6.405   1.058  0.7997 -1.9890  0.1859
 3015TIP3    H230681   3.905   6.396   0.925  0.8066 -0.5359  0.0807
 3016TIP3   OH230682   2.649   3.257   1.422  0.0319 -0.2169 -0.0011
 3016TIP3    H130683   2.722   3.257   1.484 -0.4579 -1.3403  0.6191
 3016TIP3    H230684   2.575   3.223   1.473 -0.5547 -0.5121 -1.0164
 3017TIP3   OH230685   3.901   4.770   1.509 -0.1096 -0.4729 -0.1479
 3017TIP3    H130686   3.912   4.864   1.497  0.6626 -0.5443 -0.0134
 3017TIP3    H230687   3.978   4.731   1.468  1.2444 -0.8755  2.5587
 3018TIP3   OH230688   1.584   5.133   7.093 -0.6334  1.0672  0.1038
 3018TIP3    H130689   1.492   5.139   7.070 -0.7129 -1.3058 -0.3881
 3018TIP3    H230690   1.607   5.041   7.080  0.8655  0.7708  3.7173
 3019TIP3   OH230691   0.077   0.775   8.436  0.4061 -0.0792 -0.5325
 3019TIP3    H130692   0.011   0.844   8.437 -0.3492 -0.7802  1.1418
 3019TIP3    H230693   0.038   0.706   8.383 -2.5143 -2.4846  4.1161
 3020TIP3   OH230694   6.319   5.582   7.473  0.1548 -0.1530  0.2060
 3020TIP3    H130695   6.292   5.673   7.467  0.0385 -0.2116 -0.1649
 3020TIP3    H230696   6.407   5.585   7.510 -0.9787 -0.0284  3.2023
 3021TIP3   OH230697   1.548   6.583   0.188 -0.2444 -0.2055  0.6389
 3021TIP3    H130698   1.567   6.670   0.154 -0.7149 -0.5008 -0.4424
 3021TIP3    H230699   1.470   6.595   0.243 -0.6868 -0.0276 -0.0072
 3022TIP3   OH230700   3.553   2.956   0.012 -0.4347 -0.7870 -0.1770
 3022TIP3    H130701   3.598   3.033  -0.022  0.9642 -1.2572  0.5213
 3022TIP3    H230702   3.461   2.971  -0.009  0.0616  0.0344 -2.0134
 3023TIP3   OH230703   6.444   1.063   8.508 -0.6466  0.5696  0.1488
 3023TIP3    H130704   6.390   0.986   8.487  0.1465 -0.3866  1.4448
 3023TIP3    H230705   6.501   1.073   8.431 -0.2607 -0.6102  0.2508
 3024TIP3   OH230706   4.131   6.887   7.985 -0.1426 -0.3249  0.5116
 3024TIP3    H130707   4.216   6.844   7.994  0.6168  0.4391 -2.2239
 3024TIP3    H230708   4.148   6.980   8.004  0.2646  0.2669 -2.2600
 3025TIP3   OH230709   3.801   3.217   6.379  0.2988 -0.3378 -0.0208
 3025TIP3    H130710   3.801   3.284   6.311  0.7886 -0.9843 -0.6842
 3025TIP3    H230711   3.872   3.241   6.438 -0.5840  0.6234  0.6906
 3026TIP3   OH230712   5.942   5.709   8.052 -0.0011  0.1479  0.0131
 3026TIP3    H130713   5.971   5.693   8.142 -1.3520 -1.3433  0.2188
 3026TIP3    H230714   5.989   5.645   8.000  1.0213  1.2207 -0.4197
 3027TIP3   OH230715   4.454   5.857   1.775 -0.4673  0.2249  0.1008
 3027TIP3    H130716   4.511   5.913   1.827 -0.1640 -0.3877  0.4413
 3027TIP3    H230717   4.382   5.834   1.835 -0.5046  0.1217  0.0176
 3028TIP3   OH230718   6.384   1.016   8.155  0.3839  0.4233 -0.9358
 3028TIP3    H130719   6.290   1.005   8.145  0.6260 -1.8026 -1.3395
 3028TIP3    H230720   6.422   0.961   8.087  1.9585 -0.8506  0.8523
 3029TIP3   OH230721   3.502   3.250   1.253 -0.5902 -0.3843 -0.1093
 3029TIP3    H130722   3.569   3.270   1.188 -2.1458  0.4091 -1.5365
 3029TIP3    H230723   3.537   3.284   1.335  1.1477 -0.8471 -0.6147
 3030TIP3   OH230724   2.001   3.203   8.315  0.6347  0.0613  0.2943
 3030TIP3    H130725   2.031   3.121   8.354  1.6210 -0.6342 -1.8004
 3030TIP3    H230726   1.959   3.178   8.233 -1.7362  1.4478  0.9912
 3031TIP3   OH230727   1.256   3.466   2.224  0.1817  0.2259 -0.0973
 3031TIP3    H130728   1.305   3.488   2.303 -0.4636 -0.9386  0.6540
 3031TIP3    H230729   1.167   3.496   2.243  0.2936  1.1380 -0.9271
 3032TIP3   OH230730   2.557   6.758   6.170 -0.1710 -0.1715 -0.4587
 3032TIP3    H130731   2.501   6.791   6.240  1.4799  0.5033  0.6212
 3032TIP3    H230732   2.624   6.706   6.215  1.7163  1.3632 -1.3214
 3033TIP3   OH230733   0.893   2.062   1.838  0.1402 -0.0196 -0.2881
 3033TIP3    H130734   0.949   2.076   1.762 -0.4207  0.3612 -0.6383
 3033TIP3    H230735   0.807   2.095   1.811 -0.2058 -0.4109  0.3075
 3034TIP3   OH230736   4.580   1.929   1.040 -0.1551 -0.4059 -0.2330
 3034TIP3    H130737   4.627   1.894   1.116 -0.0897 -2.5791 -1.2221
 3034TIP3    H230738   4.505   1.976   1.078  1.4991  1.2129  1.2693
 3035TIP3   OH230739   0.561   5.165   8.540 -0.4900 -0.0713 -0.3059
 3035TIP3    H130740   0.632   5.172   8.477 -0.8313  1.8824 -0.5537
 3035TIP3    H230741   0.566   5.076   8.574  1.5848 -0.2026 -0.8800
 3036TIP3   OH230742   4.897   1.326   0.852  0.0737  0.5571 -0.1822
 3036TIP3    H130743   4.966   1.335   0.918  0.8738 -4.7983  0.1571
 3036TIP3    H230744   4.931   1.262   0.790 -3.6152 -0.4422 -1.4628
 3037TIP3   OH230745   6.285   6.559   7.050  0.3475  0.0566  0.4362
 3037TIP3    H130746   6.379   6.545   7.045  0.3336  0.2560 -0.5990
 3037TIP3    H230747   6.249   6.473   7.073  0.7430 -0.1494  0.3002
 3038TIP3   OH230748   5.469   4.026   7.462 -0.1830 -0.1133  0.0795
 3038TIP3    H130749   5.394   3.970   7.441 -0.3538 -0.2405  0.9791
 3038TIP3    H230750   5.446   4.065   7.547  0.8075 -0.2318  0.4108
 3039TIP3   OH230751   0.885   0.012   0.584  0.0359 -0.9052 -0.0043
 3039TIP3    H130752   0.792   0.035   0.587  0.1613 -0.4063  0.0995
 3039TIP3    H230753   0.901  -0.033   0.666  0.0406 -0.3952  0.2751
 3040TIP3   OH230754   5.196   5.728   7.414 -0.0580  0.0243 -0.2146
 3040TIP3    H130755   5.160   5.815   7.400 -2.1292 -0.9020 -1.0171
 3040TIP3    H230756   5.284   5.732   7.378  0.0673  1.8988  0.2014
 3041TIP3   OH230757   5.909   0.466   7.727  0.4982 -0.0705  0.1277
 3041TIP3    H130758   5.837   0.404   7.731 -0.7296  1.2870 -0.1106
 3041TIP3    H230759   5.925   0.477   7.633  0.3825  0.3303  0.1535
 3042TIP3   OH230760   6.265   4.537   1.879 -0.6719  0.3425  0.1836
 3042TIP3    H130761   6.189   4.479   1.869  0.1100 -0.5651 -0.5579
 3042TIP3    H230762   6.251   4.579   1.964 -1.5465 -0.4871  0.4653
 3043TIP3   OH230763   6.853   4.565   0.097  0.4992  0.3787  0.2175
 3043TIP3    H130764   6.809   4.577   0.181 -3.2832  0.0118 -1.5087
 3043TIP3    H230765   6.825   4.478   0.067  1.0131  0.8547 -1.7973
 3044TIP3   OH230766   1.320   3.711   7.727 -0.2007  0.1597  0.1886
 3044TIP3    H130767   1.374   3.788   7.743 -0.0196 -0.2293  1.5569
 3044TIP3    H230768   1.373   3.637   7.756 -1.9032 -0.1338  2.9728
 3045TIP3   OH230769   6.274   1.012   7.812 -0.1382 -0.3726 -0.0241
 3045TIP3    H130770   6.248   0.962   7.889  0.7942 -2.3374 -0.9038
 3045TIP3    H230771   6.236   0.964   7.738  0.4222  0.4789 -0.8932
 3046TIP3   OH230772   2.727   6.734   0.558 -0.6781 -0.2064  0.2674
 3046TIP3    H130773   2.813   6.692   0.563 -0.7883 -1.1893 -3.2695
 3046TIP3    H230774   2.739   6.818   0.603  2.1462 -0.2906 -0.1059
 3047TIP3   OH230775   0.984   4.337   6.752 -0.1878  0.1170 -0.0606
 3047TIP3    H130776   1.001   4.286   6.673  0.1278  2.0346 -1.2862
 3047TIP3    H230777   0.994   4.274   6.824  1.0182 -1.3445 -1.4452
 3048TIP3   OH230778   4.948   0.024   0.928  0.1294  0.1353 -1.0723
 3048TIP3    H130779   4.887   0.098   0.929  1.0565  0.9338 -1.7870
 3048TIP3    H230780   4.927  -0.023   0.848  0.3007  0.2779 -1.2006
 3049TIP3   OH230781   6.306   3.170   7.958  0.0478  0.1599  0.2501
 3049TIP3    H130782   6.301   3.124   8.042  0.1199 -0.1454  0.0864
 3049TIP3    H230783   6.226   3.144   7.911 -1.6751  2.8113  1.4745
 3050TIP3   OH230784   4.081   6.101   7.134 -0.0599 -0.3398 -0.4063
 3050TIP3    H130785   3.991   6.087   7.104 -0.9899  0.8714  1.5997
 3050TIP3    H230786   4.105   6.018   7.175 -0.3527 -0.6071 -0.7695
 3051TIP3   OH230787   3.206   1.506   0.020  0.2066  0.0656  0.0535
 3051TIP3    H130788   3.241   1.457   0.094 -2.5766  0.1011  1.5114
 3051TIP3    H230789   3.184   1.439  -0.045 -1.0110 -0.4226  0.9264
 3052TIP3   OH230790   6.035   2.382   7.814 -0.5052 -0.0343 -0.1365
 3052TIP3    H130791   6.007   2.443   7.746 -0.9327 -0.2866 -0.1859
 3052TIP3    H230792   6.131   2.379   7.805 -0.6833 -2.2875 -2.6918
 3053TIP3   OH230793   0.885   5.186   7.630  0.4981  0.7749 -0.1595
 3053TIP3    H130794   0.848   5.182   7.542 -0.8130  1.0874  0.3621
 3053TIP3    H230795   0.976   5.214   7.616  0.9554 -1.1700 -1.5508
 3054TIP3   OH230796   4.031   0.598   1.901 -0.4344 -0.2797  0.7037
 3054TIP3    H130797   4.061   0.660   1.969 -1.1764  1.3863 -0.4128
 3054TIP3    H230798   3.938   0.618   1.891  0.0255  0.9170 -2.1201
 3055TIP3   OH230799   1.056   2.551   0.297 -0.6538 -0.2498  0.6991
 3055TIP3    H130800   1.050   2.645   0.312 -1.1714 -0.2740  0.6418
 3055TIP3    H230801   1.126   2.522   0.356  0.0729  0.2927  0.1321
 3056TIP3   OH230802   3.735   3.730   0.513  0.0986  0.7925  0.3399
 3056TIP3    H130803   3.702   3.711   0.425  1.4571  2.3452 -0.5651
 3056TIP3    H230804   3.824   3.696   0.514  0.2151  1.0867  0.9953
 3057TIP3   OH230805   0.303   3.819   8.267 -0.1420  0.3216  0.0429
 3057TIP3    H130806   0.293   3.894   8.326 -0.3444  0.8318 -0.6334
 3057TIP3    H230807   0.367   3.848   8.202 -2.1442  0.9131 -1.7704
 3058TIP3   OH230808   0.345   2.933   8.050  0.3740  0.0838 -0.0595
 3058TIP3    H130809   0.316   2.978   8.129 -0.6230  0.3638 -0.5743
 3058TIP3    H230810   0.435   2.962   8.037  0.7772 -0.4728  1.3317
 3059TIP3   OH230811   3.223   2.059   8.323 -0.1682  0.0388 -0.3082
 3059TIP3    H130812   3.212   1.964   8.322 -2.7909  0.2552  0.2994
 3059TIP3    H230813   3.153   2.091   8.380  0.8867  2.3363 -0.1777
 3060TIP3   OH230814   3.763   0.523   7.034 -0.3460 -0.4932 -0.7249
 3060TIP3    H130815   3.798   0.606   7.065 -0.4853 -0.6884 -0.0294
 3060TIP3    H230816   3.840   0.471   7.011 -0.0423 -1.3603  1.8963
 3061TIP3   OH230817   0.743   5.328   8.120 -0.1095 -0.3587  0.1727
 3061TIP3    H130818   0.792   5.371   8.049 -1.0074 -1.1591 -0.9761
 3061TIP3    H230819   0.748   5.235   8.098 -0.5086 -0.6135  1.1197
 3062TIP3   OH230820   4.274   5.298   7.720  0.2495 -0.4328 -0.1058
 3062TIP3    H130821   4.259   5.208   7.749  0.9587 -0.4018  0.3695
 3062TIP3    H230822   4.209   5.312   7.651  0.5392 -1.5172 -0.6122
 3063TIP3   OH230823   1.704   3.895   8.411 -0.4741  0.2314 -0.7003
 3063TIP3    H130824   1.755   3.965   8.450 -1.9611  0.4265  1.0628
 3063TIP3    H230825   1.616   3.931   8.403 -0.7880 -0.7151 -1.8497
 3064TIP3   OH230826   2.742   3.541   2.606 -0.5739  0.9979 -0.0906
 3064TIP3    H130827   2.781   3.565   2.522 -1.7744  0.0679 -0.9404
 3064TIP3    H230828   2.654   3.578   2.603 -0.8440  0.4123  0.4905
 3065TIP3   OH230829   4.208   1.400   2.347 -0.1452 -0.2401 -0.0741
 3065TIP3    H130830   4.270   1.386   2.275  0.1958 -1.5605  0.4387
 3065TIP3    H230831   4.257   1.374   2.425 -1.5115 -1.8750  0.2839
 3066TIP3   OH230832   3.407   0.182   7.038  0.3074  0.6464 -0.7547
 3066TIP3    H130833   3.390   0.233   7.117  0.7626  0.1636 -0.3389
 3066TIP3    H230834   3.490   0.138   7.055 -0.6167 -1.1283 -0.6203
 3067TIP3   OH230835   4.892   0.265   7.950 -0.2979 -0.4902 -0.4588
 3067TIP3    H130836   4.872   0.253   8.043  0.5722  0.1344 -0.1835
 3067TIP3    H230837   4.987   0.260   7.945 -0.1942  1.3415 -1.0359
 3068TIP3   OH230838   1.362   5.795   7.601 -0.0087  0.3828  0.2284
 3068TIP3    H130839   1.297   5.801   7.530  0.0319  1.6414  0.2817
 3068TIP3    H230840   1.310   5.793   7.681 -0.0199  0.0604  0.2137
 3069TIP3   OH230841   6.754   5.089   0.815  0.2393  0.0502  0.0650
 3069TIP3    H130842   6.667   5.101   0.853  0.6486  1.5122  0.5981
 3069TIP3    H230843   6.786   5.008   0.854 -1.1037 -0.8476 -0.6056
 3070TIP3   OH230844   5.124   2.230   0.575  0.6009 -0.3738 -0.0458
 3070TIP3    H130845   5.042   2.201   0.614 -0.8325  0.0303 -2.5369
 3070TIP3    H230846   5.109   2.322   0.553  0.9859 -0.7899 -2.2189
 3071TIP3   OH230847   5.507   6.151   0.108 -0.0873 -0.2500 -0.0873
 3071TIP3    H130848   5.596   6.148   0.144  0.2198  1.3032 -0.6186
 3071TIP3    H230849   5.475   6.061   0.114  1.0350 -0.5922  1.3108
 3072TIP3   OH230850   3.419   1.671   7.250  0.2485  0.1997 -0.9516
 3072TIP3    H130851   3.504   1.626   7.253 -0.1804 -0.5648  1.0738
 3072TIP3    H230852   3.361   1.609   7.206  0.0340 -0.6233  0.4368
 3073TIP3   OH230853   2.984   0.814   0.865  0.2329 -0.1409  0.1366
 3073TIP3    H130854   2.897   0.781   0.842  0.7482 -0.7935 -0.9583
 3073TIP3    H230855   3.043   0.773   0.802  1.5135 -0.6834  1.6116
 3074TIP3   OH230856   4.481   6.134   1.543  0.0220 -0.6264 -0.3716
 3074TIP3    H130857   4.502   6.191   1.617 -2.1625  1.2483 -1.0774
 3074TIP3    H230858   4.435   6.060   1.583 -0.9858  0.2774  0.2017
 3075TIP3   OH230859   1.488   0.100   1.686 -0.0621 -0.7740  1.0409
 3075TIP3    H130860   1.513   0.051   1.765  1.2879  1.3004  2.0053
 3075TIP3    H230861   1.417   0.157   1.715  0.1828 -0.2664  0.6594
 3076TIP3   OH230862   5.100   3.406   7.558  0.3096 -0.8068 -0.1680
 3076TIP3    H130863   5.122   3.326   7.511  0.4125  0.0289 -1.5795
 3076TIP3    H230864   5.073   3.468   7.490  0.4177  0.4293  0.8731
 3077TIP3   OH230865   2.082   2.829   1.279 -0.3173 -0.1110  0.9571
 3077TIP3    H130866   2.168   2.860   1.308  0.0912 -1.1062  0.8576
 3077TIP3    H230867   2.027   2.833   1.357 -0.0642  0.1150  1.1253
 3078TIP3   OH230868   5.071   4.164   7.010 -0.4099  0.0565  0.2237
 3078TIP3    H130869   5.151   4.124   7.044 -1.7537 -1.7180  1.4663
 3078TIP3    H230870   5.028   4.094   6.961 -1.2838  0.9407 -0.3063
 3079TIP3   OH230871   2.579   6.040   2.290  0.0529 -0.0020 -0.0233
 3079TIP3    H130872   2.650   5.977   2.300 -0.7187 -0.9676 -0.4768
 3079TIP3    H230873   2.615   6.122   2.324  0.9989 -0.7260  0.7829
 3080TIP3   OH230874   5.807   4.769   2.224  0.0763  0.0677  0.1470
 3080TIP3    H130875   5.765   4.709   2.286  1.9380  0.1400  1.5774
 3080TIP3    H230876   5.860   4.712   2.168 -1.4396  0.0245 -1.3045
 3081TIP3   OH230877   3.832   4.777   7.869  0.2457 -0.1247 -0.8213
 3081TIP3    H130878   3.828   4.684   7.845 -0.6453 -0.2218 -0.3553
 3081TIP3    H230879   3.770   4.820   7.811  0.2577  0.0920 -0.6753
 3082TIP3   OH230880   2.254   0.530   2.003  0.6727  0.1621  0.0322
 3082TIP3    H130881   2.235   0.441   2.033  1.5603  0.0395  0.2492
 3082TIP3    H230882   2.229   0.586   2.076  2.8825 -0.1392  1.1065
 3083TIP3   OH230883   4.656   6.762   7.378  0.1461  0.9977 -0.2307
 3083TIP3    H130884   4.670   6.719   7.293  1.0456  1.7173 -0.4679
 3083TIP3    H230885   4.573   6.726   7.410  0.9695 -1.1380 -0.2726
 3084TIP3   OH230886   6.701   4.635   6.442 -0.0570  0.5431 -0.0634
 3084TIP3    H130887   6.760   4.585   6.499 -1.1686  0.2426  0.8626
 3084TIP3    H230888   6.617   4.589   6.449 -0.8718  2.0110  0.0912
 3085TIP3   OH230889   0.544   1.737   7.750  0.2066 -0.0082  0.0513
 3085TIP3    H130890   0.481   1.787   7.697 -0.6927  0.3271  1.3888
 3085TIP3    H230891   0.617   1.797   7.764 -0.0313  0.2668  0.1005
 3086TIP3   OH230892   1.155   1.580   0.795  0.6465 -0.5418 -0.5387
 3086TIP3    H130893   1.189   1.649   0.853 -1.5234  0.7603 -0.7222
 3086TIP3    H230894   1.228   1.563   0.735  0.9851  2.3218 -1.0966
 3087TIP3   OH230895   6.478   3.599   0.463 -0.3767 -0.2766 -0.0075
 3087TIP3    H130896   6.564   3.621   0.428 -0.6181 -2.0027 -1.8312
 3087TIP3    H230897   6.497   3.549   0.543  0.2178  1.4331  0.9823
 3088TIP3   OH230898   3.771   4.499   7.888  0.3264 -0.0443 -0.0824
 3088TIP3    H130899   3.867   4.499   7.889  0.3383  0.4176  0.9154
 3088TIP3    H230900   3.747   4.424   7.943  0.1190 -0.1876 -0.3717
 3089TIP3   OH230901   0.511   1.525   0.994  0.6290  0.2716  0.1266
 3089TIP3    H130902   0.533   1.591   1.060  1.2908  0.5231 -0.3358
 3089TIP3    H230903   0.510   1.573   0.911 -0.5323  0.0252 -0.0079
 3090TIP3   OH230904   3.732   2.928   0.221  0.1247 -0.7232 -0.1147
 3090TIP3    H130905   3.662   2.923   0.156  0.6671  1.0054 -0.8945
 3090TIP3    H230906   3.700   2.990   0.286  1.5487  1.3979 -1.3526
 3091TIP3   OH230907   2.487   5.780   7.092 -0.1266  0.1836  0.2594
 3091TIP3    H130908   2.498   5.738   7.007 -0.1858  2.6437 -1.0307
 3091TIP3    H230909   2.576   5.792   7.125  0.0020  0.9057 -0.3345
 3092TIP3   OH230910   5.968   1.863   1.798  0.6560  0.4203  0.3190
 3092TIP3    H130911   5.913   1.873   1.876 -2.7067 -2.4241 -1.3927
 3092TIP3    H230912   6.035   1.800   1.824  0.2951  0.4005  1.2461
 3093TIP3   OH230913   4.727   2.821   0.689 -0.0673 -0.1819 -0.3231
 3093TIP3    H130914   4.665   2.798   0.620 -0.6833  0.3596  0.0289
 3093TIP3    H230915   4.700   2.768   0.764  0.3485 -0.4763 -0.3805
 3094TIP3   OH230916   1.808   1.966   1.094  0.7944  0.0239 -0.5992
 3094TIP3    H130917   1.781   1.923   1.014  2.7255  1.3008 -2.0315
 3094TIP3    H230918   1.774   1.910   1.164  0.3672 -1.9760 -2.2965
 3095TIP3   OH230919   3.847   6.666   0.782  0.6065  0.1204  0.5135
 3095TIP3    H130920   3.935   6.646   0.813  0.1703 -0.6591  1.2879
 3095TIP3    H230921   3.845   6.761   0.773  1.3491  0.1899  1.0453
 3096TIP3   OH230922   2.083   1.513   1.703 -0.0275 -0.0786  0.1556
 3096TIP3    H130923   1.996   1.548   1.682 -0.3521 -1.4171 -0.9129
 3096TIP3    H230924   2.065   1.437   1.758  0.6739  1.4849  2.7201
 3097TIP3   OH230925   4.206   6.451   7.036 -0.3428  0.3727  0.3099
 3097TIP3    H130926   4.207   6.364   6.996 -1.0490  0.3909  0.2426
 3097TIP3    H230927   4.123   6.455   7.083 -0.4156  1.0959  0.1330
 3098TIP3   OH230928   1.447   2.521   6.813  0.1805  0.1802  0.1255
 3098TIP3    H130929   1.499   2.573   6.752 -1.6129  0.2763 -1.4228
 3098TIP3    H230930   1.460   2.563   6.898  2.3341  0.3676 -0.2377
 3099TIP3   OH230931   2.922   2.062   8.005  0.0940 -0.4981  0.0091
 3099TIP3    H130932   2.886   2.109   8.080  0.4553 -0.3700  0.1041
 3099TIP3    H230933   3.017   2.066   8.017  0.2959  1.5163 -1.6581
 3100TIP3   OH230934   4.984   2.459   0.558  0.8717  0.3034 -0.8137
 3100TIP3    H130935   4.914   2.394   0.552  1.2637 -0.2563  0.3199
 3100TIP3    H230936   4.944   2.540   0.527 -0.5755  0.1951  0.6047
 3101TIP3   OH230937   4.841   3.246   1.379 -0.1030  0.4093 -0.5219
 3101TIP3    H130938   4.848   3.342   1.381 -0.4717  0.4731  2.6190
 3101TIP3    H230939   4.922   3.215   1.419 -1.1998 -0.4062  1.1913
 3102TIP3   OH230940   3.181   1.312   6.629 -0.4640  0.3275  0.3879
 3102TIP3    H130941   3.183   1.234   6.574  1.0962 -0.0904  0.9791
 3102TIP3    H230942   3.262   1.307   6.680  0.2901  2.9584 -0.4037
 3103TIP3   OH230943   0.978   3.584   1.665  0.1935 -0.2799 -0.1894
 3103TIP3    H130944   0.996   3.496   1.630  1.2527 -0.2034  0.1272
 3103TIP3    H230945   1.061   3.611   1.704 -0.4376  0.4135  0.7018
 3104TIP3   OH230946   2.798   2.079   1.131 -0.9876  0.6097 -0.0818
 3104TIP3    H130947   2.880   2.033   1.150 -1.9634 -0.1895  2.6917
 3104TIP3    H230948   2.812   2.167   1.168 -1.1543  0.6726 -0.1681
 3105TIP3   OH230949   5.058   4.161   0.077 -0.0169 -0.5395  1.0012
 3105TIP3    H130950   5.117   4.166   0.152  0.5904 -1.2029  0.5805
 3105TIP3    H230951   5.115   4.173   0.001 -0.6402  0.2465  0.6432
 3106TIP3   OH230952   0.813   3.483   1.009 -0.1239  0.3686  0.4434
 3106TIP3    H130953   0.882   3.427   1.045  2.2152  1.9211 -1.3253
 3106TIP3    H230954   0.815   3.562   1.064  0.8611  1.1833 -0.7108
 3107TIP3   OH230955   1.333   4.666   8.363  0.6769  0.9132  0.3512
 3107TIP3    H130956   1.273   4.610   8.413  1.0086 -0.3291 -0.6099
 3107TIP3    H230957   1.418   4.654   8.406  0.4544  1.9492  1.1307
 3108TIP3   OH230958   1.905   5.616   1.230  0.3184 -0.2386 -0.2118
 3108TIP3    H130959   1.828   5.587   1.181  1.5668 -1.3167 -1.6433
 3108TIP3    H230960   1.962   5.654   1.164  1.7789 -1.1294  0.4910
 3109TIP3   OH230961   6.221   2.565   0.316 -0.5787  0.1604  0.4465
 3109TIP3    H130962   6.293   2.605   0.364 -0.0901  0.0721 -0.2084
 3109TIP3    H230963   6.143   2.611   0.348 -0.1718  0.6863  0.7007
 3110TIP3   OH230964   4.007   5.745   0.073 -0.0527 -0.0058  0.1528
 3110TIP3    H130965   3.976   5.752   0.164  0.9823  0.0712  0.5077
 3110TIP3    H230966   3.929   5.721   0.023 -0.3266 -1.5335  1.2726
 3111TIP3   OH230967   1.166   3.922   0.965 -0.2464 -0.4744  0.0325
 3111TIP3    H130968   1.094   3.984   0.976 -0.6875 -1.0814  0.6634
 3111TIP3    H230969   1.201   3.910   1.054 -0.2201 -1.1876 -0.0690
 3112TIP3   OH230970   1.553   3.676   8.312 -0.3563 -0.0794  0.6545
 3112TIP3    H130971   1.582   3.761   8.346  0.3151  0.1390 -0.4185
 3112TIP3    H230972   1.588   3.612   8.373 -1.3294  0.4214  1.7903
 3113TIP3   OH230973   6.190   5.502   0.959  0.9268  0.6332  0.0727
 3113TIP3    H130974   6.243   5.426   0.981 -0.8058 -0.6909 -0.1345
 3113TIP3    H230975   6.243   5.577   0.987  3.2010 -0.5551 -0.8243
 3114TIP3   OH230976   6.574   0.766   8.259 -0.4749 -0.4667 -0.0383
 3114TIP3    H130977   6.499   0.803   8.213 -0.9662 -0.4014  0.7844
 3114TIP3    H230978   6.559   0.788   8.351  0.7830 -0.0528  0.0989
 3115TIP3   OH230979   1.000   1.067   0.568 -0.3747 -0.0098 -0.1643
 3115TIP3    H130980   1.085   1.095   0.602 -0.7635 -0.7038  1.4728
 3115TIP3    H230981   1.021   1.015   0.490  0.5921  1.0331 -0.6432
 3116TIP3   OH230982   3.928   1.534   0.059  0.2136  0.0354  0.3994
 3116TIP3    H130983   3.947   1.620   0.096 -0.7100  0.2259  0.4417
 3116TIP3    H230984   3.840   1.514   0.089 -0.6395  0.2593 -1.8270
 3117TIP3   OH230985   6.471   3.226   1.196 -0.2615 -0.2121 -0.1663
 3117TIP3    H130986   6.453   3.157   1.132 -2.0920  0.4025 -0.3504
 3117TIP3    H230987   6.523   3.182   1.264 -0.3673 -1.4700 -0.8713
 3118TIP3   OH230988   6.887   0.797   7.858 -0.1708  0.1023 -0.1079
 3118TIP3    H130989   6.863   0.802   7.951 -0.6284 -0.0588 -0.2151
 3118TIP3    H230990   6.847   0.715   7.828  0.0963  0.0832 -0.4128
 3119TIP3   OH230991   3.514   3.701   6.644 -0.3195 -0.5409 -0.6602
 3119TIP3    H130992   3.539   3.793   6.635  0.2512 -0.6177  0.0002
 3119TIP3    H230993   3.573   3.668   6.712  0.6874 -1.8509 -2.1015
 3120TIP3   OH230994   3.947   3.866   0.344 -0.0026  0.6017 -0.4054
 3120TIP3    H130995   3.935   3.955   0.376 -0.1970  0.5920 -0.4480
 3120TIP3    H230996   3.877   3.854   0.280 -1.2858 -0.2903  1.1024
 3121TIP3   OH230997   4.828   5.672   0.387 -0.4621  0.1644  0.0165
 3121TIP3    H130998   4.869   5.585   0.387 -0.1655  0.3027 -0.4222
 3121TIP3    H230999   4.901   5.733   0.402 -0.4064  0.4518 -1.3273
 3122TIP3   OH231000   1.623   0.542   1.850  0.3368 -0.1799 -0.4570
 3122TIP3    H131001   1.631   0.475   1.917 -2.9288  1.1542  1.4753
 3122TIP3    H231002   1.575   0.499   1.779 -1.9074  0.0422  0.8449
 3123TIP3   OH231003   6.821   0.120   7.161  0.0981 -0.5430 -0.2568
 3123TIP3    H131004   6.850   0.201   7.202 -0.6809  0.5339 -1.7369
 3123TIP3    H231005   6.900   0.082   7.124  0.1862  0.6471 -1.3633
 3124TIP3   OH231006   3.895   3.956   2.391  0.0020 -0.3688  0.3059
 3124TIP3    H131007   3.846   3.903   2.329 -0.5241  0.0255  0.3845
 3124TIP3    H231008   3.829   4.000   2.444  0.4396 -0.2202  0.7427
 3125TIP3   OH231009   6.672   2.179   1.153  0.5687  0.1182 -0.0583
 3125TIP3    H131010   6.671   2.255   1.095 -0.5576  1.3801  1.5350
 3125TIP3    H231011   6.708   2.109   1.099  1.6681  1.7599 -1.5840
 3126TIP3   OH231012   1.255   0.205   7.190  0.6822  0.4419  0.5138
 3126TIP3    H131013   1.285   0.259   7.117 -3.0989  2.1375 -0.0134
 3126TIP3    H231014   1.227   0.123   7.150  1.4936  0.1350  0.5547
 3127TIP3   OH231015   3.725   2.926   6.435  0.0920 -0.3626 -0.2598
 3127TIP3    H131016   3.722   3.021   6.422 -0.6123 -0.6416 -2.6489
 3127TIP3    H231017   3.664   2.910   6.507 -0.1590  0.9529 -0.1610
 3128TIP3   OH231018   5.370   5.166   1.020  0.0167 -0.1058  0.1455
 3128TIP3    H131019   5.292   5.121   1.054  0.7911 -1.1788  0.5661
 3128TIP3    H231020   5.406   5.212   1.096  1.6562 -2.3719  0.8609
 3129TIP3   OH231021   6.124   5.758   0.310 -0.4732 -0.1327 -0.1421
 3129TIP3    H131022   6.051   5.711   0.349 -0.9337 -0.1928 -1.0362
 3129TIP3    H231023   6.199   5.736   0.364 -0.6928 -1.8391 -0.4916
 3130TIP3   OH231024   5.118   6.118   8.108 -0.5944  0.0200 -0.4420
 3130TIP3    H131025   5.109   6.051   8.040 -1.0505  0.3096 -0.6713
 3130TIP3    H231026   5.078   6.079   8.186 -0.4832 -0.1351 -0.4617
 3131TIP3   OH231027   4.329   4.959   0.099 -0.1461 -0.4648  0.5690
 3131TIP3    H131028   4.324   4.906   0.020 -1.5286 -0.7229  0.8097
 3131TIP3    H231029   4.239   4.985   0.117  0.3662  1.1844  0.9929
 3132TIP3   OH231030   1.450   6.411   7.543  0.4391  0.4420  0.2457
 3132TIP3    H131031   1.385   6.367   7.598 -2.0129  0.8670 -2.1224
 3132TIP3    H231032   1.478   6.345   7.480  1.5078  0.5819  0.5486
 3133TIP3   OH231033   2.341   5.042   6.805  0.0636  0.5934  0.2598
 3133TIP3    H131034   2.286   4.970   6.775  0.3762  1.5882 -3.0881
 3133TIP3    H231035   2.430   5.014   6.784  0.4114  0.9862  1.1595
 3134TIP3   OH231036   6.757   5.741   6.306  0.6004  0.2333  0.1880
 3134TIP3    H131037   6.822   5.741   6.235 -0.6818  0.4087 -1.0328
 3134TIP3    H231038   6.702   5.818   6.288 -1.6927 -1.4518 -0.5346
 3135TIP3   OH231039   1.246   3.915   8.523 -0.5791 -0.1826 -0.3063
 3135TIP3    H131040   1.257   3.846   8.458 -1.2413 -0.2188 -0.3843
 3135TIP3    H231041   1.195   3.874   8.593 -0.8428  0.1860 -0.2833
 3136TIP3   OH231042   3.588   4.406   0.964 -0.5998 -0.9867 -0.0307
 3136TIP3    H131043   3.656   4.414   1.031 -0.4361 -0.0007 -0.3037
 3136TIP3    H231044   3.606   4.321   0.922  0.3900 -0.8034 -0.0161
 3137TIP3   OH231045   6.325   6.602   8.563 -0.6142 -0.1603  0.6773
 3137TIP3    H131046   6.376   6.522   8.569  0.3689  0.5044  1.5552
 3137TIP3    H231047   6.367   6.662   8.625 -0.3114  1.6036 -1.1512
 3138TIP3   OH231048   3.295   2.470   0.089 -0.1056 -0.4111  0.0974
 3138TIP3    H131049   3.274   2.564   0.089  2.8974  0.4007 -1.7450
 3138TIP3    H231050   3.261   2.438   0.005  1.2579 -0.2427 -0.5609
 3139TIP3   OH231051   6.698   3.681   6.710  0.2359 -0.0613  0.1744
 3139TIP3    H131052   6.631   3.615   6.691  1.1533 -0.7467 -0.8294
 3139TIP3    H231053   6.651   3.753   6.752 -1.2418 -0.2195 -1.1374
 3140TIP3   OH231054   1.448   3.945   0.089  0.2642 -0.3512  0.5028
 3140TIP3    H131055   1.430   3.963  -0.003  0.0432  0.3722  0.6789
 3140TIP3    H231056   1.368   3.972   0.135  0.5044 -0.3741  0.9390
 3141TIP3   OH231057   5.557   6.102   7.546  0.0696  0.4967 -0.1512
 3141TIP3    H131058   5.493   6.036   7.572  1.3149  0.6212  3.9090
 3141TIP3    H231059   5.504   6.175   7.513 -1.4809 -1.2953 -1.8501
 3142TIP3   OH231060   1.948   3.603   0.053  0.1215  0.0637 -0.2405
 3142TIP3    H131061   1.916   3.540  -0.012  0.7881 -1.9514  1.2651
 3142TIP3    H231062   1.889   3.678   0.045 -1.4926 -1.2417 -1.2773
 3143TIP3   OH231063   5.460   3.838   0.983  0.6670 -0.0461  0.1970
 3143TIP3    H131064   5.545   3.864   0.949  0.6699  1.0250  0.9521
 3143TIP3    H231065   5.417   3.921   1.005  0.2771 -0.6413  1.8054
 3144TIP3   OH231066   2.799   5.779   7.491 -0.1720  0.2280  0.6706
 3144TIP3    H131067   2.706   5.801   7.480 -0.5644 -1.8295 -0.9544
 3144TIP3    H231068   2.798   5.689   7.524  1.2221 -0.0440  0.0607
 3145TIP3   OH231069   1.640   3.710   7.813 -0.3273  0.4460  0.0868
 3145TIP3    H131070   1.726   3.669   7.807 -0.7245 -0.9004  2.3587
 3145TIP3    H231071   1.579   3.640   7.789 -0.8712  0.9495 -0.0243
 3146TIP3   OH231072   6.312   0.384   0.864 -0.6046 -0.7872 -0.0402
 3146TIP3    H131073   6.360   0.450   0.914  0.0585 -0.0758 -1.5224
 3146TIP3    H231074   6.255   0.341   0.927  1.5224 -1.2327  1.6734
 3147TIP3   OH231075   5.720   0.589   6.463 -0.0510  0.5321 -0.0632
 3147TIP3    H131076   5.662   0.610   6.536 -1.2217 -2.4521  0.0039
 3147TIP3    H231077   5.736   0.495   6.471  1.4131  0.4703 -2.5247
 3148TIP3   OH231078   6.077   3.116   8.302 -0.5321 -0.1078  0.4205
 3148TIP3    H131079   5.998   3.087   8.349 -0.8708 -0.6456 -0.4522
 3148TIP3    H231080   6.137   3.041   8.307 -0.3718  0.0234  0.4510
 3149TIP3   OH231081   2.207   3.852   7.856  0.0415  0.1730  0.4183
 3149TIP3    H131082   2.114   3.845   7.880 -0.1913  0.9641 -0.2066
 3149TIP3    H231083   2.223   3.946   7.851  0.9505  0.0465  0.7554
 3150TIP3   OH231084   0.541   5.382   1.575  0.9329  0.1422  0.4585
 3150TIP3    H131085   0.509   5.338   1.654  1.6354 -0.3850  0.4595
 3150TIP3    H231086   0.522   5.321   1.504 -3.8913  2.3979 -0.5914
 3151TIP3   OH231087   6.880   4.677   0.658  0.0740  0.2513  0.1327
 3151TIP3    H131088   6.854   4.766   0.633  0.1031  0.3928  0.6001
 3151TIP3    H231089   6.798   4.628   0.664  0.0321  0.3350  0.2229
 3152TIP3   OH231090   6.168   1.259   7.513 -0.0251 -0.0597 -0.0372
 3152TIP3    H131091   6.197   1.239   7.602  0.9587  0.3954 -0.2430
 3152TIP3    H231092   6.079   1.292   7.524  0.1018  0.0399  0.7851
 3153TIP3   OH231093   0.843   5.933   0.428 -0.2333  0.1198 -0.1113
 3153TIP3    H131094   0.912   5.891   0.377  0.7720  0.5842  0.8229
 3153TIP3    H231095   0.777   5.957   0.363  0.3669 -0.5427 -0.9961
 3154TIP3   OH231096   1.308   2.535   0.752 -0.4052  0.0682 -0.4820
 3154TIP3    H131097   1.323   2.602   0.818 -0.0558 -1.3164  0.9121
 3154TIP3    H231098   1.310   2.452   0.801 -1.4217 -0.9317 -2.0291
 3155TIP3   OH231099   1.731   5.604   7.055  0.1775 -0.6234  0.2014
 3155TIP3    H131100   1.819   5.584   7.085 -0.0989 -2.1472  0.0501
 3155TIP3    H231101   1.707   5.530   6.999 -1.2663 -0.3154  0.3801
 3156TIP3   OH231102   0.962   6.743   7.756  0.3597  0.4036 -0.1032
 3156TIP3    H131103   1.006   6.743   7.841 -1.1593 -1.6234  0.7438
 3156TIP3    H231104   0.977   6.656   7.721  0.7919  1.1479 -1.8791
 3157TIP3   OH231105   4.019   4.222   6.989 -0.2765  0.6608 -0.0609
 3157TIP3    H131106   4.079   4.219   6.915  0.9812  0.6320  0.9164
 3157TIP3    H231107   3.990   4.314   6.993 -0.0519  0.7437 -0.3599
 3158TIP3   OH231108   2.831   3.594   2.319  0.1826  0.1185  0.1992
 3158TIP3    H131109   2.836   3.689   2.335  1.9450 -0.0965  1.1442
 3158TIP3    H231110   2.909   3.574   2.267  0.9430 -1.1141  1.7557
 3159TIP3   OH231111   2.794   6.472   1.926  0.2407  0.3499 -0.4819
 3159TIP3    H131112   2.851   6.457   2.002  0.0176  0.3142 -0.3226
 3159TIP3    H231113   2.855   6.497   1.856  0.3933  0.9883 -0.1310
 3160TIP3   OH231114   0.748   6.525   7.162 -0.4446 -0.0560 -0.1739
 3160TIP3    H131115   0.748   6.570   7.078  1.6942  0.6291  0.1383
 3160TIP3    H231116   0.812   6.574   7.215 -1.7433 -0.4606  1.8562
 3161TIP3   OH231117   0.076   1.511   0.519 -0.1871 -0.1628  0.1652
 3161TIP3    H131118   0.086   1.501   0.425 -0.8806 -1.7167  0.2275
 3161TIP3    H231119   0.054   1.424   0.551 -0.0858  0.3506  1.7601
 3162TIP3   OH231120   2.573   4.916   7.778 -0.2273 -0.2392 -0.7669
 3162TIP3    H131121   2.519   4.950   7.706  1.4321  0.3749 -1.7630
 3162TIP3    H231122   2.659   4.954   7.764  0.8885 -2.3632 -0.0946
 3163TIP3   OH231123   2.221   3.225   7.277 -0.2019 -0.0422  0.0128
 3163TIP3    H131124   2.231   3.177   7.359  0.0109  0.2806  0.1798
 3163TIP3    H231125   2.292   3.193   7.221 -1.0591 -1.1215 -0.4763
 3164TIP3   OH231126   6.807   4.944   7.957  0.2441  0.2151  0.5007
 3164TIP3    H131127   6.845   4.957   8.044  1.2326 -0.0713  0.1256
 3164TIP3    H231128   6.840   5.017   7.904 -1.1493  0.9504  0.5985
 3165TIP3   OH231129   4.348   2.892   1.305 -0.1123 -0.3262  0.1233
 3165TIP3    H131130   4.397   2.972   1.325 -0.9927  0.3740 -0.4273
 3165TIP3    H231131   4.414   2.831   1.273  0.5302  0.2885  0.2293
 3166TIP3   OH231132   2.690   5.378   0.592 -0.2470 -0.1767 -0.6464
 3166TIP3    H131133   2.730   5.292   0.579  0.0543 -0.1928  0.3036
 3166TIP3    H231134   2.603   5.370   0.554 -0.0558 -0.7576 -0.9728
 3167TIP3   OH231135   6.435   2.937   1.150 -0.0365 -0.1920  0.0507
 3167TIP3    H131136   6.448   2.858   1.202 -1.6011 -0.1822  0.5204
 3167TIP3    H231137   6.341   2.953   1.154  0.1008  1.0793 -0.9546
 3168TIP3   OH231138   0.445   3.938   2.529 -0.2711  0.3515 -0.0060
 3168TIP3    H131139   0.463   3.990   2.451 -1.6073  0.6033 -0.1676
 3168TIP3    H231140   0.451   4.000   2.602 -0.6940  0.4865 -0.0828
 3169TIP3   OH231141   3.225   3.581   0.541 -0.2904 -0.5295  0.4987
 3169TIP3    H131142   3.317   3.603   0.525 -0.5295  0.1154 -0.0514
 3169TIP3    H231143   3.221   3.559   0.634  0.6696 -1.9069  0.2410
 3170TIP3   OH231144   5.682   6.604   0.749  0.0169  0.3208 -0.2184
 3170TIP3    H131145   5.752   6.601   0.684 -0.7929 -1.3360 -1.0828
 3170TIP3    H231146   5.671   6.513   0.776 -2.2691  0.4101 -0.6615
 3171TIP3   OH231147   5.064   5.871   0.338 -0.2527 -0.0099  0.2386
 3171TIP3    H131148   5.036   5.901   0.252  0.2737  1.7154  0.6304
 3171TIP3    H231149   5.124   5.798   0.320 -0.2352  0.2549 -0.8393
 3172TIP3   OH231150   4.931   6.002   1.282 -0.1563 -0.4142 -0.2063
 3172TIP3    H131151   5.010   6.002   1.336 -0.2887 -0.8948 -0.0077
 3172TIP3    H231152   4.959   6.038   1.198 -0.0692  0.8549  0.3438
 3173TIP3   OH231153   1.971   6.149   6.664  0.3012  0.0476 -0.2533
 3173TIP3    H131154   1.961   6.238   6.630  2.3344  0.3785 -0.0896
 3173TIP3    H231155   1.901   6.099   6.622 -1.7426  1.9747  0.6831
 3174TIP3   OH231156   6.708   4.731   7.817 -0.1428  0.0120 -0.1482
 3174TIP3    H131157   6.767   4.785   7.871 -1.0882  0.6494  0.2730
 3174TIP3    H231158   6.657   4.795   7.768 -0.8235 -0.5227 -0.1437
 3175TIP3   OH231159   2.921   3.906   0.553 -0.1310 -0.0057  0.2381
 3175TIP3    H131160   2.975   3.888   0.630 -0.4426  0.5709  0.5902
 3175TIP3    H231161   2.849   3.843   0.560 -0.6551  0.6629  0.9103
 3176TIP3   OH231162   0.364   3.337   0.352 -0.2817 -0.1452 -0.0590
 3176TIP3    H131163   0.292   3.276   0.337 -1.0635  1.1604 -2.0026
 3176TIP3    H231164   0.433   3.306   0.293  0.4420 -0.8217  1.0968
 3177TIP3   OH231165   2.525   5.564   0.336 -0.9375  0.3422  0.2753
 3177TIP3    H131166   2.491   5.605   0.257  0.6235  1.5203  0.1556
 3177TIP3    H231167   2.511   5.628   0.405  0.9013  0.8588  0.2272
 3178TIP3   OH231168   4.942   1.741   0.185  0.1415 -0.5146 -0.0933
 3178TIP3    H131169   4.916   1.804   0.252 -0.0885 -0.4141 -0.2759
 3178TIP3    H231170   4.898   1.771   0.106  0.5779 -0.5131 -0.3387
 3179TIP3   OH231171   3.668   5.982   2.487 -0.2544 -0.3206  0.2228
 3179TIP3    H131172   3.729   6.054   2.505 -0.6930 -0.3051  1.7985
 3179TIP3    H231173   3.581   6.021   2.498 -0.5029 -0.9374  0.4951
 3180TIP3   OH231174   6.323   6.492   1.056  0.2947  0.0963 -0.6186
 3180TIP3    H131175   6.350   6.406   1.089  0.5237  0.8947  1.4025
 3180TIP3    H231176   6.239   6.509   1.099 -0.6179  0.2014 -2.3215
 3181TIP3   OH231177   0.392   0.686   1.116 -0.6622  0.0786  0.7024
 3181TIP3    H131178   0.383   0.655   1.025 -1.0463  1.0664  0.3929
 3181TIP3    H231179   0.486   0.687   1.132 -0.6115 -0.5711  0.4874
 3182TIP3   OH231180   2.908   5.570   1.505  0.2837 -0.0098  0.3245
 3182TIP3    H131181   2.858   5.651   1.514 -0.0229 -0.3773  2.2634
 3182TIP3    H231182   2.842   5.501   1.497  0.4874 -0.3155  1.1787
 3183TIP3   OH231183   5.960   0.626   1.502 -0.5402  0.1286 -0.1490
 3183TIP3    H131184   5.922   0.671   1.578 -1.7916 -0.0731 -0.6233
 3183TIP3    H231185   5.891   0.567   1.473 -0.0567  0.1473 -1.4011
 3184TIP3   OH231186   6.642   4.533   0.656  0.6286 -0.2871  0.5473
 3184TIP3    H131187   6.574   4.598   0.640  2.2195  1.2575 -0.3483
 3184TIP3    H231188   6.624   4.499   0.744  0.1017  1.8557  1.3128
 3185TIP3   OH231189   5.549   4.453   1.253  0.0517  0.4871 -0.5956
 3185TIP3    H131190   5.554   4.445   1.348 -1.1473 -0.3630 -0.5798
 3185TIP3    H231191   5.571   4.544   1.235  0.8960  0.4989  0.4364
 3186TIP3   OH231192   4.673   1.725   0.424 -0.0305 -0.3514 -0.0889
 3186TIP3    H131193   4.734   1.659   0.393  2.2143  1.6528 -0.2451
 3186TIP3    H231194   4.625   1.683   0.495  2.2745 -1.7435  0.7327
 3187TIP3   OH231195   4.650   4.982   8.079 -0.1390 -0.4447  0.6442
 3187TIP3    H131196   4.729   4.991   8.133 -0.6004  2.3395  1.0318
 3187TIP3    H231197   4.657   5.054   8.016 -0.6958 -2.2860 -1.6792
 3188TIP3   OH231198   1.440   3.487   0.254  0.4547 -0.5300  0.0914
 3188TIP3    H131199   1.519   3.540   0.245  0.9062 -1.2889 -0.6326
 3188TIP3    H231200   1.473   3.400   0.277 -0.2157 -0.6994  0.4298
 3189TIP3   OH231201   4.579   2.738   7.795  0.1296 -0.3759 -0.6553
 3189TIP3    H131202   4.578   2.683   7.874  0.3769  0.2370 -0.2170
 3189TIP3    H231203   4.663   2.720   7.754  0.4387  0.0713 -0.2243
 3190TIP3   OH231204   4.060   5.080   0.094  0.5126  0.0798  0.0929
 3190TIP3    H131205   3.979   5.040   0.129  0.3424 -0.1182 -0.5225
 3190TIP3    H231206   4.030   5.139   0.026  0.8478  0.4943  0.3031
 3191TIP3   OH231207   2.454   2.043   0.092 -0.2111  0.3796 -0.5955
 3191TIP3    H131208   2.375   1.992   0.110 -0.1191  0.1641 -0.7923
 3191TIP3    H231209   2.439   2.082   0.006 -0.5280  1.1728 -0.1928
 3192TIP3   OH231210   3.845   4.080   8.517  0.4201  0.1701 -0.1518
 3192TIP3    H131211   3.939   4.066   8.529  0.1925 -0.6646  0.8603
 3192TIP3    H231212   3.815   4.002   8.470  0.1504  0.1855 -0.0081
 3193TIP3   OH231213   5.364   1.156   7.390  0.4420  0.2319 -0.2829
 3193TIP3    H131214   5.425   1.176   7.462  2.1202  0.2217 -1.6277
 3193TIP3    H231215   5.393   1.070   7.358  0.7823  0.9486 -1.9841
 3194TIP3   OH231216   4.969   6.717   1.936 -0.1101 -0.0246  0.4655
 3194TIP3    H131217   5.051   6.758   1.912 -0.4631  0.3486 -0.1213
 3194TIP3    H231218   4.994   6.633   1.975  0.5126 -0.3016 -0.4930
 3195TIP3   OH231219   6.354   2.124   7.841 -0.3884  0.1137  0.4474
 3195TIP3    H131220   6.346   2.215   7.812  0.1198  0.2529  0.7234
 3195TIP3    H231221   6.285   2.077   7.794  1.0456  0.1228 -1.8182
 3196TIP3   OH231222   0.486   1.115   8.323  0.1083  0.0205 -0.1221
 3196TIP3    H131223   0.450   1.094   8.237 -1.8689 -0.1715  0.6888
 3196TIP3    H231224   0.564   1.167   8.305 -1.5256  1.9778 -2.0451
 3197TIP3   OH231225   5.529   3.707   7.181  0.3345  0.0562 -0.2493
 3197TIP3    H131226   5.617   3.710   7.143  0.0296  0.4803 -0.9504
 3197TIP3    H231227   5.541   3.666   7.267  1.1399 -0.3352 -0.5390
 3198TIP3   OH231228   5.233   5.269   1.347  0.3863  0.3409 -0.0988
 3198TIP3    H131229   5.246   5.259   1.441  1.1155 -0.0329 -0.2391
 3198TIP3    H231230   5.274   5.352   1.326  0.0149  0.5379 -0.0478
 3199TIP3   OH231231   3.302   1.592   0.661  0.5993 -0.2694  0.2437
 3199TIP3    H131232   3.253   1.550   0.732  0.4207  0.5001  0.5809
 3199TIP3    H231233   3.240   1.598   0.588  0.8988 -1.4188 -0.1230
 3200TIP3   OH231234   5.827   1.467   7.673  0.3978  0.0531  0.2662
 3200TIP3    H131235   5.789   1.539   7.623 -1.6049 -1.2916 -0.2602
 3200TIP3    H231236   5.804   1.485   7.764 -0.5287 -0.1507  0.0775
 3201TIP3   OH231237   1.372   5.392   6.850 -0.3333  0.2948 -0.1855
 3201TIP3    H131238   1.295   5.335   6.846  0.2643 -0.7403  1.7164
 3201TIP3    H231239   1.409   5.387   6.762 -0.8474 -1.5357 -0.3494
 3202TIP3   OH231240   2.817   3.707   8.305  0.8050  0.3539 -0.1214
 3202TIP3    H131241   2.803   3.674   8.394  1.4055  1.2899  0.3364
 3202TIP3    H231242   2.795   3.633   8.248  0.6261 -0.3270  0.8086
 3203TIP3   OH231243   1.308   1.744   2.399 -0.0433  0.5298  0.2800
 3203TIP3    H131244   1.287   1.827   2.354 -2.8575 -0.6402 -0.7751
 3203TIP3    H231245   1.344   1.689   2.330  2.5012  0.9837  1.1281
 3204TIP3   OH231246   1.761   0.763   2.001  0.4026 -0.4406  0.2821
 3204TIP3    H131247   1.786   0.767   2.093  0.5014  0.2231  0.2337
 3204TIP3    H231248   1.832   0.715   1.958  0.8967  0.2048  0.3752
 3205TIP3   OH231249   0.620   2.887   1.538  1.0429 -0.4590 -0.6959
 3205TIP3    H131250   0.560   2.814   1.521 -1.2041  1.2101 -0.3944
 3205TIP3    H231251   0.595   2.919   1.624  3.2453 -0.4171  0.0036
 3206TIP3   OH231252   1.190   5.651   0.933 -0.0920  0.0136 -0.1274
 3206TIP3    H131253   1.111   5.665   0.881  0.0592  0.7491 -0.1736
 3206TIP3    H231254   1.261   5.643   0.869  0.2111  1.6816 -0.0484
 3207TIP3   OH231255   0.829   6.613   0.639  0.0334  0.2072 -0.4844
 3207TIP3    H131256   0.914   6.638   0.677  1.4802 -1.4643 -2.4103
 3207TIP3    H231257   0.850   6.544   0.577 -2.9211 -1.0122 -0.2865
 3208TIP3   OH231258   0.955   3.678   1.138 -0.2310  0.2590 -0.0925
 3208TIP3    H131259   0.967   3.767   1.171 -0.6996  0.3682 -0.2132
 3208TIP3    H231260   1.041   3.655   1.102 -0.1297  0.6962 -0.1436
 3209TIP3   OH231261   0.270   1.591   6.733 -0.0287 -0.1602  0.4332
 3209TIP3    H131262   0.353   1.552   6.706 -0.3720 -0.9677  0.5087
 3209TIP3    H231263   0.221   1.600   6.651 -0.4899 -1.2087  0.5830
 3210TIP3   OH231264   1.699   4.564   7.700 -0.1896  0.2457 -0.4936
 3210TIP3    H131265   1.689   4.572   7.795  1.0612  0.6083 -0.3643
 3210TIP3    H231266   1.634   4.623   7.664 -1.6374 -0.9395  0.0878
 3211TIP3   OH231267   4.086   4.908   0.589 -0.3360  0.0035 -0.1601
 3211TIP3    H131268   4.151   4.948   0.648 -0.9268 -0.5275  0.8808
 3211TIP3    H231269   4.085   4.965   0.512  1.2348  0.1215 -0.1352
 3212TIP3   OH231270   3.284   4.122   0.867 -0.4391  1.3268 -0.2796
 3212TIP3    H131271   3.273   4.119   0.962 -1.2908 -1.1965 -0.3891
 3212TIP3    H231272   3.379   4.129   0.854 -0.0752 -0.8235  0.8145
 3213TIP3   OH231273   6.475   1.767   5.848  0.6587  0.1459  0.1000
 3213TIP3    H131274   6.526   1.849   5.854 -0.5984  0.8838  1.2691
 3213TIP3    H231275   6.392   1.788   5.891  0.2985 -1.7545  0.3882
 3214TIP3   OH231276   1.320   1.070   6.434  0.4418 -0.0697  0.4819
 3214TIP3    H131277   1.396   1.083   6.377  0.9023 -2.0036  0.5780
 3214TIP3    H231278   1.246   1.106   6.384  1.2131  0.6082 -0.1986
 3215TIP3   OH231279   0.747   4.102   0.856  0.3746  0.1574 -0.1607
 3215TIP3    H131280   0.723   4.194   0.840  1.2452  0.4350  0.1144
 3215TIP3    H231281   0.712   4.055   0.780  0.1863  0.7601 -0.4552
 3216TIP3   OH231282   1.573   6.176   2.683 -0.0386  0.3844 -0.0764
 3216TIP3    H131283   1.668   6.163   2.687 -0.0329  0.2079 -0.6881
 3216TIP3    H231284   1.537   6.087   2.679 -0.1568  0.4724 -1.1784
 3217TIP3   OH231285   6.749   2.624   6.928  0.0526 -0.1065 -0.3355
 3217TIP3    H131286   6.782   2.581   6.849 -0.0814  0.0212 -0.4614
 3217TIP3    H231287   6.828   2.649   6.976  0.1344 -1.0854  0.0668
 3218TIP3   OH231288   2.069   0.918   6.987  0.8725 -0.0415  0.2976
 3218TIP3    H131289   1.985   0.934   6.945 -0.1229 -1.8884  1.4500
 3218TIP3    H231290   2.132   0.966   6.933 -0.5867 -0.5577 -2.0236
 3219TIP3   OH231291   5.411   3.240   0.846  0.7508 -0.3245 -0.4443
 3219TIP3    H131292   5.319   3.266   0.854  0.1120 -1.9383 -1.8956
 3219TIP3    H231293   5.445   3.293   0.774  0.6068 -0.5528 -0.6843
 3220TIP3   OH231294   0.408   2.623   6.831  0.1688  0.1400  0.3080
 3220TIP3    H131295   0.491   2.659   6.860  0.9825 -0.8164 -0.7302
 3220TIP3    H231296   0.424   2.529   6.823 -0.5450  0.1228 -1.3524
 3221TIP3   OH231297   5.899   3.091   2.249 -0.8637 -0.0924 -0.3681
 3221TIP3    H131298   5.850   3.168   2.220  0.0444  0.6363  0.0028
 3221TIP3    H231299   5.950   3.065   2.172 -1.0059 -0.1912 -0.4288
 3222TIP3   OH231300   6.782   5.103   1.405 -0.4905  0.6223 -1.1106
 3222TIP3    H131301   6.762   5.089   1.498  1.8813 -0.7407 -0.7236
 3222TIP3    H231302   6.818   5.192   1.402  1.4977 -0.0873 -0.2513
 3223TIP3   OH231303   2.969   0.243   6.294 -0.2177  0.2284  0.4835
 3223TIP3    H131304   2.947   0.160   6.253  1.3223  0.5367 -1.0988
 3223TIP3    H231305   3.001   0.219   6.381  2.9657 -1.2522 -0.9235
 3224TIP3   OH231306   3.966   2.789   1.338  0.1278 -0.1312  0.2675
 3224TIP3    H131307   3.985   2.757   1.426  0.9301  3.9638  1.8390
 3224TIP3    H231308   3.873   2.812   1.340  0.2851  0.5385  0.3108
 3225TIP3   OH231309   1.841   6.720   1.631 -0.0170 -0.9232  0.7309
 3225TIP3    H131310   1.894   6.793   1.600  2.8691 -2.9631  0.4218
 3225TIP3    H231311   1.766   6.761   1.673  1.6965  2.2305  1.0284
 3226TIP3   OH231312   2.642   2.715   0.681  0.2021 -0.5054 -0.3900
 3226TIP3    H131313   2.578   2.658   0.724 -1.6035  0.1967 -2.0266
 3226TIP3    H231314   2.716   2.657   0.662 -0.6340 -1.7570  0.0651
 3227TIP3   OH231315   2.666   3.610   2.014 -0.2905 -0.5584 -0.5284
 3227TIP3    H131316   2.684   3.537   1.955 -1.3026 -1.9086  0.7449
 3227TIP3    H231317   2.625   3.569   2.091 -1.4967  1.4254 -0.0416
 3228TIP3   OH231318   4.469   0.808   7.780  0.3554 -0.2921  0.3567
 3228TIP3    H131319   4.496   0.725   7.818  0.7467  0.2295  1.2295
 3228TIP3    H231320   4.383   0.789   7.741  0.6003 -1.1878  0.2277
 3229TIP3   OH231321   2.668   1.906   1.813 -0.3948 -0.7351 -0.6214
 3229TIP3    H131322   2.611   1.923   1.888 -0.7233 -3.1328 -0.2351
 3229TIP3    H231323   2.628   1.831   1.769  0.4453 -0.1135 -2.5324
 3230TIP3   OH231324   2.846   4.004   1.397  0.4456  0.4414  0.3546
 3230TIP3    H131325   2.895   3.985   1.477 -0.7291  2.6350  1.6816
 3230TIP3    H231326   2.777   3.936   1.395  0.6919  0.1594  1.0116
 3231TIP3   OH231327   4.474   2.713   0.801 -0.0266  0.1798 -0.1045
 3231TIP3    H131328   4.427   2.652   0.743 -0.5646  1.2127 -0.7827
 3231TIP3    H231329   4.472   2.670   0.887  1.7766 -1.9243 -1.0196
 3232TIP3   OH231330   6.136   5.306   6.988  0.0291  0.3110 -0.0713
 3232TIP3    H131331   6.203   5.245   7.019 -0.8085 -0.1154  0.9078
 3232TIP3    H231332   6.172   5.339   6.905  0.2120 -1.9976 -0.9857
 3233TIP3   OH231333   3.095   4.770   1.306 -0.2534 -0.2993 -0.4623
 3233TIP3    H131334   3.030   4.721   1.257  0.1562 -0.1002 -1.2167
 3233TIP3    H231335   3.084   4.741   1.397 -3.1032  1.5522 -0.0820
 3234TIP3   OH231336   6.187   6.366   2.642 -0.3194  0.3169 -0.1227
 3234TIP3    H131337   6.220   6.454   2.626  1.9821 -0.6771 -1.3125
 3234TIP3    H231338   6.262   6.319   2.678 -1.4425 -1.2171  0.3050
 3235TIP3   OH231339   6.882   1.183   7.453  0.1205 -0.1630  0.0796
 3235TIP3    H131340   6.793   1.154   7.474 -0.0650  0.3397  0.0032
 3235TIP3    H231341   6.882   1.276   7.474  0.7160 -0.2183  0.3487
 3236TIP3   OH231342   0.397   2.046   7.660  0.4561  0.0907  0.0554
 3236TIP3    H131343   0.316   2.050   7.710  1.8268  1.3487  2.3116
 3236TIP3    H231344   0.398   1.957   7.623 -0.3276 -1.1804  2.8424
 3237TIP3   OH231345   4.445   2.049   1.726 -0.4096 -0.1056 -0.4092
 3237TIP3    H131346   4.363   2.057   1.676  0.1623 -0.1745 -1.3903
 3237TIP3    H231347   4.417   2.052   1.818 -1.3064  1.9871 -0.7010
 3238TIP3   OH231348   2.129   5.444   0.212  0.4632 -0.2012 -0.1291
 3238TIP3    H131349   2.119   5.416   0.303 -1.7623 -0.9970 -0.5575
 3238TIP3    H231350   2.188   5.380   0.173  0.9313 -0.2147  0.5937
 3239TIP3   OH231351   5.047   0.967   0.226  0.6514 -0.1237  0.0024
 3239TIP3    H131352   5.099   0.980   0.147  0.0652 -1.5789 -0.6633
 3239TIP3    H231353   4.956   0.965   0.195  0.2967  0.6861  0.9184
 3240TIP3   OH231354   2.654   5.206   8.452 -0.4784  0.2652 -0.2004
 3240TIP3    H131355   2.730   5.166   8.494 -0.8665 -0.3274 -0.0619
 3240TIP3    H231356   2.599   5.133   8.426 -1.2092  0.7023  0.0826
 3241TIP3   OH231357   4.801   6.654   0.533  0.0338 -0.5626 -1.0133
 3241TIP3    H131358   4.793   6.653   0.438  1.5563  1.4670 -1.2194
 3241TIP3    H231359   4.885   6.612   0.551 -0.0716 -0.6029 -0.6003
 3242TIP3   OH231360   2.245   2.543   1.028 -0.3854  0.0013  0.2303
 3242TIP3    H131361   2.234   2.578   1.117  0.7663  1.8455 -0.3009
 3242TIP3    H231362   2.335   2.512   1.025 -0.0157  1.0558 -0.6018
 3243TIP3   OH231363   0.442   6.769   8.302 -0.2470 -0.1819  0.6262
 3243TIP3    H131364   0.424   6.723   8.384 -0.6711 -0.1109  0.5749
 3243TIP3    H231365   0.537   6.781   8.302 -0.3819  1.1335  1.8142
 3244TIP3   OH231366   3.066   4.370   7.556 -0.3465 -0.2136  0.1299
 3244TIP3    H131367   3.042   4.278   7.572  0.0274 -0.2450  0.5018
 3244TIP3    H231368   3.112   4.397   7.635 -0.3711  0.2696 -0.0200
 3245TIP3   OH231369   5.872   6.214   0.014 -0.2244  0.1816 -0.3652
 3245TIP3    H131370   5.845   6.249  -0.070  1.0573  0.5973 -0.6248
 3245TIP3    H231371   5.871   6.289   0.073 -2.0350 -0.2753  0.2686
 3246TIP3   OH231372   1.604   6.791   5.952  1.1158 -0.4154  0.2388
 3246TIP3    H131373   1.695   6.770   5.933  1.2649  0.3771  0.0446
 3246TIP3    H231374   1.554   6.754   5.879  1.1137 -2.0288  0.9959
 3247TIP3   OH231375   0.047   3.972   0.876  0.6833 -0.6015 -0.1826
 3247TIP3    H131376   0.111   4.042   0.868 -0.4142  0.2492 -2.3005
 3247TIP3    H231377   0.100   3.892   0.884  2.1245 -0.0293 -2.7023
 3248TIP3   OH231378   1.606   0.277   6.329  0.2928 -0.0704 -0.0558
 3248TIP3    H131379   1.516   0.266   6.298  0.1836 -1.0450  0.5440
 3248TIP3    H231380   1.651   0.198   6.299  0.7460  0.0290  0.3524
 3249TIP3   OH231381   2.156   0.864   1.594  0.1386 -0.9674  0.1026
 3249TIP3    H131382   2.186   0.945   1.552  1.2436 -2.2782 -1.8176
 3249TIP3    H231383   2.080   0.891   1.645  0.4133  1.2696 -0.5370
 3250TIP3   OH231384   5.762   0.055   6.650  0.3305 -0.4150  0.3072
 3250TIP3    H131385   5.854   0.081   6.655 -0.0452  0.8838  0.8147
 3250TIP3    H231386   5.764  -0.041   6.644  1.6568 -0.6454  3.0539
 3251TIP3   OH231387   6.414   0.875   2.991 -0.3533 -0.2707  0.4126
 3251TIP3    H131388   6.508   0.862   3.001 -0.5374 -1.8505  0.3215
 3251TIP3    H231389   6.401   0.886   2.897 -0.0082  2.5908  0.6001
 3252TIP3   OH231390   3.184   6.252   6.886  0.7896  0.5863  0.8303
 3252TIP3    H131391   3.253   6.319   6.886  1.7071 -0.3317  1.5938
 3252TIP3    H231392   3.128   6.276   6.960  1.3661  0.2831  1.3785
 3253TIP3   OH231393   1.395   0.713   6.582  0.1374 -0.2502  0.4691
 3253TIP3    H131394   1.420   0.621   6.573  0.9147 -0.0471  0.4942
 3253TIP3    H231395   1.455   0.759   6.523 -1.0367  0.1244 -0.4742
 3254TIP3   OH231396   3.027   5.194   1.101  0.2265 -0.4074 -0.1970
 3254TIP3    H131397   3.016   5.146   1.183  2.3444  0.4707  0.6605
 3254TIP3    H231398   3.106   5.157   1.062 -1.7134 -2.1155 -2.8673
 3255TIP3   OH231399   3.068   0.695   8.566 -0.0689  0.2396  0.4793
 3255TIP3    H131400   3.156   0.688   8.528  0.6916 -0.4290  2.2793
 3255TIP3    H231401   3.077   0.758   8.637 -1.0480  0.1375  0.7079
 3256TIP3   OH231402   5.940   6.549   7.938  0.0752  0.1624  0.0444
 3256TIP3    H131403   5.858   6.502   7.950  0.6003 -0.9971 -0.7627
 3256TIP3    H231404   5.930   6.594   7.854 -0.2055  1.0559  0.5443
 3257TIP3   OH231405   1.709   6.069   0.516 -0.1078 -0.2797 -0.9798
 3257TIP3    H131406   1.732   6.086   0.425 -1.5346 -2.1826 -1.7529
 3257TIP3    H231407   1.615   6.051   0.515  0.1846 -2.3068  0.5106
 3258TIP3   OH231408   1.912   6.608   8.491 -0.2214 -0.5014  0.5067
 3258TIP3    H131409   1.925   6.702   8.506 -1.9964 -0.1873  0.2599
 3258TIP3    H231410   1.973   6.587   8.420  1.0379  0.1814  1.3444
 3259TIP3   OH231411   6.769   6.453   8.271  0.8464 -1.4330  0.3189
 3259TIP3    H131412   6.784   6.384   8.336  1.4128 -1.3044  0.3295
 3259TIP3    H231413   6.778   6.535   8.320 -0.6389 -1.3297  0.4909
 3260TIP3   OH231414   4.606   1.718   0.134  0.1553 -0.1912 -0.3612
 3260TIP3    H131415   4.567   1.806   0.138 -1.8164 -0.9821 -1.0648
 3260TIP3    H231416   4.599   1.686   0.224  2.5638  0.9776  0.3381
 3261TIP3   OH231417   1.911   2.205   7.646  0.4599 -0.2069  0.0030
 3261TIP3    H131418   1.833   2.256   7.625 -0.3989 -2.2398 -2.1834
 3261TIP3    H231419   1.892   2.165   7.730 -1.0749 -0.9498 -0.6546
 3262TIP3   OH231420   5.991   0.273   1.978  0.1634  0.2128  0.1361
 3262TIP3    H131421   5.946   0.222   2.045 -1.0061  2.0287  0.8054
 3262TIP3    H231422   5.923   0.295   1.915  0.5787  1.1299 -0.0054
 3263TIP3   OH231423   2.147   5.950   8.268 -0.0682  0.4492 -0.1474
 3263TIP3    H131424   2.166   5.999   8.187 -0.8067 -0.5184 -0.9310
 3263TIP3    H231425   2.103   6.014   8.324 -1.9868  0.4533 -1.5710
 3264TIP3   OH231426   1.816   4.071   7.406  0.4589  0.2419 -0.3205
 3264TIP3    H131427   1.746   4.107   7.461 -0.5622 -1.5787 -0.3362
 3264TIP3    H231428   1.771   4.011   7.346  1.8435  0.3513 -1.5296
 3265TIP3   OH231429   5.930   4.091   0.680  0.1606  0.3829  0.2195
 3265TIP3    H131430   5.881   4.018   0.716  0.3186  0.0943 -0.1541
 3265TIP3    H231431   5.944   4.149   0.756 -1.0483  0.6499  0.2610
 3266TIP3   OH231432   5.929   0.958   1.410  0.8045 -0.4910  0.1051
 3266TIP3    H131433   6.011   1.005   1.428  1.4797 -1.7926  0.5518
 3266TIP3    H231434   5.898   0.997   1.328  1.7186  0.2194  0.0701
 3267TIP3   OH231435   4.166   1.644   7.971 -0.7439 -0.2072 -0.6296
 3267TIP3    H131436   4.160   1.615   8.062 -0.0801  1.5352  0.0252
 3267TIP3    H231437   4.203   1.733   7.977  1.9115 -1.0281 -2.7502
 3268TIP3   OH231438   5.923   4.637   8.176 -0.4714  0.3421  0.2854
 3268TIP3    H131439   6.007   4.638   8.131 -0.6391  1.6035 -0.0521
 3268TIP3    H231440   5.893   4.546   8.170 -0.5891  0.4763 -2.4008
 3269TIP3   OH231441   5.622   1.832   0.883 -0.4176  0.1359  0.2016
 3269TIP3    H131442   5.533   1.847   0.914 -0.1902 -0.2259  1.0491
 3269TIP3    H231443   5.636   1.738   0.894 -0.7807 -0.2615 -2.2330
 3270TIP3   OH231444   4.097   0.441   0.382  0.4125  0.3884 -0.0181
 3270TIP3    H131445   4.047   0.521   0.398 -1.4894 -0.8667  0.6490
 3270TIP3    H231446   4.096   0.430   0.287 -3.5106 -1.2361  0.0200
 3271TIP3   OH231447   3.253   3.750   1.482 -0.1333 -0.2863 -0.0162
 3271TIP3    H131448   3.304   3.745   1.564 -1.2817 -1.8970  0.6585
 3271TIP3    H231449   3.188   3.680   1.491  0.3446 -1.2010 -2.7557
 3272TIP3   OH231450   3.875   6.384   7.397  0.5131 -0.0599  0.2674
 3272TIP3    H131451   3.809   6.441   7.356  0.7557 -1.1451 -1.7702
 3272TIP3    H231452   3.827   6.336   7.464 -0.2717  0.6819  0.2640
 3273TIP3   OH231453   4.460   4.381   8.587  0.0970  0.2700 -0.0552
 3273TIP3    H131454   4.461   4.476   8.601 -2.6549  0.4024 -0.3038
 3273TIP3    H231455   4.531   4.365   8.524  0.6174  2.1437  0.0093
 3274TIP3   OH231456   5.090   1.462   2.216 -0.6679  0.1947 -0.2586
 3274TIP3    H131457   5.038   1.505   2.284 -0.6273 -1.4079  0.8401
 3274TIP3    H231458   5.063   1.505   2.135 -1.7840  1.1713  0.5908
 3275TIP3   OH231459   4.637   0.723   1.552 -0.4909 -0.2880  0.0319
 3275TIP3    H131460   4.627   0.653   1.616 -0.5199  0.3650  0.7520
 3275TIP3    H231461   4.548   0.737   1.517 -0.6826  0.1190  0.6727
 3276TIP3   OH231462   5.106   0.913   7.503 -0.3249  0.4803 -0.3911
 3276TIP3    H131463   5.150   0.998   7.508  0.0762  0.3755 -1.7161
 3276TIP3    H231464   5.103   0.893   7.410 -0.6373 -0.8508 -0.1189
 3277TIP3   OH231465   5.122   1.641   0.715 -0.1440  0.2814  0.1630
 3277TIP3    H131466   5.217   1.627   0.709 -0.0011  1.0022  0.5488
 3277TIP3    H231467   5.083   1.563   0.675  0.6013 -0.5519  1.0132
 3278TIP3   OH231468   0.164   2.140   7.758  0.1483 -0.6431 -0.3494
 3278TIP3    H131469   0.222   2.215   7.744 -0.0283 -0.5552 -0.6033
 3278TIP3    H231470   0.076   2.177   7.754  0.0739 -0.7562  0.1605
 3279TIP3   OH231471   1.875   2.943   2.384 -0.1551 -0.2824 -0.0981
 3279TIP3    H131472   1.816   3.009   2.420 -1.1406 -1.1463 -0.0615
 3279TIP3    H231473   1.954   2.948   2.439 -0.6005  0.1979  0.5085
 3280TIP3   OH231474   2.824   0.640   6.636  0.4078  0.1877 -0.1032
 3280TIP3    H131475   2.750   0.649   6.696 -0.3231 -0.3313 -0.9151
 3280TIP3    H231476   2.811   0.555   6.594  1.9706 -0.3548  0.4084
 3281TIP3   OH231477   3.174   5.026   0.197  0.1494  0.1807 -0.5325
 3281TIP3    H131478   3.251   5.074   0.167  1.6266 -1.6538  0.1426
 3281TIP3    H231479   3.131   4.996   0.117 -0.3309  1.8304 -0.9346
 3282TIP3   OH231480   5.794   4.303   6.555 -0.5656  0.3611  0.4246
 3282TIP3    H131481   5.790   4.214   6.520 -0.2925  0.5740 -0.1490
 3282TIP3    H231482   5.716   4.310   6.610  0.0695 -0.6663  1.5149
 3283TIP3   OH231483   1.673   6.858   1.810 -0.2920 -0.8729  0.5603
 3283TIP3    H131484   1.662   6.789   1.874  1.5640  0.8188  2.8804
 3283TIP3    H231485   1.737   6.917   1.849  1.0102  0.2580 -2.9121
 3284TIP3   OH231486   5.798   0.854   7.735 -0.0645 -0.1786  0.1214
 3284TIP3    H131487   5.727   0.808   7.690  1.1588 -1.8516 -0.2101
 3284TIP3    H231488   5.801   0.940   7.693  1.3847 -1.8070 -3.5503
 3285TIP3   OH231489   3.744   2.146   7.088  0.0992  0.1918  0.5122
 3285TIP3    H131490   3.733   2.238   7.065 -3.0888 -0.3580 -0.6727
 3285TIP3    H231491   3.720   2.099   7.008  5.3137 -1.8240 -0.2839
 3286TIP3   OH231492   4.924   6.072   6.415 -0.1715 -0.5046 -0.2295
 3286TIP3    H131493   4.891   5.986   6.438  0.0999 -0.3856  0.6377
 3286TIP3    H231494   4.997   6.055   6.355 -1.5722 -0.7764 -1.9257
 3287TIP3   OH231495   4.491   4.433   7.117 -0.3008 -0.2164 -0.2295
 3287TIP3    H131496   4.538   4.468   7.041 -0.4995  1.1184  0.2380
 3287TIP3    H231497   4.560   4.412   7.179 -0.2454  1.9517  0.5435
 3288TIP3   OH231498   5.206   4.526   0.829  0.0148 -0.2387  0.2371
 3288TIP3    H131499   5.282   4.572   0.865 -1.0078  0.1501  2.0348
 3288TIP3    H231500   5.157   4.496   0.906 -0.6171 -2.2725 -0.8779
 3289TIP3   OH231501   4.873   4.580   2.103 -0.6052 -0.0415 -0.0541
 3289TIP3    H131502   4.793   4.545   2.142 -1.1938  0.8229 -0.4660
 3289TIP3    H231503   4.942   4.561   2.168 -1.5106  1.1541  1.3055
 3290TIP3   OH231504   0.750   1.585   1.634 -0.2034 -0.2934  0.3386
 3290TIP3    H131505   0.690   1.579   1.560 -1.6383 -1.9328  1.5667
 3290TIP3    H231506   0.725   1.666   1.679  0.0927  0.2491 -0.4518
 3291TIP3   OH231507   0.881   1.524   7.376  0.5999 -0.1565  0.2315
 3291TIP3    H131508   0.893   1.608   7.332 -0.9483 -0.1427 -0.2351
 3291TIP3    H231509   0.873   1.545   7.469  0.0841  0.2371  0.1011
 3292TIP3   OH231510   0.364   4.374   7.534 -0.6295  0.4585  0.4015
 3292TIP3    H131511   0.379   4.440   7.466 -0.3310 -0.4953 -0.4787
 3292TIP3    H231512   0.395   4.415   7.614  0.0781  1.1839 -0.2253
 3293TIP3   OH231513   3.403   6.280   1.609 -0.2735  0.4618  0.4635
 3293TIP3    H131514   3.330   6.218   1.611 -0.1302  0.2977  0.7443
 3293TIP3    H231515   3.475   6.230   1.570  0.0699  0.1964  1.4207
 3294TIP3   OH231516   4.100   5.483   1.069  0.1752 -0.0191 -0.2039
 3294TIP3    H131517   4.190   5.472   1.038 -0.1600  0.1848 -1.2560
 3294TIP3    H231518   4.096   5.430   1.149  2.1534  2.4797  1.7011
 3295TIP3   OH231519   0.429   3.417   8.198 -0.0269 -0.0532 -0.4778
 3295TIP3    H131520   0.457   3.413   8.290  0.8994 -2.4951 -0.7776
 3295TIP3    H231521   0.494   3.472   8.155 -0.9585  1.8568  0.4178
 3296TIP3   OH231522   0.335   6.574   1.749  0.2721  0.1833 -0.3253
 3296TIP3    H131523   0.391   6.590   1.825 -0.4750  0.3009  0.2127
 3296TIP3    H231524   0.336   6.479   1.738  1.5523  0.2548 -1.0917
 3297TIP3   OH231525   2.759   2.953   1.342  0.3842  0.3196 -0.1449
 3297TIP3    H131526   2.807   3.036   1.337  1.5837 -0.2983  0.5509
 3297TIP3    H231527   2.691   2.969   1.408  0.2789  0.8949 -0.3836
 3298TIP3   OH231528   6.552   0.062   7.842 -0.2269 -0.1391 -0.4561
 3298TIP3    H131529   6.600  -0.019   7.822 -0.0901 -0.2358  0.2417
 3298TIP3    H231530   6.557   0.070   7.937 -1.2447  0.0743 -0.4133
 3299TIP3   OH231531   3.196   3.225   7.495 -0.0751 -0.0709 -0.6281
 3299TIP3    H131532   3.215   3.316   7.473 -0.9841  0.1597 -0.5017
 3299TIP3    H231533   3.159   3.228   7.583 -0.2621 -0.5426 -0.6863
 3300TIP3   OH231534   3.620   2.293   7.352 -0.0074  0.1197 -0.0140
 3300TIP3    H131535   3.611   2.264   7.443  3.8561 -1.0217  0.1510
 3300TIP3    H231536   3.662   2.378   7.357  1.8133 -0.6888 -0.6650
 3301TIP3   OH231537   4.153   1.709   2.583 -0.2029  0.2802 -0.7217
 3301TIP3    H131538   4.242   1.676   2.593 -0.3150 -0.9198 -3.0677
 3301TIP3    H231539   4.151   1.747   2.495 -2.3206 -0.9694 -1.2902
 3302TIP3   OH231540   3.095   5.668   6.943 -0.0452 -0.4778 -0.8882
 3302TIP3    H131541   3.004   5.640   6.937 -0.5980  0.6859  1.1065
 3302TIP3    H231542   3.104   5.733   6.874 -1.3199  0.7901  0.0776
 3303TIP3   OH231543   1.802   1.427   1.172 -0.3947  0.7086  0.0867
 3303TIP3    H131544   1.748   1.352   1.147 -1.0290  1.2748 -0.2651
 3303TIP3    H231545   1.838   1.403   1.258 -1.0181  0.2273  0.2159
 3304TIP3   OH231546   4.470   3.212   1.843 -0.3371 -0.1271 -0.3327
 3304TIP3    H131547   4.401   3.212   1.910  0.0879 -2.3645  0.1885
 3304TIP3    H231548   4.469   3.123   1.808  1.7877  0.0040 -0.8493
 3305TIP3   OH231549   4.083   4.287   0.950  0.5873  0.4051  0.0623
 3305TIP3    H131550   4.154   4.271   0.887  0.0526  0.1915 -0.4988
 3305TIP3    H231551   4.025   4.211   0.939  1.1264 -0.2938  1.7230
 3306TIP3   OH231552   3.051   6.099   7.329 -0.1195  0.0577  0.0342
 3306TIP3    H131553   3.087   6.131   7.412 -1.1154  0.3497  0.3605
 3306TIP3    H231554   3.055   6.003   7.337  1.2750  0.0593 -0.2555
 3307TIP3   OH231555   3.537   6.174   7.258 -0.7811  0.2954  0.1540
 3307TIP3    H131556   3.462   6.132   7.299 -0.0989 -1.6795 -0.5377
 3307TIP3    H231557   3.504   6.205   7.173 -1.0037  0.1033  0.1707
 3308TIP3   OH231558   4.345   6.450   2.233  0.8676 -0.1679 -0.2539
 3308TIP3    H131559   4.382   6.470   2.147  1.0913 -0.6089 -0.2656
 3308TIP3    H231560   4.347   6.532   2.281  0.5078  0.1423 -0.7574
 3309TIP3   OH231561   4.044   5.927   8.528  0.2384 -0.1730  0.0571
 3309TIP3    H131562   4.045   5.862   8.598 -0.2425 -1.7043 -1.3146
 3309TIP3    H231563   3.953   5.956   8.523  0.4721  0.7213  0.7393
 3310TIP3   OH231564   3.899   5.454   8.406  0.4925  0.2876 -0.2911
 3310TIP3    H131565   3.970   5.401   8.440 -0.5129 -1.6241 -1.0540
 3310TIP3    H231566   3.826   5.393   8.395 -1.6211  2.3132  1.3394
 3311TIP3   OH231567   6.459   0.129   0.100 -0.6828 -0.5384  0.2967
 3311TIP3    H131568   6.453   0.037   0.076 -2.0862 -0.4276  0.1522
 3311TIP3    H231569   6.524   0.131   0.170  0.1952 -1.4673 -0.4525
 3312TIP3   OH231570   3.812   5.983   0.757  0.2238 -0.2550 -0.5469
 3312TIP3    H131571   3.895   5.975   0.711 -0.3518 -1.5494 -1.4166
 3312TIP3    H231572   3.828   5.942   0.843  1.2411  1.9996  0.4090
 3313TIP3   OH231573   1.444   5.503   1.140  0.5561 -0.1553  0.4392
 3313TIP3    H131574   1.434   5.464   1.228  0.8650 -0.6553  0.2584
 3313TIP3    H231575   1.354   5.520   1.111  0.4335 -0.3528  0.6951
 3314TIP3   OH231576   6.548   2.916   7.409  0.1015 -0.2746  0.2365
 3314TIP3    H131577   6.530   2.863   7.331 -0.2165  0.4586 -0.1940
 3314TIP3    H231578   6.566   3.004   7.375 -1.0770  0.2990  1.0518
 3315TIP3   OH231579   0.280   2.940   7.796  0.1019  0.1536  0.0079
 3315TIP3    H131580   0.215   3.009   7.787  0.1872  0.0203 -2.4803
 3315TIP3    H231581   0.288   2.925   7.890 -4.3718 -0.6978  0.4518
 3316TIP3   OH231582   2.346   2.621   0.336  0.5477 -0.3081  0.1271
 3316TIP3    H131583   2.293   2.554   0.378 -1.0314  0.8045  0.0055
 3316TIP3    H231584   2.337   2.603   0.242 -3.0754  2.1483 -0.2209
 3317TIP3   OH231585   5.675   5.557   8.390 -0.0478  0.0529  0.2318
 3317TIP3    H131586   5.688   5.462   8.388 -0.1557  0.0406  0.1025
 3317TIP3    H231587   5.624   5.576   8.311 -2.3219 -0.1227  1.5840
 3318TIP3   OH231588   6.099   3.037   7.805 -0.0322 -0.3599  0.0436
 3318TIP3    H131589   6.079   3.095   7.732 -1.3097 -0.0077  0.6418
 3318TIP3    H231590   6.087   2.948   7.770  1.8515 -0.3140 -0.8504
 3319TIP3   OH231591   5.987   0.483   0.199  0.4523 -0.1452  0.6473
 3319TIP3    H131592   6.076   0.475   0.164 -0.4245  0.1540 -1.8389
 3319TIP3    H231593   5.961   0.573   0.179 -1.3125 -0.9756 -1.0864
 3320TIP3   OH231594   3.300   2.049   0.963 -0.1367 -0.1173 -0.3228
 3320TIP3    H131595   3.394   2.050   0.945  0.0790 -2.8822  0.3112
 3320TIP3    H231596   3.273   2.139   0.947  2.5694  0.7403 -0.7001
 3321TIP3   OH231597   1.289   6.589   1.203 -0.5078 -0.7849 -0.4159
 3321TIP3    H131598   1.360   6.559   1.146 -0.7040  0.5974 -1.4212
 3321TIP3    H231599   1.333   6.609   1.286  0.3895  0.4050 -1.1392
 3322TIP3   OH231600   2.670   0.103   1.781 -0.0267 -0.4385  0.2111
 3322TIP3    H131601   2.757   0.128   1.749  0.0795 -1.7413 -0.5701
 3322TIP3    H231602   2.682   0.018   1.822 -0.5517  0.3324  2.0592
 3323TIP3   OH231603   2.753   6.488   7.890  0.2265  0.0303  0.9375
 3323TIP3    H131604   2.716   6.434   7.821  0.0350  0.5706  0.6093
 3323TIP3    H231605   2.795   6.561   7.844 -0.2750  0.6266  1.3958
 3324TIP3   OH231606   0.211   4.622   1.571  0.3151 -0.0213  0.4178
 3324TIP3    H131607   0.121   4.603   1.545  0.9668 -0.4782 -1.6793
 3324TIP3    H231608   0.226   4.566   1.646 -0.6956 -1.0193 -0.0970
 3325TIP3   OH231609   1.336   1.400   8.303  1.0375 -0.3548  0.0349
 3325TIP3    H131610   1.369   1.311   8.296  1.4573 -0.2092  0.1406
 3325TIP3    H231611   1.392   1.442   8.368  0.8838  0.0028 -0.0579
 3326TIP3   OH231612   5.368   6.067   6.508 -0.3528 -0.0126 -0.0250
 3326TIP3    H131613   5.302   6.056   6.439 -3.0858 -1.8864  2.6440
 3326TIP3    H231614   5.440   6.010   6.481 -0.6834  0.4338 -1.9930
 3327TIP3   OH231615   0.175   0.903   8.054 -0.9842 -0.5954 -0.0676
 3327TIP3    H131616   0.152   0.817   8.088 -0.1135 -1.7735 -2.2366
 3327TIP3    H231617   0.092   0.943   8.030 -1.2610 -2.1577 -1.9131
 3328TIP3   OH231618   5.198   4.122   0.609 -0.3815  0.3184  0.1647
 3328TIP3    H131619   5.267   4.168   0.656  0.0782  2.3001 -2.2019
 3328TIP3    H231620   5.121   4.178   0.618 -0.5824  0.1605 -0.4658
 3329TIP3   OH231621   4.882   1.678   2.658 -0.1115  0.1166 -0.1206
 3329TIP3    H131622   4.959   1.698   2.710  0.4421 -4.8012  1.4243
 3329TIP3    H231623   4.916   1.638   2.578 -1.0949  0.8029 -0.9149
 3330TIP3   OH231624   3.369   1.931   2.338 -0.5791  0.1353 -0.5951
 3330TIP3    H131625   3.392   1.867   2.271  1.1779  0.2312 -0.1538
 3330TIP3    H231626   3.404   1.894   2.419 -0.3655  1.1951 -0.1853
 3331TIP3   OH231627   6.116   5.957   6.506 -0.5711  0.6823 -0.0801
 3331TIP3    H131628   6.137   5.865   6.490 -0.3163  0.4508  1.5001
 3331TIP3    H231629   6.201   6.001   6.503 -0.6949  0.8855 -0.8463
 3332TIP3   OH231630   5.152   1.003   8.216 -0.2601  0.4308  0.5018
 3332TIP3    H131631   5.090   1.038   8.152 -0.9450  1.9798  1.9329
 3332TIP3    H231632   5.100   0.947   8.272 -0.1638  0.8996  1.0677
 3333TIP3   OH231633   5.858   5.738   1.311  0.5107  0.1606 -0.2249
 3333TIP3    H131634   5.927   5.802   1.295  0.9798 -0.0101  1.0470
 3333TIP3    H231635   5.777   5.789   1.308  0.9192  0.9630  1.3673
 3334TIP3   OH231636   1.737   4.803   0.407  0.0648 -0.0958  0.2717
 3334TIP3    H131637   1.793   4.756   0.468  0.3989  0.5928  0.4951
 3334TIP3    H231638   1.686   4.734   0.364  0.0931 -0.6127  1.0510
 3335TIP3   OH231639   6.344   1.809   7.577  0.2315  0.1765 -0.3110
 3335TIP3    H131640   6.291   1.777   7.505 -0.2056  0.9065 -0.3259
 3335TIP3    H231641   6.288   1.871   7.623  0.2132 -0.8816  1.1560
 3336TIP3   OH231642   3.682   1.183   2.174 -0.0325  0.2000  0.2034
 3336TIP3    H131643   3.760   1.134   2.146  0.0118  0.8740 -0.9025
 3336TIP3    H231644   3.661   1.239   2.100  0.2698  2.3178  1.6231
 3337TIP3   OH231645   3.856   5.363   1.063  0.2886 -0.2573  0.1835
 3337TIP3    H131646   3.763   5.383   1.049  0.7646  1.5110 -0.7647
 3337TIP3    H231647   3.898   5.449   1.070  2.2553 -0.8970 -2.3310
 3338TIP3   OH231648   0.997   1.365   0.697  0.0511 -0.3251 -0.4464
 3338TIP3    H131649   1.037   1.449   0.720 -0.5154  0.3925 -1.9355
 3338TIP3    H231650   0.910   1.368   0.737  1.4426 -2.0878  3.2120
 3339TIP3   OH231651   6.531   0.416   7.053  0.7919  0.7712 -0.3213
 3339TIP3    H131652   6.581   0.451   7.127  0.6458  1.9433 -0.7547
 3339TIP3    H231653   6.573   0.454   6.976  0.2835  0.4060 -0.7869
 3340TIP3   OH231654   1.359   5.993   0.223  0.1051 -0.0985  0.3140
 3340TIP3    H131655   1.349   6.037   0.139  0.0604 -0.0392  0.3504
 3340TIP3    H231656   1.454   5.989   0.237  0.2173 -1.9365 -0.7052
 3341TIP3   OH231657   0.871   4.052   8.529 -0.0959 -0.3261 -0.4429
 3341TIP3    H131658   0.784   4.088   8.547  0.2187  0.5507 -0.6216
 3341TIP3    H231659   0.871   3.966   8.571 -0.8820 -0.1313 -0.0324
 3342TIP3   OH231660   1.522   2.292   1.125  0.2148 -0.8461  0.2193
 3342TIP3    H131661   1.543   2.218   1.183 -0.4701  0.1074  1.7390
 3342TIP3    H231662   1.482   2.357   1.182 -0.3213  0.2311 -1.3118
 3343TIP3   OH231663   2.683   1.538   1.753 -0.0944 -0.0199 -0.1218
 3343TIP3    H131664   2.636   1.621   1.746  1.0847  0.7588  0.8535
 3343TIP3    H231665   2.738   1.548   1.830  0.0864 -1.7162  0.0084
 3344TIP3   OH231666   6.433   2.514   8.495 -0.3236 -1.2315 -0.0712
 3344TIP3    H131667   6.511   2.539   8.545 -0.1564 -1.8580 -0.0222
 3344TIP3    H231668   6.362   2.516   8.559 -0.5278  0.2252 -0.2974
 3345TIP3   OH231669   6.537   6.316   1.773  0.2485  0.5564 -0.9503
 3345TIP3    H131670   6.448   6.325   1.740  0.2292 -2.3194 -2.0128
 3345TIP3    H231671   6.574   6.404   1.768 -1.8343  1.4233 -2.6131
 3346TIP3   OH231672   1.248   1.149   7.564 -0.4647  0.1018  0.9315
 3346TIP3    H131673   1.334   1.116   7.589 -0.1729  1.1523  1.3907
 3346TIP3    H231674   1.188   1.078   7.585  0.3009 -0.6772  0.5108
 3347TIP3   OH231675   4.389   0.399   7.734 -0.1322  0.3486 -0.4293
 3347TIP3    H131676   4.355   0.441   7.656  0.8875 -2.7816 -2.7364
 3347TIP3    H231677   4.475   0.439   7.747  0.4875 -0.3570 -2.0946
 3348TIP3   OH231678   5.421   3.637   0.426  0.1973  0.0919 -0.2134
 3348TIP3    H131679   5.369   3.564   0.460  1.1835 -1.2527 -1.4725
 3348TIP3    H231680   5.506   3.627   0.468  0.6789 -0.1805 -1.2101
 3349TIP3   OH231681   1.344   4.590   1.679  0.1575 -0.2684  0.2113
 3349TIP3    H131682   1.365   4.631   1.595 -2.0955  0.2504 -0.1660
 3349TIP3    H231683   1.308   4.504   1.656 -1.4149  0.2694  0.5228
 3350TIP3   OH231684   1.692   3.579   0.278  0.3996  0.9700 -0.4683
 3350TIP3    H131685   1.711   3.671   0.257  0.7246  1.1481  0.5698
 3350TIP3    H231686   1.778   3.538   0.286  0.3386  1.1420  1.4680
 3351TIP3   OH231687   4.765   0.412   8.377  0.3311  0.1948 -0.7663
 3351TIP3    H131688   4.747   0.357   8.453 -0.5258 -0.1024 -1.1598
 3351TIP3    H231689   4.765   0.502   8.411  0.8060  0.0148 -0.2800
 3352TIP3   OH231690   6.165   2.536   2.551 -0.6581 -0.2817  0.4628
 3352TIP3    H131691   6.107   2.600   2.509  0.0255 -0.1886 -0.3770
 3352TIP3    H231692   6.106   2.469   2.585 -1.3497  0.5208  0.8901
 3353TIP3   OH231693   2.941   1.151   1.015  0.0125  0.2505  0.2941
 3353TIP3    H131694   2.992   1.071   1.008 -0.2004  0.1297  0.1439
 3353TIP3    H231695   2.919   1.157   1.108  0.1470  0.2091  0.3288
 3354TIP3   OH231696   2.577   0.490   6.208  0.0067 -0.5211  0.5433
 3354TIP3    H131697   2.542   0.402   6.220 -1.9266 -0.1026 -1.5034
 3354TIP3    H231698   2.663   0.477   6.167 -0.8129 -1.4606 -0.9390
 3355TIP3   OH231699   0.415   5.451   7.293 -0.2180 -0.1502 -0.0362
 3355TIP3    H131700   0.497   5.452   7.343  0.4482 -0.2476 -1.1072
 3355TIP3    H231701   0.441   5.431   7.203 -1.2773  1.0233 -0.6464
 3356TIP3   OH231702   2.837   2.120   6.956  0.3493  0.1560  0.3190
 3356TIP3    H131703   2.795   2.187   6.901  1.7323  0.7562 -0.0404
 3356TIP3    H231704   2.764   2.068   6.989 -0.7676  1.7321  0.4691
 3357TIP3   OH231705   2.696   2.141   1.636 -0.5446  0.1314  0.8429
 3357TIP3    H131706   2.603   2.160   1.631 -0.7267 -0.8951 -0.5221
 3357TIP3    H231707   2.701   2.047   1.654  0.1885  0.0447  0.2866
 3358TIP3   OH231708   6.108   3.890   8.308 -0.4740  0.5787  0.5377
 3358TIP3    H131709   6.112   3.966   8.365 -1.0240  1.4903 -0.5948
 3358TIP3    H231710   6.057   3.826   8.357 -1.1830  1.4374  0.9504
 3359TIP3   OH231711   2.526   3.435   1.638 -0.0365 -0.0980 -1.1645
 3359TIP3    H131712   2.557   3.525   1.651 -0.0104 -0.1759 -0.6912
 3359TIP3    H231713   2.549   3.389   1.718  0.6674 -0.7364 -1.7143
 3360TIP3   OH231714   2.160   5.623   7.396  0.1625 -0.2676  1.0476
 3360TIP3    H131715   2.143   5.692   7.332 -0.9870 -1.5101 -0.0813
 3360TIP3    H231716   2.082   5.621   7.451 -0.0764 -1.0163  0.6995
 3361TIP3   OH231717   5.403   6.675   1.398 -0.7242 -0.1546 -0.0460
 3361TIP3    H131718   5.463   6.651   1.468 -1.4715 -0.9650  0.3423
 3361TIP3    H231719   5.392   6.770   1.406 -0.6785 -0.2234  0.8424
 3362TIP3   OH231720   5.935   0.957   2.457 -0.7254 -0.4511 -0.6067
 3362TIP3    H131721   6.021   0.917   2.441 -0.6266  0.1599 -1.6605
 3362TIP3    H231722   5.955   1.044   2.492 -0.9268 -0.6077 -0.0926
 3363TIP3   OH231723   5.054   1.455   1.092 -0.2663 -0.1985 -0.2301
 3363TIP3    H131724   5.112   1.410   1.031  0.5421 -0.6149  0.8197
 3363TIP3    H231725   5.035   1.539   1.049  2.0617  0.4534 -0.0995
 3364TIP3   OH231726   6.561   1.206   0.292 -0.0379  0.0472  0.0301
 3364TIP3    H131727   6.615   1.127   0.293  0.7974  0.6047 -0.1873
 3364TIP3    H231728   6.526   1.209   0.203 -1.8247 -1.2216  0.6412
 3365TIP3   OH231729   5.032   5.052   7.101  0.2123  0.4176  0.4341
 3365TIP3    H131730   5.029   4.958   7.118  2.0592  0.4415  1.0795
 3365TIP3    H231731   4.943   5.074   7.072  0.0167 -1.6903 -0.7387
 3366TIP3   OH231732   1.829   5.479   1.644  0.6054  0.6071 -0.7565
 3366TIP3    H131733   1.754   5.525   1.680 -1.2143 -0.7261 -2.6418
 3366TIP3    H231734   1.882   5.547   1.603  0.9105  1.6657  1.3040
 3367TIP3   OH231735   0.653   6.819   0.420 -0.3716 -0.2157  0.6149
 3367TIP3    H131736   0.717   6.749   0.431 -0.1596 -0.0071  0.7311
 3367TIP3    H231737   0.621   6.836   0.509 -0.2596 -0.0159  0.6187
 3368TIP3   OH231738   0.261   2.536   7.339 -0.5268  0.1033  0.2799
 3368TIP3    H131739   0.285   2.619   7.380 -0.2485  0.6092 -0.8562
 3368TIP3    H231740   0.168   2.546   7.319  0.0003  1.1439 -1.9957
 3369TIP3   OH231741   2.440   2.158   1.611 -0.0212 -0.2707  0.0722
 3369TIP3    H131742   2.354   2.161   1.655  0.2861 -1.3240  0.8028
 3369TIP3    H231743   2.434   2.083   1.552  0.6011 -0.7405  0.5931
 3370TIP3   OH231744   1.140   2.051   1.611  0.7074  0.0795 -0.2317
 3370TIP3    H131745   1.167   2.141   1.627  0.3999 -0.1240  1.6280
 3370TIP3    H231746   1.071   2.059   1.545  0.6766  1.1931 -0.0915
 3371TIP3   OH231747   2.075   5.213   0.393 -0.1879 -0.1027  0.5477
 3371TIP3    H131748   2.023   5.223   0.313 -0.6220  2.5219  1.0759
 3371TIP3    H231749   2.013   5.226   0.464  0.6377  0.0258  1.2643
 3372TIP3   OH231750   0.152   5.189   6.756  0.1061  0.5225 -0.7440
 3372TIP3    H131751   0.172   5.281   6.739 -0.8676  0.8407 -0.2223
 3372TIP3    H231752   0.129   5.154   6.670 -0.8539  1.1100 -0.7332
 3373TIP3   OH231753   0.746   6.308   6.789 -0.7353 -0.9026 -0.2850
 3373TIP3    H131754   0.813   6.376   6.787 -0.1850 -1.2370  2.3417
 3373TIP3    H231755   0.664   6.354   6.773 -0.5124  0.7195  2.5628
 3374TIP3   OH231756   1.971   5.837   1.733 -0.7238 -0.0255 -0.0609
 3374TIP3    H131757   1.901   5.893   1.700 -0.9399  0.9343  1.9368
 3374TIP3    H231758   2.006   5.883   1.809  2.1290 -0.4502 -0.9687
 3375TIP3   OH231759   5.322   6.512   0.756  0.0434  0.1329  0.5205
 3375TIP3    H131760   5.398   6.548   0.801 -0.0411 -0.8340  1.4873
 3375TIP3    H231761   5.352   6.492   0.668  0.3450  1.6308  0.2592
 3376TIP3   OH231762   6.261   6.623   2.240  0.8795 -0.0660  0.4778
 3376TIP3    H131763   6.175   6.661   2.258  0.8782 -0.0942  0.5303
 3376TIP3    H231764   6.248   6.574   2.158  0.4624 -1.3019  1.2522
 3377TIP3   OH231765   2.194   5.364   7.211  0.5785  0.6959  0.2403
 3377TIP3    H131766   2.155   5.346   7.296 -0.3030  2.9015  0.3795
 3377TIP3    H231767   2.260   5.431   7.228  1.3534  0.1827 -0.6342
 3378TIP3   OH231768   2.497   5.226   1.124  0.0322 -0.2376  1.1737
 3378TIP3    H131769   2.442   5.295   1.087 -0.5325 -1.1209  0.3280
 3378TIP3    H231770   2.579   5.270   1.147  0.7101  0.2193 -1.8021
 3379TIP3   OH231771   2.711   1.381   7.267  0.1480 -0.1478  0.4293
 3379TIP3    H131772   2.682   1.374   7.357  2.1486 -2.2508  1.0298
 3379TIP3    H231773   2.658   1.316   7.220  0.2294 -0.2334  0.4539
 3380TIP3   OH231774   1.708   1.134   7.479  0.0909 -0.4931  0.3184
 3380TIP3    H131775   1.663   1.055   7.449 -1.3873  0.2094  0.5952
 3380TIP3    H231776   1.795   1.128   7.440 -0.0186 -2.1949  0.2439
 3381TIP3   OH231777   2.665   0.229   6.319 -0.2349 -0.2086 -0.5068
 3381TIP3    H131778   2.611   0.154   6.345  1.1734 -0.5110  1.7926
 3381TIP3    H231779   2.748   0.190   6.291  0.9308  0.4768  1.8232
 3382TIP3   OH231780   4.558   0.725   0.881 -0.1683  0.1586 -0.1541
 3382TIP3    H131781   4.484   0.749   0.936 -0.1660 -1.0240  0.3925
 3382TIP3    H231782   4.635   0.738   0.937 -0.0669  0.1208 -0.2817
 3383TIP3   OH231783   5.872   3.107   7.656  0.1420  0.0712 -0.6113
 3383TIP3    H131784   5.802   3.132   7.596 -1.5305  0.2931  1.3127
 3383TIP3    H231785   5.827   3.060   7.727  1.9746  0.0212  0.5781
 3384TIP3   OH231786   3.455   0.310   1.098  0.1223  0.1388  0.1392
 3384TIP3    H131787   3.389   0.325   1.165 -1.2148 -2.5927 -0.4141
 3384TIP3    H231788   3.417   0.347   1.018 -0.2414 -0.3601  0.0713
 3385TIP3   OH231789   3.624   4.120   1.470 -0.0183  0.3355  0.2707
 3385TIP3    H131790   3.607   4.132   1.563  0.4674 -1.5532  0.6553
 3385TIP3    H231791   3.681   4.193   1.446  0.1652  0.6367  1.5380
 3386TIP3   OH231792   4.098   2.229   2.033  0.2072 -0.3069  0.2302
 3386TIP3    H131793   4.023   2.209   1.976 -0.2030  1.5201  0.0713
 3386TIP3    H231794   4.130   2.143   2.061 -0.7068 -1.1943 -1.2948
 3387TIP3   OH231795   1.458   3.902   6.670  0.3741 -0.1605  0.0437
 3387TIP3    H131796   1.392   3.946   6.617 -0.0617 -0.8648 -0.0040
 3387TIP3    H231797   1.541   3.942   6.643 -0.2074  2.7198  1.9938
 3388TIP3   OH231798   3.848   3.074   7.347  0.3524  0.2427 -0.6186
 3388TIP3    H131799   3.846   3.104   7.438 -1.3359 -0.9252 -0.2358
 3388TIP3    H231800   3.815   3.149   7.297 -1.2041  0.0437  0.0414
 3389TIP3   OH231801   0.039   4.964   6.555 -0.4406 -0.1029 -0.0612
 3389TIP3    H131802   0.078   4.895   6.609 -0.2017  0.7160  0.8236
 3389TIP3    H231803  -0.055   4.943   6.554 -0.3395 -0.5746 -0.0056
 3390TIP3   OH231804   4.639   4.671   2.375  0.4697 -0.1041 -0.1347
 3390TIP3    H131805   4.714   4.730   2.362  1.2152 -1.2333 -1.1925
 3390TIP3    H231806   4.625   4.631   2.289 -0.8049 -0.5619  0.2672
 3391TIP3   OH231807   3.396   0.866   8.146 -0.4306  0.2104  0.4564
 3391TIP3    H131808   3.345   0.829   8.073 -1.4646  2.1287  0.1340
 3391TIP3    H231809   3.332   0.917   8.196  0.7714  0.9310  1.3028
 3392TIP3   OH231810   0.520   0.500   1.436 -0.3427  0.0219  0.1384
 3392TIP3    H131811   0.438   0.454   1.418 -1.1518  1.1088  0.8877
 3392TIP3    H231812   0.502   0.549   1.517  2.0342 -2.0747  2.0657
 3393TIP3   OH231813   6.238   6.631   1.842  0.0125  0.0783 -0.4134
 3393TIP3    H131814   6.175   6.628   1.915  0.2329 -0.0067 -0.2265
 3393TIP3    H231815   6.308   6.571   1.869  0.8764  1.2537  0.0180
 3394TIP3   OH231816   2.668   0.241   2.021 -0.5687  0.0746 -0.1077
 3394TIP3    H131817   2.692   0.263   1.931 -0.3788  2.2096  0.4065
 3394TIP3    H231818   2.751   0.222   2.064 -0.5386  0.2322 -0.0962
 3395TIP3   OH231819   3.498   2.100   8.410  0.3866  0.1021 -0.0845
 3395TIP3    H131820   3.487   2.120   8.503  1.0588  1.9077 -0.3717
 3395TIP3    H231821   3.408   2.090   8.378  0.1134 -3.1786  1.2068
 3396TIP3   OH231822   2.691   6.097   7.732  0.0016  0.0719  0.9041
 3396TIP3    H131823   2.616   6.037   7.735 -0.2645  0.3886  0.6980
 3396TIP3    H231824   2.654   6.180   7.703  0.7978 -0.3515 -1.5964
 3397TIP3   OH231825   0.375   5.109   7.765  0.3053 -0.1738  0.3785
 3397TIP3    H131826   0.338   5.162   7.836 -0.4294 -0.0549 -0.0788
 3397TIP3    H231827   0.375   5.020   7.799 -0.2368 -0.1489  0.4630
 3398TIP3   OH231828   6.784   3.553   6.970  0.5851  0.5763  0.4404
 3398TIP3    H131829   6.824   3.640   6.971  1.2410  0.2787  0.5380
 3398TIP3    H231830   6.697   3.566   7.007  0.1484  1.4422 -0.8472
 3399TIP3   OH231831   6.776   5.891   8.085  0.3495  0.7660  0.8010
 3399TIP3    H131832   6.682   5.908   8.079  0.4190  0.6820 -1.7375
 3399TIP3    H231833   6.815   5.977   8.100 -0.0434  1.1122 -0.0681
 3400TIP3   OH231834   6.763   2.314   0.444 -0.1225 -0.0165 -0.2791
 3400TIP3    H131835   6.744   2.269   0.527 -1.0763 -0.2085 -0.5820
 3400TIP3    H231836   6.731   2.253   0.377  2.1784 -0.6508 -0.9048
 3401TIP3   OH231837   2.360   5.452   7.867  0.1153  0.2425  0.5267
 3401TIP3    H131838   2.412   5.375   7.893  1.1502  0.9646  0.6410
 3401TIP3    H231839   2.425   5.521   7.853 -0.7171  0.8241 -0.6042
 3402TIP3   OH231840   4.205   6.817   0.313 -0.1333 -0.4066  0.6799
 3402TIP3    H131841   4.257   6.868   0.375 -1.1171  0.4486  0.8225
 3402TIP3    H231842   4.141   6.771   0.367  0.0646 -0.9580  0.4475
 3403TIP3   OH231843   0.195   3.564   8.350  0.3047  0.5173  0.1627
 3403TIP3    H131844   0.272   3.508   8.338 -0.3147 -0.8131  1.8972
 3403TIP3    H231845   0.222   3.649   8.317  2.3974 -0.0166  0.3473
 3404TIP3   OH231846   1.051   1.488   2.035  0.1112 -0.3157  0.3029
 3404TIP3    H131847   0.987   1.420   2.011 -2.8015  1.4574  2.3968
 3404TIP3    H231848   1.047   1.551   1.963  2.4992 -1.9751 -1.4315
 3405TIP3   OH231849   3.276   0.481   7.762 -0.1056 -0.1820 -0.0239
 3405TIP3    H131850   3.342   0.413   7.774 -1.1678 -0.8289  2.9636
 3405TIP3    H231851   3.325   0.563   7.758  0.9804 -0.7994  0.1925
 3406TIP3   OH231852   1.427   4.399   0.794 -0.0256 -0.2134 -0.4188
 3406TIP3    H131853   1.393   4.323   0.842 -1.0967  1.1420  1.0724
 3406TIP3    H231854   1.515   4.372   0.768  0.6938 -1.0521  2.4539
 3407TIP3   OH231855   2.900   5.924   6.301 -0.4708 -0.3387  0.6679
 3407TIP3    H131856   2.818   5.968   6.280 -0.4125 -0.4011  0.2985
 3407TIP3    H231857   2.890   5.836   6.265  0.6831  0.3784 -1.5959
 3408TIP3   OH231858   1.009   0.274   0.578 -0.0912 -0.2801  0.5681
 3408TIP3    H131859   1.003   0.185   0.544  2.5870 -0.3855  0.1701
 3408TIP3    H231860   1.088   0.273   0.632 -0.7465  1.5401  1.6311
 3409TIP3   OH231861   1.371   6.931   1.355 -0.1374 -0.1379 -0.3842
 3409TIP3    H131862   1.429   6.976   1.417 -0.3006 -0.6636  0.1537
 3409TIP3    H231863   1.394   6.839   1.362  1.1638 -0.0540 -2.5016
 3410TIP3   OH231864   3.716   5.476   6.962  0.3232  0.3540 -0.2872
 3410TIP3    H131865   3.724   5.562   7.004 -0.6575 -0.5603  1.9603
 3410TIP3    H231866   3.629   5.476   6.924  0.5416  0.5617 -0.7850
 3411TIP3   OH231867   5.150   3.351   8.358 -0.0777 -0.2719  0.7409
 3411TIP3    H131868   5.091   3.337   8.284 -0.1240  0.7842  0.5747
 3411TIP3    H231869   5.097   3.330   8.435 -0.2393 -0.6853  0.5240
 3412TIP3   OH231870   0.177   0.951   7.771  0.2678 -0.6869 -0.1582
 3412TIP3    H131871   0.188   0.915   7.859  3.1287 -0.2311 -0.2318
 3412TIP3    H231872   0.122   0.887   7.726  0.0356 -1.7215  1.4994
 3413TIP3   OH231873   2.652   0.009   7.535  0.7160  0.5006  0.3904
 3413TIP3    H131874   2.610   0.048   7.612 -1.3294 -1.4138  0.3516
 3413TIP3    H231875   2.668   0.082   7.476 -2.0887  1.4457  0.6771
 3414TIP3   OH231876   5.963   4.492   0.621  0.1595  0.0902 -0.6450
 3414TIP3    H131877   5.898   4.437   0.578 -0.2714  0.0616  0.0299
 3414TIP3    H231878   6.047   4.464   0.585 -0.1662 -0.1799 -1.1880
 3415TIP3   OH231879   0.881   3.915   1.794 -0.6539  0.7000  0.2267
 3415TIP3    H131880   0.931   3.996   1.804 -0.1983  0.5917 -0.9796
 3415TIP3    H231881   0.936   3.860   1.738 -1.2970 -0.1486  0.4122
 3416TIP3   OH231882   2.402   2.307   8.514  0.6904 -0.1574  0.2452
 3416TIP3    H131883   2.331   2.336   8.456  0.8334  1.5298  0.8407
 3416TIP3    H231884   2.452   2.245   8.461 -0.5543 -0.4936 -0.5923
 3417TIP3   OH231885   4.089   2.236   6.741 -0.2054  0.2696 -0.5356
 3417TIP3    H131886   4.083   2.162   6.680  1.3040 -1.0924  0.8796
 3417TIP3    H231887   4.181   2.242   6.763 -0.7528  0.2586  2.0965
 3418TIP3   OH231888   1.600   6.245   8.458  0.0368  0.2457 -0.6446
 3418TIP3    H131889   1.669   6.179   8.465 -0.8105 -0.7126 -0.9117
 3418TIP3    H231890   1.556   6.224   8.375  0.5066  1.9274 -1.3593
 3419TIP3   OH231891   2.554   1.090   7.755  0.5672  0.0076  0.2265
 3419TIP3    H131892   2.523   1.054   7.839  0.2982  0.2938  0.2524
 3419TIP3    H231893   2.619   1.026   7.725 -0.0967 -0.6477  0.1384
 3420TIP3   OH231894   6.871   4.947   1.191  0.6885 -0.1051 -0.0276
 3420TIP3    H131895   6.838   5.002   1.262  3.6622  0.0617  1.3884
 3420TIP3    H231896   6.927   4.883   1.235  2.9308  0.2180 -2.1965
 3421TIP3   OH231897   4.559   5.198   1.027 -0.1380 -0.3875  0.1827
 3421TIP3    H131898   4.511   5.116   1.033  0.9515 -1.0703 -0.3057
 3421TIP3    H231899   4.609   5.202   1.109  0.4135 -0.5905 -0.1471
 3422TIP3   OH231900   5.835   1.883   2.062 -0.1221  0.1265  0.9841
 3422TIP3    H131901   5.828   1.876   2.157 -1.3413 -1.5180  0.8301
 3422TIP3    H231902   5.784   1.961   2.039  0.0010  0.4086  1.6617
 3423TIP3   OH231903   0.995   4.907   0.638 -0.4863 -0.0888 -0.1135
 3423TIP3    H131904   1.028   4.908   0.548  1.2259  0.4664  0.4783
 3423TIP3    H231905   0.905   4.939   0.631  0.2101  1.7263 -1.4417
 3424TIP3   OH231906   2.783   6.327   1.166 -0.3249 -0.4653 -0.1357
 3424TIP3    H131907   2.851   6.390   1.190  0.1424 -0.5777 -1.1092
 3424TIP3    H231908   2.819   6.242   1.193 -0.7351 -0.3709  0.7157
 3425TIP3   OH231909   0.958   3.047   6.549  0.5320  0.4853  0.4173
 3425TIP3    H131910   0.980   3.070   6.639  2.8005 -2.0413  0.6431
 3425TIP3    H231911   1.042   3.046   6.504 -0.0405 -1.8571 -0.7683
 3426TIP3   OH231912   4.860   2.795   1.348  0.3873  0.0617 -0.2266
 3426TIP3    H131913   4.863   2.736   1.424  0.8221  0.0173 -0.2773
 3426TIP3    H231914   4.789   2.856   1.368  1.8539  1.3854  1.2063
 3427TIP3   OH231915   3.016   3.093   8.470 -0.1558 -0.1174  0.3987
 3427TIP3    H131916   3.031   3.003   8.440  0.8122  0.1460  0.0663
 3427TIP3    H231917   3.006   3.085   8.565 -2.1729 -0.8226  0.1768
 3428TIP3   OH231918   3.602   5.700   0.606  0.2097 -0.1483  0.1812
 3428TIP3    H131919   3.626   5.613   0.575  0.1823 -0.5857  1.3303
 3428TIP3    H231920   3.573   5.686   0.697 -3.5376  0.4521 -0.7443
 3429TIP3   OH231921   4.047   3.277   6.488  0.6802  0.4134 -0.3963
 3429TIP3    H131922   4.022   3.369   6.484  0.4148  0.3450 -0.3336
 3429TIP3    H231923   4.138   3.278   6.518  0.7253  0.6602 -0.5337
 3430TIP3   OH231924   4.060   6.414   6.681  0.6190  0.1251 -0.3507
 3430TIP3    H131925   4.124   6.470   6.636  1.4769 -2.2552 -2.3644
 3430TIP3    H231926   4.110   6.372   6.751  0.3857  0.6685  0.1490
 3431TIP3   OH231927   5.189   1.386   8.299  0.7789 -0.0740  0.2146
 3431TIP3    H131928   5.145   1.402   8.382 -0.8628 -2.4120 -0.0933
 3431TIP3    H231929   5.263   1.330   8.322  0.0217 -1.1590  0.1006
 3432TIP3   OH231930   4.685   6.798   0.951 -0.0315  0.3347 -0.3833
 3432TIP3    H131931   4.713   6.709   0.975 -1.1855  0.1321  0.2718
 3432TIP3    H231932   4.622   6.822   1.019  0.1115  1.5833 -0.6785
 3433TIP3   OH231933   3.246   6.683   8.183  0.0548 -0.2213 -0.0564
 3433TIP3    H131934   3.245   6.611   8.246 -1.1884 -0.2706 -0.1200
 3433TIP3    H231935   3.222   6.642   8.099 -0.5119  0.2399 -0.1209
 3434TIP3   OH231936   5.692   0.473   0.041 -0.2771  1.0735  0.0187
 3434TIP3    H131937   5.768   0.513   0.082 -0.9211  3.5121 -1.0129
 3434TIP3    H231938   5.705   0.379   0.054  2.2736  1.4685  0.9215
 3435TIP3   OH231939   6.183   5.840   7.484 -0.5181 -0.9895 -0.2412
 3435TIP3    H131940   6.143   5.847   7.570  0.7681  1.2816  0.2610
 3435TIP3    H231941   6.111   5.852   7.423 -0.7491  4.9325  0.6139
 3436TIP3   OH231942   3.763   3.692   2.563  0.1315  0.2691  0.1364
 3436TIP3    H131943   3.759   3.788   2.559  0.4194  0.2218 -1.8733
 3436TIP3    H231944   3.672   3.665   2.574 -0.3940  0.6957 -2.5956
 3437TIP3   OH231945   5.775   2.248   0.512  0.0990 -0.5181  0.2858
 3437TIP3    H131946   5.855   2.214   0.552  1.1257  0.2524 -1.0520
 3437TIP3    H231947   5.719   2.269   0.587  1.8971  0.7480  1.3607
 3438TIP3   OH231948   0.472   5.797   0.440  0.0277 -0.0374  0.6966
 3438TIP3    H131949   0.532   5.846   0.384  0.2725 -0.1543  0.8552
 3438TIP3    H231950   0.527   5.733   0.485 -0.3641 -0.8599  0.0518
 3439TIP3   OH231951   6.909   2.395   7.868 -0.2744  0.2492  0.5182
 3439TIP3    H131952   6.862   2.312   7.879 -0.5750  0.6672  2.8609
 3439TIP3    H231953   6.986   2.387   7.924 -0.5540  1.7124  1.1496
 3440TIP3   OH231954   4.653   4.647   1.078  0.1304  0.0593  0.2184
 3440TIP3    H131955   4.745   4.661   1.054 -0.3568  1.4048 -0.9796
 3440TIP3    H231956   4.623   4.577   1.020  0.2976 -0.1558  0.3874
 3441TIP3   OH231957   1.932   0.949   1.764  0.0770 -0.3681  0.4661
 3441TIP3    H131958   1.854   0.894   1.753 -0.0306 -0.0686 -0.3564
 3441TIP3    H231959   1.898   1.033   1.797 -0.1879  0.3452 -1.4708
 3442TIP3   OH231960   0.828   4.114   7.605  0.6870 -0.1121 -0.1760
 3442TIP3    H131961   0.778   4.176   7.552  0.4249  0.2110  0.4379
 3442TIP3    H231962   0.858   4.165   7.680  0.1236 -0.8208  0.5512
 3443TIP3   OH231963   5.193   4.642   2.080 -0.4109  0.2588 -0.1441
 3443TIP3    H131964   5.145   4.691   2.147 -0.3987 -0.5830  0.4928
 3443TIP3    H231965   5.179   4.550   2.102 -0.7871 -0.0575 -1.5685
 3444TIP3   OH231966   5.806   5.429   8.002 -0.0659 -0.3378  0.7210
 3444TIP3    H131967   5.870   5.385   8.057  0.6006 -1.8864 -1.1900
 3444TIP3    H231968   5.828   5.402   7.913 -0.7283  2.5241 -0.4106
 3445TIP3   OH231969   0.079   4.734   8.031 -0.7171 -0.0910  0.5998
 3445TIP3    H131970   0.013   4.797   8.062  0.4951  0.7234  1.6089
 3445TIP3    H231971   0.162   4.771   8.058  0.1566 -1.2804 -0.3523
 3446TIP3   OH231972   3.425   0.682   0.698 -0.7743 -0.1452 -0.4370
 3446TIP3    H131973   3.516   0.713   0.707 -0.5131 -1.3426  1.9613
 3446TIP3    H231974   3.424   0.637   0.614  0.2806  1.5838 -1.4492
 3447TIP3   OH231975   2.667   6.715   6.515  0.0764  0.3930 -0.4125
 3447TIP3    H131976   2.739   6.777   6.523 -0.0336  0.7789 -1.9481
 3447TIP3    H231977   2.694   6.656   6.444 -1.0849  0.5525 -1.0214
 3448TIP3   OH231978   3.731   1.998   1.107  0.3575 -0.1386 -0.4680
 3448TIP3    H131979   3.745   2.032   1.195  1.3302  0.5188 -0.8505
 3448TIP3    H231980   3.700   2.074   1.057 -0.6470 -0.6180 -0.5951
 3449TIP3   OH231981   5.633   1.390   0.605 -0.0484  0.8996 -0.3347
 3449TIP3    H131982   5.550   1.410   0.560 -0.2021  0.2782 -0.3343
 3449TIP3    H231983   5.635   1.295   0.610 -0.4090  0.9550  1.6577
 3450TIP3   OH231984   4.872   3.700   2.324  1.0599 -0.5719 -0.4645
 3450TIP3    H131985   4.932   3.675   2.394  1.6106  0.8953 -0.3791
 3450TIP3    H231986   4.832   3.618   2.296 -0.6482 -1.0326  2.8673
 3451TIP3   OH231987   1.322   2.867   6.695 -0.6061 -0.3034  0.9188
 3451TIP3    H131988   1.405   2.820   6.689 -0.7331 -0.3837 -0.4769
 3451TIP3    H231989   1.258   2.809   6.653 -0.8842  0.8195 -0.2473
 3452TIP3   OH231990   5.234   5.195   7.192 -0.3350  0.3680 -0.3850
 3452TIP3    H131991   5.250   5.139   7.268  1.2435 -1.0535 -1.6840
 3452TIP3    H231992   5.161   5.153   7.146 -0.9327  0.9283  0.0273
 3453TIP3   OH231993   4.841   3.279   7.620 -0.3038  0.5486 -0.7201
 3453TIP3    H131994   4.927   3.294   7.581  0.2135  0.7721  0.4640
 3453TIP3    H231995   4.799   3.217   7.561  1.1046 -0.4474 -0.7424
 3454TIP3   OH231996   1.062   1.465   8.297  0.1862 -0.1940  0.0959
 3454TIP3    H131997   1.048   1.531   8.364  0.4243 -1.0865  1.0403
 3454TIP3    H231998   1.156   1.449   8.297  0.2991  0.3639 -1.0141
 3455TIP3   OH231999   1.201   6.474   7.940  0.2393  0.3184  0.3359
 3455TIP3    H132000   1.139   6.481   7.868  0.2502 -0.0980  0.2840
 3455TIP3    H232001   1.245   6.558   7.942 -0.5334  0.7347  0.5634
 3456TIP3   OH232002   4.545   1.745   7.924  0.0406 -0.1431  0.1025
 3456TIP3    H132003   4.588   1.755   8.008  0.8714  0.3994 -0.3678
 3456TIP3    H232004   4.615   1.721   7.863 -0.5797 -0.7397 -0.3981
 3457TIP3   OH232005   3.402   2.406   1.325  0.1556  0.2711 -0.2428
 3457TIP3    H132006   3.360   2.476   1.375 -3.2493 -0.4775 -1.7658
 3457TIP3    H232007   3.463   2.451   1.266 -1.7957  2.0202 -1.0397
 3458TIP3   OH232008   4.404   3.182   1.435  0.0220  0.1948  0.7750
 3458TIP3    H132009   4.320   3.137   1.441  0.5791 -0.8494  0.9735
 3458TIP3    H232010   4.415   3.225   1.520 -0.3289  0.3793  0.7285
 3459TIP3   OH232011   1.322   4.129   0.789 -0.1074 -0.5075  0.2828
 3459TIP3    H132012   1.361   4.042   0.778 -1.3990 -1.1195  0.3496
 3459TIP3    H232013   1.231   4.118   0.760  0.1680  1.2715 -1.4580
 3460TIP3   OH232014   3.332   6.030   6.888 -0.6033 -0.1467  0.7862
 3460TIP3    H132015   3.260   6.093   6.884 -1.9922 -1.6306  1.2822
 3460TIP3    H232016   3.340   5.997   6.799  0.1994  0.7726  0.5019
 3461TIP3   OH232017   0.577   6.783   2.281  0.0917 -0.8738 -0.8868
 3461TIP3    H132018   0.615   6.748   2.361 -2.2604  0.1277  0.7587
 3461TIP3    H232019   0.540   6.706   2.237 -0.6914 -1.1341  0.2046
 3462TIP3   OH232020   2.023   6.370   0.180 -0.1086  0.2392 -0.0191
 3462TIP3    H132021   2.004   6.286   0.223 -0.1019 -0.3794 -1.1753
 3462TIP3    H232022   1.965   6.370   0.103  0.6585  0.8165 -0.6046
 3463TIP3   OH232023   1.706   0.592   0.295 -0.2845  0.3462 -0.3636
 3463TIP3    H132024   1.755   0.617   0.373  0.0291  2.4645 -1.1639
 3463TIP3    H232025   1.753   0.516   0.260  0.9454  0.8075  0.2354
 3464TIP3   OH232026   4.603   4.940   6.579  0.9861  0.0083  0.0075
 3464TIP3    H132027   4.581   5.033   6.571  0.9264  0.0708  0.8204
 3464TIP3    H232028   4.697   4.936   6.562  0.6243 -0.1020 -2.3019
 3465TIP3   OH232029   0.447   2.174   0.300 -0.0729  0.2863  0.0462
 3465TIP3    H132030   0.478   2.257   0.263 -0.9514  0.8446  0.5341
 3465TIP3    H232031   0.501   2.108   0.257  0.7733  1.1184 -0.2180
 3466TIP3   OH232032   1.566   1.945   8.417  0.7437 -0.3031 -0.0665
 3466TIP3    H132033   1.488   1.891   8.430 -0.2225  0.7493 -1.2343
 3466TIP3    H232034   1.630   1.910   8.480 -1.1489 -0.2047  2.0533
 3467TIP3   OH232035   6.228   3.186   8.621  0.3089  0.3232 -0.1026
 3467TIP3    H132036   6.230   3.106   8.673  0.0108  1.2098  1.3250
 3467TIP3    H232037   6.306   3.181   8.566 -0.9883 -2.1114 -1.9100
 3468TIP3   OH232038   4.758   2.013   7.462  0.3236  0.4458  0.0226
 3468TIP3    H132039   4.679   2.013   7.409  0.0346  2.1193  0.3908
 3468TIP3    H232040   4.809   1.938   7.431 -0.9737 -0.0928 -0.8585
 3469TIP3   OH232041   2.390   6.543   6.693  0.0159  0.3199 -0.2467
 3469TIP3    H132042   2.404   6.463   6.643 -0.0640  0.5435 -0.6330
 3469TIP3    H232043   2.414   6.520   6.783 -0.0616 -0.1490 -0.3451
 3470TIP3   OH232044   5.281   5.251   7.620  0.1860  0.1138 -0.2890
 3470TIP3    H132045   5.281   5.327   7.562 -0.8707  0.0789 -0.3446
 3470TIP3    H232046   5.370   5.215   7.612  0.9848  1.8187  0.3952
 3471TIP3   OH232047   0.705   0.362   1.934 -0.1203 -0.2021  0.2154
 3471TIP3    H132048   0.711   0.405   1.848 -2.4649  4.7106  2.1448
 3471TIP3    H232049   0.621   0.316   1.932 -0.5717  0.6077  0.1090
 3472TIP3   OH232050   4.196   6.087   0.266 -0.0810  0.3240  0.1583
 3472TIP3    H132051   4.268   6.024   0.260 -1.1576 -1.3670  2.9219
 3472TIP3    H232052   4.220   6.142   0.340 -1.5796 -0.3130  1.1701
 3473TIP3   OH232053   1.485   1.724   6.932  0.2113  0.4980 -0.7533
 3473TIP3    H132054   1.461   1.635   6.907 -0.3524  0.4613 -0.1289
 3473TIP3    H232055   1.532   1.759   6.856  1.5556 -0.7478 -0.5332
 3474TIP3   OH232056   5.177   2.143   2.081 -0.9243  0.5248 -0.2459
 3474TIP3    H132057   5.107   2.193   2.124 -1.1123  0.5504 -0.5794
 3474TIP3    H232058   5.134   2.063   2.050 -0.9977  0.9244 -1.1954
 3475TIP3   OH232059   0.509   0.216   8.467 -0.2140 -0.7611  0.4744
 3475TIP3    H132060   0.477   0.186   8.382  0.7927  0.9373 -0.5479
 3475TIP3    H232061   0.593   0.170   8.478  0.3100  0.0358 -0.1048
 3476TIP3   OH232062   5.296   4.586   7.058 -0.1770 -0.2872  0.0097
 3476TIP3    H132063   5.365   4.651   7.047  0.5975 -0.7467  1.7905
 3476TIP3    H232064   5.325   4.531   7.131 -2.4791 -0.4033  0.9365
 3477TIP3   OH232065   1.309   1.432   7.171  0.1454 -0.1034  0.5965
 3477TIP3    H132066   1.377   1.456   7.109  0.4436 -1.1591  0.4980
 3477TIP3    H232067   1.228   1.463   7.131  0.4544  0.1980  0.2020
 3478TIP3   OH232068   3.086   3.363   8.354  0.2354  0.2181  0.3147
 3478TIP3    H132069   2.996   3.391   8.368  0.6014  0.9617  1.2615
 3478TIP3    H232070   3.090   3.275   8.392 -0.5518 -0.5971 -1.4063
 3479TIP3   OH232071   4.504   6.802   6.295  0.0138  0.6986 -0.9954
 3479TIP3    H132072   4.586   6.828   6.335  0.4262 -1.0935 -0.5777
 3479TIP3    H232073   4.524   6.795   6.202  1.1379 -2.2241 -0.6423
 3480TIP3   OH232074   5.427   6.265   1.089 -0.6402  0.0158  0.5606
 3480TIP3    H132075   5.518   6.264   1.121 -0.3976  1.7235  0.0187
 3480TIP3    H232076   5.403   6.358   1.087 -1.6542 -0.2338 -1.3925
 3481TIP3   OH232077   0.116   2.730   0.197  0.1093 -0.2772  0.1119
 3481TIP3    H132078   0.195   2.784   0.199 -0.8664  1.1877  0.8429
 3481TIP3    H232079   0.067   2.763   0.121 -0.4777 -0.1499  0.5420
 3482TIP3   OH232080   4.209   2.746   7.417  0.1700  0.4919  0.3797
 3482TIP3    H132081   4.268   2.745   7.493  0.3543 -0.5793  0.2375
 3482TIP3    H232082   4.123   2.764   7.454 -0.3527 -3.1601  1.3560
 3483TIP3   OH232083   4.539   2.282   0.386  0.2488  0.6633  0.3464
 3483TIP3    H132084   4.580   2.195   0.390  0.1855  0.6034 -0.1838
 3483TIP3    H232085   4.476   2.275   0.315 -0.0061  1.0441  0.5331
 3484TIP3   OH232086   6.267   5.342   1.755 -0.2945  0.0235 -0.1005
 3484TIP3    H132087   6.227   5.255   1.761 -1.4511  0.5594  0.1169
 3484TIP3    H232088   6.212   5.390   1.693  0.7858  0.3743 -0.8102
 3485TIP3   OH232089   5.888   5.990   2.231 -0.0507  0.8362  0.6883
 3485TIP3    H132090   5.936   6.048   2.291 -0.5170  0.5094  1.3826
 3485TIP3    H232091   5.798   6.022   2.233 -1.0302 -1.6571  3.4052
 3486TIP3   OH232092   0.234   0.733   0.282 -0.0627  0.7842  0.2566
 3486TIP3    H132093   0.253   0.693   0.197  0.2400  0.5300  0.4434
 3486TIP3    H232094   0.269   0.822   0.275 -0.0978  0.7857  0.0916
 3487TIP3   OH232095   3.985   6.098   1.539 -0.2438 -0.5835 -0.6073
 3487TIP3    H132096   3.941   6.029   1.588  0.3833 -0.0067  0.8204
 3487TIP3    H232097   4.057   6.126   1.596 -1.3366  2.2252 -0.4610
 3488TIP3   OH232098   3.077   2.887   7.827  0.0396 -0.0445  0.5286
 3488TIP3    H132099   3.151   2.947   7.839  0.7748 -0.9624  0.6832
 3488TIP3    H232100   3.082   2.828   7.902  0.5309 -1.5414 -0.6347
 3489TIP3   OH232101   0.018   0.257   0.866  0.0104 -0.6202 -0.5096
 3489TIP3    H132102  -0.037   0.324   0.826 -1.6919 -1.7280 -0.1167
 3489TIP3    H232103   0.061   0.214   0.792 -2.1122 -1.8004 -1.1321
 3490TIP3   OH232104   5.918   5.811   0.833  0.4740  0.2994 -0.6406
 3490TIP3    H132105   5.829   5.845   0.845  0.6172  0.4393  0.1036
 3490TIP3    H232106   5.972   5.890   0.821  0.4029  0.1810 -1.8069
 3491TIP3   OH232107   1.145   1.076   1.264 -0.2665 -0.0931  0.2321
 3491TIP3    H132108   1.102   1.062   1.180 -0.3297 -1.2071  0.4392
 3491TIP3    H232109   1.106   1.157   1.298 -1.3033 -0.4275 -0.1396
 3492TIP3   OH232110   1.090   2.250   0.346 -0.2357 -0.1978  0.1975
 3492TIP3    H132111   1.018   2.299   0.306 -0.1795  0.5337  0.9755
 3492TIP3    H232112   1.168   2.279   0.299 -0.0052  1.5658  1.5887
 3493TIP3   OH232113   1.193   3.127   6.410 -0.1157 -0.4822 -0.4345
 3493TIP3    H132114   1.144   3.205   6.434  0.3998 -0.2162 -0.2220
 3493TIP3    H232115   1.268   3.160   6.360  0.2994 -0.8042 -0.0378
 3494TIP3   OH232116   4.288   6.080   8.481 -0.0371  0.0984 -0.4475
 3494TIP3    H132117   4.340   6.054   8.557  1.0218  3.0519 -0.0262
 3494TIP3    H232118   4.211   6.024   8.484  1.3030 -1.7736  1.1519
 3495TIP3   OH232119   6.887   6.240   8.401  0.0925 -0.0650  0.2506
 3495TIP3    H132120   6.841   6.239   8.485 -0.2418  0.9488  0.1027
 3495TIP3    H232121   6.979   6.253   8.425 -0.0921  1.0288  0.4581
 3496TIP3   OH232122   3.895   6.873   1.164  0.5548 -0.4895 -0.2201
 3496TIP3    H132123   3.937   6.911   1.241  0.5540 -0.0990 -0.4107
 3496TIP3    H232124   3.957   6.888   1.092 -0.0853  0.4879 -0.5939
 3497TIP3   OH232125   3.580   0.296   0.371 -1.0766 -0.0262  0.2148
 3497TIP3    H132126   3.572   0.385   0.338  0.6933 -0.1627 -0.7213
 3497TIP3    H232127   3.637   0.304   0.448 -0.8292 -0.3513  0.0685
 3498TIP3   OH232128   1.893   2.224   0.828 -0.0057  0.9258  0.3354
 3498TIP3    H132129   1.918   2.259   0.742  0.6818 -0.8785 -0.2547
 3498TIP3    H232130   1.949   2.270   0.890  1.4488  0.3420 -0.4879
 3499TIP3   OH232131   5.092   0.072   1.236 -0.7548  0.2546 -0.0448
 3499TIP3    H132132   5.037   0.058   1.159  0.5012  0.8135 -1.0808
 3499TIP3    H232133   5.154   0.141   1.210  0.1707 -0.0526  1.2109
 3500TIP3   OH232134   3.665   1.844   7.175 -0.5501 -0.1128 -0.2092
 3500TIP3    H132135   3.677   1.753   7.201  0.5551 -0.1104 -0.6469
 3500TIP3    H232136   3.630   1.839   7.086 -1.3436 -0.1049  0.0951
 3501TIP3   OH232137   5.846   1.766   1.570  0.3026 -0.1626 -0.4796
 3501TIP3    H132138   5.887   1.813   1.497  0.9882 -0.1047 -0.0702
 3501TIP3    H232139   5.878   1.811   1.648  0.0931 -0.6270 -0.1190
 3502TIP3   OH232140   5.143   4.156   1.903 -0.0837 -0.2187  0.2790
 3502TIP3    H132141   5.120   4.074   1.860 -1.9303 -1.2185  2.8611
 3502TIP3    H232142   5.216   4.133   1.960  0.9102  0.5358 -0.6704
 3503TIP3   OH232143   5.895   5.885   6.379 -0.0861  0.1790  0.2245
 3503TIP3    H132144   5.938   5.802   6.358  1.2586  1.1762 -1.0959
 3503TIP3    H232145   5.928   5.908   6.466  1.7188  0.6758 -0.5565
 3504TIP3   OH232146   3.842   0.680   8.430 -0.0165 -0.2311  0.2326
 3504TIP3    H132147   3.851   0.773   8.409 -1.6677  0.2638  1.4933
 3504TIP3    H232148   3.787   0.645   8.360  0.7688 -0.3343 -0.3529
 3505TIP3   OH232149   0.708   5.118   2.279 -0.4446  0.1944  0.4534
 3505TIP3    H132150   0.751   5.203   2.283 -0.4040  0.1415  3.4646
 3505TIP3    H232151   0.614   5.139   2.274 -0.3928  0.3958  0.2940
 3506TIP3   OH232152   6.564   6.315   2.222  0.1914 -0.4210  0.3893
 3506TIP3    H132153   6.653   6.292   2.249  0.3647 -0.2868 -0.0649
 3506TIP3    H232154   6.509   6.290   2.297  0.7313  0.4845  1.1016
 3507TIP3   OH232155   4.160   2.990   0.463  0.4398 -1.0444 -0.7310
 3507TIP3    H132156   4.090   2.928   0.440  0.1394 -1.3961  1.0433
 3507TIP3    H232157   4.216   2.942   0.524  1.2561 -0.1781 -0.7780
 3508TIP3   OH232158   1.870   2.200   1.650 -0.1860 -0.2364  0.2964
 3508TIP3    H132159   1.886   2.233   1.739  0.3018  1.3579 -0.3381
 3508TIP3    H232160   1.893   2.274   1.593 -1.2615 -0.9572 -1.1226
 3509TIP3   OH232161   1.727   0.185   1.290 -0.2148 -0.6039  0.3043
 3509TIP3    H132162   1.805   0.198   1.235  0.1874 -4.1835 -0.1971
 3509TIP3    H232163   1.762   0.167   1.377 -0.6764  0.7611  0.7988
 3510TIP3   OH232164   6.325   3.243   1.730  0.0904  0.5245  0.1784
 3510TIP3    H132165   6.317   3.154   1.764 -0.1336  0.1194 -0.8702
 3510TIP3    H232166   6.236   3.265   1.701  0.0399  1.2888  0.8850
 3511TIP3   OH232167   1.116   1.924   1.192  0.1020 -0.3879  0.4247
 3511TIP3    H132168   1.120   2.005   1.140 -1.4332  0.8413  2.1047
 3511TIP3    H232169   1.029   1.890   1.175 -0.5627  0.2250  2.3863
 3512TIP3   OH232170   0.959   2.716   7.630  0.0763 -0.2603 -0.7733
 3512TIP3    H132171   0.930   2.630   7.660  0.4172 -0.9995 -2.4636
 3512TIP3    H232172   0.895   2.742   7.564 -0.4133  1.1311  0.2051
 3513TIP3   OH232173   6.170   1.254   8.357 -0.0262  0.2696 -0.0397
 3513TIP3    H132174   6.225   1.210   8.421  0.0630  0.4635  0.0165
 3513TIP3    H232175   6.231   1.284   8.289 -0.0874  0.2987 -0.0818
 3514TIP3   OH232176   0.871   6.412   1.243 -0.3333  0.1067  0.4708
 3514TIP3    H132177   0.903   6.423   1.154  0.1562  1.3499  0.7733
 3514TIP3    H232178   0.797   6.473   1.249 -1.9959 -1.7891  0.1742
 3515TIP3   OH232179   0.892   2.332   7.972 -0.1264 -0.1638 -0.7014
 3515TIP3    H132180   0.938   2.331   7.887 -0.3790 -1.8881 -0.8643
 3515TIP3    H232181   0.959   2.307   8.035 -0.1266  0.3475 -0.4967
 3516TIP3   OH232182   4.620   4.287   6.624  0.0192 -0.6146 -0.7661
 3516TIP3    H132183   4.642   4.245   6.708  1.3307 -1.1262 -1.3447
 3516TIP3    H232184   4.700   4.280   6.572  0.2541  2.4255 -1.0019
 3517TIP3   OH232185   6.809   6.441   0.018  0.0606 -0.0628  0.0195
 3517TIP3    H132186   6.803   6.346   0.025  1.1412 -0.1524 -0.1449
 3517TIP3    H232187   6.800   6.472   0.109 -1.8207 -0.1958 -0.0778
 3518TIP3   OH232188   1.016   0.617   7.482  0.6397  0.0560  0.0494
 3518TIP3    H132189   0.951   0.660   7.426 -0.1484 -0.9785  0.1350
 3518TIP3    H232190   1.021   0.673   7.559  1.7168  1.4849 -1.0045
 3519TIP3   OH232191   5.682   0.279   7.775 -0.3594 -0.5765  0.3880
 3519TIP3    H132192   5.675   0.279   7.679  1.9504 -0.4570  0.1564
 3519TIP3    H232193   5.605   0.328   7.804 -1.6180 -1.4014 -1.3220
 3520TIP3   OH232194   5.040   6.076   0.739 -0.0517 -0.9668 -0.3065
 3520TIP3    H132195   5.043   6.083   0.644 -0.6021 -0.3849 -0.2901
 3520TIP3    H232196   5.078   6.158   0.771 -0.9654 -0.6303 -0.0454
 3521TIP3   OH232197   1.469   0.894   7.233 -0.5566 -0.6225  0.4507
 3521TIP3    H132198   1.451   0.977   7.188  1.7250 -0.6277 -0.6160
 3521TIP3    H232199   1.446   0.827   7.169 -0.7266 -0.7643  0.6584
 3522TIP3   OH232200   2.309   2.795   8.620 -0.1824  0.6454 -0.8704
 3522TIP3    H132201   2.253   2.824   8.692 -0.1222 -2.1270  0.4310
 3522TIP3    H232202   2.368   2.868   8.605 -0.3231  1.4266  1.8278
 3523TIP3   OH232203   5.340   1.170   2.329  0.7213  0.1402 -0.2842
 3523TIP3    H132204   5.372   1.147   2.242  0.2719  1.5986 -0.8770
 3523TIP3    H232205   5.244   1.167   2.320  0.5893 -2.7713  1.0669
 3524TIP3   OH232206   5.585   6.545   2.452  0.5834 -0.0236 -0.3146
 3524TIP3    H132207   5.588   6.533   2.547  0.6723 -0.7303 -0.4051
 3524TIP3    H232208   5.573   6.457   2.417 -0.6096  0.3523 -0.9111
 3525TIP3   OH232209   4.660   5.477   7.527  0.1140  0.2276  0.4872
 3525TIP3    H132210   4.636   5.437   7.444  0.8533  2.0875 -0.6830
 3525TIP3    H232211   4.753   5.456   7.539  0.0186 -0.0104  0.8272
 3526TIP3   OH232212   2.848   2.003   7.334 -0.5832 -0.0780 -0.1538
 3526TIP3    H132213   2.895   2.075   7.378 -1.6096  1.0785 -0.8758
 3526TIP3    H232214   2.803   1.957   7.405 -0.1561  0.1755  0.2882
 3527TIP3   OH232215   2.013   5.488   0.789 -0.2370  0.5743  0.0348
 3527TIP3    H132216   1.950   5.557   0.805  0.9370  2.0257 -1.2553
 3527TIP3    H232217   1.962   5.407   0.789 -2.0858  1.6890 -0.9966
 3528TIP3   OH232218   3.424   1.839   8.090  0.5558  0.2942  0.7556
 3528TIP3    H132219   3.515   1.840   8.122  2.0473  2.3991 -2.9289
 3528TIP3    H232220   3.419   1.760   8.037  0.3916  0.4031  0.6096
 3529TIP3   OH232221   5.432   3.507   1.674 -0.1808  0.0224  0.1043
 3529TIP3    H132222   5.508   3.519   1.731  0.1828 -1.7353  0.0247
 3529TIP3    H232223   5.400   3.596   1.658  1.2471  0.7182  0.9585
 3530TIP3   OH232224   3.838   6.410   1.499  0.1247 -0.1952 -0.6682
 3530TIP3    H132225   3.904   6.367   1.445  0.9160  1.6184 -1.2296
 3530TIP3    H232226   3.818   6.491   1.453 -3.1312 -0.9938 -0.9421
 3531TIP3   OH232227   2.241   3.052   0.831  0.3171  0.3579 -0.0161
 3531TIP3    H132228   2.267   2.990   0.899  2.3841 -0.8216 -1.7734
 3531TIP3    H232229   2.299   3.128   0.844 -0.1239  0.6498  0.2695
 3532TIP3   OH232230   0.031   5.107   7.707 -0.4813 -0.1173 -0.2843
 3532TIP3    H132231   0.094   5.035   7.697  0.1581  0.4216 -0.2185
 3532TIP3    H232232   0.038   5.131   7.799  0.2146  0.8294 -0.5669
 3533TIP3   OH232233   3.779   4.962   7.057  0.8040 -0.1117  0.3257
 3533TIP3    H132234   3.742   4.883   7.018  2.2331 -0.3101 -0.6759
 3533TIP3    H232235   3.721   5.032   7.029 -2.5475 -1.0605  3.9776
 3534TIP3   OH232236   5.553   5.292   2.421 -0.9059  0.1681 -0.2604
 3534TIP3    H132237   5.479   5.298   2.481  0.4726  1.0011  1.4466
 3534TIP3    H232238   5.517   5.316   2.335 -2.4839  1.0687  0.6196
 3535TIP3   OH232239   6.665   0.186   1.216 -0.2675 -0.1813  0.0491
 3535TIP3    H132240   6.661   0.279   1.194  0.9296  0.2714  1.5388
 3535TIP3    H232241   6.573   0.160   1.225 -0.6585  0.5440 -1.4740
 3536TIP3   OH232242   0.269   0.387   0.889  0.4669 -0.0708 -0.1391
 3536TIP3    H132243   0.281   0.372   0.982  0.7273  0.2211 -0.1246
 3536TIP3    H232244   0.185   0.345   0.868  0.3044  0.0541  0.2674
 3537TIP3   OH232245   1.862   6.756   0.679  0.3977 -0.3891  1.1638
 3537TIP3    H132246   1.841   6.840   0.639  2.0023 -0.2368  0.6046
 3537TIP3    H232247   1.881   6.776   0.770  1.4156 -0.0372  0.8819
 3538TIP3   OH232248   4.599   0.872   0.668  0.1451 -0.1644 -0.2362
 3538TIP3    H132249   4.527   0.871   0.606 -0.5357  0.4809  0.5199
 3538TIP3    H232250   4.568   0.819   0.742  0.4390  0.1174  0.0967
 3539TIP3   OH232251   6.838   0.393   0.461 -0.0376 -0.2946  0.2309
 3539TIP3    H132252   6.742   0.386   0.456 -0.0068 -0.1998 -0.6370
 3539TIP3    H232253   6.868   0.374   0.372  0.6535  1.3279  0.0890
 3540TIP3   OH232254   0.336   5.635   1.666  0.0861 -0.2516  0.4264
 3540TIP3    H132255   0.425   5.602   1.660  0.3332  0.3910  0.4982
 3540TIP3    H232256   0.317   5.636   1.760  0.5345  0.9689  0.5254
 3541TIP3   OH232257   1.514   2.074   6.964 -0.1976 -0.0584  0.1714
 3541TIP3    H132258   1.462   2.063   6.884  0.6130 -0.0415 -0.3751
 3541TIP3    H232259   1.518   2.169   6.977  0.8404  0.0106 -0.5736
 3542TIP3   OH232260   5.538   0.796   8.451  0.0048  0.6303  0.4463
 3542TIP3    H132261   5.449   0.816   8.479 -0.2879 -0.2821  0.2207
 3542TIP3    H232262   5.541   0.700   8.450  0.9798  0.6524  0.4239
 3543TIP3   OH232263   3.434   1.938   7.320 -0.0869 -1.0097 -0.1286
 3543TIP3    H132264   3.423   1.843   7.315 -0.5312 -0.9298 -0.7744
 3543TIP3    H232265   3.344   1.971   7.328  0.0268 -0.6156 -0.4888
 3544TIP3   OH232266   3.251   1.040   7.133  0.2992  0.1737  0.3005
 3544TIP3    H132267   3.218   0.978   7.068 -0.3810  0.3633  0.4583
 3544TIP3    H232268   3.239   1.126   7.092 -0.0930  0.2912  0.6557
 3545TIP3   OH232269   0.530   5.390   7.046  0.7358 -0.8157  0.7793
 3545TIP3    H132270   0.562   5.301   7.027  3.1387  0.5367 -2.6185
 3545TIP3    H232271   0.606   5.446   7.029 -1.4530  2.0983 -0.1521
 3546TIP3   OH232272   0.786   6.691   8.099  0.6153 -0.4817 -0.0424
 3546TIP3    H132273   0.811   6.614   8.047  1.2579 -0.7600  0.6603
 3546TIP3    H232274   0.798   6.765   8.040 -0.4550 -0.9483 -0.8797
 3547TIP3   OH232275   1.629   1.793   1.241  0.4387 -0.1044  0.1762
 3547TIP3    H132276   1.539   1.824   1.246  0.5834  0.1240  1.9567
 3547TIP3    H232277   1.621   1.699   1.221 -0.2481 -0.3024  1.3131
 3548TIP3   OH232278   5.065   0.723   0.073 -0.4346  0.2410 -0.5408
 3548TIP3    H132279   5.110   0.787   0.018  0.1875 -0.7849 -1.2548
 3548TIP3    H232280   4.978   0.716   0.034 -0.0318 -0.4042 -1.3517
 3549TIP3   OH232281   4.364   6.612   0.931  0.0263  0.0510  0.3572
 3549TIP3    H132282   4.395   6.668   1.003  0.8704 -0.4514  0.3969
 3549TIP3    H232283   4.368   6.523   0.966 -0.9765 -0.0727  0.1751
 3550TIP3   OH232284   5.917   3.056   6.838 -0.1005  0.4047  0.4105
 3550TIP3    H132285   5.828   3.022   6.843  0.0242  0.1005  0.6555
 3550TIP3    H232286   5.938   3.081   6.928  0.8303 -1.5546  0.7867
 3551TIP3   OH232287   5.035   2.947   8.248 -0.0835  0.2873 -0.6392
 3551TIP3    H132288   5.118   2.974   8.210  0.1771  2.0762  1.0350
 3551TIP3    H232289   4.986   3.028   8.261 -1.2771 -0.5227  0.2506
 3552TIP3   OH232290   1.761   0.016   0.521 -0.6501 -0.1073 -0.0599
 3552TIP3    H132291   1.684  -0.038   0.500 -0.4165 -0.4195 -0.1242
 3552TIP3    H232292   1.793   0.047   0.437 -0.5061 -0.2572 -0.0613
 3553TIP3   OH232293   4.899   5.477   1.956 -0.2548 -0.0910  0.3825
 3553TIP3    H132294   4.881   5.565   1.922 -1.2853  0.1999  1.6017
 3553TIP3    H232295   4.955   5.437   1.890 -0.9995  0.9476 -0.9382
 3554TIP3   OH232296   2.516   5.780   7.471  0.0302  0.1491 -0.1837
 3554TIP3    H132297   2.457   5.855   7.468  0.8775  0.9361  1.2535
 3554TIP3    H232298   2.460   5.706   7.493 -0.5051  0.7943  0.6895
 3555TIP3   OH232299   4.439   3.822   0.280  0.0013 -0.0004 -0.5992
 3555TIP3    H132300   4.435   3.785   0.368 -0.9412  0.0092 -0.6268
 3555TIP3    H232301   4.511   3.886   0.284  1.7757 -1.8815 -0.5999
 3556TIP3   OH232302   4.919   6.851   0.317 -0.3915  0.0499 -0.3376
 3556TIP3    H132303   4.860   6.925   0.328 -1.4415 -1.0039  1.5976
 3556TIP3    H232304   4.863   6.779   0.288  0.1977 -0.6023  0.1119
 3557TIP3   OH232305   4.001   5.962   8.262  0.6018  0.0600 -0.7289
 3557TIP3    H132306   3.992   5.874   8.225  2.0160  0.3643 -1.8937
 3557TIP3    H232307   4.007   5.948   8.357 -1.1689 -0.9089 -0.7266
 3558TIP3   OH232308   0.013   2.162   1.258  0.1155 -0.8612  0.2575
 3558TIP3    H132309  -0.015   2.152   1.349 -2.8071  2.9820  0.0368
 3558TIP3    H232310  -0.064   2.139   1.206  0.0389  1.6769 -0.9009
 3559TIP3   OH232311   1.596   0.353   1.634 -0.0392  0.1391  0.2330
 3559TIP3    H132312   1.686   0.325   1.650  0.2384  1.4727  1.1602
 3559TIP3    H232313   1.543   0.275   1.648  0.8976 -0.4650  0.4711
 3560TIP3   OH232314   5.293   6.630   2.117 -0.0925 -0.1534  0.1320
 3560TIP3    H132315   5.245   6.572   2.058  0.1411 -1.7998  1.4821
 3560TIP3    H232316   5.383   6.599   2.113 -0.2234 -0.9072  1.9854
 3561TIP3   OH232317   3.610   4.358   0.183  0.0049  0.0173  0.1776
 3561TIP3    H132318   3.574   4.269   0.181 -1.5685  0.5745  1.5370
 3561TIP3    H232319   3.629   4.378   0.091 -0.4008 -1.4108 -0.2413
 3562TIP3   OH232320   4.591   2.392   6.571  0.0647  0.1455  0.6686
 3562TIP3    H132321   4.557   2.406   6.482 -2.5397 -1.7731  1.2292
 3562TIP3    H232322   4.532   2.442   6.628 -0.0023 -0.8320  1.4872
 3563TIP3   OH232323   1.847   6.440   1.744  0.4239  0.4796 -0.2268
 3563TIP3    H132324   1.851   6.522   1.695 -0.9575  0.7329  0.0483
 3563TIP3    H232325   1.878   6.463   1.832 -2.8208  1.5155  0.7904
 3564TIP3   OH232326   1.004   3.493   2.294 -0.4990  0.5895  0.3738
 3564TIP3    H132327   0.920   3.510   2.253 -0.7036  1.2483  1.0559
 3564TIP3    H232328   0.996   3.404   2.328 -1.3665  1.0727  1.4941
 3565TIP3   OH232329   2.229   0.545   6.901  0.1126 -0.0574 -0.4605
 3565TIP3    H132330   2.282   0.481   6.854 -1.3077 -2.0306  0.4975
 3565TIP3    H232331   2.183   0.593   6.832  0.7124 -0.4892 -1.1816
 3566TIP3   OH232332   2.016   6.243   1.685 -0.0228  0.2746  0.4714
 3566TIP3    H132333   2.008   6.221   1.778  0.5604  0.0238  0.4687
 3566TIP3    H232334   1.958   6.318   1.672  0.7950  1.0747  1.3076
 3567TIP3   OH232335   0.192   4.967   6.927  0.3858 -0.2382  0.5996
 3567TIP3    H132336   0.280   4.991   6.956  0.4209 -0.3379  0.5746
 3567TIP3    H232337   0.172   5.031   6.859  1.5044 -1.7931 -1.2938
 3568TIP3   OH232338   2.919   2.052   2.100  0.0314  0.6334  0.3555
 3568TIP3    H132339   2.953   2.040   2.189 -1.3734 -0.2402  0.8049
 3568TIP3    H232340   2.915   2.147   2.089  3.0228  0.8304  0.0645
 3569TIP3   OH232341   1.760   5.578   0.881  0.1721  0.3800  0.1125
 3569TIP3    H132342   1.716   5.619   0.956  0.2630 -1.4681  1.2464
 3569TIP3    H232343   1.695   5.516   0.847  1.8227 -2.6006  1.9805
 3570TIP3   OH232344   3.930   2.206   1.412  0.2150  0.0752 -0.1881
 3570TIP3    H132345   3.932   2.278   1.476 -0.7605  1.5462 -1.7155
 3570TIP3    H232346   3.876   2.139   1.453 -2.2552  1.8769 -0.2357
 3571TIP3   OH232347   2.389   6.655   0.610  0.8395  0.3354  0.2340
 3571TIP3    H132348   2.462   6.712   0.634  1.4539 -1.1158  2.0909
 3571TIP3    H232349   2.372   6.603   0.688 -0.8457 -0.8079 -0.8120
 3572TIP3   OH232350   2.790   4.933   7.477  0.5367 -0.4026 -0.4235
 3572TIP3    H132351   2.833   4.854   7.445 -0.8563 -1.6105  0.5165
 3572TIP3    H232352   2.718   4.948   7.416 -0.3306 -0.9861  0.4172
 3573TIP3   OH232353   4.280   3.952   0.565 -0.4922 -0.0366 -0.6205
 3573TIP3    H132354   4.223   4.005   0.620  0.1277  1.5258 -1.4118
 3573TIP3    H232355   4.357   3.935   0.619 -0.0977  1.0710 -0.8126
 3574TIP3   OH232356   5.148   1.997   7.541 -0.2911  0.3884  0.0930
 3574TIP3    H132357   5.126   2.008   7.448 -1.6504 -0.6952  0.2676
 3574TIP3    H232358   5.220   1.934   7.541 -0.9116 -0.3338 -0.1878
 3575TIP3   OH232359   6.868   6.359   6.265  0.2805  0.1019 -0.0193
 3575TIP3    H132360   6.794   6.326   6.214  0.7209 -1.6000  0.3904
 3575TIP3    H232361   6.829   6.391   6.346 -0.0909 -0.1579 -0.0901
 3576TIP3   OH232362   0.493   0.224   7.192  0.0450 -0.1527 -0.1168
 3576TIP3    H132363   0.565   0.267   7.147 -0.5743  0.7346 -0.3066
 3576TIP3    H232364   0.515   0.131   7.192  1.1274  0.0936 -0.2569
 3577TIP3   OH232365   4.350   2.516   7.374  0.3132  0.6362  0.0269
 3577TIP3    H132366   4.386   2.533   7.288  1.4790  1.0381  0.5724
 3577TIP3    H232367   4.310   2.599   7.400 -3.0233 -0.3305 -1.4261
 3578TIP3   OH232368   1.602   0.869   7.461 -0.2317  0.2937  0.5903
 3578TIP3    H132369   1.538   0.845   7.394 -0.2857  1.1541  0.3188
 3578TIP3    H232370   1.591   0.804   7.530  0.1831 -0.9348 -0.4552
 3579TIP3   OH232371   0.036   1.721   7.174 -0.2990 -0.4340 -0.4643
 3579TIP3    H132372  -0.034   1.696   7.235 -0.4016 -2.2169 -1.2402
 3579TIP3    H232373   0.025   1.815   7.162 -1.3371 -0.3385  0.9455
 3580TIP3   OH232374   6.121   6.299   7.187  0.5291  0.4552 -0.3158
 3580TIP3    H132375   6.119   6.206   7.209 -1.9045  0.4926 -0.1567
 3580TIP3    H232376   6.141   6.301   7.094  2.1431 -0.1087 -0.0194
 3581TIP3   OH232377   4.779   5.103   6.771 -0.3758  0.1033 -0.1849
 3581TIP3    H132378   4.717   5.146   6.712 -0.7652 -0.2200 -0.0172
 3581TIP3    H232379   4.827   5.041   6.715 -1.4867 -0.9802  0.0312
 3582TIP3   OH232380   4.514   3.915   7.342  0.1302  0.1651  0.3268
 3582TIP3    H132381   4.556   3.999   7.321  1.7054 -0.9922 -1.4807
 3582TIP3    H232382   4.549   3.891   7.428  2.3907 -0.2375 -0.6558
 3583TIP3   OH232383   2.776   3.470   8.148  0.1954  0.0132  0.1144
 3583TIP3    H132384   2.810   3.424   8.071  0.9151  1.3424 -0.3963
 3583TIP3    H232385   2.682   3.453   8.146  0.2810 -0.4243 -0.7506
 3584TIP3   OH232386   2.097   6.522   6.894 -0.7680  0.2135 -0.1986
 3584TIP3    H132387   2.126   6.442   6.850  0.5879  0.3196  0.4367
 3584TIP3    H232388   2.099   6.590   6.826  0.0795  0.1170 -0.2832
 3585TIP3   OH232389   4.979   4.905   8.152  0.3164 -0.2094 -0.6545
 3585TIP3    H132390   4.924   4.938   8.223  0.6312  1.6115 -1.2244
 3585TIP3    H232391   4.951   4.953   8.075  1.0883 -0.9904 -1.4509
 3586TIP3   OH232392   2.392   0.134   1.791 -0.4181 -0.0407  0.3437
 3586TIP3    H132393   2.481   0.108   1.815 -0.4586 -0.7947 -0.2941
 3586TIP3    H232394   2.394   0.230   1.793  1.0350  0.0435 -1.7777
 3587TIP3   OH232395   1.459   2.930   7.385 -0.5862 -0.1931 -0.4916
 3587TIP3    H132396   1.382   2.968   7.344 -0.5272  1.0940  0.5273
 3587TIP3    H232397   1.516   2.907   7.311 -0.8940  1.1493 -1.1803
 3588TIP3   OH232398   3.437   2.758   7.176  0.0991  0.3383  0.3806
 3588TIP3    H132399   3.497   2.832   7.190 -0.6942  0.9750  0.4977
 3588TIP3    H232400   3.492   2.680   7.187  0.8924  0.9053  0.5353
 3589TIP3   OH232401   1.813   6.586   0.459  0.0118 -0.1067  0.4245
 3589TIP3    H132402   1.825   6.639   0.538  1.3760 -1.7759  1.4284
 3589TIP3    H232403   1.724   6.553   0.465 -0.0930  0.2689  0.9755
 3590TIP3   OH232404   6.886   4.006   1.313 -0.5995  0.3167 -0.0523
 3590TIP3    H132405   6.910   3.953   1.389  0.9925  0.1225 -0.6489
 3590TIP3    H232406   6.850   3.943   1.251 -1.2974  0.3779  0.2791
 3591TIP3   OH232407   0.801   6.483   1.795  0.5049 -0.2126  0.1445
 3591TIP3    H132408   0.813   6.419   1.865 -2.1009 -0.2355  0.6762
 3591TIP3    H232409   0.770   6.432   1.720 -0.0089  0.2173  0.0572
 3592TIP3   OH232410   2.004   6.163   0.355 -0.5236  0.1938  0.4596
 3592TIP3    H132411   2.098   6.160   0.337 -0.3059 -1.0242  1.6797
 3592TIP3    H232412   1.993   6.235   0.417 -0.9979  2.9733 -2.5207
 3593TIP3   OH232413   5.265   5.041   8.618  0.7965  0.0934 -0.4056
 3593TIP3    H132414   5.198   4.976   8.595  2.3724 -1.7714  0.0136
 3593TIP3    H232415   5.333   5.030   8.551  1.4978  0.7041  0.1904
 3594TIP3   OH232416   3.349   5.949   0.837 -0.3068  0.1934 -0.1562
 3594TIP3    H132417   3.379   5.860   0.819 -2.0049 -0.7549  1.3924
 3594TIP3    H232418   3.344   5.954   0.932 -1.8965  1.3538 -0.2693
 3595TIP3   OH232419   6.536   2.019   1.635 -0.2710 -0.5171  0.5697
 3595TIP3    H132420   6.539   2.011   1.731  0.5860  0.2117  0.6137
 3595TIP3    H232421   6.604   1.959   1.604 -1.4358 -1.7827  0.3173
 3596TIP3   OH232422   6.762   3.964   0.032 -0.3379 -0.2331  0.0987
 3596TIP3    H132423   6.672   3.955   0.001 -0.1693 -0.0025 -0.4735
 3596TIP3    H232424   6.787   3.877   0.061 -1.4707  0.1238  2.3046
 3597TIP3   OH232425   5.185   2.542   7.095  0.5104 -0.0774 -0.1167
 3597TIP3    H132426   5.156   2.487   7.168  2.1674  0.7373  1.2402
 3597TIP3    H232427   5.277   2.516   7.081  1.9520  3.3542  1.7342
 3598TIP3   OH232428   1.945   2.519   8.297  0.1091 -0.2652 -0.2219
 3598TIP3    H132429   1.934   2.435   8.252 -0.1595  0.5066 -1.6508
 3598TIP3    H232430   2.020   2.505   8.355 -0.7846 -1.9090  0.6333
 3599TIP3   OH232431   0.617   6.684   2.549 -0.5653 -0.1985  0.3251
 3599TIP3    H132432   0.681   6.750   2.575  0.7952 -0.1866 -2.7093
 3599TIP3    H232433   0.663   6.600   2.562 -1.2997 -0.4416  1.5469
 3600TIP3   OH232434   1.425   4.831   1.118 -0.7339 -0.5335 -0.9920
 3600TIP3    H132435   1.375   4.800   1.043 -0.7006 -3.3052  0.0207
 3600TIP3    H232436   1.432   4.755   1.175  2.7151  0.3054 -0.0393
 3601TIP3   OH232437   2.264   0.065   8.549 -0.4275  0.1921 -0.0408
 3601TIP3    H132438   2.323  -0.006   8.573 -0.4069  0.4159  0.5674
 3601TIP3    H232439   2.321   0.141   8.537 -0.7842  1.0429  2.9575
 3602TIP3   OH232440   3.689   4.191   0.827  0.2954  0.3170 -0.2508
 3602TIP3    H132441   3.688   4.098   0.803 -0.9608  0.2447 -0.0111
 3602TIP3    H232442   3.745   4.232   0.762 -1.3728 -0.1901 -2.0966
 3603TIP3   OH232443   3.943   6.868   8.331 -0.4421 -0.1696  0.7130
 3603TIP3    H132444   3.882   6.857   8.404 -0.2616  0.4064  0.9553
 3603TIP3    H232445   3.963   6.778   8.303  0.3071 -0.4472  2.0513
 3604TIP3   OH232446   1.149   0.156   1.356  0.2155  0.1222  0.1065
 3604TIP3    H132447   1.226   0.111   1.320  0.4936  1.0529 -0.4896
 3604TIP3    H232448   1.107   0.090   1.411  1.8941 -0.1801  1.1052
 3605TIP3   OH232449   2.861   1.189   7.709  0.5448  0.0272  0.0778
 3605TIP3    H132450   2.787   1.242   7.681  1.1146  1.4424  1.0811
 3605TIP3    H232451   2.827   1.100   7.716 -1.0905  0.6572  0.6148
 3606TIP3   OH232452   5.820   0.009   6.958  0.2627 -0.0413  0.0162
 3606TIP3    H132453   5.914   0.018   6.969  0.9360 -2.7927 -2.3152
 3606TIP3    H232454   5.794   0.085   6.905  0.8347  1.5032  1.8756
 3607TIP3   OH232455   3.540   1.698   0.638 -0.1583 -0.4072 -0.1437
 3607TIP3    H132456   3.603   1.674   0.706  0.5748 -1.4668 -1.1774
 3607TIP3    H232457   3.463   1.645   0.657 -0.5751  0.4736  0.7794
 3608TIP3   OH232458   2.762   0.891   8.014  0.1624  0.1342 -0.1896
 3608TIP3    H132459   2.782   0.890   7.920  0.5634  0.3963 -0.1098
 3608TIP3    H232460   2.709   0.970   8.026 -0.4088 -0.2340 -0.3000
 3609TIP3   OH232461   1.196   0.590   2.725 -0.3730 -0.0684 -0.0384
 3609TIP3    H132462   1.175   0.682   2.738 -2.5951 -0.3881 -0.9421
 3609TIP3    H232463   1.178   0.574   2.632 -0.6113 -1.5515  0.2412
 3610TIP3   OH232464   6.481   0.696   6.993 -0.2717 -0.4497 -0.2563
 3610TIP3    H132465   6.547   0.686   7.061 -0.0718 -0.9018 -0.5170
 3610TIP3    H232466   6.515   0.647   6.918  0.5831  1.8102 -1.4548
 3611TIP3   OH232467   0.039   6.765   7.291  0.0622  0.3901  0.4158
 3611TIP3    H132468   0.067   6.856   7.284 -0.5522  0.5834  0.3456
 3611TIP3    H232469   0.018   6.753   7.384  1.1222  0.0109  0.6190
 3612TIP3   OH232470   5.591   4.751   6.507  0.4198  0.4912 -0.3121
 3612TIP3    H132471   5.679   4.749   6.545  0.4050 -1.2806 -0.2938
 3612TIP3    H232472   5.588   4.674   6.450 -1.0368  0.6740 -0.5181
 3613TIP3   OH232473   3.652   4.696   1.491  0.5131  0.1192  0.0832
 3613TIP3    H132474   3.640   4.657   1.578  1.1754  2.0619  1.1133
 3613TIP3    H232475   3.740   4.734   1.493  1.5758 -1.8945 -2.3764
 3614TIP3   OH232476   3.953   3.547   7.440 -0.5030 -0.2596  0.2345
 3614TIP3    H132477   3.996   3.596   7.370 -1.1877 -0.6078 -0.4371
 3614TIP3    H232478   3.861   3.574   7.435 -0.6387 -0.6217  0.7110
 3615TIP3   OH232479   0.637   6.682   0.838 -0.4160 -0.1159  0.1207
 3615TIP3    H132480   0.669   6.683   0.748  0.1110  0.8058  0.3148
 3615TIP3    H232481   0.704   6.726   0.889 -0.8548 -0.3463  0.9278
 3616TIP3   OH232482   5.833   0.960   0.869 -0.0375  1.3287 -0.2968
 3616TIP3    H132483   5.909   0.966   0.811 -0.4190 -0.3027 -1.0244
 3616TIP3    H232484   5.810   0.867   0.868 -1.0304  1.5257  1.2385
 3617TIP3   OH232485   4.289   6.736   8.527  0.0573 -0.3142 -0.4406
 3617TIP3    H132486   4.207   6.713   8.570  0.2336 -0.3195 -0.1004
 3617TIP3    H232487   4.295   6.678   8.451  0.2302 -1.0085  0.0962
 3618TIP3   OH232488   2.370   5.347   8.436 -1.3962  0.1787 -0.2572
 3618TIP3    H132489   2.410   5.371   8.352 -0.1458 -1.0093 -0.0387
 3618TIP3    H232490   2.303   5.413   8.450  0.0150  1.8681 -1.0082
 3619TIP3   OH232491   6.218   3.454   0.136 -0.1651  0.5962  0.0665
 3619TIP3    H132492   6.128   3.485   0.151  0.2792  1.4877  0.9505
 3619TIP3    H232493   6.207   3.377   0.080 -1.4043  1.3123 -0.7231
 3620TIP3   OH232494   2.070   4.564   0.013  0.0495 -0.1361  0.0342
 3620TIP3    H132495   2.145   4.598  -0.035 -0.1329  1.6174  0.9340
 3620TIP3    H232496   2.097   4.565   0.105 -0.8117 -0.1571  0.3016
 3621TIP3   OH232497   2.119   2.025   0.901 -0.5627  0.6815 -0.4117
 3621TIP3    H132498   2.165   2.023   0.817  0.1592  0.9004 -0.0221
 3621TIP3    H232499   2.034   2.065   0.880 -0.6727  0.0892 -1.1657
 3622TIP3   OH232500   2.075   0.781   0.998  0.3116  0.0873  0.5351
 3622TIP3    H132501   2.129   0.722   0.946  1.0610  0.9527  0.3007
 3622TIP3    H232502   2.103   0.765   1.089  0.4196 -0.0097  0.4859
 3623TIP3   OH232503   3.596   6.117   8.619  0.4432  0.6218 -0.1992
 3623TIP3    H132504   3.610   6.180   8.690 -1.2983 -0.5380  1.2650
 3623TIP3    H232505   3.506   6.132   8.592 -0.0895 -1.3050  0.3173
 3624TIP3   OH232506   0.748   6.762   8.542 -0.5861  0.0668  0.2210
 3624TIP3    H132507   0.687   6.692   8.564  2.7712 -4.6401 -3.5067
 3624TIP3    H232508   0.716   6.797   8.459 -0.4365  0.6348  0.3977
 3625TIP3   OH232509   3.087   1.302   7.812  0.0081  0.2152  0.0791
 3625TIP3    H132510   3.015   1.278   7.753  0.3682 -0.1222 -0.2258
 3625TIP3    H232511   3.068   1.253   7.892 -1.0994  1.5469  0.6706
 3626TIP3   OH232512   3.008   5.613   7.838  0.5286  0.6348 -0.2611
 3626TIP3    H132513   2.979   5.662   7.761 -0.2125  0.2934 -0.2062
 3626TIP3    H232514   3.019   5.523   7.807  0.0052  0.4483  0.0737
 3627TIP3   OH232515   5.016   2.830   0.795  0.8459  0.3921  0.5864
 3627TIP3    H132516   4.950   2.785   0.848 -0.5147  0.3597 -1.0454
 3627TIP3    H232517   5.025   2.916   0.837 -0.2440  0.3969  0.8641
 3628TIP3   OH232518   3.743   4.362   8.398 -0.1932 -0.7571 -0.4053
 3628TIP3    H132519   3.826   4.355   8.446 -0.5971  1.0903  0.6549
 3628TIP3    H232520   3.690   4.289   8.431 -0.4371  0.4023  2.0389
 3629TIP3   OH232521   3.274   5.363   7.446  0.3056  0.0786  0.1134
 3629TIP3    H132522   3.184   5.331   7.452 -0.3322  1.8545  0.7866
 3629TIP3    H232523   3.323   5.291   7.405 -1.4323 -0.8693 -0.3909
 3630TIP3   OH232524   6.333   3.229   8.281  0.4292 -0.3539 -0.5851
 3630TIP3    H132525   6.401   3.164   8.295  0.0153 -0.6339  0.1975
 3630TIP3    H232526   6.252   3.185   8.305 -0.1341 -0.2579 -2.2021
 3631TIP3   OH232527   4.101   6.543   1.188 -0.0766 -0.1121 -0.0947
 3631TIP3    H132528   4.014   6.532   1.149 -0.4753  0.9372  0.4606
 3631TIP3    H232529   4.158   6.487   1.136 -0.9967 -0.4495 -0.7685
 3632TIP3   OH232530   2.337   4.196   2.417  0.6127  0.8846  0.0723
 3632TIP3    H132531   2.301   4.156   2.496  1.2555  1.2328  0.5411
 3632TIP3    H232532   2.345   4.122   2.356 -0.6425  0.7521  0.0334
 3633TIP3   OH232533   3.765   1.109   7.261 -0.3147 -0.5327  0.4452
 3633TIP3    H132534   3.743   1.201   7.245  1.7256 -0.3734 -2.1688
 3633TIP3    H232535   3.751   1.066   7.177  3.7768 -1.4278  0.0116
 3634TIP3   OH232536   2.896   1.745   0.569 -0.0695  0.3169 -0.4236
 3634TIP3    H132537   2.870   1.672   0.513  0.0076 -0.8666  1.0316
 3634TIP3    H232538   2.918   1.705   0.653  1.1769  1.8852  0.0501
 3635TIP3   OH232539   1.262   0.857   0.477 -0.6764 -0.0284  0.4463
 3635TIP3    H132540   1.177   0.863   0.434 -2.1606  0.6398  3.2080
 3635TIP3    H232541   1.309   0.936   0.451 -0.4349 -0.8555 -1.8560
 3636TIP3   OH232542   5.479   3.175   2.326  0.2149 -0.1252 -0.1635
 3636TIP3    H132543   5.447   3.173   2.416  0.8117  1.4702  0.1133
 3636TIP3    H232544   5.547   3.107   2.323 -0.3798 -0.7558  0.3404
 3637TIP3   OH232545   1.171   4.222   7.459 -0.3455  0.0370  0.9585
 3637TIP3    H132546   1.163   4.248   7.550 -0.8662 -1.1598  1.2711
 3637TIP3    H232547   1.110   4.278   7.412 -0.7473  0.0454  1.4805
 3638TIP3   OH232548   2.246   1.803   8.253  0.0623  0.1086 -0.0665
 3638TIP3    H132549   2.299   1.810   8.174  1.3404 -1.2903  0.6174
 3638TIP3    H232550   2.232   1.709   8.265 -2.6046  0.4033 -0.1804
 3639TIP3   OH232551   4.867   1.282   2.049 -0.5842 -0.0661 -0.2726
 3639TIP3    H132552   4.777   1.294   2.019  0.1402 -0.8013 -3.0451
 3639TIP3    H232553   4.918   1.341   1.994  0.5956  0.9355  1.7956
 3640TIP3   OH232554   4.497   0.128   0.702  0.7611 -0.3457  0.3969
 3640TIP3    H132555   4.586   0.122   0.735  0.9544 -0.2071 -0.0857
 3640TIP3    H232556   4.457   0.043   0.723  1.1672 -0.5984  0.1557
 3641TIP3   OH232557   2.414   2.678   1.274 -0.1880 -0.4469 -0.5518
 3641TIP3    H132558   2.405   2.716   1.362  1.4205  0.0569 -0.5792
 3641TIP3    H232559   2.365   2.596   1.278 -1.0740  0.1046  0.4707
 3642TIP3   OH232560   0.020   2.661   1.042  0.3109  0.0697  0.0082
 3642TIP3    H132561   0.109   2.632   1.064  0.3598 -1.4591 -2.0049
 3642TIP3    H232562  -0.029   2.649   1.123  1.7518  0.2803  0.9569
 3643TIP3   OH232563   6.024   6.248   1.433 -0.1698 -0.9271 -0.3307
 3643TIP3    H132564   5.985   6.324   1.477 -0.1771 -0.1608 -1.5997
 3643TIP3    H232565   5.997   6.173   1.485 -0.5103 -0.0948  0.7243
 3644TIP3   OH232566   6.730   2.771   7.244  0.6107  0.0052 -0.8212
 3644TIP3    H132567   6.779   2.690   7.233  0.5973 -0.0968 -0.2125
 3644TIP3    H232568   6.663   2.769   7.176 -0.4114 -1.2709  0.1712
 3645TIP3   OH232569   1.469   4.011   8.388  1.1216  0.1462  0.7292
 3645TIP3    H132570   1.419   4.065   8.327 -1.1202 -2.0307  0.5055
 3645TIP3    H232571   1.404   3.979   8.450  2.6685 -0.9540  1.8543
 3646TIP3   OH232572   3.456   3.883   0.679 -0.0415  0.0135  0.0019
 3646TIP3    H132573   3.473   3.789   0.676  0.2087  0.0866 -0.9438
 3646TIP3    H232574   3.372   3.894   0.635  0.0441  0.2659 -0.0972
 3647TIP3   OH232575   0.047   1.843   1.654  0.0740 -0.2983  0.6020
 3647TIP3    H132576   0.065   1.809   1.741  2.0854 -1.4652 -0.1811
 3647TIP3    H232577   0.119   1.905   1.637 -1.2099  1.1965  0.3663
 3648TIP3   OH232578   2.882   0.146   0.121 -0.1901  0.1214  0.9831
 3648TIP3    H132579   2.960   0.174   0.072  0.9172 -0.4991  2.3305
 3648TIP3    H232580   2.817   0.213   0.101  0.9408  1.1120  0.4620
 3649TIP3   OH232581   5.088   1.478   8.535 -0.2898  0.2383 -0.0363
 3649TIP3    H132582   5.130   1.563   8.519 -2.5257  1.3681 -0.3513
 3649TIP3    H232583   5.086   1.471   8.631 -0.2759  0.6530 -0.0019
 3650TIP3   OH232584   0.696   5.131   7.037  0.1653  0.3164 -0.5107
 3650TIP3    H132585   0.718   5.207   7.092 -0.2955  0.3316 -0.3422
 3650TIP3    H232586   0.766   5.068   7.055 -0.2124  0.1466  0.4523
 3651TIP3   OH232587   1.767   4.315   8.615  0.0242 -0.2462  0.0502
 3651TIP3    H132588   1.685   4.286   8.653 -0.3089 -0.8824 -1.1516
 3651TIP3    H232589   1.806   4.237   8.576  0.5216  0.3262 -0.6329
 3652TIP3   OH232590   6.402   1.872   1.243 -0.0441  0.1590 -0.4949
 3652TIP3    H132591   6.401   1.960   1.280 -3.2760  0.5726 -1.2519
 3652TIP3    H232592   6.399   1.885   1.148  0.2722 -0.7987 -0.6514
 3653TIP3   OH232593   3.559   6.183   6.978  0.2714  0.4427  0.3603
 3653TIP3    H132594   3.494   6.120   6.948 -0.8639  1.0742  1.4079
 3653TIP3    H232595   3.547   6.260   6.922 -0.5168  0.8909  1.1202
 3654TIP3   OH232596   5.695   5.017   8.295  0.3870 -0.2831 -0.0938
 3654TIP3    H132597   5.786   5.039   8.273  0.1012  0.6018 -0.4409
 3654TIP3    H232598   5.682   4.929   8.260  1.1529 -0.4654  0.0726
 3655TIP3   OH232599   3.844   3.837   0.097 -0.2082 -0.2947  0.0561
 3655TIP3    H132600   3.757   3.864   0.070  0.3099 -0.7172 -2.2500
 3655TIP3    H232601   3.903   3.883   0.037  0.9648 -2.4974 -0.5942
 3656TIP3   OH232602   2.631   5.079   6.898 -0.5185 -0.1422  0.2784
 3656TIP3    H132603   2.683   4.999   6.894 -0.0645  0.1211  0.8041
 3656TIP3    H232604   2.689   5.147   6.865 -1.4748 -0.2836 -1.8914
 3657TIP3   OH232605   2.604   4.976   1.844 -0.0765 -0.5636 -0.3989
 3657TIP3    H132606   2.664   4.902   1.852  1.6041  0.8066  0.3578
 3657TIP3    H232607   2.549   4.972   1.922  1.1893 -0.0750  0.5672
 3658TIP3   OH232608   0.679   2.765   0.097  0.2361  0.1545  0.6893
 3658TIP3    H132609   0.725   2.681   0.104  1.6493  0.9560  1.4485
 3658TIP3    H232610   0.611   2.760   0.165 -0.7893 -0.9871 -0.3600
 3659TIP3   OH232611   4.718   1.031   0.331  0.2311  0.1002  0.4288
 3659TIP3    H132612   4.692   0.942   0.354 -0.3400 -0.2206 -1.2994
 3659TIP3    H232613   4.745   1.025   0.239  2.2888  1.2893  0.8937
 3660TIP3   OH232614   0.452   3.657   1.267  0.6494 -0.3916 -0.4391
 3660TIP3    H132615   0.546   3.648   1.278  0.4847  0.1844  1.8745
 3660TIP3    H232616   0.424   3.572   1.233  1.6411 -1.7074  1.8109
 3661TIP3   OH232617   2.799   0.231   7.789 -0.4133 -0.1925 -0.0993
 3661TIP3    H132618   2.879   0.264   7.747 -0.0666 -0.7145  0.1335
 3661TIP3    H232619   2.800   0.270   7.876 -0.5661  0.0341 -0.1994
 3662TIP3   OH232620   3.631   1.933   1.402 -0.2013  0.0547 -0.1831
 3662TIP3    H132621   3.557   1.873   1.411 -0.7810  0.9798  1.5612
 3662TIP3    H232622   3.596   2.019   1.424  1.6666  0.3187  2.2063
 3663TIP3   OH232623   0.726   2.603   0.901  0.1158 -0.3879 -0.2506
 3663TIP3    H132624   0.713   2.693   0.871 -1.6308 -0.4043  0.3681
 3663TIP3    H232625   0.798   2.609   0.964 -1.2249  0.9474  1.2508
 3664TIP3   OH232626   1.003   0.743   0.079  0.2167 -0.0744  0.3059
 3664TIP3    H132627   0.943   0.671   0.099 -0.8207  0.5522 -0.4248
 3664TIP3    H232628   1.090   0.708   0.097  0.0886 -2.7131 -3.1947
 3665TIP3   OH232629   1.013   4.515   1.844 -0.0146 -0.2632 -0.2562
 3665TIP3    H132630   0.931   4.466   1.836 -0.5134  0.4857  0.1873
 3665TIP3    H232631   1.048   4.490   1.929 -0.3711  0.2876  0.0591
 3666TIP3   OH232632   3.216   3.663   8.000  0.4135 -0.1900 -0.2838
 3666TIP3    H132633   3.187   3.754   7.991  0.6999 -0.2561 -2.5123
 3666TIP3    H232634   3.211   3.645   8.093  2.7335  2.8905  0.5954
 3667TIP3   OH232635   5.128   4.874   0.995  0.3940  0.4377 -0.1463
 3667TIP3    H132636   5.129   4.908   1.085 -2.1061  1.8546 -0.5488
 3667TIP3    H232637   5.217   4.886   0.964  2.1876 -2.8259  2.9838
 3668TIP3   OH232638   3.883   6.223   6.753 -0.2257  0.3448 -0.0745
 3668TIP3    H132639   3.893   6.218   6.848 -0.2176  1.7837  0.0208
 3668TIP3    H232640   3.926   6.305   6.729 -1.0002  0.4351 -1.2065
 3669TIP3   OH232641   2.190   1.234   6.394 -0.9666  0.2931 -0.0635
 3669TIP3    H132642   2.258   1.298   6.414 -1.3797  0.6866  0.1052
 3669TIP3    H232643   2.126   1.244   6.465  0.1722 -2.0845  1.4423
 3670TIP3   OH232644   4.696   3.868   7.579 -0.1559 -0.5112 -0.3240
 3670TIP3    H132645   4.736   3.791   7.620 -0.2461 -1.3983 -1.8457
 3670TIP3    H232646   4.684   3.929   7.652  1.1492 -1.3934  0.6997
 3671TIP3   OH232647   3.100   4.403   1.450 -0.0812 -0.4084  0.2169
 3671TIP3    H132648   3.195   4.404   1.442  0.1263  0.0234  2.1972
 3671TIP3    H232649   3.083   4.415   1.544 -2.1096  0.8600 -0.2233
 3672TIP3   OH232650   4.800   0.964   0.084 -0.1372  0.2120 -0.0581
 3672TIP3    H132651   4.732   1.026   0.059  0.4451  0.3219 -1.4302
 3672TIP3    H232652   4.785   0.888   0.028 -0.5730 -0.7361  1.2954
 3673TIP3   OH232653   4.145   4.689   1.410 -0.2835  0.4836 -0.3497
 3673TIP3    H132654   4.221   4.703   1.466 -1.5514  3.4385  0.8234
 3673TIP3    H232655   4.177   4.705   1.321  0.9482 -0.6833 -0.1494
 3674TIP3   OH232656   4.637   0.031   1.765 -0.5928  0.3566  1.1952
 3674TIP3    H132657   4.636   0.115   1.810  0.6884  0.5375  0.9439
 3674TIP3    H232658   4.711   0.037   1.704 -0.9972 -0.6429  0.5659
 3675TIP3   OH232659   3.857   5.393   7.666  0.8629  0.2449  0.1878
 3675TIP3    H132660   3.812   5.418   7.585  1.7939 -1.1305 -0.7916
 3675TIP3    H232661   3.844   5.468   7.724 -0.3652  1.0050 -1.0064
 3676TIP3   OH232662   1.856   1.330   8.085  0.4225 -0.5739 -0.2380
 3676TIP3    H132663   1.945   1.353   8.111 -0.0556  0.0894  0.8839
 3676TIP3    H232664   1.860   1.321   7.990  1.5059  0.2649 -0.2900
 3677TIP3   OH232665   4.705   3.516   0.613 -0.2720 -0.0752 -0.0883
 3677TIP3    H132666   4.627   3.571   0.618  0.2175  0.6202  0.1387
 3677TIP3    H232667   4.688   3.455   0.541 -1.2865 -0.3619  0.3806
 3678TIP3   OH232668   5.005   0.214   7.170 -0.1245 -0.5121  0.6927
 3678TIP3    H132669   4.966   0.164   7.099  1.3054 -1.6812  0.6769
 3678TIP3    H232670   4.941   0.282   7.190 -1.1676 -1.0227 -0.7560
 3679TIP3   OH232671   4.132   6.880   1.017  0.3707 -0.2671  0.7643
 3679TIP3    H132672   4.215   6.852   1.054 -0.0020 -1.5066  0.6899
 3679TIP3    H232673   4.126   6.835   0.933  0.4336  1.2215 -0.0831
 3680TIP3   OH232674   6.082   3.824   7.174  0.4163  0.4143 -0.3006
 3680TIP3    H132675   6.004   3.788   7.216  0.8138 -0.9901 -0.7336
 3680TIP3    H232676   6.059   3.832   7.082  1.1970 -1.2621 -0.6701
 3681TIP3   OH232677   3.227   0.015   1.964  0.1621 -0.2745 -0.0808
 3681TIP3    H132678   3.260   0.066   1.890 -0.6949  0.9865  0.3848
 3681TIP3    H232679   3.189  -0.063   1.925  1.3311 -0.4958 -0.8221
 3682TIP3   OH232680   4.304   2.534   8.436 -0.0126  0.4677 -0.0068
 3682TIP3    H132681   4.213   2.538   8.466  0.6758  1.2323  2.1383
 3682TIP3    H232682   4.314   2.610   8.379 -0.3160  1.3242  1.0477
 3683TIP3   OH232683   5.404   1.328   1.357  0.1194 -0.1515  0.0585
 3683TIP3    H132684   5.405   1.364   1.269 -1.9424 -0.3974 -0.0956
 3683TIP3    H232685   5.402   1.405   1.414 -1.4954  0.0160 -0.1994
 3684TIP3   OH232686   2.185   6.942   1.043 -0.2970  0.3579  0.3869
 3684TIP3    H132687   2.269   6.904   1.069 -0.0633  1.2723  1.0236
 3684TIP3    H232688   2.157   6.890   0.968  1.1204  0.3843 -0.1996
 3685TIP3   OH232689   5.958   4.671   1.687 -0.2645  0.2342 -0.0020
 3685TIP3    H132690   5.985   4.679   1.778  0.4440  1.7861 -0.3174
 3685TIP3    H232691   5.907   4.750   1.669  1.2123  0.9356 -1.4451
 3686TIP3   OH232692   2.580   6.443   1.737  0.4853  0.6305  0.0224
 3686TIP3    H132693   2.532   6.384   1.795  0.3654 -0.3241 -1.0160
 3686TIP3    H232694   2.672   6.434   1.762  0.5604 -0.6255 -0.6593
 3687TIP3   OH232695   5.539   0.002   2.526 -0.1889  0.8375  0.3853
 3687TIP3    H132696   5.557   0.040   2.612  2.0375 -2.2318  1.4441
 3687TIP3    H232697   5.623  -0.032   2.496 -1.7383 -2.4706 -0.7028
 3688TIP3   OH232698   2.913   4.294   7.899  0.7108 -0.8195 -0.4260
 3688TIP3    H132699   2.974   4.356   7.857  0.0296  0.1157 -0.0718
 3688TIP3    H232700   2.863   4.256   7.827 -0.6952  1.0372 -0.5041
 3689TIP3   OH232701   5.681   0.621   8.069 -0.0433  0.0195  0.7687
 3689TIP3    H132702   5.674   0.527   8.052  0.4576  0.2393 -0.8405
 3689TIP3    H232703   5.734   0.654   7.997 -2.4373  1.9779 -0.2250
 3690TIP3   OH232704   2.748   0.686   0.822 -0.2573  0.0602  0.3111
 3690TIP3    H132705   2.679   0.680   0.889 -1.9139 -2.0290 -1.4275
 3690TIP3    H232706   2.702   0.713   0.743  1.4294  1.1552 -0.3406
 3691TIP3   OH232707   2.171   5.062   7.044 -0.3173  0.2173 -0.2654
 3691TIP3    H132708   2.248   5.047   6.989 -0.9926  0.5758 -1.3300
 3691TIP3    H232709   2.159   4.980   7.090 -0.0956 -0.3026 -1.1101
 3692TIP3   OH232710   1.871   3.864   1.502 -0.2934 -0.3728  0.8262
 3692TIP3    H132711   1.823   3.850   1.420 -0.8272 -0.2685  1.1210
 3692TIP3    H232712   1.889   3.776   1.534 -1.4828 -0.4250  1.4065
 3693TIP3   OH232713   6.570   3.868   6.866  0.0459  0.1679  0.2327
 3693TIP3    H132714   6.483   3.881   6.829  0.3936 -2.7172 -1.9788
 3693TIP3    H232715   6.554   3.834   6.954 -0.9727  1.0927  0.4318
 3694TIP3   OH232716   4.507   6.170   7.877 -0.0702  0.1157 -0.2722
 3694TIP3    H132717   4.504   6.085   7.834  0.9035 -0.4161  0.6506
 3694TIP3    H232718   4.580   6.163   7.939 -1.0991  1.0162  1.0990
 3695TIP3   OH232719   0.933   6.646   7.313 -0.3313  0.0267 -0.2716
 3695TIP3    H132720   0.937   6.733   7.354  0.5373 -0.3209  0.4273
 3695TIP3    H232721   1.008   6.599   7.351 -1.1413 -1.2196 -0.1742
 3696TIP3   OH232722   2.119   1.140   1.458 -0.1012 -0.6286 -0.2988
 3696TIP3    H132723   2.035   1.173   1.490 -0.2457 -0.1618 -1.1178
 3696TIP3    H232724   2.184   1.198   1.495 -0.0461 -1.5186  1.0558
 3697TIP3   OH232725   3.541   2.878   0.469 -0.0314  0.0393 -0.1486
 3697TIP3    H132726   3.513   2.942   0.403 -0.2031 -0.3635 -0.4720
 3697TIP3    H232727   3.485   2.803   0.453  0.0515 -0.1254  0.3467
 3698TIP3   OH232728   5.340   3.112   7.422 -0.3938 -0.3367 -0.1557
 3698TIP3    H132729   5.383   3.177   7.367 -0.7179 -0.0943 -0.1264
 3698TIP3    H232730   5.279   3.163   7.476 -0.3709 -0.6198  0.1377
 3699TIP3   OH232731   3.221   2.738   0.059  0.3159 -0.4901  0.8327
 3699TIP3    H132732   3.126   2.742   0.048  0.4048  0.4651  0.2964
 3699TIP3    H232733   3.253   2.821   0.024  1.2639 -0.3358  2.0008
 3700TIP3   OH232734   1.354   3.097   8.582 -0.0284  0.4480  0.3404
 3700TIP3    H132735   1.394   3.181   8.605  1.0163 -0.2703  1.2220
 3700TIP3    H232736   1.285   3.085   8.647  0.8278 -0.0719  1.1844
 3701TIP3   OH232737   6.202   2.699   7.247 -0.1670  0.1340  0.3041
 3701TIP3    H132738   6.170   2.778   7.203  0.3906  0.1031 -0.1584
 3701TIP3    H232739   6.140   2.686   7.319 -1.2957 -0.0178 -0.6658
 3702TIP3   OH232740   0.277   0.364   0.397  0.4322  0.2510  0.4039
 3702TIP3    H132741   0.274   0.374   0.302  1.1917  1.8614  0.5253
 3702TIP3    H232742   0.327   0.439   0.428  1.6537 -1.1331  1.9645
 3703TIP3   OH232743   1.343   0.264   1.105 -0.1593 -0.3161 -0.0475
 3703TIP3    H132744   1.277   0.206   1.067  0.3485 -1.7158  1.0961
 3703TIP3    H232745   1.420   0.209   1.116  0.2385  0.4684  1.3915
 3704TIP3   OH232746   0.362   5.862   0.804 -0.4744  0.1631  0.0743
 3704TIP3    H132747   0.305   5.912   0.745 -1.0813  0.5409  0.9684
 3704TIP3    H232748   0.397   5.927   0.865 -0.1191 -0.2778  0.3493
 3705TIP3   OH232749   0.211   4.989   0.103 -0.0174 -0.7696 -0.1814
 3705TIP3    H132750   0.127   5.024   0.134  1.9085  3.0475  1.4062
 3705TIP3    H232751   0.252   4.953   0.182  0.4961 -1.1442 -0.6117
 3706TIP3   OH232752   3.084   3.674   7.136 -0.6003  0.3598  0.2946
 3706TIP3    H132753   3.041   3.649   7.054  0.8753  1.3421 -0.8295
 3706TIP3    H232754   3.088   3.593   7.187  1.5291 -1.1607 -2.0459
 3707TIP3   OH232755   0.556   5.386   0.118  1.5132  0.0714 -0.1199
 3707TIP3    H132756   0.585   5.331   0.045  3.3624 -0.3517  0.8693
 3707TIP3    H232757   0.467   5.412   0.094  1.5503 -1.1880 -1.8547
 3708TIP3   OH232758   5.667   4.429   7.370  0.6302 -0.2206  0.0568
 3708TIP3    H132759   5.596   4.418   7.433  2.4695  2.1849  2.8268
 3708TIP3    H232760   5.732   4.363   7.395  0.3006 -1.0417 -1.1478
 3709TIP3   OH232761   4.980   5.291   1.701 -0.3281  0.6120  0.0294
 3709TIP3    H132762   5.020   5.231   1.764 -0.5176 -0.8874 -1.2338
 3709TIP3    H232763   4.919   5.237   1.651 -1.0305  2.0156 -0.6952
 3710TIP3   OH232764   3.037   5.130   0.418 -0.2283  0.0333  0.4704
 3710TIP3    H132765   3.064   5.111   0.328  1.8345  0.0139  1.0430
 3710TIP3    H232766   3.092   5.073   0.471 -1.7603 -0.3190  1.7621
 3711TIP3   OH232767   6.366   5.134   2.033  0.0632  0.3361  0.2588
 3711TIP3    H132768   6.354   5.151   2.127  0.7331 -3.4507  1.2028
 3711TIP3    H232769   6.460   5.148   2.018 -0.0837  1.1698  0.0392
 3712TIP3   OH232770   5.738   6.550   7.239 -0.5238  0.2031 -1.4042
 3712TIP3    H132771   5.645   6.556   7.215 -0.5120  0.3941 -1.4080
 3712TIP3    H232772   5.767   6.467   7.203 -0.4585  0.5647 -2.2045
 3713TIP3   OH232773   1.087   5.002   2.020 -0.0612 -0.0301  0.6678
 3713TIP3    H132774   1.160   5.016   1.959 -1.8517  1.7676 -1.2490
 3713TIP3    H232775   1.122   5.027   2.105  1.3379  1.6425 -0.3202
 3714TIP3   OH232776   5.399   1.264   0.242  0.3054  0.0173  0.2766
 3714TIP3    H132777   5.337   1.334   0.261  1.7352  1.4546 -0.1201
 3714TIP3    H232778   5.485   1.306   0.244  1.1438 -1.4851 -1.1172
 3715TIP3   OH232779   3.398   6.786   6.656  0.0423 -0.0484 -0.2214
 3715TIP3    H132780   3.430   6.832   6.734 -1.2407  0.8161 -0.1682
 3715TIP3    H232781   3.309   6.758   6.679  0.2935 -1.3467 -0.7587
 3716TIP3   OH232782   4.216   3.511   0.145 -0.4153  0.1313 -0.0195
 3716TIP3    H132783   4.282   3.523   0.213 -0.1944 -0.8097 -0.0495
 3716TIP3    H232784   4.260   3.458   0.078 -1.1144 -0.2968 -0.1515
 3717TIP3   OH232785   3.378   4.361   7.903 -0.0766  0.4522 -0.3938
 3717TIP3    H132786   3.380   4.266   7.905  1.5058  0.4633  1.0184
 3717TIP3    H232787   3.401   4.387   7.992 -1.4603  2.1744 -0.4807
 3718TIP3   OH232788   0.161   5.746   1.930  0.3846  0.2737 -0.6915
 3718TIP3    H132789   0.126   5.784   2.010 -0.5067 -1.9908  0.0593
 3718TIP3    H232790   0.222   5.679   1.960  1.0133  0.2449 -1.9481
 3719TIP3   OH232791   1.482   0.124   0.006  0.2236 -0.4478 -0.8716
 3719TIP3    H132792   1.501   0.165  -0.079 -2.5833  0.7204 -1.0417
 3719TIP3    H232793   1.411   0.063  -0.013  1.0400 -1.8141  0.2966
 3720TIP3   OH232794   4.722   3.823   0.871  0.0782  1.2113  1.1982
 3720TIP3    H132795   4.790   3.760   0.848 -0.7015  0.7990 -0.1301
 3720TIP3    H232796   4.730   3.834   0.965 -1.4273 -2.9107  2.0030
 3721TIP3   OH232797   4.509   0.134   0.120  0.9980 -0.0484 -0.1092
 3721TIP3    H132798   4.457   0.212   0.137  0.9867 -0.1321  0.2399
 3721TIP3    H232799   4.474   0.098   0.038  0.3791 -0.2195  0.2317
 3722TIP3   OH232800   2.542   0.368   1.578  0.2050  0.1844  0.3982
 3722TIP3    H132801   2.600   0.295   1.556 -0.7123 -0.2875 -0.5584
 3722TIP3    H232802   2.538   0.367   1.673  1.8844  0.3379  0.5042
 3723TIP3   OH232803   4.150   4.830   7.324  0.2817 -0.5945  0.3155
 3723TIP3    H132804   4.230   4.792   7.359  0.6283 -0.1350  0.0398
 3723TIP3    H232805   4.106   4.868   7.400  0.9670  0.2914  0.2803
 3724TIP3   OH232806   2.847   0.410   1.513 -0.2185  0.5974  0.2365
 3724TIP3    H132807   2.917   0.450   1.462  0.0149 -0.2640 -0.1323
 3724TIP3    H232808   2.780   0.479   1.520 -1.2490  0.1104 -3.0929
 3725TIP3   OH232809   6.858   5.256   7.398 -0.1429 -0.4793 -0.0182
 3725TIP3    H132810   6.852   5.210   7.314 -0.1875  2.4710 -1.7831
 3725TIP3    H232811   6.767   5.270   7.425 -0.1425 -0.7846  0.1433
 3726TIP3   OH232812   5.385   6.874   0.293  0.2970 -0.3436 -0.4634
 3726TIP3    H132813   5.428   6.808   0.239  1.2902 -0.2562  0.1951
 3726TIP3    H232814   5.301   6.888   0.251  0.1309 -1.8968 -0.7268
 3727TIP3   OH232815   3.621   1.702   1.084 -0.4690 -0.1748 -0.1966
 3727TIP3    H132816   3.641   1.795   1.089 -2.7019  0.2966  3.0598
 3727TIP3    H232817   3.706   1.660   1.070  1.0536  2.2202  1.1493
 3728TIP3   OH232818   6.630   4.004   7.747 -0.0501 -0.1807 -0.1699
 3728TIP3    H132819   6.591   3.979   7.663 -3.3288 -0.9215  1.4201
 3728TIP3    H232820   6.604   3.935   7.807  1.9935  0.4597  1.5650
 3729TIP3   OH232821   6.827   0.384   6.989 -0.8610  0.2928 -0.1137
 3729TIP3    H132822   6.844   0.316   6.923  0.2266  0.6307 -0.2025
 3729TIP3    H232823   6.873   0.461   6.956  1.5838 -0.0960  2.0292
 3730TIP3   OH232824   3.537   4.452   8.171 -0.5567 -0.2521  0.3671
 3730TIP3    H132825   3.592   4.496   8.235 -1.6764  0.4685  0.8642
 3730TIP3    H232826   3.594   4.385   8.132  0.8485  0.8645  0.4131
 3731TIP3   OH232827   1.412   5.993   1.945  0.2310 -0.1953  0.6883
 3731TIP3    H132828   1.473   5.921   1.960 -1.2357 -1.4849  0.5931
 3731TIP3    H232829   1.417   6.009   1.851  0.5913 -0.1122  0.7173
 3732TIP3   OH232830   0.434   5.067   6.256 -0.0377 -0.6825  0.6816
 3732TIP3    H132831   0.420   5.062   6.351  1.2269 -0.2836  0.9140
 3732TIP3    H232832   0.370   5.007   6.219  1.1199 -2.8303  1.9622
 3733TIP3   OH232833   1.067   6.600   1.826  0.7836  0.1677  0.0192
 3733TIP3    H132834   0.974   6.590   1.809  0.9309 -0.9110 -0.2391
 3733TIP3    H232835   1.077   6.579   1.919  0.9598 -1.3347 -0.3058
 3734TIP3   OH232836   1.075   6.804   1.198 -1.2300  0.4401  0.5352
 3734TIP3    H132837   1.048   6.813   1.290 -2.4100  0.1551  0.2316
 3734TIP3    H232838   1.143   6.738   1.200 -2.0019 -0.3613  1.0876
 3735TIP3   OH232839   1.252   6.520   0.639  0.6010  0.0253  0.1384
 3735TIP3    H132840   1.286   6.438   0.604 -0.2210 -0.1024 -0.3789
 3735TIP3    H232841   1.169   6.497   0.681  1.0937  0.3442  1.3498
 3736TIP3   OH232842   4.480   1.242   0.211 -0.0728 -0.3083  0.0049
 3736TIP3    H132843   4.418   1.278   0.147  1.9961  1.8549 -0.9214
 3736TIP3    H232844   4.560   1.226   0.161  1.7128  1.7130  1.9865
 3737TIP3   OH232845   1.289   2.007   0.375  0.2497  0.4456 -0.1857
 3737TIP3    H132846   1.244   1.944   0.318 -0.2323  0.7982 -0.1986
 3737TIP3    H232847   1.229   2.080   0.382  0.3503  0.4521  0.7079
 3738TIP3   OH232848   3.511   5.964   0.601  0.3690 -0.0558 -0.0089
 3738TIP3    H132849   3.501   5.877   0.561  0.1453  0.9570 -2.3175
 3738TIP3    H232850   3.601   5.965   0.633  0.2205 -1.3012  0.5291
 3739TIP3   OH232851   0.739   5.948   8.306  0.3470 -0.3165 -0.0585
 3739TIP3    H132852   0.653   5.904   8.311  0.0842  0.1178 -0.7087
 3739TIP3    H232853   0.745   5.997   8.388 -0.4638  0.4227 -0.4229
 3740TIP3   OH232854   6.727   4.085   7.080 -0.0248 -0.5992  0.3351
 3740TIP3    H132855   6.730   4.024   7.154  1.2289 -0.4498  0.4320
 3740TIP3    H232856   6.718   4.029   7.003 -0.5140 -0.8046  0.5386
 3741TIP3   OH232857   2.165   3.710   2.189 -0.2989  0.2931 -0.4563
 3741TIP3    H132858   2.225   3.674   2.124 -0.4719  0.5596 -0.7658
 3741TIP3    H232859   2.109   3.769   2.140  0.4288  1.5410  0.1614
 3742TIP3   OH232860   3.104   2.150   6.924 -0.0225  0.0390 -0.4593
 3742TIP3    H132861   3.016   2.128   6.953 -0.2515  1.4725 -0.0260
 3742TIP3    H232862   3.107   2.245   6.924  2.3690  0.0897  2.2026
 3743TIP3   OH232863   1.955   6.266   8.162 -0.3578  0.5223 -0.1081
 3743TIP3    H132864   1.869   6.225   8.154  0.0135 -0.6808  1.4830
 3743TIP3    H232865   1.936   6.358   8.180 -1.3212  0.2928  0.1050
 3744TIP3   OH232866   6.559   4.500   7.733 -0.3179  0.7837 -0.5193
 3744TIP3    H132867   6.524   4.522   7.819 -0.0993 -0.2796 -0.1470
 3744TIP3    H232868   6.604   4.580   7.704  0.1058  0.9725  0.6152
 3745TIP3   OH232869   1.365   3.092   7.015 -0.4629 -0.2928  0.2215
 3745TIP3    H132870   1.296   3.057   7.071 -0.3793 -1.0453 -0.1212
 3745TIP3    H232871   1.447   3.062   7.055 -0.3146  0.7384  0.7210
 3746TIP3   OH232872   0.820   3.660   7.555 -0.1349 -0.1807 -0.0519
 3746TIP3    H132873   0.879   3.630   7.624  0.7105  2.7010  0.5836
 3746TIP3    H232874   0.743   3.692   7.602 -1.2987 -1.8132 -0.7495
 3747TIP3   OH232875   5.617   6.793   6.954 -0.6266 -0.2990  0.2928
 3747TIP3    H132876   5.605   6.717   6.896 -1.1433 -0.3589  0.4663
 3747TIP3    H232877   5.693   6.838   6.919  0.8244 -1.8781  1.2668
 3748TIP3   OH232878   2.777   3.543   7.355  0.4588  0.1033  0.2770
 3748TIP3    H132879   2.800   3.585   7.438  1.4357 -0.6806  0.4262
 3748TIP3    H232880   2.819   3.457   7.359 -1.3159 -0.8449 -0.0880
 3749TIP3   OH232881   3.980   5.113   7.350  0.0987 -0.6597  0.1227
 3749TIP3    H132882   3.925   5.037   7.368 -0.3156 -0.3212  0.2895
 3749TIP3    H232883   4.017   5.096   7.264 -0.6419 -0.6725 -0.1982
 3750TIP3   OH232884   2.528   4.842   8.566  0.0749 -0.2300 -0.9923
 3750TIP3    H132885   2.566   4.828   8.653 -0.2425  0.2066 -0.7788
 3750TIP3    H232886   2.475   4.922   8.576 -0.5718 -0.6052 -1.3857
 3751TIP3   OH232887   6.496   6.430   8.425 -0.0052  0.2720 -0.5597
 3751TIP3    H132888   6.460   6.444   8.338  0.3140  0.4728 -0.6612
 3751TIP3    H232889   6.523   6.338   8.426  2.4020  0.8745 -1.5967
 3752TIP3   OH232890   3.096   3.234   6.830 -0.1228  0.0039  0.4341
 3752TIP3    H132891   3.092   3.210   6.738 -1.1819 -3.4076  1.2294
 3752TIP3    H232892   3.015   3.283   6.846  0.6131  1.6417 -0.6139
 3753TIP3   OH232893   0.457   0.583   0.422  0.1035  0.0161 -0.3611
 3753TIP3    H132894   0.398   0.652   0.393 -1.1709 -1.0602 -0.4144
 3753TIP3    H232895   0.519   0.627   0.481 -0.7690  1.1478 -0.2599
 3754TIP3   OH232896   3.375   2.194   0.033  0.0817 -0.1007  0.4029
 3754TIP3    H132897   3.380   2.287   0.055 -0.9783  0.0708 -0.0491
 3754TIP3    H232898   3.283   2.178   0.012  0.3101 -1.1770  0.1197
 3755TIP3   OH232899   0.082   6.668   1.681  0.1943 -0.0850  0.4590
 3755TIP3    H132900   0.023   6.621   1.739  0.8759  0.5883  1.7446
 3755TIP3    H232901   0.169   6.639   1.706  0.4844 -0.1256 -0.5507
 3756TIP3   OH232902   2.280   6.676   7.093  0.2049  0.0994  0.3193
 3756TIP3    H132903   2.241   6.760   7.071 -1.1950 -0.5254  0.2925
 3756TIP3    H232904   2.212   6.612   7.073  1.4042 -1.0921 -0.1063
 3757TIP3   OH232905   0.021   2.792   1.500  0.0905 -0.3345  0.0911
 3757TIP3    H132906  -0.026   2.863   1.542  2.0384  0.7870  0.4774
 3757TIP3    H232907   0.113   2.810   1.516  0.8994 -0.7183 -3.2823
 3758TIP3   OH232908   6.519   5.806   0.523 -0.0857  0.0785 -0.0490
 3758TIP3    H132909   6.570   5.755   0.460 -0.4970 -0.3305 -0.0579
 3758TIP3    H232910   6.583   5.863   0.565  0.3662 -0.3615 -0.1306
 3759TIP3   OH232911   3.247   4.719   7.173  0.5921 -0.0710  0.5647
 3759TIP3    H132912   3.242   4.709   7.078  0.5030  1.0273  0.4411
 3759TIP3    H232913   3.156   4.729   7.201  0.5787 -0.8374  0.8357
 3760TIP3   OH232914   5.405   6.586   6.590 -0.0716 -0.5840 -0.0606
 3760TIP3    H132915   5.419   6.525   6.516 -0.1865 -0.6856  0.0014
 3760TIP3    H232916   5.313   6.610   6.584  0.0271 -0.2393 -0.2176
 3761TIP3   OH232917   0.030   2.656   7.086  0.4363  0.3883  0.3173
 3761TIP3    H132918   0.020   2.609   7.169  1.9509 -1.1154 -0.2807
 3761TIP3    H232919   0.115   2.700   7.094  0.0531  1.2006 -0.0025
 3762TIP3   OH232920   0.640   3.730   0.303 -0.4914 -0.4586  0.8388
 3762TIP3    H132921   0.661   3.685   0.221 -1.7015  0.8930 -0.2656
 3762TIP3    H232922   0.663   3.667   0.372 -2.1035 -2.7578 -0.6065
 3763TIP3   OH232923   5.186   2.800   8.477  0.1757 -0.0451 -0.1329
 3763TIP3    H132924   5.216   2.877   8.525  1.4137 -0.1465 -0.6985
 3763TIP3    H232925   5.127   2.835   8.410 -1.3043  0.1260  1.1917
 3764TIP3   OH232926   6.844   6.647   1.465  0.3973 -0.4059  0.1176
 3764TIP3    H132927   6.856   6.661   1.371  0.0328 -1.8664 -0.1689
 3764TIP3    H232928   6.918   6.694   1.505  1.6197 -1.2686 -1.0233
 3765TIP3   OH232929   2.709   5.746   1.533 -0.1651  0.1903 -0.2375
 3765TIP3    H132930   2.658   5.665   1.531 -1.8279  1.2023 -0.9794
 3765TIP3    H232931   2.645   5.816   1.517  1.3210  1.6129 -0.3094
 3766TIP3   OH232932   1.003   0.340   7.384  0.5499  0.1803 -0.6313
 3766TIP3    H132933   0.926   0.288   7.406  2.1070 -0.7038  3.5720
 3766TIP3    H232934   0.989   0.424   7.429  2.0797 -0.1026  0.4546
 3767TIP3   OH232935   3.732   6.711   7.998 -0.3075  0.4411  0.1858
 3767TIP3    H132936   3.670   6.697   7.927 -0.2357 -2.3051  0.5533
 3767TIP3    H232937   3.804   6.760   7.958 -1.4988  1.4164 -0.8726
 3768TIP3   OH232938   4.426   1.738   2.396  0.1628 -0.8720  0.1987
 3768TIP3    H132939   4.470   1.804   2.449 -0.6931  1.5876 -1.9498
 3768TIP3    H232940   4.342   1.778   2.373  0.2929 -2.0082 -2.5598
 3769TIP3   OH232941   2.512   4.168   7.374  0.1449 -0.3084 -0.6165
 3769TIP3    H132942   2.436   4.124   7.414 -0.7601  1.0112 -0.8491
 3769TIP3    H232943   2.587   4.135   7.425 -0.7968 -0.0114  1.0581
 3770TIP3   OH232944   2.292   1.918   1.494 -0.4653  0.0780  0.8141
 3770TIP3    H132945   2.261   1.962   1.415  1.0604  0.7619  0.5420
 3770TIP3    H232946   2.234   1.948   1.563 -1.5402 -0.1629  0.0393
 3771TIP3   OH232947   1.778   4.253   2.191 -0.1598 -0.2775 -0.2853
 3771TIP3    H132948   1.868   4.281   2.207 -0.2442 -0.3525  0.3471
 3771TIP3    H232949   1.739   4.325   2.142  0.2498 -0.2587 -0.5932
 3772TIP3   OH232950   4.574   4.420   1.736  0.1206 -0.2854  0.4397
 3772TIP3    H132951   4.609   4.503   1.704 -0.4256 -0.2062  0.0157
 3772TIP3    H232952   4.516   4.445   1.808  1.3653 -0.4659  1.5419
 3773TIP3   OH232953   2.319   5.621   2.231 -0.2359 -0.1430  1.2971
 3773TIP3    H132954   2.252   5.660   2.176  1.4126 -0.3513 -1.0000
 3773TIP3    H232955   2.318   5.673   2.312 -1.6528  1.2111  0.4525
 3774TIP3   OH232956   3.199   5.901   8.091 -0.2798  0.1921  0.3375
 3774TIP3    H132957   3.253   5.880   8.014  0.7688 -1.5437  1.4776
 3774TIP3    H232958   3.130   5.834   8.090 -0.5184  0.4328  0.6757
 3775TIP3   OH232959   0.224   0.261   7.112 -0.3098  0.2172  0.0599
 3775TIP3    H132960   0.228   0.298   7.024  0.4273  0.8753  0.3591
 3775TIP3    H232961   0.315   0.244   7.135 -0.5512 -0.6702  0.4065
 3776TIP3   OH232962   2.157   2.095   1.330 -0.2474  0.4626 -0.2999
 3776TIP3    H132963   2.163   2.129   1.240 -0.4368  0.3686 -0.3490
 3776TIP3    H232964   2.068   2.116   1.358 -0.5391 -0.4178 -0.5080
 3777TIP3   OH232965   0.759   6.314   8.524  0.6467  0.1115  0.1549
 3777TIP3    H132966   0.851   6.289   8.511  0.4066 -0.4201 -0.6271
 3777TIP3    H232967   0.746   6.388   8.465  0.0966 -0.9943 -1.1611
 3778TIP3   OH232968   2.917   5.275   6.992 -0.6250 -0.0168 -0.6208
 3778TIP3    H132969   2.850   5.309   7.052  0.4126 -0.1798  0.6721
 3778TIP3    H232970   2.920   5.340   6.921 -1.1741  0.7168  0.0080
 3779TIP3   OH232971   4.550   5.547   1.022 -0.1707 -0.0640 -0.4529
 3779TIP3    H132972   4.543   5.604   1.099 -0.6805 -0.5235 -0.1509
 3779TIP3    H232973   4.469   5.495   1.023 -0.1025 -0.2009 -1.2011
 3780TIP3   OH232974   4.552   2.518   1.000  0.1370 -0.4211 -0.2103
 3780TIP3    H132975   4.510   2.440   0.964 -1.3612  0.4237 -0.3853
 3780TIP3    H232976   4.608   2.485   1.070 -1.0430 -1.5941  0.2189
 3781TIP3   OH232977   0.236   4.427   8.022  0.4602  0.0814  0.1044
 3781TIP3    H132978   0.200   4.338   8.016 -0.3929  0.4986 -1.3847
 3781TIP3    H232979   0.197   4.474   7.948 -1.0296  2.4086  2.2033
 3782TIP3   OH232980   2.415   5.135   7.236 -0.2229  0.5308 -0.3201
 3782TIP3    H132981   2.380   5.052   7.269 -0.1467  0.4339 -0.4821
 3782TIP3    H232982   2.346   5.169   7.179 -0.2127  0.5319 -0.3317
 3783TIP3   OH232983   2.946   1.384   6.927 -0.3789  0.6631  0.5968
 3783TIP3    H132984   2.855   1.381   6.896 -0.4699 -2.6622  0.8325
 3783TIP3    H232985   2.941   1.361   7.020  0.6990  0.5099  0.6322
 3784TIP3   OH232986   4.085   4.003   0.737 -0.5124  0.3005  1.6706
 3784TIP3    H132987   4.005   3.985   0.688  1.1188 -2.4884 -0.1911
 3784TIP3    H232988   4.069   3.966   0.824 -1.0947 -0.6351  1.1777
 3785TIP3   OH232989   6.240   4.186   7.931  0.0598  0.1540  0.1038
 3785TIP3    H132990   6.227   4.274   7.967  0.5024  0.7943 -1.2421
 3785TIP3    H232991   6.317   4.153   7.978  1.1036  1.2775 -0.7407
 3786TIP3   OH232992   5.887   5.983   8.259 -0.5793 -0.0370  0.6682
 3786TIP3    H132993   5.954   6.000   8.193 -0.9758 -0.2240  0.2132
 3786TIP3    H232994   5.816   5.941   8.211 -0.3452 -1.3826  1.4366
 3787TIP3   OH232995   0.614   5.571   6.692  0.8102  0.0373 -0.0531
 3787TIP3    H132996   0.659   5.594   6.774  0.6395 -0.5762  0.2169
 3787TIP3    H232997   0.634   5.479   6.678  4.0290  0.9631 -2.7515
 3788TIP3   OH232998   2.077   4.685   0.983 -0.0188 -0.1464 -0.4155
 3788TIP3    H132999   2.029   4.729   1.053 -0.2583  1.5948 -1.6185
 3788TIP3    H233000   2.160   4.658   1.024  0.0968  1.3563  0.4174
 3789TIP3   OH233001   5.532   3.297   7.929  0.6356  0.3051  0.0242
 3789TIP3    H133002   5.582   3.362   7.880  0.6201 -0.1214 -0.5748
 3789TIP3    H233003   5.514   3.227   7.865  0.2838 -0.0861  0.5375
 3790TIP3   OH233004   1.939   5.683   1.486  0.3275  0.0477  0.1294
 3790TIP3    H133005   1.917   5.665   1.395  0.3650  0.2969  0.0682
 3790TIP3    H233006   1.949   5.779   1.489  0.8614 -0.0117  0.2758
 3791TIP3   OH233007   1.948   4.535   1.615  0.6070  0.2859 -0.5348
 3791TIP3    H133008   2.013   4.572   1.674 -0.1672 -0.8680  1.1616
 3791TIP3    H233009   1.911   4.610   1.569  1.6083  1.1876  0.0827
 3792TIP3   OH233010   1.279   2.051   2.128 -0.6842 -0.4867 -0.5554
 3792TIP3    H133011   1.227   2.120   2.169  1.8521  2.1250 -1.4164
 3792TIP3    H233012   1.217   2.005   2.071 -2.7376  0.1834  1.0066
 3793TIP3   OH233013   6.308   2.578   7.988  0.1464  0.0541  0.2308
 3793TIP3    H133014   6.228   2.574   8.041 -1.3017 -1.5542 -1.8879
 3793TIP3    H233015   6.305   2.665   7.947 -1.2645 -0.4534 -0.8232
 3794TIP3   OH233016   3.292   3.027   1.815 -0.2987 -0.3895  0.0695
 3794TIP3    H133017   3.213   3.079   1.799 -0.3445 -0.6049 -0.4092
 3794TIP3    H233018   3.355   3.059   1.751 -0.0223 -0.2843  0.3890
 3795TIP3   OH233019   4.445   6.751   2.294  0.3873  0.1646  0.4058
 3795TIP3    H133020   4.368   6.718   2.339  1.0213 -0.5609  1.0018
 3795TIP3    H233021   4.503   6.781   2.365  0.3590  1.3917 -0.0624
 3796TIP3   OH233022   0.266   4.804   0.771  0.0577  0.2301  0.4156
 3796TIP3    H133023   0.224   4.889   0.785 -0.2954  0.2267 -0.5487
 3796TIP3    H233024   0.268   4.793   0.676  0.8565 -0.4720  0.4944
 3797TIP3   OH233025   3.059   6.068   8.274  0.5713  0.3984  0.2200
 3797TIP3    H133026   3.114   6.018   8.214 -1.9783 -0.8213 -1.2771
 3797TIP3    H233027   2.980   6.014   8.285 -0.0671  1.6936  2.8355
 3798TIP3   OH233028   2.180   0.676   0.182 -0.1855 -0.0909  0.4333
 3798TIP3    H133029   2.256   0.633   0.223 -0.4747  0.2585  1.3420
 3798TIP3    H233030   2.132   0.714   0.254 -0.3411  1.1365 -0.2961
 3799TIP3   OH233031   5.335   5.843   0.831 -0.1424 -0.3748 -0.0514
 3799TIP3    H133032   5.287   5.803   0.758 -0.8781 -0.3764  0.4130
 3799TIP3    H233033   5.306   5.934   0.832  1.9127  0.3668 -1.4189
 3800TIP3   OH233034   0.623   3.749   0.947 -0.0934 -0.2602 -0.5876
 3800TIP3    H133035   0.648   3.744   0.855  0.0376  0.0877 -0.5755
 3800TIP3    H233036   0.581   3.666   0.966  0.8389 -0.7608 -0.6755
 3801TIP3   OH233037   4.343   1.017   0.250  0.1618 -0.0329 -0.1560
 3801TIP3    H133038   4.390   1.098   0.230  1.4415 -0.9700 -1.0957
 3801TIP3    H233039   4.371   0.956   0.181 -1.1283 -1.1423  0.2662
 3802TIP3   OH233040   4.366   4.995   7.625 -0.1510  0.0119 -0.1135
 3802TIP3    H133041   4.365   4.939   7.547 -1.3797  1.7830 -1.4304
 3802TIP3    H233042   4.428   5.065   7.604  0.1424  0.0567  0.8509
 3803TIP3   OH233043   1.636   1.797   1.538 -0.2079 -0.0652 -0.4078
 3803TIP3    H133044   1.611   1.711   1.504 -1.1999  0.6629 -1.6336
 3803TIP3    H233045   1.626   1.856   1.463 -0.2364  1.2286  0.5790
 3804TIP3   OH233046   2.192   5.677   8.149 -0.0213 -0.0605  0.1189
 3804TIP3    H133047   2.139   5.745   8.192  0.2041  0.0581  0.2131
 3804TIP3    H233048   2.128   5.617   8.111 -0.2240 -0.1148  0.5425
 3805TIP3   OH233049   3.636   2.627   0.643 -0.4133 -0.6740  0.7560
 3805TIP3    H133050   3.727   2.636   0.671 -0.1613  0.1567 -0.2544
 3805TIP3    H233051   3.622   2.701   0.584 -1.6131 -1.0388  0.5625
 3806TIP3   OH233052   3.414   5.009   0.847 -0.4227  0.2770  0.1596
 3806TIP3    H133053   3.448   4.926   0.815  0.9334  0.3471  1.2936
 3806TIP3    H233054   3.438   5.073   0.779 -1.3080 -0.2053 -0.6258
 3807TIP3   OH233055   1.535   2.383   0.650 -0.0527 -0.9787 -1.4062
 3807TIP3    H133056   1.564   2.350   0.736 -1.0684 -1.8150 -1.3684
 3807TIP3    H233057   1.477   2.456   0.671 -0.5762 -1.4030 -1.3612
 3808TIP3   OH233058   6.589   2.259   0.696 -0.6972  0.1204  0.1860
 3808TIP3    H133059   6.530   2.203   0.747 -1.6620  1.1032  0.2067
 3808TIP3    H233060   6.659   2.281   0.756 -0.6761 -0.5032  0.3930
 3809TIP3   OH233061   3.023   1.321   8.103  0.0318  0.3728 -0.4054
 3809TIP3    H133062   3.066   1.236   8.095 -1.1408 -0.1744 -1.1255
 3809TIP3    H233063   3.092   1.380   8.134  0.1841 -1.4306  3.1397
 3810TIP3   OH233064   1.451   5.842   1.579  0.3314  0.8000 -0.7436
 3810TIP3    H133065   1.444   5.937   1.590  0.2029  0.5756  1.7709
 3810TIP3    H233066   1.362   5.812   1.564  0.0190  0.9064  0.7213
 3811TIP3   OH233067   2.318   3.602   1.260 -0.1886  0.7097  0.0413
 3811TIP3    H133068   2.397   3.652   1.243  0.0897 -0.0203 -0.9231
 3811TIP3    H233069   2.248   3.650   1.215 -0.0904  0.7511 -0.0667
 3812TIP3   OH233070   6.288   5.707   8.196 -0.3565 -0.0445  0.3752
 3812TIP3    H133071   6.343   5.660   8.258  0.1018  1.0886  0.8633
 3812TIP3    H233072   6.249   5.778   8.247  1.1362  1.7952 -0.8582
 3813TIP3   OH233073   0.391   3.822   0.410  0.1015 -0.2011 -0.0146
 3813TIP3    H133074   0.380   3.775   0.493  0.0210  0.2002  0.2013
 3813TIP3    H233075   0.473   3.788   0.374 -0.5162 -1.3521 -0.4136
 3814TIP3   OH233076   2.986   3.984   0.290 -0.4420 -0.1551 -0.5502
 3814TIP3    H133077   2.963   3.918   0.225 -0.0949 -1.0939  0.2482
 3814TIP3    H233078   2.931   3.963   0.366  0.4553 -0.2284  0.1058
 3815TIP3   OH233079   1.167   1.284   7.911 -0.2129 -0.6280  0.0226
 3815TIP3    H133080   1.155   1.204   7.962 -1.2800 -1.4862 -1.4805
 3815TIP3    H233081   1.079   1.321   7.904  0.1442  0.2258 -0.0010
 3816TIP3   OH233082   4.915   2.731   8.179 -0.3461 -0.7268  0.1711
 3816TIP3    H133083   4.962   2.708   8.099  0.5443  0.4644  0.3346
 3816TIP3    H233084   4.956   2.812   8.210 -1.2098 -0.7176  1.3957
 3817TIP3   OH233085   1.108   1.457   7.571 -0.3831  0.0103 -0.1597
 3817TIP3    H133086   1.061   1.435   7.490  0.8110  0.6232 -1.0595
 3817TIP3    H233087   1.150   1.375   7.598 -1.7628 -0.4928  0.5420
 3818TIP3   OH233088   3.910   6.249   6.269  0.0263 -0.2088 -0.0367
 3818TIP3    H133089   3.854   6.219   6.197 -1.1927 -3.2184  1.9439
 3818TIP3    H233090   3.849   6.294   6.328 -0.0058 -1.8765  1.2572
 3819TIP3   OH233091   3.919   4.708   0.494  0.7407  0.9906 -0.0037
 3819TIP3    H133092   3.984   4.777   0.479  1.8384 -0.3808 -1.9050
 3819TIP3    H233093   3.947   4.635   0.439 -0.9488 -0.6435  1.1604
 3820TIP3   OH233094   5.094   4.128   6.475  0.1500  0.5302  0.8198
 3820TIP3    H133095   5.040   4.062   6.431  1.5772 -0.3857  0.3772
 3820TIP3    H233096   5.103   4.095   6.564  0.2957  0.4959  0.7912
 3821TIP3   OH233097   2.247   4.860   0.577  0.6336 -0.1535  0.1469
 3821TIP3    H133098   2.302   4.842   0.653 -0.2078 -1.1920  0.5425
 3821TIP3    H233099   2.232   4.774   0.538  1.2658  0.3909 -1.3633
 3822TIP3   OH233100   5.994   5.189   7.680  0.0224 -0.1265 -0.0334
 3822TIP3    H133101   6.073   5.235   7.653  0.4357 -1.1091 -0.5669
 3822TIP3    H233102   5.929   5.258   7.693  0.6916  0.6212 -0.5497
 3823TIP3   OH233103   5.638   5.932   8.122 -0.0997  0.2352  0.2320
 3823TIP3    H133104   5.591   5.977   8.193  0.5437 -0.0418  0.8476
 3823TIP3    H233105   5.618   5.983   8.044 -0.1252  1.0634  0.7601
 3824TIP3   OH233106   0.579   3.329   7.873  0.6975  0.2159  0.3071
 3824TIP3    H133107   0.651   3.331   7.810  0.7002  0.7869  0.3202
 3824TIP3    H233108   0.618   3.292   7.953  0.2779 -2.1892 -0.5048
 3825TIP3   OH233109   3.448   5.223   1.831 -0.0548 -0.4137 -0.7583
 3825TIP3    H133110   3.378   5.247   1.892 -0.8145 -0.1348 -1.7177
 3825TIP3    H233111   3.492   5.149   1.872 -0.2926  0.0212  0.3140
 3826TIP3   OH233112   3.799   3.893   0.729 -0.5965  0.3178 -0.2154
 3826TIP3    H133113   3.772   3.883   0.638  0.2706 -1.0523 -0.3528
 3826TIP3    H233114   3.766   3.814   0.773  2.0405 -0.8397 -0.1535
 3827TIP3   OH233115   3.988   1.795   1.319 -0.3234 -0.2543  0.5169
 3827TIP3    H133116   3.968   1.865   1.257  1.7793  1.0227  1.1789
 3827TIP3    H233117   4.072   1.760   1.289  0.4627  0.0204  2.2914
 3828TIP3   OH233118   1.925   0.245   7.136  0.0046  0.1468  0.1038
 3828TIP3    H133119   2.020   0.256   7.131 -0.1986  2.1322 -0.0926
 3828TIP3    H233120   1.903   0.187   7.063  0.8858  1.2119 -1.0538
 3829TIP3   OH233121   0.769   2.431   6.319  0.2809 -0.0574  0.1034
 3829TIP3    H133122   0.801   2.457   6.232 -1.2591 -0.6319 -0.6879
 3829TIP3    H233123   0.847   2.398   6.365  1.2103  0.6844 -0.8877
 3830TIP3   OH233124   4.036   1.158   0.295  0.2198  0.1369  0.2140
 3830TIP3    H133125   3.981   1.235   0.307 -0.1364 -0.4078  2.5357
 3830TIP3    H233126   4.086   1.176   0.215 -0.3098  2.4538  0.3468
 3831TIP3   OH233127   2.163   0.375   7.856  0.1834  0.4537 -0.0733
 3831TIP3    H133128   2.077   0.382   7.898 -0.8953  3.6399 -2.3787
 3831TIP3    H233129   2.143   0.352   7.765  1.7496  1.2039 -0.6479
 3832TIP3   OH233130   4.516   0.173   7.985 -0.1803  0.2942  0.5310
 3832TIP3    H133131   4.564   0.107   7.935 -3.3415 -3.3847  1.8911
 3832TIP3    H233132   4.583   0.216   8.038  2.0376 -2.3284  0.0962
 3833TIP3   OH233133   1.733   4.632   7.973 -0.6776 -0.5617 -0.1075
 3833TIP3    H133134   1.741   4.654   8.066 -0.7386 -1.5389  0.1446
 3833TIP3    H233135   1.817   4.592   7.951 -0.6826 -0.3737 -0.4631
 3834TIP3   OH233136   4.920   2.088   8.155  0.0591 -0.4115 -0.1482
 3834TIP3    H133137   4.836   2.108   8.197  0.2557 -1.0994  0.6034
 3834TIP3    H233138   4.976   2.163   8.178 -0.2055 -0.1776 -0.2516
 3835TIP3   OH233139   2.340   4.840   8.127  0.2142 -0.0298  0.0574
 3835TIP3    H133140   2.403   4.772   8.151 -0.0658 -0.8244 -1.3872
 3835TIP3    H233141   2.256   4.807   8.159  0.2822  0.3106  0.6056
 3836TIP3   OH233142   3.276   3.119   1.301 -0.3226 -0.6082 -0.2935
 3836TIP3    H133143   3.337   3.188   1.276  0.4559 -0.6437  1.3994
 3836TIP3    H233144   3.263   3.069   1.220  1.7032 -0.4677 -0.7572
 3837TIP3   OH233145   1.516   2.630   1.058  0.0781 -0.6169  0.7572
 3837TIP3    H133146   1.561   2.645   1.140  0.8825 -1.0590  0.4051
 3837TIP3    H233147   1.423   2.644   1.078  0.4320  1.2035  1.2807
 3838TIP3   OH233148   1.321   5.104   6.985 -0.0721  0.6188 -0.5580
 3838TIP3    H133149   1.265   5.166   7.032 -0.1326 -0.5001  0.9206
 3838TIP3    H233150   1.285   5.102   6.896 -2.8908 -0.5686  0.4851
 3839TIP3   OH233151   5.453   2.541   8.147  0.0174  0.5047 -0.6783
 3839TIP3    H133152   5.469   2.615   8.205  1.0023 -0.5155  0.4146
 3839TIP3    H233153   5.539   2.504   8.131 -0.5277 -0.9154 -0.4804
 3840TIP3   OH233154   3.316   2.496   0.576  0.2538 -0.1395  0.1926
 3840TIP3    H133155   3.384   2.478   0.513  1.0437 -1.7633  1.4449
 3840TIP3    H233156   3.299   2.590   0.567  0.6272 -0.2352 -2.0651
 3841TIP3   OH233157   5.311   1.909   0.967 -0.4854 -0.3982  0.5763
 3841TIP3    H133158   5.271   1.866   1.042 -0.9458  1.0681  1.2038
 3841TIP3    H233159   5.311   2.002   0.990  1.6081 -0.1606 -0.1853
 3842TIP3   OH233160   4.105   6.635   0.868  0.5150 -0.1668  0.1046
 3842TIP3    H133161   4.069   6.589   0.944  1.7253 -3.6665 -1.2770
 3842TIP3    H233162   4.198   6.617   0.870  1.2529  2.9690 -0.1858
 3843TIP3   OH233163   0.274   0.419   6.374  0.2329 -0.5542 -0.9532
 3843TIP3    H133164   0.295   0.495   6.428  0.0246 -0.1169 -1.4875
 3843TIP3    H233165   0.226   0.361   6.434 -0.9038  0.3749 -0.9322
 3844TIP3   OH233166   3.217   4.148   2.534  0.2587 -0.0363 -0.5842
 3844TIP3    H133167   3.151   4.093   2.576 -0.2366  0.9050 -0.1098
 3844TIP3    H233168   3.167   4.209   2.480  0.6127  1.5912  0.8406
 3845TIP3   OH233169   5.591   3.004   0.691  0.4054  0.4455  0.3016
 3845TIP3    H133170   5.547   2.995   0.606  0.8887  0.9354 -0.0030
 3845TIP3    H233171   5.658   2.935   0.690 -0.0936 -0.0451  0.6026
 3846TIP3   OH233172   4.036   6.742   7.162  0.0675  0.4425 -0.0362
 3846TIP3    H133173   4.026   6.653   7.127  0.0559  0.9273 -1.2929
 3846TIP3    H233174   4.044   6.729   7.257  1.0947 -0.9881 -0.2797
 3847TIP3   OH233175   2.491   3.180   8.137  0.4233  0.0338  0.5125
 3847TIP3    H133176   2.541   3.196   8.058  1.2189 -0.6801  0.8455
 3847TIP3    H233177   2.412   3.134   8.107  0.1369  0.8400  0.0207
 3848TIP3   OH233178   1.981   5.777   0.063  0.2593 -0.6629 -0.1966
 3848TIP3    H133179   1.947   5.700   0.108 -0.8392 -1.2785 -1.9643
 3848TIP3    H233180   1.917   5.795  -0.006  1.1299  1.0855 -0.6129
 3849TIP3   OH233181   2.376   5.815   0.431  0.1181 -0.0864 -0.2240
 3849TIP3    H133182   2.349   5.877   0.499 -0.4297  1.4073 -1.7623
 3849TIP3    H233183   2.297   5.767   0.409 -0.3288  1.2669 -1.6501
 3850TIP3   OH233184   3.329   1.894   0.002  0.1190 -0.2719  0.0300
 3850TIP3    H133185   3.355   1.986   0.005 -2.0840  0.4066  0.2690
 3850TIP3    H233186   3.411   1.845   0.005  1.2720  1.6304  2.2574
 3851TIP3   OH233187   5.341   3.919   0.391  0.4292 -0.2711  0.7656
 3851TIP3    H133188   5.357   3.830   0.421  0.5624 -0.3092  0.5816
 3851TIP3    H233189   5.427   3.961   0.392  0.8265 -0.8894 -1.5944
 3852TIP3   OH233190   6.620   0.403   7.442  0.3623  0.3992  0.0074
 3852TIP3    H133191   6.560   0.343   7.399 -0.4363  1.2933 -0.1684
 3852TIP3    H233192   6.599   0.394   7.535  0.7841 -0.1583  0.0506
 3853TIP3   OH233193   5.809   4.887   1.623 -0.2495 -0.2572  0.0971
 3853TIP3    H133194   5.788   4.860   1.712 -0.5578  0.3847  0.2216
 3853TIP3    H233195   5.729   4.927   1.590 -0.5235 -1.5512 -0.9004
 3854TIP3   OH233196   6.278   4.575   7.647 -0.2469 -0.2915 -0.2935
 3854TIP3    H133197   6.347   4.552   7.709  0.3330  1.0017 -0.4197
 3854TIP3    H233198   6.197   4.550   7.691  0.2023 -0.1133  0.6570
 3855TIP3   OH233199   6.060   6.770   1.118 -0.2177  0.5009  0.5621
 3855TIP3    H133200   5.973   6.731   1.130 -0.3845  0.6875 -0.0064
 3855TIP3    H233201   6.112   6.736   1.191 -0.8862  0.7332  1.1583
 3856TIP3   OH233202   3.273   2.095   6.717 -0.0719  0.4038 -0.8444
 3856TIP3    H133203   3.334   2.038   6.762  0.8041  1.4032 -0.7358
 3856TIP3    H233204   3.205   2.114   6.782 -0.4782 -0.6461 -0.9425
 3857TIP3   OH233205   3.331   0.355   7.267 -0.1914  0.2635  0.0324
 3857TIP3    H133206   3.416   0.400   7.271  1.4966 -2.5843 -0.5406
 3857TIP3    H233207   3.323   0.313   7.353 -0.1801 -0.7687 -0.4503
 3858TIP3   OH233208   6.505   4.698   1.747  0.1312  0.2620 -0.4085
 3858TIP3    H133209   6.425   4.679   1.796  0.8850  0.2229  0.8516
 3858TIP3    H233210   6.552   4.615   1.744  0.3306  0.3845 -0.7423
 3859TIP3   OH233211   4.058   1.947   0.394 -0.5409 -0.0475 -0.1635
 3859TIP3    H133212   4.027   2.033   0.365 -0.4956  0.1640  0.3847
 3859TIP3    H233213   3.987   1.914   0.450 -1.7580 -1.5610 -2.4619
 3860TIP3   OH233214   1.088   5.019   1.037 -0.1887 -0.2119 -0.6777
 3860TIP3    H133215   1.126   5.067   0.963  1.1182  0.5845  0.4656
 3860TIP3    H233216   1.083   4.929   1.007  1.4239 -0.1080 -1.3510
 3861TIP3   OH233217   5.412   6.650   7.517 -0.4349  0.0116  0.0085
 3861TIP3    H133218   5.488   6.620   7.566 -0.7499 -0.5347  0.1732
 3861TIP3    H233219   5.443   6.727   7.469 -0.0512  0.3962  0.8502
 3862TIP3   OH233220   5.406   5.674   8.253  0.0680  0.3926 -0.6858
 3862TIP3    H133221   5.466   5.660   8.180 -1.0775 -0.1891 -1.5522
 3862TIP3    H233222   5.401   5.769   8.263 -0.1653  0.4931 -1.7096
 3863TIP3   OH233223   2.552   5.679   7.801 -0.1566  0.3952  0.4871
 3863TIP3    H133224   2.522   5.679   7.710  0.9556  1.4051  0.0936
 3863TIP3    H233225   2.540   5.769   7.830  0.5190  0.3380  0.9724
 3864TIP3   OH233226   4.172   3.046   1.455 -0.0544 -0.8770 -0.5345
 3864TIP3    H133227   4.082   3.064   1.482  0.4400 -3.1084  3.2837
 3864TIP3    H233228   4.167   2.962   1.409  0.0660 -0.8815 -0.5396
 3865TIP3   OH233229   4.156   3.709   8.525  0.3342 -0.1554  0.1962
 3865TIP3    H133230   4.141   3.802   8.543  1.6727 -0.1255  1.3276
 3865TIP3    H233231   4.200   3.676   8.604  2.7123 -1.0173 -1.3940
 3866TIP3   OH233232   2.713   5.952   0.934  0.0902  0.1115  0.0563
 3866TIP3    H133233   2.708   5.889   1.007 -0.1304  0.6606  0.5254
 3866TIP3    H233234   2.799   5.992   0.943 -0.1433  0.5578  0.3399
 3867TIP3   OH233235   6.573   4.096   2.014 -0.1430  0.0952  0.3189
 3867TIP3    H133236   6.538   4.054   2.092  0.4783  0.8736  1.0440
 3867TIP3    H233237   6.555   4.189   2.027  2.2654  0.5690  0.8252
 3868TIP3   OH233238   0.439   3.878   7.251 -0.1424 -0.5321  0.3331
 3868TIP3    H133239   0.466   3.952   7.305  0.8659 -0.6489  0.0167
 3868TIP3    H233240   0.493   3.805   7.282 -0.4255 -0.8931 -0.0180
 3869TIP3   OH233241   4.915   4.996   0.844  0.3833  0.4183  0.0920
 3869TIP3    H133242   4.988   4.965   0.897  0.1103  0.1988  0.3416
 3869TIP3    H233243   4.950   5.002   0.755  0.4936 -0.3879  0.0818
 3870TIP3   OH233244   6.206   0.616   6.570 -0.0069  0.5652  0.0907
 3870TIP3    H133245   6.124   0.653   6.537  0.3680  1.4735  0.1463
 3870TIP3    H233246   6.263   0.692   6.583  1.5328 -0.1668 -1.8438
 3871TIP3   OH233247   3.743   2.171   0.104 -0.2961  0.1214  0.4973
 3871TIP3    H133248   3.779   2.132   0.024 -1.7541  1.1928 -0.7357
 3871TIP3    H233249   3.655   2.135   0.111  0.7401 -2.2371  3.3144
 3872TIP3   OH233250   0.925   1.021   6.479 -0.4938  0.1906 -0.3490
 3872TIP3    H133251   1.016   0.994   6.484 -0.8988 -1.0378  1.1601
 3872TIP3    H233252   0.918   1.068   6.396  2.5590  4.4723  1.4452
 3873TIP3   OH233253   1.069   4.418   1.050  0.0776 -0.6069  0.1015
 3873TIP3    H133254   1.155   4.386   1.024 -0.1513 -0.9590 -0.2242
 3873TIP3    H233255   1.069   4.412   1.146  0.7038  0.1413  0.1653
 3874TIP3   OH233256   5.541   4.714   0.573  0.1990  0.0945 -0.3573
 3874TIP3    H133257   5.597   4.668   0.511 -1.8339 -2.9581 -0.1457
 3874TIP3    H233258   5.513   4.647   0.635 -0.7582  2.2610  1.7212
 3875TIP3   OH233259   2.167   0.660   2.217 -0.1999 -0.0730 -0.0328
 3875TIP3    H133260   2.161   0.640   2.310 -2.3306  1.2200  0.1780
 3875TIP3    H233261   2.199   0.750   2.214  1.0507 -0.5071 -0.6456
 3876TIP3   OH233262   6.585   1.900   2.288  0.1225  0.2373 -0.3781
 3876TIP3    H133263   6.531   1.967   2.330  1.3975  0.5130  0.8934
 3876TIP3    H233264   6.525   1.827   2.273 -0.9295  1.0652 -0.3402
 3877TIP3   OH233265   3.947   0.737   7.793  0.2946 -0.6045 -0.4897
 3877TIP3    H133266   3.924   0.759   7.883 -3.6138  0.7762 -1.6350
 3877TIP3    H233267   3.956   0.642   7.792  0.2063 -0.6512  1.2837
 3878TIP3   OH233268   6.729   5.860   1.256  0.3100 -0.2176  0.1769
 3878TIP3    H133269   6.750   5.869   1.349 -0.3217  1.8557  0.1760
 3878TIP3    H233270   6.761   5.773   1.232  1.8267 -0.2049  1.9600
 3879TIP3   OH233271   2.661   3.556   1.051  0.1353  0.4408  0.0427
 3879TIP3    H133272   2.570   3.555   1.023 -0.7894  0.8446  2.7248
 3879TIP3    H233273   2.693   3.644   1.028 -0.2282  0.4044 -0.6223
 3880TIP3   OH233274   4.174   4.134   0.325 -0.1520  0.2212 -0.2038
 3880TIP3    H133275   4.220   4.064   0.372 -1.0569  0.0002  0.4032
 3880TIP3    H233276   4.216   4.138   0.239  1.8948  0.9951  0.7897
 3881TIP3   OH233277   3.133   1.233   1.777  0.7371  0.2786  1.1093
 3881TIP3    H133278   3.038   1.235   1.772  0.7449  3.4535  0.5138
 3881TIP3    H233279   3.152   1.212   1.868 -0.5283  0.3024  1.3921
 3882TIP3   OH233280   6.667   2.787   2.080  0.4174 -0.8739  0.2761
 3882TIP3    H133281   6.720   2.709   2.099  0.3165 -1.1082 -0.3858
 3882TIP3    H233282   6.699   2.817   1.995 -1.5643 -1.9401 -0.9197
 3883TIP3   OH233283   3.530   3.997   6.885  0.0646 -0.1256 -0.4109
 3883TIP3    H133284   3.578   4.040   6.814  0.6316 -0.7756 -0.4309
 3883TIP3    H233285   3.442   3.982   6.849  0.0476  0.4522 -0.6178
 3884TIP3   OH233286   2.344   5.212   1.938  0.4727  0.2021  0.2730
 3884TIP3    H133287   2.301   5.156   1.874  0.6147  0.3743  0.0228
 3884TIP3    H233288   2.366   5.154   2.011 -1.0784  0.3040  0.8527
 3885TIP3   OH233289   1.188   5.083   2.271 -0.4121 -0.3607  0.1171
 3885TIP3    H133290   1.161   5.076   2.362 -0.1738 -0.1202  0.2070
 3885TIP3    H233291   1.264   5.025   2.264 -0.2987 -0.2140  0.1246
 3886TIP3   OH233292   4.642   1.445   0.316 -0.3767  0.0752  0.7827
 3886TIP3    H133293   4.622   1.411   0.404 -0.2560 -1.2832  0.3042
 3886TIP3    H233294   4.588   1.392   0.257 -0.4189  0.9419  0.0188
 3887TIP3   OH233295   1.129   2.963   2.091  0.3645 -0.3408 -0.5555
 3887TIP3    H133296   1.140   3.058   2.094  0.7226 -0.3199 -2.0106
 3887TIP3    H233297   1.201   2.929   2.144  0.1756  0.1922  0.0604
 3888TIP3   OH233298   1.098   5.297   7.953  0.0449 -0.5910 -0.4338
 3888TIP3    H133299   1.023   5.270   7.900  0.4509 -0.2303 -1.2063
 3888TIP3    H233300   1.107   5.390   7.936 -0.5061 -0.2153  1.1595
 3889TIP3   OH233301   1.493   5.174   0.692 -0.0991 -0.7336  0.4400
 3889TIP3    H133302   1.415   5.121   0.709  0.1026 -0.7085  1.5313
 3889TIP3    H233303   1.505   5.170   0.597 -0.6008 -1.9055  0.4108
 3890TIP3   OH233304   4.528   0.250   7.192  0.0119 -0.0348 -0.1214
 3890TIP3    H133305   4.497   0.337   7.218  0.2553  0.7068 -2.1666
 3890TIP3    H233306   4.448   0.203   7.169 -0.0401 -0.0198  0.0266
 3891TIP3   OH233307   1.927   1.147   8.518  0.2805 -0.0797 -0.1153
 3891TIP3    H133308   1.885   1.099   8.590 -0.4601 -0.8500 -1.0378
 3891TIP3    H233309   1.930   1.238   8.549  1.2897 -0.6129  1.4669
 3892TIP3   OH233310   6.005   0.163   6.616  0.8295  0.6469  0.8509
 3892TIP3    H133311   6.095   0.141   6.640  1.3956  1.3941 -0.4752
 3892TIP3    H233312   6.002   0.259   6.623  0.0042  0.5974  1.2825
 3893TIP3   OH233313   5.761   0.730   8.305  0.3623  0.4057  0.2174
 3893TIP3    H133314   5.700   0.749   8.377 -0.2688  1.4330 -0.5707
 3893TIP3    H233315   5.711   0.673   8.246  0.3214  0.8612 -0.1920
 3894TIP3   OH233316   0.208   4.198   0.794  0.3964 -0.4106  0.4904
 3894TIP3    H133317   0.242   4.137   0.729 -0.4468 -1.8441  1.3325
 3894TIP3    H233318   0.280   4.212   0.855  0.2129 -1.6650  1.0293
 3895TIP3   OH233319   5.107   0.549   8.024  0.8055 -0.1841 -0.1657
 3895TIP3    H133320   5.146   0.506   7.948 -0.3347 -1.9643  0.1968
 3895TIP3    H233321   5.067   0.478   8.074  3.2030  0.5605  3.1910
 3896TIP3   OH233322   3.697   5.107   0.996 -0.4804  0.0354  0.0244
 3896TIP3    H133323   3.610   5.124   1.033 -1.2147  1.2487 -2.0720
 3896TIP3    H233324   3.751   5.179   1.027 -1.1058  1.0819 -1.2175
 3897TIP3   OH233325   1.000   4.100   8.297  0.5634  0.9964 -0.1719
 3897TIP3    H133326   1.047   4.021   8.274 -0.5447  0.2478  0.0691
 3897TIP3    H233327   0.955   4.079   8.379  0.5602  1.9983  0.1054
 3898TIP3   OH233328   5.881   2.612   1.569  0.5707 -0.4087 -0.1771
 3898TIP3    H133329   5.796   2.634   1.607  0.1015 -2.5550  0.1353
 3898TIP3    H233330   5.930   2.573   1.641  0.3919 -2.7070 -1.2325
 3899TIP3   OH233331   1.466   4.915   7.241  0.2472 -0.4679 -0.0273
 3899TIP3    H133332   1.423   5.001   7.247 -2.0529 -1.4788 -1.0248
 3899TIP3    H233333   1.487   4.906   7.148  1.7811 -0.4244  0.2965
 3900TIP3   OH233334   3.565   3.864   0.035  0.1831 -0.3731  0.4301
 3900TIP3    H133335   3.586   3.855  -0.058  0.4232  1.5963  0.2625
 3900TIP3    H233336   3.473   3.840   0.040  0.0079  0.0572 -0.4283
 3901TIP3   OH233337   0.252   1.305   0.137  0.2450  0.3168  0.2767
 3901TIP3    H133338   0.341   1.337   0.121 -0.6791  2.5891 -0.8286
 3901TIP3    H233339   0.239   1.238   0.070  0.6321  1.0879 -0.6127
 3902TIP3   OH233340   0.379   4.824   1.536  0.1632  0.4197 -0.1842
 3902TIP3    H133341   0.394   4.835   1.442 -0.6937 -0.0570 -0.3838
 3902TIP3    H233342   0.305   4.764   1.542 -0.3691  1.1386  0.7870
 3903TIP3   OH233343   5.863   3.000   8.464 -0.1347  0.2663  0.5448
 3903TIP3    H133344   5.831   2.926   8.412  1.3546  0.5621 -0.9035
 3903TIP3    H233345   5.787   3.029   8.515 -0.7667 -2.2248  1.1561
 3904TIP3   OH233346   1.936   6.410   5.971  0.0647  0.4923 -0.3066
 3904TIP3    H133347   2.006   6.387   6.032 -0.5327  0.0697  0.2291
 3904TIP3    H233348   1.869   6.344   5.985  0.0086  0.2505 -1.5931
 3905TIP3   OH233349   0.307   0.806   7.168  0.0019 -0.3982  0.1517
 3905TIP3    H133350   0.229   0.808   7.225  0.0125  0.3943  0.1530
 3905TIP3    H233351   0.374   0.763   7.221  0.1430  0.7235  0.9345
 3906TIP3   OH233352   2.242   3.137   7.538  0.4189 -0.3743 -0.1906
 3906TIP3    H133353   2.148   3.126   7.546  0.2266 -1.2549 -2.8127
 3906TIP3    H233354   2.279   3.051   7.559  0.4179 -0.7168 -1.5062
 3907TIP3   OH233355   3.212   3.645   6.748 -0.8405  0.1419 -0.6218
 3907TIP3    H133356   3.265   3.573   6.782  1.0542  0.8736 -1.8723
 3907TIP3    H233357   3.130   3.639   6.797  0.3041 -1.1551  1.2906
 3908TIP3   OH233358   3.155   2.800   7.018  0.3359  0.0901  0.2776
 3908TIP3    H133359   3.239   2.816   7.061  0.7912  0.4392 -0.7045
 3908TIP3    H233360   3.146   2.705   7.017  0.5029  0.0638  0.7683
 3909TIP3   OH233361   2.593   1.117   6.754 -0.6415  0.2732 -0.6497
 3909TIP3    H133362   2.553   1.031   6.771 -0.9487  0.3896 -0.7767
 3909TIP3    H233363   2.586   1.128   6.659  3.8370 -1.7612 -1.5043
 3910TIP3   OH233364   4.353   3.383   7.213  0.9303 -0.5612 -0.0260
 3910TIP3    H133365   4.302   3.366   7.134 -0.5346  1.7546  0.3199
 3910TIP3    H233366   4.444   3.382   7.184  0.5785 -2.0330 -1.2217
 3911TIP3   OH233367   6.105   3.168   0.382  0.2836  0.4192 -0.3785
 3911TIP3    H133368   6.175   3.225   0.414 -0.4297  1.7374 -1.0943
 3911TIP3    H233369   6.145   3.122   0.308  0.7648  0.1964  0.0059
 3912TIP3   OH233370   1.111   1.033   6.869  0.0650  0.1960 -0.5533
 3912TIP3    H133371   1.192   1.043   6.919 -0.2789 -2.2202  0.6416
 3912TIP3    H233372   1.140   1.005   6.782  0.5799 -2.3348  0.3367
 3913TIP3   OH233373   0.285   1.721   1.484  0.3415  0.0445 -0.0285
 3913TIP3    H133374   0.199   1.724   1.527 -0.0582 -0.8157 -0.7369
 3913TIP3    H233375   0.284   1.796   1.424 -0.5991 -0.9206 -1.2586
 3914TIP3   OH233376   4.322   6.791   7.120  0.4534 -0.6463  0.1542
 3914TIP3    H133377   4.239   6.746   7.103 -0.5866  0.4758  1.9758
 3914TIP3    H233378   4.358   6.746   7.196 -0.2769  1.0703  1.5918
 3915TIP3   OH233379   6.306   2.171   6.395  1.1096 -0.1994 -0.2210
 3915TIP3    H133380   6.243   2.237   6.424 -0.8151 -1.9989 -0.0830
 3915TIP3    H233381   6.359   2.216   6.329 -0.0813  1.4958 -0.0817
 3916TIP3   OH233382   5.430   1.057   1.473  0.5242 -0.3258 -0.0818
 3916TIP3    H133383   5.423   1.066   1.569  0.4236  0.8545 -0.1830
 3916TIP3    H233384   5.464   1.142   1.444 -0.8316 -0.1577 -1.2346
 3917TIP3   OH233385   0.065   4.671   6.641  0.3992  0.0724 -0.2548
 3917TIP3    H133386   0.084   4.609   6.711  0.9542 -0.6892 -1.0613
 3917TIP3    H233387  -0.012   4.635   6.597  0.7517 -0.0742 -0.7558
 3918TIP3   OH233388   6.920   0.668   0.143  0.5551  0.1248 -0.1039
 3918TIP3    H133389   6.992   0.715   0.184  2.1036 -2.6701  0.6289
 3918TIP3    H233390   6.866   0.639   0.217  2.4351 -3.4793  0.0675
 3919TIP3   OH233391   3.252   5.177   2.031  0.4256 -0.1402  0.1092
 3919TIP3    H133392   3.294   5.126   2.100 -0.8413  1.2544  2.0234
 3919TIP3    H233393   3.181   5.121   1.999  1.3294 -0.9936 -0.4601
 3920TIP3   OH233394   0.585   3.295   1.170  0.0038 -0.2414  0.7731
 3920TIP3    H133395   0.499   3.301   1.213 -0.4652  0.1421 -0.1858
 3920TIP3    H233396   0.648   3.310   1.241 -0.7191 -0.5742  1.4976
 3921TIP3   OH233397   4.749   2.179   0.922  0.2394  0.2273 -0.1947
 3921TIP3    H133398   4.694   2.200   0.846  0.4568  1.0867 -0.1161
 3921TIP3    H233399   4.692   2.127   0.979 -0.2231  0.3889 -0.5057
 3922TIP3   OH233400   6.342   4.872   6.424 -0.2379  0.1729  0.2969
 3922TIP3    H133401   6.387   4.845   6.504  0.0178 -2.6168 -0.6898
 3922TIP3    H233402   6.256   4.831   6.430 -0.5463  0.6866 -0.4588
 3923TIP3   OH233403   4.162   5.042   7.825  0.1169 -0.5242  0.0047
 3923TIP3    H133404   4.085   5.011   7.778  0.0683 -0.0885 -0.2084
 3923TIP3    H233405   4.236   5.012   7.771  0.0375  0.8497 -0.9161
 3924TIP3   OH233406   3.008   4.032   7.873  0.1782  0.7099  0.4346
 3924TIP3    H133407   2.956   3.953   7.860 -1.3404  1.8716 -1.0278
 3924TIP3    H233408   2.958   4.084   7.936  0.3453  1.1576  0.2065
 3925TIP3   OH233409   0.411   6.799   7.947 -0.1802 -0.1667 -0.0795
 3925TIP3    H133410   0.396   6.893   7.959 -1.3449 -0.3850  0.2789
 3925TIP3    H233411   0.433   6.767   8.035  0.3132 -0.2130 -0.2196
 3926TIP3   OH233412   6.810   5.496   0.526 -0.5395  0.1879 -0.0381
 3926TIP3    H133413   6.902   5.511   0.502  0.0471 -1.8738  0.7470
 3926TIP3    H233414   6.763   5.569   0.485  1.5750  2.0301  0.5504
 3927TIP3   OH233415   0.762   0.331   6.534  0.1698  0.0613 -0.5126
 3927TIP3    H133416   0.852   0.362   6.520  0.0032 -0.3862 -2.9344
 3927TIP3    H233417   0.769   0.270   6.608  1.6660  0.7351 -0.0466
 3928TIP3   OH233418   4.635   5.000   2.346 -0.1665 -0.1464 -0.1569
 3928TIP3    H133419   4.620   5.088   2.313  1.0777 -0.0492 -0.5108
 3928TIP3    H233420   4.551   4.955   2.335 -0.4281  0.5874 -1.2505
 3929TIP3   OH233421   6.332   1.777   1.693 -0.1894  0.0678 -0.6620
 3929TIP3    H133422   6.320   1.716   1.620  0.4702 -1.3833  0.3961
 3929TIP3    H233423   6.404   1.740   1.743 -1.2676  0.4936  1.2713
 3930TIP3   OH233424   3.107   2.023   7.698  0.8742  0.3512  0.3144
 3930TIP3    H133425   3.042   2.026   7.768 -1.5795 -2.6271 -1.5658
 3930TIP3    H233426   3.167   1.953   7.724  1.0086  0.4331  0.2261
 3931TIP3   OH233427   5.564   4.469   1.519  0.0718  0.6189  0.0582
 3931TIP3    H133428   5.562   4.563   1.532 -0.4310  0.4398  1.4090
 3931TIP3    H233429   5.549   4.432   1.606  0.3591 -0.7105 -0.4288
 3932TIP3   OH233430   1.112   4.873   6.786 -0.2057  0.5434 -0.1261
 3932TIP3    H133431   1.111   4.847   6.878 -0.9655 -0.3972 -0.3904
 3932TIP3    H233432   1.086   4.794   6.738  1.0994  0.7459 -1.2243
 3933TIP3   OH233433   2.228   5.827   7.851 -0.2382 -0.6040 -0.1059
 3933TIP3    H133434   2.160   5.891   7.873 -0.0306 -0.9922  1.8807
 3933TIP3    H233435   2.211   5.753   7.910  2.2951 -0.4209  1.0083
 3934TIP3   OH233436   1.565   6.320   0.334 -0.2720 -0.1768  0.0126
 3934TIP3    H133437   1.552   6.402   0.286  0.6096  0.2755  0.5183
 3934TIP3    H233438   1.644   6.335   0.386  2.0320 -2.4701 -2.4492
 3935TIP3   OH233439   6.473   2.163   1.330 -0.0208  0.3493 -0.4375
 3935TIP3    H133440   6.540   2.188   1.267 -0.6505 -0.3857 -1.4331
 3935TIP3    H233441   6.517   2.168   1.415  0.8489  1.3395 -0.9213
 3936TIP3   OH233442   5.227   5.561   6.147 -0.0944  0.1112 -0.3145
 3936TIP3    H133443   5.199   5.601   6.229  1.5216  0.3380  0.1637
 3936TIP3    H233444   5.146   5.549   6.097 -0.8690  1.9783  0.4123
 3937TIP3   OH233445   6.067   3.344   0.668 -0.2212 -0.4520  0.1396
 3937TIP3    H133446   6.140   3.304   0.714  1.6761  1.7482 -0.7812
 3937TIP3    H233447   6.009   3.270   0.647  1.6827 -2.2773  0.9347
 3938TIP3   OH233448   5.593   1.963   7.511  0.2302  0.0625 -0.1324
 3938TIP3    H133449   5.610   1.982   7.603 -0.7643 -0.7502  0.2377
 3938TIP3    H233450   5.501   1.937   7.508  0.4883 -0.8019 -1.2053
 3939TIP3   OH233451   6.355   3.027   7.601 -0.5379  0.5918  0.6854
 3939TIP3    H133452   6.417   2.989   7.538 -0.2557  1.2505  0.5536
 3939TIP3    H233453   6.271   3.026   7.556 -0.4095  0.7180  0.4449
 3940TIP3   OH233454   3.601   0.527   8.583  0.2336  0.6694 -0.5770
 3940TIP3    H133455   3.615   0.449   8.531  0.4816  0.1406  0.2605
 3940TIP3    H233456   3.685   0.572   8.582  0.5104  0.1937  0.0909
 3941TIP3   OH233457   4.493   3.280   7.453 -0.6476  0.5432  0.3745
 3941TIP3    H133458   4.425   3.330   7.409  1.0464  2.6944  0.0574
 3941TIP3    H233459   4.524   3.337   7.522 -0.5271 -1.2225  1.8544
 3942TIP3   OH233460   2.936   2.149   1.474 -0.1264  0.3592 -0.5444
 3942TIP3    H133461   2.922   2.192   1.390 -0.6047  0.8984 -0.1945
 3942TIP3    H233462   2.849   2.144   1.513 -0.0533 -0.7606 -0.4906
 3943TIP3   OH233463   1.924   5.876   0.431 -0.5931 -0.5444 -0.3114
 3943TIP3    H133464   1.966   5.956   0.400  1.1441 -1.2082  0.2476
 3943TIP3    H233465   1.865   5.851   0.359 -2.3148  1.9789  0.0839
 3944TIP3   OH233466   1.744   1.536   7.548 -0.1246 -0.4368  0.5626
 3944TIP3    H133467   1.685   1.493   7.487 -0.5580 -1.2730  1.5409
 3944TIP3    H233468   1.813   1.573   7.493 -0.1988 -1.6475 -0.3881
 3945TIP3   OH233469   5.045   4.846   1.369 -0.3457  0.1865  0.2688
 3945TIP3    H133470   5.080   4.757   1.374  0.3861  0.5240  1.5745
 3945TIP3    H233471   4.950   4.834   1.366 -0.4261 -0.6343  3.0089
 3946TIP3   OH233472   6.530   5.125   6.457  0.0633  0.1520  0.5171
 3946TIP3    H133473   6.493   5.210   6.478  1.0667  1.0253 -1.0233
 3946TIP3    H233474   6.455   5.066   6.451 -0.7433  1.1501  0.6292
 3947TIP3   OH233475   5.707   1.064   7.312  0.0977 -0.5754  0.0769
 3947TIP3    H133476   5.779   1.018   7.270 -1.2080 -0.4728 -2.4868
 3947TIP3    H233477   5.636   1.000   7.316 -0.7427  0.2858 -0.6304
 3948TIP3   OH233478   2.669   6.305   1.442 -0.2802  0.1793 -0.2259
 3948TIP3    H133479   2.708   6.336   1.360  2.1604  1.8723  1.4506
 3948TIP3    H233480   2.618   6.380   1.474 -0.5220 -0.1713  0.2203
 3949TIP3   OH233481   1.886   5.951   7.320  0.1812  0.1289 -0.6467
 3949TIP3    H133482   1.976   5.934   7.293  0.7617 -0.8265  1.6512
 3949TIP3    H233483   1.869   6.041   7.294  2.2162  0.7012 -0.1043
 3950TIP3   OH233484   1.304   2.855   0.598 -0.2828 -0.1776 -0.7036
 3950TIP3    H133485   1.342   2.913   0.665 -0.2604  0.2979 -1.1191
 3950TIP3    H233486   1.346   2.770   0.614 -1.2858 -0.4396  0.7469
 3951TIP3   OH233487   6.302   1.545   0.026 -0.4095  0.4764 -0.4566
 3951TIP3    H133488   6.212   1.534  -0.004 -0.0009  0.8288 -1.8755
 3951TIP3    H233489   6.349   1.470  -0.010  0.1999  1.1894 -1.2129
 3952TIP3   OH233490   3.367   3.140   1.549 -0.1063  0.3606 -0.3448
 3952TIP3    H133491   3.368   3.233   1.571  0.9531  0.8137 -2.1233
 3952TIP3    H233492   3.343   3.138   1.457 -3.4333 -1.3738  0.3948
 3953TIP3   OH233493   5.289   1.701   0.270 -0.4697 -0.0518  0.6840
 3953TIP3    H133494   5.359   1.752   0.231 -0.3217 -0.8414 -0.1248
 3953TIP3    H233495   5.225   1.766   0.301  0.2304  0.6412  0.6879
 3954TIP3   OH233496   0.426   5.313   1.041 -0.3608  0.1902 -0.5347
 3954TIP3    H133497   0.437   5.221   1.063 -1.1713  0.0341 -0.7346
 3954TIP3    H233498   0.515   5.346   1.029  0.0651 -0.0581  1.5379
 3955TIP3   OH233499   5.400   2.366   7.808 -0.5856 -0.2585  0.3594
 3955TIP3    H133500   5.360   2.360   7.895 -1.9473 -1.1870 -0.2847
 3955TIP3    H233501   5.330   2.338   7.748  1.2090 -2.6168 -0.8038
 3956TIP3   OH233502   6.040   6.603   2.064  0.4617  0.5276 -0.0451
 3956TIP3    H133503   5.995   6.524   2.095  3.8098 -0.6775  2.3402
 3956TIP3    H233504   6.018   6.671   2.127 -1.2888  1.2015 -1.3072
 3957TIP3   OH233505   3.677   5.347   0.004 -0.3918 -0.0777  0.1718
 3957TIP3    H133506   3.742   5.393   0.058 -1.7302 -0.9328  2.6792
 3957TIP3    H233507   3.712   5.259  -0.007  0.5689  0.4873 -1.7262
 3958TIP3   OH233508   4.234   6.193   0.528 -0.2638  0.1227  0.1307
 3958TIP3    H133509   4.322   6.179   0.561 -0.1864 -1.6898 -0.7170
 3958TIP3    H233510   4.204   6.273   0.572  1.5084  0.3656  0.9786
 3959TIP3   OH233511   0.741   0.139   1.304 -0.2043  0.3007 -0.3120
 3959TIP3    H133512   0.782   0.225   1.301 -0.4361  0.4081 -0.3963
 3959TIP3    H233513   0.652   0.155   1.333  0.0155 -0.0132  0.5712
 3960TIP3   OH233514   1.920   4.461   8.409  0.1064  0.2479  0.1608
 3960TIP3    H133515   1.889   4.442   8.498  1.4692 -0.2083  0.5656
 3960TIP3    H233516   2.015   4.455   8.415  0.2233  0.2208 -1.3342
 3961TIP3   OH233517   1.354   6.272   0.530  0.0381 -0.0516  0.1392
 3961TIP3    H133518   1.429   6.258   0.472 -0.2449 -0.7411 -0.0705
 3961TIP3    H233519   1.332   6.185   0.562 -1.0396  0.0533 -0.2689
 3962TIP3   OH233520   6.631   3.631   7.368 -0.6281  0.4218 -0.6395
 3962TIP3    H133521   6.543   3.599   7.352 -0.7344 -0.0857  0.7615
 3962TIP3    H233522   6.672   3.563   7.422  0.8766  0.3036 -1.8460
 3963TIP3   OH233523   4.303   0.074   0.493  0.1513 -0.2111 -0.1995
 3963TIP3    H133524   4.387   0.031   0.478 -0.6980 -2.1544  0.2965
 3963TIP3    H233525   4.323   0.168   0.492  2.4926 -0.6330  0.8637
 3964TIP3   OH233526   0.118   5.685   8.077 -0.1576 -0.6406  0.0467
 3964TIP3    H133527   0.207   5.653   8.091 -0.4967 -2.3598 -1.3735
 3964TIP3    H233528   0.129   5.766   8.028  0.6170 -1.1006 -0.5661
 3965TIP3   OH233529   4.023   6.832   1.554 -0.1967  0.8726  0.0714
 3965TIP3    H133530   4.045   6.924   1.536  0.0462  1.1024  1.4111
 3965TIP3    H233531   4.092   6.802   1.612 -1.0130  0.2510  0.7462
 3966TIP3   OH233532   6.228   4.596   1.598 -0.4478  0.7017 -0.3632
 3966TIP3    H133533   6.254   4.543   1.674 -0.0054  0.0805 -0.9338
 3966TIP3    H233534   6.144   4.634   1.623 -0.9669 -0.5814 -0.0670
 3967TIP3   OH233535   3.523   6.493   1.757  0.1453 -0.2665  0.8082
 3967TIP3    H133536   3.566   6.429   1.701  0.3934  1.0916 -0.6452
 3967TIP3    H233537   3.560   6.480   1.844  0.8787 -1.4394  0.3308
 3968TIP3   OH233538   4.599   5.264   2.289 -0.0064  0.0198  0.0756
 3968TIP3    H133539   4.687   5.274   2.325  1.5782  3.9910 -3.9066
 3968TIP3    H233540   4.554   5.346   2.311 -1.8163 -0.8329 -0.2017
 3969TIP3   OH233541   2.977   1.525   1.631  0.2598  0.0252  0.2425
 3969TIP3    H133542   2.885   1.547   1.616 -0.1226  0.5050  2.8886
 3969TIP3    H233543   2.976   1.471   1.710  2.2020 -0.7684 -0.2111
 3970TIP3   OH233544   6.185   5.281   0.311  0.2892  0.0536 -0.2190
 3970TIP3    H133545   6.279   5.301   0.306  0.4151 -0.7901 -3.0064
 3970TIP3    H233546   6.172   5.249   0.400  2.4656  0.9247  0.4830
 3971TIP3   OH233547   2.359   4.000   8.325  0.5527 -0.4188  0.5743
 3971TIP3    H133548   2.444   4.038   8.349 -0.3102  0.6848  1.9693
 3971TIP3    H233549   2.330   4.051   8.250  1.8891 -1.9559 -1.0834
 3972TIP3   OH233550   6.201   0.396   7.189  0.4117  0.0688 -0.2873
 3972TIP3    H133551   6.149   0.464   7.147 -0.2136 -0.6099 -0.6116
 3972TIP3    H233552   6.277   0.385   7.132 -0.1025 -0.3768 -0.9042
 3973TIP3   OH233553   2.617   4.235   0.431 -0.2980  0.2967  0.2388
 3973TIP3    H133554   2.710   4.227   0.413 -0.2369  0.2025  0.5907
 3973TIP3    H233555   2.579   4.154   0.399 -0.3285  0.5378 -0.3397
 3974TIP3   OH233556   1.312   5.938   6.593  0.5458 -0.1205  0.2047
 3974TIP3    H133557   1.330   5.927   6.500 -0.1071  0.0433  0.0552
 3974TIP3    H233558   1.221   5.966   6.597 -0.4698 -3.1763  1.0361
 3975TIP3   OH233559   6.399   5.501   6.968  0.1153  0.3295  0.3396
 3975TIP3    H133560   6.390   5.411   6.936 -2.9399  0.2532  1.0965
 3975TIP3    H233561   6.426   5.491   7.059  0.2028  0.1881  0.2976
 3976TIP3   OH233562   3.726   6.530   6.985  0.1931  0.4712 -0.0914
 3976TIP3    H133563   3.633   6.528   7.007  0.4205  0.1945  0.9296
 3976TIP3    H233564   3.729   6.546   6.891 -0.9421 -1.4843 -0.5150
 3977TIP3   OH233565   5.869   1.182   1.616  0.6515  0.1262 -0.5867
 3977TIP3    H133566   5.941   1.234   1.581  2.5587 -2.0760 -0.2029
 3977TIP3    H233567   5.860   1.109   1.556 -0.1066 -0.5426  0.3030
 3978TIP3   OH233568   2.129   2.885   7.043  0.2156 -1.1493 -0.7983
 3978TIP3    H133569   2.184   2.821   6.996 -0.5339 -0.6325 -2.4701
 3978TIP3    H233570   2.173   2.897   7.127  2.3029 -1.2812 -1.7961
 3979TIP3   OH233571   1.360   0.696   7.500  0.2664 -0.0011  0.1581
 3979TIP3    H133572   1.437   0.675   7.447  0.4665 -0.7696  0.7247
 3979TIP3    H233573   1.287   0.654   7.453  0.4601 -0.7835  0.5302
 3980TIP3   OH233574   3.806   0.914   0.829  0.7448  0.6049  0.1546
 3980TIP3    H133575   3.807   0.945   0.739 -1.0455 -1.1381 -0.5572
 3980TIP3    H233576   3.784   0.991   0.882  0.0081  1.2839 -1.1077
 3981TIP3   OH233577   3.737   5.770   6.749  0.0896 -0.0515 -0.2025
 3981TIP3    H133578   3.746   5.747   6.841  1.2703  1.1361  0.0045
 3981TIP3    H233579   3.735   5.685   6.703 -1.4975 -0.6886  0.9584
 3982TIP3   OH233580   1.857   2.846   1.459  0.2887  0.0806 -0.0550
 3982TIP3    H133581   1.872   2.929   1.504  1.7523 -0.6595  0.8958
 3982TIP3    H233582   1.840   2.784   1.529 -0.1018 -0.5757 -0.7171
 3983TIP3   OH233583   1.124   6.340   0.372 -0.3856 -0.2820  0.2846
 3983TIP3    H133584   1.213   6.331   0.406 -0.0258 -0.6127 -0.7242
 3983TIP3    H233585   1.076   6.267   0.411 -0.0566 -0.4835  0.3098
 3984TIP3   OH233586   0.746   5.394   2.282  0.2039  0.4366  0.2979
 3984TIP3    H133587   0.810   5.465   2.281  0.7100 -0.0018 -0.6658
 3984TIP3    H233588   0.704   5.398   2.197 -0.7326  0.4247  0.7523
 3985TIP3   OH233589   5.973   5.817   7.053 -0.2879  0.5893  0.1389
 3985TIP3    H133590   5.879   5.800   7.050  0.1378 -2.2472 -0.1307
 3985TIP3    H233591   6.002   5.805   6.963  0.3355  1.6934  0.1742
 3986TIP3   OH233592   5.764   1.264   7.127  0.8435  0.7895  0.2748
 3986TIP3    H133593   5.746   1.230   7.215 -1.2547 -0.5245 -0.5767
 3986TIP3    H233594   5.855   1.239   7.110  0.2839 -1.9963  0.8081
 3987TIP3   OH233595   2.730   4.645   1.557  0.2891  0.2631  0.4875
 3987TIP3    H133596   2.690   4.666   1.642 -0.6359  0.9033 -0.0967
 3987TIP3    H233597   2.674   4.687   1.492  0.9942 -0.2067 -0.4562
 3988TIP3   OH233598   4.481   3.887   0.761  0.8536 -0.2272  0.7134
 3988TIP3    H133599   4.574   3.881   0.782  0.6110 -1.3251  1.5729
 3988TIP3    H233600   4.438   3.898   0.846  0.0825 -1.3070  0.4799
 3989TIP3   OH233601   2.936   1.735   6.664 -0.3510  0.9478 -0.0031
 3989TIP3    H133602   3.018   1.760   6.621  0.1928 -1.3906 -0.4500
 3989TIP3    H233603   2.887   1.817   6.671  1.5078  2.2025 -0.8101
 3990TIP3   OH233604   6.245   0.038   1.429 -0.3230 -0.0071  0.0265
 3990TIP3    H133605   6.165   0.031   1.377 -1.5483  0.5549  1.7408
 3990TIP3    H233606   6.279  -0.052   1.433 -1.8564 -0.6006  0.7004
 3991TIP3   OH233607   3.701   0.717   0.621  0.1196  0.1152  0.0223
 3991TIP3    H133608   3.721   0.800   0.664  1.5099 -0.3817  0.4100
 3991TIP3    H233609   3.709   0.736   0.528  1.6644  0.1612  0.1356
 3992TIP3   OH233610   4.529   0.997   8.466 -0.1294 -0.2841  0.2366
 3992TIP3    H133611   4.477   1.048   8.404  1.0502  1.8930  0.9242
 3992TIP3    H233612   4.618   0.999   8.430 -0.2211 -2.9757 -0.3436
 3993TIP3   OH233613   3.804   3.024   7.654  0.0966  0.1550 -0.3567
 3993TIP3    H133614   3.816   3.072   7.736  0.1051  2.4149 -1.6162
 3993TIP3    H233615   3.714   3.043   7.628 -0.0965 -1.0148 -0.6186
 3994TIP3   OH233616   0.679   1.161   0.441 -0.1989  0.5173  0.2545
 3994TIP3    H133617   0.650   1.070   0.451  1.3564 -0.1936 -1.2389
 3994TIP3    H233618   0.766   1.163   0.480  0.3646  0.9908 -0.9963
 3995TIP3   OH233619   6.770   4.874   8.628  0.1674  0.1098  0.4101
 3995TIP3    H133620   6.810   4.788   8.617 -1.6158 -0.6793 -0.1706
 3995TIP3    H233621   6.779   4.916   8.543  1.0457  0.5344  0.6963
 3996TIP3   OH233622   4.673   5.594   1.646  0.0530  0.2027 -0.4900
 3996TIP3    H133623   4.619   5.608   1.724 -1.0637  0.2789 -1.2545
 3996TIP3    H233624   4.763   5.592   1.679 -0.3611  0.7561  0.7264
 3997TIP3   OH233625   4.909   5.987   0.106 -0.5147  0.0667  0.6459
 3997TIP3    H133626   4.928   5.952   0.018 -0.4629  0.3071  0.5611
 3997TIP3    H233627   4.868   6.072   0.090  1.6673  1.2274  0.8653
 3998TIP3   OH233628   6.928   0.328   7.395 -0.0498  0.3315  0.0247
 3998TIP3    H133629   6.835   0.328   7.374 -0.3779  0.9661  1.4011
 3998TIP3    H233630   6.934   0.370   7.481  1.5214  0.4540 -0.1089
 3999TIP3   OH233631   3.880   5.918   7.928 -0.1357  0.0120 -0.0632
 3999TIP3    H133632   3.887   5.824   7.944 -0.5011  0.1612  1.0536
 3999TIP3    H233633   3.871   5.957   8.015 -3.4677  0.7684 -0.6005
 4000TIP3   OH233634   3.149   2.683   1.204 -0.1485 -0.3470  0.0541
 4000TIP3    H133635   3.191   2.630   1.136 -1.3751  1.2569 -2.0894
 4000TIP3    H233636   3.214   2.688   1.274  1.8232 -0.8039 -1.6436
 4001TIP3   OH233637   4.455   5.929   7.085 -0.7311 -0.3954  0.2392
 4001TIP3    H133638   4.403   5.918   7.165  0.0269 -1.4288  0.6150
 4001TIP3    H233639   4.390   5.939   7.016 -1.4354 -0.8988  0.7985
 4002TIP3   OH233640   5.532   2.214   8.452 -0.0201 -0.7678 -0.5093
 4002TIP3    H133641   5.512   2.121   8.470 -0.6935 -0.6541 -0.6408
 4002TIP3    H233642   5.488   2.261   8.523 -1.3963 -0.4185 -1.5397
 4003TIP3   OH233643   2.771   6.567   0.053  0.0247  0.0244 -0.1077
 4003TIP3    H133644   2.686   6.524   0.042 -0.4279  1.0161 -0.6061
 4003TIP3    H233645   2.754   6.636   0.117  1.6018 -2.8316  3.7905
 4004TIP3   OH233646   1.237   3.974   0.271 -0.0364 -0.0495  0.5977
 4004TIP3    H133647   1.184   3.946   0.196  0.2924 -0.4634  0.5209
 4004TIP3    H233648   1.179   3.961   0.346  0.3876 -1.7741  0.6731
 4005TIP3   OH233649   3.602   1.056   8.143 -0.2601 -0.2980  0.2967
 4005TIP3    H133650   3.535   0.988   8.153 -0.4561 -0.2676 -0.7222
 4005TIP3    H233651   3.609   1.095   8.230  0.6885 -2.3690  1.2359
 4006TIP3   OH233652   2.702   1.375   6.815 -0.1108  0.1556  0.0173
 4006TIP3    H133653   2.615   1.415   6.816  0.3747  1.2242  0.2177
 4006TIP3    H233654   2.684   1.281   6.809 -1.2646  0.3992 -0.6914
 4007TIP3   OH233655   4.332   3.732   8.033  0.5690  0.1979 -0.2421
 4007TIP3    H133656   4.374   3.669   7.975  1.1060 -1.2959  1.6824
 4007TIP3    H233657   4.248   3.751   7.991 -0.4839 -3.3062  0.0138
 4008TIP3   OH233658   4.020   1.668   7.467  0.4956 -0.0549 -0.1148
 4008TIP3    H133659   4.115   1.652   7.475  0.7217  1.5632  0.9598
 4008TIP3    H233660   4.013   1.743   7.408 -0.1672 -0.5121 -0.6281
 4009TIP3   OH233661   4.395   2.276   8.346  0.1226 -0.2478 -0.2287
 4009TIP3    H133662   4.380   2.357   8.394 -1.0545 -1.3368  1.3361
 4009TIP3    H233663   4.467   2.297   8.287 -0.6674  2.1523 -0.4614
 4010TIP3   OH233664   5.811   2.041   0.945  0.1255 -0.1615  0.3907
 4010TIP3    H133665   5.781   2.112   0.888  2.5728  0.4639 -0.2203
 4010TIP3    H233666   5.767   1.963   0.910  0.4780  0.4346 -1.5237
 4011TIP3   OH233667   6.840   6.546   1.848 -0.1554 -0.4078  0.7079
 4011TIP3    H133668   6.750   6.577   1.838  0.1986  0.1868 -0.9708
 4011TIP3    H233669   6.881   6.610   1.906 -0.1891  0.7365 -0.4888
 4012TIP3   OH233670   1.477   4.284   0.071 -0.1766 -0.8063 -0.0064
 4012TIP3    H133671   1.460   4.213   0.132 -0.5507 -0.0136  0.8402
 4012TIP3    H233672   1.402   4.284   0.012 -0.0197 -1.3120 -0.2048
 4013TIP3   OH233673   0.455   6.767   6.873 -0.0123  0.5462 -0.2961
 4013TIP3    H133674   0.407   6.757   6.955 -1.8278 -2.0942 -1.5555
 4013TIP3    H233675   0.507   6.847   6.886  0.3246 -0.0861  3.6332
 4014TIP3   OH233676   4.345   5.998   6.833 -0.7244  0.6831 -0.3999
 4014TIP3    H133677   4.324   5.905   6.826  0.9213  0.2195  0.2968
 4014TIP3    H233678   4.413   6.013   6.768 -2.0877  1.8095 -1.6339
 4015TIP3   OH233679   6.876   3.649   6.433  0.1151  0.0856 -1.3051
 4015TIP3    H133680   6.898   3.650   6.527  0.5058 -2.0696 -1.3175
 4015TIP3    H233681   6.914   3.729   6.398 -0.8507  1.4254  0.5306
 4016TIP3   OH233682   0.851   2.158   2.098  0.8277  0.3194 -0.0262
 4016TIP3    H133683   0.940   2.165   2.131  1.2175  0.4376 -1.0557
 4016TIP3    H233684   0.860   2.115   2.013 -0.2775 -1.2597  0.6044
 4017TIP3   OH233685   0.896   1.920   0.986  0.1717 -0.0671  0.3776
 4017TIP3    H133686   0.956   1.951   0.918  1.2391 -1.8432  0.4189
 4017TIP3    H233687   0.812   1.911   0.942  0.5084  0.1838 -0.3245
 4018TIP3   OH233688   5.936   4.055   6.806  0.5481 -0.3482 -0.0397
 4018TIP3    H133689   5.943   3.963   6.834 -1.5736 -0.0709  1.7348
 4018TIP3    H233690   5.933   4.104   6.888  0.3670  1.1861 -0.9344
 4019TIP3   OH233691   1.165   1.182   8.601 -0.0838  0.6267  0.3464
 4019TIP3    H133692   1.076   1.218   8.601 -0.3162  0.1563  1.7732
 4019TIP3    H233693   1.222   1.258   8.590 -0.6459  1.0438  0.2850
 4020TIP3   OH233694   4.198   4.677   0.744  0.3338  0.4043  0.4618
 4020TIP3    H133695   4.270   4.699   0.686  0.1728 -0.3491 -0.0402
 4020TIP3    H233696   4.211   4.585   0.765 -0.1720  0.4065  0.8153
 4021TIP3   OH233697   2.427   0.842   7.384 -0.0023 -0.0780 -0.0887
 4021TIP3    H133698   2.490   0.835   7.312  1.5555  0.0181  1.2119
 4021TIP3    H233699   2.344   0.816   7.345  0.7388  0.2214 -1.9873
 4022TIP3   OH233700   1.192   3.294   1.027  0.0905  0.6872 -0.0201
 4022TIP3    H133701   1.250   3.229   1.068 -1.6307  0.2568  1.9139
 4022TIP3    H233702   1.156   3.249   0.951 -0.2987 -0.3024  0.7238
 4023TIP3   OH233703   3.712   2.821   7.048  0.3781  0.1498  0.5462
 4023TIP3    H133704   3.758   2.796   7.129 -2.0503  1.1771  2.3546
 4023TIP3    H233705   3.678   2.738   7.014 -1.6982  0.0414  2.6690
 4024TIP3   OH233706   6.547   5.360   1.830 -0.0355 -0.0079 -0.1088
 4024TIP3    H133707   6.553   5.355   1.925  1.5992 -0.2769 -0.1811
 4024TIP3    H233708   6.454   5.369   1.811 -0.6656 -2.4285  1.4165
 4025TIP3   OH233709   0.622   4.383   8.484  0.5201 -0.3072  0.5865
 4025TIP3    H133710   0.666   4.363   8.401 -1.7500 -1.6576 -0.3985
 4025TIP3    H233711   0.690   4.373   8.550  2.1438 -0.3442 -0.9984
 4026TIP3   OH233712   5.629   2.715   7.333 -0.5605 -0.0687 -0.2398
 4026TIP3    H133713   5.627   2.775   7.258 -0.9982  1.0309  0.6304
 4026TIP3    H233714   5.722   2.705   7.353 -0.3610 -1.2483 -1.5904
 4027TIP3   OH233715   0.900   0.528   0.214  0.0330 -0.2735 -1.2447
 4027TIP3    H133716   0.809   0.512   0.236  0.3712  0.1029  0.6284
 4027TIP3    H233717   0.935   0.442   0.191 -0.0389 -1.0046  1.1768
 4028TIP3   OH233718   6.495   0.879   7.615  0.1258 -0.2323 -0.1853
 4028TIP3    H133719   6.511   0.819   7.541  0.8865  1.5021 -1.4962
 4028TIP3    H233720   6.430   0.834   7.668  1.0771 -2.4765 -0.7940
 4029TIP3   OH233721   6.485   4.705   0.509 -0.5330  0.6558 -0.0299
 4029TIP3    H133722   6.419   4.708   0.439 -1.4508 -1.8469  0.6324
 4029TIP3    H233723   6.452   4.767   0.574 -2.5570 -0.8632  0.4904
 4030TIP3   OH233724   1.927   6.865   2.095 -0.0653 -0.1204 -0.1869
 4030TIP3    H133725   1.902   6.785   2.141 -1.0848 -0.6778 -1.6408
 4030TIP3    H233726   2.012   6.845   2.057  0.5438  0.1645  0.9734
 4031TIP3   OH233727   5.825   6.651   1.081  0.2921 -0.5357 -0.5394
 4031TIP3    H133728   5.768   6.619   1.150  0.7858  1.5789  0.9613
 4031TIP3    H233729   5.780   6.727   1.045  0.8230 -0.5932 -1.3631
 4032TIP3   OH233730   5.696   0.846   2.379 -0.0054  0.2105  0.3647
 4032TIP3    H133731   5.644   0.845   2.459  0.1267 -0.2420  0.4463
 4032TIP3    H233732   5.770   0.903   2.399 -0.9474  1.6465 -0.0646
 4033TIP3   OH233733   2.355   1.712   7.333  0.3224  0.2210  0.1779
 4033TIP3    H133734   2.346   1.725   7.427  1.9309  0.5995  0.3212
 4033TIP3    H233735   2.274   1.746   7.296 -0.6654 -0.6534  1.4645
 4034TIP3   OH233736   3.192   1.454   0.862 -0.2686  0.1699 -0.2427
 4034TIP3    H133737   3.274   1.410   0.840  0.6885  1.9142 -0.3336
 4034TIP3    H233738   3.203   1.479   0.954 -1.7691 -1.7666  0.5347
 4035TIP3   OH233739   1.321   4.090   7.986 -0.6616 -0.5440  0.1626
 4035TIP3    H133740   1.410   4.118   7.966 -0.9304  0.4982  0.3189
 4035TIP3    H233741   1.319   3.997   7.965  0.1977 -0.3807 -0.7263
 4036TIP3   OH233742   4.952   3.080   1.618 -0.1906 -0.2788  0.3668
 4036TIP3    H133743   4.926   3.161   1.662  0.0178  0.5572 -1.0024
 4036TIP3    H233744   5.011   3.037   1.681  0.6985  1.2417  0.6375
 4037TIP3   OH233745   6.670   1.654   7.329 -0.1459 -0.3652  0.7029
 4037TIP3    H133746   6.659   1.639   7.235  1.8024 -2.2197  0.6700
 4037TIP3    H233747   6.598   1.605   7.370  0.5325 -1.8513  0.2076
 4038TIP3   OH233748   3.441   0.486   2.206 -0.1581  0.4624 -0.3202
 4038TIP3    H133749   3.518   0.514   2.156 -0.0939 -0.5191 -0.7971
 4038TIP3    H233750   3.377   0.555   2.192 -0.0510  0.3362 -1.5702
 4039TIP3   OH233751   0.137   6.555   0.965  0.2675  0.6880  0.0162
 4039TIP3    H133752   0.105   6.465   0.958 -2.1536  1.6072 -3.3911
 4039TIP3    H233753   0.232   6.547   0.961  0.0951 -1.6710 -1.1343
 4040TIP3   OH233754   3.927   1.324   1.739  0.1351 -0.2407 -0.1609
 4040TIP3    H133755   3.902   1.370   1.819  0.6058  0.4577 -0.4027
 4040TIP3    H233756   3.970   1.391   1.686 -0.2919 -0.6617 -1.0583
 4041TIP3   OH233757   0.952   2.849   1.846 -0.0975  0.7250 -0.2243
 4041TIP3    H133758   0.995   2.864   1.929 -1.5813  0.4087  0.6436
 4041TIP3    H233759   0.975   2.759   1.822 -2.0142 -0.3009  1.4019
 4042TIP3   OH233760   5.106   2.084   6.503  0.1656  0.3455  0.1965
 4042TIP3    H133761   5.142   2.151   6.444 -1.3890  0.0090 -1.2157
 4042TIP3    H233762   5.054   2.028   6.446 -0.9447 -0.3481  1.8330
 4043TIP3   OH233763   6.638   3.859   2.231 -0.2029  0.0857 -0.4408
 4043TIP3    H133764   6.678   3.778   2.201  0.5319  0.3162 -0.1137
 4043TIP3    H233765   6.655   3.861   2.325 -0.2236  0.6040 -0.4452
 4044TIP3   OH233766   6.238   4.411   8.090 -0.1649  0.3712 -0.0190
 4044TIP3    H133767   6.165   4.465   8.059  0.4091  0.4815 -1.2239
 4044TIP3    H233768   6.270   4.456   8.168 -1.1157  0.5474  0.2774
 4045TIP3   OH233769   4.326   0.083   8.551 -0.1889  0.3191  0.5830
 4045TIP3    H133770   4.257   0.148   8.564  0.1772  1.1913 -1.4172
 4045TIP3    H233771   4.279   0.002   8.531 -0.7072  0.9829 -1.1192
 4046TIP3   OH233772   3.084   0.847   0.207  0.3050  0.6098 -0.5411
 4046TIP3    H133773   3.134   0.776   0.248 -0.4542 -0.0941 -0.8137
 4046TIP3    H233774   3.149   0.917   0.193  1.0841 -0.0619 -0.3643
 4047TIP3   OH233775   0.732   5.048   8.063  0.0558 -0.2458  0.4927
 4047TIP3    H133776   0.812   5.026   8.015  0.5695  2.1312  0.1241
 4047TIP3    H233777   0.663   5.042   7.997  0.6566  2.2955 -0.5116
 4048TIP3   OH233778   2.551   0.324   1.009 -0.3579  0.5693  0.4899
 4048TIP3    H133779   2.631   0.282   1.042 -1.0570 -2.9992 -1.8283
 4048TIP3    H233780   2.489   0.318   1.082  0.9048  1.7483  1.7103
 4049TIP3   OH233781   0.792   4.758   7.227  0.4128 -0.1773 -0.5161
 4049TIP3    H133782   0.764   4.667   7.227  0.2533 -0.1313 -0.9113
 4049TIP3    H233783   0.737   4.800   7.293 -1.0754  0.0902 -1.8509
 4050TIP3   OH233784   1.017   3.289   1.578 -0.1090 -0.4641 -0.2224
 4050TIP3    H133785   0.932   3.246   1.567  0.8293 -2.2790 -0.6592
 4050TIP3    H233786   1.052   3.254   1.660  0.5211 -0.2316 -0.3878
 4051TIP3   OH233787   3.472   4.705   7.312  0.5791  0.3185  0.7343
 4051TIP3    H133788   3.431   4.703   7.399  0.4928 -2.9232  0.7432
 4051TIP3    H233789   3.398   4.714   7.251  0.4797  0.8762  0.9319
 4052TIP3   OH233790   0.396   5.291   8.343 -0.4192  0.0783 -0.3354
 4052TIP3    H133791   0.466   5.293   8.408 -1.0035  0.6465  0.2978
 4052TIP3    H233792   0.425   5.228   8.277 -0.0200 -0.8739  0.7175
 4053TIP3   OH233793   3.426   6.201   7.937 -0.2223 -0.1575 -0.6734
 4053TIP3    H133794   3.348   6.208   7.883 -1.7766  0.3827  1.5287
 4053TIP3    H233795   3.425   6.112   7.970 -1.3861  0.5517  1.3707
 4054TIP3   OH233796   6.485   4.120   2.293 -0.5677  0.2379 -0.4751
 4054TIP3    H133797   6.535   4.061   2.350 -0.9087 -0.5527 -0.9861
 4054TIP3    H233798   6.518   4.207   2.315  0.7601 -0.2273 -0.5167
 4055TIP3   OH233799   3.388   2.469   8.116 -0.0553 -0.0880 -0.2650
 4055TIP3    H133800   3.484   2.466   8.112  0.0154  0.5071  0.6615
 4055TIP3    H233801   3.365   2.556   8.082 -0.2980 -0.4078 -0.9240
 4056TIP3   OH233802   3.073   0.178   7.560 -0.1744  0.0982 -0.0244
 4056TIP3    H133803   3.091   0.086   7.539  0.7436  0.3020 -0.1768
 4056TIP3    H233804   3.098   0.186   7.652  2.5425  0.8435 -0.7304
 4057TIP3   OH233805   6.640   3.693   0.111 -0.1366  0.2802  0.1969
 4057TIP3    H133806   6.674   3.731   0.192 -0.0493  1.3983 -0.3466
 4057TIP3    H233807   6.557   3.652   0.136  1.5197 -2.5814  1.5831
 4058TIP3   OH233808   5.492   1.544   7.703  0.2485  0.2329 -0.1012
 4058TIP3    H133809   5.405   1.524   7.668  1.0810 -3.0802 -0.6558
 4058TIP3    H233810   5.482   1.537   7.798 -0.3427  1.3250 -0.0640
 4059TIP3   OH233811   5.722   1.905   0.101  0.5622 -0.0215  0.0743
 4059TIP3    H133812   5.648   1.930   0.047 -1.1007 -0.4063  2.0288
 4059TIP3    H233813   5.746   1.985   0.148  1.4134  0.1073 -0.5706
 4060TIP3   OH233814   0.871   4.487   8.554  0.2221  0.2918  0.0569
 4060TIP3    H133815   0.835   4.481   8.643  0.1984  1.9871  0.1931
 4060TIP3    H233816   0.964   4.506   8.567  0.5825 -1.1437 -0.3004
 4061TIP3   OH233817   4.548   3.071   7.885  0.4566 -0.1506  0.3958
 4061TIP3    H133818   4.583   3.135   7.824  0.7898  0.2070  0.9507
 4061TIP3    H233819   4.586   2.988   7.857 -1.2629 -0.4193 -1.3344
 4062TIP3   OH233820   5.072   4.371   0.612  0.6944  0.5438  0.0612
 4062TIP3    H133821   5.029   4.454   0.591  0.5483  0.8630  1.5573
 4062TIP3    H233822   5.134   4.392   0.681  0.8155 -0.5587  0.3114
 4063TIP3   OH233823   2.902   2.873   7.452 -0.1433 -0.4465  0.2614
 4063TIP3    H133824   2.832   2.929   7.485  0.9519  1.5849 -0.6710
 4063TIP3    H233825   2.935   2.919   7.375  1.6433 -1.7877  0.1644
 4064TIP3   OH233826   6.052   6.278   1.839  0.1176  0.2702 -0.5346
 4064TIP3    H133827   6.101   6.304   1.917 -2.4718  1.8034  0.6881
 4064TIP3    H233828   6.006   6.199   1.864  1.0648 -0.5693 -1.3381
 4065TIP3   OH233829   1.312   3.398   1.749  0.0955 -0.7272 -0.0256
 4065TIP3    H133830   1.236   3.413   1.805  0.0987 -0.6304 -0.0474
 4065TIP3    H233831   1.385   3.438   1.795 -0.0223 -0.0455 -0.4208
 4066TIP3   OH233832   2.285   3.420   1.494  0.1604  0.0154 -0.4601
 4066TIP3    H133833   2.366   3.431   1.544 -0.7728  1.1675  0.8879
 4066TIP3    H233834   2.304   3.457   1.408  0.3491  2.7334  0.6387
 4067TIP3   OH233835   1.692   5.057   0.345 -0.1508  0.4769  0.3689
 4067TIP3    H133836   1.713   4.979   0.397  1.1786  0.6264  0.0904
 4067TIP3    H233837   1.598   5.070   0.358 -0.6254 -1.7499 -0.3730
 4068TIP3   OH233838   2.266   0.094   1.336 -0.4626 -0.2670 -0.4981
 4068TIP3    H133839   2.198   0.030   1.359 -0.2260 -1.7558 -3.3587
 4068TIP3    H233840   2.347   0.042   1.332 -0.0273  0.4439 -1.5932
 4069TIP3   OH233841   2.465   4.698   7.563 -0.4437 -0.1362 -0.1093
 4069TIP3    H133842   2.475   4.605   7.542 -0.7079 -0.5635  1.5596
 4069TIP3    H233843   2.550   4.723   7.601  0.0426  0.6421 -1.5764
 4070TIP3   OH233844   1.818   4.418   6.289 -0.5123 -0.4433 -1.0579
 4070TIP3    H133845   1.819   4.431   6.194 -1.2706 -2.9413 -1.4833
 4070TIP3    H233846   1.788   4.328   6.300 -0.8856 -0.0598  1.5970
 4071TIP3   OH233847   1.869   6.502   1.050  0.0644  0.7593 -0.5949
 4071TIP3    H133848   1.955   6.474   1.083  0.2477  1.9482 -0.0102
 4071TIP3    H233849   1.878   6.597   1.039 -1.3122  0.9543 -0.1342
 4072TIP3   OH233850   2.199   6.456   5.903  0.0755 -0.1715 -0.3699
 4072TIP3    H133851   2.108   6.430   5.885  0.2700  0.0060 -1.7179
 4072TIP3    H233852   2.195   6.551   5.913  0.2494 -0.0224 -1.5334
 4073TIP3   OH233853   1.891   3.842   1.192  0.0100  0.1394 -0.4728
 4073TIP3    H133854   1.847   3.927   1.194  0.2471  0.2943 -1.3496
 4073TIP3    H233855   1.873   3.808   1.104  1.3547  0.0695 -0.7397
 4074TIP3   OH233856   1.547   4.667   1.493 -0.0477  0.3276  0.4288
 4074TIP3    H133857   1.547   4.576   1.464 -2.0642  0.7873 -1.2631
 4074TIP3    H233858   1.639   4.694   1.486  0.4811 -1.3828  0.3527
 4075TIP3   OH233859   4.321   3.029   7.006  0.4501  0.0771 -0.1295
 4075TIP3    H133860   4.386   3.054   6.940  0.5016  0.5336  0.0916
 4075TIP3    H233861   4.240   3.072   6.977  0.2147 -0.5736 -0.4611
 4076TIP3   OH233862   4.628   3.954   8.442  0.3926  0.5662 -0.4005
 4076TIP3    H133863   4.545   4.001   8.435  0.5607  0.9845  0.3729
 4076TIP3    H233864   4.695   4.022   8.437  0.6329  0.4275  0.7683
 4077TIP3   OH233865   5.189   3.605   8.551 -0.7687 -0.2255  0.6530
 4077TIP3    H133866   5.098   3.580   8.566 -1.1113 -0.4375 -1.4816
 4077TIP3    H233867   5.222   3.626   8.638 -2.8926  0.0040  1.4792
 4078TIP3   OH233868   3.249   3.825   8.616 -0.6210 -0.1678  0.2826
 4078TIP3    H133869   3.195   3.849   8.541  0.1613 -0.0300 -0.2430
 4078TIP3    H233870   3.251   3.904   8.670 -0.0449  0.1883 -0.2459
 4079TIP3   OH233871   4.343   6.278   7.593  0.0035 -0.3222 -0.2361
 4079TIP3    H133872   4.257   6.282   7.553  0.9189 -1.5848 -2.5654
 4079TIP3    H233873   4.336   6.208   7.658 -1.5162  1.7547  1.9948
 4080TIP3   OH233874   0.480   2.349   1.054 -1.4132  0.4139  0.5897
 4080TIP3    H133875   0.483   2.406   0.977 -0.8807  0.4283  0.6129
 4080TIP3    H233876   0.441   2.268   1.022  0.3959 -0.2347 -0.1626
 4081TIP3   OH233877   4.227   4.279   8.471 -0.1135  0.3967  0.6904
 4081TIP3    H133878   4.161   4.349   8.467  0.1089  0.5513 -0.7863
 4081TIP3    H233879   4.305   4.321   8.505 -0.4972  0.4366  1.5380
 4082TIP3   OH233880   4.474   1.516   8.148  0.3577  0.7459 -0.3621
 4082TIP3    H133881   4.385   1.507   8.182 -0.0042  1.1166 -1.2034
 4082TIP3    H233882   4.511   1.589   8.198 -0.2619  1.4601 -0.9427
 4083TIP3   OH233883   3.583   2.739   1.840 -0.5601  0.1349 -0.4191
 4083TIP3    H133884   3.495   2.744   1.878  0.2746  0.7093  1.5875
 4083TIP3    H233885   3.602   2.646   1.833 -1.1021  0.0144 -0.2793
 4084TIP3   OH233886   5.629   3.330   0.537  0.1370  0.3520 -0.6711
 4084TIP3    H133887   5.684   3.254   0.520  0.3059  0.4733 -0.6697
 4084TIP3    H233888   5.540   3.295   0.543  0.4147 -0.1238  1.3121
 4085TIP3   OH233889   6.377   1.592   0.299  0.3708  1.0136 -0.4588
 4085TIP3    H133890   6.345   1.588   0.209 -0.9210  1.8698 -0.0631
 4085TIP3    H233891   6.459   1.641   0.292  1.4997 -0.8804 -1.4364
 4086TIP3   OH233892   0.774   5.648   7.994  0.3363 -0.2015 -0.2346
 4086TIP3    H133893   0.843   5.619   8.053  0.6116 -1.4131 -1.1158
 4086TIP3    H233894   0.785   5.743   7.990 -0.5754  0.1515  2.7238
 4087TIP3   OH233895   1.053   4.742   1.006 -0.7256  0.0909  0.2301
 4087TIP3    H133896   1.086   4.717   0.920 -1.5253  0.9702 -0.3579
 4087TIP3    H233897   0.972   4.692   1.017 -1.6158  1.3555 -0.3661
 4088TIP3   OH233898   0.014   5.832   0.432 -0.1876 -0.5728  0.0177
 4088TIP3    H133899   0.070   5.880   0.493 -1.0236  0.8404 -0.2831
 4088TIP3    H233900   0.067   5.756   0.406  1.3580  0.4117  0.1579
 4089TIP3   OH233901   0.718   5.064   6.547 -0.5352  0.6033 -0.1736
 4089TIP3    H133902   0.690   5.063   6.456  0.5039 -1.1231 -0.5296
 4089TIP3    H233903   0.641   5.035   6.596 -0.6106 -0.0892 -0.6927
 4090TIP3   OH233904   3.194   2.632   8.277 -0.2910 -0.3292 -0.1424
 4090TIP3    H133905   3.137   2.570   8.321  0.5193 -1.1172 -0.1902
 4090TIP3    H233906   3.280   2.591   8.276  0.1653  0.5894 -0.5841
 4091TIP3   OH233907   5.109   4.805   7.886 -0.0894 -0.1433  0.4989
 4091TIP3    H133908   5.163   4.883   7.900  2.7155 -1.3022 -2.5338
 4091TIP3    H233909   5.020   4.833   7.908  0.8588  3.7428  0.0693
 4092TIP3   OH233910   0.035   0.747   7.113  0.5222 -0.7448  0.3193
 4092TIP3    H133911   0.042   0.703   7.029  0.3514  0.3449 -0.2817
 4092TIP3    H233912   0.082   0.829   7.102 -0.0579 -0.2880  1.0747
 4093TIP3   OH233913   1.146   3.540   7.387 -0.4302  0.2489 -0.1152
 4093TIP3    H133914   1.179   3.623   7.421 -0.3681  0.3061 -0.3175
 4093TIP3    H233915   1.156   3.546   7.292  2.2572 -1.1205 -0.0095
 4094TIP3   OH233916   2.142   1.210   0.535 -0.0858 -0.7333 -0.8254
 4094TIP3    H133917   2.053   1.176   0.537  0.5138 -2.3983  0.5283
 4094TIP3    H233918   2.136   1.298   0.574 -0.9734 -1.3385  0.4704
 4095TIP3   OH233919   4.792   4.434   2.520 -0.0372 -0.1998 -0.1078
 4095TIP3    H133920   4.713   4.385   2.497  0.7467 -1.2745 -0.5874
 4095TIP3    H233921   4.825   4.466   2.436 -0.1366  0.5320  0.1258
 4096TIP3   OH233922   3.552   0.596   1.199 -0.8875 -0.3544 -0.0230
 4096TIP3    H133923   3.516   0.676   1.160 -0.8274 -0.0787  0.4668
 4096TIP3    H233924   3.598   0.553   1.127  0.1845  0.7121 -0.0212
 4097TIP3   OH233925   4.759   6.714   1.281 -0.1674  0.4116 -0.2943
 4097TIP3    H133926   4.773   6.619   1.279  0.5620  0.5173 -0.4801
 4097TIP3    H233927   4.837   6.750   1.240  0.1926  1.1664  1.0107
 4098TIP3   OH233928   5.157   0.030   7.693  0.2167  0.0964  0.2777
 4098TIP3    H133929   5.238   0.068   7.658  1.6051 -2.0610  0.9861
 4098TIP3    H233930   5.146  -0.052   7.645 -1.9358  0.6334 -0.2394
 4099TIP3   OH233931   6.537   3.525   1.041  0.6165  0.4931  0.5232
 4099TIP3    H133932   6.501   3.595   1.096  2.1173  1.5588  0.2040
 4099TIP3    H233933   6.617   3.498   1.085 -0.4628 -1.8662  1.2321
 4100TIP3   OH233934   2.567   3.382   7.038  0.4324 -0.6941  0.0165
 4100TIP3    H133935   2.573   3.340   7.124  1.5130 -0.6820 -0.0320
 4100TIP3    H233936   2.620   3.462   7.047  0.5268 -0.6776 -0.6468
 4101TIP3   OH233937   0.691   0.805   8.076 -0.0745  0.8904 -0.3537
 4101TIP3    H133938   0.737   0.782   8.157 -0.8338  1.8438  0.3736
 4101TIP3    H233939   0.601   0.820   8.103 -0.6725 -0.1568 -1.6270
 4102TIP3   OH233940   3.860   2.407   1.578 -0.4460  0.4545 -0.1514
 4102TIP3    H133941   3.834   2.464   1.505 -0.0783 -0.3820 -0.9547
 4102TIP3    H233942   3.866   2.466   1.653 -0.2632  1.4423 -0.9159
 4103TIP3   OH233943   3.078   2.576   2.079  0.0887  0.0822 -0.4731
 4103TIP3    H133944   3.069   2.661   2.121  0.9914  0.8213 -1.6939
 4103TIP3    H233945   3.155   2.585   2.022 -1.6395 -0.4741 -3.0598
 4104TIP3   OH233946   1.142   2.952   1.016  0.3653 -0.1811  0.8011
 4104TIP3    H133947   1.215   2.995   1.059 -0.5802  0.8398  1.4140
 4104TIP3    H233948   1.122   3.007   0.940  0.2854 -0.5150  0.5718
 4105TIP3   OH233949   1.699   1.637   0.330  0.5619 -0.0577 -0.2142
 4105TIP3    H133950   1.676   1.670   0.416  0.3076  2.7742 -1.2677
 4105TIP3    H233951   1.626   1.663   0.274  0.8118 -1.6667 -1.3668
 4106TIP3   OH233952   1.713   5.050   7.356  0.1453  0.6195 -0.6335
 4106TIP3    H133953   1.756   5.102   7.288 -3.0177 -0.7919 -4.0712
 4106TIP3    H233954   1.629   5.024   7.317 -1.7860 -0.7264  3.7244
 4107TIP3   OH233955   6.618   0.801   0.036  0.4519  0.6462  0.3567
 4107TIP3    H133956   6.669   0.750  -0.027 -0.1752 -0.5141  0.7598
 4107TIP3    H233957   6.574   0.735   0.091  0.0162  1.6234  1.2185
 4108TIP3   OH233958   2.918   0.678   8.258 -0.7609 -0.2927  0.3727
 4108TIP3    H133959   2.916   0.771   8.279 -0.4234 -0.3410  0.6434
 4108TIP3    H233960   3.011   0.654   8.265 -0.9633 -0.8750  1.3447
 4109TIP3   OH233961   4.767   1.271   7.701  0.0306  0.5231  0.1573
 4109TIP3    H133962   4.687   1.319   7.680 -0.2223 -0.0410 -0.1830
 4109TIP3    H233963   4.737   1.192   7.746  0.3300 -0.1039 -0.7161
 4110TIP3   OH233964   0.328   4.726   2.048 -0.3536  0.0522 -0.2083
 4110TIP3    H133965   0.347   4.632   2.053  0.6827  0.2843  1.0846
 4110TIP3    H233966   0.368   4.755   1.966  0.9879 -0.3183  0.2941
 4111TIP3   OH233967   4.788   2.526   1.889 -0.5210 -0.2275 -0.4050
 4111TIP3    H133968   4.870   2.481   1.908 -0.8338 -0.5061  0.3011
 4111TIP3    H233969   4.720   2.465   1.916 -0.9767  1.1861  1.8845
 4112TIP3   OH233970   4.307   6.317   8.356 -0.1133 -0.0955 -0.9817
 4112TIP3    H133971   4.279   6.270   8.277 -2.0810 -0.8670  0.0911
 4112TIP3    H233972   4.286   6.257   8.428 -0.2182  1.3612  0.2563
 4113TIP3   OH233973   4.918   6.170   8.471  1.1010  0.0044 -0.1052
 4113TIP3    H133974   4.837   6.146   8.426  1.1299 -0.9988  0.3559
 4113TIP3    H233975   4.968   6.089   8.475 -0.7511 -1.2945  5.6928
 4114TIP3   OH233976   5.244   0.670   8.410 -0.2156  0.8246  0.2306
 4114TIP3    H133977   5.170   0.703   8.462 -0.8640 -0.9094  0.5034
 4114TIP3    H233978   5.216   0.679   8.319 -0.1620  1.4690  0.2737
 4115TIP3   OH233979   0.925   2.920   6.962 -0.4984 -0.4964 -0.0874
 4115TIP3    H133980   0.830   2.917   6.947 -0.5936 -0.8441  0.5952
 4115TIP3    H233981   0.957   2.982   6.895 -1.2927  0.1778  0.1385
 4116TIP3   OH233982   6.475   3.435   0.223  0.0538  0.3184 -0.2514
 4116TIP3    H133983   6.475   3.480   0.307 -1.1331  3.1613 -1.6199
 4116TIP3    H233984   6.387   3.451   0.187  0.5401 -0.7378 -2.0824
 4117TIP3   OH233985   0.284   1.265   2.405 -0.1301 -0.0549  0.1193
 4117TIP3    H133986   0.361   1.266   2.461 -0.5454 -2.2862  0.8205
 4117TIP3    H233987   0.286   1.179   2.362 -1.7545  0.1867 -0.5317
 4118TIP3   OH233988   3.668   6.737   0.176  0.5988 -0.5068  0.3063
 4118TIP3    H133989   3.658   6.655   0.127  3.8689  0.1842 -1.8832
 4118TIP3    H233990   3.710   6.797   0.114  1.0965  1.8750  2.7432
 4119TIP3   OH233991   0.753   5.625   2.037  0.1270  0.3650  0.5753
 4119TIP3    H133992   0.776   5.634   2.129  3.3416  0.1335 -0.0982
 4119TIP3    H233993   0.721   5.535   2.028 -0.0600  0.3428  1.4439
 4120TIP3   OH233994   1.662   5.200   0.925  0.1759  0.0827 -0.2363
 4120TIP3    H133995   1.634   5.138   0.992 -1.3625 -0.8881 -1.6852
 4120TIP3    H233996   1.581   5.245   0.898  1.0646  1.8545 -0.1159
 4121TIP3   OH233997   2.930   2.306   7.734  0.0833  0.5262 -0.3825
 4121TIP3    H133998   2.993   2.265   7.674  1.1324  2.7291 -0.8804
 4121TIP3    H233999   2.980   2.319   7.815 -0.8489 -0.9369  0.4844
 4122TIP3   OH234000   6.472   4.229   7.628 -0.2714 -0.3042 -0.5170
 4122TIP3    H134001   6.539   4.292   7.651  1.7073 -1.3198 -2.9375
 4122TIP3    H234002   6.488   4.154   7.685  0.5593 -0.4495 -0.9267
 4123TIP3   OH234003   3.052   1.764   1.258 -0.3777 -0.2952  0.1340
 4123TIP3    H134004   3.037   1.813   1.339 -1.0188 -0.8946  0.3934
 4123TIP3    H234005   3.083   1.829   1.196 -0.9351  0.3879  0.5557
 4124TIP3   OH234006   5.570   4.611   2.557  0.0964 -0.3210  0.1598
 4124TIP3    H134007   5.632   4.682   2.573  0.1934 -0.1822 -0.7567
 4124TIP3    H234008   5.621   4.531   2.570 -0.4459 -0.3020  2.9439
 4125TIP3   OH234009   0.752   2.669   0.568 -0.1352 -0.2060 -0.1842
 4125TIP3    H134010   0.815   2.610   0.608 -0.5939 -0.5991 -0.0380
 4125TIP3    H234011   0.805   2.727   0.513  0.4625  0.1678  0.7773
 4126TIP3   OH234012   5.936   5.074   8.160 -0.3238 -0.1331  0.3063
 4126TIP3    H134013   5.951   5.163   8.191 -3.1370  0.1883  1.0290
 4126TIP3    H234014   5.999   5.061   8.090  0.4308  2.2665  0.4771
 4127TIP3   OH234015   2.062   4.064   1.554 -0.2234 -0.0211  0.1718
 4127TIP3    H134016   2.123   4.005   1.598  1.2909  0.2855 -1.4213
 4127TIP3    H234017   1.987   4.009   1.531  0.6087 -1.0166 -0.1694
 4128TIP3   OH234018   4.511   1.051   7.298  0.0908 -0.4541  0.6845
 4128TIP3    H134019   4.582   1.046   7.234  0.2562 -0.5992  0.8803
 4128TIP3    H234020   4.512   0.967   7.343 -0.6526 -0.7229  0.2168
 4129TIP3   OH234021   1.287   4.493   0.107  0.0159  0.1721 -0.5539
 4129TIP3    H134022   1.355   4.485   0.173 -0.2104 -0.3081 -0.3803
 4129TIP3    H234023   1.239   4.411   0.111 -0.8298  0.6594 -0.3974
 4130TIP3   OH234024   1.439   2.619   1.803 -0.4129  0.3450 -0.2188
 4130TIP3    H134025   1.462   2.528   1.784 -1.8911 -0.7635  2.6550
 4130TIP3    H234026   1.515   2.655   1.848  0.5130  0.8968 -2.1110
 4131TIP3   OH234027   0.817   6.503   1.507  0.3971  0.0770 -0.0671
 4131TIP3    H134028   0.835   6.410   1.520 -1.9498 -0.3853  0.4335
 4131TIP3    H234029   0.894   6.537   1.460  0.6058 -2.4724 -1.7536
 4132TIP3   OH234030   6.823   4.615   0.965 -0.0204  0.3776 -0.3655
 4132TIP3    H134031   6.786   4.624   1.053 -2.1464  1.1988 -1.2539
 4132TIP3    H234032   6.770   4.547   0.924  0.7066  0.2635 -1.1296
 4133TIP3   OH234033   3.916   4.230   7.445  0.0310 -0.5682 -0.3946
 4133TIP3    H134034   3.851   4.171   7.406 -0.1404 -1.6233  1.3779
 4133TIP3    H234035   3.913   4.309   7.390 -0.8009 -1.6311 -1.9386
 4134TIP3   OH234036   6.387   6.044   6.235 -0.2439  0.2863  0.1692
 4134TIP3    H134037   6.367   5.951   6.224 -0.7016  0.4289 -0.2921
 4134TIP3    H234038   6.309   6.080   6.277 -0.9262  0.8142 -1.4512
 4135TIP3   OH234039   1.780   5.353   8.358 -0.2285  0.5474  0.1230
 4135TIP3    H134040   1.852   5.332   8.417 -1.6199 -0.8846  1.4305
 4135TIP3    H234041   1.714   5.286   8.377 -1.9061  1.7987 -1.0141
 4136TIP3   OH234042   3.950   3.622   2.002  0.4777 -0.2908  0.8484
 4136TIP3    H134043   3.899   3.674   2.065 -0.1035  1.3417 -0.8818
 4136TIP3    H234044   3.884   3.571   1.956  0.4799  0.9822 -0.6307
 4137TIP3   OH234045   0.182   1.390   7.409  0.0933  0.1190  0.2946
 4137TIP3    H134046   0.111   1.441   7.448 -0.0331  1.5106 -1.6070
 4137TIP3    H234047   0.205   1.326   7.476 -2.4388  0.0983  1.2529
 4138TIP3   OH234048   1.105   3.797   0.108 -0.3973 -0.1349  0.6458
 4138TIP3    H134049   1.017   3.794   0.070  0.6179  0.6382 -2.0165
 4138TIP3    H234050   1.119   3.710   0.143 -1.5169 -0.9239 -0.7352
 4139TIP3   OH234051   6.014   4.401   0.346 -0.5674 -0.0232 -0.1321
 4139TIP3    H134052   6.044   4.478   0.395  1.0764 -1.1723  0.7521
 4139TIP3    H234053   5.949   4.361   0.403  1.9858 -1.8613  1.6895
 4140TIP3   OH234054   2.012   5.349   1.358  0.1989 -0.4148  0.0266
 4140TIP3    H134055   1.959   5.418   1.316  0.2702  0.0537  0.6867
 4140TIP3    H234056   1.956   5.316   1.429 -0.0535 -1.4336 -0.6209
 4141TIP3   OH234057   5.394   6.793   0.006  0.6517  0.0493 -0.0638
 4141TIP3    H134058   5.350   6.856   0.063 -0.0554  1.4613 -2.0376
 4141TIP3    H234059   5.325   6.734  -0.023  0.4690  0.8152 -1.2882
 4142TIP3   OH234060   4.245   1.166   0.516 -0.4166 -0.3833 -0.0485
 4142TIP3    H134061   4.162   1.195   0.552 -1.3920 -2.4749 -0.4443
 4142TIP3    H234062   4.223   1.131   0.429  0.9245 -0.6449 -0.3160
 4143TIP3   OH234063   1.856   0.717   0.860  0.3948 -0.1391  0.0080
 4143TIP3    H134064   1.925   0.764   0.907  0.2142 -1.2051  1.4269
 4143TIP3    H234065   1.828   0.649   0.922  0.3167 -1.7923 -1.7623
 4144TIP3   OH234066   2.509   6.440   6.298  0.1488  0.0520 -0.1595
 4144TIP3    H134067   2.599   6.471   6.291  0.3075 -0.4281 -0.2958
 4144TIP3    H234068   2.511   6.375   6.369  0.0527 -0.4613 -0.6245
 4145TIP3   OH234069   4.645   1.001   6.695  0.2628  0.2638  0.0322
 4145TIP3    H134070   4.615   1.061   6.763  0.8289  1.0119 -0.3611
 4145TIP3    H234071   4.735   0.979   6.721  0.7689  1.1810 -0.8673
 4146TIP3   OH234072   1.801   2.959   0.718 -0.1200 -0.0053  0.3800
 4146TIP3    H134073   1.745   2.884   0.738 -1.1726  0.5892 -0.2533
 4146TIP3    H234074   1.834   2.988   0.804 -0.4022 -0.6612  0.7117
 4147TIP3   OH234075   6.082   2.137   1.683  0.1164  0.4178 -0.0965
 4147TIP3    H134076   6.027   2.059   1.682 -0.8754  1.1021 -0.3780
 4147TIP3    H234077   6.083   2.167   1.592  0.2197  0.9113  0.0638
 4148TIP3   OH234078   1.171   0.068   6.938  0.2624 -0.2272 -0.3899
 4148TIP3    H134079   1.246   0.013   6.914  0.4100  0.5020 -1.6790
 4148TIP3    H234080   1.096   0.009   6.935  0.5062 -0.5184 -1.1460
 4149TIP3   OH234081   2.166   0.901   0.587  0.2607  1.0435 -0.1370
 4149TIP3    H134082   2.110   0.866   0.518  0.7159  0.4408 -0.2081
 4149TIP3    H234083   2.132   0.989   0.603  0.0907  1.1563 -1.0533
 4150TIP3   OH234084   1.862   1.294   0.373 -0.2244  0.0631 -0.5786
 4150TIP3    H134085   1.915   1.373   0.377  1.9511 -1.1535 -2.5029
 4150TIP3    H234086   1.893   1.240   0.446 -0.8103  0.4500 -0.0345
 4151TIP3   OH234087   0.357   6.275   1.659 -0.3100 -0.3292  0.1737
 4151TIP3    H134088   0.280   6.274   1.603 -0.0330  0.2921 -0.2299
 4151TIP3    H234089   0.429   6.300   1.601 -0.3975  2.9626  1.2539
 4152TIP3   OH234090   6.195   5.019   0.517 -0.5751  0.1199  0.4637
 4152TIP3    H134091   6.264   5.062   0.567 -1.1450  0.0843  1.2955
 4152TIP3    H234092   6.116   5.069   0.536 -1.1216 -0.8811  0.9280
 4153TIP3   OH234093   3.617   2.295   6.858 -0.0835 -0.0646 -0.5732
 4153TIP3    H134094   3.603   2.201   6.853  0.8908 -0.1953 -0.8948
 4153TIP3    H234095   3.560   2.331   6.789 -1.3917 -0.2958  0.3517
 4154TIP3   OH234096   5.046   0.591   6.498  0.0989  0.0478  0.0163
 4154TIP3    H134097   5.078   0.570   6.411  0.8025 -0.6476  0.4332
 4154TIP3    H234098   4.999   0.512   6.526 -1.5247  0.8327 -0.3494
 4155TIP3   OH234099   3.850   3.757   1.019 -0.7155 -0.0887 -0.0856
 4155TIP3    H134100   3.757   3.741   0.999 -0.5967 -0.0902 -0.6587
 4155TIP3    H234101   3.897   3.700   0.958 -0.3375 -0.2606  0.3618
 4156TIP3   OH234102   5.726   3.749   8.349 -0.3083 -0.0046  0.3074
 4156TIP3    H134103   5.818   3.748   8.377 -0.4388  0.0029  0.7446
 4156TIP3    H234104   5.720   3.681   8.282  0.0233  0.0220  0.2473
 4157TIP3   OH234105   5.808   2.382   0.115  0.0621 -0.2350  0.4996
 4157TIP3    H134106   5.883   2.435   0.141  0.8430 -1.5750  1.0753
 4157TIP3    H234107   5.846   2.302   0.078 -1.0250  0.8033 -3.2941
 4158TIP3   OH234108   0.702   4.963   0.086  0.5034  0.7887  0.4050
 4158TIP3    H134109   0.654   4.891   0.045 -0.4770  2.0226 -0.6984
 4158TIP3    H234110   0.794   4.937   0.081  0.2159 -0.0681 -0.5969
 4159TIP3   OH234111   0.709   6.005   1.153  0.4072  0.3975  0.2108
 4159TIP3    H134112   0.695   6.091   1.113  0.4355  0.5316  0.4851
 4159TIP3    H234113   0.804   5.993   1.152  0.3437 -0.1593 -0.9173
 4160TIP3   OH234114   4.580   0.770   8.333  1.0040  0.0510  0.1354
 4160TIP3    H134115   4.659   0.738   8.376  0.1996  1.4606  2.8833
 4160TIP3    H234116   4.542   0.832   8.395 -0.4936  2.0071 -2.5232
 4161TIP3   OH234117   4.882   4.858   8.569  0.1214  0.2378 -0.0861
 4161TIP3    H134118   4.966   4.813   8.577 -0.1943 -0.3969 -0.2956
 4161TIP3    H234119   4.879   4.917   8.645  0.6495  0.0981  0.0457
 4162TIP3   OH234120   4.330   6.732   7.412  0.2416  0.0430 -0.4096
 4162TIP3    H134121   4.266   6.661   7.405 -0.8566  0.5922  2.6531
 4162TIP3    H234122   4.283   6.810   7.384  0.4506  0.0302 -0.7951
 4163TIP3   OH234123   4.438   3.400   1.617 -0.2532  0.0764 -0.2336
 4163TIP3    H134124   4.485   3.367   1.693 -0.4031  2.7827  1.1556
 4163TIP3    H234125   4.507   3.433   1.559 -0.2122 -0.9010 -0.7728
 4164TIP3   OH234126   1.990   1.999   8.175 -0.6397 -0.4581  0.6874
 4164TIP3    H134127   2.062   1.989   8.113 -0.9964  0.0796  0.1852
 4164TIP3    H234128   1.914   2.020   8.121 -0.9392  0.0820  1.3133
 4165TIP3   OH234129   3.158   1.567   0.358 -0.5880 -0.0107  0.0591
 4165TIP3    H134130   3.097   1.556   0.286 -0.3815  0.1261 -0.1377
 4165TIP3    H234131   3.132   1.500   0.422 -0.7414 -0.1621 -0.1606
 4166TIP3   OH234132   1.873   0.730   2.231 -0.0048  0.3275 -0.2044
 4166TIP3    H134133   1.821   0.701   2.306 -0.8847  0.2753 -0.8182
 4166TIP3    H234134   1.964   0.713   2.256 -0.3136 -0.0058  0.7094
 4167TIP3   OH234135   2.253   1.498   0.398  0.3365  0.2295 -0.3507
 4167TIP3    H134136   2.214   1.452   0.324 -0.5552  0.8767 -0.3010
 4167TIP3    H234137   2.179   1.524   0.452  1.0199 -0.9828  1.2427
 4168TIP3   OH234138   0.934   2.939   7.343  0.0992 -0.3762  0.0119
 4168TIP3    H134139   0.936   2.991   7.263 -1.0064  0.2265  0.3554
 4168TIP3    H234140   0.866   2.874   7.328  0.5502 -0.8771  0.1055
 4169TIP3   OH234141   3.102   6.584   0.691 -0.2067  0.1356  0.0367
 4169TIP3    H134142   3.095   6.626   0.777  0.1363 -0.8482  0.5612
 4169TIP3    H234143   3.078   6.652   0.629  1.1169  1.3560  0.8072
 4170TIP3   OH234144   1.592   5.619   8.411  0.2290 -0.0719  0.3723
 4170TIP3    H134145   1.621   5.540   8.456 -1.4081 -0.7912  0.1998
 4170TIP3    H234146   1.549   5.671   8.478  0.7002  0.3766  0.3363
 4171TIP3   OH234147   2.077   4.159   0.817  0.2377 -0.5359 -0.4406
 4171TIP3    H134148   2.083   4.193   0.728 -0.7405  0.4293 -0.1695
 4171TIP3    H234149   2.101   4.234   0.873 -0.5323 -0.7089  0.1384
 4172TIP3   OH234150   4.459   6.309   6.858 -0.4450  0.4495 -0.0866
 4172TIP3    H134151   4.363   6.301   6.863 -0.5875  0.7499 -1.6352
 4172TIP3    H234152   4.480   6.283   6.768  1.0432 -0.4923  0.4979
 4173TIP3   OH234153   5.102   0.183   1.529 -0.0618  0.3107 -0.9078
 4173TIP3    H134154   5.132   0.135   1.452 -0.0432 -1.5620  0.2136
 4173TIP3    H234155   5.009   0.164   1.535 -0.0183  0.2365 -0.3416
 4174TIP3   OH234156   2.912   5.997   6.608 -0.0021 -0.0536  0.3850
 4174TIP3    H134157   2.821   6.002   6.578  0.4047 -2.1310 -1.4502
 4174TIP3    H234158   2.964   6.015   6.530  1.2463  2.0795  1.6239
 4175TIP3   OH234159   6.726   5.713   7.358  0.0655  0.7824  0.3555
 4175TIP3    H134160   6.753   5.637   7.307  0.8674  0.4662  1.2142
 4175TIP3    H234161   6.800   5.774   7.352 -0.6272  1.5681 -0.4398
 4176TIP3   OH234162   2.573   1.694   1.053 -0.3415 -0.1092 -0.0043
 4176TIP3    H134163   2.558   1.607   1.015 -0.1119 -1.1699  2.1891
 4176TIP3    H234164   2.667   1.707   1.044 -0.4183  0.0546 -0.6058
 4177TIP3   OH234165   3.729   3.854   8.411 -0.1434 -0.7308  0.2405
 4177TIP3    H134166   3.768   3.767   8.416  1.1686 -0.2058 -0.3360
 4177TIP3    H234167   3.674   3.852   8.332  2.4306 -0.1190 -1.7031
 4178TIP3   OH234168   4.071   6.124   1.958  0.2614 -0.3757 -0.1025
 4178TIP3    H134169   4.066   6.029   1.970 -1.0822 -0.2841  0.2485
 4178TIP3    H234170   4.091   6.158   2.046 -0.1678 -0.2842 -0.0383
 4179TIP3   OH234171   6.529   4.464   6.845  0.4519 -0.3607  0.3014
 4179TIP3    H134172   6.524   4.555   6.873 -1.1429 -1.0126  2.4578
 4179TIP3    H234173   6.517   4.467   6.750  1.4487  1.7114  0.2022
 4180TIP3   OH234174   2.602   4.365   1.765 -0.1116  0.2054 -0.4305
 4180TIP3    H134175   2.508   4.381   1.767  0.3196  3.4413  0.2618
 4180TIP3    H234176   2.617   4.317   1.684 -2.3046 -0.1754 -0.6753
 4181TIP3   OH234177   6.404   2.673   8.271 -0.4783  0.4065 -0.2189
 4181TIP3    H134178   6.401   2.613   8.346  0.9628  0.4526 -0.0906
 4181TIP3    H234179   6.463   2.631   8.209  0.4718  1.6197 -0.1740
 4182TIP3   OH234180   1.507   6.193   8.218  0.0670 -0.5115  0.3420
 4182TIP3    H134181   1.591   6.196   8.171 -0.0843  0.6164  0.1073
 4182TIP3    H234182   1.442   6.212   8.150 -0.4272 -1.8406  0.4325
 4183TIP3   OH234183   2.098   2.872   1.836  0.0593 -0.4483 -0.3085
 4183TIP3    H134184   2.071   2.788   1.799 -2.3377 -0.0949  0.4526
 4183TIP3    H234185   2.069   2.868   1.928  0.1081  1.1098 -0.1924
 4184TIP3   OH234186   4.757   1.685   7.776 -0.4204  0.0972  0.1053
 4184TIP3    H134187   4.799   1.723   7.699 -0.4484 -0.6306 -0.2715
 4184TIP3    H234188   4.808   1.607   7.795 -1.6097 -0.8229 -0.3768
 4185TIP3   OH234189   3.867   5.647   7.959 -0.4175  0.2061  0.5571
 4185TIP3    H134190   3.784   5.600   7.946 -1.4643  1.0526  3.4688
 4185TIP3    H234191   3.933   5.578   7.961 -1.2777 -0.6639  0.0307
 4186TIP3   OH234192   3.927   4.574   0.896 -0.2733 -0.2817 -0.2646
 4186TIP3    H134193   3.858   4.581   0.962 -1.9983 -0.3767 -1.9760
 4186TIP3    H234194   3.940   4.479   0.886  0.2465 -0.2621  0.1659
 4187TIP3   OH234195   5.161   0.522   0.962  0.2136  0.1154 -0.3990
 4187TIP3    H134196   5.075   0.480   0.954  0.7406 -1.0742 -0.0007
 4187TIP3    H234197   5.161   0.588   0.893 -0.5219 -0.7599 -1.2732
 4188TIP3   OH234198   4.041   3.096   8.043 -0.2184 -0.3229 -0.4626
 4188TIP3    H134199   4.067   3.012   8.081 -0.9873 -0.0146  0.7862
 4188TIP3    H234200   4.087   3.100   7.959 -0.0944 -1.9426 -0.4930
 4189TIP3   OH234201   0.822   6.441   8.006 -0.4426  0.0033 -0.5317
 4189TIP3    H134202   0.770   6.362   8.002  1.1211 -1.1842  0.8799
 4189TIP3    H234203   0.885   6.425   8.077  1.5976  1.4472 -1.8747
 4190TIP3   OH234204   0.506   3.093   2.033 -0.2991  0.1484  0.5494
 4190TIP3    H134205   0.571   3.161   2.023 -0.8280  0.4876 -0.7472
 4190TIP3    H234206   0.433   3.136   2.077 -0.3941  0.2728  0.2748
 4191TIP3   OH234207   5.130   0.127   2.028  0.3047  0.3065  0.4907
 4191TIP3    H134208   5.046   0.117   2.072  0.1576  0.1944  0.1835
 4191TIP3    H234209   5.121   0.079   1.946  0.1548  1.5120 -0.2240
 4192TIP3   OH234210   5.293   3.868   6.658  0.3325  0.1551  0.1371
 4192TIP3    H134211   5.332   3.831   6.737  1.2058  1.7155  0.4705
 4192TIP3    H234212   5.225   3.926   6.690 -0.2498 -0.2547 -0.3323
 4193TIP3   OH234213   1.459   5.567   7.904  0.1099  0.4436  0.1221
 4193TIP3    H134214   1.482   5.547   7.994  0.9234 -2.1910 -0.5841
 4193TIP3    H234215   1.516   5.640   7.880  0.4973  0.6010  1.4609
 4194TIP3   OH234216   4.020   5.826   7.541  0.4177 -0.0077 -0.2348
 4194TIP3    H134217   4.005   5.736   7.514  0.8849  0.0664 -0.7685
 4194TIP3    H234218   4.102   5.823   7.591 -1.0946 -0.3654  2.4083
 4195TIP3   OH234219   2.703   3.718   0.227 -0.2060 -0.5078 -0.8654
 4195TIP3    H134220   2.696   3.626   0.250  1.0089 -0.6294 -0.8980
 4195TIP3    H234221   2.785   3.724   0.178  0.7676  0.9070  0.8325
 4196TIP3   OH234222   0.802   0.123   1.020  0.0339 -0.1565  0.3446
 4196TIP3    H134223   0.790   0.028   1.018 -2.1172  0.0591  0.6767
 4196TIP3    H234224   0.748   0.152   1.094  0.9036  1.3011  0.4331
 4197TIP3   OH234225   0.527   4.055   7.581 -0.0370 -0.6791 -0.1633
 4197TIP3    H134226   0.439   4.041   7.547 -0.0287 -1.2182  0.0270
 4197TIP3    H234227   0.582   4.066   7.503 -0.2329 -0.5794 -0.2870
 4198TIP3   OH234228   1.481   1.707   0.169  0.4525  0.1601 -0.4051
 4198TIP3    H134229   1.386   1.707   0.152  0.4354  1.9416 -0.4602
 4198TIP3    H234230   1.513   1.631   0.120 -0.9652 -0.6421 -0.1732
 4199TIP3   OH234231   3.771   0.978   0.357  0.0856 -0.0126 -0.7709
 4199TIP3    H134232   3.740   1.016   0.275 -1.7584  1.4778  0.5454
 4199TIP3    H234233   3.728   0.893   0.362  0.5617 -0.3057 -1.5481
 4200TIP3   OH234234   6.042   3.589   7.700 -0.1142  0.0920 -0.2029
 4200TIP3    H134235   5.971   3.614   7.759  0.9200 -0.6736  1.4332
 4200TIP3    H234236   6.112   3.558   7.758  1.2488  0.0332 -1.8005
 4201TIP3   OH234237   2.751   2.567   7.868 -0.1487  0.0942  0.2652
 4201TIP3    H134238   2.816   2.602   7.930 -0.8606  0.2732  0.9316
 4201TIP3    H234239   2.802   2.512   7.808  0.4342 -1.0548  1.7298
 4202TIP3   OH234240   5.430   4.616   0.909  0.1896  0.4794 -0.5959
 4202TIP3    H134241   5.439   4.704   0.874 -1.4695  0.6991 -0.5684
 4202TIP3    H234242   5.466   4.621   0.998  0.2103  1.0976 -0.6404
 4203TIP3   OH234243   4.975   6.775   1.135  0.3105  0.2130  0.4965
 4203TIP3    H134244   5.059   6.809   1.165  0.2300 -1.2550  2.6300
 4203TIP3    H234245   4.960   6.818   1.052  1.4182  3.2954  1.7609
 4204TIP3   OH234246   5.655   5.351   1.044  0.3662  0.1118 -0.3660
 4204TIP3    H134247   5.644   5.261   1.011 -1.3008  0.1652 -0.0357
 4204TIP3    H234248   5.735   5.382   1.001  0.1129 -0.9887 -1.7148
 4205TIP3   OH234249   1.504   2.825   7.914  0.0275 -0.2201  0.1320
 4205TIP3    H134250   1.417   2.787   7.920 -0.8242  1.7268  0.7099
 4205TIP3    H234251   1.493   2.900   7.856  0.8349  1.3152  1.8933
 4206TIP3   OH234252   4.400   0.112   1.641  0.2471 -0.8994 -0.1981
 4206TIP3    H134253   4.469   0.053   1.670 -1.1026 -2.5998 -0.2769
 4206TIP3    H234254   4.352   0.134   1.720  1.7821  1.6515  0.1446
 4207TIP3   OH234255   3.787   6.617   1.248  0.3307 -0.2329  0.9325
 4207TIP3    H134256   3.706   6.604   1.199 -0.2624 -0.3475  1.9182
 4207TIP3    H234257   3.823   6.699   1.214  0.0131 -0.3860  0.2142
 4208TIP3   OH234258   0.165   6.925   1.584 -0.0632 -0.3520  0.4957
 4208TIP3    H134259   0.164   7.006   1.533  0.3725 -1.1890 -0.9018
 4208TIP3    H234260   0.083   6.926   1.633  0.0152  0.9995  0.6362
 4209TIP3   OH234261   5.381   2.864   7.316  0.1828 -0.2026  0.4324
 4209TIP3    H134262   5.382   2.952   7.354  0.9308 -0.1374  0.2741
 4209TIP3    H234263   5.466   2.855   7.273 -0.1881 -0.7166 -0.2204
 4210TIP3   OH234264   3.441   5.850   7.654  0.1941 -0.5615 -0.5001
 4210TIP3    H134265   3.535   5.845   7.638  0.1915  1.3972 -1.4075
 4210TIP3    H234266   3.405   5.777   7.605  1.1738 -0.8329 -0.8444
 4211TIP3   OH234267   3.014   5.054   1.344  0.5766 -0.1957 -0.3841
 4211TIP3    H134268   3.009   4.959   1.334  2.7169 -0.4210  0.2328
 4211TIP3    H234269   2.967   5.072   1.425  2.2613 -1.0740  0.8461
 4212TIP3   OH234270   3.779   3.807   1.497  0.7723 -0.0959  0.2346
 4212TIP3    H134271   3.747   3.841   1.414  1.5688  0.6027  0.2030
 4212TIP3    H234272   3.725   3.851   1.563  1.7425  1.2061  0.1914
 4213TIP3   OH234273   4.732   1.874   1.284  0.1823  0.2839 -0.4100
 4213TIP3    H134274   4.710   1.885   1.377  0.8351  0.3400 -0.2609
 4213TIP3    H234275   4.799   1.940   1.267 -1.2397  1.5426 -1.3944
 4214TIP3   OH234276   4.457   0.780   6.760  0.2605  0.3538  0.3824
 4214TIP3    H134277   4.453   0.799   6.853 -1.7478  2.4712 -0.0562
 4214TIP3    H234278   4.539   0.822   6.731  0.4700  0.4101  1.0395
 4215TIP3   OH234279   0.075   6.596   8.583 -0.0602 -0.0215  0.2167
 4215TIP3    H134280   0.057   6.612   8.675  0.3352  0.1429  0.2637
 4215TIP3    H234281   0.052   6.504   8.570  0.2492 -0.1477  0.5657
 4216TIP3   OH234282   2.215   6.508   2.587 -0.1804 -0.6180  0.0934
 4216TIP3    H134283   2.296   6.475   2.548 -0.2702 -0.2202 -0.4357
 4216TIP3    H234284   2.150   6.440   2.569 -0.1352 -0.6035 -0.1240
 4217TIP3   OH234285   3.871   5.247   7.955 -0.4015 -0.0213  0.4715
 4217TIP3    H134286   3.904   5.182   8.018 -0.0978 -0.3431 -0.0132
 4217TIP3    H234287   3.782   5.219   7.936  0.2140 -1.2176 -0.9042
 4218TIP3   OH234288   0.461   0.131   1.462 -0.0305 -0.2279 -0.1431
 4218TIP3    H134289   0.395   0.195   1.487  0.3386  0.0022  0.2645
 4218TIP3    H234290   0.519   0.126   1.538  1.1000  0.4501 -0.9385
 4219TIP3   OH234291   3.470   5.727   0.325 -0.0159  0.4839 -1.1703
 4219TIP3    H134292   3.478   5.637   0.291  0.1154  0.4077 -0.9416
 4219TIP3    H234293   3.548   5.738   0.380 -0.7518  0.2471 -0.0588
 4220TIP3   OH234294   3.787   1.539   7.488  0.1056 -0.0107  0.1607
 4220TIP3    H134295   3.751   1.551   7.400  1.2394  0.0570 -0.3095
 4220TIP3    H234296   3.872   1.584   7.485 -0.6481  1.6388  1.8663
 4221TIP3   OH234297   6.877   5.103   8.461 -0.2681  0.2398 -0.2374
 4221TIP3    H134298   6.852   5.157   8.387 -0.7091 -2.7341 -2.4494
 4221TIP3    H234299   6.973   5.106   8.463 -0.2938  1.1375 -0.2611
 4222TIP3   OH234300   6.817   3.850   1.083  0.7040  0.8599 -0.5605
 4222TIP3    H134301   6.866   3.912   1.029 -0.0423  1.2113 -0.8401
 4222TIP3    H234302   6.812   3.771   1.030  1.7382  0.5040 -0.1658
 4223TIP3   OH234303   2.914   4.697   7.898  0.2740 -0.0496 -0.0667
 4223TIP3    H134304   2.820   4.677   7.895  0.2342 -0.0889  0.9387
 4223TIP3    H234305   2.947   4.670   7.813 -0.5727 -0.3327 -0.3213
 4224TIP3   OH234306   1.381   4.805   6.758  0.4941 -0.1256 -0.1832
 4224TIP3    H134307   1.291   4.839   6.749  0.8077  0.5531 -0.8879
 4224TIP3    H234308   1.393   4.750   6.682  0.6487 -0.2995 -0.0335
 4225TIP3   OH234309   5.037   2.988   7.648  0.5629  0.0233  0.2889
 4225TIP3    H134310   5.086   3.070   7.640  0.5558  0.2155  1.9221
 4225TIP3    H234311   4.998   2.975   7.561  0.3842  1.8583  0.0558
 4226TIP3   OH234312   3.272   3.791   7.415 -0.8507  0.9748 -0.1266
 4226TIP3    H134313   3.310   3.811   7.329 -0.5522 -0.5321 -0.3649
 4226TIP3    H234314   3.347   3.784   7.473 -0.8724 -0.2545 -0.2296
 4227TIP3   OH234315   5.527   0.667   1.303  0.6429 -0.7953 -0.0726
 4227TIP3    H134316   5.503   0.576   1.285  1.4626 -1.0590  0.1483
 4227TIP3    H234317   5.610   0.680   1.258 -1.9790  1.5427 -5.0358
 4228TIP3   OH234318   5.300   5.447   1.982 -0.0109  0.1648  0.7027
 4228TIP3    H134319   5.261   5.378   2.034  1.7706 -1.7916 -0.4094
 4228TIP3    H234320   5.284   5.422   1.891  2.8045 -0.2525  0.2116
 4229TIP3   OH234321   0.350   5.916   7.735 -0.5564  0.2224  0.1782
 4229TIP3    H134322   0.428   5.872   7.701 -0.3035  0.5198  0.3583
 4229TIP3    H234323   0.277   5.863   7.705 -0.2058 -1.0886  1.5017
 4230TIP3   OH234324   5.632   3.638   8.111 -0.3843  0.2217  0.2950
 4230TIP3    H134325   5.707   3.681   8.071 -0.0913 -0.3610  0.2166
 4230TIP3    H234326   5.557   3.693   8.086 -0.1805 -0.0168 -0.8783
 4231TIP3   OH234327   1.893   3.328   1.630 -0.6406  0.0729  0.2495
 4231TIP3    H134328   1.802   3.346   1.606 -0.9870 -0.1823  1.3376
 4231TIP3    H234329   1.920   3.259   1.569 -1.2655 -0.0542  0.1003
 4232TIP3   OH234330   2.823   1.810   2.131  0.6742 -0.6802 -0.3323
 4232TIP3    H134331   2.900   1.763   2.161  0.6179 -1.2388 -1.0394
 4232TIP3    H234332   2.852   1.901   2.121  1.4028 -0.9952 -1.1462
 4233TIP3   OH234333   0.709   6.823   7.064 -0.4325  0.0935 -0.2125
 4233TIP3    H134334   0.665   6.890   7.013 -0.4149  0.9705  0.8902
 4233TIP3    H234335   0.665   6.824   7.148  0.5706 -0.2008  0.3385
 4234TIP3   OH234336   4.641   4.921   2.617 -0.4663  1.1134 -0.0674
 4234TIP3    H134337   4.687   4.838   2.613 -1.5730  0.4060  1.0115
 4234TIP3    H234338   4.664   4.966   2.536  0.8905  0.1673 -0.2363
 4235TIP3   OH234339   0.851   2.949   6.158 -0.0530 -0.1445  0.0980
 4235TIP3    H134340   0.844   3.036   6.197 -1.1248 -0.0607 -0.2367
 4235TIP3    H234341   0.781   2.899   6.200  0.8349 -0.9832  0.6096
 4236TIP3   OH234342   4.718   6.186   1.393  0.4023  0.0660  0.2513
 4236TIP3    H134343   4.648   6.135   1.432 -1.6475  1.6914 -1.1018
 4236TIP3    H234344   4.774   6.121   1.350 -1.4865 -1.1381 -0.4998
 4237TIP3   OH234345   1.977   3.161   7.616 -1.0690  0.1751 -0.1727
 4237TIP3    H134346   1.924   3.180   7.539 -0.5650 -0.1303 -0.6001
 4237TIP3    H234347   1.913   3.145   7.686 -1.5522  3.5815  0.3139
 4238TIP3   OH234348   0.154   3.867   2.782  0.0146  1.0367 -0.2594
 4238TIP3    H134349   0.215   3.794   2.783 -2.2312 -0.9764 -0.8803
 4238TIP3    H234350   0.147   3.891   2.689  0.9786  2.3140 -0.0294
 4239TIP3   OH234351   0.870   1.217   8.567 -0.1089  0.0083 -0.4971
 4239TIP3    H134352   0.836   1.128   8.555  0.9367 -0.2486 -1.7393
 4239TIP3    H234353   0.822   1.270   8.504 -0.0588  0.1498 -0.4167
 4240TIP3   OH234354   6.688   2.684   0.302 -0.2102 -0.3400  0.1164
 4240TIP3    H134355   6.686   2.683   0.398 -1.3343 -1.7612  0.1104
 4240TIP3    H234356   6.699   2.776   0.279  1.2623 -0.0991  1.6075
 4241TIP3   OH234357   2.822   3.218   0.733 -0.1467  0.0329  0.4558
 4241TIP3    H134358   2.838   3.238   0.825  1.3989 -0.8793  0.4266
 4241TIP3    H234359   2.753   3.151   0.734 -1.9039  1.7631  0.7768
 4242TIP3   OH234360   5.983   5.956   1.901 -0.4696 -0.0028 -0.1489
 4242TIP3    H134361   6.041   5.976   1.974 -1.6682 -0.1614  0.8918
 4242TIP3    H234362   6.036   5.904   1.841  0.0840 -1.3187  1.4255
 4243TIP3   OH234363   5.973   1.887   0.668 -0.0966 -0.3703  0.8680
 4243TIP3    H134364   5.897   1.918   0.618  0.9031 -0.8933 -1.0583
 4243TIP3    H234365   5.980   1.949   0.741 -1.7637  0.2807  0.5255
 4244TIP3   OH234366   6.298   5.092   7.011 -0.0996 -0.6368 -0.0437
 4244TIP3    H134367   6.244   5.014   7.024 -0.7615 -0.2372 -0.3264
 4244TIP3    H234368   6.336   5.081   6.924 -1.8468  0.3040 -0.9739
 4245TIP3   OH234369   5.718   2.036   1.509  0.6057 -0.3275  0.2652
 4245TIP3    H134370   5.765   2.095   1.566  2.9215  1.0916 -2.8071
 4245TIP3    H234371   5.786   1.982   1.468 -0.7722 -0.7120 -1.7023
 4246TIP3   OH234372   5.856   4.486   1.376  1.1356  0.4236  0.2512
 4246TIP3    H134373   5.877   4.565   1.325  1.8809  0.6090  0.8373
 4246TIP3    H234374   5.767   4.501   1.406  1.3480  1.1562  0.5493
 4247TIP3   OH234375   3.090   6.712   0.957  0.0400 -0.3428 -0.1421
 4247TIP3    H134376   2.998   6.686   0.948 -0.1942  1.0416 -3.1304
 4247TIP3    H234377   3.087   6.807   0.958  1.4975 -0.1700 -3.0737
 4248TIP3   OH234378   0.465   0.087   2.230 -0.2633  0.2066 -0.4600
 4248TIP3    H134379   0.377   0.056   2.254 -0.3408  0.3547 -0.5550
 4248TIP3    H234380   0.522   0.013   2.251 -0.1767  0.7046  1.2542
 4249TIP3   OH234381   6.867   0.229   2.342  0.2794  0.4225  0.0924
 4249TIP3    H134382   6.895   0.138   2.348  0.5034  0.5019  0.2524
 4249TIP3    H234383   6.850   0.243   2.249 -1.9337 -0.4326  0.3211
 4250TIP3   OH234384   5.744   3.872   0.562  0.0604  0.0412  0.5252
 4250TIP3    H134385   5.715   3.781   0.554  1.7087 -0.3563 -1.7390
 4250TIP3    H234386   5.838   3.866   0.578 -0.1986  1.3750  3.1095
 4251TIP3   OH234387   4.593   5.211   2.765  0.9257  0.3991  0.2495
 4251TIP3    H134388   4.541   5.291   2.775 -2.5935 -1.8646  2.5962
 4251TIP3    H234389   4.537   5.153   2.713  2.7024 -1.0676 -0.1167
 4252TIP3   OH234390   3.800   2.405   8.551 -0.3101 -0.0236  0.2791
 4252TIP3    H134391   3.734   2.384   8.617 -1.4636  2.4604  0.0210
 4252TIP3    H234392   3.762   2.375   8.468 -1.3486  1.6701  0.0881
 4253TIP3   OH234393   5.512   5.484   1.664  0.2674  0.3079  0.3516
 4253TIP3    H134394   5.543   5.397   1.689  0.0515 -0.5077 -2.0455
 4253TIP3    H234395   5.417   5.476   1.661  0.2900  0.3147 -0.8389
 4254TIP3   OH234396   3.110   5.782   7.185 -0.1819  0.0854  0.1687
 4254TIP3    H134397   3.055   5.713   7.223 -0.1283  0.6934  1.4163
 4254TIP3    H234398   3.107   5.766   7.091 -1.1163 -0.9170  0.3443
 4255TIP3   OH234399   2.425   1.137   8.247  0.1722  0.0823 -0.5013
 4255TIP3    H134400   2.490   1.069   8.269  0.5867  1.0905  1.5320
 4255TIP3    H234401   2.357   1.128   8.313 -1.2197 -0.1387 -1.8890
 4256TIP3   OH234402   1.698   3.832   8.076  0.4815  0.2393 -1.0734
 4256TIP3    H134403   1.720   3.755   8.129  3.1482  1.2065 -0.6193
 4256TIP3    H234404   1.657   3.796   7.997 -0.3901 -1.4578  0.0867
 4257TIP3   OH234405   2.439   0.551   0.749 -0.4162 -0.3773  0.3110
 4257TIP3    H134406   2.489   0.581   0.674  0.9889 -1.7583  0.6523
 4257TIP3    H234407   2.483   0.589   0.825 -1.6257  0.7297  0.5091
 4258TIP3   OH234408   2.404   2.557   1.577  0.0808 -0.9929  0.2222
 4258TIP3    H134409   2.354   2.523   1.504 -0.3323 -2.6968  1.2406
 4258TIP3    H234410   2.350   2.539   1.654  0.9599 -0.2052  1.0585
 4259TIP3   OH234411   0.005   3.572   0.415 -0.7078  0.0659  0.1591
 4259TIP3    H134412   0.079   3.549   0.472 -1.5442 -0.3760  1.0837
 4259TIP3    H234413  -0.007   3.494   0.360 -1.3668 -0.4162  0.9674
 4260TIP3   OH234414   4.274   2.424   0.947 -0.2714 -0.2651 -0.8089
 4260TIP3    H134415   4.328   2.445   0.871  0.8330  1.3851  0.3467
 4260TIP3    H234416   4.274   2.505   0.999 -0.8140 -1.4019  1.0463
 4261TIP3   OH234417   2.938   6.794   6.511  0.9000 -0.6770  0.1958
 4261TIP3    H134418   2.976   6.759   6.430  2.6364 -0.6806  0.9855
 4261TIP3    H234419   2.999   6.769   6.579 -0.2139 -0.0998  1.4456
 4262TIP3   OH234420   3.788   6.506   7.760  0.3555  0.3529 -0.0752
 4262TIP3    H134421   3.836   6.466   7.833  0.2659 -2.5095 -1.4400
 4262TIP3    H234422   3.696   6.495   7.782  0.3301 -0.3777 -0.4948
 4263TIP3   OH234423   2.616   5.938   0.625  0.3140 -0.0025 -0.2472
 4263TIP3    H134424   2.615   5.993   0.547 -0.5474 -0.2242 -0.3975
 4263TIP3    H234425   2.628   5.999   0.697 -0.2584  0.3399 -0.4411
 4264TIP3   OH234426   6.494   3.316   8.621 -0.5836 -0.6276  0.0239
 4264TIP3    H134427   6.411   3.352   8.592  0.5552  1.6397 -0.7180
 4264TIP3    H234428   6.495   3.329   8.716 -0.2120  1.4570 -0.2233
 4265TIP3   OH234429   1.058   3.599   7.723  0.4689 -0.3430 -0.2180
 4265TIP3    H134430   1.149   3.627   7.718  0.2206  0.9523  1.5681
 4265TIP3    H234431   1.037   3.601   7.816 -2.0093  1.5709 -0.7058
 4266TIP3   OH234432   5.492   1.442   8.007 -0.3202  0.2956 -0.6821
 4266TIP3    H134433   5.426   1.375   7.988  0.4087 -0.1762 -1.6413
 4266TIP3    H234434   5.447   1.504   8.064 -1.0479 -0.9791  0.2126
 4267TIP3   OH234435   4.476   0.199   8.370  0.0734 -0.5111  0.3973
 4267TIP3    H134436   4.427   0.135   8.422  0.5682 -1.3292 -0.1066
 4267TIP3    H234437   4.409   0.250   8.325 -0.3618  0.2664  1.8832
 4268TIP3   OH234438   2.988   1.018   7.295  0.3829  0.0204  0.1225
 4268TIP3    H134439   3.005   0.924   7.289  1.7921  0.2723 -0.2668
 4268TIP3    H234440   3.075   1.058   7.289 -0.3058  1.4200 -1.2614
 4269TIP3   OH234441   5.995   6.353   2.449 -0.5578  0.2855 -0.8994
 4269TIP3    H134442   5.938   6.428   2.465  0.9369  0.9209  2.1464
 4269TIP3    H234443   6.064   6.361   2.514  1.5451 -1.9228 -2.6873
 4270TIP3   OH234444   5.824   5.658   1.583 -0.2755  0.2769 -0.2922
 4270TIP3    H134445   5.910   5.686   1.550  0.6470 -1.5411  0.3689
 4270TIP3    H234446   5.778   5.624   1.506 -0.5094  1.4806 -0.6921
 4271TIP3   OH234447   3.139   4.454   7.814 -0.0190 -0.3430 -0.4605
 4271TIP3    H134448   3.156   4.547   7.801 -0.8791 -0.4374 -2.8031
 4271TIP3    H234449   3.222   4.418   7.846  0.5556  1.0838 -0.3156
 4272TIP3   OH234450   1.088   0.109   8.602  0.2935  0.1589  0.1825
 4272TIP3    H134451   1.108   0.062   8.522  0.8695  1.4960 -0.4922
 4272TIP3    H234452   1.017   0.060   8.642  1.6010 -1.9162  0.1121
 4273TIP3   OH234453   2.014   6.670   7.539  0.4600  0.1048 -0.4616
 4273TIP3    H134454   2.088   6.610   7.526  2.0914  1.5076  1.5733
 4273TIP3    H234455   1.951   6.619   7.591 -0.8992 -1.6576 -3.5903
 4274TIP3   OH234456   2.177   6.146   8.051  0.5038  0.3820  0.9890
 4274TIP3    H134457   2.159   6.174   7.961 -2.5035 -2.1588  0.6369
 4274TIP3    H234458   2.112   6.192   8.104 -0.6513 -1.3219  1.1605
 4275TIP3   OH234459   2.842   4.466   1.373  0.3161  0.0877 -0.1988
 4275TIP3    H134460   2.935   4.466   1.397  0.5577  1.4809 -1.0622
 4275TIP3    H234461   2.798   4.513   1.444  0.0571 -1.6223  0.8350
 4276TIP3   OH234462   1.123   1.263   6.380  0.1618  0.5151  0.0183
 4276TIP3    H134463   1.040   1.298   6.414 -1.4674  0.4709 -3.4744
 4276TIP3    H234464   1.156   1.331   6.321  1.4555 -0.3689 -0.3331
 4277TIP3   OH234465   4.320   2.226   7.553  0.1331  0.4519 -0.2262
 4277TIP3    H134466   4.370   2.304   7.576  2.0188 -1.0672  1.2521
 4277TIP3    H234467   4.261   2.211   7.627  0.7157 -0.2070  0.1219
 4278TIP3   OH234468   6.196   3.718   0.766  0.4480  0.1675 -0.3123
 4278TIP3    H134469   6.225   3.643   0.818 -0.6955 -0.4756 -0.5727
 4278TIP3    H234470   6.277   3.763   0.741  1.3059 -2.0860 -1.8101
 4279TIP3   OH234471   4.728   1.452   0.608 -0.4327  0.1325  0.4482
 4279TIP3    H134472   4.823   1.455   0.612 -0.4415  1.1673  0.1768
 4279TIP3    H234473   4.707   1.360   0.593  0.5935  0.1331 -1.2647
 4280TIP3   OH234474   3.324   3.898   8.295 -0.2662 -0.0160  0.4346
 4280TIP3    H134475   3.277   3.910   8.212  1.4192 -0.8313 -0.7139
 4280TIP3    H234476   3.348   3.986   8.322 -0.1725  0.2203 -0.3748
 4281TIP3   OH234477   4.779   4.672   2.650  0.3681 -0.0310 -0.0057
 4281TIP3    H134478   4.828   4.731   2.594  1.8821  0.3552  1.6358
 4281TIP3    H234479   4.789   4.586   2.610  0.9786  0.3071 -0.5909
 4282TIP3   OH234480   2.685   0.649   8.112  0.1659 -0.0226  0.1449
 4282TIP3    H134481   2.768   0.652   8.161 -0.1637  1.2935  0.6767
 4282TIP3    H234482   2.684   0.731   8.062  0.6769 -1.5001 -2.4675
 4283TIP3   OH234483   5.547   3.650   1.284  0.0806  0.5369  0.2051
 4283TIP3    H134484   5.624   3.593   1.286  0.6003  1.2427  0.4699
 4283TIP3    H234485   5.523   3.662   1.376 -0.9173 -0.4134  0.1016
 4284TIP3   OH234486   6.726   2.245   8.606  0.0299  0.1052  0.4189
 4284TIP3    H134487   6.808   2.195   8.608 -0.6848 -1.1830 -0.4899
 4284TIP3    H234488   6.681   2.220   8.687 -1.2746 -2.5401 -0.9894
 4285TIP3   OH234489   5.854   3.889   1.548  0.2001  0.3035 -0.0382
 4285TIP3    H134490   5.915   3.912   1.618  0.3494 -0.3672  0.0604
 4285TIP3    H234491   5.803   3.968   1.534  0.2056  0.4697  0.7939
 4286TIP3   OH234492   1.311   6.332   6.085 -0.8781  0.2348  0.6998
 4286TIP3    H134493   1.298   6.426   6.074 -0.7684  0.1746 -0.0094
 4286TIP3    H234494   1.272   6.311   6.169  0.1332  1.1270  1.4203
 4287TIP3   OH234495   5.251   4.867   7.378  0.1499  0.3470 -0.5697
 4287TIP3    H134496   5.307   4.811   7.432  1.7249  3.2979  1.0957
 4287TIP3    H234497   5.290   4.863   7.291  1.5338  0.4748  0.0190
 4288TIP3   OH234498   3.726   2.746   7.632 -0.1406  0.0532 -0.1296
 4288TIP3    H134499   3.782   2.823   7.626  0.0026 -0.1006 -0.8928
 4288TIP3    H234500   3.679   2.757   7.715 -0.6083  1.2837 -0.5372
 4289TIP3   OH234501   4.883   2.857   7.311  0.4052 -0.3854  0.0079
 4289TIP3    H134502   4.843   2.781   7.352 -1.1445 -0.2334 -1.1431
 4289TIP3    H234503   4.974   2.830   7.296  0.1326 -1.6474  0.4804
 4290TIP3   OH234504   3.596   5.506   7.923 -0.4373  0.7723 -0.4114
 4290TIP3    H134505   3.505   5.510   7.896  0.1163  1.1998 -2.3143
 4290TIP3    H234506   3.623   5.415   7.906 -0.4864  0.6357  0.1820
 4291TIP3   OH234507   0.808   6.225   0.246 -0.3548 -0.3121  0.4764
 4291TIP3    H134508   0.743   6.155   0.247 -1.4674  0.5791 -1.8479
 4291TIP3    H234509   0.763   6.300   0.284 -0.6442  0.2422 -0.9124
 4292TIP3   OH234510   0.063   5.312   7.134  0.7304  0.5524 -0.1301
 4292TIP3    H134511   0.137   5.323   7.073  1.0154  0.5915  0.2218
 4292TIP3    H234512   0.009   5.244   7.094 -0.3741  2.2466 -1.6946
 4293TIP3   OH234513   4.858   6.568   7.302 -1.0346 -0.0854  0.2250
 4293TIP3    H134514   4.908   6.514   7.363 -1.8388  0.2546  1.1904
 4293TIP3    H234515   4.876   6.658   7.329 -0.9916  0.0881 -0.3653
 4294TIP3   OH234516   1.468   1.387   6.784 -0.2686  0.4409 -0.5711
 4294TIP3    H134517   1.411   1.321   6.745 -0.0628  0.8828 -1.6388
 4294TIP3    H234518   1.536   1.402   6.719 -0.3595  1.7554 -0.3857
 4295TIP3   OH234519   2.097   4.037   7.417 -0.5309  0.2918  0.2462
 4295TIP3    H134520   2.086   4.132   7.416  1.2877  0.5729 -2.1845
 4295TIP3    H234521   2.008   4.002   7.408 -1.0297  1.8642 -1.5717
 4296TIP3   OH234522   5.220   3.647   1.921  0.3259  0.2163 -0.0636
 4296TIP3    H134523   5.208   3.591   1.998 -1.8066  1.3487  0.5086
 4296TIP3    H234524   5.220   3.736   1.956 -0.0727  0.7219 -1.2958
 4297TIP3   OH234525   1.940   4.364   6.661 -0.2092 -0.3680 -0.6879
 4297TIP3    H134526   1.872   4.415   6.617 -0.9870 -0.2424  0.6034
 4297TIP3    H234527   2.007   4.429   6.684 -0.8064 -0.0526  0.2073
 4298TIP3   OH234528   6.042   3.376   8.447 -0.1747 -0.0796  0.4762
 4298TIP3    H134529   6.081   3.293   8.419 -0.7102 -0.1027 -0.2340
 4298TIP3    H234530   6.003   3.357   8.532 -0.1735 -0.5228  0.3818
 4299TIP3   OH234531   5.096   1.826   1.177  0.2619 -0.1711 -0.0973
 4299TIP3    H134532   5.112   1.762   1.247 -2.5388 -1.3976 -0.4590
 4299TIP3    H234533   5.062   1.903   1.223  2.7187  0.8283  0.2347
 4300TIP3   OH234534   1.958   4.214   0.214  0.2491  0.0569  0.5055
 4300TIP3    H134535   2.045   4.244   0.241  1.1624 -1.1834 -0.8903
 4300TIP3    H234536   1.938   4.266   0.136  1.2971 -1.9403 -1.1926
 4301TIP3   OH234537   2.990   6.509   1.215 -0.4213  0.0764 -0.7053
 4301TIP3    H134538   3.036   6.547   1.289 -1.7146  0.7404 -0.2184
 4301TIP3    H234539   2.947   6.582   1.172 -0.0854 -0.3664 -1.8474
 4302TIP3   OH234540   3.465   5.677   1.639 -0.0966  0.6243 -0.3279
 4302TIP3    H134541   3.386   5.630   1.665  0.6475 -0.0303  0.8783
 4302TIP3    H234542   3.504   5.707   1.721  1.0426  0.6881 -0.8639
 4303TIP3   OH234543   2.593   2.652   7.659  0.1320  0.0919  0.3438
 4303TIP3    H134544   2.583   2.746   7.671 -2.7630 -0.2021  1.0997
 4303TIP3    H234545   2.628   2.620   7.742 -0.8529  0.2995  0.8516
 4304TIP3   OH234546   2.008   1.422   6.966  0.2134 -0.1124 -0.2709
 4304TIP3    H134547   2.090   1.471   6.976 -1.1320  2.3537 -0.6896
 4304TIP3    H234548   2.033   1.331   6.984  2.8833  0.6410  0.3258
 4305TIP3   OH234549   6.103   6.909   7.063 -0.6095 -0.8054  0.5140
 4305TIP3    H134550   6.181   6.955   7.096 -1.6935  0.1774  1.8213
 4305TIP3    H234551   6.085   6.843   7.130 -1.9092  0.1514  1.1489
 4306TIP3   OH234552   0.075   1.781   8.090  0.4444 -0.0468  0.3154
 4306TIP3    H134553   0.169   1.770   8.107  1.0384  0.1156 -2.3159
 4306TIP3    H234554   0.069   1.868   8.050 -1.0319  0.4459  1.5603
 4307TIP3   OH234555   5.826   4.539   7.130 -0.1548  0.1989 -0.2119
 4307TIP3    H134556   5.797   4.456   7.169  0.6721 -0.4579 -0.9504
 4307TIP3    H234557   5.823   4.522   7.036  0.7544  0.7593 -0.3494
 4308TIP3   OH234558   5.549   1.473   8.411  0.1141 -0.3874 -0.1789
 4308TIP3    H134559   5.547   1.399   8.350  1.8474  0.0685 -0.8633
 4308TIP3    H234560   5.486   1.450   8.479  0.1051 -2.1697 -0.7352
 4309TIP3   OH234561   3.061   1.984   1.071  0.3112  0.2243 -0.1708
 4309TIP3    H134562   3.151   2.009   1.049  0.1971  0.4612 -0.3812
 4309TIP3    H234563   3.012   1.996   0.989  0.0558  0.2612 -0.0142
 4310TIP3   OH234564   5.581   1.004   6.873 -0.0885  0.0645 -0.0238
 4310TIP3    H134565   5.496   1.047   6.880  0.0416  0.2626  0.3730
 4310TIP3    H234566   5.560   0.911   6.863 -0.3482  0.0058  0.9318
 4311TIP3   OH234567   4.156   3.632   6.279 -0.6074  0.2289  0.1568
 4311TIP3    H134568   4.245   3.649   6.248 -1.0419  0.1310 -1.2076
 4311TIP3    H234569   4.124   3.717   6.309  0.3217  0.0557  1.7306
 4312TIP3   OH234570   3.321   1.772   0.284  0.4514 -0.6664 -0.1607
 4312TIP3    H134571   3.289   1.816   0.206  0.0045  0.4957  0.6605
 4312TIP3    H234572   3.262   1.697   0.295 -0.5353  0.1267  0.0132
 4313TIP3   OH234573   0.623   6.412   0.351  0.2715  0.3799 -0.5970
 4313TIP3    H134574   0.701   6.454   0.388 -0.7943  1.2108  0.7903
 4313TIP3    H234575   0.552   6.472   0.371 -0.8726 -0.7743 -1.0884
 4314TIP3   OH234576   1.877   5.593   6.347 -0.3180 -0.4082 -0.6680
 4314TIP3    H134577   1.842   5.641   6.273  0.2351  0.0585 -0.6419
 4314TIP3    H234578   1.962   5.561   6.317 -1.0851 -2.2359 -1.0155
 4315TIP3   OH234579   4.435   6.869   2.056 -0.8670  0.2098  0.6065
 4315TIP3    H134580   4.412   6.809   1.986  0.3614  0.5427 -0.1085
 4315TIP3    H234581   4.423   6.818   2.136 -2.6367 -0.0621  0.2138
 4316TIP3   OH234582   2.579   5.617   2.478 -0.2006 -0.0490  0.1815
 4316TIP3    H134583   2.508   5.678   2.497 -1.6235 -1.1760 -1.3364
 4316TIP3    H234584   2.656   5.673   2.469 -0.1964  1.0204  4.3951
 4317TIP3   OH234585   0.411   2.988   1.759  0.4654 -0.3257 -0.3503
 4317TIP3    H134586   0.330   3.001   1.810  0.7606 -1.0418  0.3181
 4317TIP3    H234587   0.481   3.009   1.820  0.7970  0.3841 -0.9580
 4318TIP3   OH234588   2.284   4.908   2.192 -0.6413 -0.2825  0.0855
 4318TIP3    H134589   2.327   4.824   2.208  1.5184  0.5277 -1.0748
 4318TIP3    H234590   2.206   4.906   2.248  0.5806 -2.0955  1.8471
 4319TIP3   OH234591   6.414   1.208   6.236 -0.3466  0.6523  0.0297
 4319TIP3    H134592   6.408   1.256   6.154 -1.2768  1.1975  0.4000
 4319TIP3    H234593   6.372   1.124   6.219 -0.1649  0.5995 -0.1620
 4320TIP3   OH234594   2.518   0.050   7.781  0.8252 -0.0524  0.6265
 4320TIP3    H134595   2.426   0.047   7.807  0.7072  0.7917  0.3446
 4320TIP3    H234596   2.565   0.076   7.860  0.7533  0.0549  0.6344
 4321TIP3   OH234597   1.610   3.517   1.257 -0.0653 -0.0785  0.3045
 4321TIP3    H134598   1.666   3.441   1.244  1.8646  1.2700  0.3464
 4321TIP3    H234599   1.610   3.562   1.172 -1.1191 -0.0500  0.3015
 4322TIP3   OH234600   5.704   6.128   0.351  0.0496  0.2458 -0.8842
 4322TIP3    H134601   5.741   6.216   0.349  2.3214 -0.6673 -1.8327
 4322TIP3    H234602   5.659   6.122   0.435  0.8726  1.9062 -0.2979
 4323TIP3   OH234603   2.576   5.060   1.604  0.0512  0.8012 -0.3733
 4323TIP3    H134604   2.586   5.020   1.690  1.9900 -0.0217 -0.9248
 4323TIP3    H234605   2.482   5.074   1.595 -0.3414 -0.4769  1.2617
 4324TIP3   OH234606   1.885   2.872   1.107  0.5306  0.0803  0.2535
 4324TIP3    H134607   1.879   2.962   1.076  1.5053 -0.6200 -2.3146
 4324TIP3    H234608   1.970   2.867   1.151  0.7072  0.3206 -0.0535
 4325TIP3   OH234609   1.531   1.789   7.670 -0.2424  0.5702  0.8470
 4325TIP3    H134610   1.442   1.765   7.643 -0.0059 -0.4409  0.9206
 4325TIP3    H234611   1.527   1.788   7.766 -0.2439  0.8764  0.8493
 4326TIP3   OH234612   5.163   3.126   0.361 -0.0903  0.1039 -0.0965
 4326TIP3    H134613   5.251   3.090   0.370  0.7147  2.1958  1.2350
 4326TIP3    H234614   5.106   3.050   0.351  1.7831 -1.3311 -0.2516
 4327TIP3   OH234615   0.623   1.199   1.160 -0.2201  0.0357  0.5812
 4327TIP3    H134616   0.630   1.287   1.195 -0.0071  0.4561 -0.4723
 4327TIP3    H234617   0.530   1.186   1.145 -0.0795  1.0484 -1.5533
 4328TIP3   OH234618   6.506   6.803   0.025  0.3625 -0.1863  0.5937
 4328TIP3    H134619   6.580   6.766  -0.022 -0.1180 -3.7162  2.2516
 4328TIP3    H234620   6.532   6.800   0.117 -2.0349 -2.5998  1.3564
 4329TIP3   OH234621   1.407   4.014   1.475 -0.1356 -0.2948 -0.0746
 4329TIP3    H134622   1.410   3.953   1.548 -0.8066 -0.7437 -0.4157
 4329TIP3    H234623   1.332   4.070   1.494  1.7092  1.8912  1.3588
 4330TIP3   OH234624   0.703   2.817   1.152 -0.5105 -0.4918 -0.0281
 4330TIP3    H134625   0.614   2.822   1.187 -0.7608  0.2195 -0.7239
 4330TIP3    H234626   0.722   2.906   1.123 -0.7079 -1.1835 -2.5609
 4331TIP3   OH234627   0.796   3.309   7.553 -0.2204  0.1844 -0.1159
 4331TIP3    H134628   0.890   3.288   7.547 -0.1073  0.4743  0.5217
 4331TIP3    H234629   0.783   3.377   7.488  0.3275  1.1517  0.7449
 4332TIP3   OH234630   5.383   6.036   0.533  0.3931 -0.3954  0.5509
 4332TIP3    H134631   5.461   6.041   0.589  1.1959 -0.0478 -0.5670
 4332TIP3    H234632   5.402   5.964   0.472 -0.4513 -0.7429  0.6781
 4333TIP3   OH234633   1.773   0.159   0.929 -0.1797  0.8734  0.3531
 4333TIP3    H134634   1.813   0.168   0.842  0.9178 -2.3205  0.3985
 4333TIP3    H234635   1.845   0.175   0.990  0.4819 -2.0127  0.4795
 4334TIP3   OH234636   3.453   6.863   1.015 -0.0535 -0.2134  0.0100
 4334TIP3    H134637   3.536   6.907   1.037  0.3511 -1.1211  0.3241
 4334TIP3    H234638   3.423   6.909   0.936  2.1824 -1.6165 -1.8041
 4335TIP3   OH234639   6.310   3.892   7.369 -0.4309  0.0896  0.2978
 4335TIP3    H134640   6.276   3.880   7.280 -1.8401  2.7754  0.3747
 4335TIP3    H234641   6.242   3.855   7.426 -1.3872  1.7525  0.3107
 4336TIP3   OH234642   2.537   2.390   1.006 -0.4811 -0.1587  0.4098
 4336TIP3    H134643   2.545   2.305   0.962  3.0909 -0.5304  1.4350
 4336TIP3    H234644   2.553   2.454   0.936 -0.1000 -0.4867  0.1903
 4337TIP3   OH234645   5.908   0.182   0.541  0.3513  0.1565 -0.4212
 4337TIP3    H134646   5.889   0.244   0.470  0.2322 -0.4907 -0.9590
 4337TIP3    H234647   5.943   0.105   0.497  2.4277  0.5560  0.3661
 4338TIP3   OH234648   6.541   4.695   0.204 -0.0580 -0.3738  0.6868
 4338TIP3    H134649   6.464   4.739   0.240  0.0138 -0.6811  1.2171
 4338TIP3    H234650   6.536   4.713   0.110 -0.3702  0.2405  0.8117
 4339TIP3   OH234651   4.269   1.101   1.534 -0.0774 -0.1583 -0.0875
 4339TIP3    H134652   4.300   1.096   1.624 -2.2465 -2.0157  0.6639
 4339TIP3    H234653   4.339   1.062   1.482 -0.4836 -3.0462  1.3592
 4340TIP3   OH234654   5.682   6.940   0.549 -0.0473  0.2795  0.1330
 4340TIP3    H134655   5.713   6.945   0.458  0.1400 -2.0006  0.0333
 4340TIP3    H234656   5.597   6.984   0.547 -1.4756 -2.2847 -1.8695
 4341TIP3   OH234657   6.056   0.601   7.086 -0.3163  0.3301 -0.3727
 4341TIP3    H134658   6.059   0.662   7.159  1.1468  1.8849 -1.6253
 4341TIP3    H234659   5.963   0.587   7.069 -0.6705  1.1380  0.7995
 4342TIP3   OH234660   6.525   5.096   0.969 -0.6672  0.4744  0.1289
 4342TIP3    H134661   6.555   5.017   1.013 -0.3854  0.4624 -0.0834
 4342TIP3    H234662   6.503   5.157   1.040 -0.9888  0.1697  0.2923
 4343TIP3   OH234663   6.395   4.840   0.728  0.4834 -0.3258 -0.0808
 4343TIP3    H134664   6.334   4.880   0.790  1.4327 -0.5927  1.0386
 4343TIP3    H234665   6.480   4.877   0.750  1.1015 -1.6537 -0.1551
 4344TIP3   OH234666   3.191   3.821   7.722  0.4537  0.5247  0.3026
 4344TIP3    H134667   3.181   3.830   7.627  0.6217  0.7604  0.3060
 4344TIP3    H234668   3.284   3.834   7.738  0.4195  0.5276  0.5058
 4345TIP3   OH234669   5.548   6.559   6.815  0.5186 -0.1569 -0.2332
 4345TIP3    H134670   5.521   6.484   6.867  1.0382 -0.1401  0.0685
 4345TIP3    H234671   5.495   6.554   6.736  0.0448 -0.4395  0.0984
 4346TIP3   OH234672   4.631   1.100   1.815  0.7471  1.0271 -0.1161
 4346TIP3    H134673   4.552   1.091   1.763  0.8778  0.6673 -0.2560
 4346TIP3    H234674   4.602   1.139   1.898 -0.0416 -1.6391  0.9526
 4347TIP3   OH234675   0.523   3.270   1.588  0.3507 -0.2137  0.0858
 4347TIP3    H134676   0.597   3.272   1.527  0.2669 -0.9953 -0.0584
 4347TIP3    H234677   0.563   3.279   1.674  0.5104  0.4498 -0.0481
 4348TIP3   OH234678   2.048   2.509   0.199  0.8280 -0.4901  0.2926
 4348TIP3    H134679   1.961   2.470   0.200  0.3878  0.4204 -0.8898
 4348TIP3    H234680   2.081   2.493   0.111  1.1167  0.7725  0.1571
 4349TIP3   OH234681   3.670   0.190   1.427 -0.2690 -0.3112  0.0314
 4349TIP3    H134682   3.622   0.245   1.365  0.6721 -0.9607 -1.3135
 4349TIP3    H234683   3.762   0.208   1.409  0.0404 -1.4301  0.3956
 4350TIP3   OH234684   2.921   6.013   0.148 -0.3452  0.3831  0.0158
 4350TIP3    H134685   2.868   6.079   0.194 -0.1110 -1.1064  2.6256
 4350TIP3    H234686   3.010   6.045   0.157 -0.3101  0.1499  0.5176
 4351TIP3   OH234687   0.593   5.997   1.751 -0.5482  0.5033  0.4176
 4351TIP3    H134688   0.648   6.064   1.792 -0.5051  0.8646 -0.2217
 4351TIP3    H234689   0.590   5.926   1.815  0.9753  0.3081  0.3065
 4352TIP3   OH234690   6.036   4.278   0.878  0.3707 -0.0810  0.0492
 4352TIP3    H134691   6.107   4.213   0.875 -0.4228 -1.0364  1.1236
 4352TIP3    H234692   6.061   4.338   0.948 -0.1447 -0.7579  0.8265
 4353TIP3   OH234693   4.685   3.324   8.213 -0.1378 -0.1919  0.2725
 4353TIP3    H134694   4.625   3.296   8.143  1.9803  0.0601 -1.7856
 4353TIP3    H234695   4.629   3.334   8.290 -2.7362  0.1613 -1.5227
 4354TIP3   OH234696   2.322   4.184   8.121  0.3078 -0.2321  0.3999
 4354TIP3    H134697   2.292   4.203   8.032  0.9000  0.5842  0.3527
 4354TIP3    H234698   2.355   4.268   8.153 -0.1865 -0.4445  1.5145
 4355TIP3   OH234699   0.471   2.641   1.498 -0.0254 -0.0183 -0.5613
 4355TIP3    H134700   0.525   2.562   1.495  1.8349  1.1755 -0.3235
 4355TIP3    H234701   0.425   2.642   1.414 -0.0686 -1.3210 -0.5694
 4356TIP3   OH234702   6.850   0.064   1.919  0.0380 -0.0270  0.4207
 4356TIP3    H134703   6.886   0.128   1.979  1.1940 -0.1046 -0.1634
 4356TIP3    H234704   6.811   0.116   1.849 -0.8704  0.0543  0.9717
 4357TIP3   OH234705   2.183   2.005   7.973  0.3627  0.3518 -0.5988
 4357TIP3    H134706   2.165   1.915   7.946  0.7010  0.0021  0.3097
 4357TIP3    H234707   2.170   2.056   7.894 -0.1404 -0.4556 -1.0560
 4358TIP3   OH234708   1.541   2.102   0.378 -0.1312  0.4346 -0.1286
 4358TIP3    H134709   1.461   2.049   0.378 -0.7415  1.3246  0.0177
 4358TIP3    H234710   1.528   2.163   0.305 -0.6893  2.1612  1.3213
 4359TIP3   OH234711   6.298   4.279   1.541  0.5802 -0.3115  0.3308
 4359TIP3    H134712   6.300   4.320   1.455 -0.4528  1.0430  0.9066
 4359TIP3    H234713   6.337   4.193   1.528  0.6838 -0.0315 -1.4259
 4360TIP3   OH234714   6.669   1.979   0.447  0.5036  0.4938  0.2755
 4360TIP3    H134715   6.603   1.920   0.485 -1.1324  1.6164 -0.6892
 4360TIP3    H234716   6.709   2.021   0.523  1.1226 -1.2253  0.9387
 4361TIP3   OH234717   1.098   0.624   8.112 -0.3600  0.1579 -0.2676
 4361TIP3    H134718   1.169   0.687   8.103 -1.0267  1.0269  0.3856
 4361TIP3    H234719   1.109   0.588   8.201 -1.1483  0.8323  0.1149
 4362TIP3   OH234720   0.483   2.885   7.628  0.3437 -0.0914 -0.3679
 4362TIP3    H134721   0.558   2.938   7.654  0.0575 -0.0335  0.3441
 4362TIP3    H234722   0.415   2.905   7.693 -0.2843 -0.1594 -0.9821
 4363TIP3   OH234723   1.323   3.430   8.358 -0.3698 -0.1864  0.0883
 4363TIP3    H134724   1.373   3.407   8.436  0.4530 -1.0747 -0.6808
 4363TIP3    H234725   1.350   3.366   8.292 -0.0880  1.3087 -1.3161
 4364TIP3   OH234726   3.576   6.224   6.611 -0.2048  0.3421  0.4824
 4364TIP3    H134727   3.536   6.185   6.533  0.4900  1.2579 -0.3613
 4364TIP3    H234728   3.650   6.166   6.631  0.1485  0.5909 -0.0826
 4365TIP3   OH234729   5.737   2.897   7.776 -0.1407 -0.2850  0.1132
 4365TIP3    H134730   5.750   2.811   7.817 -0.7408 -0.7064 -0.5486
 4365TIP3    H234731   5.654   2.888   7.729  0.3572  0.3021 -0.9001
 4366TIP3   OH234732   0.650   0.435   0.262 -0.1117 -0.0897 -0.1139
 4366TIP3    H134733   0.661   0.367   0.328 -1.2201 -0.7057 -0.5260
 4366TIP3    H234734   0.591   0.499   0.303 -1.0128 -0.6031 -0.5649
 4367TIP3   OH234735   3.206   0.748   7.933  0.0068  0.4679 -0.0017
 4367TIP3    H134736   3.141   0.790   7.876  0.8691  1.2302 -0.4423
 4367TIP3    H234737   3.272   0.714   7.873  1.0735  1.5285  0.5431
 4368TIP3   OH234738   5.828   1.410   8.468 -0.0566  0.0968 -0.4368
 4368TIP3    H134739   5.863   1.379   8.385 -2.0574 -0.6698 -1.0622
 4368TIP3    H234740   5.780   1.490   8.446 -2.9801 -1.5559 -0.6658
 4369TIP3   OH234741   5.933   2.063   7.248 -0.5742 -0.0690 -0.3489
 4369TIP3    H134742   5.899   1.986   7.204  0.0446 -0.3086 -0.4219
 4369TIP3    H234743   5.992   2.103   7.184 -1.1575  0.6602 -0.4435
 4370TIP3   OH234744   2.852   2.273   0.611  0.3668 -0.4966  0.1272
 4370TIP3    H134745   2.862   2.183   0.580  0.3728 -0.6385  0.5324
 4370TIP3    H234746   2.942   2.302   0.630  0.5261  0.1099 -1.3969
 4371TIP3   OH234747   0.949   5.342   1.124 -0.5910  0.1716 -0.3687
 4371TIP3    H134748   0.903   5.259   1.138 -1.8159  0.9404  0.3123
 4371TIP3    H234749   0.991   5.331   1.038 -0.3895 -1.2883 -0.1209
 4372TIP3   OH234750   4.332   1.196   7.123  0.4746 -0.2683  0.6889
 4372TIP3    H134751   4.415   1.169   7.163  1.2598  0.6954 -0.2022
 4372TIP3    H234752   4.341   1.170   7.031  0.4446  1.1664  0.2499
 4373TIP3   OH234753   1.033   5.911   0.842  0.1530  0.1608  0.7631
 4373TIP3    H134754   0.990   5.830   0.868 -0.4614  0.5502  0.9909
 4373TIP3    H234755   1.032   5.965   0.921 -0.0218  0.6277  0.4491
 4374TIP3   OH234756   3.327   5.648   7.534 -0.1318 -0.1152  0.3166
 4374TIP3    H134757   3.318   5.554   7.518  2.0216 -0.5535  1.2543
 4374TIP3    H234758   3.339   5.686   7.446  0.5029 -0.9595  0.0228
 4375TIP3   OH234759   0.775   0.194   7.426  0.9425 -0.0269  0.1435
 4375TIP3    H134760   0.742   0.195   7.516  0.4716  0.8856 -0.0265
 4375TIP3    H234761   0.750   0.279   7.390 -0.1006 -0.8759 -1.2823
 4376TIP3   OH234762   6.498   1.915   7.304 -0.5517  0.3997  0.2548
 4376TIP3    H134763   6.478   1.825   7.331 -1.2956  0.6476  0.5354
 4376TIP3    H234764   6.463   1.969   7.373  0.8365  0.8781  0.6228
 4377TIP3   OH234765   1.093   2.837   6.247 -0.1389 -0.4450 -0.2437
 4377TIP3    H134766   1.021   2.855   6.188 -0.0386 -1.2695 -0.6225
 4377TIP3    H234767   1.128   2.924   6.269 -0.4491 -0.1088 -1.0462
 4378TIP3   OH234768   4.606   5.577   1.901 -0.9862  0.5366 -0.4588
 4378TIP3    H134769   4.607   5.506   1.966  1.5789 -0.0010 -0.9680
 4378TIP3    H234770   4.604   5.657   1.953 -0.1521  0.1046  0.2567
 4379TIP3   OH234771   4.189   0.963   6.958 -0.8288 -0.5454  0.5130
 4379TIP3    H134772   4.126   1.035   6.953 -0.1466  0.0233  0.1033
 4379TIP3    H234773   4.139   0.887   6.927 -0.5930  0.3906 -2.4661
 4380TIP3   OH234774   2.600   0.594   6.838 -0.0148  0.1725 -0.7656
 4380TIP3    H134775   2.527   0.601   6.777 -1.7127 -1.6240  0.8850
 4380TIP3    H234776   2.591   0.669   6.896 -0.3359  0.1767 -0.8193
 4381TIP3   OH234777   1.885   4.725   1.191  0.2874 -0.4315  0.4101
 4381TIP3    H134778   1.825   4.732   1.117  0.8417  1.4703  0.0913
 4381TIP3    H234779   1.865   4.640   1.231 -1.0122 -0.8379 -1.0463
 4382TIP3   OH234780   6.230   0.401   0.091 -0.5406  0.0264  0.0428
 4382TIP3    H134781   6.265   0.477   0.044 -2.7068  0.2777 -1.3219
 4382TIP3    H234782   6.232   0.330   0.027  1.5114 -1.1577  1.3251
 4383TIP3   OH234783   3.342   0.137   1.737 -0.2231 -0.1653 -0.1283
 4383TIP3    H134784   3.437   0.148   1.730 -0.0792 -0.7451  0.7626
 4383TIP3    H234785   3.313   0.125   1.646  0.6017 -0.3643 -0.3814
 4384TIP3   OH234786   3.026   5.024   7.065 -0.0616 -0.4036  0.0890
 4384TIP3    H134787   2.976   5.104   7.052  2.5661  1.3231 -0.1704
 4384TIP3    H234788   3.009   4.972   6.986 -0.1968  0.8596 -0.7490
 4385TIP3   OH234789   5.282   4.558   0.368  0.1063  0.6600 -0.8599
 4385TIP3    H134790   5.293   4.474   0.412  1.7728  1.5471  0.5598
 4385TIP3    H234791   5.337   4.551   0.290  0.7288  0.6250 -0.4267
 4386TIP3   OH234792   2.304   5.961   7.173 -0.3875  0.0366 -0.4824
 4386TIP3    H134793   2.345   6.047   7.183 -0.1675 -0.2258  1.1137
 4386TIP3    H234794   2.373   5.906   7.136 -1.1140  0.9608 -3.4947
 4387TIP3   OH234795   0.623   5.706   0.878 -0.2266  0.1892  0.0276
 4387TIP3    H134796   0.583   5.791   0.860 -1.2643 -0.5647 -1.3566
 4387TIP3    H234797   0.630   5.663   0.793  1.8270 -0.4872  0.4617
 4388TIP3   OH234798   2.417   6.203   8.623  0.0124  0.2815  0.5383
 4388TIP3    H134799   2.417   6.122   8.674  1.4961  0.4032  0.7647
 4388TIP3    H234800   2.422   6.272   8.689 -1.2601  0.5882  0.3465
 4389TIP3   OH234801   0.022   4.141   0.221 -0.7198  0.4960  0.2838
 4389TIP3    H134802   0.073   4.060   0.217 -1.5083  0.0450 -2.2527
 4389TIP3    H234803  -0.069   4.113   0.215 -0.9952  1.5539 -1.0057
 4390TIP3   OH234804   3.513   3.619   0.634 -0.0097 -0.6722  0.2043
 4390TIP3    H134805   3.548   3.548   0.688 -0.0916 -1.2842 -0.5244
 4390TIP3    H234806   3.581   3.636   0.570 -0.1529 -0.3591  0.1330
 4391TIP3   OH234807   3.331   0.451   5.874 -0.1807 -0.4099 -0.5233
 4391TIP3    H134808   3.315   0.538   5.910  0.7280 -0.1829 -0.6462
 4391TIP3    H234809   3.244   0.419   5.849 -0.9528 -0.7804  2.2658
 4392TIP3   OH234810   6.809   0.756   8.122 -0.3749  0.5470 -0.0939
 4392TIP3    H134811   6.736   0.760   8.183 -2.3872  0.4326 -2.3535
 4392TIP3    H234812   6.872   0.698   8.164  0.1563  3.4117  3.5870
 4393TIP3   OH234813   1.975   0.161   1.113 -0.0521  0.4549 -0.5076
 4393TIP3    H134814   2.021   0.243   1.131  1.6443 -0.4576 -0.4574
 4393TIP3    H234815   2.045   0.098   1.094 -1.3673 -0.5668 -2.3329
 4394TIP3   OH234816   0.477   4.254   8.103 -0.3577  0.1625  0.1077
 4394TIP3    H134817   0.421   4.330   8.124 -0.7246 -0.1684  0.3610
 4394TIP3    H234818   0.442   4.221   8.021 -0.5811 -0.0864  0.3011
 4395TIP3   OH234819   1.016   4.586   7.742 -0.5824  0.0291 -0.1483
 4395TIP3    H134820   0.955   4.630   7.801 -0.9397 -1.8586  0.9979
 4395TIP3    H234821   1.101   4.595   7.785 -0.7767 -0.9839  0.4935
 4396TIP3   OH234822   1.286   5.584   0.551 -0.4053 -0.4860  0.3972
 4396TIP3    H134823   1.219   5.522   0.521 -0.5775  0.4977 -1.4330
 4396TIP3    H234824   1.246   5.670   0.537  1.4550  0.1492 -1.4528
 4397TIP3   OH234825   6.093   0.355   8.096  0.0512  0.3569 -0.3251
 4397TIP3    H134826   6.160   0.387   8.156 -1.0841  0.6150  0.8539
 4397TIP3    H234827   6.010   0.383   8.135 -0.8014 -0.7877 -1.2175
 4398TIP3   OH234828   1.456   0.626   1.517  0.1043  0.5418 -0.8207
 4398TIP3    H134829   1.370   0.585   1.517  1.3010 -2.2155 -2.0177
 4398TIP3    H234830   1.463   0.667   1.431  0.6939 -0.9763 -1.5241
 4399TIP3   OH234831   3.710   2.295   8.307  0.1519 -0.6171 -0.0709
 4399TIP3    H134832   3.640   2.230   8.319 -2.0708  1.8969  2.0643
 4399TIP3    H234833   3.679   2.351   8.236 -0.3829  0.8719  1.2873
 4400TIP3   OH234834   0.966   3.312   7.032  0.2558  0.6181 -0.6457
 4400TIP3    H134835   0.949   3.262   7.112 -0.8834  1.5758 -0.2690
 4400TIP3    H234836   1.048   3.358   7.050  0.5509  0.0244 -0.4385
 4401TIP3   OH234837   5.055   2.635   1.636  0.3102 -0.0630  0.3966
 4401TIP3    H134838   4.984   2.693   1.609  0.3500  0.4048  1.2532
 4401TIP3    H234839   5.054   2.639   1.732  1.0182 -0.6313  0.4373
 4402TIP3   OH234840   1.423   0.767   7.749 -0.5894  0.9189 -0.0464
 4402TIP3    H134841   1.389   0.757   7.660 -2.2380  0.7475  0.5563
 4402TIP3    H234842   1.354   0.814   7.796 -0.8394 -1.0676  1.7253
 4403TIP3   OH234843   1.141   3.302   0.603  0.0449  0.2168  0.1413
 4403TIP3    H134844   1.159   3.285   0.510 -0.6605  1.6674 -0.2809
 4403TIP3    H234845   1.049   3.328   0.605  0.2898  1.0518  1.1283
 4404TIP3   OH234846   4.277   5.217   2.161  0.6386  0.5083  0.0496
 4404TIP3    H134847   4.211   5.196   2.095 -0.3458  0.6251  0.9611
 4404TIP3    H234848   4.228   5.259   2.232  1.7028  0.6576  0.7283
 4405TIP3   OH234849   3.009   4.191   1.277  0.1871  0.2835  0.1403
 4405TIP3    H134850   3.032   4.274   1.319  2.3627  0.2271 -0.7906
 4405TIP3    H234851   2.974   4.137   1.348  0.8793  1.2102  1.2303
 4406TIP3   OH234852   5.766   6.807   7.956 -0.2305 -0.1622  0.4133
 4406TIP3    H134853   5.689   6.850   7.919  0.7679 -0.0660 -1.7144
 4406TIP3    H234854   5.841   6.851   7.915  0.9414 -1.0226  1.5220
 4407TIP3   OH234855   4.195   6.162   1.707  0.5209 -0.0545 -0.2745
 4407TIP3    H134856   4.153   6.142   1.791 -3.7438 -0.7284 -2.2729
 4407TIP3    H234857   4.173   6.253   1.690  1.6047  0.1634 -0.5479
 4408TIP3   OH234858   5.100   6.252   1.388  0.2521  0.5018  0.5104
 4408TIP3    H134859   5.175   6.312   1.397 -0.1689  1.1267 -0.0392
 4408TIP3    H234860   5.070   6.266   1.298 -0.0897 -0.2649  0.5025
 4409TIP3   OH234861   6.258   4.820   7.357  0.2656 -0.1566 -0.0613
 4409TIP3    H134862   6.351   4.807   7.376 -0.2913 -1.2548  2.2303
 4409TIP3    H234863   6.251   4.809   7.262  2.5730  0.7732 -0.3826
 4410TIP3   OH234864   5.500   0.685   0.168 -0.0522 -0.2299 -0.3036
 4410TIP3    H134865   5.521   0.631   0.092  0.3048 -0.1536 -0.2616
 4410TIP3    H234866   5.566   0.755   0.166  0.0719 -0.3324  0.1793
 4411TIP3   OH234867   4.861   4.810   7.012  0.0494  0.5381  0.0849
 4411TIP3    H134868   4.797   4.769   6.953  0.8878  0.7374 -0.9935
 4411TIP3    H234869   4.876   4.744   7.080 -2.4476  1.0705  1.2772
 4412TIP3   OH234870   1.880   3.595   7.875  0.3335  0.0062 -0.2522
 4412TIP3    H134871   1.927   3.543   7.810  0.6746 -2.1239  1.5684
 4412TIP3    H234872   1.910   3.560   7.960 -1.6164  1.2306  1.0227
 4413TIP3   OH234873   5.537   5.846   6.714 -0.1492 -0.4699  0.1871
 4413TIP3    H134874   5.481   5.768   6.705 -0.6638 -0.1549  0.6380
 4413TIP3    H234875   5.574   5.858   6.626  1.2735 -2.1999  0.4882
 4414TIP3   OH234876   6.802   3.487   1.418 -0.7694  0.1646 -0.2362
 4414TIP3    H134877   6.774   3.397   1.437 -0.9368  0.3179  0.2690
 4414TIP3    H234878   6.879   3.500   1.473  0.5178 -0.3574 -1.8531
 4415TIP3   OH234879   5.006   0.627   7.079 -0.6773  0.2728 -0.1759
 4415TIP3    H134880   4.968   0.714   7.070  1.1705  1.0534 -1.1016
 4415TIP3    H234881   5.005   0.591   6.990 -1.4053 -0.6668  0.1966
 4416TIP3   OH234882   3.501   4.928   8.593 -0.0271  0.2848 -0.1318
 4416TIP3    H134883   3.497   4.852   8.651  1.4180  0.9309  0.8687
 4416TIP3    H234884   3.495   4.891   8.505  0.4896 -0.9780  0.3415
 4417TIP3   OH234885   0.882   3.703   8.421 -0.2305 -0.3553  0.0403
 4417TIP3    H134886   0.942   3.751   8.365 -0.7274 -0.2771 -0.4352
 4417TIP3    H234887   0.901   3.610   8.404 -1.2903 -0.3549 -1.2880
 4418TIP3   OH234888   2.787   1.568   0.400 -0.0943  0.5246  0.6265
 4418TIP3    H134889   2.700   1.529   0.398  1.4842 -3.3934 -0.1880
 4418TIP3    H234890   2.788   1.629   0.326 -1.1752 -1.8908 -1.5066
 4419TIP3   OH234891   4.290   5.722   6.828 -0.5631 -0.2668 -0.4016
 4419TIP3    H134892   4.200   5.710   6.858 -0.8995 -1.6311 -1.8008
 4419TIP3    H234893   4.324   5.633   6.817  0.2406  0.1881 -1.8960
 4420TIP3   OH234894   4.746   2.578   1.529 -0.4578  0.2430 -0.5289
 4420TIP3    H134895   4.781   2.504   1.578  0.9080  0.2329 -1.4593
 4420TIP3    H234896   4.744   2.650   1.592 -2.9568 -0.8073  0.7360
 4421TIP3   OH234897   2.483   1.866   0.470 -0.3572 -0.0231 -0.1677
 4421TIP3    H134898   2.493   1.796   0.534  0.4271 -2.7964 -3.0476
 4421TIP3    H234899   2.394   1.856   0.436 -1.3491  2.4513  1.4453
 4422TIP3   OH234900   0.645   2.722   6.910 -0.3892 -0.0254  0.3430
 4422TIP3    H134901   0.689   2.712   6.825  0.6083  0.6025  0.7664
 4422TIP3    H234902   0.667   2.643   6.958 -1.6784 -0.7959 -0.2668
 4423TIP3   OH234903   4.837   4.141   2.226  0.0997 -0.7366  0.2491
 4423TIP3    H134904   4.799   4.220   2.267 -0.2500  0.3551 -2.0383
 4423TIP3    H234905   4.868   4.171   2.141 -0.2596 -3.1508 -0.7894
 4424TIP3   OH234906   4.433   2.071   8.093 -0.3784 -0.1457  0.3497
 4424TIP3    H134907   4.394   2.004   8.036 -0.0438 -0.5848  0.6257
 4424TIP3    H234908   4.523   2.078   8.062 -0.6144  0.7316 -0.1662
 4425TIP3   OH234909   5.585   6.108   8.348  0.2031  0.4542  0.1016
 4425TIP3    H134910   5.674   6.138   8.364  0.7307 -0.6059 -0.7174
 4425TIP3    H234911   5.532   6.187   8.349  1.0669  1.0399  1.1370
 4426TIP3   OH234912   2.539   6.155   0.909 -0.0203 -0.0758 -0.4147
 4426TIP3    H134913   2.604   6.085   0.908  0.8598  0.6533  1.4512
 4426TIP3    H234914   2.569   6.216   0.841  3.0271  1.6740  2.1983
 4427TIP3   OH234915   6.351   0.438   1.380  0.0377  0.2360 -0.2542
 4427TIP3    H134916   6.334   0.363   1.323 -2.3621  0.3075  0.2281
 4427TIP3    H234917   6.411   0.405   1.447 -0.8505 -1.2382 -0.1427
 4428TIP3   OH234918   6.223   0.657   1.495  0.2847 -0.3021  0.1279
 4428TIP3    H134919   6.268   0.581   1.458  1.2589  0.0663  0.5157
 4428TIP3    H234920   6.135   0.626   1.515  0.7059 -1.3653  0.3807
 4429TIP3   OH234921   1.578   1.472   7.065  0.2247  0.1324 -0.1017
 4429TIP3    H134922   1.587   1.433   6.978  0.1455 -0.4723  0.1589
 4429TIP3    H234923   1.652   1.532   7.072  0.2383  0.1755 -0.5838
 4430TIP3   OH234924   1.008   5.234   0.838 -0.1066 -0.7258 -0.4505
 4430TIP3    H134925   1.011   5.292   0.762  1.3282 -0.6222 -0.3431
 4430TIP3    H234926   0.927   5.184   0.827 -1.1025  0.8886 -0.8280
 4431TIP3   OH234927   0.087   0.486   1.366  0.0273  0.5804  0.1293
 4431TIP3    H134928   0.087   0.567   1.315 -0.6643  1.8137  2.0089
 4431TIP3    H234929   0.017   0.498   1.430  0.1369 -1.3800  0.6800
 4432TIP3   OH234930   1.641   3.367   6.724  0.3853 -0.2849  0.3925
 4432TIP3    H134931   1.731   3.346   6.752  0.1713 -1.1264  0.4753
 4432TIP3    H234932   1.617   3.295   6.667  0.9117  1.5216 -2.2750
 4433TIP3   OH234933   2.726   3.424   0.351  0.0511 -0.3695 -0.3721
 4433TIP3    H134934   2.762   3.472   0.426 -1.8949 -0.6161  0.7862
 4433TIP3    H234935   2.785   3.350   0.339  0.8748  0.1483  0.3746
 4434TIP3   OH234936   2.430   1.303   0.741  0.4510  0.1418 -0.0142
 4434TIP3    H134937   2.392   1.227   0.785  0.9751  1.1692  2.4135
 4434TIP3    H234938   2.373   1.376   0.766  0.6181  0.7529 -1.3328
 4435TIP3   OH234939   2.167   6.880   6.945 -0.3837 -0.0835 -0.2883
 4435TIP3    H134940   2.169   6.975   6.934 -0.0117 -0.0532  0.0373
 4435TIP3    H234941   2.131   6.848   6.862 -0.5588  0.3411 -0.3816
 4436TIP3   OH234942   3.158   5.525   1.579 -0.3027  0.2174 -0.5800
 4436TIP3    H134943   3.177   5.543   1.671  2.0437  0.5634 -1.0780
 4436TIP3    H234944   3.064   5.503   1.578 -0.3086 -0.2017  1.9320
 4437TIP3   OH234945   1.205   1.718   0.160 -0.0101 -0.0535  0.1932
 4437TIP3    H134946   1.128   1.775   0.155  0.5286  0.5616 -1.8441
 4437TIP3    H234947   1.174   1.640   0.206 -1.6540  0.4629  0.0211
 4438TIP3   OH234948   6.387   1.396   7.711  0.1157  0.2322  1.1191
 4438TIP3    H134949   6.431   1.356   7.786 -1.1154  1.7783  2.7293
 4438TIP3    H234950   6.295   1.399   7.736 -0.1974  1.6140 -0.0926
 4439TIP3   OH234951   4.787   0.874   1.734  0.1042  0.0934 -0.2122
 4439TIP3    H134952   4.731   0.852   1.660 -0.3894  1.1427 -0.1650
 4439TIP3    H234953   4.758   0.961   1.762  1.1107  0.2451  0.4290
 4440TIP3   OH234954   1.625   2.896   7.629  0.1545  0.9991 -0.0695
 4440TIP3    H134955   1.682   2.897   7.551 -0.3527 -1.7134 -0.5683
 4440TIP3    H234956   1.539   2.922   7.596  0.5098  2.5794  0.1806
 4441TIP3   OH234957   6.443   0.902   2.329  0.0918 -0.0398 -0.3288
 4441TIP3    H134958   6.523   0.901   2.381 -0.9594  0.3858  1.3602
 4441TIP3    H234959   6.435   0.813   2.294 -0.1128 -0.8936  1.7740
 4442TIP3   OH234960   0.669   2.191   0.725 -0.2040  0.1899 -0.0285
 4442TIP3    H134961   0.739   2.251   0.699  0.1453  0.9544  2.4615
 4442TIP3    H234962   0.603   2.246   0.766 -1.0632 -0.8512  0.0419
 4443TIP3   OH234963   2.660   0.788   1.331  0.2287  0.6150 -0.3181
 4443TIP3    H134964   2.572   0.789   1.294  0.2842  1.6249 -0.4488
 4443TIP3    H234965   2.710   0.847   1.274  0.4523  1.7677  1.0260
 4444TIP3   OH234966   2.697   5.985   1.333  0.4950  0.3434  0.1196
 4444TIP3    H134967   2.615   5.939   1.317  0.8262 -0.3548  0.4207
 4444TIP3    H234968   2.671   6.077   1.344 -0.4366 -0.0744  1.7129
 4445TIP3   OH234969   5.141   4.334   1.497  0.3594 -0.2893  0.2426
 4445TIP3    H134970   5.219   4.278   1.495 -0.6667 -1.8020  0.9606
 4445TIP3    H234971   5.120   4.343   1.590 -0.0534  0.5155  0.0790
 4446TIP3   OH234972   6.050   4.360   0.077  0.7510  0.7009 -0.0322
 4446TIP3    H134973   6.043   4.368   0.172 -0.1115 -1.6197  0.1769
 4446TIP3    H234974   6.018   4.272   0.058 -0.8070  1.7140 -2.6784
 4447TIP3   OH234975   2.440   0.065   0.763 -0.5452 -0.0744 -0.4876
 4447TIP3    H134976   2.395   0.137   0.807  0.1810  1.2477 -1.8544
 4447TIP3    H234977   2.397   0.058   0.678 -0.3143 -0.9992 -0.5440
 4448TIP3   OH234978   1.185   4.753   2.374  0.2004 -0.1497  0.6245
 4448TIP3    H134979   1.139   4.793   2.448 -0.1590 -0.3110  0.4869
 4448TIP3    H234980   1.116   4.725   2.314  0.5266  2.3437 -1.0483
 4449TIP3   OH234981   4.929   4.652   0.952 -0.2918  0.1081  0.3289
 4449TIP3    H134982   4.959   4.665   0.862 -0.1502 -0.4275  0.2927
 4449TIP3    H234983   4.963   4.727   1.000 -0.2058  0.3006 -0.0263
 4450TIP3   OH234984   3.129   5.822   1.660 -0.5214  0.7268  0.1695
 4450TIP3    H134985   3.107   5.856   1.747 -1.4980 -1.8268  1.0031
 4450TIP3    H234986   3.187   5.748   1.677 -1.1482 -0.1521 -1.2976
 4451TIP3   OH234987   4.346   1.803   6.921 -0.0852 -0.2724  0.0906
 4451TIP3    H134988   4.371   1.711   6.928  0.0114 -0.2048  0.7406
 4451TIP3    H234989   4.411   1.841   6.861 -0.6723 -0.8113 -0.9110
 4452TIP3   OH234990   1.520   3.809   1.104  0.0678  0.1784 -0.6212
 4452TIP3    H134991   1.515   3.780   1.014  0.7667 -0.8739 -0.3385
 4452TIP3    H234992   1.429   3.817   1.132 -0.1454 -0.1968 -1.1965
 4453TIP3   OH234993   2.649   2.382   7.218  0.7413 -0.4750  0.1400
 4453TIP3    H134994   2.633   2.330   7.296  1.1815  0.5235  0.9200
 4453TIP3    H234995   2.611   2.331   7.147  0.2852 -1.3761  1.0058
 4454TIP3   OH234996   2.056   6.272   6.194  0.2791 -0.0317 -0.1723
 4454TIP3    H134997   2.111   6.314   6.259  0.6902 -1.5037  0.4704
 4454TIP3    H234998   2.001   6.212   6.244  2.5615 -3.3689 -1.2817
 4455TIP3   OH234999   5.237   1.313   0.926  0.3112 -0.5223  0.1889
 4455TIP3    H135000   5.214   1.274   0.842 -0.1034 -0.1076  0.1103
 4455TIP3    H235001   5.326   1.281   0.943  0.5794 -0.2413 -0.6246
 4456TIP3   OH235002   1.165   6.083   7.447  0.7219  0.0072 -0.2388
 4456TIP3    H135003   1.139   6.110   7.359  1.5684  0.3558 -0.3943
 4456TIP3    H235004   1.088   6.039   7.483 -0.5156  2.0516 -0.2218
 4457TIP3   OH235005   0.203   2.433   0.091 -0.1622  0.9311  0.0378
 4457TIP3    H135006   0.259   2.439   0.013  1.5360 -0.9387  1.0393
 4457TIP3    H235007   0.126   2.384   0.062 -0.2842  1.6105 -0.8250
 4458TIP3   OH235008   1.275   0.286   1.759  0.6830  0.4511 -0.3012
 4458TIP3    H135009   1.266   0.277   1.664  3.0328 -0.4289 -0.4953
 4458TIP3    H235010   1.295   0.379   1.772 -2.9590  1.4054 -0.2394
 4459TIP3   OH235011   6.269   5.659   7.785  0.0585 -0.1707  0.2724
 4459TIP3    H135012   6.339   5.626   7.842  0.0146  0.8955  0.9688
 4459TIP3    H235013   6.295   5.632   7.697  1.9882  1.2371  0.3593
 4460TIP3   OH235014   3.289   2.577   1.893  0.1680  0.5135  0.1234
 4460TIP3    H135015   3.318   2.659   1.932  1.1611  0.9478 -1.4574
 4460TIP3    H235016   3.340   2.510   1.937 -0.5523  0.7211  1.3271
 4461TIP3   OH235017   6.448   2.349   8.006 -0.1634  0.6558 -0.1105
 4461TIP3    H135018   6.375   2.288   7.996  1.7681 -2.0367  0.8714
 4461TIP3    H235019   6.408   2.436   8.003 -3.3512 -0.6704  0.3117
 4462TIP3   OH235020   1.392   4.808   8.115 -0.5560 -0.0783 -0.4576
 4462TIP3    H135021   1.394   4.755   8.195 -2.5321 -0.4850 -0.6290
 4462TIP3    H235022   1.401   4.745   8.044 -1.4374 -0.0235 -0.6223
 4463TIP3   OH235023   0.211   1.478   1.326 -0.3521 -0.2461  0.1066
 4463TIP3    H135024   0.264   1.422   1.270 -1.8443  0.9593 -2.7544
 4463TIP3    H235025   0.274   1.521   1.385  1.0898 -2.8471  0.6069
 4464TIP3   OH235026   2.150   0.194   6.880 -0.1377 -0.0610  0.0252
 4464TIP3    H135027   2.231   0.229   6.843 -0.9167  1.0439 -0.7232
 4464TIP3    H235028   2.081   0.234   6.827 -1.1584 -1.3681  0.3164
 4465TIP3   OH235029   1.273   0.110   7.919  0.1190  0.0887  0.7699
 4465TIP3    H135030   1.207   0.163   7.964 -2.0105 -0.6164 -1.3272
 4465TIP3    H235031   1.349   0.168   7.910 -1.4443  2.1550  0.2342
 4466TIP3   OH235032   2.209   2.206   1.080  0.3816  0.3326  0.5901
 4466TIP3    H135033   2.150   2.277   1.054  2.2449  1.3727 -1.0746
 4466TIP3    H235034   2.176   2.129   1.032  0.6986  1.0435 -0.8249
 4467TIP3   OH235035   3.840   0.406   8.188  0.2588  0.0889  0.6630
 4467TIP3    H135036   3.896   0.450   8.253 -0.1301 -0.3848  1.3310
 4467TIP3    H235037   3.874   0.317   8.184  0.3060  0.1270  0.1756
 4468TIP3   OH235038   3.106   5.557   8.619 -0.0390  0.2109 -0.0813
 4468TIP3    H135039   3.136   5.601   8.699 -0.4167  1.7210 -0.7352
 4468TIP3    H235040   3.011   5.548   8.631 -0.0264 -0.0140 -0.1495
 4469TIP3   OH235041   2.825   3.469   7.828 -0.0692 -0.1503 -0.2586
 4469TIP3    H135042   2.763   3.433   7.764 -0.5623 -0.4583  0.3838
 4469TIP3    H235043   2.781   3.546   7.863  0.7879  0.8390 -1.2851
 4470TIP3   OH235044   3.079   6.554   7.729 -0.2888 -0.0265 -0.5432
 4470TIP3    H135045   3.059   6.478   7.674  0.7923 -2.3640  2.0322
 4470TIP3    H235046   2.995   6.598   7.740 -0.6500  0.1645 -3.4121
 4471TIP3   OH235047   3.350   3.312   0.412  0.1954  0.1603  0.4288
 4471TIP3    H135048   3.397   3.316   0.495 -0.4207  3.0263  0.7213
 4471TIP3    H235049   3.299   3.393   0.409 -2.3737 -1.3729 -1.2564
 4472TIP3   OH235050   4.044   5.228   0.882 -0.4307  0.2248  0.1336
 4472TIP3    H135051   4.132   5.264   0.892  0.3676 -1.7958  0.8317
 4472TIP3    H235052   3.989   5.284   0.937  0.1372  2.2186 -1.1890
 4473TIP3   OH235053   3.596   0.141   6.298  0.0888  0.0017  0.2987
 4473TIP3    H135054   3.550   0.060   6.274  0.4367  0.2376 -1.2681
 4473TIP3    H235055   3.572   0.204   6.229  0.8934  0.8227  0.7413
 4474TIP3   OH235056   3.067   0.526   1.063  0.3671 -0.0526  0.4483
 4474TIP3    H135057   2.989   0.538   1.117  0.8233 -0.5758  1.2328
 4474TIP3    H235058   3.118   0.606   1.077  0.2733  0.0122  0.4236
 4475TIP3   OH235059   1.801   6.378   8.618 -0.4716 -0.0217 -0.3643
 4475TIP3    H135060   1.735   6.346   8.556 -0.4136  0.6308 -0.7662
 4475TIP3    H235061   1.826   6.463   8.584  0.1211  0.0074  0.1408
 4476TIP3   OH235062   5.071   3.402   7.063  0.5518 -0.1585  0.2338
 4476TIP3    H135063   5.130   3.362   6.999  0.3492  2.4785 -1.7707
 4476TIP3    H235064   4.983   3.378   7.032  0.4737 -0.5855  0.7665
 4477TIP3   OH235065   4.504   3.152   8.417 -0.3861 -0.2499 -0.0525
 4477TIP3    H135066   4.445   3.127   8.345 -1.3481 -1.7251  1.1738
 4477TIP3    H235067   4.579   3.093   8.409 -0.2575 -0.0776 -0.1292
 4478TIP3   OH235068   3.107   1.176   1.301  0.2849 -0.2658  0.3096
 4478TIP3    H135069   3.176   1.216   1.247  1.3284  0.2859  1.9599
 4478TIP3    H235070   3.046   1.248   1.317 -1.7341 -1.1703 -2.6138
 4479TIP3   OH235071   6.219   1.461   1.290  0.3271  0.1711 -0.3861
 4479TIP3    H135072   6.129   1.432   1.274  0.3545 -0.4421  0.4860
 4479TIP3    H235073   6.272   1.404   1.233  0.1982  0.2373 -0.5744
 4480TIP3   OH235074   4.967   5.925   2.579  0.1009 -0.0253  0.1055
 4480TIP3    H135075   4.876   5.937   2.606  0.0894 -2.1656  1.3261
 4480TIP3    H235076   5.004   5.866   2.645  2.0742 -0.0928 -0.9572
 4481TIP3   OH235077   2.970   4.891   6.828  0.4227  0.5737 -0.3236
 4481TIP3    H135078   2.922   4.821   6.785  1.7979  0.4053 -1.6587
 4481TIP3    H235079   2.976   4.960   6.762 -1.0149  2.0545  1.0029
 4482TIP3   OH235080   0.848   5.314   8.534  0.8634  0.7278 -0.2697
 4482TIP3    H135081   0.819   5.243   8.475 -1.7140  0.0644  1.6184
 4482TIP3    H235082   0.926   5.350   8.491  1.3327 -2.1565 -2.1528
 4483TIP3   OH235083   5.525   3.614   8.508  0.0378 -0.3077  0.0754
 4483TIP3    H135084   5.587   3.660   8.452  0.1430 -0.8297 -0.2446
 4483TIP3    H235085   5.494   3.680   8.569 -0.8336  0.5045 -1.2166
 4484TIP3   OH235086   4.056   6.535   7.675 -0.0082  0.2282  0.4046
 4484TIP3    H135087   3.961   6.531   7.684 -0.3159  2.3257 -1.2733
 4484TIP3    H235088   4.089   6.485   7.750 -2.4096 -2.5895 -0.2156
 4485TIP3   OH235089   2.510   6.788   0.898  0.1085  0.2315 -0.4358
 4485TIP3    H135090   2.491   6.853   0.830 -1.1665 -0.6339 -0.9528
 4485TIP3    H235091   2.542   6.839   0.972  0.7169  1.2813 -1.3759
 4486TIP3   OH235092   0.310   0.360   0.108 -0.3086 -0.3800 -0.3355
 4486TIP3    H135093   0.261   0.338   0.029 -0.4827 -0.5335 -0.1876
 4486TIP3    H235094   0.368   0.431   0.082 -0.7644 -0.0525 -0.4613
 4487TIP3   OH235095   0.772   1.927   7.828 -0.7054 -0.4066 -0.3615
 4487TIP3    H135096   0.803   1.972   7.749 -1.0399 -1.5139 -1.1414
 4487TIP3    H235097   0.697   1.979   7.857 -0.5604  0.0278 -0.7548
 4488TIP3   OH235098   6.907   4.500   1.507  0.3824  0.0428 -0.4822
 4488TIP3    H135099   6.948   4.420   1.474  1.5692  0.2478  0.4250
 4488TIP3    H235100   6.823   4.471   1.543  0.5578 -0.6961 -0.6467
 4489TIP3   OH235101   6.505   4.959   7.750  0.0599 -0.2285  0.0386
 4489TIP3    H135102   6.415   4.959   7.719  0.2740 -0.3826 -0.5967
 4489TIP3    H235103   6.504   5.014   7.829 -0.4342  0.4206 -0.4136
 4490TIP3   OH235104   6.621   4.668   7.435 -0.1320 -0.1907 -0.1706
 4490TIP3    H135105   6.569   4.598   7.475 -1.2397 -0.1589 -1.4752
 4490TIP3    H235106   6.583   4.680   7.348  1.2043  0.7974 -0.6615
 4491TIP3   OH235107   0.212   1.486   7.158 -0.0574 -1.1124 -0.3985
 4491TIP3    H135108   0.154   1.561   7.169 -0.4049 -1.5552  1.0400
 4491TIP3    H235109   0.225   1.452   7.247  2.7281 -0.8034 -0.5923
 4492TIP3   OH235110   3.975   2.956   6.650  0.2631  0.0712 -0.5275
 4492TIP3    H135111   4.012   2.879   6.608  1.9481  1.1405 -1.1429
 4492TIP3    H235112   4.038   3.026   6.630 -1.2915  1.6445 -0.1664
 4493TIP3   OH235113   1.290   3.151   6.758 -0.0815 -0.2627 -0.1742
 4493TIP3    H135114   1.299   3.075   6.701  0.3752 -0.8314  0.6297
 4493TIP3    H235115   1.318   3.119   6.844 -1.7580  0.2653  0.6090
 4494TIP3   OH235116   3.896   2.710   7.949 -0.4672  0.2646  0.3620
 4494TIP3    H135117   3.804   2.684   7.945 -0.4760  0.3350  0.0686
 4494TIP3    H235118   3.941   2.649   7.889 -0.2707  0.0085  0.7685
 4495TIP3   OH235119   3.591   6.496   8.373  0.7003 -0.0478  0.1238
 4495TIP3    H135120   3.680   6.461   8.362  0.6133 -0.2050 -0.0850
 4495TIP3    H235121   3.535   6.430   8.332  0.6550  1.1906 -1.9501
 4496TIP3   OH235122   0.581   1.958   7.363 -0.0468  0.6698  0.7472
 4496TIP3    H135123   0.564   1.979   7.272 -0.2134  1.7131  1.0085
 4496TIP3    H235124   0.523   1.884   7.382  0.0150  0.4265  0.0123
 4497TIP3   OH235125   4.649   2.447   7.234  0.3260  0.2382 -0.4053
 4497TIP3    H135126   4.730   2.431   7.185 -0.2677 -0.7677 -1.0871
 4497TIP3    H235127   4.654   2.388   7.309 -0.8562 -1.6694 -1.7482
 4498TIP3   OH235128   6.893   2.981   6.968 -0.4527  0.2880 -0.5155
 4498TIP3    H135129   6.927   2.979   7.057  0.2454 -2.1954 -0.7586
 4498TIP3    H235130   6.805   2.944   6.975  0.0848 -1.1821 -0.9574
 4499TIP3   OH235131   4.004   2.728   1.596  0.1361 -0.4659  0.3715
 4499TIP3    H135132   4.080   2.670   1.597 -0.7300 -1.6478  0.0780
 4499TIP3    H235133   3.948   2.696   1.667  0.0627  0.6244  0.8314
 4500TIP3   OH235134   3.394   6.071   8.220  0.0581 -0.4626 -0.0760
 4500TIP3    H135135   3.325   6.029   8.169  0.4044 -1.4161  0.2152
 4500TIP3    H235136   3.441   5.998   8.260  0.1152  0.2430  1.1858
 4501TIP3   OH235137   5.471   5.712   1.779 -0.0233  0.0806 -0.0939
 4501TIP3    H135138   5.495   5.630   1.736 -0.0107 -0.1948  0.4341
 4501TIP3    H235139   5.380   5.727   1.752 -0.1243 -0.2652  0.0482
 4502TIP3   OH235140   6.732   3.330   8.072  0.3505  0.6917  0.1924
 4502TIP3    H135141   6.746   3.422   8.095 -4.1283  1.6693 -0.0914
 4502TIP3    H235142   6.751   3.326   7.978  1.8293  0.9289  0.4566
 4503TIP3   OH235143   2.589   2.926   7.484  0.3807  0.2377 -0.2333
 4503TIP3    H135144   2.612   2.851   7.429 -0.5273  1.3243 -2.2060
 4503TIP3    H235145   2.494   2.919   7.496  0.3614  0.8158 -0.0185
 4504TIP3   OH235146   1.232   5.832   8.044  0.1753  0.0807  0.2778
 4504TIP3    H135147   1.231   5.836   7.949  0.3308 -2.6754  0.0747
 4504TIP3    H235148   1.316   5.870   8.069  1.0380 -1.0146 -0.8648
 4505TIP3   OH235149   4.676   4.182   1.812 -0.1086  0.0028 -0.8814
 4505TIP3    H135150   4.662   4.277   1.815 -0.7734 -0.0848 -1.1162
 4505TIP3    H235151   4.755   4.168   1.864 -1.3774  0.4224  1.2794
 4506TIP3   OH235152   6.610   5.569   8.425  0.0815  0.3665 -0.3048
 4506TIP3    H135153   6.691   5.532   8.390  1.8758  1.1781  2.6092
 4506TIP3    H235154   6.616   5.663   8.406 -0.7649  0.2807 -1.0653
 4507TIP3   OH235155   0.101   5.663   7.064 -0.4865 -0.0190  0.2767
 4507TIP3    H135156   0.147   5.596   7.013 -2.5725  0.3860 -2.4204
 4507TIP3    H235157   0.092   5.737   7.004 -2.9353  0.5872  1.2594
 4508TIP3   OH235158   5.017   1.434   0.561  0.0751  0.3224 -0.6626
 4508TIP3    H135159   5.010   1.439   0.466  0.6333  0.8784 -0.6805
 4508TIP3    H235160   5.099   1.388   0.577  1.2515  2.3578 -0.4711
 4509TIP3   OH235161   3.786   5.955   8.514 -0.1160 -0.3192  0.4494
 4509TIP3    H135162   3.718   6.008   8.554 -1.1734  0.1115 -1.7835
 4509TIP3    H235163   3.766   5.865   8.541 -0.0965  0.0426  1.7637
 4510TIP3   OH235164   3.089   3.351   7.716 -0.7852 -0.1137  0.2304
 4510TIP3    H135165   3.010   3.371   7.766  0.1250 -0.9106  2.1068
 4510TIP3    H235166   3.153   3.326   7.783  1.7841  2.6820 -0.9134
 4511TIP3   OH235167   3.419   1.044   7.369  0.2372 -0.3416 -1.0854
 4511TIP3    H135168   3.395   1.025   7.278  0.6696 -1.6131 -0.9480
 4511TIP3    H235169   3.380   1.130   7.386  0.0418 -0.1430 -2.4269
 4512TIP3   OH235170   5.196   3.655   1.651 -0.0731 -0.6201  0.3667
 4512TIP3    H135171   5.103   3.671   1.664 -0.4272 -2.0955 -0.2142
 4512TIP3    H235172   5.229   3.637   1.739  0.1190  1.8538  0.8882
 4513TIP3   OH235173   3.921   0.350   7.346 -0.7230 -0.2327 -0.3116
 4513TIP3    H135174   3.880   0.267   7.322  0.2815 -1.0700  0.7477
 4513TIP3    H235175   3.971   0.330   7.425  0.9745  0.9429 -1.0201
 4514TIP3   OH235176   6.323   1.476   0.562 -0.3562 -0.2800 -0.3301
 4514TIP3    H135177   6.323   1.517   0.476  2.8000  0.7161  0.0062
 4514TIP3    H235178   6.388   1.406   0.555  1.8006  1.3394  1.7681
 4515TIP3   OH235179   0.463   0.377   8.216 -0.1989  0.3607  0.3866
 4515TIP3    H135180   0.391   0.314   8.211  0.1117  0.0722 -0.7121
 4515TIP3    H235181   0.515   0.349   8.291 -1.7596  1.1664  1.8275
 4516TIP3   OH235182   3.279   5.480   8.194  1.2860 -0.2596  0.6772
 4516TIP3    H135183   3.329   5.539   8.252  0.4865  1.3587 -0.2070
 4516TIP3    H235184   3.188   5.494   8.220  0.7665  1.4972 -1.7400
 4517TIP3   OH235185   0.379   5.790   0.089 -0.8328  0.4999  0.1159
 4517TIP3    H135186   0.430   5.770   0.011 -0.1542 -0.6725  0.8223
 4517TIP3    H235187   0.437   5.843   0.143 -0.6998 -0.0271  0.5017
 4518TIP3   OH235188   6.784   1.930   6.996  0.3139  0.0376  0.3777
 4518TIP3    H135189   6.832   1.870   6.938  0.1796  1.9628 -1.8528
 4518TIP3    H235190   6.695   1.929   6.963 -0.1280  0.0725  1.5236
 4519TIP3   OH235191   5.544   6.558   2.044 -0.1288 -0.0476 -0.5965
 4519TIP3    H135192   5.590   6.614   2.106 -0.8071 -0.0724 -0.0622
 4519TIP3    H235193   5.571   6.469   2.067  1.9350  0.0679 -2.2375
 4520TIP3   OH235194   3.022   2.998   0.659  0.1963  1.3670 -0.1631
 4520TIP3    H135195   3.061   2.940   0.724  2.3984 -0.9691 -3.3207
 4520TIP3    H235196   2.936   3.020   0.696  0.6714 -1.0370  2.7751
 4521TIP3   OH235197   1.716   3.249   0.124 -0.3062  0.2021  0.0843
 4521TIP3    H135198   1.799   3.293   0.145  0.5236 -1.3420  0.1892
 4521TIP3    H235199   1.742   3.173   0.073 -1.7228 -0.0330 -0.3132
 4522TIP3   OH235200   2.106   6.803   8.486 -0.1499  0.4834  0.8959
 4522TIP3    H135201   2.142   6.889   8.507 -2.7485  1.3882  2.0709
 4522TIP3    H235202   2.153   6.776   8.407  0.2404  3.3316  0.0362
 4523TIP3   OH235203   1.120   6.454   0.115 -0.0588  0.7470  0.0889
 4523TIP3    H135204   1.099   6.389   0.183 -0.2832  1.0027  0.2661
 4523TIP3    H235205   1.049   6.518   0.121 -1.1336 -0.1958 -1.6345
 4524TIP3   OH235206   5.726   0.224   1.469 -0.2862  0.2265  0.2670
 4524TIP3    H135207   5.646   0.192   1.511 -0.8276  2.4395  1.0251
 4524TIP3    H235208   5.722   0.189   1.379 -2.5412  0.9834  0.0278
 4525TIP3   OH235209   0.374   4.451   2.092 -0.4892 -0.0143  0.2254
 4525TIP3    H135210   0.308   4.382   2.096 -0.8937  0.4197  2.6203
 4525TIP3    H235211   0.458   4.405   2.096 -0.7275 -0.4417  0.2912
 4526TIP3   OH235212   3.621   0.979   1.409  0.7860 -0.4173 -0.8346
 4526TIP3    H135213   3.660   0.972   1.321  0.0334  0.3022 -1.2350
 4526TIP3    H235214   3.549   1.041   1.398  0.2558 -0.8502  0.1496
 4527TIP3   OH235215   3.140   0.254   8.399  0.5559  0.1548  0.0423
 4527TIP3    H135216   3.058   0.207   8.385  0.2916  0.8114 -0.7156
 4527TIP3    H235217   3.208   0.196   8.366  0.4735 -0.6170  1.1463
 4528TIP3   OH235218   2.955   3.069   0.100 -0.2717 -0.0829  0.8142
 4528TIP3    H135219   3.011   3.042   0.172  0.5249 -1.9289 -0.4220
 4528TIP3    H235220   2.873   3.021   0.113 -0.4808  0.3253  1.0101
 4529TIP3   OH235221   3.569   0.475   1.453  0.3276 -0.3407 -0.4276
 4529TIP3    H135222   3.566   0.507   1.363 -0.2959  0.9818  0.0443
 4529TIP3    H235223   3.481   0.442   1.470  0.3777 -0.3728 -0.2234
 4530TIP3   OH235224   6.513   1.222   1.748  0.5852 -0.5488 -0.4298
 4530TIP3    H135225   6.469   1.257   1.825  4.2261  1.5789  0.9288
 4530TIP3    H235226   6.549   1.138   1.776 -0.5763 -1.2185 -0.8509
 4531TIP3   OH235227   2.421   5.384   7.045 -0.8268  0.4081 -0.0760
 4531TIP3    H135228   2.446   5.451   7.109  2.2329 -0.5037 -0.1759
 4531TIP3    H235229   2.329   5.366   7.064 -0.6325  1.7663  2.5826
 4532TIP3   OH235230   6.301   4.700   6.678  0.0540  0.0448 -0.2604
 4532TIP3    H135231   6.344   4.636   6.621  1.1120  1.1774 -0.7866
 4532TIP3    H235232   6.223   4.726   6.630 -0.4174 -0.8853 -0.0133
 4533TIP3   OH235233   3.940   6.216   8.170 -0.0122 -0.1601  0.4751
 4533TIP3    H135234   3.942   6.131   8.214 -0.0336 -0.3605  0.0905
 4533TIP3    H235235   3.932   6.279   8.241 -0.3892 -0.4983  0.7371
 4534TIP3   OH235236   2.815   5.611   0.368  0.4738  0.5393  0.2045
 4534TIP3    H135237   2.738   5.598   0.423  0.7054 -2.6716 -0.0727
 4534TIP3    H235238   2.780   5.621   0.279  0.2955  2.3711  0.4263
 4535TIP3   OH235239   1.109   4.570   6.692 -0.7883  0.2228  0.0064
 4535TIP3    H135240   1.184   4.545   6.745 -0.3953  0.8924 -0.2180
 4535TIP3    H235241   1.042   4.504   6.711 -0.7314  0.5531  1.4838
 4536TIP3   OH235242   3.502   0.524   0.216 -0.0045  0.5498  0.3301
 4536TIP3    H135243   3.520   0.531   0.122  0.8790 -0.9934  0.3623
 4536TIP3    H235244   3.418   0.479   0.221  1.4827 -2.4631  0.2419
 4537TIP3   OH235245   4.436   1.342   0.986 -0.8893 -0.0848  0.1012
 4537TIP3    H135246   4.405   1.272   0.929 -0.1092 -0.4123  0.0656
 4537TIP3    H235247   4.401   1.422   0.947  0.3245 -0.2185 -1.3429
 4538TIP3   OH235248   6.314   6.738   1.608 -0.1799  0.1409  0.0968
 4538TIP3    H135249   6.313   6.703   1.697 -0.0405 -1.0176 -0.3447
 4538TIP3    H235250   6.407   6.741   1.584 -0.2331  0.2149 -0.1028
 4539TIP3   OH235251   3.124   0.556   0.373 -0.0761  0.4692  0.0668
 4539TIP3    H135252   3.108   0.491   0.442 -1.3517  0.9559  0.2680
 4539TIP3    H235253   3.054   0.539   0.309  0.0330  1.1565 -0.2402
 4540TIP3   OH235254   6.697   1.153   0.634  0.0150  0.3456  0.2889
 4540TIP3    H135255   6.761   1.092   0.599 -1.5526 -1.1416 -0.1365
 4540TIP3    H235256   6.664   1.111   0.713 -0.8715  0.7611  0.1520
 4541TIP3   OH235257   5.508   4.254   0.035 -0.0026  1.0308 -0.0304
 4541TIP3    H135258   5.507   4.161   0.058  0.4068  1.4435  1.7685
 4541TIP3    H235259   5.429   4.267  -0.018 -1.2154  0.0737  1.4838
 4542TIP3   OH235260   3.340   1.955   1.671  0.7062  0.4191  0.4302
 4542TIP3    H135261   3.257   2.002   1.665 -0.6038 -1.9288 -1.5476
 4542TIP3    H235262   3.377   1.960   1.582  1.2948 -0.8864  0.5769
 4543TIP3   OH235263   6.495   6.193   7.544  0.3538  0.1412  0.1185
 4543TIP3    H135264   6.543   6.268   7.509  0.0381 -0.7805 -2.4409
 4543TIP3    H235265   6.457   6.150   7.468 -2.3128 -0.7300  1.7806
 4544TIP3   OH235266   5.042   3.362   1.725 -0.2889 -0.2284  0.6008
 4544TIP3    H135267   5.032   3.304   1.800 -1.4802 -0.5254  0.2341
 4544TIP3    H235268   5.044   3.450   1.763  2.9105 -0.4961  1.2787
 4545TIP3   OH235269   4.752   1.910   0.807 -0.2649  0.4132  0.1680
 4545TIP3    H135270   4.712   1.883   0.889  1.5566 -0.2828  0.8725
 4545TIP3    H235271   4.716   1.997   0.790  0.1883  1.0742  2.3205
 4546TIP3   OH235272   6.706   4.151   0.361  0.0280  0.0711 -0.1734
 4546TIP3    H135273   6.629   4.162   0.304 -0.1631  0.8742  0.2337
 4546TIP3    H235274   6.686   4.202   0.439  1.6258  1.5779 -0.6962
 4547TIP3   OH235275   5.423   4.488   2.357 -0.1908 -1.0100  0.4690
 4547TIP3    H135276   5.480   4.465   2.284 -1.1210 -0.4416 -0.4521
 4547TIP3    H235277   5.474   4.550   2.409 -0.4412  0.5680 -1.0888
 4548TIP3   OH235278   1.237   5.212   0.297 -0.5304 -0.4027 -0.0557
 4548TIP3    H135279   1.304   5.242   0.235 -2.6720 -0.8173 -2.7298
 4548TIP3    H235280   1.177   5.286   0.306 -1.1344 -0.9118  0.2240
 4549TIP3   OH235281   5.738   4.834   7.927 -0.0886  0.0941 -0.4190
 4549TIP3    H135282   5.814   4.877   7.887 -0.4551  0.8715 -0.3007
 4549TIP3    H235283   5.690   4.905   7.969 -2.3960  0.1112 -2.8380
 4550TIP3   OH235284   1.101   3.007   1.468 -0.3832  0.2544 -0.0461
 4550TIP3    H135285   1.043   2.977   1.538 -1.8503  1.2863 -0.7541
 4550TIP3    H235286   1.101   2.936   1.404  0.4476 -0.4222  0.6932
 4551TIP3   OH235287   0.816   2.590   8.453 -0.1280 -0.1962  0.0485
 4551TIP3    H135288   0.832   2.573   8.546  0.9383 -1.5071 -0.3461
 4551TIP3    H235289   0.801   2.504   8.415 -1.5065  0.4062 -0.8567
 4552TIP3   OH235290   6.928   1.312   6.756  0.3561  0.2853  0.1227
 4552TIP3    H135291   6.977   1.324   6.675 -0.5814 -0.8357 -0.6548
 4552TIP3    H235292   6.836   1.314   6.729 -0.0099  0.9569  1.3258
 4553TIP3   OH235293   1.829   5.673   7.677  0.1247  0.2888  0.8893
 4553TIP3    H135294   1.736   5.650   7.672  0.1838  0.2202 -0.0662
 4553TIP3    H235295   1.873   5.608   7.621  0.8401 -0.1365  1.9116
 4554TIP3   OH235296   5.197   5.295   0.846  0.0810 -0.4111 -0.0907
 4554TIP3    H135297   5.244   5.267   0.924 -0.7583 -1.5485  0.0276
 4554TIP3    H235298   5.217   5.229   0.780 -0.2581 -0.1611 -0.4501
 4555TIP3   OH235299   5.258   2.203   8.261 -0.0345 -0.2355 -0.4763
 4555TIP3    H135300   5.212   2.252   8.194 -1.8302  0.9102  1.4665
 4555TIP3    H235301   5.349   2.202   8.232 -0.7141  0.3070 -2.8153
 4556TIP3   OH235302   3.141   2.041   2.278  0.2505  0.2751  0.3540
 4556TIP3    H135303   3.108   2.059   2.366  0.8837  2.9351  0.1384
 4556TIP3    H235304   3.234   2.023   2.289  0.4388  1.1102  0.2184
 4557TIP3   OH235305   5.099   1.059   7.768  0.8410 -0.1275  0.0304
 4557TIP3    H135306   5.114   1.136   7.713  1.1960 -1.4608 -1.8632
 4557TIP3    H235307   5.054   0.997   7.710 -0.8985 -0.7897  1.9724
 4558TIP3   OH235308   4.452   3.805   1.680 -0.5248  0.1715 -0.0034
 4558TIP3    H135309   4.471   3.770   1.768 -0.6105 -2.2700 -0.8828
 4558TIP3    H235310   4.528   3.860   1.660  0.3619 -0.6741  0.9006
 4559TIP3   OH235311   0.441   3.344   6.883  0.1368 -0.6864 -0.6011
 4559TIP3    H135312   0.502   3.309   6.948  1.1089 -0.3962 -1.3357
 4559TIP3    H235313   0.476   3.313   6.799  0.3192  1.0204 -1.1787
 4560TIP3   OH235314   4.221   6.788   1.740 -0.1164  0.7330  0.1489
 4560TIP3    H135315   4.281   6.730   1.786 -0.6484  0.9201  1.1130
 4560TIP3    H235316   4.209   6.862   1.800 -1.5036  0.5734  0.1160
 4561TIP3   OH235317   4.015   3.864   6.383 -0.5122 -0.5243  0.0402
 4561TIP3    H135318   3.923   3.861   6.357 -0.4240 -1.4778 -0.1896
 4561TIP3    H235319   4.014   3.908   6.468 -0.9667  1.2145 -0.8255
 4562TIP3   OH235320   3.545   6.442   2.325 -0.2439  0.2722  0.0555
 4562TIP3    H135321   3.486   6.494   2.270 -0.8929 -1.9004 -1.4652
 4562TIP3    H235322   3.633   6.464   2.294 -0.5601 -0.2301 -1.2546
 4563TIP3   OH235323   2.702   1.428   0.112 -0.6282  0.5854  0.2179
 4563TIP3    H135324   2.637   1.385   0.167 -2.0612  1.2505 -0.8751
 4563TIP3    H235325   2.784   1.383   0.131 -1.7586 -1.5962  0.2457
 4564TIP3   OH235326   5.168   2.336   6.707  0.3787  0.5335 -0.0629
 4564TIP3    H135327   5.262   2.332   6.694  0.1805 -0.8375 -1.3451
 4564TIP3    H235328   5.139   2.408   6.651  0.5249  0.0823 -0.7352
 4565TIP3   OH235329   2.264   4.883   7.851 -0.3077  0.0694  0.0544
 4565TIP3    H135330   2.345   4.887   7.800  0.7321 -0.1330  1.6389
 4565TIP3    H235331   2.292   4.863   7.940 -2.1827 -1.0847  0.4514
 4566TIP3   OH235332   1.272   0.346   6.965 -0.3337 -0.0544 -0.1925
 4566TIP3    H135333   1.296   0.434   6.936 -0.7738  0.6682  1.4960
 4566TIP3    H235334   1.278   0.292   6.886 -0.9434  1.6679 -1.4775
 4567TIP3   OH235335   3.526   3.001   0.815  0.2577 -0.0947  0.1844
 4567TIP3    H135336   3.514   2.995   0.720 -1.9903  2.2004  0.2139
 4567TIP3    H235337   3.620   2.999   0.828  0.5982 -2.5371 -1.8639
 4568TIP3   OH235338   6.635   5.250   0.453  0.1502 -0.0700  0.0601
 4568TIP3    H135339   6.614   5.301   0.375 -0.4311  0.2637  0.4269
 4568TIP3    H235340   6.617   5.160   0.428  1.6957 -0.1870 -0.7662
 4569TIP3   OH235341   0.184   3.112   0.345  0.3901 -0.3762 -0.3365
 4569TIP3    H135342   0.105   3.057   0.349 -0.4381  0.8432  0.9777
 4569TIP3    H235343   0.244   3.063   0.289 -1.7188 -0.8088 -2.4176
 4570TIP3   OH235344   6.633   0.987   1.837 -0.5404 -0.9502  0.2261
 4570TIP3    H135345   6.605   0.902   1.871  0.0442 -1.4993 -0.6317
 4570TIP3    H235346   6.619   1.047   1.910  0.1930 -1.9959  1.2811
 4571TIP3   OH235347   5.454   5.008   8.431 -0.0367 -0.2508  0.3742
 4571TIP3    H135348   5.532   5.045   8.391  0.3042 -1.0707  0.2677
 4571TIP3    H235349   5.426   4.939   8.371  0.9377 -2.0491  1.8461
 4572TIP3   OH235350   3.051   6.064   2.556  0.1903  0.4183  0.2437
 4572TIP3    H135351   2.993   6.013   2.614 -2.8376  2.5499 -0.6531
 4572TIP3    H235352   3.037   6.155   2.581  2.8640  1.1057 -0.4325
 4573TIP3   OH235353   3.453   5.868   7.930 -0.3029  0.5827 -0.0995
 4573TIP3    H135354   3.434   5.856   7.837  0.1308 -2.4828  0.1141
 4573TIP3    H235355   3.545   5.845   7.939  0.2424  2.8545  0.8458
 4574TIP3   OH235356   3.455   5.031   8.006  0.3415 -0.1915 -0.2840
 4574TIP3    H135357   3.414   4.987   7.932  0.2577  0.6314 -0.7371
 4574TIP3    H235358   3.396   5.103   8.028  0.2874 -0.5176  0.6899
 4575TIP3   OH235359   4.376   1.538   2.644 -0.4417 -0.7428 -0.4123
 4575TIP3    H135360   4.385   1.529   2.549 -2.0151  1.3763 -0.8370
 4575TIP3    H235361   4.465   1.527   2.678  0.5617  0.6249 -2.3855
 4576TIP3   OH235362   2.233   1.156   8.444 -0.0919 -0.4213 -0.3746
 4576TIP3    H135363   2.283   1.204   8.509 -1.3305  1.6128 -0.8318
 4576TIP3    H235364   2.141   1.167   8.470 -0.6920  1.1221 -2.7745
 4577TIP3   OH235365   1.470   2.395   0.382 -0.3611 -0.2963  0.1251
 4577TIP3    H135366   1.507   2.367   0.466 -1.3768  0.1940  0.7594
 4577TIP3    H235367   1.529   2.464   0.352  0.5391 -1.1175 -0.0464
 4578TIP3   OH235368   5.811   3.431   1.504  0.5233 -0.7381  1.1404
 4578TIP3    H135369   5.870   3.504   1.482  0.5466 -0.3495  2.4391
 4578TIP3    H235370   5.792   3.390   1.419  0.9169  0.4587  0.4468
 4579TIP3   OH235371   6.234   2.153   0.440  0.0485 -0.1073 -0.2815
 4579TIP3    H135372   6.283   2.071   0.433  1.0737  0.5542 -1.1026
 4579TIP3    H235373   6.277   2.212   0.378 -0.8834  0.9527  0.0533
 4580TIP3   OH235374   1.934   0.356   0.489  0.1103  0.1203 -0.0327
 4580TIP3    H135375   2.006   0.419   0.479 -0.3145  0.3150 -2.2530
 4580TIP3    H235376   1.881   0.392   0.560  1.2854  0.8686  0.4976
 4581TIP3   OH235377   5.903   4.743   7.304  0.3019  0.3324 -0.4383
 4581TIP3    H135378   5.849   4.673   7.267 -2.0203  1.5866  0.3715
 4581TIP3    H235379   5.933   4.793   7.227  2.6974 -1.8977 -1.0944
 4582TIP3   OH235380   2.378   1.286   7.891 -0.0335  0.1346  0.4944
 4582TIP3    H135381   2.434   1.323   7.959  1.7120 -0.1804 -0.6957
 4582TIP3    H235382   2.413   1.322   7.810 -0.2924 -1.6146 -0.4364
 4583TIP3   OH235383   5.877   3.753   0.822 -0.0492 -0.0168 -0.0336
 4583TIP3    H135384   5.964   3.773   0.857 -0.2504  1.3826 -0.2811
 4583TIP3    H235385   5.891   3.737   0.729 -0.1059  0.7181 -0.1773
 4584TIP3   OH235386   6.670   5.771   1.782 -0.0095 -0.5978 -0.1280
 4584TIP3    H135387   6.715   5.852   1.805 -1.1567  0.6237 -1.9402
 4584TIP3    H235388   6.704   5.749   1.696  0.6990 -2.4164  0.5636
 4585TIP3   OH235389   0.732   3.253   6.883 -0.2427 -0.0459  1.0918
 4585TIP3    H135390   0.710   3.160   6.881  1.1430 -0.4006 -0.0722
 4585TIP3    H235391   0.801   3.261   6.949  1.1758 -0.2814 -0.2929
 4586TIP3   OH235392   4.080   2.923   1.764 -0.1691 -0.5918 -0.1685
 4586TIP3    H135393   4.107   2.939   1.674  1.3056 -1.3479  0.1092
 4586TIP3    H235394   4.005   2.863   1.756 -0.6476  0.0818 -0.9007
 4587TIP3   OH235395   0.041   3.773   8.156 -0.7103  0.5833  0.3291
 4587TIP3    H135396   0.136   3.787   8.154 -0.8279  1.3567 -1.1446
 4587TIP3    H235397   0.030   3.681   8.132 -0.3376  0.4934  0.4926
 4588TIP3   OH235398   4.143   2.710   0.802  0.3935 -0.5594 -0.2591
 4588TIP3    H135399   4.166   2.767   0.875 -1.6136 -0.5013  0.3851
 4588TIP3    H235400   4.173   2.757   0.724 -0.9918  1.3067  0.2676
 4589TIP3   OH235401   0.700   2.308   1.199 -0.1220 -0.1077 -0.7119
 4589TIP3    H135402   0.622   2.323   1.146  0.4525 -1.6574 -2.0846
 4589TIP3    H235403   0.743   2.394   1.202 -1.4538  0.5755 -0.5991
 4590TIP3   OH235404   4.906   6.597   7.033  0.5981 -0.1584 -0.4389
 4590TIP3    H135405   4.871   6.589   7.122 -0.1656  0.9333 -0.6205
 4590TIP3    H235406   4.850   6.540   6.980  0.5114 -0.1446 -0.3621
 4591TIP3   OH235407   2.867   4.903   8.411  0.5451  0.6349  0.0919
 4591TIP3    H135408   2.780   4.917   8.373  0.3799 -1.4648 -0.4066
 4591TIP3    H235409   2.928   4.926   8.342  0.3347  0.5055 -0.1387
 4592TIP3   OH235410   1.306   5.609   7.011  0.7054  0.3786  0.2574
 4592TIP3    H135411   1.348   5.580   7.091  0.2458  1.7657  1.0184
 4592TIP3    H235412   1.308   5.532   6.954 -1.0675 -1.4285  2.4354
 4593TIP3   OH235413   1.260   3.793   7.463  0.0114  0.0950  0.4827
 4593TIP3    H135414   1.348   3.754   7.459  0.1329  0.4296 -0.2951
 4593TIP3    H235415   1.225   3.765   7.548  0.6534 -0.5014  0.5592
 4594TIP3   OH235416   1.298   1.851   1.676  0.7717 -0.0157  0.3879
 4594TIP3    H135417   1.239   1.925   1.660 -1.6872 -1.0352  3.6956
 4594TIP3    H235418   1.364   1.886   1.736  2.6465  0.6567 -1.9321
 4595TIP3   OH235419   0.968   6.811   6.945  0.0498  0.0908 -0.2613
 4595TIP3    H135420   0.905   6.812   7.017  1.5132 -1.4158  1.1386
 4595TIP3    H235421   0.926   6.758   6.877 -0.3186 -0.7149  0.5669
 4596TIP3   OH235422   5.147   4.425   1.807  0.1023 -0.0024 -0.2591
 4596TIP3    H135423   5.166   4.332   1.820  0.8264 -0.0235 -1.4109
 4596TIP3    H235424   5.213   4.470   1.861 -0.5565 -0.1392  0.6924
 4597TIP3   OH235425   3.912   5.418   7.164  0.2731  0.4533 -0.1369
 4597TIP3    H135426   4.000   5.423   7.127  0.3240 -0.4288 -0.1660
 4597TIP3    H235427   3.854   5.432   7.089  0.3796 -1.0422 -0.5370
 4598TIP3   OH235428   6.438   2.775   1.393  0.2604  0.0087  0.0720
 4598TIP3    H135429   6.348   2.743   1.385  0.1705  0.1799  0.3563
 4598TIP3    H235430   6.473   2.731   1.471 -0.0594  1.0184  0.8130
 4599TIP3   OH235431   6.158   2.218   1.432  0.3077 -0.2848  0.3800
 4599TIP3    H135432   6.110   2.285   1.384 -0.0757 -1.2155 -0.5671
 4599TIP3    H235433   6.171   2.147   1.369  0.4480 -1.2347  1.4354
 4600TIP3   OH235434   0.070   4.033   8.529 -0.3793  0.3103  0.4835
 4600TIP3    H135435   0.118   4.000   8.605 -1.3211 -0.4208  0.7809
 4600TIP3    H235436  -0.022   4.029   8.556 -0.5982  2.5629  0.2902
 4601TIP3   OH235437   5.718   3.711   1.029 -0.0620 -0.1568  0.6632
 4601TIP3    H135438   5.757   3.779   1.085  0.0369 -0.3146  0.7852
 4601TIP3    H235439   5.773   3.711   0.950 -1.4319  1.5254 -0.3510
 4602TIP3   OH235440   3.530   0.973   7.684 -0.0185  0.5978 -0.0332
 4602TIP3    H135441   3.453   1.025   7.707 -0.8900 -0.3440 -0.6901
 4602TIP3    H235442   3.584   0.973   7.763 -0.8909  0.9504  0.5820
 4603TIP3   OH235443   4.392   4.890   2.690 -0.1964 -0.2773 -0.0794
 4603TIP3    H135444   4.486   4.905   2.680  0.1128 -1.6007  0.5951
 4603TIP3    H235445   4.361   4.866   2.603 -0.5901  3.1601 -1.0722
 4604TIP3   OH235446   6.538   4.991   0.375 -0.2649 -0.2212 -0.2348
 4604TIP3    H135447   6.474   4.921   0.374 -0.7641  0.1924  0.8764
 4604TIP3    H235448   6.546   5.018   0.283  0.1643 -1.8990 -0.7260
 4605TIP3   OH235449   5.883   1.142   7.974 -0.2636  0.3057  0.1776
 4605TIP3    H135450   5.837   1.226   7.973  1.1703  1.1263  0.8272
 4605TIP3    H235451   5.836   1.090   8.040 -1.1961  0.5575 -0.2691
 4606TIP3   OH235452   2.155   3.167   6.519  0.5527  0.0720  0.0025
 4606TIP3    H135453   2.126   3.106   6.450  0.4241  1.8162 -1.5559
 4606TIP3    H235454   2.166   3.250   6.474 -2.0232  1.9660  2.5608
 4607TIP3   OH235455   6.482   2.833   7.149  0.0293  0.6252  0.3627
 4607TIP3    H135456   6.410   2.890   7.177 -0.2235 -0.0137  1.0455
 4607TIP3    H235457   6.447   2.785   7.075 -0.0434  0.7505  0.3150
 4608TIP3   OH235458   4.583   4.597   7.844 -0.2577 -0.1792  0.2030
 4608TIP3    H135459   4.545   4.644   7.770  0.8713 -1.9712 -1.6166
 4608TIP3    H235460   4.508   4.559   7.889 -0.9022 -0.2931 -0.9242
 4609TIP3   OH235461   4.913   0.049   8.180  0.5154  0.5886 -0.5797
 4609TIP3    H135462   4.950  -0.036   8.205  1.1992  0.5337 -1.7034
 4609TIP3    H235463   4.824   0.048   8.216  1.4708  0.6403  2.0127
 4610TIP3   OH235464   0.746   4.326   7.492 -0.0946  0.4096  0.4330
 4610TIP3    H135465   0.822   4.382   7.475 -0.3768  0.1652 -2.1014
 4610TIP3    H235466   0.680   4.357   7.430 -1.5947 -0.2947  1.6205
 4611TIP3   OH235467   3.019   4.970   7.896 -0.2911 -0.0898 -0.9170
 4611TIP3    H135468   2.984   5.029   7.829 -1.5212 -0.2316 -0.4157
 4611TIP3    H235469   2.982   4.884   7.874  0.6047 -0.4672 -0.9965
 4612TIP3   OH235470   4.110   3.227   6.933  0.1430  0.4538 -0.2199
 4612TIP3    H135471   4.035   3.253   6.881 -0.4076  1.5647  1.0608
 4612TIP3    H235472   4.180   3.286   6.906  0.0449  0.5892 -0.1794
 4613TIP3   OH235473   1.565   4.867   6.974 -0.1446 -0.3377  0.7685
 4613TIP3    H135474   1.602   4.779   6.970  1.1033  0.1915 -0.9494
 4613TIP3    H235475   1.502   4.869   6.902 -0.4941  0.0463  1.0822
 4614TIP3   OH235476   2.261   5.702   0.995  0.3429  0.3671  0.0254
 4614TIP3    H135477   2.175   5.723   1.032 -0.6566 -0.4635 -1.7116
 4614TIP3    H235478   2.293   5.785   0.961  0.0739  0.6084  0.3430
 4615TIP3   OH235479   4.438   2.715   7.543  0.6231 -0.0703 -0.5715
 4615TIP3    H135480   4.497   2.717   7.468 -0.1974 -1.4870 -1.2993
 4615TIP3    H235481   4.496   2.720   7.619  1.7430 -1.6660 -1.2539
 4616TIP3   OH235482   4.867   4.700   7.468  0.1144  0.3033  0.1716
 4616TIP3    H135483   4.929   4.670   7.534 -2.4945  0.6214  2.9504
 4616TIP3    H235484   4.867   4.795   7.476  0.7209  0.4500 -1.2730
 4617TIP3   OH235485   0.283   2.319   0.693 -0.9597  0.6974 -0.1649
 4617TIP3    H135486   0.314   2.269   0.617 -1.6240 -0.2091  0.1450
 4617TIP3    H235487   0.363   2.356   0.731 -0.0953 -2.0919  0.9867
 4618TIP3   OH235488   2.545   0.330   7.727 -0.3526  0.0458  0.8638
 4618TIP3    H135489   2.520   0.246   7.690  0.1133  0.5365 -0.6360
 4618TIP3    H235490   2.620   0.310   7.783 -0.6330 -0.6148  1.0133
 4619TIP3   OH235491   5.805   1.792   7.415  0.1180 -0.4360  0.2039
 4619TIP3    H135492   5.750   1.715   7.405  1.1693 -1.5338  2.2413
 4619TIP3    H235493   5.751   1.856   7.462 -0.3842 -0.3531 -0.4816
 4620TIP3   OH235494   5.387   5.638   6.645  0.2006 -0.3600 -0.5378
 4620TIP3    H135495   5.297   5.656   6.617 -0.0313 -1.3059 -0.4472
 4620TIP3    H235496   5.401   5.547   6.620  0.1766 -1.0957  1.8703
 4621TIP3   OH235497   4.772   5.855   1.073  0.0303  0.5979  0.0815
 4621TIP3    H135498   4.818   5.789   1.125  0.2654  0.3680 -0.4148
 4621TIP3    H235499   4.823   5.935   1.084 -0.0134  0.5946  0.3295
 4622TIP3   OH235500   3.498   2.159   1.454 -0.0253  0.0973  0.0799
 4622TIP3    H135501   3.490   2.203   1.539  1.1252  1.7399 -0.6164
 4622TIP3    H235502   3.488   2.229   1.390 -0.2913 -1.0297 -1.1529
 4623TIP3   OH235503   4.795   5.694   7.686  0.0788  0.0568 -0.4044
 4623TIP3    H135504   4.790   5.609   7.641  0.7090  0.6292 -1.6178
 4623TIP3    H235505   4.708   5.706   7.725  0.5599 -2.0235  1.4976
 4624TIP3   OH235506   1.352   3.055   7.649 -0.2346  0.1004  0.1818
 4624TIP3    H135507   1.281   3.010   7.603  0.7599 -1.0908 -0.2504
 4624TIP3    H235508   1.367   3.134   7.597 -0.3456 -0.3162 -0.5093
 4625TIP3   OH235509   4.931   2.384   1.642 -0.1376 -0.2368 -0.1002
 4625TIP3    H135510   4.981   2.460   1.671 -1.4519 -0.2327  2.4670
 4625TIP3    H235511   4.996   2.327   1.601  2.0433 -0.1515  2.8570
 4626TIP3   OH235512   4.085   2.007   7.468  0.7530 -0.6568 -0.3240
 4626TIP3    H135513   4.158   2.068   7.453 -1.2543  1.4926 -2.2179
 4626TIP3    H235514   4.096   1.941   7.400  2.4953 -2.1146  1.2496
 4627TIP3   OH235515   5.626   4.955   0.681 -0.3890  0.5813 -0.1210
 4627TIP3    H135516   5.697   4.983   0.624 -2.6536  2.9582 -1.9961
 4627TIP3    H235517   5.594   4.873   0.642 -1.1714  1.5842 -1.6718
 4628TIP3   OH235518   4.480   6.279   7.352 -0.1245 -0.1831 -0.4075
 4628TIP3    H135519   4.428   6.281   7.433  1.9245  1.5872  0.9636
 4628TIP3    H235520   4.443   6.349   7.299 -1.1130 -0.9854 -0.8184
 4629TIP3   OH235521   5.720   3.658   0.335  0.5979 -0.3814  0.2465
 4629TIP3    H135522   5.793   3.706   0.297  0.6736  0.3816  1.3103
 4629TIP3    H235523   5.647   3.721   0.334 -0.1773 -1.2413 -1.1345
 4630TIP3   OH235524   4.317   0.327   0.804 -0.0237 -0.2998 -0.4053
 4630TIP3    H135525   4.370   0.270   0.748  1.7262  1.4038 -0.5820
 4630TIP3    H235526   4.271   0.385   0.743  0.3140  0.2394 -0.1517
 4631TIP3   OH235527   0.840   2.380   0.628 -0.1413 -0.1017  0.2002
 4631TIP3    H135528   0.921   2.335   0.605 -0.6490 -0.6306 -0.5895
 4631TIP3    H235529   0.867   2.449   0.689  0.8677 -0.4049  0.1050
 4632TIP3   OH235530   1.368   6.656   7.257  1.0141 -0.1393 -0.7141
 4632TIP3    H135531   1.283   6.683   7.292  1.6717  2.9339 -1.1244
 4632TIP3    H235532   1.432   6.709   7.305  2.5499 -1.0485 -1.6560
 4633TIP3   OH235533   4.673   6.852   2.450 -0.0995 -0.2328 -0.1415
 4633TIP3    H135534   4.757   6.891   2.475  0.2545 -0.3976 -1.0203
 4633TIP3    H235535   4.671   6.768   2.496  1.8934 -1.9095 -2.7929
 4634TIP3   OH235536   6.079   0.469   0.503  0.4448  0.0032 -0.0489
 4634TIP3    H135537   5.994   0.463   0.459  0.4176 -0.8348  0.1173
 4634TIP3    H235538   6.141   0.490   0.434 -0.0356  1.6798 -0.0253
 4635TIP3   OH235539   3.160   6.682   1.876  0.3749  0.3446  0.0767
 4635TIP3    H135540   3.147   6.612   1.812  1.1992  1.3414 -1.2506
 4635TIP3    H235541   3.192   6.638   1.955  1.3153 -0.7358 -0.8810
 4636TIP3   OH235542   6.626   4.933   2.341  0.0930 -0.4574  0.0517
 4636TIP3    H135543   6.619   4.972   2.254  0.1689 -0.4020  0.0703
 4636TIP3    H235544   6.682   4.857   2.329  0.3822 -0.2543  0.1168
 4637TIP3   OH235545   6.302   1.647   7.880 -0.5956  0.4488 -0.1989
 4637TIP3    H135546   6.348   1.606   7.807  0.0590 -0.3132  0.6103
 4637TIP3    H235547   6.366   1.707   7.918 -0.6669  0.2731  0.2052
 4638TIP3   OH235548   3.414   6.237   5.955 -0.0228 -0.0203 -0.4710
 4638TIP3    H135549   3.390   6.293   5.880  2.1054 -0.5421 -1.6319
 4638TIP3    H235550   3.509   6.241   5.957  0.0024 -0.6054  1.8271
 4639TIP3   OH235551   2.693   1.554   8.315 -0.3210  0.2089  0.0597
 4639TIP3    H135552   2.604   1.525   8.298 -0.0441 -0.9291  0.4676
 4639TIP3    H235553   2.718   1.602   8.237 -0.4420 -1.5487 -1.1138
 4640TIP3   OH235554   5.598   0.345   8.137  0.0313 -0.0490 -0.0591
 4640TIP3    H135555   5.567   0.267   8.091 -0.1673 -0.1126  0.1823
 4640TIP3    H235556   5.519   0.385   8.173  0.0976  0.4246 -0.4323
 4641TIP3   OH235557   1.689   4.317   0.716  0.1376 -0.4280 -0.0790
 4641TIP3    H135558   1.711   4.228   0.745  1.7868  0.5979  2.1061
 4641TIP3    H235559   1.736   4.327   0.633  0.8082 -1.2667  0.1790
 4642TIP3   OH235560   0.489   2.023   0.533 -0.7793  0.3476  0.0256
 4642TIP3    H135561   0.555   2.078   0.576 -0.7433 -0.4458  1.0101
 4642TIP3    H235562   0.457   2.077   0.461  0.7165  0.8783 -0.2883
 4643TIP3   OH235563   4.086   5.377   0.425 -0.3458  0.5243  0.2962
 4643TIP3    H135564   4.045   5.416   0.503 -0.2419  1.8122 -0.2632
 4643TIP3    H235565   4.162   5.432   0.408 -0.1807  0.0571 -0.5242
 4644TIP3   OH235566   6.174   2.722   1.401 -0.3840  0.3691 -0.4165
 4644TIP3    H135567   6.112   2.652   1.423 -0.1563  0.6434  1.2895
 4644TIP3    H235568   6.124   2.803   1.413 -0.5327  0.5295 -1.9951
 4645TIP3   OH235569   5.920   3.092   1.599  0.2499  0.4194 -0.2782
 4645TIP3    H135570   5.935   3.014   1.545  0.4536  0.1925  0.1052
 4645TIP3    H235571   5.829   3.115   1.581 -0.1823 -0.6027  0.4924
 4646TIP3   OH235572   5.314   5.109   0.608  0.1453 -0.3502  0.2421
 4646TIP3    H135573   5.348   5.022   0.589 -0.4985 -0.3192 -1.1089
 4646TIP3    H235574   5.380   5.169   0.575  0.6638 -0.2969  1.3136
 4647TIP3   OH235575   5.441   1.680   1.373  0.1797  0.1375  0.1497
 4647TIP3    H135576   5.481   1.709   1.455 -0.9544  0.3502  0.6473
 4647TIP3    H235577   5.499   1.714   1.305 -1.1789  3.9869  0.6570
 4648TIP3   OH235578   4.423   4.669   1.272 -0.3308  0.7136  0.4127
 4648TIP3    H135579   4.378   4.734   1.218  0.9027  1.6919  0.5075
 4648TIP3    H235580   4.474   4.617   1.210 -0.9650  0.1053  0.3858
 4649TIP3   OH235581   1.472   1.068   8.284 -0.4051  0.3605  0.3762
 4649TIP3    H135582   1.507   1.103   8.366  1.6491  0.0760 -0.3246
 4649TIP3    H235583   1.549   1.035   8.237 -1.8530 -2.4868 -0.2622
 4650TIP3   OH235584   3.231   5.233   6.728  0.4244  0.5031 -0.4224
 4650TIP3    H135585   3.221   5.297   6.798 -2.4266 -0.2125 -0.0443
 4650TIP3    H235586   3.278   5.279   6.659 -0.5205  2.6026  0.2784
 4651TIP3   OH235587   3.815   2.594   1.021  0.7264  0.2671  0.4552
 4651TIP3    H135588   3.836   2.521   1.078 -0.7573  1.4640  2.6781
 4651TIP3    H235589   3.874   2.664   1.048  0.8344  0.4889 -0.3271
 4652TIP3   OH235590   5.286   0.275   1.215  0.3244 -0.5869 -0.3061
 4652TIP3    H135591   5.367   0.325   1.203 -0.3109  0.6177  0.3453
 4652TIP3    H235592   5.216   0.340   1.211 -0.5399 -1.4503  0.3694
 4653TIP3   OH235593   2.477   1.167   7.391 -0.3802 -0.4360 -0.3984
 4653TIP3    H135594   2.569   1.142   7.378 -0.0842  0.1343  0.5445
 4653TIP3    H235595   2.451   1.122   7.471 -0.8132 -0.2732 -0.4469
 4654TIP3   OH235596   3.944   2.792   8.365 -0.0556  0.5209  0.2274
 4654TIP3    H135597   4.013   2.752   8.419 -0.6148  0.4881  0.9391
 4654TIP3    H235598   3.872   2.809   8.427 -0.8399  0.1920 -0.5695
 4655TIP3   OH235599   2.053   4.015   2.433  0.4801 -0.5878 -0.1393
 4655TIP3    H135600   1.966   4.020   2.393  0.4202  0.7349  0.1095
 4655TIP3    H235601   2.103   3.957   2.375 -0.3164 -0.6884 -0.7462
 4656TIP3   OH235602   0.822   5.067   1.129  0.0322  0.1792 -0.1763
 4656TIP3    H135603   0.897   5.040   1.075  0.8432  2.6526 -0.4218
 4656TIP3    H235604   0.753   5.086   1.065 -1.2853 -3.1120  0.0967
 4657TIP3   OH235605   2.542   2.604   8.410  0.0172 -0.0486  0.6756
 4657TIP3    H135606   2.545   2.559   8.495  0.4531 -0.2451  0.5606
 4657TIP3    H235607   2.520   2.534   8.348  3.6821 -0.8468  0.0441
 4658TIP3   OH235608   1.403   5.602   6.254 -0.3539 -0.0229 -0.3507
 4658TIP3    H135609   1.379   5.513   6.279 -1.0311  0.5346  1.1361
 4658TIP3    H235610   1.419   5.598   6.160 -0.6308 -1.6483 -0.3480
 4659TIP3   OH235611   2.940   2.722   0.024  0.0767  0.0260  0.1253
 4659TIP3    H135612   2.851   2.754   0.007  0.5189  2.9554  2.4321
 4659TIP3    H235613   2.929   2.656   0.092 -0.2976  1.1805  1.2123
 4660TIP3   OH235614   5.764   0.898   6.591  0.3441  0.1972 -0.0157
 4660TIP3    H135615   5.705   0.832   6.629  1.0030 -0.8307 -0.7059
 4660TIP3    H235616   5.705   0.964   6.554 -0.3846 -0.6943 -0.4915
 4661TIP3   OH235617   4.236   5.591   1.515 -0.1559 -0.0126 -0.0373
 4661TIP3    H135618   4.226   5.682   1.487  0.9234  0.1441  0.0552
 4661TIP3    H235619   4.185   5.586   1.596 -2.0110 -0.0700 -1.1536
 4662TIP3   OH235620   1.350   6.774   7.018  0.2809  0.1080 -0.0493
 4662TIP3    H135621   1.349   6.688   7.060  0.2508  0.6117  1.0219
 4662TIP3    H235622   1.300   6.830   7.078 -0.4176  0.6913 -1.1371
 4663TIP3   OH235623   4.771   5.050   0.144  0.5031  0.2955 -0.4662
 4663TIP3    H135624   4.761   5.105   0.066  1.2697 -1.1804 -1.6530
 4663TIP3    H235625   4.743   5.106   0.216  0.1959  1.8619 -1.7397
 4664TIP3   OH235626   4.133   0.210   8.042 -0.2112 -0.5881 -0.2741
 4664TIP3    H135627   4.155   0.201   8.135  0.0544 -1.6163 -0.4257
 4664TIP3    H235628   4.173   0.293   8.016  1.3086 -1.1695  0.0889
 4665TIP3   OH235629   4.456   2.001   2.185 -0.7235  0.0590  0.1703
 4665TIP3    H135630   4.474   2.094   2.198 -0.8690 -0.1190  1.8043
 4665TIP3    H235631   4.363   1.997   2.165 -0.7207  0.2500  0.1156
 4666TIP3   OH235632   1.201   4.950   7.802 -0.1245 -0.5017  0.2202
 4666TIP3    H135633   1.262   5.023   7.794 -1.1327  0.1540 -2.9202
 4666TIP3    H235634   1.239   4.894   7.870  3.0586  0.6967 -0.3860
 4667TIP3   OH235635   4.979   1.129   8.005  0.8540  0.0358 -0.5911
 4667TIP3    H135636   4.886   1.108   8.009  0.9794 -0.3749  0.3687
 4667TIP3    H235637   4.996   1.145   7.912 -0.5747  1.9896 -0.5694
 4668TIP3   OH235638   5.163   0.100   7.347 -0.3336 -0.2070 -0.3271
 4668TIP3    H135639   5.132   0.009   7.345 -3.1025  0.6171  0.8551
 4668TIP3    H235640   5.113   0.144   7.279 -0.3392  0.8053  0.3222
 4669TIP3   OH235641   0.310   1.356   1.072  0.0899  0.1148 -0.2263
 4669TIP3    H135642   0.380   1.403   1.028  0.4354  0.2267  0.4258
 4669TIP3    H235643   0.303   1.273   1.025  0.9199 -0.0537 -0.0694
 4670TIP3   OH235644   2.964   5.946   0.418 -0.0527  0.2637 -0.0865
 4670TIP3    H135645   3.039   5.888   0.430 -1.0370 -0.7301  1.6965
 4670TIP3    H235646   2.930   5.924   0.331  0.5292 -0.6953 -0.0837
 4671TIP3   OH235647   4.332   4.158   0.103  0.5254 -0.4754 -0.5332
 4671TIP3    H135648   4.322   4.150   0.008 -0.2682  1.2420 -0.6207
 4671TIP3    H235649   4.416   4.203   0.115 -0.1192  0.7289 -0.4925
 4672TIP3   OH235650   4.403   4.943   1.221  0.6659 -0.3056 -0.1307
 4672TIP3    H135651   4.394   5.022   1.274  1.2056 -0.2979 -0.0374
 4672TIP3    H235652   4.466   4.889   1.270  0.7709 -0.5244 -0.5018
 4673TIP3   OH235653   4.843   2.289   7.123 -0.8773  0.0704  0.1182
 4673TIP3    H135654   4.904   2.237   7.071 -0.9728  0.5354 -0.4738
 4673TIP3    H235655   4.878   2.286   7.212  1.8476  2.8626 -0.6594
 4674TIP3   OH235656   3.606   0.732   0.950 -1.0548 -0.3608 -0.3095
 4674TIP3    H135657   3.611   0.637   0.936 -0.5058 -0.2156 -1.2011
 4674TIP3    H235658   3.697   0.762   0.942 -1.3054  0.3204 -0.7221
 4675TIP3   OH235659   5.763   6.895   0.277 -0.3616  0.1025  0.0453
 4675TIP3    H135660   5.803   6.936   0.200  0.4950 -0.2133  0.3107
 4675TIP3    H235661   5.834   6.891   0.342 -1.3161  1.2684  1.2256
 4676TIP3   OH235662   1.906   4.361   0.549 -0.4538 -0.2917  0.5167
 4676TIP3    H135663   1.977   4.302   0.524 -0.1815  0.7038 -1.1787
 4676TIP3    H235664   1.951   4.437   0.585 -0.7769 -0.6760  1.7922
 4677TIP3   OH235665   6.919   4.673   7.608 -0.0932  0.3823  0.3311
 4677TIP3    H135666   6.851   4.740   7.598 -0.4608  0.4256  2.6260
 4677TIP3    H235667   6.898   4.608   7.541 -3.3301 -0.3418  1.8570
 4678TIP3   OH235668   2.557   5.822   8.597  0.6276 -0.3917  0.1161
 4678TIP3    H135669   2.629   5.880   8.573  2.1352 -2.7816 -1.6427
 4678TIP3    H235670   2.567   5.747   8.538 -1.8553 -1.9214  1.5057
 4679TIP3   OH235671   3.389   1.292   7.416 -0.5754 -0.7618  0.3047
 4679TIP3    H135672   3.460   1.356   7.421 -0.1732 -0.9421 -1.8844
 4679TIP3    H235673   3.314   1.335   7.457 -0.5324  1.4904 -1.7841
 4680TIP3   OH235674   0.758   0.169   2.632  0.2448 -0.2261  0.3670
 4680TIP3    H135675   0.694   0.138   2.697  2.6422 -1.0117  2.5284
 4680TIP3    H235676   0.810   0.091   2.611  1.3471  0.6541 -0.2667
 4681TIP3   OH235677   1.447   5.797   1.268 -0.5874  0.4489  0.3006
 4681TIP3    H135678   1.378   5.850   1.229 -1.0459  1.1243  1.9496
 4681TIP3    H235679   1.401   5.741   1.331  0.3682  1.0970  1.6218
 4682TIP3   OH235680   4.587   0.129   1.044 -0.0610 -0.0543  0.1483
 4682TIP3    H135681   4.658   0.133   0.980 -0.5208  1.4642 -0.3022
 4682TIP3    H235682   4.588   0.213   1.088  0.3483 -1.1215  2.3184
 4683TIP3   OH235683   3.125   2.360   7.930  0.0285 -0.0485  0.2773
 4683TIP3    H135684   3.204   2.373   7.879  0.6525 -0.6424  1.0769
 4683TIP3    H235685   3.152   2.306   8.004 -1.0473  0.0262  0.7470
 4684TIP3   OH235686   0.091   4.487   7.420  0.6819  0.2059 -0.1096
 4684TIP3    H135687   0.151   4.549   7.378  1.9696  0.1475  1.5550
 4684TIP3    H235688   0.138   4.456   7.497 -0.8127 -1.1995  0.2947
 4685TIP3   OH235689   1.460   5.603   5.941  0.0450 -0.1058  0.2849
 4685TIP3    H135690   1.518   5.529   5.922 -0.1156 -0.7149  1.9351
 4685TIP3    H235691   1.374   5.576   5.909  0.0777 -0.4630  0.4943
 4686TIP3   OH235692   5.110   1.795   1.580  0.3563  0.2908  0.2870
 4686TIP3    H135693   5.148   1.862   1.524  0.8319  0.0645  0.3293
 4686TIP3    H235694   5.104   1.717   1.524  0.8424  0.0613  0.5439
 4687TIP3   OH235695   0.695   6.865   8.294  0.8887  0.1622  0.0837
 4687TIP3    H135696   0.741   6.817   8.225 -0.7227  0.9193 -1.6273
 4687TIP3    H235697   0.710   6.957   8.272 -2.0163  0.4613 -1.0875
 4688TIP3   OH235698   3.987   0.425   6.790  0.3168 -0.1265  0.1979
 4688TIP3    H135699   4.019   0.412   6.879  1.9179 -0.1994 -0.3504
 4688TIP3    H235700   4.042   0.494   6.755 -2.3366  2.1921  0.2279
 4689TIP3   OH235701   0.713   2.585   7.444 -0.2662  0.0017  0.0817
 4689TIP3    H135702   0.618   2.581   7.452 -0.0872 -2.0095  2.2643
 4689TIP3    H235703   0.729   2.600   7.351 -2.6986  1.0583 -0.2393
 4690TIP3   OH235704   1.509   6.611   8.360  0.1206 -0.6033 -0.1681
 4690TIP3    H135705   1.437   6.582   8.416 -0.8746  1.4776 -0.2558
 4690TIP3    H235706   1.466   6.663   8.291  1.7010  1.0024 -0.0097
 4691TIP3   OH235707   3.939   2.473   8.269 -0.1568  0.0613 -0.5945
 4691TIP3    H135708   3.939   2.378   8.283  3.1981  0.1841  1.3041
 4691TIP3    H235709   3.904   2.509   8.350 -0.7685  0.4945 -1.0426
 4692TIP3   OH235710   2.646   3.811   1.439  0.3569  0.1336  0.3839
 4692TIP3    H135711   2.560   3.822   1.399  1.2221  0.0533 -1.6037
 4692TIP3    H235712   2.666   3.718   1.426  2.0482  0.7418 -2.1208
 4693TIP3   OH235713   3.766   6.833   6.782 -0.1333 -0.0268  0.1254
 4693TIP3    H135714   3.828   6.772   6.820 -1.3534 -1.5647 -0.2508
 4693TIP3    H235715   3.820   6.895   6.733  1.0685 -1.8489 -0.9554
 4694TIP3   OH235716   2.805   3.327   0.973  0.5022  0.3625 -0.6763
 4694TIP3    H135717   2.822   3.303   1.064  1.0102 -0.6435 -1.0222
 4694TIP3    H235718   2.761   3.412   0.978  0.7691  0.4420  0.4906
 4695TIP3   OH235719   5.253   6.514   6.911  0.1443  0.4785  0.0353
 4695TIP3    H135720   5.206   6.483   6.833 -1.2615  0.3518  0.9135
 4695TIP3    H235721   5.327   6.454   6.919  0.1886  0.3543 -1.0625
 4696TIP3   OH235722   6.345   1.622   8.267  0.2083 -0.2104  0.6768
 4696TIP3    H135723   6.394   1.703   8.253 -2.5886  1.4207 -0.5528
 4696TIP3    H235724   6.264   1.650   8.310 -1.0175 -2.2839 -0.1204
 4697TIP3   OH235725   3.528   6.570   5.782  0.2980 -0.2617  0.7992
 4697TIP3    H135726   3.447   6.519   5.789 -0.8973  1.4817  0.5121
 4697TIP3    H235727   3.533   6.618   5.865  0.5632  0.2856  0.4709
 4698TIP3   OH235728   2.302   6.167   0.331  0.4696 -0.3313 -0.1954
 4698TIP3    H135729   2.358   6.113   0.275  1.7740  0.1353  0.6217
 4698TIP3    H235730   2.304   6.254   0.291  0.3209 -0.3127 -0.1644
 4699TIP3   OH235731   0.504   6.860   1.024 -0.0352 -0.2079 -0.4373
 4699TIP3    H135732   0.487   6.840   1.116  1.5821  0.2929  0.0100
 4699TIP3    H235733   0.466   6.786   0.976 -0.5441 -0.6784  0.6529
 4700TIP3   OH235734   0.627   6.625   1.184 -0.0253  0.4071 -0.1108
 4700TIP3    H135735   0.578   6.546   1.205  1.9815 -1.0527 -0.6504
 4700TIP3    H235736   0.622   6.678   1.264  0.0046 -1.0347  0.8907
 4701TIP3   OH235737   3.663   1.496   0.080 -0.4419 -0.2514  0.2416
 4701TIP3    H135738   3.609   1.575   0.081  2.0131  1.5519  1.4919
 4701TIP3    H235739   3.621   1.437   0.143 -1.1165  0.9634  0.9573
 4702TIP3   OH235740   4.090   3.705   1.753  0.0441 -0.0595  0.1634
 4702TIP3    H135741   4.019   3.688   1.815  0.1180 -1.5452 -0.1216
 4702TIP3    H235742   4.167   3.668   1.795 -0.1141 -2.2151 -1.2734
 4703TIP3   OH235743   5.564   1.456   2.242 -0.3009  0.7366  0.6254
 4703TIP3    H135744   5.635   1.520   2.246 -0.4428  0.9672 -0.3234
 4703TIP3    H235745   5.504   1.490   2.175  0.2508 -0.9822 -0.8419
 4704TIP3   OH235746   0.673   6.713   1.752  0.2851 -0.1625  0.3874
 4704TIP3    H135747   0.692   6.621   1.773  2.4093  0.4446  1.3722
 4704TIP3    H235748   0.617   6.743   1.824 -0.2310 -0.6169  0.1815
 4705TIP3   OH235749   1.477   1.464   7.652 -0.2771 -0.1810  0.9778
 4705TIP3    H135750   1.462   1.417   7.570  0.5727 -0.4494  0.9696
 4705TIP3    H235751   1.470   1.556   7.628 -0.6705 -0.2727  0.7331
 4706TIP3   OH235752   6.412   0.660   7.799  0.5987 -0.4983 -0.1231
 4706TIP3    H135753   6.340   0.649   7.737  1.0888 -1.3388 -0.5609
 4706TIP3    H235754   6.378   0.624   7.881 -1.0098  2.9669  0.9100
 4707TIP3   OH235755   5.813   6.270   8.355  0.4595  0.5862 -0.1009
 4707TIP3    H135756   5.775   6.318   8.281 -0.6773 -0.2345 -0.0621
 4707TIP3    H235757   5.890   6.226   8.318  0.1288  0.5074 -0.6959
 4708TIP3   OH235758   1.630   4.317   7.317  0.0800 -0.9564  0.0933
 4708TIP3    H135759   1.715   4.350   7.287 -0.4987 -0.7019 -1.3506
 4708TIP3    H235760   1.628   4.338   7.410 -0.1233  2.9805 -0.6125
 4709TIP3   OH235761   1.695   5.234   7.945 -0.0362 -0.3495  0.1066
 4709TIP3    H135762   1.769   5.264   7.998 -1.1475  2.3781  0.2708
 4709TIP3    H235763   1.663   5.157   7.991  0.8425  0.2096  1.7418
 4710TIP3   OH235764   1.212   2.984   7.227  0.5577 -0.0364  0.2954
 4710TIP3    H135765   1.148   2.914   7.213  0.2718  0.5825 -1.8946
 4710TIP3    H235766   1.172   3.040   7.293  0.1450 -1.1601  1.0266
 4711TIP3   OH235767   2.181   1.506   8.547 -0.2049 -0.4445 -0.6417
 4711TIP3    H135768   2.217   1.564   8.615 -0.3974 -0.0718 -0.8558
 4711TIP3    H235769   2.097   1.477   8.583  0.1478 -1.0566 -0.2848
 4712TIP3   OH235770   5.431   4.330   8.262  0.3568 -0.2666 -0.4478
 4712TIP3    H135771   5.399   4.336   8.352  2.4978 -0.4939  0.3928
 4712TIP3    H235772   5.443   4.237   8.246  0.8618 -0.1728 -0.6405
 4713TIP3   OH235773   5.867   2.791   1.041 -0.6204  0.3091  0.5240
 4713TIP3    H135774   5.896   2.748   0.961 -0.8904  1.5771 -0.2776
 4713TIP3    H235775   5.791   2.740   1.070 -2.3447  1.4790 -1.6479
 4714TIP3   OH235776   4.251   0.837   8.306  0.0974 -0.0075 -0.1631
 4714TIP3    H135777   4.255   0.848   8.211  0.3830  0.4725 -0.1052
 4714TIP3    H235778   4.238   0.926   8.339 -0.6850 -0.2597  0.2172
 4715TIP3   OH235779   4.667   1.996   6.456  0.0985 -0.0063  0.3318
 4715TIP3    H135780   4.621   1.925   6.411  0.9579 -1.8876  2.2386
 4715TIP3    H235781   4.728   2.031   6.390  1.2632 -2.5883 -0.1071
 4716TIP3   OH235782   0.735   0.959   1.030  0.0056  0.7791 -0.0036
 4716TIP3    H135783   0.708   1.049   1.050  0.2458  0.6154  1.1064
 4716TIP3    H235784   0.767   0.963   0.940  2.2285  2.3151  0.7712
 4717TIP3   OH235785   3.944   4.756   8.129  0.0226  0.1536 -0.7195
 4717TIP3    H135786   3.938   4.791   8.041 -1.2437 -0.9740 -1.1250
 4717TIP3    H235787   3.957   4.662   8.116 -0.7311 -0.1045  0.2772
 4718TIP3   OH235788   1.310   1.748   8.213  0.2703  0.5581  0.2496
 4718TIP3    H135789   1.315   1.753   8.308 -3.4570 -1.0709  0.6762
 4718TIP3    H235790   1.222   1.777   8.191  0.3779 -0.8675 -2.5377
 4719TIP3   OH235791   0.136   5.825   1.448  0.3617 -0.1747 -0.0310
 4719TIP3    H135792   0.174   5.739   1.430  0.8952  0.1560 -0.5072
 4719TIP3    H235793   0.126   5.827   1.543 -0.1482 -0.9677 -0.0577
 4720TIP3   OH235794   3.863   5.395   0.202 -0.9484 -0.6686 -0.0611
 4720TIP3    H135795   3.958   5.386   0.208 -0.8936 -0.6654 -0.8681
 4720TIP3    H235796   3.844   5.476   0.248 -0.7226 -1.3882  1.3501
 4721TIP3   OH235797   2.973   1.458   7.548 -0.2421  0.3721 -0.3706
 4721TIP3    H135798   2.977   1.458   7.452  1.7815 -0.3304 -0.3270
 4721TIP3    H235799   2.888   1.419   7.567 -0.5593  0.2343 -1.8882
 4722TIP3   OH235800   6.045   1.029   6.881 -0.1890 -0.2462 -0.2519
 4722TIP3    H135801   6.028   0.936   6.864 -2.4371  0.2430 -1.0843
 4722TIP3    H235802   5.964   1.061   6.920  1.2147  0.9931  1.8518
 4723TIP3   OH235803   3.785   2.007   7.472  0.6229  0.5838 -0.6129
 4723TIP3    H135804   3.782   1.930   7.529  1.2575 -0.0126 -1.3544
 4723TIP3    H235805   3.846   2.067   7.516 -0.2910  0.9194  0.2458
 4724TIP3   OH235806   3.819   5.812   7.313 -0.2086  0.4869 -0.4773
 4724TIP3    H135807   3.892   5.814   7.375 -1.0228  0.4819  0.5124
 4724TIP3    H235808   3.793   5.903   7.304 -0.4534  0.4300 -0.3591
 4725TIP3   OH235809   0.800   2.489   6.982  0.1300 -0.0308 -0.3134
 4725TIP3    H135810   0.886   2.505   6.943  0.1004 -0.8494 -0.7491
 4725TIP3    H235811   0.770   2.408   6.941 -0.8080  0.1884 -0.0885
 4726TIP3   OH235812   1.783   0.126   7.922  0.2352 -0.1528  0.4826
 4726TIP3    H135813   1.715   0.078   7.874 -0.0466  2.0130 -1.4694
 4726TIP3    H235814   1.863   0.075   7.908  0.1685  0.3527 -2.4327
 4727TIP3   OH235815   4.778   2.328   2.482  0.2451  0.0693 -0.2599
 4727TIP3    H135816   4.696   2.306   2.437 -0.7348  0.9272  1.0322
 4727TIP3    H235817   4.774   2.281   2.565  1.6912 -0.9108 -0.7158
 4728TIP3   OH235818   0.578   3.984   0.220 -0.6778 -0.2878 -0.2468
 4728TIP3    H135819   0.596   4.012   0.130  2.1768  0.3510  0.4233
 4728TIP3    H235820   0.596   3.890   0.220 -1.8853 -0.5352 -0.5798
 4729TIP3   OH235821   1.021   6.423   8.195  0.1037 -0.6130 -0.1988
 4729TIP3    H135822   1.034   6.348   8.253 -0.7339 -2.6542 -2.4612
 4729TIP3    H235823   1.099   6.422   8.138  0.5123  0.8245  0.3003
 4730TIP3   OH235824   6.675   5.323   0.162  0.0534  0.0543  0.1050
 4730TIP3    H135825   6.637   5.379   0.094  0.5649 -0.0058 -0.2348
 4730TIP3    H235826   6.631   5.239   0.151  0.3202 -0.0315 -0.3250
 4731TIP3   OH235827   0.248   4.246   6.772 -0.0230 -0.4603  0.0033
 4731TIP3    H135828   0.281   4.156   6.777  1.4437 -0.1586 -2.5682
 4731TIP3    H235829   0.195   4.248   6.693  0.6177  1.0999 -0.4242
 4732TIP3   OH235830   3.321   5.060   7.232 -0.3382  0.0239  0.2342
 4732TIP3    H135831   3.414   5.047   7.248 -0.5652  1.0107  2.9059
 4732TIP3    H235832   3.280   5.044   7.317 -2.6845 -0.8349 -0.9837
 4733TIP3   OH235833   5.274   1.326   0.587  0.1054 -0.0902  0.2634
 4733TIP3    H135834   5.334   1.385   0.542 -0.9566 -1.2637 -2.9988
 4733TIP3    H235835   5.303   1.238   0.562 -0.9613 -0.8017  1.3810
 4734TIP3   OH235836   3.023   2.459   0.142  0.2661 -1.1965  0.1307
 4734TIP3    H135837   2.981   2.419   0.217  0.9368 -1.4628  0.3689
 4734TIP3    H235838   3.116   2.460   0.163  0.2751  0.5773  0.1781
 4735TIP3   OH235839   6.617   4.388   1.389  0.5215 -0.4803 -0.1611
 4735TIP3    H135840   6.530   4.422   1.411  0.9190 -0.1406  0.9424
 4735TIP3    H235841   6.609   4.293   1.395  0.6144 -0.3993  1.4944
 4736TIP3   OH235842   6.651   2.678   1.200  0.0904  0.3796 -0.5338
 4736TIP3    H135843   6.738   2.654   1.234  0.2637 -0.1337 -1.3064
 4736TIP3    H235844   6.602   2.706   1.277  1.7461  3.2546 -0.3588
 4737TIP3   OH235845   4.717   5.285   0.415 -0.0170  0.0630  0.0582
 4737TIP3    H135846   4.773   5.306   0.490 -0.6987 -2.7074  1.5231
 4737TIP3    H235847   4.768   5.312   0.339  1.0048  2.3989  1.4614
 4738TIP3   OH235848   4.392   2.634   0.134  0.0254 -0.0118 -0.3173
 4738TIP3    H135849   4.308   2.679   0.134 -0.5797 -1.0420  1.0722
 4738TIP3    H235850   4.453   2.695   0.091 -0.6774  2.2309  1.6587
 4739TIP3   OH235851   4.481   6.012   7.348 -0.0883 -0.2826  0.6376
 4739TIP3    H135852   4.454   6.100   7.376  0.3741 -0.6842  2.5358
 4739TIP3    H235853   4.545   6.028   7.278  0.4804  0.9482  1.3886
 4740TIP3   OH235854   6.779   6.526   0.282 -0.2812  0.3056 -0.7272
 4740TIP3    H135855   6.867   6.557   0.304  0.4841 -2.9967  1.5225
 4740TIP3    H235856   6.729   6.537   0.363  0.0882 -4.0714  0.2976
 4741TIP3   OH235857   5.405   5.801   7.136  0.1932 -0.1979  0.1063
 4741TIP3    H135858   5.424   5.736   7.068 -0.4575 -0.0342 -0.2400
 4741TIP3    H235859   5.365   5.874   7.089 -1.3307 -0.5504  0.7995
 4742TIP3   OH235860   0.593   4.040   8.572  0.4443 -0.2204  0.1766
 4742TIP3    H135861   0.555   4.111   8.519 -1.5466 -1.4073 -0.0949
 4742TIP3    H235862   0.537   3.965   8.554  2.4910 -1.8991  0.4659
 4743TIP3   OH235863   2.762   2.228   6.729  0.4131 -0.6666  0.3347
 4743TIP3    H135864   2.848   2.249   6.692 -0.4369 -0.9515 -1.9807
 4743TIP3    H235865   2.741   2.142   6.694 -1.1192 -0.2823  0.2509
 4744TIP3   OH235866   1.037   1.601   0.395  0.5661 -0.6049  0.0386
 4744TIP3    H135867   0.970   1.670   0.399 -0.5385 -1.6843  1.2517
 4744TIP3    H235868   0.987   1.519   0.395  1.8887 -1.4563  1.0807
 4745TIP3   OH235869   4.233   4.004   1.663  0.3490  0.3443  0.3070
 4745TIP3    H135870   4.282   3.961   1.733  0.3035  1.7025  1.2063
 4745TIP3    H235871   4.186   3.932   1.619  1.4668 -0.7042  0.7593
 4746TIP3   OH235872   5.891   4.952   0.575  0.4811 -0.1782 -0.5119
 4746TIP3    H135873   5.930   4.933   0.660 -2.2908  0.4402  1.0123
 4746TIP3    H235874   5.900   4.871   0.525  1.7929 -0.6774  0.4851
 4747TIP3   OH235875   1.540   6.663   6.875 -0.2025  0.1956 -0.3548
 4747TIP3    H135876   1.487   6.592   6.913  0.4489  0.1712  0.5342
 4747TIP3    H235877   1.488   6.742   6.891  0.4309  0.3068  1.4127
 4748TIP3   OH235878   1.003   6.211   8.503  0.3374 -0.3415 -0.2607
 4748TIP3    H135879   1.014   6.184   8.594  0.7384  0.0931 -0.1791
 4748TIP3    H235880   1.085   6.184   8.461 -0.2076 -1.3829 -0.7064
 4749TIP3   OH235881   5.441   6.085   7.198  0.6237  0.0945 -0.5453
 4749TIP3    H135882   5.408   6.171   7.224 -0.3899 -0.3335 -0.3850
 4749TIP3    H235883   5.396   6.066   7.116 -1.4510 -1.5465  0.8618
 4750TIP3   OH235884   5.004   0.139   0.049  0.1537 -0.0280 -0.3057
 4750TIP3    H135885   4.931   0.080   0.032  0.4426 -0.2858 -0.6780
 4750TIP3    H235886   4.971   0.226   0.028 -0.9999  0.2655  2.3965
 4751TIP3   OH235887   3.238   4.921   7.696  0.7134 -0.2253  0.5644
 4751TIP3    H135888   3.233   5.010   7.731 -0.8253  0.0554 -0.2793
 4751TIP3    H235889   3.287   4.873   7.762 -1.0695  0.5415  2.6025
 4752TIP3   OH235890   5.929   1.769   1.179 -0.4474  0.3153 -0.0866
 4752TIP3    H135891   5.902   1.861   1.181  0.6763  0.6680 -0.4759
 4752TIP3    H235892   5.999   1.762   1.243 -0.0296 -0.0986 -0.5738
 4753TIP3   OH235893   0.957   3.361   8.032 -0.3106 -0.0113  0.0447
 4753TIP3    H135894   0.945   3.424   8.103 -0.9961 -0.5199  0.3876
 4753TIP3    H235895   0.875   3.312   8.029 -0.5051  0.3699 -1.4806
 4754TIP3   OH235896   6.031   2.277   2.038 -0.5883  0.5187  0.3469
 4754TIP3    H135897   5.937   2.296   2.032 -0.3024  1.6092 -0.8653
 4754TIP3    H235898   6.065   2.342   2.099 -0.4515  0.7865 -0.0112
 4755TIP3   OH235899   1.082   6.173   7.927 -0.6741  1.1625  0.3178
 4755TIP3    H135900   1.172   6.201   7.943  0.4362 -1.7307 -0.3041
 4755TIP3    H235901   1.047   6.153   8.014 -0.1788  0.8277  0.4434
 4756TIP3   OH235902   1.741   0.940   1.088 -0.2417  0.1259  0.0231
 4756TIP3    H135903   1.766   0.900   1.171 -1.5494 -1.3723 -0.2585
 4756TIP3    H235904   1.727   0.867   1.029 -0.3926  1.1239 -1.2243
 4757TIP3   OH235905   4.168   5.838   7.280  0.4981 -0.2187  0.1526
 4757TIP3    H135906   4.173   5.766   7.217  0.9326 -2.2497  2.3503
 4757TIP3    H235907   4.143   5.796   7.362  1.6057  2.0310  1.7447
 4758TIP3   OH235908   5.722   5.280   0.148 -0.5228 -0.2474  0.2943
 4758TIP3    H135909   5.701   5.368   0.116  0.1202  0.5061  1.8540
 4758TIP3    H235910   5.807   5.289   0.190  0.0571 -1.8761 -0.4311
 4759TIP3   OH235911   2.165   3.885   0.078  0.1703 -0.1649  0.2190
 4759TIP3    H135912   2.189   3.978   0.073 -0.2575  0.0785  2.1010
 4759TIP3    H235913   2.102   3.873   0.007  0.1800  1.0049 -0.0045
 4760TIP3   OH235914   4.208   3.070   1.085 -0.7975 -0.2991  0.1967
 4760TIP3    H135915   4.145   3.063   1.014  0.2726 -0.2601 -0.7866
 4760TIP3    H235916   4.224   2.980   1.112  1.0266 -0.6076 -1.6778
 4761TIP3   OH235917   0.143   1.186   7.176  0.0538 -0.8400  0.5140
 4761TIP3    H135918   0.138   1.093   7.198  2.2950 -0.5475  2.7703
 4761TIP3    H235919   0.149   1.230   7.261  1.7174  1.1224 -0.5245
 4762TIP3   OH235920   2.558   6.125   2.611  0.0618  0.3634  0.6641
 4762TIP3    H135921   2.578   6.033   2.591  0.7597  0.5921  0.3092
 4762TIP3    H235922   2.617   6.176   2.556 -0.2301  1.0344  0.9555
 4763TIP3   OH235923   2.337   3.924   6.324 -0.2721 -0.6577  0.4815
 4763TIP3    H135924   2.263   3.939   6.265  0.1895 -2.3923 -0.5960
 4763TIP3    H235925   2.380   4.009   6.330  0.7383 -0.7261 -3.2221
 4764TIP3   OH235926   0.265   3.588   1.828 -0.3802 -0.4493  0.1788
 4764TIP3    H135927   0.309   3.572   1.745  0.0119 -1.1888  0.5205
 4764TIP3    H235928   0.276   3.507   1.877  0.0743  0.2352  1.2541
 4765TIP3   OH235929   3.876   4.282   0.617  0.3046  0.0683  0.5880
 4765TIP3    H135930   3.807   4.348   0.601 -0.1885 -0.5108  0.2722
 4765TIP3    H235931   3.958   4.330   0.605 -0.0494  0.5372 -0.0239
 4766TIP3   OH235932   3.098   3.097   2.289 -0.2156 -0.1214 -0.3052
 4766TIP3    H135933   3.149   3.126   2.365 -0.7578 -1.2317  0.5108
 4766TIP3    H235934   3.025   3.159   2.285 -1.1059 -1.0093  1.1351
 4767TIP3   OH235935   0.666   1.660   0.289 -0.3036 -0.5054  0.2566
 4767TIP3    H135936   0.719   1.649   0.210  2.7110  0.4708  2.0038
 4767TIP3    H235937   0.636   1.571   0.310  1.9189 -1.3949 -0.0409
 4768TIP3   OH235938   3.198   0.358   6.732  0.1057  0.9684  0.2937
 4768TIP3    H135939   3.225   0.268   6.750 -0.3190  0.8953  0.5700
 4768TIP3    H235940   3.212   0.369   6.638 -1.0442  0.2012  0.0145
 4769TIP3   OH235941   3.500   2.858   1.188  0.0587 -0.1579 -0.8109
 4769TIP3    H135942   3.446   2.932   1.215  2.7007  1.0036  1.8715
 4769TIP3    H235943   3.465   2.832   1.103 -2.3976  2.7209 -0.8328
 4770TIP3   OH235944   2.669   0.255   7.104 -0.5469 -0.0449  0.3658
 4770TIP3    H135945   2.621   0.173   7.113  1.4854 -1.1904  2.0288
 4770TIP3    H235946   2.717   0.263   7.187 -0.4950  2.7330  0.1613
 4771TIP3   OH235947   5.302   4.158   7.649  0.1991  0.0671  0.2971
 4771TIP3    H135948   5.274   4.213   7.722 -0.1974  0.1991  0.0487
 4771TIP3    H235949   5.220   4.130   7.608  0.4277  0.4214 -0.4141
 4772TIP3   OH235950   0.427   6.035   1.011  0.4454 -0.4073  0.1375
 4772TIP3    H135951   0.397   5.976   1.080  1.4887 -1.5564 -0.3493
 4772TIP3    H235952   0.438   6.119   1.055 -2.6946 -0.0553  0.4744
 4773TIP3   OH235953   6.348   6.193   8.053 -0.1747  0.1300 -0.0742
 4773TIP3    H135954   6.388   6.279   8.045  0.5287 -0.1479  0.3204
 4773TIP3    H235955   6.313   6.175   7.966  0.4646  0.4391 -0.4059
 4774TIP3   OH235956   3.285   5.178   7.848 -0.3226 -0.1514  0.7978
 4774TIP3    H135957   3.340   5.254   7.828 -0.8678  0.6288  2.1015
 4774TIP3    H235958   3.201   5.215   7.874 -1.3263 -1.3065 -0.6615
 4775TIP3   OH235959   5.137   2.044   7.237 -0.3846 -0.3201 -0.2236
 4775TIP3    H135960   5.069   1.982   7.209 -0.5290 -0.0001 -0.5873
 4775TIP3    H235961   5.133   2.115   7.173 -0.4280  0.2156  0.3650
 4776TIP3   OH235962   0.219   1.842   1.925 -0.4496 -0.8935  0.4099
 4776TIP3    H135963   0.153   1.775   1.905  0.7273 -2.3143  1.1397
 4776TIP3    H235964   0.184   1.922   1.884 -0.6595 -2.4638 -2.8310
 4777TIP3   OH235965   1.917   2.072   0.050 -0.5626  0.1983 -0.3746
 4777TIP3    H135966   1.829   2.034   0.048  0.0548 -1.4706  1.1820
 4777TIP3    H235967   1.971   2.008   0.005 -0.1264  1.2350 -1.3567
 4778TIP3   OH235968   0.907   1.238   6.805 -0.4954  0.1158 -0.1025
 4778TIP3    H135969   0.996   1.221   6.834 -0.7162 -1.8137 -0.4521
 4778TIP3    H235970   0.858   1.251   6.886  0.2317  2.1963  0.0703
 4779TIP3   OH235971   2.068   0.239   1.479  0.7409 -0.5125  0.0986
 4779TIP3    H135972   2.087   0.259   1.571 -1.2866  0.6577  0.3423
 4779TIP3    H235973   2.150   0.205   1.444  1.9908  0.4096  1.9579
 4780TIP3   OH235974   5.773   4.179   0.231 -0.3450 -0.0995  0.4140
 4780TIP3    H135975   5.707   4.248   0.231 -0.1139  0.1314  0.9538
 4780TIP3    H235976   5.822   4.192   0.151  0.0888  0.7522  0.8074
 4781TIP3   OH235977   1.849   1.179   1.592  0.3018 -0.5777 -0.0842
 4781TIP3    H135978   1.824   1.090   1.566  1.2077 -0.8331 -0.1044
 4781TIP3    H235979   1.840   1.179   1.687 -0.9022 -0.3047 -0.1857
 4782TIP3   OH235980   2.251   5.270   1.261 -0.0088  0.2631 -0.3997
 4782TIP3    H135981   2.171   5.288   1.310  1.3679  1.3702  1.5862
 4782TIP3    H235982   2.278   5.355   1.226 -0.0210 -0.2110 -1.6316
 4783TIP3   OH235983   5.340   2.550   0.750  0.1388 -0.7132  0.1087
 4783TIP3    H135984   5.349   2.589   0.663  0.5711 -3.1770 -1.0519
 4783TIP3    H235985   5.248   2.525   0.756 -0.3000  1.0002  1.1325
 4784TIP3   OH235986   5.834   3.139   0.462  0.4197 -0.4069 -0.0541
 4784TIP3    H135987   5.919   3.150   0.419 -0.0892  0.0057 -0.9742
 4784TIP3    H235988   5.856   3.109   0.551  1.5495  0.6345  0.0366
 4785TIP3   OH235989   3.693   6.574   6.714 -0.0146  0.4085  0.1491
 4785TIP3    H135990   3.657   6.655   6.678 -2.9599 -1.7400 -2.3614
 4785TIP3    H235991   3.767   6.554   6.658 -0.9947  0.0552 -1.0761
 4786TIP3   OH235992   5.227   1.396   7.865  0.1788  0.3241  0.2945
 4786TIP3    H135993   5.145   1.387   7.817 -0.3287  2.4829  0.6435
 4786TIP3    H235994   5.200   1.418   7.954  1.1350 -0.5016  0.8058
 4787TIP3   OH235995   1.298   5.676   0.265 -0.2528  0.0930 -0.3861
 4787TIP3    H135996   1.350   5.717   0.196  1.6190 -0.5311  0.5987
 4787TIP3    H235997   1.234   5.742   0.290  2.3726  2.3547  0.8452
 4788TIP3   OH235998   2.836   4.500   7.533  0.4085 -0.7725  0.7830
 4788TIP3    H135999   2.837   4.583   7.581  1.4746 -0.1382 -0.2756
 4788TIP3    H236000   2.918   4.458   7.557 -0.2447 -1.6540  1.5118
 4789TIP3   OH236001   1.992   0.829   7.384 -0.1359  0.1378 -0.3169
 4789TIP3    H136002   1.908   0.818   7.339  1.6018 -2.7916 -3.3023
 4789TIP3    H236003   2.023   0.914   7.354 -1.8387  1.1545  0.6292
 4790TIP3   OH236004   5.767   1.216   0.069  0.0007 -0.3592 -0.4732
 4790TIP3    H136005   5.706   1.243   0.138  0.6127 -1.8435  0.6993
 4790TIP3    H236006   5.767   1.289   0.007 -1.2183  0.6479  0.6562
 4791TIP3   OH236007   4.226   2.725   7.822  0.4216  0.1834 -0.5187
 4791TIP3    H136008   4.160   2.657   7.808  1.3466 -0.6174 -1.0391
 4791TIP3    H236009   4.288   2.686   7.883 -1.6835  2.3738  3.4434
 4792TIP3   OH236010   3.705   6.070   8.097 -0.6207  0.4516 -0.2330
 4792TIP3    H136011   3.773   6.137   8.101  0.4214 -0.3881 -2.4445
 4792TIP3    H236012   3.626   6.117   8.072  0.2628  0.8156 -2.5286
 4793TIP3   OH236013   0.937   4.129   7.017  0.0018 -0.1508  0.7058
 4793TIP3    H136014   0.887   4.089   6.946  0.4268  1.0847 -0.3289
 4793TIP3    H236015   0.887   4.207   7.041  0.4104  0.0146  1.0377
 4794TIP3   OH236016   1.344   5.360   1.558 -0.0338  0.9587 -0.5679
 4794TIP3    H136017   1.416   5.341   1.498 -0.8261 -0.8584 -0.9975
 4794TIP3    H236018   1.359   5.302   1.633 -0.2326  1.6910  0.0627
 4795TIP3   OH236019   5.356   5.954   7.673 -0.4118 -0.1731 -0.1395
 4795TIP3    H136020   5.400   5.914   7.747 -1.8718  1.3653  1.6572
 4795TIP3    H236021   5.272   5.908   7.667 -0.1927 -0.4840 -1.0555
 4796TIP3   OH236022   1.830   4.625   7.296  0.5936 -0.1304 -0.4324
 4796TIP3    H136023   1.873   4.539   7.300 -0.9322 -0.9470 -0.4859
 4796TIP3    H236024   1.798   4.632   7.206  0.9475  0.6335 -0.5067
 4797TIP3   OH236025   4.341   0.353   0.475 -0.4085  0.1611  0.0199
 4797TIP3    H136026   4.255   0.368   0.435 -0.9779  0.6714  1.3845
 4797TIP3    H236027   4.367   0.439   0.509  0.6605  0.0104 -0.3789
 4798TIP3   OH236028   1.794   6.052   8.483  0.4115  0.3093 -0.2027
 4798TIP3    H136029   1.786   5.961   8.451  1.2856  0.4965 -1.0053
 4798TIP3    H236030   1.884   6.058   8.515 -0.1920  0.3825  1.5846
 4799TIP3   OH236031   6.822   3.206   7.467  0.0633 -0.9273  0.2063
 4799TIP3    H136032   6.845   3.122   7.427  0.0440 -1.2789  0.9299
 4799TIP3    H236033   6.834   3.270   7.396 -2.9742 -1.8792 -1.3737
 4800TIP3   OH236034   3.134   6.234   7.536  0.0191 -0.3647 -0.7824
 4800TIP3    H136035   3.054   6.287   7.533  0.0501 -0.3551 -2.1777
 4800TIP3    H236036   3.128   6.185   7.617 -0.2167  1.4610  0.3489
 4801TIP3   OH236037   5.944   0.379   1.041 -0.0808 -0.2017 -0.0324
 4801TIP3    H136038   5.901   0.340   0.965  0.4003 -0.5887 -0.1159
 4801TIP3    H236039   6.014   0.317   1.063  0.0508  0.1165  0.4660
 4802TIP3   OH236040   0.477   4.871   1.272 -0.2600 -0.2791  0.2092
 4802TIP3    H136041   0.571   4.881   1.284 -0.3130 -0.3643  0.7496
 4802TIP3    H236042   0.466   4.783   1.237 -0.2514 -0.9645  1.8528
 4803TIP3   OH236043   4.422   6.389   0.666  0.3561  0.7715  0.3555
 4803TIP3    H136044   4.389   6.451   0.731  1.2230  0.2177  1.3663
 4803TIP3    H236045   4.434   6.308   0.715  0.9746  0.3154 -0.5206
 4804TIP3   OH236046   1.698   0.445   8.560 -0.1201  0.0949  0.6540
 4804TIP3    H136047   1.632   0.394   8.514 -1.4545  0.8595  1.6475
 4804TIP3    H236048   1.736   0.383   8.623  0.1073 -0.3505  0.0813
 4805TIP3   OH236049   6.493   2.015   0.048 -0.6511 -0.0459  0.2828
 4805TIP3    H136050   6.477   1.924   0.072  0.9257 -0.0902  1.3469
 4805TIP3    H236051   6.486   2.017  -0.047 -1.1048 -1.1911  0.2824
 4806TIP3   OH236052   2.757   2.047   8.289 -0.1931  0.4059 -0.0735
 4806TIP3    H136053   2.796   1.967   8.326  0.5169  0.2052 -1.2035
 4806TIP3    H236054   2.829   2.110   8.288 -0.2762  0.4986 -0.7943
 4807TIP3   OH236055   1.722   0.790   1.694  0.2894 -0.7150 -0.3109
 4807TIP3    H136056   1.785   0.720   1.671  2.2637  0.7822  0.2808
 4807TIP3    H236057   1.731   0.854   1.623 -2.1235 -1.3596 -1.2939
 4808TIP3   OH236058   5.875   3.323   6.682 -0.5171 -0.6320  0.0228
 4808TIP3    H136059   5.785   3.323   6.650 -0.9987  0.2456  1.2781
 4808TIP3    H236060   5.914   3.244   6.646 -1.8168 -1.0743 -0.4637
 4809TIP3   OH236061   3.486   0.328   7.796  0.0986  0.1830 -0.2830
 4809TIP3    H136062   3.498   0.238   7.827  0.1746  0.1983 -0.2686
 4809TIP3    H236063   3.557   0.340   7.732 -0.7012 -0.2263 -1.2815
 4810TIP3   OH236064   0.552   1.947   2.032 -0.1052  0.3972 -0.2517
 4810TIP3    H136065   0.616   1.933   2.102 -0.7714  0.4891  0.3815
 4810TIP3    H236066   0.527   2.038   2.040 -0.6217  0.2550 -0.2352
 4811TIP3   OH236067   5.724   3.927   7.096  0.0214  0.0308  0.3649
 4811TIP3    H136068   5.634   3.916   7.066 -0.6791 -0.7819  2.5450
 4811TIP3    H236069   5.777   3.912   7.018 -1.7167  0.7244 -1.0175
 4812TIP3   OH236070   5.518   2.640   8.447 -0.3811 -0.8246  0.1294
 4812TIP3    H136071   5.487   2.730   8.435  2.5856  0.2208 -0.4893
 4812TIP3    H236072   5.509   2.624   8.541 -1.0748  0.0429  0.2281
 4813TIP3   OH236073   6.003   0.050   0.149 -0.1073 -0.6820  0.3132
 4813TIP3    H136074   6.042   0.023   0.066  0.4649 -1.6757  0.8899
 4813TIP3    H236075   6.059   0.011   0.216 -1.9016 -1.9057  1.1774
 4814TIP3   OH236076   3.430   2.862   6.900  0.2483  0.1063 -0.3476
 4814TIP3    H136077   3.392   2.945   6.927 -0.4367 -0.3902  0.2779
 4814TIP3    H236078   3.446   2.815   6.982 -0.2639 -0.7527 -0.7176
 4815TIP3   OH236079   5.490   2.939   8.432  0.0027  0.0692  0.2291
 4815TIP3    H136080   5.426   3.009   8.443 -0.2781 -0.1579  0.0311
 4815TIP3    H236081   5.572   2.985   8.411  0.2094  0.4356  1.7198
 4816TIP3   OH236082   2.408   3.699   6.996 -0.4879 -0.0260  0.6123
 4816TIP3    H136083   2.440   3.762   6.931 -0.2868  0.1872  0.9159
 4816TIP3    H236084   2.483   3.683   7.053 -0.0165 -1.8294 -0.4320
 4817TIP3   OH236085   1.272   3.888   1.243  0.0646 -0.3916  0.1375
 4817TIP3    H136086   1.179   3.898   1.266 -0.1586 -0.2603 -0.7870
 4817TIP3    H236087   1.316   3.959   1.290 -0.3966 -0.0424  0.0554
 4818TIP3   OH236088   5.305   4.018   7.128  0.8547  0.1088 -0.3218
 4818TIP3    H136089   5.366   3.984   7.063  1.7840 -0.9148  1.0533
 4818TIP3    H236090   5.354   4.085   7.174  0.5898 -0.0031  0.1243
 4819TIP3   OH236091   5.784   1.023   8.206  0.2236 -0.0656 -0.3096
 4819TIP3    H136092   5.733   0.943   8.197  1.4379 -0.9742  0.6211
 4819TIP3    H236093   5.744   1.068   8.281  2.0624 -1.8597  1.8966
 4820TIP3   OH236094   5.381   1.589   0.840 -0.2350 -0.6901  0.0347
 4820TIP3    H136095   5.462   1.561   0.798  0.4323 -1.2463  1.6062
 4820TIP3    H236096   5.368   1.527   0.912 -2.4497 -1.0298 -0.5835
 4821TIP3   OH236097   4.790   0.755   1.002  0.2309  0.8454 -0.2236
 4821TIP3    H136098   4.792   0.850   1.007  1.9180  0.9155 -1.4714
 4821TIP3    H236099   4.880   0.730   0.982 -0.3093 -0.9798 -0.5604
 4822TIP3   OH236100   6.684   5.153   8.252  0.1844 -0.2372 -0.0989
 4822TIP3    H136101   6.672   5.058   8.250 -0.8890 -0.1089 -1.0578
 4822TIP3    H236102   6.635   5.181   8.329 -0.9626 -0.3093 -0.7804
 4823TIP3   OH236103   1.219   2.681   1.038 -0.5156  0.1358 -1.0386
 4823TIP3    H136104   1.134   2.638   1.033 -0.3371 -0.1329 -1.8862
 4823TIP3    H236105   1.199   2.774   1.036 -0.8693  0.1077  0.2275
 4824TIP3   OH236106   1.730   0.953   1.451 -0.4247  0.3829 -0.0676
 4824TIP3    H136107   1.800   0.979   1.392  1.4492 -1.2946  1.2558
 4824TIP3    H236108   1.672   0.898   1.398  0.7704 -0.4222 -0.5870
 4825TIP3   OH236109   6.300   2.534   1.158  0.0044  0.6071  0.4082
 4825TIP3    H136110   6.247   2.605   1.124  1.9921  2.0114  0.0745
 4825TIP3    H236111   6.380   2.576   1.189  0.7187 -1.3423  1.3920
 4826TIP3   OH236112   6.052   1.466   8.598  0.2372 -0.2048  0.3024
 4826TIP3    H136113   6.052   1.384   8.649 -1.9052  0.2962  1.2228
 4826TIP3    H236114   5.980   1.455   8.536  1.8138 -0.1497 -1.6244
 4827TIP3   OH236115   4.316   0.123   7.116 -0.4941  0.3085 -0.2090
 4827TIP3    H136116   4.317   0.028   7.125 -0.2649  0.3933  0.7816
 4827TIP3    H236117   4.319   0.138   7.022 -0.5864 -0.6619 -0.3787
 4828TIP3   OH236118   3.429   1.282   1.925 -0.1577  0.6988  0.1985
 4828TIP3    H136119   3.348   1.258   1.970 -0.5220 -0.6073 -1.0542
 4828TIP3    H236120   3.446   1.373   1.952 -1.7280  0.8117  0.9225
 4829TIP3   OH236121   4.754   0.217   0.839 -0.2020 -0.0514  0.4038
 4829TIP3    H136122   4.716   0.301   0.866 -0.7510  0.7169 -2.4401
 4829TIP3    H236123   4.822   0.241   0.775 -1.1628 -1.7817 -1.3473
 4830TIP3   OH236124   1.172   5.952   1.503  0.5028  0.2310 -0.3046
 4830TIP3    H136125   1.109   5.888   1.470  0.4219  0.7891 -1.2904
 4830TIP3    H236126   1.227   5.973   1.427  1.4984  0.2107  0.3844
 4831TIP3   OH236127   2.621   4.606   0.838 -0.2944 -0.2591 -0.0301
 4831TIP3    H136128   2.590   4.519   0.862 -0.6419 -0.4445 -1.0790
 4831TIP3    H236129   2.676   4.633   0.911 -1.5305 -0.6511  1.0798
 4832TIP3   OH236130   0.715   0.430   8.384  0.4046  0.0033 -0.0943
 4832TIP3    H136131   0.722   0.422   8.479  1.1094 -0.3498 -0.1689
 4832TIP3    H236132   0.708   0.524   8.368 -0.7295  0.0094  0.3588
 4833TIP3   OH236133   6.886   4.229   7.409 -0.8734 -0.2268  0.1570
 4833TIP3    H136134   6.791   4.227   7.403 -0.8338  0.3720 -1.1389
 4833TIP3    H236135   6.908   4.322   7.398 -0.1012 -0.4957 -0.7427
 4834TIP3   OH236136   3.748   4.583   1.942 -0.0629 -0.2748 -0.1061
 4834TIP3    H136137   3.734   4.675   1.918 -0.1682 -0.5211 -1.0376
 4834TIP3    H236138   3.789   4.586   2.028  0.4084  0.6653 -0.3559
 4835TIP3   OH236139   6.503   0.715   0.630  0.0932  0.1326  0.4170
 4835TIP3    H136140   6.565   0.774   0.587  0.0088 -0.5302 -0.6897
 4835TIP3    H236141   6.431   0.770   0.658  1.3138  0.9680  2.0120
 4836TIP3   OH236142   5.949   3.665   1.462 -0.5260  0.2858  0.4399
 4836TIP3    H136143   5.901   3.741   1.497  0.7256  0.5910  1.6120
 4836TIP3    H236144   5.963   3.686   1.370  1.1558  2.2674  1.0740
 4837TIP3   OH236145   2.161   2.381   8.053  0.5449 -0.0741 -0.4947
 4837TIP3    H136146   2.079   2.371   8.005 -0.1175 -0.3734  0.6676
 4837TIP3    H236147   2.227   2.395   7.984 -0.4939  0.4074 -1.4324
 4838TIP3   OH236148   0.364   0.994   1.106  0.1033  0.5228 -0.5884
 4838TIP3    H136149   0.409   0.911   1.123 -1.0427 -0.2539 -1.2363
 4838TIP3    H236150   0.301   1.002   1.177  1.5916  1.9030  0.6525
 4839TIP3   OH236151   5.193   5.803   1.683 -0.1415  0.3354 -0.4677
 4839TIP3    H136152   5.140   5.797   1.604  0.7368  0.4317 -1.0785
 4839TIP3    H236153   5.145   5.750   1.748 -2.1504  2.2172 -0.3005
 4840TIP3   OH236154   1.480   1.543   1.184  0.0676  0.1913 -0.0720
 4840TIP3    H136155   1.557   1.497   1.152  0.6754  0.5874  0.7918
 4840TIP3    H236156   1.483   1.534   1.279  0.1647  1.8942  0.1270
 4841TIP3   OH236157   0.281   0.407   1.176 -0.4828 -0.1480 -0.6839
 4841TIP3    H136158   0.213   0.428   1.241  1.2923  1.0392  0.9104
 4841TIP3    H236159   0.352   0.467   1.197  1.2237 -1.6234 -2.0229
 4842TIP3   OH236160   4.736   2.815   6.348 -0.1693  0.2704 -0.4666
 4842TIP3    H136161   4.796   2.742   6.360  0.2222  0.5863 -0.4731
 4842TIP3    H236162   4.760   2.876   6.418 -2.2446 -0.7554  1.2405
 4843TIP3   OH236163   6.169   4.133   0.531  0.5077 -0.5514  0.3038
 4843TIP3    H136164   6.098   4.114   0.593 -0.5310 -0.3752 -0.7902
 4843TIP3    H236165   6.249   4.128   0.583 -0.4150  0.8858  1.9608
 4844TIP3   OH236166   3.631   1.801   1.865  0.0551  0.0380  0.0923
 4844TIP3    H136167   3.540   1.784   1.891  0.2209 -0.9563  0.0642
 4844TIP3    H236168   3.625   1.875   1.804 -0.6777  0.3154  0.4878
 4845TIP3   OH236169   4.596   3.372   0.857 -0.4122 -0.2125  0.1885
 4845TIP3    H136170   4.654   3.389   0.783 -1.2113  0.0731 -0.3750
 4845TIP3    H236171   4.509   3.361   0.818 -1.3296  2.4334  1.2698
 4846TIP3   OH236172   5.546   4.066   8.395  0.4594 -0.7127  0.2452
 4846TIP3    H136173   5.486   4.000   8.361 -0.7372  0.6926 -0.4724
 4846TIP3    H236174   5.505   4.097   8.475  1.0597 -0.8963  0.6294
 4847TIP3   OH236175   3.243   4.095   0.108 -1.2210  0.2678 -0.2773
 4847TIP3    H136176   3.297   4.100   0.187 -0.4134  0.2676 -0.8266
 4847TIP3    H236177   3.156   4.123   0.138 -1.2581 -0.9967  0.9085
 4848TIP3   OH236178   3.514   3.196   2.441 -0.8740 -0.4346 -0.3386
 4848TIP3    H136179   3.562   3.278   2.428 -1.3542 -0.2703 -1.1990
 4848TIP3    H236180   3.430   3.223   2.479 -0.3245 -0.7167  1.1373
 4849TIP3   OH236181   0.046   5.560   6.511  0.3095 -0.8493 -0.4593
 4849TIP3    H136182   0.108   5.506   6.461 -0.5860  0.4504 -3.1914
 4849TIP3    H236183  -0.028   5.573   6.451  0.7469  3.9374 -0.3963
 4850TIP3   OH236184   5.836   5.004   1.918 -0.5887 -0.2392 -0.5925
 4850TIP3    H136185   5.775   4.930   1.922  0.7242 -1.3619 -0.5091
 4850TIP3    H236186   5.782   5.081   1.938 -2.0528 -1.1205 -0.9744
 4851TIP3   OH236187   4.836   4.600   0.445 -0.1640 -0.3542  0.4412
 4851TIP3    H136188   4.794   4.627   0.363  0.2812 -0.8206  0.0576
 4851TIP3    H236189   4.764   4.596   0.508 -0.6929 -1.0817 -0.1975
 4852TIP3   OH236190   2.298   1.094   0.854 -0.1641  0.3520  0.6328
 4852TIP3    H136191   2.204   1.114   0.861 -0.1457  1.6876 -1.8465
 4852TIP3    H236192   2.301   1.008   0.811 -0.2843  0.7888 -0.2719
 4853TIP3   OH236193   4.019   1.541   7.768 -0.3803 -0.5409 -0.4142
 4853TIP3    H136194   4.055   1.592   7.841 -0.4843  0.2335 -0.8895
 4853TIP3    H236195   4.013   1.603   7.696  1.5993 -1.7637 -1.7185
 4854TIP3   OH236196   1.018   3.134   6.817 -0.0848 -0.1949  0.1309
 4854TIP3    H136197   1.109   3.150   6.793  1.0114 -1.3106  3.1091
 4854TIP3    H236198   0.995   3.209   6.872 -0.4878 -0.6409  0.5693
 4855TIP3   OH236199   6.772   5.902   1.506 -0.7127  0.2804 -0.4232
 4855TIP3    H136200   6.847   5.860   1.548 -0.6584 -1.0975 -1.7860
 4855TIP3    H236201   6.745   5.971   1.567  0.6858 -0.2078  0.8043
 4856TIP3   OH236202   3.931   3.109   1.261 -0.7071  0.0302 -0.1675
 4856TIP3    H136203   3.910   3.124   1.354 -1.9080  0.6143 -0.5162
 4856TIP3    H236204   4.022   3.138   1.253  0.5767 -2.9934  1.4862
 4857TIP3   OH236205   3.708   1.157   0.902 -0.0266 -0.8053 -0.4817
 4857TIP3    H136206   3.671   1.208   0.974  2.5312  0.8287 -0.1889
 4857TIP3    H236207   3.737   1.223   0.839  3.9996 -1.6888  0.1742
 4858TIP3   OH236208   2.944   1.574   0.756 -0.1980 -0.0771  0.4323
 4858TIP3    H136209   2.908   1.496   0.714  0.0179  0.1483 -0.1869
 4858TIP3    H236210   3.019   1.541   0.806  1.1839 -0.0286 -1.4698
 4859TIP3   OH236211   4.777   0.168   0.267 -0.3720 -0.0220 -0.1038
 4859TIP3    H136212   4.796   0.258   0.294  1.7733 -0.6591  0.7346
 4859TIP3    H236213   4.688   0.171   0.232  0.3568  2.8168 -1.9748
 4860TIP3   OH236214   1.378   4.789   0.455  0.9474 -0.1418 -0.2780
 4860TIP3    H136215   1.372   4.696   0.475  0.2977  0.0028  0.2549
 4860TIP3    H236216   1.375   4.832   0.540 -1.1905  0.4635 -0.5888
 4861TIP3   OH236217   4.019   1.486   8.423  0.0742  0.4224 -0.4936
 4861TIP3    H136218   3.968   1.405   8.418 -0.3474  0.4818  1.8620
 4861TIP3    H236219   3.979   1.535   8.495  1.2060  2.1024 -0.9578
 4862TIP3   OH236220   2.981   4.875   0.844  1.0159 -0.3868 -0.2697
 4862TIP3    H136221   3.047   4.816   0.879  1.0718 -0.9973 -1.3409
 4862TIP3    H236222   2.948   4.831   0.765  0.7670  0.8159 -0.8751
 4863TIP3   OH236223   6.095   3.560   8.120  0.1479  0.4511  0.1150
 4863TIP3    H136224   6.078   3.594   8.208  1.5345  1.5300 -0.0041
 4863TIP3    H236225   6.057   3.472   8.120  0.4705  0.2865  1.9208
 4864TIP3   OH236226   5.911   2.154   8.609  0.2227  0.5539 -0.2102
 4864TIP3    H136227   5.990   2.127   8.563 -0.7553 -1.0746 -1.0288
 4864TIP3    H236228   5.915   2.110   8.694  0.1256  0.3538 -0.3095
 4865TIP3   OH236229   4.314   1.468   0.528 -0.4991  0.2635 -0.4647
 4865TIP3    H136230   4.397   1.517   0.532 -1.5315  2.2651 -2.0327
 4865TIP3    H236231   4.341   1.376   0.520  1.5227  0.5093  2.1012
 4866TIP3   OH236232   4.183   4.062   2.017  0.4795 -0.4397 -0.8319
 4866TIP3    H136233   4.207   3.977   2.055 -0.1341 -0.4932 -0.5536
 4866TIP3    H236234   4.266   4.102   1.993  0.8854 -0.4278  0.5250
 4867TIP3   OH236235   4.504   0.868   0.079  0.1270  0.1204  0.1099
 4867TIP3    H136236   4.450   0.795   0.050 -1.4410  1.4368 -0.4512
 4867TIP3    H236237   4.526   0.915  -0.001  1.0188  0.3499  0.4727
 4868TIP3   OH236238   0.729   2.593   1.324  0.7400  0.2883  0.2704
 4868TIP3    H136239   0.704   2.658   1.258 -1.0640 -0.9037 -0.2855
 4868TIP3    H236240   0.698   2.630   1.407 -1.4183 -0.3391 -0.1923
 4869TIP3   OH236241   4.338   1.126   6.586  0.0220  0.1268 -0.1639
 4869TIP3    H136242   4.277   1.187   6.544  0.7810  1.4182  0.5346
 4869TIP3    H236243   4.406   1.112   6.520  0.7741  1.4822  0.2956
 4870TIP3   OH236244   3.356   5.978   7.166  0.0245  0.0024 -0.0422
 4870TIP3    H136245   3.281   5.934   7.206 -0.2115 -0.0243 -0.4972
 4870TIP3    H236246   3.335   5.979   7.072 -0.9133  2.8037  0.0961
 4871TIP3   OH236247   0.971   0.334   0.989  0.2606  0.3286  0.4170
 4871TIP3    H136248   1.062   0.320   0.965  0.3086  0.0672  0.7462
 4871TIP3    H236249   0.933   0.246   0.993 -0.5212  0.5084 -1.6680
 4872TIP3   OH236250   0.907   4.682   7.993 -0.2824 -0.1728 -0.2613
 4872TIP3    H136251   0.838   4.709   8.054  0.7516  0.2085  0.7546
 4872TIP3    H236252   0.982   4.662   8.048  0.0637 -1.8160 -1.2534
 4873TIP3   OH236253   1.912   6.078   1.455 -0.0790 -0.2773 -0.0802
 4873TIP3    H136254   1.836   6.027   1.484 -1.0943  0.2529 -1.6517
 4873TIP3    H236255   1.930   6.139   1.526 -1.8644  0.3484 -0.1279
 4874TIP3   OH236256   2.798   6.711   0.883 -0.1790 -0.4676  0.4677
 4874TIP3    H136257   2.741   6.765   0.936  1.4806 -1.6203  3.6726
 4874TIP3    H236258   2.757   6.625   0.883 -2.6465  0.3664 -4.3427
 4875TIP3   OH236259   4.370   1.156   0.769 -0.0070 -0.3094 -0.3685
 4875TIP3    H136260   4.349   1.195   0.684  1.8519 -0.8807 -1.1479
 4875TIP3    H236261   4.319   1.074   0.770 -1.3624  0.4985 -0.1446
 4876TIP3   OH236262   6.344   6.737   8.330 -0.2545 -0.1381 -0.0794
 4876TIP3    H136263   6.431   6.749   8.293  0.1471  0.9232  1.1399
 4876TIP3    H236264   6.357   6.677   8.404 -0.7762 -0.9233 -0.6004
 4877TIP3   OH236265   3.494   6.840   6.903  0.1940 -0.4281  0.3678
 4877TIP3    H136266   3.585   6.870   6.899  0.0790  0.0221  1.0374
 4877TIP3    H236267   3.481   6.816   6.994 -0.0728 -1.4161  0.0814
 4878TIP3   OH236268   6.848   3.594   0.886  0.2519 -0.5390 -0.4568
 4878TIP3    H136269   6.871   3.520   0.943 -0.4824 -0.0596  0.4898
 4878TIP3    H236270   6.931   3.619   0.845  0.7521 -1.0581  0.2060
 4879TIP3   OH236271   5.177   1.003   8.595  0.2504 -0.5145  0.3402
 4879TIP3    H136272   5.266   1.026   8.571 -0.4713  1.3150 -0.8779
 4879TIP3    H236273   5.125   1.021   8.516 -1.2798 -0.9102  1.1995
 4880TIP3   OH236274   0.847   5.998   1.522  0.0570  0.5790  0.5356
 4880TIP3    H136275   0.901   5.976   1.446  0.9391  0.3001  1.2265
 4880TIP3    H236276   0.865   5.927   1.585 -0.3186  1.0426  1.1703
 4881TIP3   OH236277   1.968   4.811   1.844 -0.0599 -0.3519 -0.1963
 4881TIP3    H136278   2.020   4.740   1.805 -0.5102 -0.7327 -0.1044
 4881TIP3    H236279   1.902   4.767   1.897  0.7925  0.1542  1.3603
 4882TIP3   OH236280   1.641   6.407   7.921  0.2775  0.5595  0.3143
 4882TIP3    H136281   1.669   6.429   8.009  2.7396  1.0267 -0.5266
 4882TIP3    H236282   1.651   6.312   7.915  2.6619  0.7978 -0.2301
 4883TIP3   OH236283   3.514   2.612   6.452 -0.0723 -0.0837  0.0879
 4883TIP3    H136284   3.471   2.693   6.476  0.8234  0.3183  0.3847
 4883TIP3    H236285   3.607   2.627   6.470  0.0614 -1.3223  0.5810
 4884TIP3   OH236286   5.896   4.525   2.020 -0.2239 -0.1648 -0.3571
 4884TIP3    H136287   5.965   4.487   2.075 -0.5005  0.9525  0.8185
 4884TIP3    H236288   5.937   4.601   1.979 -0.1210 -0.7951 -1.4684
 4885TIP3   OH236289   1.265   4.572   7.863 -0.0353 -0.4853 -0.0816
 4885TIP3    H136290   1.340   4.564   7.922  1.0030 -0.8723 -1.3996
 4885TIP3    H236291   1.301   4.609   7.783 -1.5719  0.8278 -0.2117
 4886TIP3   OH236292   3.327   0.216   0.677  0.4618  0.1185  0.0561
 4886TIP3    H136293   3.365   0.182   0.596  0.2364 -2.0939  0.8219
 4886TIP3    H236294   3.240   0.177   0.681  0.4225  0.3008  1.3074
 4887TIP3   OH236295   4.708   6.872   6.460 -0.1112 -0.5727 -0.1446
 4887TIP3    H136296   4.772   6.821   6.510  0.5182  0.2811 -0.0590
 4887TIP3    H236297   4.745   6.960   6.455 -1.3062 -0.0385 -0.0551
 4888TIP3   OH236298   2.293   6.649   6.305  0.2921 -0.7603 -0.1928
 4888TIP3    H136299   2.296   6.716   6.374 -1.2103  0.0415 -0.8664
 4888TIP3    H236300   2.382   6.614   6.304  0.8781  0.5481  0.8437
 4889TIP3   OH236301   3.507   6.095   6.335 -0.1937  0.4689 -0.3590
 4889TIP3    H136302   3.544   6.014   6.369  0.7471  0.8302 -0.4923
 4889TIP3    H236303   3.438   6.067   6.275 -0.0099 -0.2163 -0.2561
 4890TIP3   OH236304   6.072   3.311   6.857  0.2889  0.6263  0.2803
 4890TIP3    H136305   6.134   3.356   6.801  0.2560  2.1146  1.3720
 4890TIP3    H236306   5.990   3.310   6.807  0.8917 -0.4175 -0.7340
 4891TIP3   OH236307   1.124   5.858   8.288 -0.2441 -0.1916 -0.1364
 4891TIP3    H136308   1.136   5.833   8.196  0.1194 -0.5033 -0.0044
 4891TIP3    H236309   1.067   5.791   8.325  0.6321 -0.7770  0.1845
 4892TIP3   OH236310   2.039   1.313   1.910 -0.0175 -0.2838  1.2820
 4892TIP3    H136311   1.999   1.231   1.941  0.3105 -0.2366  1.8348
 4892TIP3    H236312   1.992   1.382   1.957 -0.2367 -0.1558  0.8778
 4893TIP3   OH236313   3.430   5.355   7.677 -0.3924 -0.0066 -0.1157
 4893TIP3    H136314   3.409   5.448   7.673 -1.3920 -0.2080 -0.0142
 4893TIP3    H236315   3.384   5.317   7.602  0.2514 -0.3752 -0.3267
 4894TIP3   OH236316   2.954   6.249   1.590 -0.6038 -0.5781  0.1156
 4894TIP3    H136317   2.907   6.286   1.515 -1.8894 -0.3885  0.9776
 4894TIP3    H236318   2.890   6.191   1.631  0.6325 -2.0223  0.1083
 4895TIP3   OH236319   1.103   1.962   8.126 -0.4430 -0.3837 -0.3251
 4895TIP3    H136320   1.134   1.924   8.043 -0.1579 -1.6452  0.3316
 4895TIP3    H236321   1.136   2.052   8.124 -1.1627 -0.1114 -1.9496
 4896TIP3   OH236322   5.226   6.652   8.408  0.2424  0.7016 -0.3100
 4896TIP3    H136323   5.221   6.579   8.470 -1.8323 -0.0723 -1.2844
 4896TIP3    H236324   5.295   6.627   8.347 -1.4615 -1.2896 -1.5483
 4897TIP3   OH236325   1.504   4.470   0.299 -0.0753 -0.4816 -0.1481
 4897TIP3    H136326   1.590   4.428   0.296  0.0454 -0.2284 -0.3079
 4897TIP3    H236327   1.491   4.492   0.391  1.0399  1.5172 -0.4016
 4898TIP3   OH236328   4.274   2.977   6.566 -0.1232 -0.9592 -0.0726
 4898TIP3    H136329   4.301   2.887   6.587  0.6503 -0.6023  0.5159
 4898TIP3    H236330   4.341   3.032   6.607 -0.7137 -0.1030 -0.2360
 4899TIP3   OH236331   1.256   2.744   6.958 -0.3377  0.8847  0.0408
 4899TIP3    H136332   1.267   2.783   6.871  0.2042 -1.4861 -1.0505
 4899TIP3    H236333   1.345   2.736   6.992 -0.1194 -1.6580 -0.9068
 4900TIP3   OH236334   6.265   5.500   8.376  0.2866  0.2756 -0.1719
 4900TIP3    H136335   6.238   5.534   8.462 -1.0713 -1.8100  0.2903
 4900TIP3    H236336   6.205   5.542   8.315 -0.4615 -0.1876  0.2257
 4901TIP3   OH236337   6.064   3.909   1.002  0.1917 -0.2594 -0.0661
 4901TIP3    H136338   6.118   3.838   0.967  0.9887  0.2517  0.1005
 4901TIP3    H236339   6.105   3.989   0.970 -1.2237  0.1208 -0.9995
 4902TIP3   OH236340   4.320   1.616   8.495  0.8295  0.4600 -0.5392
 4902TIP3    H136341   4.283   1.674   8.561  0.7947  0.1712 -0.3006
 4902TIP3    H236342   4.414   1.620   8.510  0.7851 -0.0781 -0.0640
 4903TIP3   OH236343   0.326   0.885   8.398 -0.1165  0.0860 -0.2484
 4903TIP3    H136344   0.234   0.863   8.414 -0.2262  0.6481 -0.0583
 4903TIP3    H236345   0.371   0.859   8.479  0.1820 -1.6926 -0.9438
 4904TIP3   OH236346   4.451   5.575   1.293  0.2085 -0.2987  0.2131
 4904TIP3    H136347   4.544   5.560   1.309  0.3436  1.2369  1.0550
 4904TIP3    H236348   4.409   5.559   1.377 -0.5923 -2.7471 -0.5551
 4905TIP3   OH236349   0.845   6.906   7.933 -0.3049  0.4286 -0.6722
 4905TIP3    H136350   0.891   6.866   7.860 -0.6184 -1.2223 -0.0103
 4905TIP3    H236351   0.789   6.972   7.893 -0.4427 -0.4143 -1.9219
 4906TIP3   OH236352   6.909   2.517   6.735  0.7061  0.0771  0.0556
 4906TIP3    H136353   6.858   2.454   6.683  0.0234  0.6926 -0.0351
 4906TIP3    H236354   7.000   2.499   6.711  0.3549  1.2904 -2.4932
 4907TIP3   OH236355   4.735   3.105   6.943 -0.4065  0.2024 -0.4315
 4907TIP3    H136356   4.804   3.060   6.991  0.7077  1.3851 -0.8736
 4907TIP3    H236357   4.746   3.077   6.852  0.7254  1.8080 -0.8286
 4908TIP3   OH236358   0.306   0.552   7.043  0.0544  0.5239  0.1197
 4908TIP3    H136359   0.285   0.641   7.074 -0.2987  0.5366 -0.1544
 4908TIP3    H236360   0.254   0.494   7.099 -1.8018  0.6103 -1.4170
 4909TIP3   OH236361   6.160   6.239   2.104 -0.0496  0.3755 -0.2077
 4909TIP3    H136362   6.176   6.161   2.156  2.0439  0.9044  0.0120
 4909TIP3    H236363   6.083   6.280   2.145 -1.0485 -1.4135 -0.2077
 4910TIP3   OH236364   0.878   1.783   7.285 -0.2382 -0.7380 -0.5008
 4910TIP3    H136365   0.934   1.757   7.212  2.0198 -1.0196  1.2332
 4910TIP3    H236366   0.884   1.878   7.287  1.6730 -0.8318  0.7023
 4911TIP3   OH236367   0.396   4.851   1.819 -0.3530  0.0895  0.0146
 4911TIP3    H136368   0.397   4.844   1.723  0.4711  0.2488  0.0084
 4911TIP3    H236369   0.388   4.945   1.836  1.1277  0.2262  0.0883
 4912TIP3   OH236370   5.801   4.747   6.840  0.1294  0.4287 -0.2891
 4912TIP3    H136371   5.810   4.765   6.746 -1.2630  0.1001 -0.5096
 4912TIP3    H236372   5.802   4.651   6.845 -1.0753  0.4169 -0.1283
 4913TIP3   OH236373   4.111   4.159   7.948 -0.2989  0.7399  0.5079
 4913TIP3    H136374   4.105   4.250   7.920 -2.1298  0.7600  0.8561
 4913TIP3    H236375   4.127   4.110   7.867 -0.6201  1.2517  0.1274
 4914TIP3   OH236376   4.952   4.423   7.665 -0.4053  0.1534  0.3523
 4914TIP3    H136377   4.967   4.424   7.760  0.0830 -1.6533  0.3492
 4914TIP3    H236378   5.021   4.478   7.629 -0.6638  0.9483  1.0549
 4915TIP3   OH236379   0.241   5.480   6.339  0.3610 -0.2280 -0.8418
 4915TIP3    H136380   0.305   5.548   6.318  1.3778 -0.8663  0.1085
 4915TIP3    H236381   0.168   5.497   6.280  1.5746  0.2491 -2.2500
 4916TIP3   OH236382   0.159   4.870   8.439  0.7556  0.0980 -0.4168
 4916TIP3    H136383   0.189   4.888   8.528 -1.4693  0.1571  0.3817
 4916TIP3    H236384   0.131   4.779   8.441  2.7827 -0.6320 -1.7445
 4917TIP3   OH236385   1.363   3.419   6.369 -0.0741 -0.2415  0.9822
 4917TIP3    H136386   1.338   3.393   6.458 -1.0419 -1.6743  0.3247
 4917TIP3    H236387   1.403   3.340   6.332  0.9101  0.5375  0.3501
 4918TIP3   OH236388   6.007   0.427   6.650  0.3168  0.1190  0.2917
 4918TIP3    H136389   5.947   0.492   6.687 -0.2790 -0.1968 -0.1104
 4918TIP3    H236390   6.079   0.479   6.614 -0.6551  0.6483 -0.9519
 4919TIP3   OH236391   0.376   5.470   0.487 -0.4983  0.0120 -0.4345
 4919TIP3    H136392   0.336   5.471   0.574  0.6135 -0.5536  0.1082
 4919TIP3    H236393   0.467   5.494   0.503 -0.1682 -0.5792 -1.3817
 4920TIP3   OH236394   3.652   3.259   2.120 -0.6162 -0.3439  1.0490
 4920TIP3    H136395   3.597   3.306   2.058  1.2606 -0.7659 -1.0749
 4920TIP3    H236396   3.686   3.326   2.179 -1.2613  0.2949  0.7076
 4921TIP3   OH236397   2.736   4.150   0.739 -0.0526 -0.7300  0.0350
 4921TIP3    H136398   2.822   4.148   0.781  0.0234  0.4618 -0.0252
 4921TIP3    H236399   2.755   4.141   0.646 -0.1503 -2.3725  0.1446
 4922TIP3   OH236400   5.819   1.469   6.887 -0.0919  0.1510  0.1121
 4922TIP3    H136401   5.841   1.380   6.860  0.4943  0.5962 -0.9064
 4922TIP3    H236402   5.733   1.486   6.848  0.1082  0.2740 -0.2814
 4923TIP3   OH236403   6.943   3.659   1.850 -0.3010  0.8878  0.1218
 4923TIP3    H136404   7.038   3.662   1.835 -0.2253 -0.9735 -0.0272
 4923TIP3    H236405   6.935   3.631   1.942 -0.7039  0.6406  0.0108
 4924TIP3   OH236406   0.497   4.997   6.950 -0.5011  0.0794  0.4581
 4924TIP3    H136407   0.556   5.060   6.992 -0.8611 -0.1643  1.3615
 4924TIP3    H236408   0.500   4.920   7.008 -0.4362 -0.5575 -0.3705
 4925TIP3   OH236409   1.537   2.642   7.066  0.4657  0.2884  0.0168
 4925TIP3    H136410   1.564   2.727   7.100  1.2353 -0.5293  1.5692
 4925TIP3    H236411   1.492   2.600   7.140  0.8268 -0.9508 -0.4374
 4926TIP3   OH236412   3.575   2.044   0.808  0.9637 -0.6213  0.3692
 4926TIP3    H136413   3.668   2.025   0.812  1.1177  0.0438  0.1347
 4926TIP3    H236414   3.560   2.074   0.718  0.9408  1.2409  0.9537
 4927TIP3   OH236415   6.719   6.195   7.136  0.0026  0.0571  0.2080
 4927TIP3    H136416   6.692   6.105   7.156 -0.2936  0.0646 -0.1493
 4927TIP3    H236417   6.737   6.235   7.221  1.0710 -0.6273  0.3289
 4928TIP3   OH236418   2.693   6.844   1.092 -0.6761  0.0089  0.4453
 4928TIP3    H136419   2.783   6.861   1.120 -0.6431 -0.4686  0.6442
 4928TIP3    H236420   2.669   6.763   1.137 -0.9994 -0.1886 -0.0684
 4929TIP3   OH236421   2.438   6.331   1.141  0.6996 -0.1159 -0.3768
 4929TIP3    H136422   2.436   6.404   1.080  1.8543 -0.5120 -0.9253
 4929TIP3    H236423   2.455   6.254   1.086  0.0262 -0.7343  0.2454
 4930TIP3   OH236424   6.441   1.988   6.569 -0.0457  0.1659  0.0135
 4930TIP3    H136425   6.407   2.045   6.501 -0.1497  0.0841 -0.0032
 4930TIP3    H236426   6.373   1.923   6.582 -0.5647  0.9011  1.0665
 4931TIP3   OH236427   4.903   5.127   8.024  0.1544 -0.0815 -0.5366
 4931TIP3    H136428   4.952   5.171   8.093  1.1111 -1.9328  0.0304
 4931TIP3    H236429   4.949   5.151   7.943 -0.8061  1.8679 -0.5571
 4932TIP3   OH236430   5.116   2.397   1.041  0.2918 -0.9051  0.2776
 4932TIP3    H136431   5.095   2.453   0.967 -1.5555 -0.0250  1.3970
 4932TIP3    H236432   5.094   2.309   1.012  0.1874 -0.6571 -0.4098
 4933TIP3   OH236433   4.392   4.481   7.981 -0.3428  0.2212 -0.1537
 4933TIP3    H136434   4.299   4.472   7.964 -0.4434  0.2874  0.3754
 4933TIP3    H236435   4.398   4.518   8.069  0.1745  0.5135 -0.3030
 4934TIP3   OH236436   4.968   5.396   0.232  0.1052  0.2143  0.3187
 4934TIP3    H136437   5.029   5.323   0.225  1.0488  0.9427  0.7486
 4934TIP3    H236438   4.954   5.426   0.142 -1.5412 -1.4674 -0.0446
 4935TIP3   OH236439   0.265   2.957   7.072 -0.2693 -0.0696 -0.5484
 4935TIP3    H136440   0.204   2.972   7.144 -1.0456 -1.1119 -0.9616
 4935TIP3    H236441   0.294   2.866   7.084  1.9808  0.6721  0.1954
 4936TIP3   OH236442   4.647   5.700   2.363 -0.0997 -0.2999  0.0507
 4936TIP3    H136443   4.715   5.635   2.381 -0.1055 -0.5373 -0.7337
 4936TIP3    H236444   4.572   5.648   2.332 -1.3509 -0.2379  2.7012
 4937TIP3   OH236445   5.416   1.550   0.475 -0.1368  0.2136 -0.2893
 4937TIP3    H136446   5.366   1.586   0.401  1.2527  1.6991 -0.5530
 4937TIP3    H236447   5.472   1.622   0.503  0.9247 -1.0068  0.8355
 4938TIP3   OH236448   0.651   3.807   6.460 -0.2369  0.3767 -0.0635
 4938TIP3    H136449   0.570   3.844   6.494  0.7475  2.4483  0.1560
 4938TIP3    H236450   0.630   3.714   6.444 -1.9890  0.3300  2.0339
 4939TIP3   OH236451   3.688   5.251   1.644  0.4128 -0.8721  0.3820
 4939TIP3    H136452   3.718   5.169   1.683 -1.8258 -0.8744  2.2781
 4939TIP3    H236453   3.623   5.285   1.705  0.2938  1.6700 -1.0052
 4940TIP3   OH236454   6.653   6.819   1.985  0.0858 -0.1573 -0.0880
 4940TIP3    H136455   6.698   6.896   1.952  2.3763 -1.6638 -0.7479
 4940TIP3    H236456   6.658   6.828   2.081 -1.0221  1.2067 -0.1390
 4941TIP3   OH236457   3.038   5.509   8.342 -0.3060  0.1483 -0.0150
 4941TIP3    H136458   3.017   5.416   8.346 -1.5885  0.4383  0.4294
 4941TIP3    H236459   3.056   5.534   8.432  1.0042  0.1399 -0.2524
 4942TIP3   OH236460   2.749   3.610   7.093 -0.3922  0.0176 -0.5220
 4942TIP3    H136461   2.775   3.701   7.109  1.6030 -0.4463 -0.8108
 4942TIP3    H236462   2.761   3.567   7.177  3.4587 -0.9438 -1.3520
 4943TIP3   OH236463   4.548   3.073   0.547 -0.5174 -0.1080 -0.5429
 4943TIP3    H136464   4.561   3.058   0.454 -0.5168 -1.6383 -0.3102
 4943TIP3    H236465   4.635   3.095   0.581 -1.0296  4.2131 -1.4759
 4944TIP3   OH236466   2.499   6.161   7.186 -0.1122  0.1020  0.4603
 4944TIP3    H136467   2.501   6.181   7.092 -2.7446 -0.2176  0.2819
 4944TIP3    H236468   2.565   6.092   7.197  0.4807  0.3893 -1.0661
 4945TIP3   OH236469   0.585   4.547   0.887  0.2413 -0.7747  0.1822
 4945TIP3    H136470   0.680   4.545   0.892  0.2719 -0.7482 -0.3543
 4945TIP3    H236471   0.566   4.573   0.797 -0.2591  0.3428  0.5861
 4946TIP3   OH236472   5.476   5.082   7.503  0.6524 -0.6524  1.2169
 4946TIP3    H136473   5.538   5.134   7.452  0.3832 -0.8180  0.7101
 4946TIP3    H236474   5.530   5.017   7.547  0.6842 -2.1660 -0.8784
 4947TIP3   OH236475   1.301   1.562   2.181  0.0447  0.1251 -0.1685
 4947TIP3    H136476   1.244   1.584   2.106  0.6270  1.5932 -0.2132
 4947TIP3    H236477   1.289   1.468   2.193  1.3867 -0.6033 -3.3628
 4948TIP3   OH236478   1.143   2.624   1.365  0.2754 -0.5865 -0.0458
 4948TIP3    H136479   1.098   2.696   1.321  0.9887  0.3428  0.7032
 4948TIP3    H236480   1.076   2.556   1.375 -0.1385 -0.4533 -1.6859
 4949TIP3   OH236481   4.693   0.573   7.082 -0.3596 -0.1469 -0.6883
 4949TIP3    H136482   4.723   0.495   7.129  0.9198 -0.6331 -2.2424
 4949TIP3    H236483   4.750   0.643   7.113 -0.4229 -0.1713 -0.5137
 4950TIP3   OH236484   0.394   1.314   1.841 -0.0518 -0.0235  0.6433
 4950TIP3    H136485   0.320   1.305   1.900 -0.1581  0.6526  0.6173
 4950TIP3    H236486   0.415   1.407   1.842  0.1191 -0.0419 -0.1760
 4951TIP3   OH236487   6.122   4.807   0.660 -0.8897 -0.7084 -0.3760
 4951TIP3    H136488   6.163   4.727   0.693 -1.9891 -1.3451 -0.5004
 4951TIP3    H236489   6.191   4.850   0.610 -0.2385 -1.5150 -0.1997
 4952TIP3   OH236490   2.839   1.728   0.972 -0.4267 -0.7686  0.5732
 4952TIP3    H136491   2.862   1.817   0.947  1.4529 -0.8812  1.6851
 4952TIP3    H236492   2.887   1.672   0.911 -1.7507 -1.0527 -0.2449
 4953TIP3   OH236493   1.611   4.949   7.848  0.3491 -0.1485 -0.0586
 4953TIP3    H136494   1.593   4.983   7.760 -2.4250 -1.0676  0.0400
 4953TIP3    H236495   1.680   4.884   7.835  1.4254  1.1466 -1.1747
 4954TIP3   OH236496   6.422   6.494   1.441 -0.1283  0.1228  0.0819
 4954TIP3    H136497   6.512   6.509   1.469  0.5464 -2.0037 -0.7441
 4954TIP3    H236498   6.372   6.492   1.522  0.7994 -0.0707  0.6621
 4955TIP3   OH236499   3.534   1.166   0.369  0.2053 -0.1934 -0.2874
 4955TIP3    H136500   3.446   1.199   0.383  0.4044  0.0052  0.5587
 4955TIP3    H236501   3.591   1.227   0.417  0.8317 -0.1665 -1.0288
 4956TIP3   OH236502   5.710   3.879   8.021  0.4552  0.1330 -0.5730
 4956TIP3    H136503   5.789   3.932   8.028 -0.0905  0.7985  1.0364
 4956TIP3    H236504   5.643   3.929   8.067 -0.6575 -0.8910 -1.0258
 4957TIP3   OH236505   2.494   3.857   6.766 -0.3654  0.3012 -0.5303
 4957TIP3    H136506   2.448   3.836   6.685 -0.5332 -1.2440 -0.0695
 4957TIP3    H236507   2.578   3.812   6.759 -0.5098 -0.1150  0.2819
 4958TIP3   OH236508   1.279   6.528   8.498  0.5894  0.3829  0.0658
 4958TIP3    H136509   1.190   6.532   8.462  0.3742  2.4837  0.6554
 4958TIP3    H236510   1.270   6.477   8.578  0.2254 -0.6270 -0.5937
 4959TIP3   OH236511   4.345   2.022   1.166  0.3438  0.5695  0.3613
 4959TIP3    H136512   4.306   2.056   1.247 -2.0552 -0.4686 -0.2631
 4959TIP3    H236513   4.281   1.958   1.134  0.7154  1.6024 -2.8330
 4960TIP3   OH236514   5.908   1.840   6.817  0.2810  0.1092 -0.3242
 4960TIP3    H136515   5.820   1.817   6.786  0.3666  0.2963 -0.7075
 4960TIP3    H236516   5.965   1.776   6.775  0.2570 -0.4271  0.4443
 4961TIP3   OH236517   0.409   4.582   7.322  0.4008 -0.2641 -0.0432
 4961TIP3    H136518   0.498   4.552   7.305  0.9956  1.1858  0.3783
 4961TIP3    H236519   0.402   4.664   7.273  0.3542  1.2370  2.3306
 4962TIP3   OH236520   1.664   4.896   0.729 -0.3155 -0.2036 -0.2048
 4962TIP3    H136521   1.617   4.816   0.708 -1.1948  0.1851  0.2690
 4962TIP3    H236522   1.603   4.967   0.709 -0.6162  0.2494  2.0837
 4963TIP3   OH236523   6.257   2.203   0.107  0.0857  0.0670 -0.4175
 4963TIP3    H136524   6.345   2.165   0.107 -0.3743 -1.4240 -3.8762
 4963TIP3    H236525   6.200   2.130   0.131 -0.3451  0.4777 -0.1882
 4964TIP3   OH236526   4.919   3.534   1.201 -0.4429  0.4925 -0.5555
 4964TIP3    H136527   5.006   3.572   1.204 -0.1690 -0.0878 -0.9769
 4964TIP3    H236528   4.916   3.488   1.117 -0.8672 -0.1681 -0.1870
 4965TIP3   OH236529   3.928   2.895   1.061 -0.4507 -0.0177  0.1930
 4965TIP3    H136530   3.958   2.833   1.127  1.7617  1.4931  0.7016
 4965TIP3    H236531   3.919   2.978   1.108 -0.2167  0.7714 -1.1033
 4966TIP3   OH236532   0.125   5.644   7.581  0.2101 -0.1414 -0.1600
 4966TIP3    H136533   0.158   5.604   7.501  0.1444 -0.1873 -0.1639
 4966TIP3    H236534   0.082   5.724   7.552  0.1870 -0.1574 -0.1702
 4967TIP3   OH236535   5.067   1.121   1.456  0.6506  0.0774  0.2003
 4967TIP3    H136536   5.062   1.105   1.550  0.1744  2.9101  0.7702
 4967TIP3    H236537   5.161   1.120   1.436  0.8155  0.4664  0.9345
 4968TIP3   OH236538   1.687   6.370   1.375  0.2522  0.2141  0.2937
 4968TIP3    H136539   1.710   6.360   1.467  1.1771 -1.1927 -0.0520
 4968TIP3    H236540   1.649   6.286   1.350  1.4703 -0.0008 -0.9877
 4969TIP3   OH236541   0.550   1.033   0.107 -0.1474 -0.6061 -0.5655
 4969TIP3    H136542   0.471   1.017   0.158 -0.1923 -0.0167 -0.4461
 4969TIP3    H236543   0.606   0.958   0.125 -0.1714 -0.4150  0.3278
 4970TIP3   OH236544   6.462   6.555   0.234 -0.4192  0.1455 -0.7264
 4970TIP3    H136545   6.504   6.639   0.218  0.7690 -0.2231  0.2860
 4970TIP3    H236546   6.531   6.491   0.219 -1.1572 -0.6244 -0.9330
 4971TIP3   OH236547   1.647   2.679   1.285 -0.5782  0.3607 -0.3405
 4971TIP3    H136548   1.742   2.686   1.291 -0.6271  0.7691 -0.0768
 4971TIP3    H236549   1.614   2.721   1.364 -0.9589 -0.3209 -0.1281
 4972TIP3   OH236550   5.227   6.718   7.093 -0.3327  0.2733 -0.0723
 4972TIP3    H136551   5.239   6.646   7.031  2.7229  1.9853 -1.7191
 4972TIP3    H236552   5.151   6.766   7.059 -0.1451 -0.1483 -1.1467
 4973TIP3   OH236553   4.402   0.921   0.491 -0.1106  0.0568 -0.4215
 4973TIP3    H136554   4.371   1.004   0.527  0.7003  0.1546  0.0850
 4973TIP3    H236555   4.419   0.939   0.399 -0.7098  0.2360 -0.4952
 4974TIP3   OH236556   6.527   6.261   0.119  0.1082 -0.6660 -0.0002
 4974TIP3    H136557   6.532   6.271   0.024  0.7579  2.7843  0.2417
 4974TIP3    H236558   6.433   6.266   0.139  0.0956  1.5766 -0.3523
 4975TIP3   OH236559   1.245   3.228   0.351 -0.0784 -0.5717 -0.6362
 4975TIP3    H136560   1.238   3.136   0.326  0.6806 -0.5832 -0.8264
 4975TIP3    H236561   1.337   3.249   0.338  0.3679 -0.5424  2.0476
 4976TIP3   OH236562   6.061   1.750   8.305 -0.0168 -0.2037 -0.0102
 4976TIP3    H136563   5.977   1.793   8.325  0.6765  1.2731 -0.1485
 4976TIP3    H236564   6.054   1.725   8.213  0.3549  1.5721 -0.5536
 4977TIP3   OH236565   2.363   0.538   1.412 -0.3193 -0.2610  0.1206
 4977TIP3    H136566   2.359   0.624   1.453  0.5173 -0.9966  1.8567
 4977TIP3    H236567   2.415   0.485   1.472 -1.2057 -2.1193 -0.6514
 4978TIP3   OH236568   0.783   6.228   1.609 -0.3987 -0.5619  0.1110
 4978TIP3    H136569   0.735   6.210   1.690 -2.6945 -2.2272 -1.4940
 4978TIP3    H236570   0.795   6.142   1.568  2.1627  0.0428 -0.6151
 4979TIP3   OH236571   0.267   2.326   1.322 -0.4151 -0.1175 -0.6284
 4979TIP3    H136572   0.174   2.323   1.341 -0.0859 -0.7372  1.0297
 4979TIP3    H236573   0.292   2.235   1.307 -0.1836  0.1125 -1.7301
 4980TIP3   OH236574   6.806   4.068   1.853 -0.5319 -0.0395  0.5456
 4980TIP3    H136575   6.767   3.985   1.826  1.0133 -1.0509  1.2665
 4980TIP3    H236576   6.742   4.107   1.912 -0.3429 -1.8464  2.0255
 4981TIP3   OH236577   0.623   4.091   2.347  0.0873 -0.1454 -0.1749
 4981TIP3    H136578   0.627   4.125   2.436 -1.5528  2.3161 -0.9187
 4981TIP3    H236579   0.689   4.141   2.299 -1.6411  1.4711 -1.0627
 4982TIP3   OH236580   5.460   5.089   2.151  0.6669 -0.3026  0.0777
 4982TIP3    H136581   5.437   5.008   2.106 -0.6823 -0.5457  1.1239
 4982TIP3    H236582   5.377   5.136   2.159  1.6257  1.8999 -1.7895
 4983TIP3   OH236583   5.763   1.638   2.204  0.3008  0.0209  0.4417
 4983TIP3    H136584   5.767   1.689   2.123 -1.8464  1.0384  0.8887
 4983TIP3    H236585   5.854   1.617   2.224  1.0208  1.2055 -1.3192
 4984TIP3   OH236586   4.799   0.366   7.253 -0.8241  0.5318  0.0269
 4984TIP3    H136587   4.708   0.338   7.240 -0.4174 -1.4592  1.1398
 4984TIP3    H236588   4.798   0.410   7.339 -0.4745 -0.9196  0.8019
 4985TIP3   OH236589   4.169   2.444   1.420  0.6293 -0.0340 -0.0881
 4985TIP3    H136590   4.137   2.395   1.496 -3.5317  0.4282 -1.3000
 4985TIP3    H236591   4.200   2.527   1.456 -0.2159 -0.2458  1.2046
 4986TIP3   OH236592   1.390   6.612   1.838  0.0456  0.2321  0.0657
 4986TIP3    H136593   1.326   6.568   1.782  1.5048 -2.0576  0.0764
 4986TIP3    H236594   1.348   6.616   1.924 -0.0161 -1.5338  0.1525
 4987TIP3   OH236595   3.606   4.173   7.755  0.3617 -0.6039 -0.4016
 4987TIP3    H136596   3.612   4.242   7.689  1.5236 -0.8468 -0.5764
 4987TIP3    H236597   3.674   4.110   7.730  0.0436 -1.2724  0.3700
 4988TIP3   OH236598   2.020   2.664   7.244 -0.1648  0.2288 -0.0527
 4988TIP3    H136599   2.074   2.740   7.222 -0.8162  1.3498  1.9941
 4988TIP3    H236600   2.007   2.671   7.339 -1.9574 -1.3034 -0.1453
 4989TIP3   OH236601   2.811   2.348   0.004  0.3911 -0.1868  0.3126
 4989TIP3    H136602   2.766   2.286   0.062 -1.5194  0.5982 -0.2567
 4989TIP3    H236603   2.891   2.371   0.052 -0.0245 -1.2765  1.5967
 4990TIP3   OH236604   6.805   4.539   8.017 -0.2184  0.2513  0.2705
 4990TIP3    H136605   6.774   4.572   7.932 -1.2824  1.9642  1.2664
 4990TIP3    H236606   6.894   4.573   8.025  0.3233 -0.8883 -0.6320
 4991TIP3   OH236607   0.119   4.044   8.256 -0.1707 -0.9114  0.6009
 4991TIP3    H136608   0.105   3.954   8.227  3.1121 -1.5693  0.7026
 4991TIP3    H236609   0.126   4.037   8.351 -1.3440 -0.2556  0.7593
 4992TIP3   OH236610   0.415   1.392   2.214 -0.4929  0.5383 -0.0504
 4992TIP3    H136611   0.443   1.315   2.165  0.4124  0.7632  0.0959
 4992TIP3    H236612   0.334   1.366   2.257 -0.2910 -0.2699 -0.1544
 4993TIP3   OH236613   4.778   0.659   6.455  0.4921  0.2018  0.6264
 4993TIP3    H136614   4.852   0.670   6.515  0.8595  1.2771 -0.0009
 4993TIP3    H236615   4.743   0.573   6.476  2.7251 -0.9282  0.0510
 4994TIP3   OH236616   5.448   4.893   6.679 -0.9069  0.7775 -0.2142
 4994TIP3    H136617   5.480   4.963   6.622 -1.8685  1.0449 -0.4494
 4994TIP3    H236618   5.475   4.812   6.635 -1.4644  0.9869 -0.9603
 4995TIP3   OH236619   5.657   4.909   7.612 -0.2546  0.1597 -0.1423
 4995TIP3    H136620   5.724   4.949   7.667 -0.7184  0.3474  0.2926
 4995TIP3    H236621   5.677   4.816   7.612 -0.8267  0.0099  1.1739
 4996TIP3   OH236622   2.175   1.264   5.965 -0.0041 -0.1371 -0.6080
 4996TIP3    H136623   2.251   1.310   5.929 -0.1928 -0.0005 -0.8344
 4996TIP3    H236624   2.211   1.208   6.034  0.2887 -0.0013 -0.6505
 4997TIP3   OH236625   0.229   0.598   6.610  0.2423  0.3437  0.2319
 4997TIP3    H136626   0.171   0.532   6.649  0.3851  0.1744  0.1580
 4997TIP3    H236627   0.184   0.681   6.624 -0.4230  0.1313 -0.5673
 4998TIP3   OH236628   3.966   0.460   7.783  0.4435 -0.6222 -0.0685
 4998TIP3    H136629   3.946   0.444   7.875  0.8991  1.1499  0.3658
 4998TIP3    H236630   3.942   0.378   7.739 -0.4159 -1.2572  1.5081
 4999TIP3   OH236631   6.650   5.508   7.882 -0.6941  0.1415  0.4866
 4999TIP3    H136632   6.664   5.598   7.851  2.4077 -0.3423  0.0796
 4999TIP3    H236633   6.574   5.514   7.939 -1.8541  2.6013 -1.1128
 5000TIP3   OH236634   2.878   2.369   0.350  0.5333 -0.6651  0.0052
 5000TIP3    H136635   2.840   2.457   0.348  3.6953  0.8588 -0.0489
 5000TIP3    H236636   2.829   2.323   0.418  0.3067  1.9650  1.7754
 5001TIP3   OH236637   2.486   4.499   6.727  0.3741 -0.2995 -0.3971
 5001TIP3    H136638   2.581   4.489   6.720  0.7183  0.2479  2.2176
 5001TIP3    H236639   2.475   4.559   6.801 -2.0220  0.0637 -0.9841
 5002TIP3   OH236640   0.709   4.342   0.709 -0.3424 -0.1148 -1.0142
 5002TIP3    H136641   0.623   4.377   0.685 -0.9172  0.0692  1.0815
 5002TIP3    H236642   0.728   4.276   0.642 -2.2501 -0.3529 -1.3863
 5003TIP3   OH236643   2.578   5.201   0.170  0.3667 -0.1626  0.4057
 5003TIP3    H136644   2.651   5.241   0.216  0.1138  1.3028 -0.4111
 5003TIP3    H236645   2.585   5.234   0.081 -0.0610 -1.7033 -0.2266
 5004TIP3   OH236646   3.678   1.199   7.509  0.0944 -0.6404 -0.7945
 5004TIP3    H136647   3.675   1.253   7.430  2.5139 -0.4556 -0.8175
 5004TIP3    H236648   3.655   1.259   7.580 -1.0908 -0.5642 -1.2220
 5005TIP3   OH236649   0.059   4.629   8.500 -0.5562 -0.1841 -0.4914
 5005TIP3    H136650   0.056   4.535   8.478 -0.3984 -0.5306  0.8753
 5005TIP3    H236651   0.029   4.633   8.591  0.9903  0.8944  0.0137
 5006TIP3   OH236652   6.614   2.991   6.971 -0.4341 -0.5792 -0.4234
 5006TIP3    H136653   6.618   3.086   6.987  0.1877 -0.5220 -0.8836
 5006TIP3    H236654   6.560   2.957   7.042 -0.5870  0.1139 -0.2023
 5007TIP3   OH236655   0.782   1.733   0.053 -0.0942 -0.0026 -0.1865
 5007TIP3    H136656   0.851   1.799   0.050  0.7122 -0.8524 -1.4751
 5007TIP3    H236657   0.751   1.728  -0.038  0.0135 -1.5257 -0.1581
 5008TIP3   OH236658   1.450   3.182   6.275 -0.2713 -0.3568  0.1340
 5008TIP3    H136659   1.467   3.092   6.248  1.5818  0.2916 -1.1076
 5008TIP3    H236660   1.537   3.221   6.283 -1.0429  1.7177 -0.8366
 5009TIP3   OH236661   5.464   1.425   1.102 -0.3979  0.5063 -0.2388
 5009TIP3    H136662   5.548   1.466   1.121  0.0868 -1.7052  3.3163
 5009TIP3    H236663   5.487   1.346   1.052 -0.2660 -0.2839  1.0365
 5010TIP3   OH236664   4.575   0.622   7.996 -0.3288  0.1409  0.0544
 5010TIP3    H136665   4.663   0.659   7.991 -0.6075  0.8079 -0.0466
 5010TIP3    H236666   4.573   0.576   8.080 -0.1395  0.8066  0.4299
 5011TIP3   OH236667   6.041   1.776   8.628  0.4803  0.5339 -0.1252
 5011TIP3    H136668   6.080   1.716   8.691  2.3586  1.5757 -0.2197
 5011TIP3    H236669   5.967   1.728   8.590  0.1855 -0.6250  1.8143
 5012TIP3   OH236670   1.437   3.654   2.068  0.4086  0.7725  0.4702
 5012TIP3    H136671   1.507   3.619   2.124  0.6067  2.1373  1.1015
 5012TIP3    H236672   1.357   3.615   2.102  0.7097  0.2449  0.5915
 5013TIP3   OH236673   6.621   0.981   0.842  0.5418  0.2615 -0.1548
 5013TIP3    H136674   6.636   0.929   0.921 -0.8346 -3.1384 -1.9303
 5013TIP3    H236675   6.527   0.975   0.827  0.7796  0.7813 -2.0722
 5014TIP3   OH236676   2.108   5.938   1.931  0.3197  0.0057  0.1935
 5014TIP3    H136677   2.115   5.976   2.019 -2.1811  0.0590  0.4298
 5014TIP3    H236678   2.102   5.844   1.947 -0.9408  0.0727  0.1558
 5015TIP3   OH236679   1.985   1.575   0.296 -0.4917  0.0357 -0.1834
 5015TIP3    H136680   2.000   1.520   0.219  0.7731 -0.4806  0.4015
 5015TIP3    H236681   1.890   1.589   0.298 -0.9247 -2.4863 -0.1283
 5016TIP3   OH236682   2.143   6.832   0.589  0.2690  0.3133 -0.0573
 5016TIP3    H136683   2.090   6.855   0.666 -1.2257  0.1697 -0.9871
 5016TIP3    H236684   2.193   6.755   0.616 -2.6413 -1.7888 -0.1170
 5017TIP3   OH236685   2.339   4.641   7.231  0.0581  0.2891  0.2253
 5017TIP3    H136686   2.422   4.638   7.279  0.6336 -1.3537 -0.7697
 5017TIP3    H236687   2.308   4.551   7.231  0.0576  0.2010 -2.3577
 5018TIP3   OH236688   2.427   0.721   1.607 -0.1009  0.3021 -0.2042
 5018TIP3    H136689   2.447   0.717   1.701 -0.3138 -0.1880 -0.1742
 5018TIP3    H236690   2.422   0.814   1.588 -1.4017  0.4264  0.5817
 5019TIP3   OH236691   0.908   0.759   1.587 -0.0194 -0.1699 -0.0865
 5019TIP3    H136692   0.845   0.794   1.523 -1.2029  0.1838  1.2313
 5019TIP3    H236693   0.912   0.666   1.567 -1.3959 -0.3063  0.1236
 5020TIP3   OH236694   5.552   6.255   6.624 -0.0104  0.2335 -0.0054
 5020TIP3    H136695   5.506   6.185   6.577 -1.7371  1.7370 -0.6599
 5020TIP3    H236696   5.569   6.321   6.557  1.1570  0.6868  0.7072
 5021TIP3   OH236697   3.371   4.412   0.511 -0.2167 -0.0120 -0.1720
 5021TIP3    H136698   3.357   4.506   0.523 -1.4189  0.3656 -3.5111
 5021TIP3    H236699   3.449   4.406   0.456 -0.8427 -0.8524 -1.0039
 5022TIP3   OH236700   4.173   1.944   7.919 -0.5517 -0.5677  0.0774
 5022TIP3    H136701   4.108   1.951   7.849  0.0040 -0.6143 -0.4534
 5022TIP3    H236702   4.256   1.969   7.877 -0.2827 -0.1788  0.8288
 5023TIP3   OH236703   2.290   2.924   1.421  0.6627  0.1741 -0.1254
 5023TIP3    H136704   2.377   2.896   1.447  0.1783 -0.2659  1.0990
 5023TIP3    H236705   2.252   2.961   1.500 -0.8969 -1.2794 -0.1262
 5024TIP3   OH236706   3.181   4.740   0.062 -0.0639 -0.2273  0.6643
 5024TIP3    H136707   3.273   4.739   0.035  0.1194 -1.2522  1.2868
 5024TIP3    H236708   3.135   4.692  -0.007 -0.0581 -0.1642  0.6160
 5025TIP3   OH236709   6.539   0.344   7.716  0.3088 -0.1628 -0.2394
 5025TIP3    H136710   6.568   0.308   7.800  1.5847  1.1193 -0.0877
 5025TIP3    H236711   6.451   0.378   7.733 -0.2796 -1.7392  0.0100
 5026TIP3   OH236712   4.240   6.460   1.662 -0.4414 -0.0404 -0.3714
 5026TIP3    H136713   4.233   6.516   1.584  0.9034 -0.2720 -0.6887
 5026TIP3    H236714   4.223   6.518   1.735  0.6554  0.7564 -0.7119
 5027TIP3   OH236715   5.719   4.131   1.499  0.1623 -0.0878 -0.3387
 5027TIP3    H136716   5.644   4.159   1.552 -0.1840 -2.2716  0.4379
 5027TIP3    H236717   5.794   4.177   1.537 -0.6526  1.6034 -0.6862
 5028TIP3   OH236718   6.175   5.509   7.175  0.7324  0.5275 -0.2614
 5028TIP3    H136719   6.130   5.452   7.113  1.0743 -0.3657  0.2872
 5028TIP3    H236720   6.116   5.514   7.250  1.6129 -0.8808  0.5810
 5029TIP3   OH236721   0.197   5.235   0.429 -0.6202 -0.1281 -0.2107
 5029TIP3    H136722   0.263   5.300   0.454 -0.5375 -0.6551  1.0323
 5029TIP3    H236723   0.143   5.280   0.365  1.3948  0.0494 -1.8862
 5030TIP3   OH236724   5.848   0.061   7.222 -0.5238 -0.5198  0.6197
 5030TIP3    H136725   5.844   0.039   7.129  3.2521 -0.4637  0.2880
 5030TIP3    H236726   5.901  -0.009   7.261 -1.2888 -0.0675  2.5757
 5031TIP3   OH236727   2.162   3.903   0.934 -0.0982 -0.0798  0.2444
 5031TIP3    H136728   2.118   3.970   0.881  0.6592  1.3598  1.3691
 5031TIP3    H236729   2.124   3.821   0.905 -1.0237  0.8276 -1.2313
 5032TIP3   OH236730   5.378   2.823   1.614 -0.2354  0.3526  0.2721
 5032TIP3    H136731   5.371   2.919   1.611  0.9101  0.4255 -0.2058
 5032TIP3    H236732   5.364   2.802   1.706 -0.7947  0.9464  0.3368
 5033TIP3   OH236733   6.190   4.182   2.081  0.7637  0.3062  0.1681
 5033TIP3    H136734   6.185   4.187   1.986 -0.2364  0.9196  0.2445
 5033TIP3    H236735   6.229   4.096   2.098 -3.0827 -1.8735 -0.7334
 5034TIP3   OH236736   0.760   2.057   8.257  0.4937 -0.0239  0.4181
 5034TIP3    H136737   0.719   1.972   8.274 -0.0245  0.3246  0.9380
 5034TIP3    H236738   0.835   2.060   8.317  0.5621 -0.1430  0.3402
 5035TIP3   OH236739   4.945   5.241   7.357  0.6764 -0.8836 -0.2758
 5035TIP3    H136740   4.942   5.206   7.268  0.6225 -1.7412  0.0550
 5035TIP3    H236741   4.992   5.176   7.407  2.0255  0.2888  0.0383
 5036TIP3   OH236742   2.897   0.183   7.347  0.2708 -0.0593  0.2595
 5036TIP3    H136743   2.958   0.168   7.419 -0.1570 -1.0171  0.4340
 5036TIP3    H236744   2.953   0.199   7.271  0.7253 -0.1831  0.5669
 5037TIP3   OH236745   1.957   1.817   7.000  0.0428 -0.3915  0.0751
 5037TIP3    H136746   2.036   1.869   6.986 -0.3685 -0.2988 -2.3101
 5037TIP3    H236747   1.885   1.876   6.981 -0.5085 -1.1447 -0.2539
 5038TIP3   OH236748   4.905   6.577   7.755 -0.6143 -0.5075  0.3111
 5038TIP3    H136749   4.895   6.575   7.851  0.8908  3.9706  0.8013
 5038TIP3    H236750   4.815   6.587   7.722 -1.0366 -0.7860  1.3127
 5039TIP3   OH236751   0.641   1.939   0.849 -0.6708 -0.5322 -0.2696
 5039TIP3    H136752   0.644   2.028   0.814  0.9005 -1.7925 -3.8906
 5039TIP3    H236753   0.561   1.936   0.902 -2.4364  2.2176 -2.5019
 5040TIP3   OH236754   6.257   5.306   7.372  0.4982  0.9620  0.1463
 5040TIP3    H136755   6.322   5.268   7.313  2.1349 -0.4333  2.6841
 5040TIP3    H236756   6.238   5.392   7.334  2.5678  0.7530 -1.5748
 5041TIP3   OH236757   5.100   6.389   6.652 -0.5490  0.1532  0.7783
 5041TIP3    H136758   5.042   6.355   6.584 -0.0791  0.0354  0.4243
 5041TIP3    H236759   5.134   6.471   6.615 -0.8157  0.4368  1.1600
 5042TIP3   OH236760   5.058   1.136   2.177  0.4383 -0.1822  0.1406
 5042TIP3    H136761   5.005   1.210   2.148  0.7836 -0.1197 -0.3318
 5042TIP3    H236762   5.031   1.063   2.121  0.3497 -0.3301  0.3712
 5043TIP3   OH236763   5.050   5.568   0.784  0.1900 -0.0208  0.6157
 5043TIP3    H136764   4.979   5.632   0.789  1.0244  0.9611  0.2557
 5043TIP3    H236765   5.111   5.604   0.719 -0.1729 -2.0585 -0.9515
 5044TIP3   OH236766   1.965   2.560   1.261 -0.5348 -0.5776 -0.3466
 5044TIP3    H136767   1.993   2.651   1.249 -0.8535 -0.3128  0.7598
 5044TIP3    H236768   1.907   2.543   1.187  0.5687 -0.3234 -1.2949
 5045TIP3   OH236769   0.764   6.019   8.559  0.5625 -0.1289  0.2959
 5045TIP3    H136770   0.719   6.004   8.642 -2.5937  0.3217 -1.1693
 5045TIP3    H236771   0.776   6.114   8.555  1.1837 -0.1972  0.4382
 5046TIP3   OH236772   3.540   1.283   7.922  0.1018 -0.1430  0.2629
 5046TIP3    H136773   3.530   1.356   7.860  1.1318 -2.2853 -2.6615
 5046TIP3    H236774   3.450   1.260   7.945 -0.3106  0.7884 -0.3228
 5047TIP3   OH236775   1.859   4.467   1.286 -0.4990 -0.0168 -0.4405
 5047TIP3    H136776   1.877   4.392   1.228 -1.2803 -0.5844  0.0309
 5047TIP3    H236777   1.819   4.428   1.363 -0.4712  0.8521  0.0205
 5048TIP3   OH236778   5.622   1.803   1.204 -0.1940 -0.0648  0.1835
 5048TIP3    H136779   5.697   1.849   1.166 -0.7752  1.9604  1.3730
 5048TIP3    H236780   5.583   1.865   1.265 -1.4151 -1.9357  1.4342
 5049TIP3   OH236781   0.461   1.453   8.447 -0.3161  0.1091 -0.1601
 5049TIP3    H136782   0.510   1.417   8.373 -2.8960 -1.2365 -1.3671
 5049TIP3    H236783   0.491   1.402   8.522  0.1047 -0.7125 -0.8680
 5050TIP3   OH236784   5.074   6.563   1.489  0.3200 -0.0822 -0.0753
 5050TIP3    H136785   5.097   6.656   1.486 -1.0155  0.2602 -0.1024
 5050TIP3    H236786   5.089   6.537   1.580 -0.9606  0.6134  0.3508
 5051TIP3   OH236787   6.236   2.142   7.399 -0.1418 -0.7263 -0.4444
 5051TIP3    H136788   6.179   2.217   7.385  2.6965  1.7108  0.0634
 5051TIP3    H236789   6.247   2.104   7.312 -0.1202  0.6551 -1.0679
 5052TIP3   OH236790   3.236   0.674   2.261 -0.2897  0.3423 -0.7519
 5052TIP3    H136791   3.204   0.659   2.350  0.8277 -1.1942 -0.5735
 5052TIP3    H236792   3.185   0.614   2.207 -0.8804  1.1853 -1.1433
 5053TIP3   OH236793   2.953   3.086   7.683 -0.2973 -0.8379 -0.1108
 5053TIP3    H136794   2.986   3.006   7.722  1.7663 -0.9121 -1.8386
 5053TIP3    H236795   3.009   3.155   7.717 -0.6372 -0.4345 -0.3460
 5054TIP3   OH236796   1.365   3.181   7.930 -0.0893  0.7056 -0.5243
 5054TIP3    H136797   1.270   3.173   7.932  0.0016 -0.7051  1.4001
 5054TIP3    H236798   1.391   3.149   7.844 -1.3382  1.0358 -1.0411
 5055TIP3   OH236799   3.555   2.592   1.176 -0.4278  0.1765  0.0497
 5055TIP3    H136800   3.622   2.594   1.107  0.8922  0.5815  1.2992
 5055TIP3    H236801   3.538   2.684   1.196 -1.2134  0.0724 -0.0891
 5056TIP3   OH236802   3.005   0.197   6.913  0.1275 -0.0931  0.5607
 5056TIP3    H136803   2.931   0.155   6.870 -0.8318  2.0686 -0.0172
 5056TIP3    H236804   3.081   0.169   6.862 -0.6849  0.2379 -0.8849
 5057TIP3   OH236805   2.192   0.569   0.860  0.1237 -0.6581  0.0734
 5057TIP3    H136806   2.278   0.558   0.818  0.7086  0.6028  0.8788
 5057TIP3    H236807   2.153   0.482   0.858  0.7948 -0.9650 -1.6269
 5058TIP3   OH236808   0.074   4.707   7.140  0.4559 -0.3801 -0.0493
 5058TIP3    H136809   0.141   4.653   7.098  0.8001  1.2134 -1.6506
 5058TIP3    H236810   0.124   4.775   7.186 -0.0329  0.1892 -0.3541
 5059TIP3   OH236811   0.972   0.236   1.677  0.3508  0.5964 -1.0172
 5059TIP3    H136812   1.049   0.185   1.653  1.0496 -0.1491  2.3289
 5059TIP3    H236813   0.901   0.172   1.678  0.8916 -0.0929  1.4325
 5060TIP3   OH236814   4.243   6.606   6.579 -0.0186  0.3718 -0.3893
 5060TIP3    H136815   4.256   6.695   6.612 -0.3882 -0.0521  0.9907
 5060TIP3    H236816   4.332   6.573   6.564  0.2146  0.3342  0.9510
 5061TIP3   OH236817   1.549   1.185   8.533 -0.7510 -0.3500 -0.9408
 5061TIP3    H136818   1.636   1.165   8.567 -1.0301  0.5514  0.4034
 5061TIP3    H236819   1.493   1.187   8.611 -1.7954 -0.0495 -1.6776
 5062TIP3   OH236820   6.587   2.963   1.750 -0.2276 -0.1416  0.6492
 5062TIP3    H136821   6.534   3.004   1.682 -0.0091 -1.2278 -0.2187
 5062TIP3    H236822   6.579   3.020   1.826 -1.0128  0.7546 -0.0922
 5063TIP3   OH236823   4.297   2.752   2.381  0.1809 -0.0379 -0.5612
 5063TIP3    H136824   4.306   2.700   2.461 -1.5377  0.5728  0.0862
 5063TIP3    H236825   4.334   2.837   2.403  1.3755 -0.4164 -1.0401
 5064TIP3   OH236826   5.004   0.447   0.486  0.1028 -0.4067  1.3809
 5064TIP3    H136827   5.035   0.376   0.431  1.6137  0.7905  0.6155
 5064TIP3    H236828   4.923   0.478   0.444  0.9608  0.1575  0.1048
 5065TIP3   OH236829   4.834   3.794   2.026  0.0024 -0.0392 -0.3777
 5065TIP3    H136830   4.858   3.701   2.029 -1.8071 -0.5180  1.1255
 5065TIP3    H236831   4.859   3.822   1.938 -1.8208 -2.6915 -1.8957
 5066TIP3   OH236832   3.059   2.821   8.418  0.0188 -0.6064  0.0333
 5066TIP3    H136833   3.095   2.741   8.378  0.8317 -1.1972  1.8413
 5066TIP3    H236834   3.013   2.790   8.495 -1.4524  0.5105 -0.3615
 5067TIP3   OH236835   0.597   4.991   1.608 -0.0547  0.6755  0.0421
 5067TIP3    H136836   0.587   5.075   1.564  0.5197  0.1964 -1.0591
 5067TIP3    H236837   0.521   4.939   1.580 -0.4117  0.8242  0.7223
 5068TIP3   OH236838   1.595   2.298   6.757 -0.0482  0.9193  0.1730
 5068TIP3    H136839   1.547   2.379   6.771  0.2851  0.9345  1.3489
 5068TIP3    H236840   1.537   2.244   6.704 -0.4161  1.7882 -0.3253
 5069TIP3   OH236841   1.032   3.897   0.463  0.0429  0.6917 -0.0268
 5069TIP3    H136842   0.975   3.894   0.540 -0.7813  1.3476 -0.6082
 5069TIP3    H236843   0.975   3.877   0.390  0.7570  0.4174 -0.5185
 5070TIP3   OH236844   1.148   4.539   8.510  0.6539 -0.5271  1.0678
 5070TIP3    H136845   1.123   4.465   8.455 -3.1743  0.1039  1.6627
 5070TIP3    H236846   1.187   4.500   8.588  1.3396 -1.6949  0.1671
 5071TIP3   OH236847   1.764   4.548   6.529 -0.0025 -0.0602 -0.3066
 5071TIP3    H136848   1.694   4.611   6.516 -0.9900 -0.7518  1.3054
 5071TIP3    H236849   1.784   4.514   6.442 -1.1571  0.6960 -0.8792
 5072TIP3   OH236850   1.005   0.879   0.336  0.1589 -0.2551  0.9006
 5072TIP3    H136851   1.033   0.841   0.253  2.4571 -1.0391  1.9690
 5072TIP3    H236852   0.942   0.946   0.311  1.9910  0.6798 -1.6102
 5073TIP3   OH236853   5.818   0.992   7.053 -0.3660  0.6399  0.5790
 5073TIP3    H136854   5.808   0.900   7.031  0.7793  0.9503 -1.4165
 5073TIP3    H236855   5.747   1.036   7.007 -0.0750  0.9086  0.3851
 5074TIP3   OH236856   1.393   2.554   8.088 -0.4445  0.0067 -0.5763
 5074TIP3    H136857   1.350   2.584   8.008 -0.6003 -1.8516 -1.2485
 5074TIP3    H236858   1.374   2.460   8.091  0.9732 -0.2787  0.7654
 5075TIP3   OH236859   6.832   1.901   2.163 -0.4462 -0.2116  0.0203
 5075TIP3    H136860   6.753   1.909   2.217  0.0185  0.8042  0.5931
 5075TIP3    H236861   6.882   1.981   2.182  1.1513 -1.2463  0.3580
 5076TIP3   OH236862   0.940   5.702   8.416  0.2038  0.0318  0.4360
 5076TIP3    H136863   0.866   5.744   8.373  0.6975  0.2316 -0.2425
 5076TIP3    H236864   0.911   5.612   8.431 -0.3371  0.2272  0.6017
 5077TIP3   OH236865   4.535   4.096   7.037 -0.3530  0.0247  0.3885
 5077TIP3    H136866   4.525   4.116   7.130  1.4973 -0.6954  0.7959
 5077TIP3    H236867   4.448   4.067   7.009 -1.4903  2.3073  1.3203
 5078TIP3   OH236868   0.596   0.568   7.108 -0.4215  0.0880 -0.0756
 5078TIP3    H136869   0.506   0.544   7.131  0.3483 -0.7988  2.3427
 5078TIP3    H236870   0.643   0.484   7.108  0.3835  0.5069 -1.5873
 5079TIP3   OH236871   6.901   6.124   8.148  0.3657 -0.0633 -0.0823
 5079TIP3    H136872   6.924   6.122   8.241  0.3819  0.9193 -0.0605
 5079TIP3    H236873   6.853   6.205   8.137 -0.7892 -0.8074 -0.6766
 5080TIP3   OH236874   3.728   4.376   1.436  0.5557  1.1674 -0.0918
 5080TIP3    H136875   3.802   4.433   1.415  0.3179  1.5997  0.2407
 5080TIP3    H236876   3.696   4.408   1.520  1.8880 -0.9569  1.2935
 5081TIP3   OH236877   6.223   0.104   6.744  0.1878 -0.3093 -0.2323
 5081TIP3    H136878   6.296   0.124   6.802  0.2937  0.7894 -0.7268
 5081TIP3    H236879   6.263   0.064   6.667  0.5955  2.4200 -1.5536
 5082TIP3   OH236880   3.334   3.309   0.688 -0.5282  0.0338  0.1008
 5082TIP3    H136881   3.391   3.366   0.739  0.4594  1.6620 -2.5831
 5082TIP3    H236882   3.249   3.314   0.731  0.6443 -0.2336  2.6001
 5083TIP3   OH236883   0.016   5.834   1.707 -0.5029  0.7387  0.3199
 5083TIP3    H136884   0.094   5.802   1.752 -0.5715  2.0604  1.4692
 5083TIP3    H236885  -0.026   5.892   1.771 -0.0157  3.5956 -1.7697
 5084TIP3   OH236886   0.868   1.066   1.357  0.3323  0.0828 -0.3607
 5084TIP3    H136887   0.809   0.990   1.363  1.5972 -1.1901 -2.7280
 5084TIP3    H236888   0.943   1.042   1.411  1.9292 -1.6655 -3.1303
 5085TIP3   OH236889   5.949   3.794   6.909  0.0140 -0.0769 -0.6020
 5085TIP3    H136890   6.014   3.728   6.886  1.2391  1.4828 -1.9100
 5085TIP3    H236891   5.865   3.751   6.895  0.7524 -1.5870 -0.6488
 5086TIP3   OH236892   5.538   4.317   1.740  0.0680 -0.7416 -0.3611
 5086TIP3    H136893   5.633   4.308   1.752  0.1577  1.1712  0.6557
 5086TIP3    H236894   5.500   4.284   1.822 -0.0335  0.1685 -0.0338
 5087TIP3   OH236895   0.644   5.263   0.701  0.1932  0.2115  0.2894
 5087TIP3    H136896   0.577   5.234   0.640 -0.9233  0.1111  1.5281
 5087TIP3    H236897   0.666   5.352   0.672 -0.7426  0.3854  0.0873
 5088TIP3   OH236898   6.872   0.111   0.588  0.5700 -0.3485  0.2769
 5088TIP3    H136899   6.893   0.203   0.571  0.9611 -0.2672  1.1607
 5088TIP3    H236900   6.778   0.105   0.569  1.1621 -0.6187 -3.2373
 5089TIP3   OH236901   2.562   4.753   8.287  0.3576  0.1654  0.0955
 5089TIP3    H136902   2.552   4.756   8.382 -0.4452  1.3297 -0.0085
 5089TIP3    H236903   2.590   4.663   8.269  1.9190  0.2967  1.5484
 5090TIP3   OH236904   5.930   4.925   7.708  0.0749  0.2146 -0.6390
 5090TIP3    H136905   5.991   4.862   7.670 -0.5713 -1.0347  0.3161
 5090TIP3    H236906   5.976   5.009   7.706  2.2161 -0.8463  0.8971
 5091TIP3   OH236907   0.381   4.648   2.385 -0.7476 -0.0644  0.2320
 5091TIP3    H136908   0.294   4.681   2.363 -0.4051 -0.1094 -1.2475
 5091TIP3    H236909   0.375   4.554   2.371 -0.4651 -0.0749  0.1794
 5092TIP3   OH236910   0.493   4.025   1.435 -0.2233 -0.9145 -0.3504
 5092TIP3    H136911   0.427   3.968   1.474  0.0793 -1.1729 -0.2136
 5092TIP3    H236912   0.553   4.045   1.507 -0.3645 -0.3633 -0.3759
 5093TIP3   OH236913   6.128   1.002   8.043 -0.2210 -0.3909 -0.3179
 5093TIP3    H136914   6.066   1.070   8.016  0.3586  0.3664  0.2522
 5093TIP3    H236915   6.072   0.931   8.075 -0.8094  0.8535  1.5744
 5094TIP3   OH236916   3.403   6.778   0.343  0.0103 -0.4085 -0.0792
 5094TIP3    H136917   3.386   6.868   0.316 -0.2418 -0.8837 -1.6357
 5094TIP3    H236918   3.498   6.770   0.342  0.0687  0.0405  0.8338
 5095TIP3   OH236919   3.301   3.093   7.007  0.1497 -0.1674 -0.2224
 5095TIP3    H136920   3.216   3.123   6.974 -0.1784  0.9818  1.5519
 5095TIP3    H236921   3.316   3.145   7.086  1.8833 -1.3111  0.2521
 5096TIP3   OH236922   5.816   6.518   6.449  0.2991  0.0842  0.2744
 5096TIP3    H136923   5.799   6.496   6.357  0.6166  1.1160 -0.0403
 5096TIP3    H236924   5.798   6.437   6.496 -0.3818 -0.3176 -0.6367
 5097TIP3   OH236925   3.661   5.596   7.352 -0.1687 -0.0082  0.4909
 5097TIP3    H136926   3.704   5.680   7.370 -0.2901  0.0632  0.4485
 5097TIP3    H236927   3.568   5.617   7.349 -0.1607 -0.0351 -0.1385
 5098TIP3   OH236928   6.718   3.716   0.382  0.1151  0.1192  0.4089
 5098TIP3    H136929   6.728   3.797   0.433  0.0361  0.2132  0.2763
 5098TIP3    H236930   6.799   3.668   0.398 -0.1699 -0.1359  1.1242
 5099TIP3   OH236931   0.135   0.504   1.753  0.0289  0.3941 -0.1254
 5099TIP3    H136932   0.059   0.520   1.809  0.9784 -0.2760  1.4189
 5099TIP3    H236933   0.151   0.410   1.761 -0.2507  0.1367 -2.1525
 5100TIP3   OH236934   4.436   4.887   1.504 -0.1720  0.1256 -0.2069
 5100TIP3    H136935   4.370   4.954   1.520 -0.6267 -0.4457  0.3712
 5100TIP3    H236936   4.471   4.867   1.590  1.6783  1.3213 -0.6373
 5101TIP3   OH236937   4.462   1.944   0.182 -0.0532  0.0646 -0.4957
 5101TIP3    H136938   4.372   1.928   0.208 -0.4283  0.7136 -1.3253
 5101TIP3    H236939   4.510   1.956   0.264 -1.1935  2.1355 -0.0503
 5102TIP3   OH236940   0.624   3.789   7.667  0.5937 -0.4219  0.3535
 5102TIP3    H136941   0.543   3.768   7.714 -0.1139 -1.8845 -1.4072
 5102TIP3    H236942   0.613   3.880   7.639 -0.7555 -0.8108 -0.4442
 5103TIP3   OH236943   6.280   6.369   1.673  0.4754 -0.0251  0.5007
 5103TIP3    H136944   6.194   6.368   1.714 -0.1189  1.5616 -0.5922
 5103TIP3    H236945   6.273   6.307   1.601  0.8270 -1.1824  1.4326
 5104TIP3   OH236946   5.276   5.384   2.373 -0.2605  0.7368 -0.2123
 5104TIP3    H136947   5.347   5.348   2.320 -0.2502 -1.6334  1.2676
 5104TIP3    H236948   5.196   5.360   2.327 -0.1901  0.6304 -0.2793
 5105TIP3   OH236949   6.250   3.404   1.260  0.4699  0.0335  0.0497
 5105TIP3    H136950   6.339   3.371   1.246  0.8654  1.4523 -0.9823
 5105TIP3    H236951   6.262   3.489   1.302 -0.4232 -0.0160  0.4265
 5106TIP3   OH236952   3.996   4.514   8.219 -0.1314 -0.6417  0.1781
 5106TIP3    H136953   4.027   4.468   8.141 -2.3019  1.6000 -2.1952
 5106TIP3    H236954   3.920   4.464   8.247 -0.4128 -0.4562 -0.2502
 5107TIP3   OH236955   4.053   2.639   1.997  0.4823 -0.0618  0.3817
 5107TIP3    H136956   4.069   2.715   2.053  0.1306 -0.9616  1.7408
 5107TIP3    H236957   4.110   2.571   2.033  0.6164 -0.5239 -0.6794
 5108TIP3   OH236958   4.711   0.268   6.884 -0.3025  0.7800  0.2770
 5108TIP3    H136959   4.744   0.234   6.801  0.5324  0.0961  0.8773
 5108TIP3    H236960   4.700   0.191   6.939 -1.7314  1.1228  0.5143
 5109TIP3   OH236961   1.897   0.554   1.637  0.6330 -0.1227 -0.2464
 5109TIP3    H136962   1.874   0.529   1.726  1.2209 -1.3259 -0.4098
 5109TIP3    H236963   1.991   0.573   1.640  0.0680  3.2125  0.0807
 5110TIP3   OH236964   4.013   2.841   7.582 -0.6856 -0.1829 -0.2367
 5110TIP3    H136965   4.076   2.821   7.651 -2.4671 -0.8479  1.2742
 5110TIP3    H236966   3.965   2.917   7.615 -1.2819 -0.2494 -0.9382
 5111TIP3   OH236967   2.270   2.593   8.387  0.2011 -0.2255 -0.5171
 5111TIP3    H136968   2.239   2.660   8.448 -0.3725 -0.7147 -0.2507
 5111TIP3    H236969   2.333   2.638   8.331 -0.5019  0.6386 -0.6329
 5112TIP3   OH236970   5.354   0.208   7.580 -0.8566  0.5882  0.4514
 5112TIP3    H136971   5.304   0.227   7.501 -1.9007 -0.5562  0.8124
 5112TIP3    H236972   5.446   0.211   7.552 -1.2062  0.4316 -0.7513
 5113TIP3   OH236973   4.412   5.748   0.626 -0.6048  0.3638  0.1856
 5113TIP3    H136974   4.486   5.752   0.686 -0.0493  0.6881 -0.5042
 5113TIP3    H236975   4.435   5.809   0.556 -2.4294  2.0783  0.9578
 5114TIP3   OH236976   5.805   5.228   8.515  0.1939 -0.3417 -0.7266
 5114TIP3    H136977   5.716   5.200   8.493  0.4196 -1.8382  0.1280
 5114TIP3    H236978   5.805   5.232   8.611  1.4473 -1.8483 -0.6305
 5115TIP3   OH236979   2.472   0.510   7.200  0.5607  0.5450  0.3950
 5115TIP3    H136980   2.541   0.453   7.166 -0.5357 -1.2331  1.0071
 5115TIP3    H236981   2.490   0.516   7.294  0.6728  1.2386  0.3346
 5116TIP3   OH236982   3.272   4.923   0.428  0.6217 -0.2659  0.0943
 5116TIP3    H136983   3.253   4.958   0.341 -0.9014 -1.5469 -0.1503
 5116TIP3    H236984   3.292   5.000   0.481 -0.9671  0.8208 -0.7840
 5117TIP3   OH236985   5.529   3.112   7.698  0.2622  0.0285  0.3470
 5117TIP3    H136986   5.560   3.127   7.609  0.8474  1.4695  0.7642
 5117TIP3    H236987   5.461   3.046   7.689 -0.1538  0.6364 -1.2509
 5118TIP3   OH236988   2.227   3.546   1.918  0.2149 -0.5602 -0.6275
 5118TIP3    H136989   2.204   3.488   1.846 -1.5691 -0.9450  0.1915
 5118TIP3    H236990   2.236   3.488   1.994 -0.7854  0.1169  0.0317
 5119TIP3   OH236991   0.265   0.710   0.740 -0.4517 -0.0316  0.1113
 5119TIP3    H136992   0.337   0.680   0.794  1.6140  0.3433 -2.2421
 5119TIP3    H236993   0.234   0.632   0.695 -0.2659  0.0866 -0.2296
 5120TIP3   OH236994   0.991   3.486   8.604  0.5284 -0.2846 -0.2683
 5120TIP3    H136995   0.977   3.403   8.559  0.3896 -0.2545 -0.2780
 5120TIP3    H236996   1.068   3.470   8.659  0.9729 -0.1873 -0.8490
 5121TIP3   OH236997   3.502   3.698   7.890 -0.3459 -0.1670 -0.0866
 5121TIP3    H136998   3.494   3.791   7.868  0.7951 -0.4848 -2.0837
 5121TIP3    H236999   3.412   3.670   7.909 -1.0821  0.8167 -1.8627
 5122TIP3   OH237000   3.932   3.568   8.561 -0.4928 -0.2268  0.1679
 5122TIP3    H137001   3.950   3.525   8.645  0.4350  0.3661  0.2833
 5122TIP3    H237002   4.013   3.614   8.539 -0.6513 -0.5477 -1.1687
 5123TIP3   OH237003   0.755   3.110   1.062 -0.4464 -0.2379  0.2839
 5123TIP3    H137004   0.836   3.161   1.070 -1.3857  1.3848 -0.1221
 5123TIP3    H237005   0.688   3.165   1.103 -1.1544 -2.1423  1.8865
 5124TIP3   OH237006   1.874   6.517   7.702 -0.1321 -0.5688  0.1077
 5124TIP3    H137007   1.887   6.578   7.774 -0.9479 -0.0384 -0.1803
 5124TIP3    H237008   1.784   6.486   7.713 -0.2401 -0.5365 -0.6436
 5125TIP3   OH237009   3.488   1.533   0.287 -0.5014  0.5849  0.6440
 5125TIP3    H137010   3.462   1.611   0.336 -2.3282  0.4272 -0.0102
 5125TIP3    H237011   3.427   1.465   0.316  0.8378 -0.5293  0.9470
 5126TIP3   OH237012   0.310   1.334   0.645  0.6521  0.5551  0.9304
 5126TIP3    H137013   0.262   1.398   0.697  0.7608  0.5203  1.0747
 5126TIP3    H237014   0.402   1.354   0.660  0.6860  0.4340  0.8906
 5127TIP3   OH237015   5.057   6.513   0.576 -0.4852  0.4579  0.7731
 5127TIP3    H137016   5.118   6.466   0.632  0.8302  2.0552  0.7614
 5127TIP3    H237017   5.096   6.600   0.565 -2.0234  1.0511 -0.4682
 5128TIP3   OH237018   3.265   6.548   0.248  0.0288 -0.5485  0.6493
 5128TIP3    H137019   3.238   6.546   0.157 -0.2114 -0.1416  0.7074
 5128TIP3    H237020   3.307   6.634   0.259  1.9904 -1.4150  0.3871
 5129TIP3   OH237021   2.284   3.132   6.749  0.1239 -0.5796  0.2822
 5129TIP3    H137022   2.214   3.143   6.685  2.1023  1.7918 -1.6804
 5129TIP3    H237023   2.341   3.065   6.712  0.4489 -0.3356  0.3331
 5130TIP3   OH237024   6.336   5.964   6.802  0.2776  0.4092  0.0209
 5130TIP3    H137025   6.242   5.956   6.815  0.3814 -0.4084  0.3145
 5130TIP3    H237026   6.345   6.023   6.727 -0.4444  1.0458  0.4233
 5131TIP3   OH237027   0.823   3.162   6.338  0.5025  0.1297 -0.2136
 5131TIP3    H137028   0.739   3.160   6.384  0.6216 -0.4828 -0.0058
 5131TIP3    H237029   0.888   3.177   6.407  0.6745 -0.7195 -0.1697
 5132TIP3   OH237030   0.413   4.136   7.852  0.2427 -0.2868 -0.4089
 5132TIP3    H137031   0.377   4.094   7.774  2.9111 -1.2896 -1.2104
 5132TIP3    H237032   0.431   4.226   7.824 -1.9057  0.3875  0.1542
 5133TIP3   OH237033   1.498   3.641   7.452 -0.8030  0.1566 -0.0397
 5133TIP3    H137034   1.528   3.611   7.366 -1.7294 -1.6487  0.2132
 5133TIP3    H237035   1.519   3.569   7.511 -1.1356  0.9298  1.0604
 5134TIP3   OH237036   1.160   0.939   7.812  0.0068 -0.8562 -0.3805
 5134TIP3    H137037   1.114   0.856   7.807  0.1822 -0.9610 -0.2761
 5134TIP3    H237038   1.150   0.966   7.904 -0.4937 -0.5052 -0.5310
 5135TIP3   OH237039   2.419   3.149   1.273  0.2225  0.4985  0.1332
 5135TIP3    H137040   2.433   3.134   1.367 -1.3208  1.8517  0.6283
 5135TIP3    H237041   2.490   3.207   1.248  3.1285 -3.0221 -0.6031
 5136TIP3   OH237042   4.923   1.475   0.292  0.2774 -0.1817  0.5472
 5136TIP3    H137043   4.832   1.461   0.317 -0.5216 -1.1740 -2.4536
 5136TIP3    H237044   4.924   1.560   0.249  1.3171  0.8687  2.4934
 5137TIP3   OH237045   5.901   5.329   8.238  0.2530 -0.4287  0.2265
 5137TIP3    H137046   5.906   5.422   8.260 -2.2278  0.0481 -0.8890
 5137TIP3    H237047   5.848   5.291   8.308 -0.4174 -0.5869 -0.3583
 5138TIP3   OH237048   2.352   1.691   7.984  0.0705  0.1845  0.3325
 5138TIP3    H137049   2.308   1.656   7.906 -1.0784  0.8081  0.6602
 5138TIP3    H237050   2.438   1.651   7.984 -0.2503 -0.5484 -0.7489
 5139TIP3   OH237051   2.616   2.702   6.467 -0.4033  0.1371 -0.0789
 5139TIP3    H137052   2.588   2.611   6.469  0.1952 -0.0815 -1.1944
 5139TIP3    H237053   2.548   2.748   6.418 -0.2062  0.1064 -0.3833
 5140TIP3   OH237054   6.811   4.852   7.361  1.1166 -0.7349  0.0343
 5140TIP3    H137055   6.788   4.887   7.448 -0.3100  2.5824 -1.5019
 5140TIP3    H237056   6.768   4.767   7.358 -2.0976  0.6801  1.2861
 5141TIP3   OH237057   2.796   0.529   1.177 -0.2391  0.0715 -0.4540
 5141TIP3    H137058   2.803   0.624   1.166 -1.1173  0.2618  0.5062
 5141TIP3    H237059   2.753   0.517   1.261  1.0682 -1.2254  0.0693
 5142TIP3   OH237060   4.867   2.983   7.875 -0.1262 -0.0165 -0.5886
 5142TIP3    H137061   4.922   2.935   7.814  0.7983 -0.7779  0.7702
 5142TIP3    H237062   4.902   3.073   7.873  2.0995 -0.7385  1.1417
 5143TIP3   OH237063   2.643   3.265   7.925  0.0683 -0.2438 -0.1070
 5143TIP3    H137064   2.681   3.219   7.850 -1.8655  0.4611 -1.6146
 5143TIP3    H237065   2.587   3.332   7.886 -1.1706  0.0327  1.9659
 5144TIP3   OH237066   0.944   0.039   7.175  0.0356 -0.3622  0.0082
 5144TIP3    H137067   0.902   0.081   7.250 -0.0811  0.4024 -0.4673
 5144TIP3    H237068   0.871   0.006   7.123  0.0368  0.3071 -0.4402
 5145TIP3   OH237069   1.616   3.087   0.945  0.3732 -0.1217  0.3314
 5145TIP3    H137070   1.702   3.083   0.988  0.5655  0.4812  0.0104
 5145TIP3    H237071   1.625   3.156   0.879 -0.5419  0.3696  0.7010
 5146TIP3   OH237072   1.638   0.044   6.967  0.0776 -0.1989 -0.0715
 5146TIP3    H137073   1.578   0.007   6.903  1.8129 -0.2702 -1.7514
 5146TIP3    H237074   1.717   0.065   6.917  1.0712  0.9125  1.8196
 5147TIP3   OH237075   4.519   3.311   6.450 -0.5621  0.4123  0.2169
 5147TIP3    H137076   4.529   3.217   6.435 -0.5757  0.0366  2.2751
 5147TIP3    H237077   4.607   3.341   6.476 -1.3175  0.0283  3.7982
 5148TIP3   OH237078   4.184   0.922   0.712 -0.8095 -0.0866  0.4166
 5148TIP3    H137079   4.090   0.932   0.698 -0.9936  0.1327  1.7094
 5148TIP3    H237080   4.207   0.840   0.667 -1.1644  0.9677 -1.8205
 5149TIP3   OH237081   4.661   1.826   2.513  0.1134  0.4153 -0.2475
 5149TIP3    H137082   4.736   1.798   2.566  1.0290  0.6107 -1.4094
 5149TIP3    H237083   4.608   1.879   2.574 -0.6846 -2.1473  1.4374
 5150TIP3   OH237084   2.139   2.750   8.119  0.1324 -0.5651  0.7088
 5150TIP3    H137085   2.169   2.726   8.031 -1.5336 -1.7126  0.4024
 5150TIP3    H237086   2.088   2.674   8.148  0.3727 -0.0648  2.5416
 5151TIP3   OH237087   1.241   2.296   1.745 -0.2445 -0.4582  0.2588
 5151TIP3    H137088   1.323   2.319   1.703 -1.3739 -0.6282 -2.2121
 5151TIP3    H237089   1.254   2.319   1.837  1.6435  2.0147 -0.5001
 5152TIP3   OH237090   5.434   0.408   6.496  0.5179  0.1281 -0.4990
 5152TIP3    H137091   5.513   0.364   6.526 -0.7331 -0.6286  1.9047
 5152TIP3    H237092   5.398   0.349   6.429  0.2876 -1.2441  0.7687
 5153TIP3   OH237093   0.378   2.770   2.240  0.0072  0.2670  0.4828
 5153TIP3    H137094   0.441   2.722   2.295 -1.7472 -0.2238  2.1769
 5153TIP3    H237095   0.377   2.858   2.277 -0.8254  0.0729  0.9231
 5154TIP3   OH237096   0.888   3.491   7.352 -0.6377 -0.2142 -0.1425
 5154TIP3    H137097   0.981   3.510   7.368 -0.5475 -1.0471  0.4137
 5154TIP3    H237098   0.842   3.544   7.417 -0.7153  1.8356 -1.7657
 5155TIP3   OH237099   5.500   0.438   1.161  0.1691  0.2723 -0.1517
 5155TIP3    H137100   5.591   0.431   1.191 -0.0242  2.5772  1.1933
 5155TIP3    H237101   5.505   0.430   1.066  1.7348  0.0960 -0.0797
 5156TIP3   OH237102   2.644   0.833   7.227 -0.3622 -0.4718  0.1731
 5156TIP3    H137103   2.611   0.875   7.148 -1.1273 -1.6512 -0.1603
 5156TIP3    H237104   2.697   0.760   7.195 -0.8166 -1.0631  0.7389
 5157TIP3   OH237105   6.656   4.888   8.343 -0.1207 -0.3117  0.0290
 5157TIP3    H137106   6.567   4.854   8.352 -0.3655  0.3273  0.0821
 5157TIP3    H237107   6.711   4.810   8.348 -0.5113 -0.5408  2.3372
 5158TIP3   OH237108   3.282   0.990   6.018 -0.3797  0.3229 -0.0567
 5158TIP3    H137109   3.214   1.055   6.037 -0.4697  0.8490 -1.9692
 5158TIP3    H237110   3.348   1.004   6.086 -2.9372 -1.5023  3.0978
 5159TIP3   OH237111   2.632   3.952   0.079 -0.4343  0.0966  0.0786
 5159TIP3    H137112   2.636   3.862   0.113 -0.2277  0.3229  0.6609
 5159TIP3    H237113   2.661   3.944  -0.012  0.2533 -0.3262  0.3260
 5160TIP3   OH237114   1.288   3.790   0.543 -0.3549 -0.1556  0.0750
 5160TIP3    H137115   1.201   3.822   0.519  0.0162  0.9657  0.1532
 5160TIP3    H237116   1.337   3.788   0.461 -0.6844 -1.5976 -0.1075
 5161TIP3   OH237117   2.344   3.543   7.284  0.4462 -0.1195 -0.1459
 5161TIP3    H137118   2.366   3.481   7.354  0.3731  0.6121  0.5451
 5161TIP3    H237119   2.346   3.491   7.204 -2.6248 -1.7527  0.6803
 5162TIP3   OH237120   2.139   2.013   6.925  0.1049 -0.7302 -0.4468
 5162TIP3    H137121   2.222   2.052   6.899 -0.3106  0.0147 -0.6726
 5162TIP3    H237122   2.104   2.071   6.992 -0.1527 -1.1366 -0.2241
 5163TIP3   OH237123   4.326   6.290   8.090 -0.0914 -0.0312  0.5100
 5163TIP3    H137124   4.255   6.234   8.060  1.0764 -0.5233 -1.5954
 5163TIP3    H237125   4.383   6.299   8.014  0.6260  2.7276  1.2353
 5164TIP3   OH237126   5.277   5.473   7.458  0.1397 -0.4062  0.4191
 5164TIP3    H137127   5.359   5.462   7.409  1.9696 -0.7035  3.3212
 5164TIP3    H237128   5.252   5.564   7.442  1.3803 -0.1266 -0.0618
 5165TIP3   OH237129   3.985   2.192   8.290  0.2473 -0.0976 -0.2108
 5165TIP3    H137130   4.052   2.232   8.234 -1.5454 -0.6855 -2.9926
 5165TIP3    H237131   3.965   2.108   8.248 -2.2338  0.0782  0.4507
 5166TIP3   OH237132   4.211   2.254   8.105 -0.1821 -1.0108  0.2850
 5166TIP3    H137133   4.236   2.335   8.149 -0.4398 -0.6315 -0.2655
 5166TIP3    H237134   4.293   2.204   8.100  0.3036 -0.1528 -0.7052
 5167TIP3   OH237135   2.382   0.522   7.844 -0.1251  0.2699 -0.7400
 5167TIP3    H137136   2.308   0.463   7.828 -0.2730  0.9726 -3.1121
 5167TIP3    H237137   2.459   0.471   7.818 -0.2057  0.8509 -2.2590
 5168TIP3   OH237138   3.465   6.712   2.434 -0.1588  0.0769 -0.5081
 5168TIP3    H137139   3.557   6.705   2.458 -0.3779 -1.4856  0.0119
 5168TIP3    H237140   3.464   6.697   2.340  0.2678  1.8251 -0.8161
 5169TIP3   OH237141   3.544   4.453   7.509 -0.7869 -0.4179 -0.4643
 5169TIP3    H137142   3.525   4.472   7.601 -0.0662  3.4623 -0.9454
 5169TIP3    H237143   3.633   4.418   7.510 -0.9305 -0.7898  0.3281
 5170TIP3   OH237144   0.218   0.001   0.867 -0.3080 -0.2245  0.5491
 5170TIP3    H137145   0.172  -0.074   0.830  1.0920 -0.8816  0.0507
 5170TIP3    H237146   0.234   0.059   0.792  0.1147 -0.2513  0.6147
 5171TIP3   OH237147   3.542   0.143   7.525  0.4024  0.0881  0.4101
 5171TIP3    H137148   3.523   0.059   7.567  1.2925 -1.3279 -1.8295
 5171TIP3    H237149   3.460   0.191   7.529 -1.2650 -2.3586 -1.3368
 5172TIP3   OH237150   4.777   6.343   8.178 -0.1719 -0.4245 -0.0407
 5172TIP3    H137151   4.853   6.365   8.232 -1.0193  0.1071  0.9847
 5172TIP3    H237152   4.807   6.273   8.121  0.7370 -1.0809  1.2058
 5173TIP3   OH237153   6.722   4.907   6.532  0.1236 -0.0908  0.3861
 5173TIP3    H137154   6.698   4.824   6.492 -0.1392 -0.2220  0.8094
 5173TIP3    H237155   6.664   4.971   6.493  0.1665 -0.1443  0.2342
 5174TIP3   OH237156   0.530   1.400   0.371 -0.0961  0.2319 -0.2299
 5174TIP3    H137157   0.468   1.340   0.330  1.4417 -0.3285 -1.9014
 5174TIP3    H237158   0.512   1.394   0.465 -2.8792  0.5311 -0.6527
 5175TIP3   OH237159   2.495   3.481   8.222 -0.5291  0.2003  0.0401
 5175TIP3    H137160   2.487   3.396   8.178 -2.5909  1.2710 -1.8687
 5175TIP3    H237161   2.419   3.530   8.193  0.3019  2.5514  1.5305
 5176TIP3   OH237162   2.851   2.519   6.982  0.3239  0.1873 -0.2216
 5176TIP3    H137163   2.923   2.493   6.925  0.8164  2.8766 -0.9929
 5176TIP3    H237164   2.772   2.506   6.929  0.6545  1.2243 -1.0078
 5177TIP3   OH237165   6.749   4.498   2.207 -0.2303 -0.2338 -0.1126
 5177TIP3    H137166   6.688   4.572   2.202  0.3849  0.2385 -0.7554
 5177TIP3    H237167   6.831   4.531   2.170  1.0715 -0.2264  2.5060
 5178TIP3   OH237168   0.025   4.787   0.351  0.5633 -0.3342  0.4042
 5178TIP3    H137169  -0.019   4.702   0.346  1.0868 -0.5292 -2.0297
 5178TIP3    H237170   0.104   4.777   0.299  1.5751  1.1471  1.5595
 5179TIP3   OH237171   3.694   2.020   6.867 -0.0690 -0.4625 -0.1287
 5179TIP3    H137172   3.766   2.001   6.808  1.1628  0.3673  1.0242
 5179TIP3    H237173   3.644   1.938   6.874  1.1704 -1.2558 -0.4164
 5180TIP3   OH237174   4.658   1.623   1.591  0.1453 -0.0617  0.0769
 5180TIP3    H137175   4.716   1.580   1.654 -0.1021 -1.4189 -0.5840
 5180TIP3    H237176   4.696   1.710   1.579  1.9918 -0.8520 -0.2288
 5181TIP3   OH237177   5.087   3.897   0.858  0.0027 -0.4863 -0.1498
 5181TIP3    H137178   5.148   3.970   0.866  0.5584 -0.8468 -0.9281
 5181TIP3    H237179   5.038   3.897   0.940  0.6094  0.2071  0.2237
 5182TIP3   OH237180   1.156   5.563   7.779  0.0966  0.2900 -0.2476
 5182TIP3    H137181   1.170   5.488   7.721  1.2973  0.3864 -0.1129
 5182TIP3    H237182   1.238   5.570   7.828  0.8643  2.9929 -1.7474
 5183TIP3   OH237183   0.985   1.076   1.602 -0.2466  0.3522  0.1472
 5183TIP3    H137184   1.001   1.057   1.695 -0.7677 -1.1947 -0.0606
 5183TIP3    H237185   0.919   1.146   1.603 -1.4675 -0.7727  0.9485
 5184TIP3   OH237186   5.890   2.493   1.828  0.5424  0.1972 -0.1482
 5184TIP3    H137187   5.883   2.554   1.901 -2.3475  0.0980 -0.2128
 5184TIP3    H237188   5.842   2.415   1.856  0.2293 -0.2310 -1.7289
 5185TIP3   OH237189   6.753   1.856   7.550 -0.2959  0.2856  0.0127
 5185TIP3    H137190   6.687   1.821   7.491 -1.0419 -0.1234  1.0522
 5185TIP3    H237191   6.737   1.951   7.551 -1.1276  0.1514  0.5391
 5186TIP3   OH237192   4.942   1.853   8.311  0.7758  0.1486 -0.0744
 5186TIP3    H137193   4.998   1.892   8.378  0.2354  0.1464  0.3806
 5186TIP3    H237194   4.966   1.899   8.230  2.1659 -0.5674 -0.0947
 5187TIP3   OH237195   1.041   3.816   8.227 -0.0803 -0.3333 -0.3269
 5187TIP3    H137196   1.118   3.778   8.270  0.7602 -1.0050 -2.3365
 5187TIP3    H237197   1.057   3.806   8.134 -2.2748  0.2126 -0.8336
 5188TIP3   OH237198   2.292   3.981   0.445 -0.3440  0.0081 -0.2315
 5188TIP3    H137199   2.332   4.031   0.516  2.7309 -1.7004 -0.5794
 5188TIP3    H237200   2.333   4.016   0.365  1.2534 -2.3126 -0.5392
 5189TIP3   OH237201   1.451   0.296   6.712  0.2531  0.3810  0.0911
 5189TIP3    H137202   1.438   0.202   6.697  0.3438  0.1139  1.5384
 5189TIP3    H237203   1.370   0.336   6.678  0.7662 -0.0471 -1.7542
 5190TIP3   OH237204   2.316   6.430   0.774  0.5359  0.3139  0.1415
 5190TIP3    H137205   2.336   6.355   0.718 -0.0744  0.1473  0.1323
 5190TIP3    H237206   2.245   6.399   0.831 -0.3774  1.1541 -0.4846
 5191TIP3   OH237207   4.430   5.261   0.426  0.1494  0.3056  0.4890
 5191TIP3    H137208   4.522   5.283   0.435  0.2260  0.4094 -0.4958
 5191TIP3    H237209   4.385   5.345   0.417 -0.0702  0.2667  1.1575
 5192TIP3   OH237210   0.944   1.086   7.336  0.1181 -0.1292 -0.3374
 5192TIP3    H137211   1.016   1.148   7.348  1.2983 -1.4540 -0.2068
 5192TIP3    H237212   0.984   1.000   7.352 -1.0113 -1.0780 -2.2432
 5193TIP3   OH237213   1.502   5.527   7.216 -0.1733  0.0898 -1.0346
 5193TIP3    H137214   1.574   5.529   7.153 -0.2535 -1.0172 -1.1744
 5193TIP3    H237215   1.540   5.489   7.295 -0.0842  1.4334 -0.4005
 5194TIP3   OH237216   4.138   6.531   7.373  0.2149  0.5459  0.3934
 5194TIP3    H137217   4.112   6.535   7.465  0.5018  0.2970  0.4875
 5194TIP3    H237218   4.113   6.443   7.345 -0.6320  0.9060 -0.0011
 5195TIP3   OH237219   6.862   3.469   7.228 -0.0215 -0.3923 -0.0969
 5195TIP3    H137220   6.823   3.497   7.145  0.0075 -0.3235 -0.0882
 5195TIP3    H237221   6.887   3.551   7.271 -0.2296 -0.4177  0.0762
 5196TIP3   OH237222   4.584   4.370   8.239  0.5016 -0.0852  0.0529
 5196TIP3    H137223   4.547   4.457   8.253  0.7525  0.0196  0.0775
 5196TIP3    H237224   4.518   4.323   8.189 -1.4191 -1.1690  3.2813
 5197TIP3   OH237225   0.515   6.108   1.333  0.2464  0.3525 -0.3408
 5197TIP3    H137226   0.478   6.039   1.387  1.5982 -0.1356  0.0061
 5197TIP3    H237227   0.563   6.062   1.264 -0.0334  0.9594 -0.9511
 5198TIP3   OH237228   0.989   5.814   1.339 -0.3336  0.3886  0.2966
 5198TIP3    H137229   0.902   5.775   1.345 -0.7002  1.0645 -0.4269
 5198TIP3    H237230   1.046   5.741   1.316 -0.6022 -0.1754  1.3840
 5199TIP3   OH237231   0.509   1.558   1.495  0.2944 -0.5753  0.3425
 5199TIP3    H137232   0.443   1.628   1.499 -0.0979 -0.9152 -0.0708
 5199TIP3    H237233   0.461   1.479   1.518  0.7196 -0.7270  0.7160
 5200TIP3   OH237234   1.948   3.444   8.460 -0.2432  0.3363 -0.6187
 5200TIP3    H137235   2.005   3.383   8.413 -0.0017  0.1490 -0.0951
 5200TIP3    H237236   1.994   3.528   8.454  0.0758  0.1968 -0.2440
 5201TIP3   OH237237   3.804   6.222   2.238  0.2036 -0.3702 -0.4970
 5201TIP3    H137238   3.802   6.199   2.145 -0.4436  0.0672 -0.5987
 5201TIP3    H237239   3.810   6.318   2.239 -1.9478 -0.2022 -0.1065
 5202TIP3   OH237240   3.922   1.039   1.719  0.6740  0.1830  0.2361
 5202TIP3    H137241   3.924   1.135   1.720  0.7839  0.1755  0.8000
 5202TIP3    H237242   3.956   1.013   1.804 -0.7677 -0.3477  0.6768
 5203TIP3   OH237243   6.576   3.275   1.593  0.1024  0.2313 -0.1175
 5203TIP3    H137244   6.640   3.248   1.659 -0.9314  1.5122  1.5020
 5203TIP3    H237245   6.509   3.206   1.596  0.6749 -0.3531 -0.7399
 5204TIP3   OH237246   0.328   0.556   8.038 -0.2279  0.2628  0.3932
 5204TIP3    H137247   0.270   0.510   7.977  2.2348 -0.1295 -1.8429
 5204TIP3    H237248   0.360   0.489   8.097  0.8223 -0.3272 -0.7946
 5205TIP3   OH237249   4.859   3.975   8.141  0.1254 -0.0632 -0.2066
 5205TIP3    H137250   4.861   4.063   8.105  0.5521  0.3817  0.8584
 5205TIP3    H237251   4.780   3.936   8.105  0.4737  0.3870 -1.5090
 5206TIP3   OH237252   1.145   6.883   1.798  0.1235 -0.1280  0.3630
 5206TIP3    H137253   1.122   6.907   1.708 -0.8162 -1.6781  0.1552
 5206TIP3    H237254   1.138   6.788   1.800 -1.9784 -0.0123  2.6431
 5207TIP3   OH237255   4.305   5.030   0.730 -0.4118  0.3042  0.0217
 5207TIP3    H137256   4.389   5.059   0.695 -1.0453  2.3276  0.0384
 5207TIP3    H237257   4.328   4.966   0.797  0.9513 -1.2250 -1.7974
 5208TIP3   OH237258   5.805   6.779   1.462 -0.4353  1.1255  0.2691
 5208TIP3    H137259   5.737   6.715   1.483 -0.1582  1.1761  1.3871
 5208TIP3    H237260   5.887   6.734   1.482 -0.1626  1.2755 -0.4878
 5209TIP3   OH237261   4.650   0.395   1.580  0.1054  0.5504  0.2724
 5209TIP3    H137262   4.665   0.342   1.502  0.0687 -0.8235  1.1538
 5209TIP3    H237263   4.567   0.439   1.564  1.1506  2.0205 -1.3599
 5210TIP3   OH237264   5.686   0.621   7.292  0.2531 -0.5799 -0.3040
 5210TIP3    H137265   5.647   0.692   7.343  0.6183 -0.0970 -0.6924
 5210TIP3    H237266   5.611   0.568   7.264 -0.1360  0.3261 -1.0242
 5211TIP3   OH237267   2.498   1.529   8.543 -0.1587  0.5156 -0.4860
 5211TIP3    H137268   2.473   1.574   8.461  1.5010  2.0754 -0.1962
 5211TIP3    H237269   2.592   1.545   8.551 -0.2155  0.0094  1.5180
 5212TIP3   OH237270   4.581   3.575   7.541  0.0038 -0.2231 -0.0401
 5212TIP3    H137271   4.578   3.567   7.446  0.1486 -1.4609  0.0444
 5212TIP3    H237272   4.670   3.604   7.560 -0.5085  1.7081 -0.3624
 5213TIP3   OH237273   1.008   0.124   8.306 -0.7710  0.3345 -0.5692
 5213TIP3    H137274   0.955   0.146   8.383 -1.3835 -0.7654 -0.6517
 5213TIP3    H237275   1.049   0.040   8.328  1.2949  1.3511 -0.3562
 5214TIP3   OH237276   1.545   5.329   7.743  0.8894  0.5810  0.1018
 5214TIP3    H137277   1.604   5.285   7.804  1.3680  0.9907 -0.0602
 5214TIP3    H237278   1.525   5.413   7.784  1.6014  1.0658 -0.5127
 5215TIP3   OH237279   2.247   1.880   0.153  0.2951 -0.3556  0.0977
 5215TIP3    H137280   2.166   1.887   0.203  1.0366  0.5495  1.2142
 5215TIP3    H237281   2.245   1.791   0.116 -1.6459 -0.0305 -0.7191
 5216TIP3   OH237282   6.662   0.442   1.093  0.0029  0.3761 -0.7402
 5216TIP3    H137283   6.619   0.487   1.020  0.8849  1.3257 -0.7088
 5216TIP3    H237284   6.637   0.493   1.170 -0.3244 -0.1811 -0.4786
 5217TIP3   OH237285   3.839   0.268   2.133 -0.0942  0.0974  0.0446
 5217TIP3    H137286   3.897   0.266   2.057 -0.5427 -0.6423 -0.2866
 5217TIP3    H237287   3.751   0.276   2.096 -0.4273 -1.5486  0.4041
 5218TIP3   OH237288   4.777   1.866   8.627  0.3119  0.0588 -0.1223
 5218TIP3    H137289   4.772   1.862   8.531 -1.2499 -0.0308 -0.0676
 5218TIP3    H237290   4.704   1.812   8.657  2.2254 -1.9641  1.1812
 5219TIP3   OH237291   5.766   4.372   0.823  0.2177  0.5740  0.4784
 5219TIP3    H137292   5.798   4.292   0.865 -0.1058  0.1145 -0.1214
 5219TIP3    H237293   5.844   4.414   0.787  0.1842 -0.5675 -1.0301
 5220TIP3   OH237294   3.737   6.273   1.728 -0.4212  0.4857 -0.0441
 5220TIP3    H137295   3.782   6.311   1.653 -1.8402  0.3616 -0.9789
 5220TIP3    H237296   3.676   6.210   1.691  1.4152 -2.3825  1.4280
 5221TIP3   OH237297   6.015   1.800   7.107  0.4484  0.0403  0.3673
 5221TIP3    H137298   5.975   1.821   7.022  1.9158  2.7549  0.2377
 5221TIP3    H237299   5.976   1.715   7.131 -0.8233 -0.3171 -2.4731
 5222TIP3   OH237300   5.737   4.185   7.472 -0.2332 -0.7224 -0.2539
 5222TIP3    H137301   5.649   4.160   7.498 -0.5538  0.7796  0.1535
 5222TIP3    H237302   5.774   4.104   7.435 -1.9600 -1.2276 -0.9868
 5223TIP3   OH237303   5.451   5.605   0.588 -0.7453  0.2391  0.1884
 5223TIP3    H137304   5.430   5.562   0.505 -5.0414  0.2851  1.0233
 5223TIP3    H237305   5.421   5.544   0.655 -0.5810  1.6246  1.5711
 5224TIP3   OH237306   6.930   3.777   7.040  0.4580 -0.6086  0.0170
 5224TIP3    H137307   7.021   3.768   7.069  0.0308  0.1031  1.7267
 5224TIP3    H237308   6.932   3.848   6.976  0.9670  0.2907  0.9885
 5225TIP3   OH237309   6.808   0.738   0.728 -0.2819 -0.1754 -0.3244
 5225TIP3    H137310   6.852   0.751   0.644 -2.6586 -1.4136 -1.8637
 5225TIP3    H237311   6.748   0.811   0.735 -0.3010 -0.2358  0.1805
 5226TIP3   OH237312   1.513   0.264   7.939  0.0155  0.0915  0.1862
 5226TIP3    H137313   1.505   0.348   7.894  2.7763 -0.2044 -1.0859
 5226TIP3    H237314   1.595   0.271   7.987  0.9579 -2.2663 -0.9419
 5227TIP3   OH237315   1.167   4.393   2.051 -0.0038 -0.0817 -0.0567
 5227TIP3    H137316   1.179   4.324   1.986 -1.5145 -0.6847  0.2685
 5227TIP3    H237317   1.226   4.370   2.122  0.5880 -0.2194 -0.5842
 5228TIP3   OH237318   1.582   2.311   7.102  0.2084  0.4834  0.0269
 5228TIP3    H137319   1.631   2.386   7.068  0.9605 -0.4108 -0.9397
 5228TIP3    H237320   1.596   2.314   7.197  3.0442 -0.2887 -0.2653
 5229TIP3   OH237321   3.503   5.453   0.222  0.4819  0.1666 -0.1405
 5229TIP3    H137322   3.541   5.488   0.141  3.4697  0.1751  1.1110
 5229TIP3    H237323   3.547   5.368   0.234  1.4106  0.9061  2.2416
 5230TIP3   OH237324   6.863   1.819   7.804  0.0159 -0.6436  0.1474
 5230TIP3    H137325   6.786   1.765   7.825  0.1290 -1.2652 -0.9616
 5230TIP3    H237326   6.852   1.841   7.711  1.1182 -0.6430  0.0064
 5231TIP3   OH237327   5.961   3.314   7.814 -0.5028 -0.4487 -0.3049
 5231TIP3    H137328   5.920   3.249   7.757 -0.3161 -1.8593  1.1137
 5231TIP3    H237329   5.887   3.361   7.853 -0.6847 -0.6446 -0.4113
 5232TIP3   OH237330   5.204   5.802   0.021  0.4033 -0.1881 -0.8385
 5232TIP3    H137331   5.211   5.707   0.014 -0.0167 -0.3703  0.7054
 5232TIP3    H237332   5.289   5.831   0.053 -0.1067 -0.3266  0.7475
 5233TIP3   OH237333   2.625   4.372   8.008 -0.7307  0.6542 -0.0038
 5233TIP3    H137334   2.692   4.379   7.940 -0.5625  0.4837  0.1425
 5233TIP3    H237335   2.547   4.410   7.969  0.1710  3.6107  0.8282
 5234TIP3   OH237336   0.015   6.287   7.790  0.2984  0.4889 -0.4743
 5234TIP3    H137337   0.060   6.301   7.873  1.8285 -0.2735 -1.1312
 5234TIP3    H237338   0.083   6.257   7.730 -0.9541  0.0106 -1.7376
 5235TIP3   OH237339   4.078   0.935   7.224 -0.4226 -0.1950  0.2506
 5235TIP3    H137340   4.096   1.015   7.273 -0.8606  0.7849 -1.1418
 5235TIP3    H237341   4.122   0.947   7.140 -0.6050 -1.3617 -0.0365
 5236TIP3   OH237342   2.199   3.526   0.041  0.0637 -0.0795 -0.0845
 5236TIP3    H137343   2.111   3.549   0.071  0.4003  1.1854 -0.0187
 5236TIP3    H237344   2.202   3.552  -0.051  1.0593  1.9950  0.4871
 5237TIP3   OH237345   1.388   4.520   6.728 -0.2964  0.3897 -0.3206
 5237TIP3    H137346   1.397   4.425   6.721  1.4299  0.4754  0.2596
 5237TIP3    H237347   1.424   4.541   6.814  2.1436  1.8340 -1.5899
 5238TIP3   OH237348   1.094   6.424   7.385  0.3615  0.4960  0.3478
 5238TIP3    H137349   1.055   6.409   7.299  1.7327 -0.0209 -0.2280
 5238TIP3    H237350   1.189   6.415   7.369  0.5546 -2.1233  2.3706
 5239TIP3   OH237351   6.253   4.065   6.280 -0.1098  0.1374 -0.4133
 5239TIP3    H137352   6.166   4.029   6.259 -0.1065 -0.3892  0.4084
 5239TIP3    H237353   6.291   4.000   6.339  1.3105 -0.2075 -1.6557
 5240TIP3   OH237354   5.782   5.417   7.678  0.2786 -0.6135 -0.4448
 5240TIP3    H137355   5.833   5.497   7.692 -0.1301 -0.0634 -1.8937
 5240TIP3    H237356   5.693   5.447   7.664 -0.1990 -1.4644  0.6169
 5241TIP3   OH237357   0.264   3.962   7.467 -0.2188 -0.7622 -0.4091
 5241TIP3    H137358   0.216   3.925   7.541 -0.6509 -0.8716 -0.7394
 5241TIP3    H237359   0.204   3.954   7.393 -0.0555 -0.0283 -0.6279
 5242TIP3   OH237360   2.200   4.386   8.479 -0.4205  0.4965  0.6665
 5242TIP3    H137361   2.231   4.417   8.394  0.4175  0.4136  0.9360
 5242TIP3    H237362   2.253   4.433   8.543 -0.4909 -0.0289  1.1241
 5243TIP3   OH237363   1.193   4.203   6.980 -0.4476  0.2640 -0.0228
 5243TIP3    H137364   1.214   4.211   7.073 -2.2752  1.3274  0.3401
 5243TIP3    H237365   1.129   4.131   6.976 -1.6249  1.2799 -0.1915
 5244TIP3   OH237366   0.139   0.202   2.052 -0.0066  0.4039  0.1716
 5244TIP3    H137367   0.207   0.269   2.046  1.3496 -0.9457 -0.1887
 5244TIP3    H237368   0.162   0.150   2.129  0.6328 -1.3259 -1.1088
 5245TIP3   OH237369   2.390   4.971   7.580 -0.5590 -0.0024  0.4523
 5245TIP3    H137370   2.407   4.887   7.537 -0.4736  1.2780 -2.2027
 5245TIP3    H237371   2.295   4.982   7.574 -0.7588 -0.5369  2.1486
 5246TIP3   OH237372   1.045   4.519   0.433 -0.2849 -0.2863 -0.4261
 5246TIP3    H137373   0.978   4.555   0.491 -0.9887 -2.0291 -0.1229
 5246TIP3    H237374   1.071   4.593   0.379 -1.0606  0.8932  0.7481
 5247TIP3   OH237375   4.648   4.645   0.639  0.3793  0.1656  0.6798
 5247TIP3    H137376   4.649   4.708   0.712 -0.6185 -2.9502  3.6784
 5247TIP3    H237377   4.558   4.647   0.608  0.5062  0.6373  0.3297
 5248TIP3   OH237378   4.777   3.733   0.188 -0.1508 -0.4229 -0.4616
 5248TIP3    H137379   4.799   3.695   0.103  0.3049 -1.9491  0.3083
 5248TIP3    H237380   4.689   3.700   0.207  1.1285 -3.1100  1.2540
 5249TIP3   OH237381   5.545   3.000   2.003  0.1108 -1.1513 -0.0616
 5249TIP3    H137382   5.586   3.077   1.964 -1.2386  0.2593  1.1315
 5249TIP3    H237383   5.612   2.932   2.000  1.3711  0.0913 -1.0933
 5250TIP3   OH237384   3.234   2.146   0.325 -0.4226  0.3212 -0.4129
 5250TIP3    H137385   3.172   2.107   0.263 -0.1988  0.9836 -1.0594
 5250TIP3    H237386   3.280   2.071   0.362  0.1843 -0.0469 -1.8322
 5251TIP3   OH237387   4.619   3.817   2.246 -0.1144 -0.4482 -0.3108
 5251TIP3    H137388   4.618   3.744   2.185  2.4030 -0.4325 -0.4675
 5251TIP3    H237389   4.602   3.778   2.331  1.6374 -1.3645 -0.3254
 5252TIP3   OH237390   5.328   4.913   7.661 -0.3348 -1.0178 -0.7867
 5252TIP3    H137391   5.360   4.833   7.619  0.5349 -0.9284 -0.3200
 5252TIP3    H237392   5.348   4.983   7.599  1.8917 -0.7442  0.1401
 5253TIP3   OH237393   4.059   1.664   6.395 -0.2509  0.0355  0.0740
 5253TIP3    H137394   4.041   1.724   6.467 -0.4617  0.1587 -0.0770
 5253TIP3    H237395   4.014   1.583   6.419 -0.6072  0.1846 -0.0718
 5254TIP3   OH237396   1.050   6.149   0.130  0.6401 -0.0508  0.2685
 5254TIP3    H137397   1.071   6.072   0.184  0.9915  0.3228  0.6716
 5254TIP3    H237398   0.967   6.180   0.164 -0.0744 -0.9083 -0.6358
 5255TIP3   OH237399   2.740   2.697   7.324  0.6599  0.1367  0.3234
 5255TIP3    H137400   2.816   2.742   7.361  2.0114 -3.1062  1.9257
 5255TIP3    H237401   2.754   2.699   7.229  0.2792  3.4394  0.2295
 5256TIP3   OH237402   0.955   5.629   0.557  0.7540  0.2938  0.2776
 5256TIP3    H137403   0.878   5.597   0.604  1.9009  0.1743  2.1861
 5256TIP3    H237404   0.929   5.627   0.464 -1.2699 -0.4058  0.8004
 5257TIP3   OH237405   5.195   2.528   8.359 -0.2635 -0.1120 -0.1337
 5257TIP3    H137406   5.184   2.611   8.404 -0.4499 -0.8036  1.1542
 5257TIP3    H237407   5.257   2.546   8.289 -0.4912  1.1534 -0.0319
 5258TIP3   OH237408   5.073   3.966   1.717 -0.0017 -0.0198 -0.0323
 5258TIP3    H137409   5.141   3.969   1.651  1.1722 -0.1385  1.1310
 5258TIP3    H237410   5.007   3.907   1.681  1.0283 -0.7928 -0.7151
 5259TIP3   OH237411   0.175   0.979   1.304  0.2288 -0.3916 -0.4097
 5259TIP3    H137412   0.089   1.018   1.319  0.3697 -0.5983  1.0843
 5259TIP3    H237413   0.157   0.885   1.295  0.3857 -0.5783  1.0187
 5260TIP3   OH237414   1.754   2.599   1.569  0.7051 -0.3978 -0.6595
 5260TIP3    H137415   1.711   2.514   1.563  0.7676 -0.4046 -1.0730
 5260TIP3    H237416   1.683   2.662   1.560  0.7007 -0.4089 -0.7068
 5261TIP3   OH237417   1.197   4.666   1.243  0.1759 -0.1828 -0.6980
 5261TIP3    H137418   1.182   4.718   1.322 -1.8906 -3.0971  1.0451
 5261TIP3    H237419   1.148   4.712   1.174  0.3195  1.3350  0.1615
 5262TIP3   OH237420   1.438   5.083   0.427  0.2671  0.0311 -0.4259
 5262TIP3    H137421   1.417   4.992   0.403 -0.4377  0.3723 -1.1501
 5262TIP3    H237422   1.371   5.135   0.383  1.6523  1.0567 -1.4007
 5263TIP3   OH237423   0.661   1.004   7.894  0.0329  0.3053  0.1249
 5263TIP3    H137424   0.666   0.937   7.961  0.9331  1.2603  1.0331
 5263TIP3    H237425   0.750   1.012   7.860 -0.0498  1.0926  0.0783
 5264TIP3   OH237426   1.664   3.442   8.401  0.1548 -0.4842 -0.1739
 5264TIP3    H137427   1.636   3.351   8.402  0.7062 -0.6732  1.8183
 5264TIP3    H237428   1.755   3.440   8.430  0.4491  0.6415 -0.9247
 5265TIP3   OH237429   5.817   6.004   7.500 -0.1737  0.6364  0.3574
 5265TIP3    H137430   5.825   6.031   7.408 -0.2575 -1.4008 -0.2845
 5265TIP3    H237431   5.732   6.037   7.527  0.1597  1.8945 -0.0478
 5266TIP3   OH237432   0.885   6.500   0.374 -0.3770  0.1896 -0.2516
 5266TIP3    H137433   0.887   6.539   0.286  0.8940  2.3967  0.6922
 5266TIP3    H237434   0.966   6.449   0.379 -0.3197  0.2847 -0.2340
 5267TIP3   OH237435   2.720   5.886   2.524 -0.0258 -0.7750 -0.2857
 5267TIP3    H137436   2.786   5.875   2.593 -0.2247  2.4154  0.5904
 5267TIP3    H237437   2.765   5.862   2.443  1.3462 -1.2490  0.5778
 5268TIP3   OH237438   0.281   3.152   1.025  0.1585  0.3257  0.0889
 5268TIP3    H137439   0.253   3.067   1.059  3.1091 -1.0628 -0.6206
 5268TIP3    H237440   0.287   3.208   1.103 -0.0673 -0.6509  0.8301
 5269TIP3   OH237441   4.117   0.935   1.914 -0.0897 -0.4009 -0.7452
 5269TIP3    H137442   4.151   0.893   1.836  1.7229 -0.1638 -0.1364
 5269TIP3    H237443   4.108   0.864   1.978  0.6524 -0.2545 -0.4683
 5270TIP3   OH237444   6.082   4.971   1.629  0.0281  0.0768  0.3004
 5270TIP3    H137445   6.100   4.961   1.535 -1.6813  0.7479 -0.1421
 5270TIP3    H237446   5.995   4.932   1.641 -0.9364  2.3207  1.0598
 5271TIP3   OH237447   5.580   3.417   0.215 -0.1790  0.0575  0.3690
 5271TIP3    H137448   5.591   3.379   0.302 -1.2822 -1.8709 -0.2716
 5271TIP3    H237449   5.622   3.503   0.221 -0.4910  0.1207  2.8746
 5272TIP3   OH237450   6.162   2.984   0.173  0.2416 -0.1283 -0.3425
 5272TIP3    H137451   6.106   2.926   0.123 -0.9694  1.0565 -0.3994
 5272TIP3    H237452   6.211   2.925   0.232 -1.6246 -1.1393  0.2750
 5273TIP3   OH237453   2.121   6.186   1.007 -0.0421 -0.6616 -0.0676
 5273TIP3    H137454   2.040   6.165   1.055  0.1924  0.2366  0.7414
 5273TIP3    H237455   2.102   6.158   0.917 -0.7650 -1.6836  0.3720
 5274TIP3   OH237456   3.354   0.640   8.486  0.5066  0.0816 -0.2197
 5274TIP3    H137457   3.345   0.602   8.399 -0.5016  0.0779 -0.1278
 5274TIP3    H237458   3.425   0.590   8.527 -0.3786 -1.3192 -0.3158
 5275TIP3   OH237459   1.547   0.209   0.760  0.2375  0.3404 -0.4889
 5275TIP3    H137460   1.611   0.146   0.793  0.0808  0.2473 -0.3639
 5275TIP3    H237461   1.579   0.232   0.673 -0.7953 -1.4694 -1.4052
 5276TIP3   OH237462   1.448   2.695   7.496  0.0768 -0.7411  0.2869
 5276TIP3    H137463   1.521   2.662   7.444 -0.0029 -1.1295  0.4144
 5276TIP3    H237464   1.442   2.788   7.474  0.6999 -0.6764  0.3865
 5277TIP3   OH237465   2.502   3.085   6.520 -1.2307  0.3263  0.2422
 5277TIP3    H137466   2.546   3.117   6.599 -0.4943  0.5068 -0.2352
 5277TIP3    H237467   2.552   3.123   6.448 -1.5248 -0.3416 -0.3187
 5278TIP3   OH237468   2.313   3.442   2.168 -0.0690  0.2355 -0.6734
 5278TIP3    H137469   2.385   3.504   2.180 -1.0453  1.6798 -1.9152
 5278TIP3    H237470   2.273   3.435   2.255  0.2324  1.1329 -0.4534
 5279TIP3   OH237471   3.724   5.973   1.960 -0.2565  0.1945  0.6587
 5279TIP3    H137472   3.779   5.939   2.030  0.8493 -1.1079 -0.7844
 5279TIP3    H237473   3.763   6.057   1.937 -0.6583  0.6568  1.5961
 5280TIP3   OH237474   2.733   6.448   0.910 -0.3969 -0.1361 -0.4332
 5280TIP3    H137475   2.680   6.407   0.842  0.5895 -0.3287 -1.1108
 5280TIP3    H237476   2.698   6.414   0.992  0.8329 -2.9178 -0.9765
 5281TIP3   OH237477   3.020   5.083   1.963 -0.2185 -0.4579 -0.3368
 5281TIP3    H137478   2.945   5.136   1.992  0.0947 -0.3619  0.3197
 5281TIP3    H237479   2.982   5.020   1.902 -0.9025 -0.6174  0.2347
 5282TIP3   OH237480   6.891   6.339   1.340  0.2190 -0.0088 -0.0988
 5282TIP3    H137481   6.914   6.430   1.324 -0.3750 -0.0605 -1.3567
 5282TIP3    H237482   6.975   6.294   1.348  0.6315  0.0873 -2.8860
 5283TIP3   OH237483   4.702   4.653   8.496 -0.1111 -0.0008 -0.1209
 5283TIP3    H137484   4.765   4.717   8.530  0.1088 -0.3508  0.1315
 5283TIP3    H237485   4.702   4.669   8.401 -2.3552  2.4755  0.1805
 5284TIP3   OH237486   0.281   4.397   8.302 -0.1276  0.2268 -0.6771
 5284TIP3    H137487   0.271   4.404   8.207 -0.8916  0.5015 -0.5832
 5284TIP3    H237488   0.197   4.364   8.333  0.2505 -0.2506 -0.1326
 5285TIP3   OH237489   6.656   1.245   6.734  0.0308 -0.0767 -0.3800
 5285TIP3    H137490   6.611   1.238   6.650 -0.3155  1.2124 -0.3192
 5285TIP3    H237491   6.674   1.154   6.759  0.0359 -0.4877 -1.7793
 5286TIP3   OH237492   3.582   3.456   6.764 -0.1592 -0.0441 -0.2205
 5286TIP3    H137493   3.622   3.377   6.729 -0.6495  0.2552 -1.4968
 5286TIP3    H237494   3.499   3.427   6.802  0.0743 -0.2662  0.1304
 5287TIP3   OH237495   5.321   5.034   6.869 -0.4832 -0.1659 -1.1086
 5287TIP3    H137496   5.351   4.978   6.798  0.7059 -0.2336 -0.5788
 5287TIP3    H237497   5.395   5.092   6.887 -0.9427  0.1756 -0.2575
 5288TIP3   OH237498   0.966   3.116   0.286  0.0159  0.1897 -0.2536
 5288TIP3    H137499   0.990   3.206   0.311 -3.1324  1.3162 -0.7596
 5288TIP3    H237500   1.030   3.092   0.219  1.7579  1.4865  0.8337
 5289TIP3   OH237501   6.574   5.374   0.749 -0.7512 -0.1400 -0.4885
 5289TIP3    H137502   6.541   5.404   0.833 -2.4029 -0.5652 -0.9588
 5289TIP3    H237503   6.573   5.451   0.693 -1.3162 -0.2294 -0.6051
 5290TIP3   OH237504   0.019   4.887   0.926  0.1038  0.1713 -0.3415
 5290TIP3    H137505   0.047   4.972   0.892  0.3538  0.2532  0.0594
 5290TIP3    H237506  -0.005   4.904   1.018  2.0154 -0.5340  0.3398
 5291TIP3   OH237507   4.567   5.937   1.267 -0.2151 -0.6382 -0.1425
 5291TIP3    H137508   4.543   5.919   1.358  0.7722  1.7380  0.6609
 5291TIP3    H237509   4.653   5.895   1.256 -0.3466 -0.9504 -0.0016
 5292TIP3   OH237510   2.904   3.035   1.010 -0.3839  0.5235  0.2773
 5292TIP3    H137511   2.868   3.123   1.025  0.0951  1.9310 -4.9306
 5292TIP3    H237512   2.827   2.979   1.001 -0.7702  0.9034  1.0598
 5293TIP3   OH237513   2.427   2.859   8.368  0.0350  0.4259 -0.0463
 5293TIP3    H137514   2.460   2.775   8.400 -0.6553  0.1500 -0.0434
 5293TIP3    H237515   2.472   2.925   8.421  1.2282  0.1076 -0.6181
 5294TIP3   OH237516   2.191   2.471   6.617 -0.0132  0.0620 -0.6082
 5294TIP3    H137517   2.249   2.399   6.644  0.3707 -0.3147 -2.3192
 5294TIP3    H237518   2.162   2.447   6.529 -2.4013  0.4996 -0.0018
 5295TIP3   OH237519   5.563   1.782   7.862  0.1485  0.1210 -0.7204
 5295TIP3    H137520   5.553   1.866   7.906 -0.2627 -0.3944  0.1787
 5295TIP3    H237521   5.474   1.756   7.839  0.1989 -0.4484 -0.2789
 5296TIP3   OH237522   1.825   0.995   6.899 -0.2709  0.6368 -0.2664
 5296TIP3    H137523   1.802   1.035   6.816  0.8400  0.1895 -0.8075
 5296TIP3    H237524   1.769   1.038   6.963  0.6705  2.8729 -0.8558
 5297TIP3   OH237525   1.026   6.108   0.511  0.3108 -0.3519 -0.1701
 5297TIP3    H137526   0.969   6.149   0.575 -1.3733 -0.2649 -1.6501
 5297TIP3    H237527   0.984   6.025   0.490  2.4823 -1.8712  1.0742
 5298TIP3   OH237528   6.802   3.464   1.135 -0.5752  0.0912 -0.5660
 5298TIP3    H137529   6.812   3.512   1.217 -3.4495 -2.7631  1.6828
 5298TIP3    H237530   6.851   3.383   1.148 -1.0141 -0.3874 -1.7398
 5299TIP3   OH237531   3.035   4.668   8.460 -0.2696  0.4770  0.0018
 5299TIP3    H137532   2.978   4.741   8.482  0.6653  1.6580 -1.3076
 5299TIP3    H237533   2.976   4.601   8.426 -1.1040  0.7079  0.9331
 5300TIP3   OH237534   4.744   0.906   6.983 -0.0679 -0.1016  0.1239
 5300TIP3    H137535   4.781   0.874   6.901 -0.7699 -2.3423  0.6199
 5300TIP3    H237536   4.666   0.853   6.997 -1.0895  1.5975  1.2627
 5301TIP3   OH237537   4.105   6.311   2.181 -0.1405  0.3802  0.0931
 5301TIP3    H137538   4.071   6.262   2.256 -2.6083  2.3490  0.4097
 5301TIP3    H237539   4.165   6.375   2.220 -2.2076  2.0940  0.6430
 5302TIP3   OH237540   5.982   1.159   0.383  0.1513 -0.1928  0.4286
 5302TIP3    H137541   5.987   1.191   0.473  2.6314  0.6821  0.0574
 5302TIP3    H237542   5.981   1.063   0.392 -0.3782 -0.1054  1.3893
 5303TIP3   OH237543   5.135   2.203   1.616  0.1933 -0.8449  0.3457
 5303TIP3    H137544   5.056   2.168   1.658  0.1954 -2.1000 -0.6366
 5303TIP3    H237545   5.193   2.224   1.689 -1.7900  2.1167  1.2223
 5304TIP3   OH237546   1.877   5.540   0.146  0.3309  0.0091  0.1813
 5304TIP3    H137547   1.955   5.486   0.138  0.1369 -0.2809  0.2496
 5304TIP3    H237548   1.830   5.503   0.221 -1.4420 -1.7983 -1.7186
 5305TIP3   OH237549   3.097   0.195   7.167 -0.6196  0.2019 -0.3884
 5305TIP3    H137550   3.183   0.237   7.163 -2.0077  3.5970  1.0009
 5305TIP3    H237551   3.072   0.184   7.075  1.2284 -0.8305 -0.8162
 5306TIP3   OH237552   3.290   2.974   8.524  0.4790 -0.8836  0.1198
 5306TIP3    H137553   3.196   2.977   8.505  0.7883 -1.8717 -1.8035
 5306TIP3    H237554   3.331   3.013   8.447  1.6589  0.0468  1.1711
 5307TIP3   OH237555   3.021   5.454   0.704  0.1185  0.8938  0.1718
 5307TIP3    H137556   3.033   5.400   0.781  0.7293  2.0354  0.9135
 5307TIP3    H237557   3.094   5.430   0.646 -0.0314  0.4171  0.1817
 5308TIP3   OH237558   3.341   3.466   1.600  0.2108  0.1451 -0.1247
 5308TIP3    H137559   3.358   3.497   1.689  0.3473  1.1845 -0.5080
 5308TIP3    H237560   3.427   3.454   1.561  0.1986 -1.5354  0.2666
 5309TIP3   OH237561   3.626   6.141   0.295 -0.4747 -0.2054  0.2603
 5309TIP3    H137562   3.587   6.125   0.381  0.4355 -2.2758  0.3553
 5309TIP3    H237563   3.712   6.100   0.301  0.8284  2.1912 -0.7056
 5310TIP3   OH237564   6.439   1.293   1.488 -0.2670 -0.2148  0.1363
 5310TIP3    H137565   6.474   1.266   1.573  1.3533  1.8511  0.1965
 5310TIP3    H237566   6.429   1.388   1.495 -1.5767 -0.1840 -1.4792
 5311TIP3   OH237567   6.207   5.084   6.311 -0.0035  0.2630 -0.2246
 5311TIP3    H137568   6.125   5.062   6.355 -0.3951  0.9635 -0.5955
 5311TIP3    H237569   6.266   5.012   6.334  0.3821  1.4083  2.9237
 5312TIP3   OH237570   1.360   1.033   2.115  0.8936  0.5917  0.1413
 5312TIP3    H137571   1.421   1.043   2.042 -0.7543  1.9097 -1.1445
 5312TIP3    H237572   1.415   1.013   2.190  2.7076 -0.2832 -1.3475
 5313TIP3   OH237573   0.801   2.193   6.566  0.1622  0.3124  0.1534
 5313TIP3    H137574   0.856   2.114   6.567 -0.7689 -0.3486  0.5566
 5313TIP3    H237575   0.842   2.251   6.630  1.8284  0.8651 -1.3423
 5314TIP3   OH237576   6.628   0.485   8.215  0.4363  0.2901 -0.0594
 5314TIP3    H137577   6.616   0.580   8.208 -2.2057  0.0373  0.1120
 5314TIP3    H237578   6.613   0.466   8.308  0.4901 -0.3663 -0.1804
 5315TIP3   OH237579   3.424   3.941   7.788  0.1270 -0.3986 -0.3191
 5315TIP3    H137580   3.411   4.028   7.750 -0.4571  0.2105  1.2371
 5315TIP3    H237581   3.508   3.947   7.833  0.5301 -0.9413 -0.9795
 5316TIP3   OH237582   6.491   5.236   7.193  0.2290 -0.0165  0.3401
 5316TIP3    H137583   6.440   5.169   7.147 -0.1936  0.6615 -0.2077
 5316TIP3    H237584   6.550   5.271   7.126 -2.8609  3.5399 -0.8411
 5317TIP3   OH237585   2.253   1.640   1.012 -0.7043 -0.1402 -0.6950
 5317TIP3    H137586   2.343   1.641   1.044 -0.2686 -1.6092 -1.7442
 5317TIP3    H237587   2.215   1.722   1.043 -0.5559 -1.5336  4.1597
 5318TIP3   OH237588   0.490   4.469   0.590 -0.5219  0.0047 -0.4309
 5318TIP3    H137589   0.403   4.432   0.580 -0.7641  0.8041 -1.3935
 5318TIP3    H237590   0.481   4.561   0.566  0.2944  0.4549  0.8611
 5319TIP3   OH237591   5.772   1.403   7.991  0.1468 -0.2670 -0.3627
 5319TIP3    H137592   5.809   1.485   7.957  0.2327 -0.4856 -0.8085
 5319TIP3    H237593   5.677   1.417   7.988  0.1739  0.2508  0.6744
 5320TIP3   OH237594   5.366   5.502   0.817 -0.3039  0.0447  0.1009
 5320TIP3    H137595   5.300   5.438   0.846 -0.5527  0.2492 -0.0150
 5320TIP3    H237596   5.363   5.571   0.883  0.0192 -0.0992  0.2674
 5321TIP3   OH237597   6.922   3.465   8.484  0.1507  0.2347  0.1409
 5321TIP3    H137598   6.857   3.531   8.460 -0.1212  0.0680  0.4264
 5321TIP3    H237599   6.999   3.488   8.431 -0.4051 -0.0643 -0.8335
 5322TIP3   OH237600   3.320   0.392   1.471 -0.0664 -0.2099 -0.1039
 5322TIP3    H137601   3.255   0.395   1.401  0.5051 -0.1787 -0.6451
 5322TIP3    H237602   3.270   0.373   1.550 -0.6336 -0.9710 -0.6348
 5323TIP3   OH237603   4.762   4.832   1.350  0.6306 -0.9065 -0.3356
 5323TIP3    H137604   4.688   4.785   1.389  1.6826 -2.4156 -0.0920
 5323TIP3    H237605   4.732   4.853   1.261 -1.4359  1.7401  0.8565
 5324TIP3   OH237606   2.486   0.993   1.638  0.3299 -0.3627  0.1669
 5324TIP3    H137607   2.418   1.039   1.687 -0.7076  0.6125 -2.0550
 5324TIP3    H237608   2.564   1.048   1.647  0.4403 -0.6810  1.4204
 5325TIP3   OH237609   4.848   4.213   0.946 -0.6158 -1.5495  0.1717
 5325TIP3    H137610   4.766   4.203   0.996  0.2207  0.7713  2.1830
 5325TIP3    H237611   4.845   4.302   0.912  0.4131 -1.9546 -1.0424
 5326TIP3   OH237612   1.133   3.006   7.512  0.4585  0.2243 -0.1111
 5326TIP3    H137613   1.067   2.967   7.454  0.9938 -1.1772  0.1690
 5326TIP3    H237614   1.082   3.058   7.574 -0.2379  0.5609 -0.9346
 5327TIP3   OH237615   3.780   1.010   7.860 -0.6796 -0.2269  0.6840
 5327TIP3    H137616   3.759   0.924   7.896 -1.6694 -0.7674 -1.0580
 5327TIP3    H237617   3.850   0.994   7.798 -0.3110  0.3715  0.9353
 5328TIP3   OH237618   1.847   5.868   6.739  0.0319  0.0658 -0.1559
 5328TIP3    H137619   1.799   5.908   6.666 -1.0038  1.4531  1.2307
 5328TIP3    H237620   1.852   5.937   6.805  1.0854 -1.1085  1.0428
 5329TIP3   OH237621   6.914   2.618   1.297  0.3531 -0.3940 -0.1675
 5329TIP3    H137622   6.935   2.688   1.358  0.3285 -0.4668 -0.0753
 5329TIP3    H237623   6.888   2.544   1.353 -0.5553 -0.1719 -0.2851
 5330TIP3   OH237624   3.122   3.229   1.034  0.2004  0.1627  0.2203
 5330TIP3    H137625   3.212   3.196   1.028  0.5149  1.0702 -0.1709
 5330TIP3    H237626   3.068   3.150   1.033  1.0078 -0.4133  0.8868
 5331TIP3   OH237627   6.792   4.913   0.507 -0.2102  0.4798 -0.4436
 5331TIP3    H137628   6.850   4.865   0.447 -1.8126 -3.1415  0.5898
 5331TIP3    H237629   6.708   4.917   0.460 -1.8682 -3.5182  1.6163
 5332TIP3   OH237630   3.769   6.718   1.506  0.6464 -0.0971 -0.1308
 5332TIP3    H137631   3.771   6.700   1.412 -0.2325  2.5189 -0.7320
 5332TIP3    H237632   3.855   6.754   1.525  0.3617  0.6757 -0.2626
 5333TIP3   OH237633   4.152   1.395   1.598 -0.2328  0.0786  0.4138
 5333TIP3    H137634   4.228   1.450   1.577 -1.6409  1.6743 -0.7786
 5333TIP3    H237635   4.183   1.306   1.587  0.9849  0.7185 -1.9769
 5334TIP3   OH237636   2.279   2.421   7.264 -0.2626 -0.4936  0.3579
 5334TIP3    H137637   2.331   2.349   7.300 -0.0968 -0.7148 -0.2940
 5334TIP3    H237638   2.328   2.500   7.286 -1.2529 -0.4194  2.4757
 5335TIP3   OH237639   2.393   1.156   0.402  0.4720 -0.4680 -0.5849
 5335TIP3    H137640   2.312   1.202   0.423  0.2254 -1.4221  0.7047
 5335TIP3    H237641   2.459   1.195   0.459  0.7162 -0.3220 -0.9646
 5336TIP3   OH237642   5.904   4.903   0.157  0.2800 -0.0639 -0.2697
 5336TIP3    H137643   5.852   4.967   0.107  1.6410  1.4420  0.1592
 5336TIP3    H237644   5.992   4.940   0.158  0.6431 -0.8855  1.8490
 5337TIP3   OH237645   2.683   3.108   7.662 -0.1503  0.3133 -0.4975
 5337TIP3    H137646   2.643   3.048   7.599 -0.8737 -1.2079  1.2901
 5337TIP3    H237647   2.777   3.088   7.658 -0.1365  0.5518 -1.3996
 5338TIP3   OH237648   6.120   2.284   2.378  0.0373  0.4416  0.3716
 5338TIP3    H137649   6.110   2.338   2.455 -0.2754  0.7576  0.1149
 5338TIP3    H237650   6.130   2.346   2.306 -0.6792  0.1686  0.0300
 5339TIP3   OH237651   0.312   2.156   7.391  0.5557 -0.7397  0.2531
 5339TIP3    H137652   0.379   2.217   7.360 -0.0730  0.2140  0.7484
 5339TIP3    H237653   0.337   2.138   7.482  0.1529 -0.3938  0.4338
 5340TIP3   OH237654   2.207   0.296   7.148 -0.0358 -0.4810  0.1552
 5340TIP3    H137655   2.212   0.265   7.058 -0.3306 -0.7038  0.2146
 5340TIP3    H237656   2.285   0.261   7.190  1.2001  1.2922 -0.5136
 5341TIP3   OH237657   3.505   2.967   7.620 -0.0830  0.5826  1.0034
 5341TIP3    H137658   3.410   2.964   7.605 -0.0643  1.2224  0.6841
 5341TIP3    H237659   3.534   3.041   7.567  0.4635  0.9601  1.8186
 5342TIP3   OH237660   0.277   2.395   7.696 -0.2973  0.4132  0.1369
 5342TIP3    H137661   0.253   2.466   7.757  0.4138  1.0433 -0.2980
 5342TIP3    H237662   0.248   2.426   7.611  0.5011  0.4292 -0.1374
 5343TIP3   OH237663   1.930   1.751   8.303 -0.7556 -0.0918 -0.6973
 5343TIP3    H137664   1.967   1.828   8.259  1.2177 -0.5121  0.1434
 5343TIP3    H237665   1.986   1.678   8.276 -0.5250 -0.6403  1.1397
 5344TIP3   OH237666   0.600   1.287   7.966 -0.1318  0.9490 -0.2565
 5344TIP3    H137667   0.605   1.197   7.936 -0.4327  1.0497 -0.6237
 5344TIP3    H237668   0.637   1.338   7.894 -0.8217  1.1918 -0.4539
 5345TIP3   OH237669   0.127   5.466   0.017  0.2523 -0.2171  0.0981
 5345TIP3    H137670   0.185   5.503   0.084 -0.5355  1.2696 -0.0017
 5345TIP3    H237671   0.155   5.375   0.009  1.6342  0.0914  1.0549
 5346TIP3   OH237672   3.004   5.535   1.948 -0.4379  0.5308 -0.3696
 5346TIP3    H137673   2.933   5.493   1.898  0.3166  0.7304 -1.6474
 5346TIP3    H237674   2.960   5.603   1.999 -1.2786  0.1092 -0.5079
 5347TIP3   OH237675   3.453   2.219   7.894  0.2196 -0.1875  0.1086
 5347TIP3    H137676   3.548   2.226   7.890  0.1526  0.2500 -1.5040
 5347TIP3    H237677   3.422   2.308   7.877 -0.4821 -0.3741  0.3817
 5348TIP3   OH237678   4.134   3.183   7.777  0.1722  0.0460  0.2297
 5348TIP3    H137679   4.194   3.116   7.746 -1.0042 -1.7482  1.6378
 5348TIP3    H237680   4.074   3.197   7.704 -1.1366 -2.3931  0.7447
 5349TIP3   OH237681   1.894   6.846   0.131 -0.4684 -0.0641  0.0510
 5349TIP3    H137682   1.890   6.816   0.222 -1.9199 -1.7198 -0.5050
 5349TIP3    H237683   1.987   6.865   0.116 -0.2756  0.6935  1.9978
 5350TIP3   OH237684   1.730   6.709   7.122 -0.2071  0.1988 -0.2952
 5350TIP3    H137685   1.730   6.799   7.153 -2.1651  0.0583  0.2062
 5350TIP3    H237686   1.680   6.711   7.041 -2.5032 -0.8011  1.0213
 5351TIP3   OH237687   6.591   4.471   0.910 -0.0265  0.4764 -0.2464
 5351TIP3    H137688   6.596   4.375   0.911  1.2063  0.5226  1.1091
 5351TIP3    H237689   6.568   4.495   1.000  1.9941  1.5039  0.0520
 5352TIP3   OH237690   4.728   6.031   2.603  0.0961  0.0511  0.4702
 5352TIP3    H137691   4.656   5.970   2.589  1.9208 -1.8713 -1.1375
 5352TIP3    H237692   4.699   6.113   2.563 -0.3990 -1.3052 -2.1546
 5353TIP3   OH237693   5.462   1.086   0.022  0.6890  0.2034  0.4610
 5353TIP3    H137694   5.421   1.148  -0.039 -1.6334 -1.1760  0.4986
 5353TIP3    H237695   5.426   1.109   0.107  0.5212 -0.6387  0.6162
 5354TIP3   OH237696   0.425   0.081   8.235 -0.1654 -0.7020 -0.1352
 5354TIP3    H137697   0.439  -0.014   8.238 -0.2872 -0.7250 -0.2306
 5354TIP3    H237698   0.332   0.090   8.213 -0.1567 -0.5607 -0.1151
 5355TIP3   OH237699   4.674   4.871   0.845  0.6538  0.2375 -0.2462
 5355TIP3    H137700   4.766   4.893   0.860  0.5430  1.2915 -0.9629
 5355TIP3    H237701   4.640   4.945   0.794 -0.8913  0.4262  0.9926
 5356TIP3   OH237702   1.224   0.765   0.733 -0.0501 -0.8309  0.1156
 5356TIP3    H137703   1.255   0.675   0.721  1.3030 -0.1288 -2.2837
 5356TIP3    H237704   1.210   0.797   0.644 -3.4687  0.4210  0.9552
 5357TIP3   OH237705   6.417   6.587   7.407 -0.0861  0.4523  0.2132
 5357TIP3    H137706   6.475   6.572   7.331 -2.1827 -0.4723 -1.3131
 5357TIP3    H237707   6.355   6.653   7.377 -1.0274 -0.0135  1.0830
 5358TIP3   OH237708   6.343   1.171   1.230  0.0709  0.2765 -0.1328
 5358TIP3    H137709   6.335   1.141   1.320  0.1425 -1.4189 -0.6662
 5358TIP3    H237710   6.429   1.215   1.228 -0.0003  0.4738  0.6484
 5359TIP3   OH237711   0.690   5.318   6.759 -0.0304  0.6478  0.5388
 5359TIP3    H137712   0.732   5.287   6.839  2.3809 -1.1874 -1.2955
 5359TIP3    H237713   0.627   5.249   6.737  1.2125 -0.2191 -0.4723
 5360TIP3   OH237714   4.914   2.200   8.495  0.1717 -0.4211  0.0024
 5360TIP3    H137715   4.820   2.186   8.502 -0.1483  1.4055 -0.0734
 5360TIP3    H237716   4.930   2.213   8.402  0.2114  0.9185  0.1800
 5361TIP3   OH237717   6.046   3.955   1.750  0.6776 -0.2026 -0.0690
 5361TIP3    H137718   6.099   4.035   1.751 -0.1402  0.3719  1.9202
 5361TIP3    H237719   6.045   3.926   1.841 -0.0137 -1.8425 -0.5643
 5362TIP3   OH237720   5.457   6.321   6.902 -0.0654  0.6321  0.3787
 5362TIP3    H137721   5.538   6.268   6.904 -0.1841  0.4436  0.2388
 5362TIP3    H237722   5.400   6.275   6.840 -0.1689  0.9301  0.2515
 5363TIP3   OH237723   2.204   2.221   1.774  0.0414  0.3300 -0.7047
 5363TIP3    H137724   2.201   2.126   1.762  0.2151  0.5135 -2.5317
 5363TIP3    H237725   2.116   2.245   1.802 -0.0131 -0.3557 -0.2762
 5364TIP3   OH237726   1.795   1.756   8.568  0.2307 -0.3813  0.3622
 5364TIP3    H137727   1.823   1.667   8.587  0.2338 -0.9078 -1.8469
 5364TIP3    H237728   1.859   1.789   8.505 -0.0864  0.9983  0.7148
 5365TIP3   OH237729   0.320   3.056   2.329 -0.5127 -0.3937  0.4462
 5365TIP3    H137730   0.297   3.102   2.247  1.2814 -1.3133 -0.6211
 5365TIP3    H237731   0.250   3.082   2.390  0.5458  4.1206  0.1216
 5366TIP3   OH237732   3.386   3.281   0.063 -0.1869  0.1997 -0.1272
 5366TIP3    H137733   3.337   3.202   0.086  0.0379  0.2964  0.7136
 5366TIP3    H237734   3.470   3.249   0.029  0.9126  0.0617  2.4870
 5367TIP3   OH237735   1.338   1.125   7.144 -0.7569 -0.1773 -0.0073
 5367TIP3    H137736   1.340   1.103   7.051  0.4105 -0.2707  0.0206
 5367TIP3    H237737   1.356   1.219   7.146  0.2012 -0.3523  0.1555
 5368TIP3   OH237738   5.562   3.148   1.298 -0.2605  0.2893 -0.1150
 5368TIP3    H137739   5.491   3.204   1.269  1.0714  2.1309 -0.0187
 5368TIP3    H237740   5.582   3.178   1.386  1.1375  0.3851 -0.4336
 5369TIP3   OH237741   3.581   5.439   8.378  0.1142 -0.0337 -0.2888
 5369TIP3    H137742   3.564   5.432   8.472  2.1852  1.5921  0.2712
 5369TIP3    H237743   3.659   5.385   8.363  0.6541  0.8498 -0.7767
 5370TIP3   OH237744   0.652   3.790   1.913 -0.3609  0.0614 -0.4345
 5370TIP3    H137745   0.714   3.852   1.873  0.7042 -0.5670  0.1873
 5370TIP3    H237746   0.574   3.796   1.858  0.8761 -0.4357 -2.3578
 5371TIP3   OH237747   5.344   6.391   1.466  0.5413  0.1427 -0.0976
 5371TIP3    H137748   5.285   6.465   1.451 -1.2900 -0.6433  2.5231
 5371TIP3    H237749   5.422   6.430   1.505  0.0880  0.8143  0.1504
 5372TIP3   OH237750   1.705   1.402   8.332 -0.5505 -0.5727 -0.3912
 5372TIP3    H137751   1.773   1.378   8.395  0.2897  0.1626 -0.9863
 5372TIP3    H237752   1.747   1.392   8.246 -0.4599  1.8378 -0.7238
 5373TIP3   OH237753   6.299   2.252   8.446 -0.0556 -0.3329  0.0434
 5373TIP3    H137754   6.276   2.229   8.536 -1.7647  1.6345  0.1634
 5373TIP3    H237755   6.360   2.325   8.455  0.0774 -0.3865 -0.4043
 5374TIP3   OH237756   0.721   3.012   1.817 -0.2265 -0.3033  0.1554
 5374TIP3    H137757   0.804   2.966   1.824 -0.2001 -0.2550  0.1565
 5374TIP3    H237758   0.713   3.059   1.899  0.0102  0.1402 -0.0729
 5375TIP3   OH237759   6.485   0.893   7.939  0.2568 -0.1105 -0.1938
 5375TIP3    H137760   6.494   0.802   7.910 -0.0725 -0.3780  0.5179
 5375TIP3    H237761   6.440   0.937   7.867  0.3975 -0.5138 -0.5322
 5376TIP3   OH237762   5.519   0.831   1.903 -0.3135  0.5201  0.0306
 5376TIP3    H137763   5.493   0.921   1.887 -1.4610  0.1658 -0.1650
 5376TIP3    H237764   5.466   0.804   1.978  1.1533  0.4838  1.1035
 5377TIP3   OH237765   0.381   1.105   7.850  0.2049 -0.0594  0.0386
 5377TIP3    H137766   0.307   1.054   7.815 -0.5666  1.4507 -0.6410
 5377TIP3    H237767   0.450   1.041   7.864 -0.8045 -1.3207 -0.5468
 5378TIP3   OH237768   1.811   6.854   7.520 -0.2323  0.4718 -0.2085
 5378TIP3    H137769   1.852   6.774   7.489  0.8767  0.5824  0.9205
 5378TIP3    H237770   1.861   6.924   7.478  0.2324  0.5934  0.5315
 5379TIP3   OH237771   4.459   6.471   6.504 -0.3171  0.8947 -0.1400
 5379TIP3    H137772   4.524   6.529   6.465 -1.0784  0.4133 -2.2340
 5379TIP3    H237773   4.509   6.395   6.532  0.2848  1.3463  0.0356
 5380TIP3   OH237774   3.884   3.541   2.313  0.0437 -0.6642  0.1465
 5380TIP3    H137775   3.894   3.574   2.402 -2.5851  1.9020 -0.3462
 5380TIP3    H237776   3.875   3.620   2.260  1.5209 -2.1136 -2.4737
 5381TIP3   OH237777   5.896   3.698   7.344 -0.0067 -0.5324 -0.3096
 5381TIP3    H137778   5.864   3.609   7.360  1.5991 -1.1933 -0.5226
 5381TIP3    H237779   5.818   3.753   7.347 -0.9906 -1.9023  0.1780
 5382TIP3   OH237780   2.496   5.414   8.201  0.1587 -0.0374 -0.1635
 5382TIP3    H137781   2.560   5.429   8.270 -0.3443  0.4886  0.2000
 5382TIP3    H237782   2.507   5.489   8.141 -0.6621  0.4964  0.3348
 5383TIP3   OH237783   5.898   6.473   0.646 -0.5740 -0.3508  0.3131
 5383TIP3    H137784   5.961   6.493   0.715  1.9106 -0.5011 -1.7554
 5383TIP3    H237785   5.921   6.385   0.617 -2.1781 -0.6635 -0.0737
 5384TIP3   OH237786   3.794   0.698   6.723 -0.5999  0.4861  0.0453
 5384TIP3    H137787   3.762   0.651   6.646  0.6624  1.6396 -1.2468
 5384TIP3    H237788   3.733   0.771   6.733  0.3065  1.4335 -1.0781
 5385TIP3   OH237789   3.223   2.755   7.356  0.0723  0.3893 -0.1089
 5385TIP3    H137790   3.177   2.671   7.357 -0.2427  0.5579 -0.2189
 5385TIP3    H237791   3.299   2.740   7.300 -0.7005  0.5509 -1.2272
 5386TIP3   OH237792   3.980   1.628   7.046 -0.1492 -0.1364  0.3723
 5386TIP3    H137793   4.010   1.688   7.115  0.6822 -0.1653  0.0576
 5386TIP3    H237794   4.035   1.550   7.058  0.0246 -0.1240 -0.3408
 5387TIP3   OH237795   6.857   2.784   1.885  0.0848 -0.4771 -0.3769
 5387TIP3    H137796   6.923   2.810   1.949 -0.1455 -1.8626  0.4562
 5387TIP3    H237797   6.870   2.844   1.812  1.5094  0.0124  0.2444
 5388TIP3   OH237798   2.421   5.292   0.583  0.3699 -0.2789  0.2318
 5388TIP3    H137799   2.392   5.222   0.524 -0.1866 -1.6557  2.0546
 5388TIP3    H237800   2.357   5.362   0.570 -1.2160 -1.5307  0.9330
 5389TIP3   OH237801   5.533   4.451   0.704 -0.1843  0.2494 -0.3408
 5389TIP3    H137802   5.614   4.423   0.747 -0.0767 -0.6092 -1.0908
 5389TIP3    H237803   5.469   4.457   0.776 -0.1117 -1.5508 -0.0799
 5390TIP3   OH237804   0.238   4.771   0.520 -0.4938 -0.6721 -0.1592
 5390TIP3    H137805   0.312   4.781   0.460 -0.0552  0.6231  0.5637
 5390TIP3    H237806   0.164   4.750   0.464 -0.4111  1.8897 -1.3446
 5391TIP3   OH237807   2.404   3.177   2.229  0.0389  0.0886  0.5027
 5391TIP3    H137808   2.420   3.236   2.303  1.0459 -1.1202  1.2864
 5391TIP3    H237809   2.373   3.234   2.159  0.4437  1.4656  1.4079
 5392TIP3   OH237810   6.537   5.542   1.358  0.2426 -0.3533 -0.4526
 5392TIP3    H137811   6.486   5.622   1.367 -0.6817 -1.0316  0.5313
 5392TIP3    H237812   6.558   5.517   1.448 -0.3490 -1.7519 -0.6821
 5393TIP3   OH237813   1.636   3.261   0.670 -0.6013 -0.2140  0.1880
 5393TIP3    H137814   1.545   3.258   0.700 -1.5127 -0.7561 -2.3780
 5393TIP3    H237815   1.668   3.347   0.697 -1.0374 -0.8870  3.1880
 5394TIP3   OH237816   3.221   3.691   0.883  0.0767 -0.7783  0.2904
 5394TIP3    H137817   3.242   3.607   0.923  1.7074 -0.5708 -0.0868
 5394TIP3    H237818   3.262   3.756   0.941 -0.3132 -0.2949  0.0330
 5395TIP3   OH237819   3.813   2.693   0.100 -0.5586  0.5385 -0.0758
 5395TIP3    H137820   3.785   2.777   0.135 -1.5551  0.9460 -1.7407
 5395TIP3    H237821   3.770   2.687   0.015  1.4684 -0.5368 -1.1064
 5396TIP3   OH237822   3.810   5.202   0.727 -0.4948 -0.6693  0.0062
 5396TIP3    H137823   3.753   5.185   0.802  0.0097  0.8360  0.7710
 5396TIP3    H237824   3.893   5.232   0.766 -0.5576  1.1767 -1.1329
 5397TIP3   OH237825   1.840   0.682   8.158 -0.2703 -0.3646  0.9130
 5397TIP3    H137826   1.897   0.700   8.083 -0.1343  0.1618  1.1348
 5397TIP3    H237827   1.838   0.587   8.165 -0.5403 -0.4344  0.0443
 5398TIP3   OH237828   0.849   3.682   2.071  0.1096 -0.3574  0.3757
 5398TIP3    H137829   0.811   3.711   1.988  1.3855 -1.2333 -0.5561
 5398TIP3    H237830   0.799   3.603   2.094  0.2807 -0.5734  0.0101
 5399TIP3   OH237831   5.877   4.733   1.258 -0.4334  0.8837  0.8215
 5399TIP3    H137832   5.963   4.772   1.272 -0.3231  0.9798 -0.0507
 5399TIP3    H237833   5.854   4.758   1.169 -0.5157 -0.7388  0.3523
 5400TIP3   OH237834   3.233   6.502   7.946  0.1665  0.3032 -0.5161
 5400TIP3    H137835   3.217   6.412   7.917  0.3970  0.1563 -0.1887
 5400TIP3    H237836   3.166   6.554   7.901 -0.6310 -0.1789  0.1079
 5401TIP3   OH237837   0.695   5.175   7.362 -0.5406  0.1168 -0.3287
 5401TIP3    H137838   0.637   5.248   7.384 -0.1622  0.6128 -0.9409
 5401TIP3    H237839   0.752   5.210   7.293 -1.0786 -1.0908 -1.4305
 5402TIP3   OH237840   0.372   4.822   8.270  0.3289 -1.1114 -0.2803
 5402TIP3    H137841   0.410   4.742   8.307  0.7658 -0.4786  0.6581
 5402TIP3    H237842   0.288   4.833   8.315  0.6248 -0.6199  0.1563
 5403TIP3   OH237843   5.119   4.656   7.656 -0.2111  0.1513 -0.2339
 5403TIP3    H137844   5.124   4.691   7.745 -0.5252 -2.8776  1.0946
 5403TIP3    H237845   5.192   4.698   7.610 -1.0356  3.0745  0.8681
 5404TIP3   OH237846   6.031   3.363   7.526  0.6921 -0.6451  0.6547
 5404TIP3    H137847   6.042   3.442   7.580  1.8061  0.3699 -0.9529
 5404TIP3    H237848   5.950   3.379   7.477  1.8868  0.4560 -1.0776
 5405TIP3   OH237849   4.812   6.302   0.812 -0.5937 -0.6338 -0.2034
 5405TIP3    H137850   4.846   6.363   0.747  0.7915 -0.1856  0.8917
 5405TIP3    H237851   4.798   6.220   0.764  0.7486 -0.4223 -0.9959
 5406TIP3   OH237852   2.744   6.171   6.775  0.2763  0.3423 -0.3155
 5406TIP3    H137853   2.730   6.126   6.691 -1.2411 -0.8448  0.5234
 5406TIP3    H237854   2.803   6.113   6.823  1.6508  1.3268 -0.7495
 5407TIP3   OH237855   2.663   6.319   8.569 -0.0960  0.2919  0.1997
 5407TIP3    H137856   2.599   6.248   8.577 -1.2776  1.3691  0.7074
 5407TIP3    H237857   2.625   6.379   8.504  1.2385  0.1175 -0.7787
 5408TIP3   OH237858   3.826   6.161   7.041  0.1728 -0.1337 -0.0521
 5408TIP3    H137859   3.741   6.174   6.999 -0.8824  2.5890  2.5448
 5408TIP3    H237860   3.804   6.135   7.131  2.2822 -4.2795 -0.4893
 5409TIP3   OH237861   6.636   5.981   7.309 -0.0919 -0.0095 -0.0172
 5409TIP3    H137862   6.549   6.017   7.293 -0.0077  0.8156  1.2787
 5409TIP3    H237863   6.621   5.886   7.318 -0.7735  0.0624 -0.3421
 5410TIP3   OH237864   6.452   3.828   0.623 -0.1528  0.1830  0.2228
 5410TIP3    H137865   6.447   3.781   0.540  0.2044 -0.9232  0.8103
 5410TIP3    H237866   6.504   3.771   0.680  0.5987  1.4591  0.8525
 5411TIP3   OH237867   3.752   0.147   7.366 -0.1599 -0.5130  0.0621
 5411TIP3    H137868   3.667   0.136   7.408 -0.9563 -0.4820 -1.4708
 5411TIP3    H237869   3.741   0.107   7.279  1.2602 -0.1542 -0.3061
 5412TIP3   OH237870   4.405   3.652   8.304  0.0998  0.2584 -0.1686
 5412TIP3    H137871   4.325   3.670   8.353  0.4517 -0.0083  0.5150
 5412TIP3    H237872   4.383   3.674   8.213 -1.1820 -1.0856 -0.2194
 5413TIP3   OH237873   2.369   3.593   0.248 -0.1528 -0.1262  0.0086
 5413TIP3    H137874   2.308   3.591   0.175 -0.4087  0.3738  0.2053
 5413TIP3    H237875   2.416   3.676   0.238 -0.6665  0.2694  0.7897
 5414TIP3   OH237876   1.961   1.637   7.353 -0.9008 -0.3134 -0.3076
 5414TIP3    H137877   1.900   1.625   7.281  0.5947  0.1114 -1.6977
 5414TIP3    H237878   2.003   1.722   7.336  2.4688 -2.0150 -1.3276
 5415TIP3   OH237879   4.534   1.153   1.387  0.3407  0.0101  0.0337
 5415TIP3    H137880   4.524   1.238   1.345  1.9702 -0.2586 -0.9868
 5415TIP3    H237881   4.629   1.143   1.399  0.1229 -1.3139  0.8746
 5416TIP3   OH237882   6.912   6.588   0.560  0.7937 -0.9527 -0.1110
 5416TIP3    H137883   6.826   6.548   0.572  0.0050  0.2731 -1.3503
 5416TIP3    H237884   6.968   6.516   0.531  0.8922 -2.3240  3.1128
 5417TIP3   OH237885   2.389   1.738   2.123 -0.4982  0.6529  0.0138
 5417TIP3    H137886   2.461   1.713   2.182 -0.8517 -0.7672 -0.1409
 5417TIP3    H237887   2.358   1.656   2.086  0.9178  1.5793 -3.6322
 5418TIP3   OH237888   5.235   6.790   1.913  0.1215  0.4792  0.0460
 5418TIP3    H137889   5.242   6.777   2.008  0.2847 -0.2432 -0.0537
 5418TIP3    H237890   5.274   6.710   1.876 -0.7900  0.3359 -0.6177
 5419TIP3   OH237891   0.674   4.477   0.154  0.0871  0.3852 -0.0498
 5419TIP3    H137892   0.680   4.386   0.183  4.1747  0.0679 -1.2914
 5419TIP3    H237893   0.719   4.527   0.222 -1.6745  1.4760  0.3699
 5420TIP3   OH237894   0.749   4.440   7.765  0.1139 -0.1826 -0.1245
 5420TIP3    H137895   0.728   4.514   7.707 -1.6368 -0.5475 -0.0226
 5420TIP3    H237896   0.757   4.365   7.707  1.1032 -0.0623 -0.1506
 5421TIP3   OH237897   3.783   3.637   6.127 -0.8086 -0.1735  0.4828
 5421TIP3    H137898   3.868   3.594   6.123 -1.5410 -1.8434  1.4944
 5421TIP3    H237899   3.798   3.718   6.175 -0.0528 -1.2274  2.0924
 5422TIP3   OH237900   6.526   6.144   1.992 -0.0662 -0.0962 -0.0110
 5422TIP3    H137901   6.537   6.188   2.077 -1.9988 -0.1558  0.3290
 5422TIP3    H237902   6.554   6.210   1.928 -0.3478  0.6502  0.6071
 5423TIP3   OH237903   4.186   4.178   7.215 -0.2478  0.6459 -0.5921
 5423TIP3    H137904   4.147   4.257   7.250 -1.2335  0.6425 -1.6201
 5423TIP3    H237905   4.151   4.171   7.126  0.0354 -0.7863 -0.6240
 5424TIP3   OH237906   6.133   5.063   7.969 -0.1247  0.4966  0.0001
 5424TIP3    H137907   6.117   5.132   7.905  0.0948  1.7152  1.2090
 5424TIP3    H237908   6.227   5.069   7.987 -0.3586  0.8805  1.1862
 5425TIP3   OH237909   4.239   2.160   1.361 -0.2254  0.0963 -0.8434
 5425TIP3    H137910   4.176   2.231   1.353 -0.5614 -0.0526  0.3588
 5425TIP3    H237911   4.315   2.199   1.403 -0.6410 -0.3768  0.3714
 5426TIP3   OH237912   2.454   5.941   7.724 -0.4544  0.4928 -0.5089
 5426TIP3    H137913   2.421   6.001   7.656 -0.6350  1.2370  0.2195
 5426TIP3    H237914   2.375   5.904   7.763 -0.3331 -0.7248 -1.3772
 5427TIP3   OH237915   0.564   6.678   1.472  0.1218 -0.6117 -0.1565
 5427TIP3    H137916   0.598   6.588   1.473  0.4385 -0.4926  0.6457
 5427TIP3    H237917   0.554   6.700   1.565 -2.3962 -0.7274 -0.3278
 5428TIP3   OH237918   5.836   5.761   0.107 -0.3439 -0.2564 -0.2574
 5428TIP3    H137919   5.858   5.842   0.154 -3.1902 -0.2184  1.2774
 5428TIP3    H237920   5.789   5.791   0.029  1.0007 -0.4071 -1.1442
 5429TIP3   OH237921   5.904   2.830   8.142 -0.2194  0.2662  0.4319
 5429TIP3    H137922   5.992   2.793   8.137 -0.3788  0.0047 -0.5924
 5429TIP3    H237923   5.868   2.795   8.223 -0.1220 -1.3007 -0.1709
 5430TIP3   OH237924   3.996   6.146   7.790  0.0905 -0.8927  0.5406
 5430TIP3    H137925   4.084   6.124   7.759 -1.1395 -1.5261 -2.9347
 5430TIP3    H237926   3.963   6.063   7.826  1.3110 -0.2977  3.3272
 5431TIP3   OH237927   2.615   3.943   0.368 -0.2008 -0.4030  0.0982
 5431TIP3    H137928   2.583   3.888   0.439  0.7921 -0.2455  0.6958
 5431TIP3    H237929   2.662   3.883   0.310 -1.2952 -0.5871 -0.6209
 5432TIP3   OH237930   4.450   3.165   1.117 -0.3768  0.6822 -0.3274
 5432TIP3    H137931   4.367   3.125   1.091 -0.9753  1.3969  0.4372
 5432TIP3    H237932   4.442   3.179   1.211  1.7944 -1.9450  0.3855
 5433TIP3   OH237933   3.801   0.447   0.665 -0.3445  0.6029  0.0122
 5433TIP3    H137934   3.763   0.523   0.709 -0.1943  0.6447  0.0710
 5433TIP3    H237935   3.728   0.386   0.654 -0.4026  0.6330  0.2323
 5434TIP3   OH237936   3.638   3.113   1.613 -0.0776  0.5993  0.3193
 5434TIP3    H137937   3.549   3.105   1.580  0.5673  0.8398 -1.6061
 5434TIP3    H237938   3.631   3.094   1.707 -1.9376 -0.6805 -0.0195
 5435TIP3   OH237939   1.422   3.145   1.654 -0.3315  0.0229 -0.5473
 5435TIP3    H137940   1.399   3.227   1.699 -1.2183 -1.0219  0.9772
 5435TIP3    H237941   1.339   3.100   1.642  0.2265 -0.9956 -0.6984
 5436TIP3   OH237942   4.354   0.410   0.195  0.4415 -0.1335  0.7256
 5436TIP3    H137943   4.337   0.385   0.286  1.7610  0.2021  1.0822
 5436TIP3    H237944   4.412   0.486   0.202  0.1058  0.2389 -0.3962
 5437TIP3   OH237945   4.971   6.481   0.120 -0.2969 -0.3756 -0.1016
 5437TIP3    H137946   4.889   6.435   0.101  0.3984 -1.2382 -1.1596
 5437TIP3    H237947   5.005   6.437   0.197  0.6405 -2.1137 -1.4277
 5438TIP3   OH237948   1.416   4.307   7.787  0.1817 -0.5481  1.0098
 5438TIP3    H137949   1.441   4.389   7.744 -0.1377  0.2703  2.3098
 5438TIP3    H237950   1.320   4.310   7.789  0.1941 -0.4050  2.0335
 5439TIP3   OH237951   3.733   4.273   8.051 -0.8006  0.1864  0.5566
 5439TIP3    H137952   3.796   4.215   8.093 -0.9965  0.1150  0.7541
 5439TIP3    H237953   3.714   4.232   7.967 -2.2751 -0.9855  1.4122
 5440TIP3   OH237954   2.448   6.077   8.385 -0.0311  0.2322  0.2193
 5440TIP3    H137955   2.441   6.115   8.473 -1.2424  1.2050 -0.2604
 5440TIP3    H237956   2.393   5.999   8.388 -0.7750  0.7463  0.0904
 5441TIP3   OH237957   2.845   1.698   0.161  0.5518 -0.0954 -0.5199
 5441TIP3    H137958   2.761   1.726   0.125 -0.3698 -1.3411  0.5918
 5441TIP3    H237959   2.909   1.725   0.095 -0.9774 -1.5076 -2.6923
 5442TIP3   OH237960   3.274   0.381   6.468 -0.1880 -0.6034 -0.0359
 5442TIP3    H137961   3.326   0.461   6.463 -3.2449  1.5365 -0.4057
 5442TIP3    H237962   3.263   0.354   6.377 -0.0494 -0.8067  0.0088
 5443TIP3   OH237963   1.452   5.775   7.321  0.5287  0.1240  0.3933
 5443TIP3    H137964   1.495   5.695   7.290 -1.2231 -0.5724 -0.3128
 5443TIP3    H237965   1.466   5.773   7.416 -2.2751 -2.8747  0.9355
 5444TIP3   OH237966   0.953   1.703   8.430 -0.4115 -0.1733  0.0987
 5444TIP3    H137967   0.968   1.772   8.496  0.1727  0.0400 -0.2464
 5444TIP3    H237968   0.911   1.749   8.357 -0.7030 -0.3329  0.1651
 5445TIP3   OH237969   0.550   1.055   6.832 -0.2751 -0.1631 -0.1562
 5445TIP3    H137970   0.498   1.105   6.769  0.8711  0.1664 -0.8737
 5445TIP3    H237971   0.495   0.980   6.854 -0.9608  0.0555 -1.0679
 5446TIP3   OH237972   2.602   6.211   7.452  0.2317  0.3510  0.5936
 5446TIP3    H137973   2.556   6.200   7.369  0.3271 -0.1334  0.5990
 5446TIP3    H237974   2.689   6.173   7.437  0.2162  0.1755  0.9430
 5447TIP3   OH237975   3.572   0.269   2.015  0.6630 -0.1096 -0.2960
 5447TIP3    H137976   3.529   0.192   2.051  0.7839  0.2259  0.5944
 5447TIP3    H237977   3.518   0.342   2.042  1.0604  0.1997 -0.3233
 5448TIP3   OH237978   0.418   4.832   7.816  0.5646 -0.1024  0.2047
 5448TIP3    H137979   0.512   4.838   7.798  0.8437  0.0571  1.6358
 5448TIP3    H237980   0.407   4.747   7.857  0.0992 -0.0552  0.1806
 5449TIP3   OH237981   1.407   4.906   2.327  0.1143 -0.0792 -0.0171
 5449TIP3    H137982   1.448   4.922   2.412 -1.1498  0.0437  0.5988
 5449TIP3    H237983   1.341   4.839   2.344  0.1954 -0.4261 -1.0155
 5450TIP3   OH237984   5.623   1.624   7.468  0.3180 -0.1965  0.6031
 5450TIP3    H137985   5.582   1.594   7.549  0.5590  0.3341  0.9286
 5450TIP3    H237986   5.578   1.576   7.399  0.4053 -0.9810  1.0767
 5451TIP3   OH237987   1.116   1.879   7.472  0.3981  0.5788 -0.4766
 5451TIP3    H137988   1.046   1.820   7.446  0.1053  1.3246 -1.4432
 5451TIP3    H237989   1.097   1.961   7.426 -0.5190  2.2499  2.5652
 5452TIP3   OH237990   5.484   3.345   8.554 -0.4896  0.4444 -0.0024
 5452TIP3    H137991   5.540   3.423   8.544  1.0609 -0.5016  0.9461
 5452TIP3    H237992   5.443   3.356   8.639  0.9832 -0.4894  0.8747
 5453TIP3   OH237993   4.447   4.610   8.228  0.1360  0.1504 -0.2282
 5453TIP3    H137994   4.367   4.609   8.280  0.7251 -1.3303  0.7245
 5453TIP3    H237995   4.436   4.683   8.168 -0.5522  1.9676  1.9823
 5454TIP3   OH237996   2.916   2.260   8.227 -0.7619 -0.1448  0.7698
 5454TIP3    H137997   2.855   2.330   8.246 -0.0984  0.2315  1.5363
 5454TIP3    H237998   3.001   2.303   8.218 -0.4407 -0.7786  0.6845
 5455TIP3   OH237999   2.049   3.901   8.421 -0.3695 -0.1281  0.0430
 5455TIP3    H138000   2.076   3.947   8.342  0.9814 -0.5290  0.2358
 5455TIP3    H238001   2.039   3.809   8.394  0.4694 -0.3353  0.3957
 5456TIP3   OH238002   5.155   1.635   1.371 -0.3663  0.3134  0.2464
 5456TIP3    H138003   5.122   1.550   1.340  1.8337 -0.5490  0.0922
 5456TIP3    H238004   5.249   1.630   1.357 -0.1287  2.6236  0.7160
 5457TIP3   OH238005   3.206   0.266   1.239  0.0896  0.4752 -1.0189
 5457TIP3    H138006   3.200   0.171   1.224 -1.2935 -0.2981  3.1951
 5457TIP3    H238007   3.124   0.300   1.203  0.8720  0.2987 -3.1441
 5458TIP3   OH238008   4.964   0.041   1.804 -0.5372  0.3000 -1.1153
 5458TIP3    H138009   4.912  -0.010   1.741 -0.6219  0.2130 -0.9776
 5458TIP3    H238010   4.902   0.105   1.839 -1.1274 -1.1094  0.5462
 5459TIP3   OH238011   4.560   6.871   0.438 -0.3677  0.5426 -0.3910
 5459TIP3    H138012   4.589   6.839   0.524 -0.8508  1.5406  0.1640
 5459TIP3    H238013   4.590   6.804   0.376 -0.6575 -0.5680  0.6282
 5460TIP3   OH238014   5.319   0.827   1.404  0.9003  0.1372 -0.2628
 5460TIP3    H138015   5.358   0.911   1.427 -0.2058  0.9012 -1.1039
 5460TIP3    H238016   5.376   0.792   1.335  1.3056  0.2125  0.0256
 5461TIP3   OH238017   4.282   3.525   1.819  0.3096 -0.2951 -0.0239
 5461TIP3    H138018   4.316   3.528   1.730  0.6280  0.4389  0.1146
 5461TIP3    H238019   4.359   3.508   1.873  0.4559  1.2014  0.2779
 5462TIP3   OH238020   5.285   2.992   0.639 -0.7987 -0.1893 -0.4694
 5462TIP3    H138021   5.208   2.936   0.655  0.7727 -2.3212  0.1109
 5462TIP3    H238022   5.331   2.992   0.723 -0.0739  0.9301 -0.8601
 5463TIP3   OH238023   3.525   5.821   6.405 -0.2201  0.3494  0.1824
 5463TIP3    H138024   3.619   5.810   6.399 -0.0634  2.0796 -1.9444
 5463TIP3    H238025   3.493   5.741   6.446  2.2978  0.5056  2.7398
 5464TIP3   OH238026   4.788   5.183   7.038 -0.0850  0.9090 -0.2967
 5464TIP3    H138027   4.751   5.178   6.950 -0.9164  0.7550  0.0539
 5464TIP3    H238028   4.757   5.267   7.073  2.2416  2.1675 -1.0144
 5465TIP3   OH238029   3.936   6.523   8.577  0.4444  0.2987  0.0758
 5465TIP3    H138030   3.903   6.463   8.645 -1.1244  1.6968  0.6135
 5465TIP3    H238031   3.973   6.596   8.626  0.2973  0.8127 -0.5731
 5466TIP3   OH238032   1.650   6.692   2.031 -0.2965  0.4829  0.1159
 5466TIP3    H138033   1.573   6.635   2.040 -0.4749  0.7967  0.6023
 5466TIP3    H238034   1.672   6.717   2.121  1.2768 -0.7925  0.1343
 5467TIP3   OH238035   1.609   4.816   1.773  0.0146  0.3948 -0.4404
 5467TIP3    H138036   1.588   4.747   1.710  1.3301 -1.1247  0.6717
 5467TIP3    H238037   1.679   4.778   1.826 -1.0491  1.5702  1.9604
 5468TIP3   OH238038   4.704   0.453   7.818 -0.6114  0.0775  0.1478
 5468TIP3    H138039   4.770   0.387   7.839  0.7384  1.5774  0.8266
 5468TIP3    H238040   4.679   0.490   7.903 -0.1771  1.4832 -0.3005
 5469TIP3   OH238041   6.856   4.816   1.607 -0.5788  0.2042  0.1800
 5469TIP3    H138042   6.936   4.858   1.577 -0.2071 -0.0085  0.8563
 5469TIP3    H238043   6.873   4.722   1.599 -1.7017  0.1352 -2.1036
 5470TIP3   OH238044   0.694   3.646   1.573 -0.6501 -0.3255 -0.2628
 5470TIP3    H138045   0.700   3.652   1.478 -0.8665  0.7329 -0.2266
 5470TIP3    H238046   0.783   3.628   1.602 -0.2736  0.9236 -0.5850
 5471TIP3   OH238047   0.925   3.026   8.269 -0.0974  0.7768 -0.3787
 5471TIP3    H138048   1.001   2.995   8.318  0.2594  0.9260 -0.8282
 5471TIP3    H238049   0.855   2.963   8.290  0.1090  0.7166  0.1419
 5472TIP3   OH238050   5.344   4.064   1.090  0.1575 -0.6777  0.1480
 5472TIP3    H138051   5.377   4.154   1.089  0.5647 -0.8296 -0.8915
 5472TIP3    H238052   5.257   4.070   1.050  0.7981 -0.9619 -1.3300
 5473TIP3   OH238053   4.136   2.037   0.109  0.1754  0.0119 -0.4914
 5473TIP3    H138054   4.104   2.043   0.199  2.1204 -1.0825  0.3271
 5473TIP3    H238055   4.195   2.112   0.100  0.4370 -0.2110 -0.6473
 5474TIP3   OH238056   3.668   0.487   7.979 -0.4334 -0.3343 -0.0743
 5474TIP3    H138057   3.606   0.415   7.968 -1.3776 -0.0586  2.6092
 5474TIP3    H238058   3.716   0.466   8.059 -0.4921  1.8062  0.6068
 5475TIP3   OH238059   0.395   3.926   1.187  0.0453  0.7696 -0.6188
 5475TIP3    H138060   0.399   3.839   1.227  0.5567  1.4128  0.8132
 5475TIP3    H238061   0.453   3.980   1.241  2.4416  1.2847 -3.4453
 5476TIP3   OH238062   1.351   2.301   8.151 -0.0486 -0.0223 -0.1620
 5476TIP3    H138063   1.409   2.276   8.222  0.5527 -1.3009 -1.0596
 5476TIP3    H238064   1.266   2.264   8.175 -0.3933  1.3908  0.8947
 5477TIP3   OH238065   3.929   2.462   0.567 -0.5382 -0.0601  0.1225
 5477TIP3    H138066   3.875   2.504   0.500 -0.8861  0.0861  0.4888
 5477TIP3    H238067   3.914   2.514   0.646  0.0374 -0.0987  0.2644
 5478TIP3   OH238068   2.974   5.545   7.251  0.6087  0.2280 -0.3573
 5478TIP3    H138069   2.890   5.500   7.253  0.5208  0.2814 -1.5863
 5478TIP3    H238070   3.031   5.487   7.201  1.1971  0.3610  0.1513
 5479TIP3   OH238071   3.986   1.135   8.521  0.0190 -0.1222 -0.2223
 5479TIP3    H138072   4.061   1.167   8.571 -1.5085  0.6681  1.7353
 5479TIP3    H238073   3.931   1.212   8.508  0.2114 -0.3655 -2.9995
 5480TIP3   OH238074   4.930   3.938   1.085  0.0023  0.4551 -0.3430
 5480TIP3    H138075   4.893   3.869   1.140  1.2653  0.6681  0.8211
 5480TIP3    H238076   4.912   4.019   1.133 -1.8213  1.0328 -1.8842
 5481TIP3   OH238077   3.447   3.269   1.905 -0.4419 -0.0897  0.1655
 5481TIP3    H138078   3.355   3.260   1.931 -0.4684  0.6706  0.3489
 5481TIP3    H238079   3.450   3.349   1.852  0.1611  0.0498  0.3942
 5482TIP3   OH238080   4.585   2.678   1.800  0.4269 -0.5886 -0.0463
 5482TIP3    H138081   4.531   2.605   1.770 -0.6683  0.1445  0.0834
 5482TIP3    H238082   4.673   2.642   1.805  0.1857 -1.4645 -1.5174
 5483TIP3   OH238083   2.305   0.103   0.331 -0.5802 -0.0797 -0.4206
 5483TIP3    H138084   2.255   0.122   0.410 -0.1099 -0.1585 -0.1004
 5483TIP3    H238085   2.243   0.114   0.260 -0.4364  2.3549 -0.2448
 5484TIP3   OH238086   3.751   1.664   0.343  0.6515  0.1131  0.4421
 5484TIP3    H138087   3.720   1.718   0.415 -0.7742 -0.7737  0.5186
 5484TIP3    H238088   3.675   1.614   0.315  1.4213 -0.3022 -1.0269
 5485TIP3   OH238089   3.253   3.203   2.088 -0.4598  0.3901 -0.2699
 5485TIP3    H138090   3.189   3.181   2.156 -0.9310 -1.7485 -1.2929
 5485TIP3    H238091   3.328   3.147   2.107 -0.8142 -0.6648 -1.7636
 5486TIP3   OH238092   0.728   4.216   0.261 -0.6770  0.0998 -0.2261
 5486TIP3    H138093   0.678   4.134   0.257 -0.1591 -0.2418  0.1827
 5486TIP3    H238094   0.745   4.229   0.354 -1.9361  1.4074 -0.1592
 5487TIP3   OH238095   6.239   0.698   1.031 -0.5920 -0.1176 -0.4155
 5487TIP3    H138096   6.159   0.704   1.083 -0.9396 -0.7290 -0.8603
 5487TIP3    H238097   6.208   0.671   0.944  0.1819 -1.3257 -0.3371
 5488TIP3   OH238098   3.078   0.069   0.658 -0.4337 -0.3061 -0.4405
 5488TIP3    H138099   3.101   0.051   0.567 -1.2664 -0.9882 -0.5210
 5488TIP3    H238100   3.012   0.004   0.680 -0.6377  0.1949  0.4898
 5489TIP3   OH238101   5.129   5.739   7.087 -0.0890  0.0100  0.1216
 5489TIP3    H138102   5.223   5.751   7.074 -0.4736  0.5032 -2.9310
 5489TIP3    H238103   5.120   5.649   7.118  1.3211 -0.9446 -1.9708
 5490TIP3   OH238104   5.189   1.480   0.173  0.0514 -0.2737 -0.2405
 5490TIP3    H138105   5.207   1.564   0.215 -1.3888  0.2154 -0.5459
 5490TIP3    H238106   5.111   1.447   0.217  0.7159 -1.5735  0.0212
 5491TIP3   OH238107   0.837   1.785   1.352  0.1356  0.0293  0.0942
 5491TIP3    H138108   0.825   1.868   1.304 -0.7189  0.0068  0.2470
 5491TIP3    H238109   0.791   1.799   1.435  0.1376 -0.5362  0.1920
 5492TIP3   OH238110   1.616   0.330   7.232 -0.4994  0.0895 -0.0288
 5492TIP3    H138111   1.709   0.336   7.257 -0.2463 -0.0516 -0.8983
 5492TIP3    H238112   1.614   0.363   7.142 -1.1255 -0.9149 -0.3938
 5493TIP3   OH238113   3.411   0.862   0.393  0.3248  0.5625 -0.3595
 5493TIP3    H138114   3.345   0.897   0.452  0.6425  1.0677 -0.2956
 5493TIP3    H238115   3.402   0.914   0.313  1.3308  1.3555  0.0195
 5494TIP3   OH238116   5.392   3.174   8.246 -0.7159  0.0594  0.4754
 5494TIP3    H138117   5.478   3.199   8.212 -0.4229 -1.1753  0.2655
 5494TIP3    H238118   5.348   3.257   8.262  0.5465  0.7192  0.6830
 5495TIP3   OH238119   1.785   6.904   6.726  0.3903 -0.2625 -0.1579
 5495TIP3    H138120   1.822   6.819   6.750  0.6962 -0.1206 -0.1254
 5495TIP3    H238121   1.776   6.900   6.631 -0.7095 -0.7790 -0.0478
 5496TIP3   OH238122   5.284   3.911   1.983  0.3472 -0.5311  0.2336
 5496TIP3    H138123   5.368   3.877   2.015  0.0538 -0.2797  1.2956
 5496TIP3    H238124   5.293   3.910   1.887  1.7818  0.0745  0.3459
 5497TIP3   OH238125   2.489   3.642   2.644 -0.0906 -0.1633 -0.0170
 5497TIP3    H138126   2.475   3.700   2.569 -1.9434 -0.9380 -0.3201
 5497TIP3    H238127   2.526   3.699   2.711  2.1336  0.4425 -1.6403
 5498TIP3   OH238128   2.383   5.641   0.096 -0.0448 -0.0277 -0.8522
 5498TIP3    H138129   2.452   5.580   0.070 -0.5672 -0.2206 -1.8468
 5498TIP3    H238130   2.405   5.722   0.049  1.8978  1.3688  2.1270
 5499TIP3   OH238131   1.396   0.837   1.729 -0.3349  0.7812  0.2001
 5499TIP3    H138132   1.459   0.843   1.658 -0.7860  1.6572 -0.1414
 5499TIP3    H238133   1.313   0.815   1.686 -0.3491 -0.0032  0.6052
 5500TIP3   OH238134   2.500   4.185   7.112  0.6336 -0.6071  0.1415
 5500TIP3    H138135   2.507   4.167   7.205  0.6288 -0.9018  0.0861
 5500TIP3    H238136   2.446   4.114   7.078  1.6171 -1.1824 -0.2824
 5501TIP3   OH238137   5.163   1.163   7.205  0.0275  0.8386 -0.6468
 5501TIP3    H138138   5.181   1.245   7.159 -1.0564  2.7508  2.1001
 5501TIP3    H238139   5.241   1.148   7.258 -0.4821  1.0804  0.1830
 5502TIP3   OH238140   2.694   1.731   7.747 -0.7369 -0.0922  0.1031
 5502TIP3    H138141   2.752   1.669   7.791 -0.6379 -1.3238 -1.6594
 5502TIP3    H238142   2.666   1.791   7.816  1.2159 -0.5330  1.3472
 5503TIP3   OH238143   2.728   6.613   8.149 -0.0760  0.0317  0.0869
 5503TIP3    H138144   2.785   6.568   8.086 -0.4805 -1.0115  0.4358
 5503TIP3    H238145   2.779   6.615   8.230  0.3330  1.1220 -0.1787
 5504TIP3   OH238146   0.703   5.774   1.292 -0.0616  0.5000  0.5443
 5504TIP3    H138147   0.703   5.843   1.226 -1.6023 -1.9721 -2.2612
 5504TIP3    H238148   0.626   5.792   1.346 -0.2759  1.1101  0.0505
 5505TIP3   OH238149   4.681   3.139   0.952 -0.2655  0.4447  0.3982
 5505TIP3    H138150   4.659   3.222   0.909  1.9897  2.5544  2.9661
 5505TIP3    H238151   4.599   3.110   0.991 -0.9855  1.8118 -0.0110
 5506TIP3   OH238152   6.398   1.653   0.741  0.4895 -0.0247  0.4258
 5506TIP3    H138153   6.360   1.574   0.702  0.4566 -0.6638  1.6967
 5506TIP3    H238154   6.420   1.709   0.666 -2.5077  0.2049 -0.3937
 5507TIP3   OH238155   6.747   0.955   1.303 -0.4085 -0.2780 -0.0249
 5507TIP3    H138156   6.795   1.029   1.267  0.5825 -1.0916 -0.4209
 5507TIP3    H238157   6.758   0.962   1.397 -2.0764  1.2359  0.1068
 5508TIP3   OH238158   0.466   2.327   7.987  0.5581 -0.0368 -0.7214
 5508TIP3    H138159   0.524   2.251   7.991 -0.0232 -0.4354  1.6427
 5508TIP3    H238160   0.514   2.396   8.033 -0.3783 -0.0761  0.3567
 5509TIP3   OH238161   1.998   4.775   8.196 -0.3643 -0.3324 -0.0847
 5509TIP3    H138162   2.066   4.708   8.204 -1.0296 -1.0102 -0.0207
 5509TIP3    H238163   1.934   4.753   8.263  0.4152  1.6169  1.4029
 5510TIP3   OH238164   6.022   4.595   7.750 -0.0659  0.1141 -0.2343
 5510TIP3    H138165   5.954   4.531   7.725 -1.7873  1.4056  0.9380
 5510TIP3    H238166   6.034   4.648   7.671 -0.1866 -0.3019 -0.5421
 5511TIP3   OH238167   2.612   5.106   0.760 -0.1985  0.3465  0.1912
 5511TIP3    H138168   2.547   5.155   0.709 -0.3059  0.9718  0.9064
 5511TIP3    H238169   2.692   5.112   0.708 -0.5749  0.0444 -0.4282
 5512TIP3   OH238170   3.194   0.026   1.114 -0.1822  0.3763  0.1835
 5512TIP3    H138171   3.192   0.082   1.037 -2.4084 -0.1417 -0.1940
 5512TIP3    H238172   3.286  -0.001   1.122  0.2372  1.0559 -1.8091
 5513TIP3   OH238173   4.849   0.773   1.354  0.0535  0.0210 -1.2284
 5513TIP3    H138174   4.796   0.723   1.415  1.7122 -0.4059 -0.0728
 5513TIP3    H238175   4.786   0.830   1.309 -1.1993  0.6107  1.1039
 5514TIP3   OH238176   3.081   3.983   1.516 -0.5857  0.3292 -0.1372
 5514TIP3    H138177   3.094   3.962   1.608 -1.1864  1.4012  0.2042
 5514TIP3    H238178   3.117   3.907   1.469 -2.2110 -1.2176  0.9972
 5515TIP3   OH238179   0.863   5.318   7.137 -0.1921 -0.3730 -0.2048
 5515TIP3    H138180   0.873   5.401   7.184 -1.0025  0.0782 -0.8021
 5515TIP3    H238181   0.952   5.288   7.122  0.0987 -0.7290  1.9479
 5516TIP3   OH238182   2.133   2.708   0.839 -0.3849 -0.4182  0.1311
 5516TIP3    H138183   2.198   2.659   0.889 -0.3402  0.2938  0.7857
 5516TIP3    H238184   2.184   2.770   0.787 -0.5146 -0.2223  0.2373
 5517TIP3   OH238185   3.631   0.099   8.265  0.4718  0.4434 -0.6037
 5517TIP3    H138186   3.631   0.006   8.288 -0.0968  0.5202 -0.2746
 5517TIP3    H238187   3.689   0.105   8.190  0.9614 -0.0904 -0.2741
 5518TIP3   OH238188   4.706   2.477   0.091 -0.2944 -0.4861  0.6126
 5518TIP3    H138189   4.703   2.555   0.146 -0.9341  0.4779 -0.7499
 5518TIP3    H238190   4.791   2.437   0.111 -0.4191 -0.0611  2.1145
 5519TIP3   OH238191   2.039   0.804   8.569 -0.2101  0.2467  0.1568
 5519TIP3    H138192   2.088   0.730   8.605  0.1017  0.0619 -0.6160
 5519TIP3    H238193   2.069   0.879   8.620  1.6306  0.2994 -0.9152
 5520TIP3   OH238194   5.791   3.439   1.770 -0.3973 -0.1519 -0.4121
 5520TIP3    H138195   5.879   3.432   1.808 -0.8846 -3.2586  0.4704
 5520TIP3    H238196   5.803   3.418   1.677 -0.0922  0.4497 -0.5117
 5521TIP3   OH238197   2.090   4.687   7.743 -1.0488  0.4951 -0.3642
 5521TIP3    H138198   2.133   4.754   7.797  0.0006  0.3651 -1.0236
 5521TIP3    H238199   2.023   4.735   7.695 -1.4625  0.7565  0.4599
 5522TIP3   OH238200   1.988   3.605   1.329 -0.1652 -0.6239  0.2143
 5522TIP3    H138201   1.988   3.635   1.420 -1.3018 -2.0603  0.7284
 5522TIP3    H238202   1.916   3.653   1.288  0.3439  0.0200  0.0538
 5523TIP3   OH238203   0.640   4.708   8.164  0.1585 -0.1514  0.4498
 5523TIP3    H138204   0.565   4.752   8.203 -0.5138 -1.9220  1.2641
 5523TIP3    H238205   0.700   4.692   8.237  0.4583 -0.4708  0.1385
 5524TIP3   OH238206   5.995   5.758   6.757  0.0314 -0.1027 -0.4075
 5524TIP3    H138207   5.919   5.737   6.703 -0.5018  0.3429  0.1585
 5524TIP3    H238208   6.043   5.676   6.764 -0.3241 -0.3546 -0.8784
 5525TIP3   OH238209   1.039   1.655   7.846  0.1059 -0.4833 -0.0619
 5525TIP3    H138210   1.061   1.579   7.794  1.9012  0.0550 -0.1475
 5525TIP3    H238211   1.029   1.621   7.935  1.6058 -0.7304  0.0270
 5526TIP3   OH238212   0.608   2.228   7.425 -0.4137 -0.2230  0.0705
 5526TIP3    H138213   0.587   2.258   7.513  1.1421  0.0327  0.3905
 5526TIP3    H238214   0.603   2.132   7.430  1.9485 -0.3687  1.1339
 5527TIP3   OH238215   1.490   4.366   8.294  0.7936 -0.5951 -0.2415
 5527TIP3    H138216   1.469   4.400   8.381  0.7713 -4.1889  1.3448
 5527TIP3    H238217   1.416   4.308   8.273  1.4482 -0.8330 -2.0344
 5528TIP3   OH238218   3.100   0.219   0.317  0.0997 -0.0663 -1.0151
 5528TIP3    H138219   3.066   0.130   0.328  2.6635 -0.8648  2.0710
 5528TIP3    H238220   3.022   0.274   0.310 -1.6211 -2.3209 -0.8576
 5529TIP3   OH238221   2.197   2.338   8.336  0.7127  0.4963  0.0529
 5529TIP3    H138222   2.159   2.328   8.249 -2.2959  1.7302  1.0865
 5529TIP3    H238223   2.241   2.424   8.334  1.9565 -0.1198 -0.6007
 5530TIP3   OH238224   4.638   0.752   0.325 -0.2726 -0.4742 -0.0459
 5530TIP3    H138225   4.613   0.760   0.234  0.5813 -1.6035 -0.4057
 5530TIP3    H238226   4.725   0.712   0.323  0.7497  1.4840  1.1866
 5531TIP3   OH238227   3.880   2.048   0.778 -0.8835 -0.5056  0.3081
 5531TIP3    H138228   3.889   2.048   0.682 -3.0998 -0.7308  0.0576
 5531TIP3    H238229   3.912   2.134   0.805  2.3112 -1.3446 -0.2746
 5532TIP3   OH238230   4.463   6.847   1.106  0.1231 -0.1302  0.3842
 5532TIP3    H138231   4.501   6.828   1.192  0.5731  0.3526  0.2966
 5532TIP3    H238232   4.497   6.934   1.084 -0.1210 -0.1857 -0.2104
 5533TIP3   OH238233   4.680   1.907   1.549 -0.1538  1.1911  0.2806
 5533TIP3    H138234   4.759   1.960   1.556 -0.8543  2.1265  1.3744
 5533TIP3    H238235   4.608   1.969   1.562 -1.0108  0.0657  1.0981
 5534TIP3   OH238236   0.374   3.763   7.946 -0.2542  0.0362  0.1138
 5534TIP3    H138237   0.410   3.841   7.990  0.5476 -0.5819  0.5801
 5534TIP3    H238238   0.297   3.796   7.900  1.1566  1.5162 -1.3503
 5535TIP3   OH238239   5.023   1.496   1.907 -0.2792 -0.2105  0.6041
 5535TIP3    H138240   5.062   1.575   1.945  1.7928 -1.2570  0.8006
 5535TIP3    H238241   4.944   1.527   1.864 -1.3575  1.4697  3.4911
 5536TIP3   OH238242   0.046   3.517   1.614  0.2173  0.3287 -0.0365
 5536TIP3    H138243   0.132   3.476   1.619  0.9470  1.8615  0.7786
 5536TIP3    H238244   0.022   3.533   1.705 -1.7404 -1.5945 -0.1405
 5537TIP3   OH238245   6.449   2.299   0.325 -0.1793 -0.2710 -0.1118
 5537TIP3    H138246   6.465   2.390   0.301 -1.5289  0.1283  0.4033
 5537TIP3    H238247   6.509   2.249   0.270 -1.3115  0.7514 -2.4367
 5538TIP3   OH238248   1.994   1.281   6.555  0.1418 -0.0906  0.2111
 5538TIP3    H138249   1.974   1.188   6.543  0.2126 -0.0004 -0.6324
 5538TIP3    H238250   1.909   1.323   6.563  0.1031 -0.2008  0.3806
 5539TIP3   OH238251   1.673   2.548   7.352  0.0838 -0.3475  0.5597
 5539TIP3    H138252   1.663   2.456   7.328  1.2535 -0.7030  1.3652
 5539TIP3    H238253   1.740   2.548   7.421  0.9024  1.2104 -0.1923
 5540TIP3   OH238254   1.519   6.812   7.423 -0.4668 -0.6586 -0.3941
 5540TIP3    H138255   1.523   6.876   7.352 -1.5178 -2.3330 -2.0563
 5540TIP3    H238256   1.610   6.789   7.440 -0.2082 -0.5362 -1.5126
 5541TIP3   OH238257   4.967   0.369   0.746  0.1859 -0.2002 -0.5615
 5541TIP3    H138258   5.053   0.327   0.745 -0.3395 -1.3513 -0.0343
 5541TIP3    H238259   4.966   0.424   0.668  1.5236  0.1002 -0.3909
 5542TIP3   OH238260   3.865   6.893   0.624  0.0539  0.1896 -0.3555
 5542TIP3    H138261   3.784   6.929   0.660  1.5125  2.1305  1.2628
 5542TIP3    H238262   3.885   6.951   0.550  0.0586 -0.1971 -0.6608
 5543TIP3   OH238263   4.299   2.029   8.429 -0.2927 -0.8777 -0.0051
 5543TIP3    H138264   4.340   2.115   8.424 -2.3941  0.3949  2.1837
 5543TIP3    H238265   4.235   2.028   8.358 -1.6449  0.2687  1.1286
 5544TIP3   OH238266   6.090   6.438   8.515  0.2256 -0.4241 -0.0633
 5544TIP3    H138267   6.127   6.513   8.562 -2.2614  0.0215  1.3660
 5544TIP3    H238268   6.085   6.466   8.424  0.9926  0.4363  0.1453
 5545TIP3   OH238269   5.324   4.302   6.508 -0.2276 -0.2366  0.0156
 5545TIP3    H138270   5.253   4.251   6.468  1.3865 -1.8377 -1.0201
 5545TIP3    H238271   5.311   4.391   6.476 -2.9655  0.0438  1.6060
 5546TIP3   OH238272   1.189   6.313   2.037 -0.7421  0.4801 -0.2710
 5546TIP3    H138273   1.188   6.409   2.031 -0.9604  0.3818 -2.6578
 5546TIP3    H238274   1.098   6.287   2.019 -1.0064 -0.1774  1.7095
 5547TIP3   OH238275   4.502   4.453   0.956  0.6695 -0.3983 -0.4424
 5547TIP3    H138276   4.525   4.433   0.865 -0.9177  0.3380 -1.0515
 5547TIP3    H238277   4.407   4.462   0.954  0.6597  0.0394  1.2234
 5548TIP3   OH238278   5.343   0.652   7.764 -0.3067 -0.4615 -0.3265
 5548TIP3    H138279   5.323   0.700   7.845 -2.2490 -3.0937  0.8991
 5548TIP3    H238280   5.268   0.670   7.707  0.7140  0.7975 -1.3347
 5549TIP3   OH238281   2.556   5.647   6.858 -0.3862  0.4284  0.4191
 5549TIP3    H138282   2.570   5.665   6.765  1.6662 -0.7323  0.4388
 5549TIP3    H238283   2.526   5.556   6.861 -0.9356  0.6172  0.8745
 5550TIP3   OH238284   6.144   5.240   0.697 -0.7200  0.2274  0.3576
 5550TIP3    H138285   6.059   5.265   0.732 -0.9647 -1.5921  1.1604
 5550TIP3    H238286   6.185   5.323   0.673 -2.8213  1.1379 -0.3638
 5551TIP3   OH238287   5.530   5.062   1.553  0.2143  0.5163 -0.6558
 5551TIP3    H138288   5.571   5.125   1.613  1.7704 -2.0951  1.2261
 5551TIP3    H238289   5.436   5.073   1.568  0.5395  0.5410  1.6950
 5552TIP3   OH238290   5.509   0.819   7.645  0.4800  0.0418 -0.1992
 5552TIP3    H138291   5.457   0.745   7.677  2.8296 -1.9816 -0.7688
 5552TIP3    H238292   5.489   0.890   7.705 -2.8850 -0.5933 -0.3880
 5553TIP3   OH238293   3.399   6.351   7.513  0.2412 -0.2105  0.2476
 5553TIP3    H138294   3.380   6.347   7.419  0.5333 -0.1911  0.1869
 5553TIP3    H238295   3.317   6.324   7.555 -0.7566  2.3169  0.0720
 5554TIP3   OH238296   4.970   3.420   8.581 -0.0541 -0.4295 -0.7740
 5554TIP3    H138297   4.931   3.371   8.654 -0.2526  0.3580 -0.3373
 5554TIP3    H238298   4.911   3.494   8.567  0.7429  0.2286 -0.7767
 5555TIP3   OH238299   6.248   3.708   0.369 -0.4821 -1.0712 -0.4213
 5555TIP3    H138300   6.312   3.651   0.412 -0.8029  0.9306  3.1601
 5555TIP3    H238301   6.163   3.671   0.391 -0.6373 -0.5349 -0.0912
 5556TIP3   OH238302   1.114   1.172   0.280  0.1247  0.2146  0.3244
 5556TIP3    H138303   1.106   1.089   0.234 -2.3142 -0.8592  2.4417
 5556TIP3    H238304   1.029   1.185   0.322  1.0082  2.9062  1.5229
 5557TIP3   OH238305   2.225   4.143   8.614  0.3777  0.2106 -0.1556
 5557TIP3    H138306   2.184   4.229   8.602 -1.8438 -0.7438  0.1871
 5557TIP3    H238307   2.249   4.116   8.526 -1.0159  0.2172 -0.5554
 5558TIP3   OH238308   5.942   3.970   7.642 -0.7905 -0.3756  0.0015
 5558TIP3    H138309   5.953   3.880   7.609 -0.3793  0.5335 -2.5717
 5558TIP3    H238310   6.030   4.008   7.636 -1.1201  0.4319  0.2894
 5559TIP3   OH238311   3.998   6.191   1.288  0.1929  0.2460  0.3578
 5559TIP3    H138312   4.064   6.260   1.292  0.2045  0.2714 -0.1165
 5559TIP3    H238313   4.016   6.135   1.364  0.3203  0.6413  0.6197
 5560TIP3   OH238314   2.625   1.213   0.552 -0.0847  0.3010 -0.3635
 5560TIP3    H138315   2.567   1.228   0.628  0.4022 -0.0980  0.0922
 5560TIP3    H238316   2.675   1.135   0.576  0.0151  0.1281 -1.1399
 5561TIP3   OH238317   4.450   2.764   8.071  0.6253 -0.0952  0.2788
 5561TIP3    H138318   4.425   2.805   8.154 -0.3733  0.2802 -0.1948
 5561TIP3    H238319   4.425   2.829   8.004 -0.6272 -1.2953 -0.4630
 5562TIP3   OH238320   6.441   2.150   0.909  0.4577  0.1555  0.0089
 5562TIP3    H138321   6.418   2.057   0.901 -0.6498  0.4632 -0.5640
 5562TIP3    H238322   6.375   2.187   0.967  0.8097  0.6180  0.1260
 5563TIP3   OH238323   4.075   3.058   7.185 -0.1650 -0.9651 -0.3199
 5563TIP3    H138324   4.054   3.108   7.105  0.3795  1.8400  1.1668
 5563TIP3    H238325   3.998   3.069   7.241  0.9689  0.4919  1.0405
 5564TIP3   OH238326   1.474   3.903   0.695 -0.3178  0.1622 -0.7414
 5564TIP3    H138327   1.555   3.881   0.648  0.5138 -0.1973  0.7738
 5564TIP3    H238328   1.404   3.879   0.635  0.6910 -0.1605 -1.8296
 5565TIP3   OH238329   6.597   3.625   6.410 -0.2742  0.6159  0.0643
 5565TIP3    H138330   6.585   3.572   6.489  0.4098  0.8073  0.3046
 5565TIP3    H238331   6.692   3.639   6.405 -0.4602  1.9828  0.1073
 5566TIP3   OH238332   5.393   6.424   7.726  0.4337  0.0828 -0.5906
 5566TIP3    H138333   5.442   6.504   7.743  0.4302 -0.0214 -0.0604
 5566TIP3    H238334   5.440   6.381   7.655  1.4309 -0.2846  0.2708
 5567TIP3   OH238335   3.922   0.963   0.582  0.4044  0.1159  0.0825
 5567TIP3    H138336   3.854   1.007   0.532 -0.5867  0.4151  1.6246
 5567TIP3    H238337   3.945   0.886   0.529 -1.1015  0.0322 -0.4922
 5568TIP3   OH238338   0.355   4.603   7.019  0.1390  0.1650  0.6493
 5568TIP3    H138339   0.394   4.682   7.056  0.0909 -0.8400  3.0336
 5568TIP3    H238340   0.429   4.544   7.006  0.1395  0.4703 -0.8559
 5569TIP3   OH238341   1.571   4.956   1.387  0.3278 -0.0059  0.1790
 5569TIP3    H138342   1.589   5.012   1.463 -0.5046  0.8150 -0.2041
 5569TIP3    H238343   1.527   4.879   1.423 -0.9344  0.8081  0.4705
 5570TIP3   OH238344   0.503   2.809   2.007 -0.0005 -0.5491  0.1578
 5570TIP3    H138345   0.511   2.903   2.023 -0.7583 -0.3919 -0.3486
 5570TIP3    H238346   0.455   2.777   2.083 -2.2238 -0.0500 -0.9494
 5571TIP3   OH238347   3.079   1.021   8.534 -0.0764  0.1298  0.2340
 5571TIP3    H138348   3.026   1.038   8.612  0.0826 -2.5820  1.0230
 5571TIP3    H238349   3.014   1.004   8.465 -0.2142  0.5107  0.2657
 5572TIP3   OH238350   6.680   0.626   0.285 -0.0998  0.3629 -0.1191
 5572TIP3    H138351   6.592   0.609   0.253 -0.4625  0.3582  0.8593
 5572TIP3    H238352   6.668   0.654   0.376  0.8634  0.8606 -0.1281
 5573TIP3   OH238353   2.724   5.733   1.126 -0.0476 -0.3530 -0.2998
 5573TIP3    H138354   2.638   5.775   1.138  0.6761  1.2527 -0.4515
 5573TIP3    H238355   2.771   5.752   1.207  0.5281 -0.3275 -0.6419
 5574TIP3   OH238356   1.507   1.317   8.035 -0.6611  0.0871  0.5757
 5574TIP3    H138357   1.433   1.373   8.061 -1.3130  0.4977 -1.9028
 5574TIP3    H238358   1.466   1.234   8.010 -0.0244 -0.4236  1.1682
 5575TIP3   OH238359   5.424   3.693   6.486  0.6856 -0.6219  0.2528
 5575TIP3    H138360   5.377   3.762   6.533  1.9293  0.4740 -0.0794
 5575TIP3    H238361   5.501   3.675   6.540  0.2931 -1.8966  0.4241
 5576TIP3   OH238362   0.641   5.499   7.498 -0.3030  0.4158  0.4265
 5576TIP3    H138363   0.719   5.530   7.544  0.2304 -0.8009  0.3781
 5576TIP3    H238364   0.588   5.457   7.566 -0.4958  0.4520  0.2989
 5577TIP3   OH238365   0.351   6.259   7.378 -0.3498  0.4673  0.3926
 5577TIP3    H138366   0.442   6.260   7.348 -0.7449 -0.7745 -0.9578
 5577TIP3    H238367   0.311   6.334   7.336 -0.3958 -0.0844 -0.5665
 5578TIP3   OH238368   1.335   6.441   6.374 -0.3783  0.3692 -0.4844
 5578TIP3    H138369   1.262   6.381   6.387  0.4806 -0.3076  1.6506
 5578TIP3    H238370   1.307   6.523   6.412  0.3832 -0.2563  1.5397
 5579TIP3   OH238371   4.091   5.311   1.983  0.1882 -0.1932  0.5182
 5579TIP3    H138372   4.147   5.383   2.012  2.9210 -1.4759 -1.1667
 5579TIP3    H238373   4.009   5.354   1.955  0.8262  1.9391  1.7184
 5580TIP3   OH238374   2.276   3.760   8.174 -0.2278  0.2549  0.1856
 5580TIP3    H138375   2.219   3.800   8.109 -0.8185  2.2777  1.8193
 5580TIP3    H238376   2.357   3.810   8.169  0.4250 -0.8150 -0.2523
 5581TIP3   OH238377   0.036   1.513   7.795  0.0371  0.2827 -0.2053
 5581TIP3    H138378   0.039   1.418   7.784  1.6091  0.4865 -2.0272
 5581TIP3    H238379  -0.053   1.538   7.769 -0.2435 -0.6348 -0.1382
 5582TIP3   OH238380   5.501   2.450   1.393 -0.1219  0.3934  0.2491
 5582TIP3    H138381   5.515   2.422   1.484  0.0332  0.9655  0.4042
 5582TIP3    H238382   5.411   2.483   1.392  0.2506  1.4454  0.4738
 5583TIP3   OH238383   2.828   5.485   0.072  0.2412  0.8031  0.3635
 5583TIP3    H138384   2.737   5.495   0.042  0.6324  0.3049 -1.0940
 5583TIP3    H238385   2.824   5.413   0.134 -0.1615 -0.2815 -0.8619
 5584TIP3   OH238386   0.421   0.337   2.393 -0.3868  0.4319  0.1393
 5584TIP3    H138387   0.431   0.266   2.329  1.5552  1.1342 -0.4167
 5584TIP3    H238388   0.404   0.415   2.340 -0.7763  0.6838  0.6273
 5585TIP3   OH238389   1.474   1.400   6.152 -0.2224  0.4493  0.5876
 5585TIP3    H138390   1.541   1.352   6.104  0.0559  2.0322 -0.6868
 5585TIP3    H238391   1.507   1.405   6.242  0.3625 -0.5446  0.4399
 5586TIP3   OH238392   2.834   0.032   8.371  0.1322  0.2994 -0.4403
 5586TIP3    H138393   2.912  -0.009   8.334 -0.5758  0.4197 -2.1589
 5586TIP3    H238394   2.775  -0.042   8.390  0.1651  0.2968 -0.3463
 5587TIP3   OH238395   1.705   0.771   7.745 -0.3043 -0.4978 -0.0343
 5587TIP3    H138396   1.724   0.777   7.839  0.4655 -0.7467 -0.1601
 5587TIP3    H238397   1.610   0.762   7.740 -0.2962 -1.2592  0.7738
 5588TIP3   OH238398   4.739   6.252   0.073 -0.1641  0.3666 -0.2314
 5588TIP3    H138399   4.677   6.314   0.113  0.2928  1.7195 -1.5277
 5588TIP3    H238400   4.761   6.292  -0.012  1.4367 -0.7642 -0.3843
 5589TIP3   OH238401   1.262   5.953   1.030  0.1283  0.3919 -0.1128
 5589TIP3    H138402   1.329   5.947   0.962 -0.5456 -1.6491 -0.6796
 5589TIP3    H238403   1.181   5.926   0.986 -0.3728 -0.7330  1.4051
 5590TIP3   OH238404   4.316   3.648   1.513 -0.2249  0.5106  0.5297
 5590TIP3    H138405   4.376   3.686   1.577 -1.4267  1.3244  1.1974
 5590TIP3    H238406   4.240   3.706   1.514 -0.1237  0.7947 -1.9348
 5591TIP3   OH238407   4.503   0.248   2.062 -0.0535  0.4433  0.2641
 5591TIP3    H138408   4.588   0.293   2.065 -0.2819  0.8597  0.4987
 5591TIP3    H238409   4.526   0.155   2.062  0.4357  0.5489 -0.6424
 5592TIP3   OH238410   2.967   1.419   0.146  0.2100  0.0258 -0.6177
 5592TIP3    H138411   2.942   1.509   0.128 -3.4794 -0.7786 -0.3118
 5592TIP3    H238412   3.014   1.390   0.068  0.1911  1.7503 -1.2996
 5593TIP3   OH238413   6.319   6.171   7.767 -0.4694  0.0171  0.9241
 5593TIP3    H138414   6.230   6.163   7.734 -0.6243  0.2315  1.2801
 5593TIP3    H238415   6.373   6.179   7.689 -0.6159 -1.4021  0.6548
 5594TIP3   OH238416   2.994   4.787   7.288  0.4004 -0.3457 -0.1269
 5594TIP3    H138417   2.918   4.740   7.255  0.1236 -0.0074  0.0159
 5594TIP3    H238418   2.998   4.866   7.234 -0.0571  0.2140  0.6229
 5595TIP3   OH238419   6.790   6.325   1.073 -0.4116  0.1325  0.4700
 5595TIP3    H138420   6.814   6.333   1.165  0.5194 -0.3823  0.2889
 5595TIP3    H238421   6.874   6.329   1.026 -0.6141 -1.9265 -0.1970
 5596TIP3   OH238422   5.002   0.531   7.468  0.2166 -0.0205  0.0251
 5596TIP3    H138423   4.961   0.447   7.489 -2.7205  0.9309 -1.2817
 5596TIP3    H238424   5.066   0.545   7.538  0.7578 -3.2464  0.3314
 5597TIP3   OH238425   0.533   4.871   0.875 -0.2702 -0.3751 -0.1377
 5597TIP3    H138426   0.562   4.780   0.870  1.6673  0.1720 -0.0643
 5597TIP3    H238427   0.464   4.879   0.809 -0.7793 -1.9853  0.1698
 5598TIP3   OH238428   6.628   5.849   8.377 -0.0147 -0.3903  0.1790
 5598TIP3    H138429   6.558   5.898   8.333 -1.0481 -2.8111 -1.0726
 5598TIP3    H238430   6.708   5.894   8.350 -0.8538  0.1321 -1.6269
 5599TIP3   OH238431   5.681   1.120   8.460  0.6227 -0.3986 -0.0827
 5599TIP3    H138432   5.753   1.130   8.522  0.9193 -1.3210 -0.2560
 5599TIP3    H238433   5.606   1.096   8.514  0.9887 -1.6638 -0.0953
 5600TIP3   OH238434   6.433   6.112   0.636  0.0657 -0.2695  0.2877
 5600TIP3    H138435   6.443   6.159   0.554 -4.0988  1.2670  0.4654
 5600TIP3    H238436   6.413   6.022   0.611  0.4838 -0.2007 -0.3015
 5601TIP3   OH238437   5.104   1.751   7.369  0.1704 -0.4846 -0.3436
 5601TIP3    H138438   5.082   1.756   7.463  0.6076 -1.0717 -0.2064
 5601TIP3    H238439   5.020   1.757   7.325  0.0380  0.9285  0.0389
 5602TIP3   OH238440   5.876   2.566   7.371  0.5113 -0.2241  0.4647
 5602TIP3    H138441   5.903   2.604   7.287  0.2750  0.4180  0.6725
 5602TIP3    H238442   5.843   2.479   7.349  2.5540 -0.9753  0.1764
 5603TIP3   OH238443   5.731   5.131   1.224  0.4863  0.1195 -0.0704
 5603TIP3    H138444   5.691   5.217   1.214  2.4744  1.0810 -0.2044
 5603TIP3    H238445   5.661   5.075   1.258 -0.6441  1.9564  0.7410
 5604TIP3   OH238446   5.888   1.380   1.894  0.5220  0.7151  0.5371
 5604TIP3    H138447   5.967   1.372   1.947  0.4926  1.1770  0.6608
 5604TIP3    H238448   5.920   1.411   1.809  0.6062 -0.3598  0.1604
 5605TIP3   OH238449   1.503   2.882   8.525  1.2601  0.4557 -0.1357
 5605TIP3    H138450   1.446   2.947   8.566  1.0885 -0.1745  0.6488
 5605TIP3    H238451   1.486   2.891   8.431  0.5397  0.8888  0.0280
 5606TIP3   OH238452   3.625   1.637   7.987  0.3346  0.1092 -0.0956
 5606TIP3    H138453   3.653   1.597   7.905 -0.0318 -2.0220  0.7576
 5606TIP3    H238454   3.692   1.611   8.051  1.9823  3.7717 -0.0907
 5607TIP3   OH238455   2.643   5.257   7.690  0.0212 -0.1719  0.1394
 5607TIP3    H138456   2.619   5.246   7.782 -1.3537  1.3901  0.0158
 5607TIP3    H238457   2.562   5.241   7.642  0.6591 -0.6690 -0.7907
 5608TIP3   OH238458   1.053   3.540   6.808  0.4149 -0.6775 -0.0071
 5608TIP3    H138459   0.983   3.497   6.759 -0.9811  2.3318 -0.9048
 5608TIP3    H238460   1.115   3.571   6.742 -0.2785  1.3718  0.2129
 5609TIP3   OH238461   3.608   5.416   2.019  0.8382 -0.2161  0.3665
 5609TIP3    H138462   3.622   5.364   2.098  1.1597 -1.9393 -0.7848
 5609TIP3    H238463   3.525   5.384   1.984 -0.0671  1.5649  0.7265
 5610TIP3   OH238464   5.107   0.204   0.324  0.0267  0.1431  0.1934
 5610TIP3    H138465   5.075   0.143   0.390 -1.6271 -0.1706 -0.8293
 5610TIP3    H238466   5.062   0.178   0.243  1.7405  0.7018 -1.0126
 5611TIP3   OH238467   2.364   6.217   0.601 -0.0061  0.0485 -0.5275
 5611TIP3    H138468   2.335   6.126   0.605  0.9735 -0.2661 -0.2260
 5611TIP3    H238469   2.347   6.244   0.511  0.7546 -0.8188 -0.9563
 5612TIP3   OH238470   6.156   1.335   6.095 -0.3107 -0.1592 -0.1975
 5612TIP3    H138471   6.163   1.412   6.151  0.1478 -0.9687  0.9109
 5612TIP3    H238472   6.067   1.304   6.108 -0.0116 -0.7189  0.6336
 5613TIP3   OH238473   4.150   2.376   7.068  0.0468  0.0941 -0.3693
 5613TIP3    H138474   4.070   2.323   7.070  0.1191 -0.0218  1.3024
 5613TIP3    H238475   4.150   2.416   6.982 -1.4129 -0.5304 -0.6939
 5614TIP3   OH238476   5.792   6.921   0.791  0.0614 -0.1400  0.1793
 5614TIP3    H138477   5.882   6.887   0.789  0.6738  1.2820  1.3762
 5614TIP3    H238478   5.758   6.903   0.704  2.3375  1.3540 -1.1365
 5615TIP3   OH238479   5.690   2.433   8.070 -0.6967 -0.4123  0.1134
 5615TIP3    H138480   5.734   2.423   7.985 -1.4350  1.2062 -0.5198
 5615TIP3    H238481   5.708   2.352   8.117  1.2343 -0.6267 -0.8997
 5616TIP3   OH238482   3.744   6.718   8.466 -0.9519 -0.4860  1.0909
 5616TIP3    H138483   3.797   6.661   8.521 -1.3968 -1.4840  0.5090
 5616TIP3    H238484   3.664   6.668   8.449 -0.3302 -0.7584 -1.4589
 5617TIP3   OH238485   0.917   6.874   0.100  0.6360  0.9556 -0.0724
 5617TIP3    H138486   0.862   6.833   0.034 -1.5262  0.6682  1.7829
 5617TIP3    H238487   0.862   6.942   0.139  1.9762  1.4032  1.1335
 5618TIP3   OH238488   5.464   2.043   7.932 -0.2431  0.1303 -0.4414
 5618TIP3    H138489   5.369   2.048   7.927 -0.5041 -1.7274  1.4620
 5618TIP3    H238490   5.485   2.055   8.024  1.4255  0.9503 -0.8848
 5619TIP3   OH238491   1.962   2.395   1.490  0.6164  0.2113 -0.5418
 5619TIP3    H138492   1.962   2.311   1.443 -0.4788 -0.2981  0.3137
 5619TIP3    H238493   1.944   2.461   1.423 -0.6021 -0.4654 -0.9075
 5620TIP3   OH238494   3.951   3.572   0.609  0.8193  0.1511  0.9529
 5620TIP3    H138495   3.962   3.578   0.704  0.9439 -0.2605  0.9671
 5620TIP3    H238496   4.025   3.620   0.574 -0.0705  1.6532  1.0611
 5621TIP3   OH238497   0.896   0.522   0.516 -0.0366 -0.0914  0.0286
 5621TIP3    H138498   0.924   0.433   0.538  0.1726 -0.5688 -1.9618
 5621TIP3    H238499   0.908   0.528   0.421 -1.5326  1.5387 -0.1104
 5622TIP3   OH238500   6.065   6.822   0.725 -0.7201  0.0688 -0.2142
 5622TIP3    H138501   6.141   6.874   0.701 -0.8296 -0.5352 -1.9896
 5622TIP3    H238502   6.101   6.743   0.765 -0.3767 -0.4350 -1.4911
 5623TIP3   OH238503   0.244   4.451   0.486 -0.1796 -0.2565  0.6159
 5623TIP3    H138504   0.164   4.399   0.479 -0.4005  0.2455 -1.2577
 5623TIP3    H238505   0.288   4.437   0.402 -0.1842  2.4318  0.0905
 5624TIP3   OH238506   6.621   6.858   7.163  0.2348  0.3751 -0.0393
 5624TIP3    H138507   6.623   6.817   7.077  0.5092 -0.4323  0.3338
 5624TIP3    H238508   6.695   6.919   7.163  2.1233 -1.7755  0.6137
 5625TIP3   OH238509   3.467   6.202   2.487 -0.1090  0.3010  0.0097
 5625TIP3    H138510   3.424   6.251   2.558  1.7090  0.4115  1.0857
 5625TIP3    H238511   3.505   6.270   2.432 -0.7516  0.1851 -0.5850
 5626TIP3   OH238512   2.797   2.750   0.383  0.0375  0.0462  0.5179
 5626TIP3    H138513   2.760   2.691   0.316  1.4368 -1.5133  1.0453
 5626TIP3    H238514   2.723   2.803   0.412 -0.8388 -0.0148 -1.4567
 5627TIP3   OH238515   6.349   5.962   1.891 -0.0571  0.0539 -0.8074
 5627TIP3    H138516   6.274   5.994   1.941  0.0478  0.5335 -0.9530
 5627TIP3    H238517   6.424   6.012   1.925  0.2142 -0.4855 -0.5993
 5628TIP3   OH238518   3.258   5.614   1.823 -0.6970  0.3728  0.3352
 5628TIP3    H138519   3.306   5.605   1.905  1.2311 -0.4785 -0.8100
 5628TIP3    H238520   3.166   5.607   1.847 -0.1412 -0.6629  2.3143
 5629TIP3   OH238521   2.666   6.847   2.100 -0.0365 -0.2152 -0.5672
 5629TIP3    H138522   2.757   6.830   2.125 -0.3489  1.1490  1.9374
 5629TIP3    H238523   2.663   6.941   2.083 -1.2958  0.1428  1.3117
 5630TIP3   OH238524   0.890   4.600   0.633  0.3777 -0.4906  0.8293
 5630TIP3    H138525   0.864   4.519   0.676 -0.2378 -0.0559  1.3172
 5630TIP3    H238526   0.810   4.654   0.635  0.7916  0.1395  0.5730
 5631TIP3   OH238527   6.417   6.134   7.274 -0.3131  0.1722  0.6333
 5631TIP3    H138528   6.323   6.135   7.293 -0.0818  0.5193  1.8803
 5631TIP3    H238529   6.427   6.070   7.204 -1.6910  1.3615 -0.7286
 5632TIP3   OH238530   4.636   5.417   7.203 -0.3283 -0.4507 -0.1491
 5632TIP3    H138531   4.595   5.430   7.118  0.0508 -1.8582 -0.5767
 5632TIP3    H238532   4.717   5.467   7.198 -1.4433  1.5019  0.3280
 5633TIP3   OH238533   2.798   1.043   0.368  0.1055  0.4377  0.0971
 5633TIP3    H138534   2.829   0.953   0.363 -1.4413 -0.1743  1.1203
 5633TIP3    H238535   2.825   1.073   0.455  0.5287  0.9560 -0.2021
 5634TIP3   OH238536   2.956   4.182   8.176  0.0295 -0.2237 -0.4224
 5634TIP3    H138537   3.033   4.128   8.193  1.1240  1.6422  0.9391
 5634TIP3    H238538   2.983   4.270   8.201 -2.8604  0.3476  1.0532
 5635TIP3   OH238539   3.829   0.074   7.805 -0.2245  0.3425  0.1572
 5635TIP3    H138540   3.849  -0.019   7.793  0.2168  0.4705 -0.1125
 5635TIP3    H238541   3.734   0.076   7.818 -0.1147 -0.2400  1.1679
 5636TIP3   OH238542   0.686   1.338   7.707  0.0142 -0.4497  0.6520
 5636TIP3    H138543   0.614   1.401   7.703  0.3244 -0.1373 -0.8359
 5636TIP3    H238544   0.683   1.293   7.623  0.3201 -1.8615  1.3739
 5637TIP3   OH238545   2.143   5.374   7.741 -0.1782  0.0778 -0.6050
 5637TIP3    H138546   2.135   5.300   7.802  2.7570 -1.2457 -1.6513
 5637TIP3    H238547   2.213   5.428   7.778 -1.3965  1.6922 -0.5505
 5638TIP3   OH238548   3.883   1.253   1.180  0.4477 -0.2293  0.1151
 5638TIP3    H138549   3.886   1.283   1.271  0.1577  1.3190 -0.3631
 5638TIP3    H238550   3.970   1.214   1.165  0.4583 -0.6113  1.0723
 5639TIP3   OH238551   2.675   2.745   1.178 -0.0463  0.2046 -0.4594
 5639TIP3    H138552   2.712   2.820   1.226 -0.2118  0.1078 -0.1786
 5639TIP3    H238553   2.589   2.732   1.216 -0.6237  0.8015 -1.5253
 5640TIP3   OH238554   1.239   2.482   0.474  0.4992 -0.2820 -0.1246
 5640TIP3    H138555   1.266   2.539   0.545  1.1634 -0.0917 -0.5195
 5640TIP3    H238556   1.321   2.456   0.432  0.0451  1.4411 -2.2460
 5641TIP3   OH238557   4.424   0.139   7.451  0.2355 -1.0479 -0.2333
 5641TIP3    H138558   4.474   0.166   7.373  1.2745 -2.6663 -0.1805
 5641TIP3    H238559   4.491   0.127   7.519 -0.3983 -1.7256  0.2875
 5642TIP3   OH238560   6.292   0.889   6.975  0.5041 -0.0683  0.6531
 5642TIP3    H138561   6.361   0.824   6.978 -0.8880 -1.6836 -0.4653
 5642TIP3    H238562   6.288   0.916   6.884 -0.7743 -0.5288  0.5546
 5643TIP3   OH238563   5.594   5.382   2.727 -1.1772 -0.1293 -0.2256
 5643TIP3    H138564   5.624   5.471   2.712 -0.2583 -0.6082 -1.4156
 5643TIP3    H238565   5.518   5.372   2.669  0.4452 -0.9753 -2.3233
 5644TIP3   OH238566   3.949   6.483   7.140  0.0437  0.3463  0.2682
 5644TIP3    H138567   3.868   6.498   7.092 -0.1087  1.2669  0.7763
 5644TIP3    H238568   3.927   6.415   7.204 -0.0281 -0.1577 -0.2834
 5645TIP3   OH238569   2.662   4.298   1.207  0.0512  0.2259  0.6775
 5645TIP3    H138570   2.610   4.378   1.215  1.0265  1.3399 -2.7298
 5645TIP3    H238571   2.751   4.324   1.231  0.3642  0.1819 -0.4007
 5646TIP3   OH238572   3.693   3.861   1.759 -0.2492  0.1164  0.5732
 5646TIP3    H138573   3.727   3.863   1.848 -1.0530 -2.8209  1.0544
 5646TIP3    H238574   3.621   3.923   1.760 -0.7016 -0.3751  2.2181
 5647TIP3   OH238575   4.182   0.633   1.337 -0.1315  0.0199 -0.0456
 5647TIP3    H138576   4.100   0.650   1.291 -0.4352  0.6373  0.6985
 5647TIP3    H238577   4.206   0.544   1.311 -0.6563  0.0924 -0.8272
 5648TIP3   OH238578   1.010   2.835   1.219 -0.2555  0.1407  0.5421
 5648TIP3    H138579   1.062   2.865   1.144  0.2199 -0.4746  0.6232
 5648TIP3    H238580   0.920   2.858   1.196  0.0149  1.0296  0.3096
 5649TIP3   OH238581   0.401   6.575   0.397  0.5536  0.2825  0.3508
 5649TIP3    H138582   0.382   6.667   0.377  0.5643  0.0737 -0.6722
 5649TIP3    H238583   0.346   6.556   0.473 -2.6269  0.0455 -1.7879
 5650TIP3   OH238584   5.708   4.765   1.867  0.7306  0.0310  0.0980
 5650TIP3    H138585   5.728   4.681   1.909 -0.3637 -0.2880  0.0268
 5650TIP3    H238586   5.623   4.790   1.902  0.8724  0.9286 -0.1733
 5651TIP3   OH238587   6.401   4.437   7.428 -0.3512  0.3160 -0.3334
 5651TIP3    H138588   6.359   4.492   7.495 -0.0276  0.5021 -0.2828
 5651TIP3    H238589   6.372   4.348   7.448 -1.1442  0.4960 -0.6083
 5652TIP3   OH238590   1.080   4.430   1.593 -0.5701  0.3745 -0.9440
 5652TIP3    H138591   1.095   4.336   1.599 -3.7133 -0.2273 -0.6220
 5652TIP3    H238592   1.081   4.460   1.683 -2.7248 -0.0401 -0.7208
 5653TIP3   OH238593   1.794   0.645   6.608  0.3047 -0.2257  0.2855
 5653TIP3    H138594   1.733   0.718   6.617 -0.3646 -0.7173 -0.1191
 5653TIP3    H238595   1.745   0.579   6.558  2.2762  0.6577 -3.1595
 5654TIP3   OH238596   5.373   5.886   1.301  1.0116  0.2729  0.0730
 5654TIP3    H138597   5.335   5.811   1.347  2.1054 -1.0341 -1.0879
 5654TIP3    H238598   5.383   5.952   1.369  0.3453 -0.7465  1.2099
 5655TIP3   OH238599   3.614   1.085   1.854 -0.3000 -0.1187  0.0624
 5655TIP3    H138600   3.554   1.148   1.895  0.3975 -0.1654  1.2067
 5655TIP3    H238601   3.611   1.008   1.911  0.0216 -0.5431 -0.4786
 5656TIP3   OH238602   6.421   2.004   2.479 -0.2825 -0.5825 -0.7547
 5656TIP3    H138603   6.329   1.986   2.461 -0.8234  0.3652  0.7988
 5656TIP3    H238604   6.430   2.099   2.469  0.7981 -0.7804 -1.9113
 5657TIP3   OH238605   5.295   2.677   0.508  0.7057 -0.6393 -0.1736
 5657TIP3    H138606   5.255   2.760   0.483  0.5290 -0.4139  0.8157
 5657TIP3    H238607   5.255   2.613   0.449 -1.2310 -0.4297  0.8152
 5658TIP3   OH238608   2.554   3.308   2.424 -0.0479 -0.5576 -0.2066
 5658TIP3    H138609   2.606   3.236   2.389  1.6263  0.1550  0.6984
 5658TIP3    H238610   2.537   3.284   2.515  0.5144  0.1776  0.0980
 5659TIP3   OH238611   5.951   0.726   6.484  0.4387  0.0140 -0.2096
 5659TIP3    H138612   5.888   0.656   6.468  0.9470 -0.1042 -1.9185
 5659TIP3    H238613   5.898   0.801   6.510 -0.2996 -0.4160 -0.4578
 5660TIP3   OH238614   0.800   2.014   1.221 -0.7939 -0.3436 -0.2252
 5660TIP3    H138615   0.818   1.998   1.128 -1.9392 -1.9437 -0.2214
 5660TIP3    H238616   0.750   2.095   1.222  0.3850  0.4176 -0.8561
 5661TIP3   OH238617   0.064   6.287   0.917 -0.2054  0.5785  0.0756
 5661TIP3    H138618   0.104   6.295   0.830  2.7779  0.8118  1.3667
 5661TIP3    H238619   0.054   6.193   0.930 -0.7129  0.5419 -0.5106
 5662TIP3   OH238620   3.922   0.292   1.333 -0.8387 -0.0383 -0.4307
 5662TIP3    H138621   3.887   0.280   1.245 -0.6540  1.8615 -0.8027
 5662TIP3    H238622   3.930   0.386   1.343  3.1522 -0.2772  0.0669
 5663TIP3   OH238623   1.863   0.410   7.344 -0.0948  0.2450  0.1282
 5663TIP3    H138624   1.942   0.431   7.394  0.0996  0.1005 -0.1165
 5663TIP3    H238625   1.888   0.336   7.289 -0.1594  0.7217 -0.5525
 5664TIP3   OH238626   3.243   4.089   1.139  0.0613 -0.1344 -0.1204
 5664TIP3    H138627   3.312   4.069   1.203  0.6016  0.4843 -0.4980
 5664TIP3    H238628   3.175   4.132   1.190 -0.3244 -1.2689  0.3654
 5665TIP3   OH238629   2.853   5.079   8.604 -0.2735  0.2292  0.2603
 5665TIP3    H138630   2.871   5.041   8.690  0.4352  1.0989  0.5036
 5665TIP3    H238631   2.849   5.004   8.545  0.9308 -0.2542  0.7629
 5666TIP3   OH238632   1.528   1.315   1.417 -0.5411 -0.9380 -0.2999
 5666TIP3    H138633   1.597   1.281   1.360  0.9158 -0.3803  1.0465
 5666TIP3    H238634   1.462   1.246   1.419 -0.3987 -1.1914 -2.2049
 5667TIP3   OH238635   3.551   2.351   0.764  0.0708  0.1066 -0.3200
 5667TIP3    H138636   3.533   2.434   0.719 -1.3906  0.5761  1.0231
 5667TIP3    H238637   3.468   2.304   0.762 -0.3867  0.5597  2.5996
 5668TIP3   OH238638   5.259   3.034   1.973  0.0132 -0.1124 -0.2869
 5668TIP3    H138639   5.324   3.101   1.948  1.0961 -0.4376  1.4824
 5668TIP3    H238640   5.212   3.072   2.047 -0.1460 -0.8431 -0.0025
 5669TIP3   OH238641   4.018   1.957   1.104 -0.1295 -0.0596  0.2376
 5669TIP3    H138642   4.072   1.997   1.036 -0.4737 -0.7669 -0.4643
 5669TIP3    H238643   3.928   1.978   1.079 -0.2166  0.7430  1.1650
 5670TIP3   OH238644   0.250   3.746   7.116 -0.4583 -0.0043  0.1425
 5670TIP3    H138645   0.292   3.729   7.031  1.5688  0.8799  0.8908
 5670TIP3    H238646   0.319   3.788   7.168 -2.8670  3.4978  0.8332
 5671TIP3   OH238647   5.932   1.769   7.655 -0.1122  0.2582 -0.1425
 5671TIP3    H138648   6.026   1.774   7.637  0.3183 -0.1853  1.7864
 5671TIP3    H238649   5.891   1.783   7.569  1.7302 -1.9870 -1.5249
 5672TIP3   OH238650   1.849   3.996   2.272 -0.1499 -0.2319  0.2956
 5672TIP3    H138651   1.763   3.978   2.309  0.0268 -0.1732  0.7378
 5672TIP3    H238652   1.841   4.083   2.234 -0.0631  0.0916  1.0119
 5673TIP3   OH238653   6.183   3.832   1.515  0.5665 -0.3064 -0.4643
 5673TIP3    H138654   6.209   3.758   1.460  0.4930  0.3734 -1.4316
 5673TIP3    H238655   6.092   3.813   1.539  0.4265 -0.3484 -1.0189
 5674TIP3   OH238656   3.389   4.456   1.475  0.1424  0.4509 -0.1372
 5674TIP3    H138657   3.463   4.487   1.526  0.4650  0.1205 -0.3962
 5674TIP3    H238658   3.410   4.365   1.455  0.2885  0.7203 -1.3161
 5675TIP3   OH238659   2.175   4.032   6.894 -0.2789  0.0161 -0.2294
 5675TIP3    H138660   2.183   3.967   6.964 -0.0310  0.3588  0.0726
 5675TIP3    H238661   2.264   4.068   6.885 -0.5937  0.9659  0.2626
 5676TIP3   OH238662   5.207   5.137   1.857  0.5970  0.5706 -0.5834
 5676TIP3    H138663   5.180   5.045   1.855 -1.4516  1.1283 -2.3051
 5676TIP3    H238664   5.218   5.156   1.950  0.0278 -1.1333 -0.1127
 5677TIP3   OH238665   2.982   0.561   7.704  0.4359 -0.4048  0.0781
 5677TIP3    H138666   3.075   0.544   7.687  0.3573 -0.2495 -0.5397
 5677TIP3    H238667   2.970   0.542   7.797  0.8852 -1.3381 -0.0476
 5678TIP3   OH238668   5.025   2.134   0.983  0.3757 -0.1022 -0.0468
 5678TIP3    H138669   4.937   2.157   0.953  0.7734  0.4496 -0.8248
 5678TIP3    H238670   5.060   2.077   0.914  0.3297 -0.9966  0.6557
 5679TIP3   OH238671   0.288   6.375   8.326  0.5852  0.5997 -0.0682
 5679TIP3    H138672   0.236   6.301   8.296 -0.0287  1.1234 -0.3022
 5679TIP3    H238673   0.272   6.380   8.420  1.4370 -0.1921  0.1346
 5680TIP3   OH238674   5.428   2.801   7.593  0.7383 -0.2136 -0.0726
 5680TIP3    H138675   5.470   2.715   7.598  1.6757  0.2058 -0.3860
 5680TIP3    H238676   5.412   2.814   7.499 -2.4275 -1.4200  0.1953
 5681TIP3   OH238677   2.629   5.747   6.560 -0.5311 -0.0997  0.3816
 5681TIP3    H138678   2.626   5.840   6.538  0.4846 -0.1390 -0.0071
 5681TIP3    H238679   2.544   5.713   6.532  0.0647  0.1915 -2.0456
 5682TIP3   OH238680   2.456   5.407   1.582  0.1873 -0.1991 -0.4648
 5682TIP3    H138681   2.373   5.447   1.609 -0.6058 -1.3827 -1.0512
 5682TIP3    H238682   2.430   5.329   1.534  1.6513 -0.3915 -0.9918
 5683TIP3   OH238683   5.545   1.317   6.658  0.4187  0.6427 -0.4051
 5683TIP3    H138684   5.555   1.407   6.688  0.4978  0.3627  0.4105
 5683TIP3    H238685   5.453   1.311   6.632  0.3007  0.8231 -0.0310
 5684TIP3   OH238686   4.185   2.543   8.134 -0.0398 -0.0629 -0.1426
 5684TIP3    H138687   4.186   2.638   8.146 -1.0890 -0.1824  1.0877
 5684TIP3    H238688   4.094   2.518   8.147  0.0957 -1.1844 -1.1384
 5685TIP3   OH238689   5.894   1.110   7.693  0.2715 -0.2462 -0.7959
 5685TIP3    H138690   5.886   1.131   7.786  4.9202  1.4885 -0.5112
 5685TIP3    H238691   5.875   1.192   7.648  1.5469 -0.0538 -1.0268
 5686TIP3   OH238692   4.968   4.373   0.318 -0.0076  0.0904 -0.5045
 5686TIP3    H138693   4.927   4.430   0.383 -1.6174  0.0295 -1.4045
 5686TIP3    H238694   4.939   4.409   0.234  1.9037  0.0931 -1.2289
 5687TIP3   OH238695   1.286   0.710   0.159  0.1881 -0.1740 -1.1592
 5687TIP3    H138696   1.299   0.800   0.127 -0.3655  0.0319 -0.8305
 5687TIP3    H238697   1.364   0.663   0.130  0.9878  0.6634 -0.4611
 5688TIP3   OH238698   1.036   0.556   7.140  0.3731 -0.0603 -0.7021
 5688TIP3    H138699   0.963   0.586   7.193 -0.1906 -2.3534 -0.0778
 5688TIP3    H238700   1.061   0.632   7.088 -1.8802  1.0266 -0.3060
 5689TIP3   OH238701   1.661   1.769   6.734 -0.6367 -0.4772 -0.2495
 5689TIP3    H138702   1.707   1.851   6.714 -1.9664  0.3830  0.0672
 5689TIP3    H238703   1.690   1.708   6.666 -0.1493  0.4564 -0.9027
 5690TIP3   OH238704   6.908   5.890   0.750 -0.2973  0.4779 -0.0781
 5690TIP3    H138705   6.850   5.957   0.713  0.4063  1.7865  1.0900
 5690TIP3    H238706   6.858   5.809   0.743 -0.8517  0.9277 -2.3106
 5691TIP3   OH238707   2.189   6.251   7.393 -0.6351 -0.7568 -0.5284
 5691TIP3    H138708   2.243   6.280   7.319 -1.2974 -2.7883 -1.9024
 5691TIP3    H238709   2.190   6.325   7.454  0.6397  0.6694 -2.1707
 5692TIP3   OH238710   1.273   3.396   6.633 -0.3549 -0.0754  0.2945
 5692TIP3    H138711   1.307   3.469   6.685  0.5903  0.3565 -0.8849
 5692TIP3    H238712   1.303   3.318   6.680  0.0155  0.3013  0.7038
 5693TIP3   OH238713   2.885   5.791   0.658  0.0334  0.6866  0.4538
 5693TIP3    H138714   2.900   5.847   0.582 -0.7421  0.5050  0.1605
 5693TIP3    H238715   2.794   5.808   0.683 -0.3752 -0.7990  0.0659
 5694TIP3   OH238716   5.074   2.990   1.391 -0.2233  0.1059  0.1621
 5694TIP3    H138717   5.011   2.922   1.370 -1.0033  1.0752 -0.7663
 5694TIP3    H238718   5.047   3.023   1.477 -0.1650 -0.3793  0.3677
 5695TIP3   OH238719   2.611   2.471   6.833 -0.3521 -0.3968 -0.2025
 5695TIP3    H138720   2.642   2.401   6.776 -2.1344 -0.3589 -1.3220
 5695TIP3    H238721   2.538   2.432   6.881 -0.5923  0.3453  0.0474
 5696TIP3   OH238722   4.859   6.881   1.561  0.0076  0.0019 -0.0106
 5696TIP3    H138723   4.789   6.839   1.512 -1.1657  2.9975 -1.1902
 5696TIP3    H238724   4.939   6.857   1.514 -0.5790 -1.0114 -0.5076
 5697TIP3   OH238725   0.960   6.838   0.815  0.3977  0.6364  0.0487
 5697TIP3    H138726   0.939   6.838   0.908 -2.5792 -0.8219 -0.5116
 5697TIP3    H238727   1.054   6.819   0.812  0.4058 -0.1705  2.7195
 5698TIP3   OH238728   3.290   5.980   6.607 -0.1741  0.6352 -0.0607
 5698TIP3    H138729   3.229   6.017   6.544 -1.4455 -2.4765 -0.8742
 5698TIP3    H238730   3.325   5.902   6.563  0.0567 -0.8273  2.4885
 5699TIP3   OH238731   2.153   5.145   0.088  0.2484  0.0679 -0.1603
 5699TIP3    H138732   2.169   5.088   0.164 -0.1130 -0.6467 -0.6098
 5699TIP3    H238733   2.068   5.185   0.105 -0.2908 -0.8456 -0.6325
 5700TIP3   OH238734   6.937   2.904   0.661  0.1379 -0.0812  0.0800
 5700TIP3    H138735   6.946   2.952   0.743 -2.4395  1.1684 -0.2868
 5700TIP3    H238736   6.979   2.819   0.678  0.2932  0.4080  2.4339
 5701TIP3   OH238737   4.913   0.706   0.310  0.3670  0.6311 -0.4850
 5701TIP3    H138738   4.958   0.750   0.239 -0.5055  0.5354 -1.1181
 5701TIP3    H238739   4.967   0.722   0.387  1.8557 -0.1007 -1.3458
 5702TIP3   OH238740   3.289   1.792   8.326 -0.6059  0.1888 -0.7870
 5702TIP3    H138741   3.360   1.787   8.262  0.2942  0.2698  0.1761
 5702TIP3    H238742   3.326   1.754   8.406 -1.9069 -0.4882 -0.4667
 5703TIP3   OH238743   6.143   5.023   0.123  0.2071  0.4296 -0.6488
 5703TIP3    H138744   6.182   5.097   0.170 -1.5401  0.2736  1.1671
 5703TIP3    H238745   6.124   5.057   0.036  0.0553  1.9243 -0.0516
 5704TIP3   OH238746   1.863   6.788   0.969 -0.1025  0.2765 -0.6800
 5704TIP3    H138747   1.876   6.868   1.020 -0.6658  0.4815 -0.8400
 5704TIP3    H238748   1.768   6.773   0.973  0.0312 -0.5348 -0.4268
 5705TIP3   OH238749   3.259   0.109   1.483  0.4409  1.1968 -0.0066
 5705TIP3    H138750   3.296   0.187   1.440  0.5930 -0.1647 -2.5840
 5705TIP3    H238751   3.314   0.037   1.452 -1.0724 -0.2227  0.4730
 5706TIP3   OH238752   0.186   5.267   1.212 -0.3200 -0.0244 -0.7017
 5706TIP3    H138753   0.279   5.271   1.188 -0.4056 -0.4336 -1.0980
 5706TIP3    H238754   0.152   5.353   1.188  0.0863  0.3458  0.0007
 5707TIP3   OH238755   2.464   2.523   0.052  0.2397 -0.3043  0.3836
 5707TIP3    H138756   2.441   2.431   0.038 -0.0086 -0.9636  4.0189
 5707TIP3    H238757   2.397   2.572   0.006 -0.1126 -1.9154 -0.9413
 5708TIP3   OH238758   0.289   4.232   1.440  0.0200  0.6597  0.1533
 5708TIP3    H138759   0.351   4.161   1.424  0.4392  1.5172 -2.4510
 5708TIP3    H238760   0.330   4.287   1.506 -0.3582 -1.4946  2.3092
 5709TIP3   OH238761   3.944   3.516   6.431  0.6593 -0.6226  0.6515
 5709TIP3    H138762   4.012   3.522   6.364  0.3697 -3.1626  0.0091
 5709TIP3    H238763   3.866   3.489   6.383 -0.9699  2.4078  1.3345
 5710TIP3   OH238764   2.773   3.249   2.036  0.1433  0.0502  0.0321
 5710TIP3    H138765   2.853   3.289   2.005 -0.1051 -0.5510 -1.4524
 5710TIP3    H238766   2.758   3.176   1.976  0.0869 -1.7049  2.0639
 5711TIP3   OH238767   5.571   3.403   1.108  0.2894  0.0573 -0.4596
 5711TIP3    H138768   5.620   3.323   1.091  1.4581  0.9579 -1.5039
 5711TIP3    H238769   5.480   3.375   1.112  0.7745 -1.5296  0.6211
 5712TIP3   OH238770   3.017   6.891   1.534  0.2134  0.5401  0.0823
 5712TIP3    H138771   3.012   6.910   1.628  1.3855  2.0925 -0.1229
 5712TIP3    H238772   3.100   6.931   1.506  1.8353 -3.1194 -0.9274
 5713TIP3   OH238773   1.642   3.553   1.724 -0.1993 -0.4423  0.2693
 5713TIP3    H138774   1.565   3.609   1.737 -0.1629 -0.6600  1.5891
 5713TIP3    H238775   1.627   3.510   1.640 -1.0059  0.3169  0.0105
 5714TIP3   OH238776   1.597   6.298   1.722 -0.0603 -0.2386  0.1479
 5714TIP3    H138777   1.677   6.348   1.739  0.2763 -1.2184  1.6385
 5714TIP3    H238778   1.544   6.355   1.666  0.6422  1.4564  1.1442
 5715TIP3   OH238779   3.646   0.468   0.931  0.0902  0.2304 -0.3130
 5715TIP3    H138780   3.621   0.425   0.850 -2.0306 -0.6513  0.7465
 5715TIP3    H238781   3.719   0.415   0.964 -0.7952 -1.0463 -0.3274
 5716TIP3   OH238782   4.808   3.557   1.456 -0.4512  0.3030  0.7200
 5716TIP3    H138783   4.831   3.546   1.363  1.3652  2.9139  0.7466
 5716TIP3    H238784   4.716   3.582   1.454 -0.1744  1.4139 -0.5491
 5717TIP3   OH238785   2.920   4.881   1.749 -0.6810  0.1215 -0.1029
 5717TIP3    H138786   2.938   4.851   1.660 -1.3795  0.9650 -0.5466
 5717TIP3    H238787   2.850   4.824   1.781  0.7634 -1.3302  0.5814
 5718TIP3   OH238788   5.534   6.659   8.434 -0.0438 -0.2329  0.4083
 5718TIP3    H138789   5.537   6.672   8.339 -1.5140 -0.9639  0.2291
 5718TIP3    H238790   5.483   6.733   8.466 -2.5919 -1.7740  0.1698
 5719TIP3   OH238791   2.492   4.067   1.212  0.0007  0.2174 -0.0336
 5719TIP3    H138792   2.554   4.136   1.237  0.9086 -0.1226 -1.2326
 5719TIP3    H238793   2.446   4.103   1.136  0.0130 -0.2324 -0.2551
 5720TIP3   OH238794   6.554   3.174   7.315 -0.0517  0.5572 -0.2958
 5720TIP3    H138795   6.595   3.228   7.383  2.0658 -1.1279 -0.1571
 5720TIP3    H238796   6.569   3.222   7.234  0.6432  0.8194 -0.0161
 5721TIP3   OH238797   4.982   1.667   0.955 -0.0499 -0.4383  0.2070
 5721TIP3    H138798   5.023   1.730   1.014  0.9734  0.0860 -1.0242
 5721TIP3    H238799   5.039   1.665   0.878  0.1460 -3.1144  0.3128
 5722TIP3   OH238800   0.863   6.232   7.436  0.0942 -0.0166  0.0967
 5722TIP3    H138801   0.875   6.144   7.471 -0.3808  0.2913  1.0417
 5722TIP3    H238802   0.937   6.281   7.471 -0.1596  0.1909  0.3443
 5723TIP3   OH238803   3.271   3.505   7.526 -0.2588  0.4068 -0.0516
 5723TIP3    H138804   3.265   3.590   7.482 -1.4893  0.5089  0.2709
 5723TIP3    H238805   3.189   3.498   7.575 -0.0904 -0.8947  0.0699
 5724TIP3   OH238806   1.974   5.749   1.008  0.6968 -0.1787  0.1436
 5724TIP3    H138807   1.929   5.693   0.945  0.3827  0.0068  0.1996
 5724TIP3    H238808   1.995   5.828   0.959 -2.0977  1.2003  0.9488
 5725TIP3   OH238809   4.540   6.074   0.008  0.0289  0.3638 -0.2648
 5725TIP3    H138810   4.557   6.082  -0.086 -0.2738 -1.4702 -0.5136
 5725TIP3    H238811   4.615   6.118   0.049  1.3293 -0.7144 -1.3761
 5726TIP3   OH238812   2.340   0.839   2.562 -0.0411  0.2579 -0.3273
 5726TIP3    H138813   2.380   0.887   2.634  1.4219 -0.6757 -0.4639
 5726TIP3    H238814   2.353   0.895   2.485 -0.4894  0.7033 -0.0792
 5727TIP3   OH238815   6.461   6.871   2.427 -0.0443 -0.5733  0.4172
 5727TIP3    H138816   6.449   6.778   2.445 -1.7665 -0.8789 -1.7985
 5727TIP3    H238817   6.383   6.913   2.464  0.8010  0.0786  1.5573
 5728TIP3   OH238818   4.183   1.037   2.246 -0.1258 -0.7195 -0.1359
 5728TIP3    H138819   4.233   1.077   2.176 -0.9849 -0.1035 -0.4174
 5728TIP3    H238820   4.224   0.951   2.259  0.7146 -0.4052 -0.6407
 5729TIP3   OH238821   3.510   5.608   8.600  0.1291 -0.0205  0.3401
 5729TIP3    H138822   3.470   5.677   8.547 -1.0684  1.2276  2.6966
 5729TIP3    H238823   3.462   5.529   8.577 -1.1600  0.7260  0.4176
 5730TIP3   OH238824   4.991   2.358   8.250  0.1462 -0.4634 -0.2181
 5730TIP3    H138825   5.046   2.416   8.302 -2.1869  0.9464  0.8596
 5730TIP3    H238826   4.997   2.392   8.161 -1.0305  1.4067  0.3625
 5731TIP3   OH238827   3.652   3.392   1.064 -0.0808 -0.0287  1.1059
 5731TIP3    H138828   3.748   3.398   1.061 -0.1859  1.8293 -0.1497
 5731TIP3    H238829   3.624   3.474   1.103 -1.1940  0.0827  0.1360
 5732TIP3   OH238830   4.024   3.154   0.874  0.0107  0.3716  0.5248
 5732TIP3    H138831   3.956   3.220   0.857  1.7509  1.8452 -1.1803
 5732TIP3    H238832   4.040   3.114   0.788  0.8037 -0.4743  1.0461
 5733TIP3   OH238833   6.581   5.005   1.848 -0.1140 -0.4101  0.5657
 5733TIP3    H138834   6.491   4.996   1.816  0.1869 -0.1267 -0.3744
 5733TIP3    H238835   6.616   4.916   1.846  0.0284 -0.3394 -0.2794
 5734TIP3   OH238836   0.422   1.935   8.539  0.2943 -0.7183  0.8249
 5734TIP3    H138837   0.378   1.856   8.507  0.7292 -0.4461 -0.5258
 5734TIP3    H238838   0.450   1.913   8.627 -2.1224 -1.0661  1.5888
 5735TIP3   OH238839   0.037   6.749   0.802  0.4518 -0.1249  0.1138
 5735TIP3    H138840   0.085   6.684   0.852  0.1263 -0.2697  0.2405
 5735TIP3    H238841  -0.006   6.700   0.732 -1.4437 -0.4008  1.3729
 5736TIP3   OH238842   3.653   2.049   1.737  0.4815 -0.4755  0.3069
 5736TIP3    H138843   3.673   2.142   1.751  0.3355 -0.4615  0.4179
 5736TIP3    H238844   3.720   2.020   1.675  0.3992 -0.2420  0.1058
 5737TIP3   OH238845   0.398   0.630   7.367  0.1716  0.0007 -0.5379
 5737TIP3    H138846   0.306   0.604   7.355 -0.7296  1.5743  1.9781
 5737TIP3    H238847   0.446   0.547   7.369 -1.4786 -1.0076 -0.1001
 5738TIP3   OH238848   5.581   1.178   7.553  0.2357 -0.2289  0.3090
 5738TIP3    H138849   5.577   1.153   7.646  1.2189 -0.4398  0.3018
 5738TIP3    H238850   5.612   1.099   7.509 -1.2053 -0.4612 -0.3510
 5739TIP3   OH238851   1.518   0.527   8.191 -0.4588  0.5167 -0.2756
 5739TIP3    H138852   1.445   0.465   8.195 -0.2325  0.3006  1.0411
 5739TIP3    H238853   1.504   0.576   8.109 -1.5687 -0.1265 -0.4899
 5740TIP3   OH238854   3.109   2.843   2.169  0.5431  0.0596  0.1571
 5740TIP3    H138855   3.201   2.846   2.142  0.6778  0.7730  0.6801
 5740TIP3    H238856   3.094   2.927   2.213 -0.4194  0.0405 -0.1153
 5741TIP3   OH238857   6.869   0.906   7.434 -0.1295 -0.5668  0.5849
 5741TIP3    H138858   6.919   0.987   7.425  1.1383 -1.3700  0.1029
 5741TIP3    H238859   6.793   0.931   7.486 -1.7201  1.7650 -2.4546
 5742TIP3   OH238860   6.419   6.487   8.168 -0.8559 -0.1172 -0.5971
 5742TIP3    H138861   6.346   6.531   8.124 -0.8666  0.6466  0.1626
 5742TIP3    H238862   6.495   6.541   8.148 -0.9088  0.4056  0.5305
 5743TIP3   OH238863   1.546   5.903   2.600  0.2931  0.4441  0.4339
 5743TIP3    H138864   1.576   5.897   2.509 -1.8292 -0.2314 -0.2697
 5743TIP3    H238865   1.614   5.858   2.650  1.8450  1.4153 -0.6931
 5744TIP3   OH238866   0.269   6.859   0.047 -0.1382 -0.5025 -0.3839
 5744TIP3    H138867   0.205   6.822   0.108 -0.3650  0.4342 -0.0408
 5744TIP3    H238868   0.346   6.803   0.056  1.2886  1.7313  3.6755
 5745TIP3   OH238869   1.917   4.265   7.927 -0.2033  0.1535  0.1332
 5745TIP3    H138870   1.960   4.351   7.924  0.1924 -0.0326  0.4304
 5745TIP3    H238871   1.859   4.270   8.004  1.5348 -0.6365  1.5534
 5746TIP3   OH238872   6.392   0.752   1.263 -0.2011 -0.4976 -0.2468
 5746TIP3    H138873   6.327   0.758   1.194 -0.6353 -2.0512 -0.0173
 5746TIP3    H238874   6.350   0.701   1.332  0.8252 -0.4670  0.4393
 5747TIP3   OH238875   5.716   0.012   1.284  0.5809 -0.3057 -0.2575
 5747TIP3    H138876   5.759  -0.055   1.338 -0.0152 -0.5468 -0.0732
 5747TIP3    H238877   5.700  -0.031   1.200 -1.3224 -0.9710  0.4007
 5748TIP3   OH238878   0.739   3.681   1.309 -0.3612 -0.0212  0.1699
 5748TIP3    H138879   0.820   3.634   1.291 -0.2012  0.0812  0.6055
 5748TIP3    H238880   0.748   3.764   1.263  0.0129  0.2095  0.6491
 5749TIP3   OH238881   4.424   6.784   7.791  0.1564  0.0313  0.0902
 5749TIP3    H138882   4.406   6.878   7.794  2.6087  0.5596  0.3649
 5749TIP3    H238883   4.397   6.751   7.877 -0.7216  0.4380 -0.0118
 5750TIP3   OH238884   0.013   3.110   0.869  0.1376  0.0678  0.7264
 5750TIP3    H138885  -0.023   3.197   0.855  0.1450 -0.2474 -1.6223
 5750TIP3    H238886   0.101   3.125   0.903  0.3578  1.0048 -0.2185
 5751TIP3   OH238887   2.077   1.052   8.078  0.2582 -0.4461 -0.8906
 5751TIP3    H138888   2.153   1.042   8.021  0.3434  2.1449 -1.3299
 5751TIP3    H238889   2.007   1.080   8.019 -0.1174  0.5181 -0.0156
 5752TIP3   OH238890   4.619   1.227   0.504  0.0141 -0.1961 -0.6233
 5752TIP3    H138891   4.567   1.157   0.542  0.1109  0.4165  0.6751
 5752TIP3    H238892   4.662   1.186   0.428  0.4548 -1.6760  0.3901
 5753TIP3   OH238893   6.406   0.142   1.219 -0.0655 -0.0402 -0.0144
 5753TIP3    H138894   6.391   0.075   1.153  0.8665  0.9913 -1.3110
 5753TIP3    H238895   6.358   0.111   1.296 -4.2492  0.4315 -2.1640
 5754TIP3   OH238896   0.519   2.043   7.100  0.1450 -0.3187 -0.1831
 5754TIP3    H138897   0.489   2.036   7.010  1.9161 -1.7576 -0.7373
 5754TIP3    H238898   0.460   2.106   7.141 -2.2900 -1.4907 -1.6422
 5755TIP3   OH238899   0.794   2.233   6.841  0.1989  0.1437 -0.6395
 5755TIP3    H138900   0.848   2.164   6.879 -0.0600 -0.1047 -0.7115
 5755TIP3    H238901   0.740   2.187   6.776 -0.5307  0.2764 -0.1435
 5756TIP3   OH238902   2.936   1.908   1.810  0.5929  0.3956  0.8052
 5756TIP3    H138903   2.843   1.898   1.829  1.0618 -2.5001  2.0402
 5756TIP3    H238904   2.978   1.915   1.895  1.6326  0.1136  0.3370
 5757TIP3   OH238905   1.107   5.184   8.610  0.2710 -0.3660  0.0815
 5757TIP3    H138906   1.201   5.185   8.592  0.1365 -0.5977 -0.6374
 5757TIP3    H238907   1.069   5.237   8.541 -0.0828  0.1710  0.6774
 5758TIP3   OH238908   3.742   4.790   8.330 -0.4616 -0.1237 -0.0685
 5758TIP3    H138909   3.681   4.846   8.281  0.9685  0.8752 -0.7665
 5758TIP3    H238910   3.816   4.777   8.270 -0.1299 -1.6233  0.6226
 5759TIP3   OH238911   4.774   1.072   8.344 -0.2409  0.9029  0.5047
 5759TIP3    H138912   4.786   1.052   8.251 -1.9548  1.8811  0.0370
 5759TIP3    H238913   4.738   1.160   8.345 -2.0510  0.2087  1.9947
 5760TIP3   OH238914   1.214   0.121   7.558 -0.2997  0.5429  0.6719
 5760TIP3    H138915   1.233   0.066   7.635 -0.9114 -0.8198 -0.1119
 5760TIP3    H238916   1.119   0.112   7.545 -0.0480 -0.1610 -0.8953
 5761TIP3   OH238917   6.370   2.826   7.853  0.2511 -0.1395  0.3492
 5761TIP3    H138918   6.407   2.870   7.929  0.5191  0.6575 -0.2227
 5761TIP3    H238919   6.362   2.895   7.787  0.0806 -0.8188 -0.3621
 5762TIP3   OH238920   2.221   4.287   0.286 -0.1920 -0.2653 -0.1353
 5762TIP3    H138921   2.243   4.362   0.230  1.1569  0.5108  1.3455
 5762TIP3    H238922   2.288   4.222   0.265  1.0975  0.4959  1.3611
 5763TIP3   OH238923   4.165   5.827   1.726  0.0373 -0.8515  0.2321
 5763TIP3    H138924   4.196   5.741   1.757 -0.9786 -1.4501 -0.3439
 5763TIP3    H238925   4.209   5.840   1.642 -0.2544 -1.0883  0.0405
 5764TIP3   OH238926   4.582   2.110   0.686 -0.0124  0.2964  0.4642
 5764TIP3    H138927   4.582   2.066   0.601  0.9852 -0.8033  0.9965
 5764TIP3    H238928   4.493   2.101   0.719 -0.9479  2.4095 -1.2510
 5765TIP3   OH238929   4.565   4.624   2.823  0.3419 -0.0423  0.4192
 5765TIP3    H138930   4.509   4.608   2.747 -1.6686  0.7366  1.6602
 5765TIP3    H238931   4.654   4.625   2.787 -0.3393 -1.8175 -1.5628
 5766TIP3   OH238932   0.016   2.656   0.764  0.1443 -0.2606 -0.1686
 5766TIP3    H138933  -0.004   2.567   0.736  0.4857 -0.0905 -0.9922
 5766TIP3    H238934   0.041   2.648   0.856 -1.8141 -0.7393  0.3730
 5767TIP3   OH238935   5.403   2.590   6.512  0.1708 -0.4209  0.2817
 5767TIP3    H138936   5.316   2.575   6.549  0.4981  0.8145  1.6543
 5767TIP3    H238937   5.444   2.503   6.509 -0.8547 -0.9163  0.2460
 5768TIP3   OH238938   3.796   6.500   5.776 -0.4703 -0.4626  0.1465
 5768TIP3    H138939   3.707   6.532   5.760 -0.6514  0.2401  2.2707
 5768TIP3    H238940   3.852   6.569   5.739 -0.7030 -1.4719 -2.3150
 5769TIP3   OH238941   1.285   6.602   6.030 -0.2258  0.5746  0.0084
 5769TIP3    H138942   1.190   6.593   6.037 -0.1392 -1.6972 -0.8051
 5769TIP3    H238943   1.300   6.632   5.941 -0.1669 -0.5210 -0.3727
 5770TIP3   OH238944   2.408   0.845   2.215 -0.7749  0.5208  0.1500
 5770TIP3    H138945   2.405   0.894   2.298 -0.2891  0.8310 -0.0090
 5770TIP3    H238946   2.400   0.912   2.148 -1.9222  0.1952 -0.0505
 5771TIP3   OH238947   6.410   4.449   0.265 -0.9285 -0.1156  0.0030
 5771TIP3    H138948   6.476   4.517   0.256  0.1789 -1.0468  0.8580
 5771TIP3    H238949   6.357   4.456   0.185  1.9703 -1.2175 -2.2099
 5772TIP3   OH238950   4.754   4.609   1.659 -0.7141 -0.4713  0.1984
 5772TIP3    H138951   4.834   4.621   1.710 -1.6898  0.0916  1.6431
 5772TIP3    H238952   4.783   4.618   1.568  1.0895 -1.6438  0.6025
 5773TIP3   OH238953   3.700   1.364   2.674  0.8417 -0.3914  0.1781
 5773TIP3    H138954   3.725   1.321   2.593  0.2491 -0.7335  0.1674
 5773TIP3    H238955   3.780   1.406   2.705  1.3094 -1.0759 -0.0813
 5774TIP3   OH238956   0.064   4.351   8.456  0.2289  0.6532  0.2489
 5774TIP3    H138957  -0.014   4.296   8.448  0.1766  0.7993 -0.3414
 5774TIP3    H238958   0.101   4.328   8.541  0.2289 -0.3324 -0.0012
 5775TIP3   OH238959   0.989   5.034   0.396 -0.1835  0.8318 -0.1242
 5775TIP3    H138960   0.943   5.090   0.332 -0.2833  1.3287  0.3763
 5775TIP3    H238961   1.082   5.049   0.378 -0.1951  1.6590  0.4123
 5776TIP3   OH238962   6.868   2.940   7.417 -0.3187  0.5141 -0.2816
 5776TIP3    H138963   6.799   2.889   7.376 -0.1612 -1.2068  1.4889
 5776TIP3    H238964   6.871   2.909   7.507  2.1420  1.2012 -0.0627
 5777TIP3   OH238965   6.242   5.337   7.644 -0.6311  0.6788  0.0814
 5777TIP3    H138966   6.323   5.354   7.692 -0.1284  1.8943 -1.1274
 5777TIP3    H238967   6.267   5.346   7.552 -2.2333  1.6176 -0.3008
 5778TIP3   OH238968   5.102   2.676   1.926 -0.0112 -0.1420 -0.4686
 5778TIP3    H138969   5.034   2.742   1.941 -1.2304 -1.3180 -0.5667
 5778TIP3    H238970   5.089   2.612   1.995  1.9743  0.3174  0.3881
 5779TIP3   OH238971   3.692   6.650   0.987  0.0973 -0.0472 -0.4872
 5779TIP3    H138972   3.769   6.633   0.934 -0.4068  0.0232 -1.2503
 5779TIP3    H238973   3.641   6.713   0.936  0.1488  0.9159  0.5900
 5780TIP3   OH238974   1.342   1.108   0.421  0.4020  0.1805  0.0356
 5780TIP3    H138975   1.281   1.138   0.354  0.4186 -0.8999 -0.4862
 5780TIP3    H238976   1.320   1.160   0.499 -1.3029 -0.3093 -0.0804
 5781TIP3   OH238977   1.846   1.604   7.108 -0.1150  0.1058  0.3424
 5781TIP3    H138978   1.911   1.551   7.061  0.1730  0.8272 -0.0847
 5781TIP3    H238979   1.860   1.693   7.076  0.5935  0.7708  2.3292
 5782TIP3   OH238980   3.198   3.951   8.047  0.5233 -0.2042  0.0193
 5782TIP3    H138981   3.270   4.015   8.047 -0.6697  1.1996  0.8578
 5782TIP3    H238982   3.152   3.966   7.964  0.8558 -0.7063 -0.2577
 5783TIP3   OH238983   1.345   0.675   7.072  0.4178 -0.6102  0.1174
 5783TIP3    H138984   1.388   0.639   6.994 -0.5738  1.0965 -1.2963
 5783TIP3    H238985   1.256   0.694   7.044  0.0396  0.0951  1.6689
 5784TIP3   OH238986   3.128   5.652   1.106  0.1508  0.3971 -0.6215
 5784TIP3    H138987   3.082   5.573   1.135  1.6730 -0.3756 -0.2193
 5784TIP3    H238988   3.065   5.696   1.049 -0.4257 -1.5673 -1.5937
 5785TIP3   OH238989   0.526   3.209   8.484 -0.2510  0.4297 -0.3599
 5785TIP3    H138990   0.519   3.297   8.446  0.2202  1.1043  1.0562
 5785TIP3    H238991   0.435   3.186   8.506 -0.2820  0.9389  0.0704
 5786TIP3   OH238992   1.720   3.790   0.507  0.4084  0.1722 -0.0143
 5786TIP3    H138993   1.636   3.782   0.462  0.4991 -0.2319 -0.1108
 5786TIP3    H238994   1.758   3.870   0.470  0.9385 -0.6961 -1.4468
 5787TIP3   OH238995   3.968   0.035   7.071 -0.4905 -0.1010 -0.0573
 5787TIP3    H138996   3.987   0.039   6.977 -0.0208  0.5716  0.0583
 5787TIP3    H238997   4.007  -0.047   7.101 -0.3741 -0.1684 -0.3918
 5788TIP3   OH238998   4.712   6.573   6.405  0.1255 -0.1745  0.4181
 5788TIP3    H138999   4.769   6.645   6.432  0.2574 -1.0749  2.8826
 5788TIP3    H239000   4.769   6.514   6.356  1.1620 -0.6306  2.0852
 5789TIP3   OH239001   1.664   4.149   6.844  0.0353  0.2304 -0.3202
 5789TIP3    H139002   1.648   4.137   6.751 -1.8253 -2.3340  0.2115
 5789TIP3    H239003   1.726   4.080   6.866 -0.1751  0.2841  0.4659
 5790TIP3   OH239004   4.899   5.807   2.167  0.2325  0.0620 -0.1557
 5790TIP3    H139005   4.928   5.730   2.216 -0.8944 -0.4729 -0.3042
 5790TIP3    H239006   4.954   5.879   2.201  1.2829 -0.7855 -0.0064
 5791TIP3   OH239007   5.451   0.013   2.009 -0.6728  0.3217 -0.4734
 5791TIP3    H139008   5.362  -0.012   1.985 -0.3928 -1.1953  0.0023
 5791TIP3    H239009   5.467   0.093   1.959 -1.6108 -0.4261 -2.0490
 5792TIP3   OH239010   3.700   4.580   8.566  0.0819  0.3531 -0.6415
 5792TIP3    H139011   3.696   4.513   8.498  2.9743 -0.4014 -0.2049
 5792TIP3    H239012   3.740   4.656   8.524  2.5214 -0.3422  0.2641
 5793TIP3   OH239013   5.368   1.531   2.054 -0.3375  0.2288 -0.0389
 5793TIP3    H139014   5.287   1.576   2.075 -0.4522 -0.3777  0.8870
 5793TIP3    H239015   5.363   1.516   1.959 -0.6313  1.4644 -0.2273
 5794TIP3   OH239016   5.872   6.081   1.588 -0.2496  0.0242  0.1030
 5794TIP3    H139017   5.868   6.109   1.680 -2.0293  1.1246 -0.2636
 5794TIP3    H239018   5.804   6.014   1.581  0.1341 -0.3207 -0.3378
 5795TIP3   OH239019   0.462   0.159   0.362  0.2463 -1.2238  0.2816
 5795TIP3    H139020   0.519   0.152   0.439  0.7334 -0.3360  0.0121
 5795TIP3    H239021   0.426   0.247   0.368 -1.3819 -1.8677  0.6248
 5796TIP3   OH239022   5.235   0.561   0.663 -0.4027  0.2689  0.1987
 5796TIP3    H139023   5.202   0.522   0.582  1.5228  0.4869 -0.7509
 5796TIP3    H239024   5.256   0.486   0.719 -2.5102  0.1293  0.8804
 5797TIP3   OH239025   6.469   3.933   8.623  0.3282 -0.3018 -0.2398
 5797TIP3    H139026   6.407   4.005   8.615  2.6396  1.9968  0.8937
 5797TIP3    H239027   6.433   3.878   8.693  0.2293  1.7771  1.4403
 5798TIP3   OH239028   3.101   3.916   0.744 -0.5467 -0.0534 -0.0829
 5798TIP3    H139029   3.158   3.992   0.731 -0.8958  0.1595 -0.3602
 5798TIP3    H239030   3.162   3.842   0.748 -0.3626 -0.1663 -2.8919
 5799TIP3   OH239031   5.152   5.538   1.066  0.0104  0.5125  0.4108
 5799TIP3    H139032   5.210   5.614   1.072 -0.0902  0.5658  0.7445
 5799TIP3    H239033   5.182   5.480   1.136  0.4307  0.0043 -0.1802
 5800TIP3   OH239034   2.542   5.372   6.805  0.2562  1.0297 -0.0170
 5800TIP3    H139035   2.519   5.339   6.892  1.1865  2.4364  0.7940
 5800TIP3    H239036   2.491   5.317   6.744  0.6403 -0.8905  1.3078
 5801TIP3   OH239037   6.354   2.682   6.942  0.0694  0.1646 -0.1873
 5801TIP3    H139038   6.352   2.588   6.923 -0.7120 -0.0026  0.6669
 5801TIP3    H239039   6.311   2.722   6.866 -0.5548 -0.2556 -0.0611
 5802TIP3   OH239040   0.271   2.482   6.380 -0.4608  0.0003 -0.6357
 5802TIP3    H139041   0.305   2.398   6.348 -2.0939 -0.6228 -0.8387
 5802TIP3    H239042   0.181   2.485   6.347 -0.2335  2.1306 -1.1469
 5803TIP3   OH239043   4.782   1.551   7.462 -0.3588 -0.2449  0.1961
 5803TIP3    H139044   4.704   1.575   7.512 -0.8550 -1.4973  0.0427
 5803TIP3    H239045   4.780   1.456   7.458  0.7029 -0.2509 -0.5877
 5804TIP3   OH239046   3.412   0.776   6.971  0.1804 -0.3565 -0.4897
 5804TIP3    H139047   3.468   0.792   7.048 -1.1060  0.6634  0.2805
 5804TIP3    H239048   3.323   0.786   7.004 -0.4561 -1.2896 -1.8400
 5805TIP3   OH239049   3.181   2.524   7.075 -0.6019  0.3788  0.1245
 5805TIP3    H139050   3.148   2.475   6.999 -0.3359  2.1305 -1.1901
 5805TIP3    H239051   3.251   2.470   7.110 -3.3829 -2.4651  1.7381
 5806TIP3   OH239052   6.919   5.520   1.796 -0.3824  0.3600  0.3668
 5806TIP3    H139053   6.948   5.606   1.824 -0.0290  0.8439 -1.3616
 5806TIP3    H239054   6.930   5.465   1.874 -0.3664  1.7960  1.4266
 5807TIP3   OH239055   3.842   4.072   7.173  0.2670  0.6070  0.1381
 5807TIP3    H139056   3.763   4.116   7.142  0.0482 -0.0021 -0.1858
 5807TIP3    H239057   3.906   4.084   7.103  0.6898  1.6702  0.6793
 5808TIP3   OH239058   6.838   4.267   1.199 -0.0195  0.0722  0.1716
 5808TIP3    H139059   6.764   4.258   1.139 -0.4097 -0.5189  0.7259
 5808TIP3    H239060   6.863   4.177   1.221  1.0633  0.2563 -0.2413
 5809TIP3   OH239061   1.910   3.029   8.101  0.5750 -0.4490  0.5364
 5809TIP3    H139062   1.969   3.042   8.026 -0.1671 -0.6138 -0.0893
 5809TIP3    H239063   1.859   2.952   8.077 -0.9974  0.6115  0.3362
 5810TIP3   OH239064   3.713   6.768   7.319  0.4173 -0.4921  0.2597
 5810TIP3    H139065   3.707   6.747   7.413 -2.1959  1.5366  0.6758
 5810TIP3    H239066   3.804   6.793   7.306  0.3493  1.5718  2.8863
 5811TIP3   OH239067   2.527   2.114   1.281  0.1168  0.3603 -0.1902
 5811TIP3    H139068   2.543   2.208   1.294 -1.7527  0.7058 -0.0381
 5811TIP3    H239069   2.474   2.110   1.201 -0.2781 -0.5080  0.1025
 5812TIP3   OH239070   3.458   3.067   2.204  0.4182 -0.5415  0.2221
 5812TIP3    H139071   3.468   3.099   2.294  1.4572 -0.6989  0.1805
 5812TIP3    H239072   3.527   3.112   2.155  0.5139 -1.2177 -0.2798
 5813TIP3   OH239073   2.943   3.748   7.857  0.8005 -0.1887 -0.4212
 5813TIP3    H139074   2.966   3.689   7.929 -0.1644 -1.1518 -0.8957
 5813TIP3    H239075   3.026   3.765   7.813  1.1208 -0.9810 -0.1341
 5814TIP3   OH239076   4.349   4.728   7.769  0.4841 -0.1445  0.1372
 5814TIP3    H139077   4.321   4.797   7.709  0.4282  0.5369  0.9307
 5814TIP3    H239078   4.267   4.689   7.800  0.5067 -0.3414 -0.0521
 5815TIP3   OH239079   2.665   1.470   0.906 -0.6184 -0.1544 -0.1897
 5815TIP3    H139080   2.745   1.421   0.924 -1.2671 -2.1303 -2.2888
 5815TIP3    H239081   2.607   1.407   0.864 -2.7550  1.6027 -0.0526
 5816TIP3   OH239082   4.329   2.804   1.869 -0.1353 -0.0874  0.1174
 5816TIP3    H139083   4.277   2.849   1.802  0.0195 -1.9838 -1.3361
 5816TIP3    H239084   4.413   2.788   1.827  0.4428 -0.1534  1.2551
 5817TIP3   OH239085   6.341   4.365   1.290  0.2196  0.1622  0.4099
 5817TIP3    H139086   6.266   4.352   1.232 -0.0140  1.3257  0.4301
 5817TIP3    H239087   6.367   4.456   1.275  0.9790  0.0759  1.1670
 5818TIP3   OH239088   3.919   1.421   0.397  0.0786  0.3747  0.5996
 5818TIP3    H139089   3.963   1.484   0.455  0.0416  0.4741  0.5197
 5818TIP3    H239090   3.854   1.473   0.350  0.3239  0.3552  0.2342
 5819TIP3   OH239091   3.661   3.250   0.011  0.2021 -0.7366  0.2630
 5819TIP3    H139092   3.743   3.209  -0.016  0.0768  0.2763 -1.7994
 5819TIP3    H239093   3.687   3.315   0.077  0.9850 -0.7476 -0.0247
 5820TIP3   OH239094   0.901   6.616   0.147  0.3742  0.1162  0.2245
 5820TIP3    H139095   0.919   6.710   0.144  0.6129  0.1535  1.8403
 5820TIP3    H239096   0.812   6.608   0.113  0.4745  0.8778 -0.2567
 5821TIP3   OH239097   3.099   2.541   7.445 -0.0189 -0.1451  0.3546
 5821TIP3    H139098   3.032   2.497   7.392  0.5557  1.5850 -1.9443
 5821TIP3    H239099   3.054   2.563   7.527 -2.0232  0.1813 -0.7631
 5822TIP3   OH239100   2.527   2.830   0.353 -0.4822  0.2413  0.4974
 5822TIP3    H139101   2.472   2.905   0.330  0.0377  0.5233  0.1466
 5822TIP3    H239102   2.468   2.755   0.347 -0.4305  0.3000 -1.6904
 5823TIP3   OH239103   5.172   2.760   7.674 -0.1688 -0.1755  0.2783
 5823TIP3    H139104   5.142   2.851   7.665  0.3870 -0.0105  0.0359
 5823TIP3    H239105   5.267   2.765   7.662  0.3299 -0.3268  3.4258
 5824TIP3   OH239106   3.181   2.303   8.205  0.2475  0.4337  0.3656
 5824TIP3    H139107   3.188   2.219   8.250 -3.6103  0.0283  0.5697
 5824TIP3    H239108   3.271   2.326   8.183  1.5977 -3.0387  1.5230
 5825TIP3   OH239109   1.198   1.706   1.934 -0.1743 -0.3903 -0.5578
 5825TIP3    H139110   1.156   1.782   1.974  1.8475 -0.4473  1.9330
 5825TIP3    H239111   1.242   1.741   1.856 -1.4798  0.4059 -0.9612
 5826TIP3   OH239112   1.170   2.682   1.842 -0.3675 -0.0105  0.2462
 5826TIP3    H139113   1.151   2.614   1.906  0.9731 -1.6536 -1.0007
 5826TIP3    H239114   1.265   2.677   1.828 -0.5992  0.2461 -1.8531
 5827TIP3   OH239115   0.274   4.473   1.782 -0.2940 -0.3860 -0.2304
 5827TIP3    H139116   0.248   4.383   1.800  1.4491 -0.5540  2.0199
 5827TIP3    H239117   0.228   4.525   1.848 -1.1785  0.3930 -1.4211
 5828TIP3   OH239118   2.859   0.808   1.127 -0.0185  0.4869 -0.2150
 5828TIP3    H139119   2.918   0.794   1.053  0.1903 -1.4774  0.2686
 5828TIP3    H239120   2.891   0.888   1.168 -0.0334  1.5321 -2.1098
 5829TIP3   OH239121   4.887   6.124   2.386 -0.1870 -0.8325 -0.0448
 5829TIP3    H139122   4.908   6.209   2.424  1.2282 -0.7734 -0.9020
 5829TIP3    H239123   4.911   6.061   2.454 -1.0659 -0.5811  0.5213
 5830TIP3   OH239124   5.110   3.902   2.185  0.3202  0.4455 -0.7027
 5830TIP3    H139125   5.147   3.876   2.101  0.3826 -2.7990  0.2134
 5830TIP3    H239126   5.182   3.892   2.247 -0.5364 -0.2062  0.2064
 5831TIP3   OH239127   2.604   0.144   8.029 -0.4292 -0.0943 -0.4469
 5831TIP3    H139128   2.515   0.144   8.065  0.0713 -1.0051  0.8876
 5831TIP3    H239129   2.644   0.223   8.065 -0.7542  0.4077 -1.1909
 5832TIP3   OH239130   5.355   6.916   0.572  0.3160 -0.7519  0.1570
 5832TIP3    H139131   5.370   6.875   0.487  2.5981 -1.8651  1.0110
 5832TIP3    H239132   5.406   6.997   0.569  0.5211 -0.8648  0.4828
 5833TIP3   OH239133   5.991   5.966   1.355  0.0907  0.1182 -0.2749
 5833TIP3    H139134   6.068   6.017   1.380  0.1292 -1.2608  2.9382
 5833TIP3    H239135   5.924   5.990   1.419 -2.1213  0.9336 -2.7013
 5834TIP3   OH239136   6.883   2.469   7.617  0.2270 -0.5924 -0.1818
 5834TIP3    H139137   6.794   2.435   7.628  0.9531 -2.7889 -0.4452
 5834TIP3    H239138   6.926   2.450   7.700  0.6404 -0.2344 -0.3145
 5835TIP3   OH239139   4.060   0.919   2.539  0.2707  0.0873 -0.5959
 5835TIP3    H139140   3.965   0.909   2.538  0.1786  0.9162 -0.5509
 5835TIP3    H239141   4.093   0.830   2.526 -0.5066 -0.2133 -0.5827
 5836TIP3   OH239142   2.268   6.704   6.037  0.8718 -0.2162 -0.5123
 5836TIP3    H139143   2.353   6.709   5.992  0.9337  0.3342 -0.3402
 5836TIP3    H239144   2.291   6.687   6.129  0.7944 -0.0335 -0.4603
 5837TIP3   OH239145   0.806   3.106   2.065 -0.0586 -0.3347  0.3499
 5837TIP3    H139146   0.766   3.165   2.129 -2.3314 -0.7522 -0.5852
 5837TIP3    H239147   0.836   3.031   2.116  1.1913  0.7686  1.3113
 5838TIP3   OH239148   5.243   0.785   7.981 -0.2368  0.2395  0.0473
 5838TIP3    H139149   5.170   0.729   8.005 -0.3256  0.8688  1.2958
 5838TIP3    H239150   5.214   0.873   8.003  1.4155  0.3695  2.0123
 5839TIP3   OH239151   3.570   2.336   6.564  0.1326 -0.2342  0.0138
 5839TIP3    H139152   3.630   2.411   6.554 -1.9534  1.5718  0.4020
 5839TIP3    H239153   3.627   2.260   6.557  2.1363  1.3041 -2.2252
 5840TIP3   OH239154   2.115   1.840   7.257 -0.3309 -0.4111 -0.0153
 5840TIP3    H139155   2.105   1.915   7.314  2.0405  1.4622 -1.8431
 5840TIP3    H239156   2.049   1.853   7.188  0.3878  0.3096 -0.5872
 5841TIP3   OH239157   6.569   6.239   0.926 -0.3649  0.0213  0.0228
 5841TIP3    H139158   6.507   6.179   0.967  0.0678 -0.5459 -0.1347
 5841TIP3    H239159   6.637   6.253   0.992 -1.8182  2.5616  1.1371
 5842TIP3   OH239160   3.328   3.891   2.072  0.5799 -0.1464  0.8126
 5842TIP3    H139161   3.284   3.867   2.153  0.3151 -0.9851  0.4305
 5842TIP3    H239162   3.406   3.837   2.070  0.3042 -0.5348  0.2494
 5843TIP3   OH239163   1.404   0.363   7.551 -0.3792  0.3503 -0.4128
 5843TIP3    H139164   1.449   0.447   7.554  0.4488 -0.0957  1.1041
 5843TIP3    H239165   1.475   0.299   7.540 -0.2518 -0.5039  3.6128
 5844TIP3   OH239166   2.577   3.531   2.258  0.0115 -0.2606  0.1480
 5844TIP3    H139167   2.669   3.555   2.269  0.1555 -0.1630 -1.1860
 5844TIP3    H239168   2.557   3.481   2.337  0.6956  1.1952  1.3074
 5845TIP3   OH239169   1.986   1.937   0.276  0.4662 -0.8509  0.2062
 5845TIP3    H139170   1.917   1.886   0.234 -2.0865  1.5209  1.1992
 5845TIP3    H239171   1.998   2.012   0.217  0.0858  0.2167  1.4556
 5846TIP3   OH239172   3.614   3.742   6.928  0.0346  0.4473 -0.1119
 5846TIP3    H139173   3.575   3.827   6.908  0.3183  0.3684 -1.0480
 5846TIP3    H239174   3.549   3.699   6.983  0.8743  2.1522  2.3811
 5847TIP3   OH239175   0.452   4.408   7.794  0.1721 -0.2393 -0.4231
 5847TIP3    H139176   0.545   4.422   7.811  0.1067  1.1562 -1.0994
 5847TIP3    H239177   0.408   4.474   7.847 -0.6104 -2.3309  1.6923
 5848TIP3   OH239178   2.109   6.006   6.895 -0.0423 -0.2897 -0.1049
 5848TIP3    H139179   2.108   5.911   6.910  0.8861 -0.0263  1.9502
 5848TIP3    H239180   2.029   6.038   6.937  0.5165  0.0132  0.7471
 5849TIP3   OH239181   3.773   1.679   1.384  0.2281  0.0843 -0.7007
 5849TIP3    H139182   3.867   1.699   1.380  0.2129  1.5047  2.6780
 5849TIP3    H239183   3.731   1.747   1.332  0.9922 -0.4467 -2.0709
 5850TIP3   OH239184   0.952   2.164   8.451 -0.8946 -0.3184  0.2405
 5850TIP3    H139185   1.011   2.235   8.476 -0.5324 -0.0523 -1.3017
 5850TIP3    H239186   0.983   2.088   8.502 -0.6872  0.3789  1.1731
 5851TIP3   OH239187   1.724   5.742   0.286 -0.2295  0.4339  0.0828
 5851TIP3    H139188   1.721   5.678   0.215 -0.3657 -0.0302  0.5099
 5851TIP3    H239189   1.643   5.791   0.278 -0.2491  0.3755 -0.0762
 5852TIP3   OH239190   6.655   0.294   1.789  0.5269  0.4069  0.4150
 5852TIP3    H139191   6.591   0.275   1.721  1.6406 -0.7338 -0.3566
 5852TIP3    H239192   6.616   0.365   1.840 -0.0225  1.8567 -1.8711
 5853TIP3   OH239193   0.333   3.307   7.744 -0.5976 -0.3852 -0.2002
 5853TIP3    H139194   0.278   3.273   7.814 -0.4545  0.4684  0.3366
 5853TIP3    H239195   0.422   3.299   7.776 -0.4102 -1.4314 -0.9250
 5854TIP3   OH239196   5.057   4.555   1.345 -0.3951  0.2767  0.3017
 5854TIP3    H139197   5.089   4.478   1.391  2.8829  0.7633 -0.8707
 5854TIP3    H239198   4.962   4.543   1.340 -0.2110 -2.6940  1.8038
 5855TIP3   OH239199   2.271   5.770   8.434  0.1931  0.4709  0.4636
 5855TIP3    H139200   2.326   5.722   8.372 -1.6606 -1.8627  0.4399
 5855TIP3    H239201   2.210   5.819   8.378 -0.4498 -0.3663  0.4025
 5856TIP3   OH239202   1.174   3.730   0.778 -0.1509 -0.0801  0.1784
 5856TIP3    H139203   1.248   3.753   0.721 -0.7487  0.3886 -0.4252
 5856TIP3    H239204   1.175   3.797   0.846  0.0793 -0.1760  0.2723
 5857TIP3   OH239205   2.838   6.723   7.787 -0.3910  0.1385 -0.3526
 5857TIP3    H139206   2.829   6.807   7.833  1.8943  0.9167 -1.1806
 5857TIP3    H239207   2.829   6.745   7.695 -0.4296 -0.6651 -0.5496
 5858TIP3   OH239208   4.914   2.036   1.537  0.0272 -0.3139 -0.9862
 5858TIP3    H139209   4.948   2.008   1.622 -0.7356  0.8536 -0.2647
 5858TIP3    H239210   4.984   2.014   1.475  1.5868  0.8473  0.2609
 5859TIP3   OH239211   5.517   1.486   6.392 -0.0953 -0.2006  0.1584
 5859TIP3    H139212   5.433   1.517   6.358  0.2707  2.1245  1.1231
 5859TIP3    H239213   5.533   1.541   6.469  1.2051 -2.2160  1.4133
 5860TIP3   OH239214   3.922   5.049   7.685  0.2706 -0.2634 -0.1656
 5860TIP3    H139215   3.907   5.123   7.744  1.7851  0.0927 -0.1809
 5860TIP3    H239216   3.846   5.049   7.626  0.2775  1.3476 -0.2190
 5861TIP3   OH239217   2.433   3.790   0.879 -0.0658  0.3661  0.6227
 5861TIP3    H139218   2.481   3.827   0.805  1.0295 -1.6890  0.2272
 5861TIP3    H239219   2.344   3.825   0.869  0.5605  1.7930 -0.4329
 5862TIP3   OH239220   1.792   0.678   0.530  0.1017  0.0894  0.5192
 5862TIP3    H139221   1.878   0.674   0.571 -0.0850 -1.1432  0.8393
 5862TIP3    H239222   1.731   0.684   0.603 -0.0325  3.9308  0.2642
 5863TIP3   OH239223   5.183   5.763   0.622  0.6143 -0.1616 -0.0388
 5863TIP3    H139224   5.120   5.819   0.577  0.0727 -1.4549 -0.9665
 5863TIP3    H239225   5.211   5.701   0.555 -0.8737 -2.7321  1.5483
 5864TIP3   OH239226   0.040   0.790   0.937 -0.6098 -0.5261 -0.3129
 5864TIP3    H139227  -0.028   0.767   0.875  0.3209 -0.8840 -1.2143
 5864TIP3    H239228   0.122   0.769   0.893  0.0583 -1.9468  1.4831
 5865TIP3   OH239229   5.857   0.732   0.156  0.3051 -0.2230 -0.2976
 5865TIP3    H139230   5.909   0.751   0.078 -0.4960  0.1168 -0.7639
 5865TIP3    H239231   5.796   0.806   0.163  1.3505  0.5283  1.5291
 5866TIP3   OH239232   5.797   5.846   7.833 -0.2084  0.1681  0.3275
 5866TIP3    H139233   5.881   5.843   7.787 -0.8376  2.0894 -1.1003
 5866TIP3    H239234   5.818   5.818   7.922  2.3369  2.3009  0.5328
 5867TIP3   OH239235   1.174   3.496   0.203  0.1709  0.4450  0.2274
 5867TIP3    H139236   1.270   3.503   0.208  0.0139  2.0356  2.4674
 5867TIP3    H239237   1.151   3.433   0.271 -0.3150 -1.3494 -1.5241
 5868TIP3   OH239238   0.458   4.337   1.207  0.4703  0.0294  0.0468
 5868TIP3    H139239   0.537   4.283   1.203  0.2601 -0.3015  0.3682
 5868TIP3    H239240   0.425   4.324   1.296 -0.6386 -0.8072 -0.4713
 5869TIP3   OH239241   4.807   3.643   8.560 -0.2520  0.4974  0.2652
 5869TIP3    H139242   4.830   3.729   8.525 -1.1951 -0.1328 -2.1476
 5869TIP3    H239243   4.713   3.635   8.543 -0.2951 -0.7857  0.9650
 5870TIP3   OH239244   5.141   6.699   7.603  0.5459  0.2832 -0.3850
 5870TIP3    H139245   5.083   6.652   7.663  1.0251  0.6004  0.3389
 5870TIP3    H239246   5.225   6.653   7.609  0.8938  0.9446 -0.0053
 5871TIP3   OH239247   1.004   2.020   0.742 -0.3608  0.1234  0.0971
 5871TIP3    H139248   1.039   2.107   0.719 -0.3530 -0.3146 -1.6813
 5871TIP3    H239249   0.964   1.988   0.661  1.0209 -2.2017  0.2378
 5872TIP3   OH239250   1.911   4.131   8.480 -0.2833 -0.2977  0.0685
 5872TIP3    H139251   1.966   4.180   8.418 -0.0928 -0.4425  0.1185
 5872TIP3    H239252   1.954   4.045   8.487  1.0130  0.4337  2.1184
 5873TIP3   OH239253   1.380   4.880   0.700 -0.0186  0.0713  0.3530
 5873TIP3    H139254   1.312   4.940   0.730 -1.1629 -1.3278  0.6646
 5873TIP3    H239255   1.360   4.797   0.744  1.8178 -0.4213  0.3434
 5874TIP3   OH239256   1.004   6.411   0.734 -0.0554  0.2178 -0.4254
 5874TIP3    H139257   1.005   6.315   0.735  0.7400  0.2047 -1.4026
 5874TIP3    H239258   0.962   6.435   0.817  0.1277 -0.9702  0.0302
 5875TIP3   OH239259   3.703   2.153   0.560 -0.4081 -0.0467  0.3310
 5875TIP3    H139260   3.739   2.227   0.608  2.3588 -0.1980 -1.3360
 5875TIP3    H239261   3.633   2.191   0.506  2.3053  1.9547 -2.1116
 5876TIP3   OH239262   2.636   2.417   0.503  0.0313  0.3517 -0.4324
 5876TIP3    H139263   2.597   2.341   0.460  1.4149 -0.3991 -0.4418
 5876TIP3    H239264   2.698   2.379   0.566 -0.6966  1.4615  0.9853
 5877TIP3   OH239265   4.756   4.788   0.238 -0.0672  0.3427 -0.1386
 5877TIP3    H139266   4.724   4.869   0.198 -2.2242 -0.2506  0.2999
 5877TIP3    H239267   4.678   4.735   0.252  0.7344 -0.1288  3.4475
 5878TIP3   OH239268   4.812   5.559   0.964  0.2246  0.4652 -0.2836
 5878TIP3    H139269   4.837   5.602   1.045  1.5173  0.1466 -0.4941
 5878TIP3    H239270   4.724   5.525   0.981  1.3197 -1.6384  1.8706
 5879TIP3   OH239271   2.439   6.628   0.022  0.0183 -0.1453  0.5377
 5879TIP3    H139272   2.482   6.712   0.035 -2.1289  1.0000  0.7450
 5879TIP3    H239273   2.350   6.641   0.056 -0.5368 -2.3520  0.1111
 5880TIP3   OH239274   4.145   6.512   1.992 -0.4621  0.1599  0.0490
 5880TIP3    H139275   4.236   6.487   1.976 -0.6987  0.0251 -1.2373
 5880TIP3    H239276   4.102   6.430   2.016 -0.2312  0.2408  0.7551
 5881TIP3   OH239277   0.767   0.208   8.624 -0.3754  0.0615  0.1907
 5881TIP3    H139278   0.837   0.229   8.687 -0.2440 -1.5441  0.6288
 5881TIP3    H239279   0.704   0.157   8.675 -0.9949 -0.0077 -0.6331
 5882TIP3   OH239280   0.580   1.368   0.681  0.3420 -0.5943  0.4129
 5882TIP3    H139281   0.615   1.450   0.647  1.1877 -0.3058  1.8795
 5882TIP3    H239282   0.652   1.332   0.734 -0.6376 -1.3686  1.2556
 5883TIP3   OH239283   0.604   1.156   1.486 -0.0932  0.2319  0.1743
 5883TIP3    H139284   0.694   1.187   1.488  0.1256 -0.4103  1.4843
 5883TIP3    H239285   0.595   1.114   1.400  1.6277 -1.8356  0.9241
 5884TIP3   OH239286   0.860   2.850   0.364  0.9248 -0.4513 -0.4684
 5884TIP3    H139287   0.796   2.817   0.300  1.3156  0.4256 -1.3344
 5884TIP3    H239288   0.886   2.936   0.330  1.2372 -0.0196  0.8180
 5885TIP3   OH239289   5.446   4.618   8.612  0.2396 -0.2369  0.2099
 5885TIP3    H139290   5.353   4.594   8.601  0.2698 -0.0084 -0.5951
 5885TIP3    H239291   5.480   4.622   8.523  0.7629  0.7252  0.4403
 5886TIP3   OH239292   0.202   6.596   8.126  0.0976  0.2510  0.9934
 5886TIP3    H139293   0.131   6.611   8.189  2.4031 -0.0083  3.8505
 5886TIP3    H239294   0.267   6.546   8.174  1.7748 -0.5283 -1.8623
 5887TIP3   OH239295   5.460   3.760   1.520  0.0173  0.0731  0.0898
 5887TIP3    H139296   5.507   3.823   1.574 -0.6575  1.2619 -0.6671
 5887TIP3    H239297   5.368   3.772   1.542 -0.0810 -1.2746  0.5566
 5888TIP3   OH239298   3.007   1.334   2.076  0.0131 -0.3871  0.3707
 5888TIP3    H139299   2.998   1.347   2.170  0.2776 -3.2853  0.9000
 5888TIP3    H239300   3.079   1.271   2.068  0.3984  0.2608 -1.8352
 5889TIP3   OH239301   0.952   2.580   1.034 -0.1859  0.7441  0.1980
 5889TIP3    H139302   0.975   2.487   1.027  1.4898  1.1589 -0.4286
 5889TIP3    H239303   0.893   2.585   1.109 -0.0986 -0.7853  0.4036
 5890TIP3   OH239304   2.670   4.244   1.541  0.4799  0.1962 -0.2401
 5890TIP3    H139305   2.743   4.202   1.585  0.4754  1.2238  0.7793
 5890TIP3    H239306   2.704   4.269   1.455  0.5219 -1.7145 -0.8239
 5891TIP3   OH239307   3.890   0.844   1.402  0.2285 -0.1813  0.2165
 5891TIP3    H139308   3.926   0.933   1.404 -0.2711  0.0249  1.7343
 5891TIP3    H239309   3.880   0.820   1.495 -2.1820 -0.7633 -0.1161
 5892TIP3   OH239310   2.541   2.216   1.919 -0.1693  0.1332  0.7617
 5892TIP3    H139311   2.473   2.149   1.905 -0.2904  0.3124  0.4802
 5892TIP3    H239312   2.492   2.295   1.939 -0.0302  0.1712  0.9464
 5893TIP3   OH239313   2.068   5.808   7.172 -0.4443  0.6489 -0.4906
 5893TIP3    H139314   2.043   5.775   7.086  2.2866 -3.1240 -0.1267
 5893TIP3    H239315   2.145   5.862   7.155 -0.0920  0.1568 -0.4970
 5894TIP3   OH239316   6.781   0.997   1.595  0.2004  0.0258  0.0499
 5894TIP3    H139317   6.818   0.961   1.675  0.5234 -0.5834 -0.3655
 5894TIP3    H239318   6.686   0.994   1.609  0.2629  0.1439  0.4979
 5895TIP3   OH239319   0.737   1.585   1.967 -0.0546  0.2493  0.4169
 5895TIP3    H139320   0.751   1.505   1.915 -0.4249 -0.0779  0.8141
 5895TIP3    H239321   0.818   1.595   2.017 -0.2217 -0.1995  0.7885
 5896TIP3   OH239322   1.040   1.924   2.010 -0.0466 -0.7866  0.1494
 5896TIP3    H139323   0.978   1.878   2.067 -1.2125 -0.1799 -0.5795
 5896TIP3    H239324   0.984   1.971   1.948  1.1501  0.3131 -0.1235
 5897TIP3   OH239325   1.914   0.373   7.989  0.2577 -0.4844  0.4311
 5897TIP3    H139326   1.873   0.291   7.960 -0.5102 -0.2383  0.8138
 5897TIP3    H239327   1.914   0.368   8.084  0.6758 -0.2555  0.4473
 5898TIP3   OH239328   5.747   3.464   7.848  0.5342  0.0273 -0.2691
 5898TIP3    H139329   5.796   3.528   7.900 -0.1996  1.2323 -0.9978
 5898TIP3    H239330   5.721   3.513   7.770 -0.3742 -1.0749 -0.6783
 5899TIP3   OH239331   4.809   3.412   2.269  0.4806 -0.3106  0.6073
 5899TIP3    H139332   4.852   3.340   2.314 -1.2730 -1.0456  1.2038
 5899TIP3    H239333   4.719   3.382   2.256 -0.5588  2.0675  1.6165
 5900TIP3   OH239334   1.565   2.172   0.114  0.0012 -0.0043 -0.3904
 5900TIP3    H139335   1.554   2.077   0.111 -0.0205  0.0043 -0.6605
 5900TIP3    H239336   1.621   2.192   0.038  0.6010  0.1186  0.0726
 5901TIP3   OH239337   5.287   5.664   2.183 -0.5326 -0.0226 -0.4414
 5901TIP3    H139338   5.330   5.749   2.172  2.3711 -1.2041  0.7249
 5901TIP3    H239339   5.318   5.611   2.110 -3.7508  0.2708 -2.2285
 5902TIP3   OH239340   2.657   3.539   1.366 -0.3607  0.0223 -0.0361
 5902TIP3    H139341   2.661   3.548   1.271  0.2728 -0.4666 -0.0632
 5902TIP3    H239342   2.657   3.444   1.381 -0.3897  0.0981  0.4505
 5903TIP3   OH239343   5.531   3.420   8.257  0.3880  0.0884  0.5661
 5903TIP3    H139344   5.555   3.491   8.198 -1.1752 -1.7478 -2.5255
 5903TIP3    H239345   5.605   3.359   8.252  0.1383 -0.1944  0.2500
 5904TIP3   OH239346   0.156   5.437   7.368 -0.3199  0.3312  0.2986
 5904TIP3    H139347   0.248   5.424   7.345  0.0853 -1.7983  2.7135
 5904TIP3    H239348   0.108   5.380   7.308  0.3357 -1.6082  1.5141
 5905TIP3   OH239349   2.868   3.248   7.100 -0.7584  0.0383 -0.2057
 5905TIP3    H139350   2.811   3.171   7.091 -1.6562  0.7921 -1.0957
 5905TIP3    H239351   2.861   3.294   7.017 -1.4891  1.9486  0.8546
 5906TIP3   OH239352   0.131   0.695   1.223 -0.6770 -0.1576 -0.2384
 5906TIP3    H139353   0.224   0.713   1.209 -0.7973  0.0932 -0.7352
 5906TIP3    H239354   0.101   0.658   1.140 -0.4595 -2.6622  0.7046
 5907TIP3   OH239355   2.157   6.454   8.033 -0.6193 -0.3681 -0.1058
 5907TIP3    H139356   2.135   6.376   7.981 -1.0213 -1.0707  1.0839
 5907TIP3    H239357   2.184   6.420   8.118 -0.0989  0.7669  0.2062
 5908TIP3   OH239358   4.144   0.193   7.379 -0.5206 -0.6753  0.2389
 5908TIP3    H139359   4.129   0.130   7.308  1.1953  0.1751 -0.9749
 5908TIP3    H239360   4.216   0.155   7.429 -1.0303 -0.7702  0.9044
 5909TIP3   OH239361   3.724   5.091   8.556 -0.1923 -0.0609 -0.1749
 5909TIP3    H139362   3.644   5.044   8.580 -0.7751  0.8414 -0.3101
 5909TIP3    H239363   3.795   5.039   8.595 -0.8461 -0.7994  0.0513
 5910TIP3   OH239364   1.914   3.293   1.339  0.2874 -0.7336  0.4382
 5910TIP3    H139365   2.000   3.251   1.349  0.7416 -0.2368 -1.0588
 5910TIP3    H239366   1.930   3.386   1.354  0.9369  0.0044 -3.5393
 5911TIP3   OH239367   4.839   2.124   0.215  0.5014 -0.2234  0.5482
 5911TIP3    H139368   4.881   2.209   0.224  1.9293 -0.7598 -0.6081
 5911TIP3    H239369   4.809   2.122   0.124 -0.0824 -0.7128  0.7450
 5912TIP3   OH239370   4.045   0.146   0.270  0.1865  0.0461 -1.2132
 5912TIP3    H139371   4.114   0.082   0.287  0.5559  1.1996  2.8579
 5912TIP3    H239372   4.084   0.208   0.208  2.5732  0.1357  0.2294
 5913TIP3   OH239373   5.757   4.117   8.198 -0.2613 -0.1886 -0.3595
 5913TIP3    H139374   5.711   4.164   8.129  1.3273 -0.3774 -1.6298
 5913TIP3    H239375   5.690   4.097   8.263 -1.6583  0.7055 -1.4609
 5914TIP3   OH239376   2.986   2.030   6.639  0.4485 -0.5505  0.0445
 5914TIP3    H139377   3.006   2.100   6.702 -0.9597 -1.5819  1.7368
 5914TIP3    H239378   3.056   2.036   6.574  1.1011  1.5749  0.8423
 5915TIP3   OH239379   5.999   5.228   7.388  0.8194 -0.1316  0.3920
 5915TIP3    H139380   5.984   5.136   7.406  0.4490 -0.4678 -1.4291
 5915TIP3    H239381   6.094   5.236   7.382  0.8806 -0.2644  1.0732
 5916TIP3   OH239382   1.270   1.649   1.053 -0.1087 -0.1919  0.3170
 5916TIP3    H139383   1.342   1.622   1.110  0.2106 -0.9224 -0.4190
 5916TIP3    H239384   1.194   1.651   1.112  0.3699 -0.1295  0.9457
 5917TIP3   OH239385   4.659   5.976   2.301 -0.2717 -0.2527 -0.1550
 5917TIP3    H139386   4.685   5.885   2.291 -0.0025 -0.2413  0.3925
 5917TIP3    H239387   4.740   6.022   2.323 -0.4191  0.1057 -0.3422
 5918TIP3   OH239388   2.396   1.492   7.661  0.5157  0.1319 -0.5906
 5918TIP3    H139389   2.325   1.528   7.715  0.2595  0.0968 -0.9019
 5918TIP3    H239390   2.353   1.425   7.608  0.8937 -0.2812 -0.3773
 5919TIP3   OH239391   0.544   2.379   6.588  0.7628  0.1942  0.2610
 5919TIP3    H139392   0.536   2.333   6.671 -0.8778  0.7451  0.4477
 5919TIP3    H239393   0.532   2.472   6.611  0.1516  0.3380 -0.6019
 5920TIP3   OH239394   3.329   5.518   1.374  0.0474  0.1578  0.0796
 5920TIP3    H139395   3.336   5.612   1.393  2.5095 -0.1964  1.2667
 5920TIP3    H239396   3.255   5.489   1.428  0.9309  0.9805  1.8090
 5921TIP3   OH239397   3.788   1.340   8.515 -0.3276  0.3189  0.3019
 5921TIP3    H139398   3.721   1.273   8.499 -0.0383  0.2609 -0.7491
 5921TIP3    H239399   3.749   1.397   8.582  0.0823 -1.8382  2.5448
 5922TIP3   OH239400   2.548   5.430   0.874 -0.1552  0.2510 -1.2744
 5922TIP3    H139401   2.583   5.369   0.809 -0.1098 -1.8719  0.6161
 5922TIP3    H239402   2.619   5.494   0.887  0.4962 -0.2921 -2.0531
 5923TIP3   OH239403   3.090   3.427   7.251 -0.2466  0.0703  0.3208
 5923TIP3    H139404   3.163   3.373   7.221  0.4984  1.4123 -0.3308
 5923TIP3    H239405   3.013   3.389   7.209  0.5888  1.0516 -2.2613
 5924TIP3   OH239406   6.774   3.020   6.330  0.1590  0.6084  0.4296
 5924TIP3    H139407   6.803   2.932   6.308 -1.7605  0.1961 -0.6539
 5924TIP3    H239408   6.827   3.077   6.275 -1.1516 -0.1354 -1.7219
 5925TIP3   OH239409   3.167   1.681   6.522 -0.8561  0.2354 -0.2249
 5925TIP3    H139410   3.171   1.621   6.447 -0.5690 -0.6811  0.5024
 5925TIP3    H239411   3.259   1.697   6.544 -0.9200 -1.1101  1.1612
 5926TIP3   OH239412   2.666   3.952   1.672  0.7529  0.0619  0.0054
 5926TIP3    H139413   2.598   4.017   1.660  2.5133  2.0229  0.1293
 5926TIP3    H239414   2.664   3.900   1.592 -0.1111  0.8280 -0.4843
 5927TIP3   OH239415   3.489   3.428   7.694 -0.4999  0.5023  0.3675
 5927TIP3    H139416   3.440   3.408   7.774 -1.4874  0.5172 -0.2155
 5927TIP3    H239417   3.424   3.420   7.624  0.5813 -0.6358 -0.5668
 5928TIP3   OH239418   4.727   1.793   8.136  0.0635 -0.1836 -0.4142
 5928TIP3    H139419   4.654   1.773   8.195 -0.0924  0.0452 -0.5279
 5928TIP3    H239420   4.801   1.808   8.195  0.0303 -0.4509 -0.2989
 5929TIP3   OH239421   0.137   5.472   1.578  0.3728 -0.2899 -0.4101
 5929TIP3    H139422   0.073   5.502   1.642  0.2347 -0.1558 -0.6088
 5929TIP3    H239423   0.216   5.524   1.596  0.9866 -1.6356  0.9307
 5930TIP3   OH239424   2.141   0.662   2.499 -0.0614  0.2365  0.0990
 5930TIP3    H139425   2.192   0.732   2.539  0.8702  0.9265 -2.1405
 5930TIP3    H239426   2.050   0.691   2.509  0.2317  1.1134  0.3416
 5931TIP3   OH239427   6.341   6.419   2.019 -0.3442  0.0897 -0.3435
 5931TIP3    H139428   6.387   6.364   1.956 -2.5766 -2.0294 -0.2788
 5931TIP3    H239429   6.272   6.363   2.054 -2.8437  2.9149 -0.2719
 5932TIP3   OH239430   1.448   1.063   7.920  0.1239 -0.1888  0.2105
 5932TIP3    H139431   1.489   1.090   7.838  0.2852  0.6675  0.5551
 5932TIP3    H239432   1.371   1.014   7.894 -1.2047  2.1189 -0.5176
 5933TIP3   OH239433   3.025   4.118   7.606  0.0978  0.4015 -0.1074
 5933TIP3    H139434   2.952   4.065   7.576 -1.2529  0.1179  3.2001
 5933TIP3    H239435   3.045   4.085   7.694  0.6320  3.8889  1.2674
 5934TIP3   OH239436   1.463   2.633   8.627 -0.1223  0.3278  0.3233
 5934TIP3    H139437   1.375   2.609   8.655  0.1831  0.7345  1.7147
 5934TIP3    H239438   1.454   2.721   8.592 -0.7362 -0.6416 -2.1740
 5935TIP3   OH239439   5.297   1.740   7.825  0.3095  0.1899  0.2610
 5935TIP3    H139440   5.239   1.676   7.866  0.1890  0.1597  0.0458
 5935TIP3    H239441   5.245   1.821   7.823  0.5425  0.3632  0.7444
 5936TIP3   OH239442   0.637   6.342   0.804  0.0158  0.5230 -0.4054
 5936TIP3    H139443   0.604   6.389   0.727  3.1923 -0.1618 -2.3883
 5936TIP3    H239444   0.624   6.249   0.783  1.4928  0.3077 -0.4758
 5937TIP3   OH239445   5.498   1.947   8.575  0.3320 -0.3890  0.1418
 5937TIP3    H139446   5.436   1.902   8.518  0.2773 -1.4205  0.9967
 5937TIP3    H239447   5.451   1.960   8.657  0.5467  0.7219  0.1016
 5938TIP3   OH239448   0.789   3.482   6.661  0.3373  0.1011 -0.4638
 5938TIP3    H139449   0.773   3.413   6.726 -0.1275  0.8581  0.2475
 5938TIP3    H239450   0.729   3.461   6.590  0.2944 -0.3051 -0.3130
 5939TIP3   OH239451   1.541   2.991   0.470 -1.0434  0.5309 -0.0214
 5939TIP3    H139452   1.532   3.049   0.546  1.8724  1.4665 -0.2714
 5939TIP3    H239453   1.542   2.903   0.508 -1.2351  0.8939  0.8573
 5940TIP3   OH239454   1.693   0.195   8.212 -0.4421  0.4336 -0.4736
 5940TIP3    H139455   1.624   0.129   8.201 -1.1605  0.7367  1.8009
 5940TIP3    H239456   1.770   0.145   8.238 -0.7858  0.4151  0.5241
 5941TIP3   OH239457   3.911   2.420   1.240 -0.1181 -0.6373 -0.1077
 5941TIP3    H139458   3.909   2.332   1.277  2.7610 -1.5285 -1.7365
 5941TIP3    H239459   3.967   2.471   1.299  1.4955 -1.0722 -1.1893
 5942TIP3   OH239460   0.229   1.007   7.415 -0.2623  0.1398 -0.5819
 5942TIP3    H139461   0.232   1.074   7.483  1.3300  0.0785 -0.5484
 5942TIP3    H239462   0.296   0.943   7.441  1.3132  0.7556 -2.8327
 5943TIP3   OH239463   2.982   6.746   8.291 -0.2959 -0.0679 -0.3349
 5943TIP3    H139464   2.965   6.696   8.370 -1.9841  0.7397 -0.1424
 5943TIP3    H239465   3.030   6.685   8.234  1.9180 -0.3133  1.6472
 5944TIP3   OH239466   0.035   6.925   6.942  0.1968 -0.1584  0.4274
 5944TIP3    H139467   0.018   7.006   6.895  2.1627  0.2210  0.3196
 5944TIP3    H239468  -0.025   6.861   6.901  0.3134  0.6630 -1.1035
 5945TIP3   OH239469   6.803   4.189   6.822  0.0495 -0.4384 -0.1181
 5945TIP3    H139470   6.879   4.133   6.833 -0.7291 -1.4419  0.2850
 5945TIP3    H239471   6.781   4.181   6.729  0.9046  0.5139 -0.4296
 5946TIP3   OH239472   1.938   4.856   7.373  0.3139  0.1402 -0.4264
 5946TIP3    H139473   1.901   4.768   7.373 -0.2854  0.3598  1.0689
 5946TIP3    H239474   1.866   4.913   7.344 -0.2023  0.4172  1.2529
 5947TIP3   OH239475   5.365   1.105   0.472 -0.0057 -0.3419  0.1318
 5947TIP3    H139476   5.386   1.137   0.384 -0.0790 -1.3540 -0.2744
 5947TIP3    H239477   5.333   1.016   0.458 -0.0582 -0.5053  1.1857
 5948TIP3   OH239478   3.212   0.369   1.746 -0.1793 -0.0817  0.1952
 5948TIP3    H139479   3.243   0.284   1.780  0.2889  0.1779  0.4349
 5948TIP3    H239480   3.166   0.409   1.820  0.4606  0.2955  0.3991
 5949TIP3   OH239481   5.281   1.277   6.627 -0.0576 -0.0358 -0.2227
 5949TIP3    H139482   5.238   1.191   6.635 -1.2131  0.3289 -1.8653
 5949TIP3    H239483   5.275   1.315   6.714 -1.4118 -0.7952  0.0450
 5950TIP3   OH239484   2.581   4.140   8.365 -0.6254  0.2148  0.2276
 5950TIP3    H139485   2.554   4.230   8.382  1.1283  0.4497  2.3160
 5950TIP3    H239486   2.622   4.142   8.279  0.3867  1.7058  0.7085
 5951TIP3   OH239487   0.005   5.347   0.268 -0.4229 -0.9654  0.5361
 5951TIP3    H139488  -0.007   5.291   0.191  0.3799 -0.5846  0.1147
 5951TIP3    H239489  -0.083   5.369   0.296 -0.7239 -0.9828 -0.3814
 5952TIP3   OH239490   5.932   5.372   0.301  0.1852  0.0521  0.1418
 5952TIP3    H139491   5.917   5.455   0.345 -1.5705 -1.3142  2.2944
 5952TIP3    H239492   6.026   5.356   0.311  0.5073  1.6193 -0.1074
 5953TIP3   OH239493   1.178   0.362   7.694 -0.1045 -0.1262  0.0522
 5953TIP3    H139494   1.260   0.336   7.652 -0.2299 -0.5373  0.0515
 5953TIP3    H239495   1.198   0.356   7.788 -0.3310 -0.8950  0.0568
 5954TIP3   OH239496   3.766   1.020   6.997 -0.2589  0.0615  0.5116
 5954TIP3    H139497   3.847   1.050   6.956 -0.6013  0.5544  0.1825
 5954TIP3    H239498   3.714   0.987   6.924 -0.7916  0.7535  0.5679
 5955TIP3   OH239499   6.388   0.391   6.646  0.2565 -0.6242 -0.5650
 5955TIP3    H139500   6.331   0.449   6.595  0.8864  0.2747 -0.2810
 5955TIP3    H239501   6.437   0.343   6.580  1.7926  1.2516 -0.8800
 5956TIP3   OH239502   2.954   2.553   2.594 -0.0538 -0.0132  0.9900
 5956TIP3    H139503   2.891   2.600   2.538 -1.2081 -1.9747  0.5367
 5956TIP3    H239504   3.017   2.515   2.532 -1.2228 -2.0298  0.9538
 5957TIP3   OH239505   4.937   2.041   1.224 -0.5317  0.3259 -0.2776
 5957TIP3    H139506   4.941   2.113   1.287 -0.4366 -0.0340  0.1405
 5957TIP3    H239507   4.971   2.077   1.143  0.8692  0.3784  0.3012
 5958TIP3   OH239508   4.003   5.127   6.749 -0.4112 -0.7739 -0.1310
 5958TIP3    H139509   4.046   5.146   6.666 -0.0908 -0.0418  0.1896
 5958TIP3    H239510   3.910   5.129   6.730 -0.3548  0.0495 -0.3407
 5959TIP3   OH239511   4.690   4.787   1.996  0.0034 -0.0890  0.3288
 5959TIP3    H139512   4.650   4.714   2.044  0.2346 -1.2667 -1.1909
 5959TIP3    H239513   4.780   4.759   1.980 -0.3008 -0.1131 -1.4969
 5960TIP3   OH239514   2.430   2.131   7.998 -0.4078  0.1701  0.0212
 5960TIP3    H139515   2.424   2.220   7.963  2.3898 -0.5668 -2.8077
 5960TIP3    H239516   2.339   2.104   8.011 -1.3625  2.9961 -0.0911
 5961TIP3   OH239517   4.511   4.259   0.713  0.4993  0.8711  0.1220
 5961TIP3    H139518   4.511   4.164   0.699 -0.7324  1.0132 -1.0588
 5961TIP3    H239519   4.591   4.289   0.671  0.1058  0.5103 -0.9237
 5962TIP3   OH239520   2.899   2.321   1.221  0.3900 -0.8678  0.2232
 5962TIP3    H139521   2.889   2.416   1.211  0.8357 -0.8602 -0.1995
 5962TIP3    H239522   2.991   2.305   1.200  0.9593 -1.0930  2.5957
 5963TIP3   OH239523   6.120   3.957   0.288  0.2888  0.3218 -0.7752
 5963TIP3    H139524   6.162   4.019   0.347 -0.9440 -0.3265  0.8655
 5963TIP3    H239525   6.154   3.872   0.316  0.8858  0.1085 -2.0748
 5964TIP3   OH239526   3.766   2.992   6.831 -0.1257 -0.5058  0.1565
 5964TIP3    H139527   3.735   2.914   6.877 -0.6396 -0.1201  0.4817
 5964TIP3    H239528   3.848   2.965   6.790 -0.1640 -1.1396  0.4834
 5965TIP3   OH239529   2.090   1.536   1.290  0.4128 -0.5796  0.4068
 5965TIP3    H139530   2.148   1.476   1.244  1.2583 -0.5891  1.4475
 5965TIP3    H239531   2.035   1.480   1.344  0.9152 -0.4618  1.0571
 5966TIP3   OH239532   0.866   1.827   8.162 -0.3508  0.1136  0.2639
 5966TIP3    H139533   0.948   1.874   8.178  0.3903 -0.8464 -0.6116
 5966TIP3    H239534   0.841   1.851   8.073 -0.3154 -0.6228  0.0495
 5967TIP3   OH239535   1.097   5.433   0.325  0.4440 -0.6313  0.9202
 5967TIP3    H139536   1.024   5.442   0.263 -0.8465 -0.6291  2.3961
 5967TIP3    H239537   1.167   5.484   0.285 -0.7183  0.3491  0.0141
 5968TIP3   OH239538   5.282   3.564   1.080  0.1189 -0.4706  0.2306
 5968TIP3    H139539   5.240   3.583   0.996  0.4675 -2.3843 -0.4449
 5968TIP3    H239540   5.211   3.570   1.145 -0.2340  0.6395 -0.2373
 5969TIP3   OH239541   3.301   1.190   8.036  0.3862 -0.1734 -0.0093
 5969TIP3    H139542   3.236   1.143   7.984 -0.8264  1.1478  0.2361
 5969TIP3    H239543   3.345   1.122   8.087 -2.0936 -0.9886  1.2273
 5970TIP3   OH239544   0.158   1.316   1.971  0.4025 -0.3661  0.3209
 5970TIP3    H139545   0.088   1.378   1.951  1.2202 -0.1180 -2.0938
 5970TIP3    H239546   0.124   1.264   2.044 -1.6720  0.6919  0.1878
 5971TIP3   OH239547   0.229   5.403   7.688 -0.3779 -0.0232 -0.1459
 5971TIP3    H139548   0.218   5.399   7.783  0.4348  0.8265 -0.0050
 5971TIP3    H239549   0.197   5.490   7.663 -2.2552 -0.8754 -0.9115
 5972TIP3   OH239550   3.773   6.086   7.350 -0.0928 -0.4611 -0.1234
 5972TIP3    H139551   3.785   6.122   7.438  1.1743  1.7238 -1.1097
 5972TIP3    H239552   3.692   6.126   7.318  0.4147  0.1932 -0.6054
 5973TIP3   OH239553   2.451   2.842   6.672 -0.2829  0.0028  0.1925
 5973TIP3    H139554   2.403   2.760   6.660  0.4650 -0.1886 -2.0490
 5973TIP3    H239555   2.489   2.859   6.586  0.6573  2.0357  0.9649
 5974TIP3   OH239556   2.638   5.616   8.053 -0.6526 -0.4975 -0.7271
 5974TIP3    H139557   2.716   5.565   8.034  0.1893  0.7134 -0.6007
 5974TIP3    H239558   2.612   5.654   7.969 -0.6453 -0.2758 -0.6320
 5975TIP3   OH239559   4.322   3.084   0.236  0.3502  0.2181 -0.0751
 5975TIP3    H139560   4.256   3.016   0.248  1.2635 -0.2461  3.5099
 5975TIP3    H239561   4.272   3.165   0.225 -0.7693 -0.4163  0.1813
 5976TIP3   OH239562   3.623   1.305   1.134  0.2163  0.1366  0.1164
 5976TIP3    H139563   3.601   1.382   1.187 -0.8538 -0.1709  0.1365
 5976TIP3    H239564   3.714   1.287   1.157  0.2886  1.0108  0.5940
 5977TIP3   OH239565   6.119   2.002   2.456  0.7826 -0.1053 -0.1214
 5977TIP3    H139566   6.044   1.952   2.425  1.5057 -1.4987  0.2856
 5977TIP3    H239567   6.104   2.091   2.424 -0.0788 -0.7838 -1.7044
 5978TIP3   OH239568   2.395   5.294   7.471 -0.2569  0.7673  0.1902
 5978TIP3    H139569   2.428   5.213   7.433  1.2973  0.8419  1.2612
 5978TIP3    H239570   2.301   5.293   7.454 -0.1110 -0.7702 -0.6725
 5979TIP3   OH239571   5.609   3.860   7.750 -0.2459 -0.2647  0.1101
 5979TIP3    H139572   5.574   3.946   7.772 -0.4154 -0.1271 -0.6546
 5979TIP3    H239573   5.677   3.844   7.816 -1.2958 -0.2518  1.2214
 5980TIP3   OH239574   5.961   1.161   0.669 -0.0768 -0.4594 -0.1988
 5980TIP3    H139575   5.938   1.215   0.745 -2.7753 -1.2863 -0.3373
 5980TIP3    H239576   6.032   1.104   0.701 -0.5360 -0.1770  1.4255
 5981TIP3   OH239577   0.096   3.627   1.246 -0.2870  0.0061  0.3873
 5981TIP3    H139578   0.152   3.553   1.269 -0.0345 -0.3131 -1.1609
 5981TIP3    H239579   0.124   3.652   1.159 -0.9370  1.4119  0.5581
 5982TIP3   OH239580   0.764   2.528   7.707  0.3467 -0.3954 -0.2860
 5982TIP3    H139581   0.749   2.539   7.613 -0.5878 -0.4510 -0.1463
 5982TIP3    H239582   0.746   2.436   7.724 -0.7379 -0.1079  0.1718
 5983TIP3   OH239583   6.678   3.043   0.863 -0.0948  0.0633 -0.2421
 5983TIP3    H139584   6.773   3.033   0.870 -0.0917  0.7149  0.8533
 5983TIP3    H239585   6.643   2.958   0.890  0.1755 -0.6033 -1.8461
 5984TIP3   OH239586   4.821   3.676   7.706 -0.2979  1.0962 -0.4220
 5984TIP3    H139587   4.867   3.594   7.726  2.0110  2.7068  1.4119
 5984TIP3    H239588   4.774   3.697   7.787 -0.5647  1.8078 -0.7535
 5985TIP3   OH239589   5.953   5.983   8.534 -0.1698  0.1555  0.3328
 5985TIP3    H139590   5.898   6.039   8.588 -1.1523 -1.8610  1.5621
 5985TIP3    H239591   5.947   6.020   8.446 -0.7529  1.9281  1.0894
 5986TIP3   OH239592   0.667   2.911   7.150  0.2636 -0.2933 -0.2045
 5986TIP3    H139593   0.585   2.942   7.189 -0.3698 -1.2315 -0.7503
 5986TIP3    H239594   0.664   2.943   7.059  1.0216  0.5866  0.0629
 5987TIP3   OH239595   2.496   3.345   0.202  0.1016 -0.1835 -0.0672
 5987TIP3    H139596   2.577   3.366   0.249 -1.5789  0.5273  2.7159
 5987TIP3    H239597   2.447   3.427   0.201 -0.6421 -0.6006 -1.7259
 5988TIP3   OH239598   5.581   0.151   0.848  0.1906  0.7446  0.0380
 5988TIP3    H139599   5.578   0.224   0.787 -0.4656 -1.3433 -2.5824
 5988TIP3    H239600   5.662   0.104   0.827 -1.5812 -1.8356 -1.6391
 5989TIP3   OH239601   4.534   5.212   7.553  0.3252 -0.9438 -0.6993
 5989TIP3    H139602   4.609   5.210   7.613 -0.1271 -0.3671 -0.0842
 5989TIP3    H239603   4.511   5.305   7.548 -2.1438 -1.3272  1.4627
 5990TIP3   OH239604   3.662   2.443   8.087 -0.4415  0.2765 -0.4848
 5990TIP3    H139605   3.692   2.434   7.996  1.2716 -1.9733  0.2062
 5990TIP3    H239606   3.712   2.517   8.121 -0.0532  0.2623 -1.0057
 5991TIP3   OH239607   5.082   1.868   6.733 -0.3205 -0.2292 -0.2398
 5991TIP3    H139608   4.993   1.861   6.766 -0.7486 -1.1254 -1.5223
 5991TIP3    H239609   5.092   1.961   6.710 -0.4918  0.1165  1.0015
 5992TIP3   OH239610   0.583   0.025   0.646 -0.3082 -0.5041 -0.2859
 5992TIP3    H139611   0.510  -0.020   0.688 -0.1052  1.3940  2.3874
 5992TIP3    H239612   0.617   0.083   0.714 -0.8367  4.0258 -3.4171
 5993TIP3   OH239613   5.739   0.734   7.037 -0.1604 -0.0111  0.4793
 5993TIP3    H139614   5.658   0.716   6.989 -0.2720 -0.2005  0.7357
 5993TIP3    H239615   5.749   0.660   7.096  0.9973 -0.7483 -0.5881
 5994TIP3   OH239616   6.758   6.777   1.203 -0.4173  0.0911  0.1013
 5994TIP3    H139617   6.677   6.736   1.173  0.4106 -0.0935 -2.1488
 5994TIP3    H239618   6.824   6.707   1.197  0.5337  1.0314 -1.4642
 5995TIP3   OH239619   5.517   5.818   7.852 -0.3959  0.4080 -0.1018
 5995TIP3    H139620   5.490   5.759   7.922 -0.6838  0.1744 -0.4091
 5995TIP3    H239621   5.612   5.812   7.851 -0.4459 -0.4654 -0.4884
 5996TIP3   OH239622   1.697   1.043   0.431 -0.3819  0.0670 -0.0815
 5996TIP3    H139623   1.666   0.960   0.394  2.7285 -1.1894 -0.1254
 5996TIP3    H239624   1.656   1.110   0.376 -0.3791 -1.5556 -2.1919
 5997TIP3   OH239625   1.237   6.241   7.656 -0.0496 -0.5126 -0.0223
 5997TIP3    H139626   1.234   6.176   7.587 -0.2197  2.7136 -3.3555
 5997TIP3    H239627   1.150   6.237   7.697 -0.3243 -1.7645 -0.7089
 5998TIP3   OH239628   3.934   3.340   1.047  0.1703 -0.0360 -0.2916
 5998TIP3    H139629   3.996   3.267   1.044 -0.5074 -0.6200 -0.3330
 5998TIP3    H239630   3.958   3.389   1.125  1.7815  0.7401 -1.2227
 5999TIP3   OH239631   3.876   1.316   7.865 -0.5765  0.3770  0.3621
 5999TIP3    H139632   3.920   1.397   7.838  1.0377 -0.8408 -0.8584
 5999TIP3    H239633   3.882   1.259   7.788 -0.9646 -1.1976  1.4590
 6000TIP3   OH239634   2.311   1.616   0.134 -0.4350 -0.4761  0.2012
 6000TIP3    H139635   2.303   1.586   0.224 -0.0666 -1.8416 -0.1946
 6000TIP3    H239636   2.405   1.627   0.120 -0.5978  2.2123  0.7142
 6001TIP3   OH239637   5.004   1.063   0.748 -0.1920 -0.1044  0.2777
 6001TIP3    H139638   5.058   1.009   0.691  1.0172  0.4272  0.8807
 6001TIP3    H239639   4.995   1.012   0.828  1.2107  0.6761  0.9636
 6002TIP3   OH239640   6.324   5.949   1.091 -0.6230  0.3653 -0.7838
 6002TIP3    H139641   6.246   5.994   1.058 -1.0529  0.7064  0.6610
 6002TIP3    H239642   6.330   5.974   1.183  0.6029 -0.4912 -0.6041
 6003TIP3   OH239643   5.255   6.172   6.767  0.0915  0.1294  0.2640
 6003TIP3    H139644   5.307   6.143   6.693  0.1066  1.6256 -0.3521
 6003TIP3    H239645   5.183   6.221   6.728  0.2633  1.2074  1.2329
 6004TIP3   OH239646   1.708   5.889   2.069 -0.1412 -0.3626 -0.1350
 6004TIP3    H139647   1.666   5.813   2.030  1.2333 -1.2554  0.0367
 6004TIP3    H239648   1.781   5.853   2.119 -1.1940  0.7885  2.4504
 6005TIP3   OH239649   6.093   3.502   0.453  0.4430  0.2844 -0.7834
 6005TIP3    H139650   6.082   3.458   0.538 -1.9440  1.3941 -0.4289
 6005TIP3    H239651   6.073   3.435   0.388  1.6996 -0.4122 -0.4883
 6006TIP3   OH239652   6.268   5.520   0.701 -0.0229  0.5535  0.4553
 6006TIP3    H139653   6.317   5.602   0.703  1.3652 -0.2432  0.6827
 6006TIP3    H239654   6.241   5.506   0.792  1.3763 -0.1425  0.8008
 6007TIP3   OH239655   1.537   5.493   8.172  0.0681 -0.2892  0.4845
 6007TIP3    H139656   1.540   5.401   8.199 -1.5445  0.0472  1.9857
 6007TIP3    H239657   1.580   5.540   8.243 -0.3765  0.2378  0.4105
 6008TIP3   OH239658   5.718   6.289   1.493 -0.4487 -0.2074 -0.5011
 6008TIP3    H139659   5.772   6.227   1.542  0.0989 -0.0730 -0.9223
 6008TIP3    H239660   5.686   6.351   1.558 -1.2991 -1.1266 -0.0097
 6009TIP3   OH239661   3.944   0.232   7.645 -0.4321 -1.0311  0.0972
 6009TIP3    H139662   4.015   0.182   7.605  0.4018 -0.8635  1.3025
 6009TIP3    H239663   3.903   0.171   7.706 -1.8705 -1.3728 -1.1666
 6010TIP3   OH239664   6.295   0.385   7.901 -0.1057 -0.6627 -0.3421
 6010TIP3    H139665   6.230   0.353   7.964  0.0413 -1.9063 -0.7859
 6010TIP3    H239666   6.379   0.369   7.944 -0.0053 -1.5273 -0.8492
 6011TIP3   OH239667   0.344   4.058   2.804 -0.1947 -0.3108  0.4721
 6011TIP3    H139668   0.309   4.147   2.811  0.3305 -0.0328 -0.2726
 6011TIP3    H239669   0.268   4.002   2.794 -0.5660 -0.0121  1.4591
 6012TIP3   OH239670   5.031   3.604   7.363 -0.5723  0.2475 -0.9938
 6012TIP3    H139671   4.948   3.650   7.349 -0.7371 -0.0460 -0.9990
 6012TIP3    H239672   5.076   3.610   7.278  0.5390  2.5797 -0.3197
 6013TIP3   OH239673   1.204   6.170   8.289  1.2567 -0.0429  0.3062
 6013TIP3    H139674   1.290   6.187   8.251  1.7923  0.1299  1.5503
 6013TIP3    H239675   1.206   6.078   8.316  1.0791 -0.0243  0.3883
 6014TIP3   OH239676   1.575   1.133   6.327  0.3761  0.2634  0.0373
 6014TIP3    H139677   1.611   1.151   6.240 -2.7886  0.1381 -1.4393
 6014TIP3    H239678   1.578   1.218   6.372  1.3241  0.5123 -0.4736
 6015TIP3   OH239679   6.836   6.128   6.910  0.3768 -0.8824 -0.2934
 6015TIP3    H139680   6.793   6.173   6.836 -2.6578 -2.0093  0.6220
 6015TIP3    H239681   6.787   6.158   6.987  1.2797 -2.2717  0.8640
 6016TIP3   OH239682   6.557   0.448   8.473  0.8452 -0.0282  0.6340
 6016TIP3    H139683   6.627   0.493   8.521  1.0024  0.0928  0.2963
 6016TIP3    H239684   6.573   0.355   8.489  1.0891 -0.0015  0.5548
 6017TIP3   OH239685   2.742   4.935   6.561 -0.2152 -0.0987 -0.3533
 6017TIP3    H139686   2.683   4.880   6.612 -1.4111  0.7192 -0.8248
 6017TIP3    H239687   2.748   4.891   6.476  0.6399 -0.6952  0.0040
 6018TIP3   OH239688   1.612   2.237   0.863  0.2351  0.1050  0.4194
 6018TIP3    H139689   1.599   2.249   0.957  2.3794  2.3593  0.5368
 6018TIP3    H239690   1.704   2.213   0.854 -0.8007 -4.1775 -0.9466
 6019TIP3   OH239691   4.782   0.273   1.789  0.5156  0.2505 -0.0229
 6019TIP3    H139692   4.737   0.321   1.719 -0.8474  2.8834  2.4199
 6019TIP3    H239693   4.855   0.330   1.814  0.6919 -0.3962  0.9723
 6020TIP3   OH239694   5.549   6.427   6.404  0.2847  0.6692  0.1133
 6020TIP3    H139695   5.546   6.501   6.344  0.0113 -0.3445 -1.1885
 6020TIP3    H239696   5.578   6.353   6.350 -0.7523 -0.4640  1.0268
 6021TIP3   OH239697   4.624   3.415   7.098 -0.8348 -0.6580 -0.0433
 6021TIP3    H139698   4.634   3.383   7.008  1.7460  2.2351 -0.9596
 6021TIP3    H239699   4.690   3.368   7.148  1.0631  1.1111 -0.7866
 6022TIP3   OH239700   4.005   4.637   0.063  0.1284  0.7936 -0.1663
 6022TIP3    H139701   4.072   4.684   0.112 -0.2370  0.1553  0.9773
 6022TIP3    H239702   3.959   4.706   0.014  0.5612  1.4371  0.3194
 6023TIP3   OH239703   4.375   3.056   7.362 -0.1162  0.2947  0.1132
 6023TIP3    H139704   4.331   3.094   7.286  1.4723  1.2367 -0.3713
 6023TIP3    H239705   4.417   3.130   7.405  1.0662 -0.5803  0.5085
 6024TIP3   OH239706   0.447   3.010   7.321  0.3016 -0.0710  0.2196
 6024TIP3    H139707   0.362   3.053   7.310  0.0602 -0.5375  0.2591
 6024TIP3    H239708   0.442   2.967   7.406 -0.6933 -2.8972 -1.1432
 6025TIP3   OH239709   1.060   5.776   7.172  0.2554 -0.8925  0.0774
 6025TIP3    H139710   1.105   5.741   7.249  0.9103  1.3619  0.7996
 6025TIP3    H239711   0.982   5.819   7.208 -0.3248 -1.2718 -0.7175
 6026TIP3   OH239712   4.047   2.486   7.509  0.5777  0.0220 -0.2504
 6026TIP3    H139713   4.019   2.401   7.477  0.9916 -0.8678  1.5828
 6026TIP3    H239714   4.140   2.491   7.487  0.7935 -0.4629  0.5051
 6027TIP3   OH239715   3.224   2.934   7.567 -0.0572  0.2676  0.7558
 6027TIP3    H139716   3.214   3.024   7.536  1.3166  0.3647  0.5254
 6027TIP3    H239717   3.215   2.880   7.488 -0.6336  0.2118  0.8549
 6028TIP3   OH239718   1.030   2.978   0.596 -0.8768  0.0428 -0.0415
 6028TIP3    H139719   1.114   2.935   0.583  0.6251  2.9571 -0.9407
 6028TIP3    H239720   0.981   2.960   0.516 -0.0421  0.4651 -0.6589
 6029TIP3   OH239721   0.731   0.711   7.812  0.0860 -0.6126  0.6996
 6029TIP3    H139722   0.639   0.694   7.791  0.4577 -0.9789 -0.8275
 6029TIP3    H239723   0.731   0.739   7.903 -1.7776  1.4446  0.1454
 6030TIP3   OH239724   4.667   1.155   7.014 -0.3175  0.2377  0.0946
 6030TIP3    H139725   4.708   1.069   7.016 -1.5709 -0.4287 -1.2912
 6030TIP3    H239726   4.678   1.186   6.924 -1.2520  0.8366  0.1737
 6031TIP3   OH239727   0.109   3.354   0.097 -0.2733  0.4881 -0.0619
 6031TIP3    H139728   0.075   3.327   0.183 -0.9929  2.6856  0.4030
 6031TIP3    H239729   0.033   3.391   0.052  0.1946 -0.2499 -1.5210
 6032TIP3   OH239730   6.703   0.206   0.220 -0.0272  0.0774 -0.1253
 6032TIP3    H139731   6.770   0.272   0.200  0.5015  0.4063  2.3620
 6032TIP3    H239732   6.748   0.123   0.209  0.5984  0.2775  0.8222
 6033TIP3   OH239733   3.679   3.674   0.243 -0.4776 -0.2035  0.5713
 6033TIP3    H139734   3.589   3.703   0.228 -1.7925 -2.6497  2.7153
 6033TIP3    H239735   3.732   3.729   0.186 -2.8897  3.9954  1.9322
 6034TIP3   OH239736   2.703   6.060   1.928 -0.2773  0.2865  0.5002
 6034TIP3    H139737   2.769   6.107   1.979  0.4422  0.0090 -0.1594
 6034TIP3    H239738   2.694   6.110   1.847  0.9650 -0.9992 -0.4878
 6035TIP3   OH239739   5.945   2.588   6.903  0.2939  0.3303  0.0209
 6035TIP3    H139740   6.011   2.520   6.891 -1.0582 -0.6931 -2.3914
 6035TIP3    H239741   5.924   2.617   6.814 -3.1794 -0.1105  0.5575
 6036TIP3   OH239742   5.926   2.763   7.113  0.2396  0.1478 -0.2336
 6036TIP3    H139743   5.892   2.851   7.100  2.4410  0.8764 -1.5777
 6036TIP3    H239744   5.898   2.714   7.036 -1.2984 -0.4810  0.6879
 6037TIP3   OH239745   5.592   5.780   0.750 -0.6103  0.2667 -0.9981
 6037TIP3    H139746   5.515   5.820   0.792 -0.5016 -0.6962  0.1686
 6037TIP3    H239747   5.556   5.724   0.682 -0.8898  0.5406 -1.0783
 6038TIP3   OH239748   5.571   1.750   1.606  0.1877 -0.3684 -0.0366
 6038TIP3    H139749   5.559   1.669   1.656 -0.4999  0.1271  0.6294
 6038TIP3    H239750   5.666   1.760   1.600  0.3247 -1.9767 -1.4076
 6039TIP3   OH239751   6.270   1.530   7.252 -0.1868  0.3546  0.5490
 6039TIP3    H139752   6.272   1.541   7.347 -0.4894  0.8114  0.5018
 6039TIP3    H239753   6.181   1.552   7.226  0.2678  1.6165 -0.0012
 6040TIP3   OH239754   4.414   0.462   1.061  0.2230 -0.3863 -0.2627
 6040TIP3    H139755   4.503   0.495   1.078  0.5065 -1.5939  0.7300
 6040TIP3    H239756   4.422   0.417   0.976  0.2795  0.4471 -0.7115
 6041TIP3   OH239757   4.897   4.234   1.973  0.2915 -0.0724 -0.4752
 6041TIP3    H139758   4.992   4.230   1.964  0.3803  0.6820 -0.0210
 6041TIP3    H239759   4.877   4.327   1.963 -0.5676 -0.4018 -2.0429
 6042TIP3   OH239760   4.443   2.548   0.399 -0.2244  0.3408 -0.1465
 6042TIP3    H139761   4.501   2.473   0.385 -1.0266 -0.1514 -0.9592
 6042TIP3    H239762   4.407   2.566   0.313 -0.2228  1.5309  0.0888
 6043TIP3   OH239763   0.605   6.250   1.090 -0.1994  0.2689  0.4031
 6043TIP3    H139764   0.609   6.268   0.996 -1.4698 -0.1012  0.2479
 6043TIP3    H239765   0.670   6.308   1.129 -0.5121  1.3318 -0.5915
 6044TIP3   OH239766   3.425   2.986   7.922  0.5121 -0.2839  0.3482
 6044TIP3    H139767   3.371   2.912   7.950  0.3685 -0.6608 -0.8778
 6044TIP3    H239768   3.453   2.963   7.833  0.5947  1.0694  0.0084
 6045TIP3   OH239769   6.097   6.528   8.255 -0.0914  0.8642  0.3160
 6045TIP3    H139770   6.076   6.527   8.161 -0.1038 -0.4758  0.3217
 6045TIP3    H239771   6.158   6.601   8.264  1.3392 -0.0973 -1.0685
 6046TIP3   OH239772   2.826   5.051   7.724 -0.1072  0.0524  0.5122
 6046TIP3    H139773   2.772   5.123   7.691 -1.3059 -1.3037 -0.6776
 6046TIP3    H239774   2.840   4.995   7.647  1.8344 -0.3678  1.1239
 6047TIP3   OH239775   2.259   4.360   6.612  0.2488  0.1702  0.0140
 6047TIP3    H139776   2.196   4.431   6.628 -1.4824 -0.5953 -2.7404
 6047TIP3    H239777   2.342   4.394   6.646 -0.4221  3.6340 -1.3584
 6048TIP3   OH239778   4.454   2.216   0.993  0.6728 -0.1470  0.2813
 6048TIP3    H139779   4.388   2.279   0.962  2.8453  1.9813 -0.3549
 6048TIP3    H239780   4.407   2.160   1.054 -1.7692  1.0691 -0.3574
 6049TIP3   OH239781   6.242   2.894   8.361 -0.3771  0.4454  0.5063
 6049TIP3    H139782   6.236   2.841   8.440 -1.3086  0.1723  0.2738
 6049TIP3    H239783   6.312   2.854   8.309 -0.1760  0.2587  0.9223
 6050TIP3   OH239784   4.712   3.942   1.715  0.4230  0.8337 -0.6502
 6050TIP3    H139785   4.749   3.968   1.631  2.4003  2.0783  0.5336
 6050TIP3    H239786   4.692   4.025   1.759  0.0402  0.2131  0.3831
 6051TIP3   OH239787   1.313   6.812   0.963 -0.4277  0.1348  0.5498
 6051TIP3    H139788   1.407   6.823   0.978  0.0096 -0.6953 -1.3036
 6051TIP3    H239789   1.285   6.751   1.031  0.6037 -0.3939  0.5227
 6052TIP3   OH239790   0.812   5.925   7.928  0.3553 -0.0189  0.2037
 6052TIP3    H139791   0.837   5.959   7.842  4.3771 -4.4017 -0.8069
 6052TIP3    H239792   0.877   5.963   7.988 -1.4521  1.7639  1.1450
 6053TIP3   OH239793   4.376   6.319   0.046 -0.0770 -0.1043  0.2190
 6053TIP3    H139794   4.407   6.231   0.024  2.3448  0.5879  0.6246
 6053TIP3    H239795   4.346   6.356  -0.037  0.5665 -0.6722 -0.2709
 6054TIP3   OH239796   4.759   2.913   8.408 -0.1343 -0.1214 -0.3112
 6054TIP3    H139797   4.790   2.823   8.420 -2.3014 -1.0631 -1.1793
 6054TIP3    H239798   4.770   2.930   8.315  1.0995  0.8929 -0.0093
 6055TIP3   OH239799   2.050   0.143   6.451 -0.0051 -0.3591  0.2664
 6055TIP3    H139800   2.059   0.048   6.459  1.8807 -0.2797 -0.3621
 6055TIP3    H239801   2.015   0.156   6.363  0.3985 -0.4686  0.0848
 6056TIP3   OH239802   6.922   3.543   7.583 -0.1671 -0.0241  0.0185
 6056TIP3    H139803   6.959   3.576   7.501  0.2855  1.0327  0.6277
 6056TIP3    H239804   6.961   3.456   7.595 -0.0151 -0.0598 -0.7278
 6057TIP3   OH239805   6.151   6.021   7.239 -0.3899  0.2408 -0.5396
 6057TIP3    H139806   6.074   5.980   7.279 -0.3893 -0.1817 -0.9585
 6057TIP3    H239807   6.168   5.968   7.161  0.7778 -0.1303 -0.0540
 6058TIP3   OH239808   4.571   5.095   0.705 -0.0440  0.5155  0.4870
 6058TIP3    H139809   4.563   5.177   0.754  2.1076  0.8839  0.3597
 6058TIP3    H239810   4.618   5.120   0.625  0.0203 -0.7298  0.1233
 6059TIP3   OH239811   5.402   3.789   8.183  0.1837  0.4932 -0.6136
 6059TIP3    H139812   5.388   3.796   8.277  0.2901 -0.3502 -0.5255
 6059TIP3    H239813   5.350   3.714   8.156  1.4184 -0.2877 -0.9366
 6060TIP3   OH239814   2.660   4.623   0.561  0.2957 -0.2362  0.3064
 6060TIP3    H139815   2.644   4.569   0.638 -0.1621 -2.9269 -1.5420
 6060TIP3    H239816   2.587   4.685   0.560 -0.2450 -0.8204  1.4777
 6061TIP3   OH239817   5.784   2.137   8.116 -0.0528  0.2538  0.1868
 6061TIP3    H139818   5.872   2.118   8.083  0.4060 -2.7447  2.6321
 6061TIP3    H239819   5.797   2.155   8.209 -2.0115 -0.6331  0.6818
 6062TIP3   OH239820   6.116   1.469   7.711  0.3464  0.5797  0.1375
 6062TIP3    H139821   6.154   1.536   7.768 -1.2386  2.1107 -0.5174
 6062TIP3    H239822   6.022   1.477   7.725 -0.1781  1.5452 -3.1665
 6063TIP3   OH239823   1.312   2.625   2.702  0.0028  0.7728  0.5964
 6063TIP3    H139824   1.289   2.669   2.784 -0.7731  1.3561  0.0840
 6063TIP3    H239825   1.235   2.572   2.682  0.4587  0.1022  0.5863
 6064TIP3   OH239826   1.205   6.799   0.711 -0.2236 -0.5049  0.6301
 6064TIP3    H139827   1.254   6.801   0.793  0.9250 -1.6218  0.0063
 6064TIP3    H239828   1.238   6.722   0.664 -0.1035  0.6515 -1.3213
 6065TIP3   OH239829   1.512   3.050   1.908  0.5945  0.0650 -0.4921
 6065TIP3    H139830   1.470   3.068   1.824 -0.6751  0.1263  0.1272
 6065TIP3    H239831   1.494   3.129   1.960  4.0949  1.4419 -1.1311
 6066TIP3   OH239832   6.440   1.692   2.239  0.3337  0.5265  0.1750
 6066TIP3    H139833   6.519   1.640   2.255  0.6017  0.8180 -0.1980
 6066TIP3    H239834   6.395   1.646   2.169  0.4886  0.7073 -0.0431
 6067TIP3   OH239835   3.083   0.006   8.139  0.2392  0.3807 -0.3365
 6067TIP3    H139836   3.073  -0.082   8.174  0.3661 -0.1392 -1.5802
 6067TIP3    H239837   3.001   0.022   8.092  0.2330  0.9188 -0.1490
 6068TIP3   OH239838   4.236   2.478   2.102  0.0099 -0.6714  0.0767
 6068TIP3    H139839   4.188   2.481   2.185 -0.7451  0.0025 -0.3687
 6068TIP3    H239840   4.210   2.394   2.063 -2.3795  0.4966 -1.0355
 6069TIP3   OH239841   5.740   5.511   0.610 -0.3456  0.3439 -0.2408
 6069TIP3    H139842   5.737   5.424   0.570 -1.3487  0.3656 -0.2288
 6069TIP3    H239843   5.651   5.544   0.603 -0.0819  1.1794  0.1979
 6070TIP3   OH239844   5.050   3.187   7.388 -0.8595  0.5893  0.0603
 6070TIP3    H139845   5.089   3.133   7.320  0.2384  1.1709  0.1999
 6070TIP3    H239846   5.034   3.271   7.345  1.1860  1.4431  0.8340
 6071TIP3   OH239847   5.800   6.480   0.133 -0.9686  0.3285 -0.0399
 6071TIP3    H139848   5.774   6.448   0.220 -2.2076  1.2388 -0.0515
 6071TIP3    H239849   5.847   6.562   0.150 -0.5950  0.1491 -0.1939
 6072TIP3   OH239850   6.693   6.609   7.286 -0.2783 -0.0235  0.4489
 6072TIP3    H139851   6.649   6.578   7.206 -0.4699 -0.0610  0.5671
 6072TIP3    H239852   6.722   6.698   7.265  3.1875 -1.3519 -1.0490
 6073TIP3   OH239853   5.041   5.061   0.583  0.7517  0.4963  0.3890
 6073TIP3    H139854   5.006   5.008   0.510  1.0028  1.1389 -0.2113
 6073TIP3    H239855   5.134   5.038   0.586  0.7279  0.4226  0.5510
 6074TIP3   OH239856   6.662   2.701   7.922 -0.0038 -0.1651  0.2539
 6074TIP3    H139857   6.584   2.676   7.872  1.1392  0.4603 -1.9736
 6074TIP3    H239858   6.632   2.773   7.978 -1.1903 -0.4302 -0.0111
 6075TIP3   OH239859   2.740   2.121   0.171 -0.2918 -0.3277  0.1792
 6075TIP3    H139860   2.668   2.076   0.127 -0.3703  0.5449 -0.6085
 6075TIP3    H239861   2.736   2.089   0.262 -0.6597 -1.4983 -0.2219
 6076TIP3   OH239862   1.642   1.907   0.090  0.0319  0.1709 -0.8882
 6076TIP3    H139863   1.580   1.847   0.132 -0.0694  0.5622 -0.4773
 6076TIP3    H239864   1.695   1.850   0.034 -0.2142 -0.2714 -0.6812
 6077TIP3   OH239865   6.598   0.566   1.321  0.2605 -0.3227  0.7154
 6077TIP3    H139866   6.537   0.637   1.301 -2.2979 -1.7376  2.8128
 6077TIP3    H239867   6.667   0.607   1.373 -1.6092  0.5743  2.6246
 6078TIP3   OH239868   3.485   4.549   7.013  0.2771 -0.3875  0.3804
 6078TIP3    H139869   3.426   4.594   7.073 -1.6339  2.5689 -3.2498
 6078TIP3    H239870   3.452   4.459   7.011 -0.6256 -0.1610  2.4412
 6079TIP3   OH239871   5.277   5.038   7.902  0.5965  0.2200 -0.0241
 6079TIP3    H139872   5.264   5.131   7.882 -1.1868  0.1123  0.5058
 6079TIP3    H239873   5.302   4.999   7.818 -0.0485  0.9547 -0.5757
 6080TIP3   OH239874   1.220   4.854   7.065  0.6603 -0.2692  0.5842
 6080TIP3    H139875   1.273   4.919   7.018  1.6124 -1.3562  0.1268
 6080TIP3    H239876   1.197   4.898   7.148  0.8594  0.8265  0.0830
 6081TIP3   OH239877   0.649   2.860   6.314  0.2892 -0.3291  1.0023
 6081TIP3    H139878   0.584   2.797   6.345 -0.3722 -0.2556 -0.2068
 6081TIP3    H239879   0.668   2.913   6.391 -0.6517 -0.7174  1.5251
 6082TIP3   OH239880   5.943   6.420   1.638 -0.4253  0.4118  0.0751
 6082TIP3    H139881   5.853   6.438   1.663 -0.3992  1.9433 -0.8105
 6082TIP3    H239882   5.974   6.357   1.703 -2.7085 -1.7000 -0.7071
 6083TIP3   OH239883   2.777   3.972   8.486 -0.4860 -0.5638  1.0506
 6083TIP3    H139884   2.770   3.920   8.405 -0.4996 -0.3096  0.8872
 6083TIP3    H239885   2.742   4.058   8.462 -0.1631 -0.3826  1.2331
 6084TIP3   OH239886   4.277   1.522   7.509  0.1843  0.3072  0.1540
 6084TIP3    H139887   4.307   1.580   7.579  1.7274 -0.1027 -0.1233
 6084TIP3    H239888   4.266   1.437   7.551  0.1763  0.2826  0.1026
 6085TIP3   OH239889   0.634   2.947   8.084 -0.3234  0.4476  0.1565
 6085TIP3    H139890   0.638   2.929   8.178 -0.5585 -1.3454 -0.1466
 6085TIP3    H239891   0.671   2.869   8.043  0.9975  1.7276 -1.2322
 6086TIP3   OH239892   1.953   6.649   2.714  0.0905 -0.2226 -0.4087
 6086TIP3    H139893   1.918   6.716   2.656 -1.5645 -0.4632  0.2480
 6086TIP3    H239894   2.034   6.620   2.672 -1.4126 -0.9581 -3.0247
 6087TIP3   OH239895   4.095   3.837   1.498  0.0337  0.0681  0.3801
 6087TIP3    H139896   4.033   3.852   1.427 -0.7546  0.9537  1.2397
 6087TIP3    H239897   4.043   3.803   1.570  0.7342 -0.2685  0.7443
 6088TIP3   OH239898   5.249   6.482   0.060 -0.7924 -0.3518 -0.3710
 6088TIP3    H139899   5.193   6.506   0.134 -1.7343 -2.4736 -0.3203
 6088TIP3    H239900   5.194   6.427   0.004  0.5367 -0.5448 -1.5611
 6089TIP3   OH239901   2.396   3.039   7.799 -0.7914 -0.3826  0.3426
 6089TIP3    H139902   2.484   3.076   7.794 -0.6060 -0.8900 -3.3111
 6089TIP3    H239903   2.408   2.953   7.838  0.0966  0.0897  1.1511
 6090TIP3   OH239904   2.869   0.361   0.382 -0.6580 -0.6814  0.1545
 6090TIP3    H139905   2.789   0.335   0.427 -0.6338  0.5210  0.9406
 6090TIP3    H239906   2.852   0.451   0.353  0.4494 -0.3644  0.4484
 6091TIP3   OH239907   6.474   6.435   0.766  0.1132 -0.1791 -0.6282
 6091TIP3    H139908   6.477   6.353   0.815 -0.5035  0.4907  0.5962
 6091TIP3    H239909   6.558   6.477   0.784 -0.5713  0.6112  0.9044
 6092TIP3   OH239910   0.045   5.958   8.430 -0.0477 -0.1473 -0.2342
 6092TIP3    H139911   0.088   5.876   8.406  0.4493 -0.2523  0.9951
 6092TIP3    H239912   0.109   6.026   8.411  0.0766 -0.1672  0.1166
 6093TIP3   OH239913   5.615   6.323   8.139  0.4853  0.4650 -0.4581
 6093TIP3    H139914   5.556   6.248   8.124  0.4022  0.4113  0.1215
 6093TIP3    H239915   5.643   6.349   8.051  0.1794  0.0202 -0.6920
 6094TIP3   OH239916   1.340   4.910   1.615  0.1966 -0.2093  0.3110
 6094TIP3    H139917   1.248   4.882   1.614  0.0780  0.1613  0.5151
 6094TIP3    H239918   1.337   4.999   1.651  0.4796  0.3981 -1.0882
 6095TIP3   OH239919   0.019   0.750   0.476 -0.2285  0.1774  1.1800
 6095TIP3    H139920   0.079   0.784   0.410 -1.8447 -0.4743 -0.7181
 6095TIP3    H239921   0.060   0.669   0.505  0.7172  0.6882  1.3301
 6096TIP3   OH239922   0.598   0.054   6.852  0.3514 -0.0654  0.1844
 6096TIP3    H139923   0.670   0.060   6.789 -0.0867  0.1897 -0.2969
 6096TIP3    H239924   0.594   0.140   6.893  1.1929 -0.4833  1.1984
 6097TIP3   OH239925   4.667   0.453   0.904  0.5166  0.2604  0.5342
 6097TIP3    H139926   4.641   0.544   0.887 -1.2072 -0.3537 -0.2399
 6097TIP3    H239927   4.697   0.453   0.995 -1.5209  1.1784  1.2443
 6098TIP3   OH239928   0.822   5.576   7.285  0.0980  0.4004 -0.0401
 6098TIP3    H139929   0.812   5.543   7.374 -0.5512  0.7369  0.0141
 6098TIP3    H239930   0.887   5.646   7.293  0.6929 -0.1426  0.0158
 6099TIP3   OH239931   1.080   4.768   0.307 -0.2144  0.3153  0.1408
 6099TIP3    H139932   1.091   4.758   0.212  0.3891  2.1962 -0.0330
 6099TIP3    H239933   1.085   4.862   0.321 -0.1826  0.0521  2.0715
 6100TIP3   OH239934   3.995   3.358   0.144  0.8463  0.3576  0.1953
 6100TIP3    H139935   3.996   3.296   0.217 -0.0742  1.4959  1.1996
 6100TIP3    H239936   4.076   3.407   0.153  0.1633  1.3456  1.2364
 6101TIP3   OH239937   3.314   5.971   2.477 -0.2936  0.4573  0.3494
 6101TIP3    H139938   3.236   5.989   2.531 -1.3162  2.0269 -1.5326
 6101TIP3    H239939   3.363   6.053   2.478  1.4180 -0.5098  1.4944
 6102TIP3   OH239940   4.646   3.046   1.499 -0.5484 -0.4105 -0.3103
 6102TIP3    H139941   4.560   3.078   1.471 -0.5997  1.5347  1.7806
 6102TIP3    H239942   4.708   3.108   1.462 -0.4273  0.6685  1.5853
 6103TIP3   OH239943   0.822   3.999   6.798  0.1046  0.1506 -0.2628
 6103TIP3    H139944   0.860   3.999   6.710  0.2329 -0.6148 -0.2141
 6103TIP3    H239945   0.729   4.014   6.784  0.2594  0.9496 -0.4631
 6104TIP3   OH239946   4.616   4.479   6.890 -0.1496  0.4440  0.2096
 6104TIP3    H139947   4.608   4.391   6.852 -0.4042  0.5592 -0.0044
 6104TIP3    H239948   4.624   4.537   6.814 -0.9972  0.7084  0.3143
 6105TIP3   OH239949   5.627   4.925   2.345  0.7796 -0.4552  0.2708
 6105TIP3    H139950   5.698   4.884   2.296  1.5675 -1.2423  1.9680
 6105TIP3    H239951   5.580   4.977   2.280  0.6064 -2.8821 -1.7091
 6106TIP3   OH239952   6.135   1.806   0.421  0.6922 -0.4636  0.3482
 6106TIP3    H139953   6.109   1.730   0.369  2.0028 -0.3941 -0.4540
 6106TIP3    H239954   6.074   1.807   0.495  0.2271 -1.8892  0.0072
 6107TIP3   OH239955   5.016   5.269   7.783  0.1756  0.4909  0.6238
 6107TIP3    H139956   5.109   5.265   7.758 -0.2715  1.4324 -1.3852
 6107TIP3    H239957   5.001   5.361   7.804 -0.2883  0.3349  0.9647
 6108TIP3   OH239958   4.638   5.795   2.058 -0.4809 -0.4670 -0.0365
 6108TIP3    H139959   4.726   5.811   2.094 -0.1869 -0.8932 -0.5419
 6108TIP3    H239960   4.611   5.879   2.021 -0.4363 -0.2426  0.4327
 6109TIP3   OH239961   3.144   5.250   6.269  0.4069  0.1893  0.0563
 6109TIP3    H139962   3.207   5.184   6.299  1.8044  0.8295 -1.3393
 6109TIP3    H239963   3.196   5.330   6.259 -0.4794  0.6019 -1.6769
 6110TIP3   OH239964   5.076   0.173   8.349 -0.2697  0.3413  0.1973
 6110TIP3    H139965   5.057   0.124   8.429 -0.5263  0.4975  0.2314
 6110TIP3    H239966   5.035   0.121   8.279  1.2721 -0.6235 -0.0277
 6111TIP3   OH239967   2.862   6.397   0.581 -0.3027  0.6675 -0.1784
 6111TIP3    H139968   2.887   6.306   0.598  0.5270  0.4267 -2.4043
 6111TIP3    H239969   2.929   6.449   0.626 -0.6046  0.1989  0.8446
 6112TIP3   OH239970   4.818   0.726   7.955  0.0332  0.4332 -0.4323
 6112TIP3    H139971   4.906   0.688   7.949  0.7386  1.8627  0.2588
 6112TIP3    H239972   4.801   0.762   7.869  1.1925  2.2960  0.0603
 6113TIP3   OH239973   2.409   1.271   8.620 -0.1755  0.4247 -0.4846
 6113TIP3    H139974   2.471   1.232   8.682 -1.4841 -0.5306  0.2527
 6113TIP3    H239975   2.455   1.349   8.588  0.8146  0.5806  1.1618
 6114TIP3   OH239976   6.180   1.454   0.923  0.3797 -0.0758 -0.2488
 6114TIP3    H139977   6.122   1.382   0.901  0.1292  0.1439 -0.3218
 6114TIP3    H239978   6.121   1.530   0.933  0.7005  0.2374 -0.7259
 6115TIP3   OH239979   6.871   2.870   7.676 -0.0033 -0.4120 -0.0048
 6115TIP3    H139980   6.830   2.954   7.696 -0.6097 -0.7482  0.2108
 6115TIP3    H239981   6.888   2.831   7.761  1.6871  0.1381 -0.0655
 6116TIP3   OH239982   0.333   6.515   7.676 -0.0210 -0.3528 -0.0354
 6116TIP3    H139983   0.268   6.451   7.647 -2.5721  2.4767 -1.1515
 6116TIP3    H239984   0.377   6.542   7.596  0.7926 -0.4504  0.3735
 6117TIP3   OH239985   2.678   1.940   7.564 -0.2751 -0.1091  0.2335
 6117TIP3    H139986   2.595   1.978   7.538 -0.9814 -1.3627  0.5883
 6117TIP3    H239987   2.655   1.873   7.629  0.7831 -1.8506 -1.0850
 6118TIP3   OH239988   5.125   4.151   2.531  0.0084  0.1268  0.0493
 6118TIP3    H139989   5.138   4.239   2.497 -2.6629  1.0131  1.0318
 6118TIP3    H239990   5.090   4.164   2.620  0.0066 -1.9197  0.4089
 6119TIP3   OH239991   0.568   5.898   6.658 -0.2228  0.3081  0.2562
 6119TIP3    H139992   0.642   5.938   6.703 -0.0014  0.5820 -0.3289
 6119TIP3    H239993   0.503   5.969   6.651  0.0635  0.5071 -0.5479
 6120TIP3   OH239994   5.117   6.844   1.454  0.5180  0.7028 -0.7812
 6120TIP3    H139995   5.201   6.870   1.492  0.1428  0.7719  0.0193
 6120TIP3    H239996   5.108   6.900   1.376  0.3989  1.9685  0.1047
 6121TIP3   OH239997   4.506   5.375   2.548 -0.0033 -0.4069  0.6018
 6121TIP3    H139998   4.601   5.390   2.553  0.4415 -2.4280 -0.5684
 6121TIP3    H239999   4.475   5.441   2.485  0.6152  0.2554  0.9711
 6122TIP3   OH240000   0.305   1.000   0.225  0.4126 -0.0822  0.2982
 6122TIP3    H140001   0.263   1.077   0.263  1.2175  0.5688 -0.1023
 6122TIP3    H240002   0.262   0.987   0.141  0.0358 -0.2920  0.5194
 6123TIP3   OH240003   6.407   6.351   6.152  0.0230 -0.2887 -0.0378
 6123TIP3    H140004   6.353   6.282   6.191 -2.2380  0.9983 -0.6930
 6123TIP3    H240005   6.412   6.418   6.219  1.7080 -0.7974  0.3776
 6124TIP3   OH240006   2.176   4.836   1.323 -0.1937  0.2384 -0.0417
 6124TIP3    H140007   2.189   4.841   1.418  0.7996  0.6101 -0.1851
 6124TIP3    H240008   2.083   4.857   1.310 -0.1469  1.0028  0.7855
 6125TIP3   OH240009   5.980   0.775   7.427 -0.1875 -0.3018  0.4015
 6125TIP3    H140010   5.986   0.809   7.338  0.1371  0.0922  0.5719
 6125TIP3    H240011   5.941   0.688   7.417  1.7450 -1.1429 -0.3430
 6126TIP3   OH240012   6.288   3.267   7.323  0.5091 -0.2377  0.4301
 6126TIP3    H140013   6.343   3.189   7.331 -1.5787 -1.6549  2.2908
 6126TIP3    H240014   6.199   3.235   7.340 -0.8752  2.0352 -1.8105
 6127TIP3   OH240015   2.018   6.770   6.444 -0.5198  0.4703 -0.5672
 6127TIP3    H140016   1.924   6.788   6.445 -0.4542  0.8098 -0.6603
 6127TIP3    H240017   2.041   6.765   6.351 -0.0643  2.3589 -0.5794
 6128TIP3   OH240018   1.368   4.536   0.514  0.0381  0.1749  0.4346
 6128TIP3    H140019   1.287   4.494   0.483  0.9075 -0.9255 -0.4217
 6128TIP3    H240020   1.374   4.510   0.606 -1.8592  2.3513  1.2655
 6129TIP3   OH240021   3.801   1.601   8.235  0.1815 -0.3639  0.0751
 6129TIP3    H140022   3.789   1.694   8.213 -1.9820 -0.7573 -0.6399
 6129TIP3    H240023   3.891   1.596   8.268  0.4603  1.9227 -0.1492
 6130TIP3   OH240024   6.920   6.283   1.766  0.2728  0.0804 -0.0882
 6130TIP3    H140025   6.959   6.260   1.850  0.9770 -0.8642 -0.6501
 6130TIP3    H240026   6.900   6.376   1.773 -0.2496 -0.1184  1.3374
 6131TIP3   OH240027   2.395   5.106   8.555 -0.2975  0.5025  0.0567
 6131TIP3    H140028   2.427   5.189   8.518  0.7270  0.3760  0.6153
 6131TIP3    H240029   2.309   5.127   8.591 -0.6161  1.0047 -0.9511
 6132TIP3   OH240030   4.101   1.315   0.044  0.0872  0.1382 -0.1391
 6132TIP3    H140031   4.042   1.390   0.057 -1.4679 -0.3827 -3.2280
 6132TIP3    H240032   4.186   1.354   0.024 -0.4871  1.0689 -0.8442
 6133TIP3   OH240033   6.406   5.527   8.018 -0.1750 -0.4156  0.3435
 6133TIP3    H140034   6.424   5.448   8.069 -0.4888 -1.2663 -0.8116
 6133TIP3    H240035   6.362   5.586   8.079 -0.8311 -1.5231  0.9658
 6134TIP3   OH240036   3.968   5.693   8.248 -0.4032 -0.0866 -0.3833
 6134TIP3    H140037   3.912   5.637   8.302  0.0508 -1.3176 -1.1461
 6134TIP3    H240038   3.970   5.650   8.162  0.0054  1.0810 -0.9821
 6135TIP3   OH240039   0.680   6.433   7.747  0.2585 -0.3188  0.3449
 6135TIP3    H140040   0.763   6.386   7.752  0.8041  0.5744 -0.0880
 6135TIP3    H240041   0.657   6.432   7.654  0.9978  1.4233  0.0844
 6136TIP3   OH240042   5.645   3.240   1.901 -0.1490  0.5078  0.0862
 6136TIP3    H140043   5.553   3.237   1.874  0.1387  0.5422 -0.9383
 6136TIP3    H240044   5.680   3.319   1.859  0.6518 -0.1700 -0.5582
 6137TIP3   OH240045   3.805   4.985   8.081 -0.0614  0.2422 -0.1067
 6137TIP3    H140046   3.813   4.904   8.132  3.8177  0.2010 -0.5246
 6137TIP3    H240047   3.784   4.955   7.993 -1.9848 -0.0003  0.3877
 6138TIP3   OH240048   0.724   5.585   7.006  0.0420 -0.0778  0.1312
 6138TIP3    H140049   0.749   5.607   7.096  0.3557 -0.1971  0.0730
 6138TIP3    H240050   0.805   5.590   6.957 -0.2455  0.6903 -0.2837
 6139TIP3   OH240051   6.791   3.751   7.900  0.3067  0.1852 -0.2805
 6139TIP3    H140052   6.863   3.762   7.962  0.4281  0.8335 -0.5258
 6139TIP3    H240053   6.726   3.817   7.926  0.9861  1.4785 -1.7087
 6140TIP3   OH240054   0.806   6.462   0.939  0.0732  0.3381  0.0217
 6140TIP3    H140055   0.754   6.407   0.881  1.2027  0.0824 -0.7778
 6140TIP3    H240056   0.766   6.549   0.933 -0.1204  0.2017 -0.7644
 6141TIP3   OH240057   1.209   3.699   1.419  0.3225 -0.3095 -0.1984
 6141TIP3    H140058   1.271   3.756   1.373  0.3059  1.2238  1.5496
 6141TIP3    H240059   1.262   3.627   1.451  0.9000  0.1614 -0.0744
 6142TIP3   OH240060   4.277   5.199   2.549  0.2400  0.1316 -0.5954
 6142TIP3    H140061   4.274   5.199   2.644 -1.1311 -2.0670 -0.5634
 6142TIP3    H240062   4.348   5.259   2.526  1.6905 -0.5489  1.8387
 6143TIP3   OH240063   0.314   2.046   1.355 -0.6664  0.2766  0.0354
 6143TIP3    H140064   0.356   1.992   1.287  1.7889  1.6117  0.3616
 6143TIP3    H240065   0.221   2.024   1.349 -0.2671 -1.1795 -2.3502
 6144TIP3   OH240066   4.162   3.722   0.457  0.0230  0.1111  0.3395
 6144TIP3    H140067   4.198   3.810   0.470  1.3685 -0.3559  0.0016
 6144TIP3    H240068   4.096   3.733   0.388  1.2496  0.6364 -0.8004
 6145TIP3   OH240069   6.034   3.187   1.832  0.1791  0.2489 -0.0307
 6145TIP3    H140070   6.009   3.141   1.751 -0.1041 -0.6847  0.5690
 6145TIP3    H240071   6.041   3.117   1.897  0.6112  0.9701  0.7046
 6146TIP3   OH240072   6.319   4.989   1.749  0.0825 -0.0276  0.4036
 6146TIP3    H140073   6.273   4.967   1.830  0.6108 -0.3308  0.6219
 6146TIP3    H240074   6.250   4.991   1.682 -0.2454 -0.5007  0.7223
 6147TIP3   OH240075   1.605   6.578   7.698  0.7991 -0.4377  0.2042
 6147TIP3    H140076   1.570   6.533   7.775 -1.3169  1.5846  0.5602
 6147TIP3    H240077   1.587   6.518   7.625 -0.1009 -1.0461  0.8973
 6148TIP3   OH240078   1.506   2.042   0.673 -0.2511  0.1999 -0.2790
 6148TIP3    H140079   1.514   2.067   0.581 -2.3612  0.6783 -0.3842
 6148TIP3    H240080   1.549   2.114   0.721 -0.3768  0.6568 -0.8442
 6149TIP3   OH240081   1.618   4.796   7.566  0.5482  0.5170  0.6930
 6149TIP3    H140082   1.555   4.868   7.560 -1.8909 -1.3538  2.0560
 6149TIP3    H240083   1.666   4.799   7.483  0.0888  3.2724  0.4465
 6150TIP3   OH240084   1.861   5.240   7.211 -0.1762  0.1625 -0.4727
 6150TIP3    H140085   1.875   5.287   7.130 -0.5696  1.8994  0.4266
 6150TIP3    H240086   1.810   5.299   7.265  2.3054  0.2170  2.0639
 6151TIP3   OH240087   3.365   2.149   7.008  0.5461  0.5580  0.2476
 6151TIP3    H140088   3.271   2.140   6.994  0.2911  0.2047  2.0196
 6151TIP3    H240089   3.404   2.084   6.949 -0.3751 -0.0627  0.3010
 6152TIP3   OH240090   3.196   4.427   7.315 -0.3692  0.1524 -0.0531
 6152TIP3    H140091   3.161   4.514   7.300 -2.3548 -0.5412  0.1800
 6152TIP3    H240092   3.162   4.402   7.401  2.3163  0.1133  1.0913
 6153TIP3   OH240093   1.854   3.199   7.375  0.5601 -0.4845  0.0217
 6153TIP3    H140094   1.815   3.143   7.309 -0.4670  1.2868 -0.9602
 6153TIP3    H240095   1.914   3.255   7.325  1.7104 -0.8190  0.9939
 6154TIP3   OH240096   5.511   0.511   8.443 -0.0939 -0.3515  0.1935
 6154TIP3    H140097   5.577   0.476   8.503  0.1601  2.3272  1.6127
 6154TIP3    H240098   5.433   0.458   8.460  0.4450 -0.7062  1.7020
 6155TIP3   OH240099   5.889   3.265   0.040 -0.2458  0.4865  0.3482
 6155TIP3    H140100   5.939   3.184   0.053  1.2741  1.0760 -1.2984
 6155TIP3    H240101   5.806   3.236   0.003  0.4562 -0.3262 -0.6661
 6156TIP3   OH240102   1.277   1.686   7.589  0.2324  0.0543 -0.3443
 6156TIP3    H140103   1.228   1.604   7.597 -0.1303  0.1519 -1.4143
 6156TIP3    H240104   1.216   1.747   7.549  0.8428  0.5405 -0.5519
 6157TIP3   OH240105   0.408   5.698   6.578  0.3682 -0.1053  0.0512
 6157TIP3    H140106   0.463   5.626   6.609  1.6783  0.2810 -1.2321
 6157TIP3    H240107   0.463   5.776   6.589 -0.7301  0.5994  0.6733
 6158TIP3   OH240108   2.541   0.561   0.126  0.4034  0.0809  0.1356
 6158TIP3    H140109   2.475   0.579   0.059 -0.9467 -2.2585  0.7258
 6158TIP3    H240110   2.593   0.641   0.131 -0.7445  1.0649 -2.2103
 6159TIP3   OH240111   2.829   1.417   7.946  0.4986 -0.1206 -0.6486
 6159TIP3    H140112   2.896   1.398   8.012  0.5013 -0.9627 -0.8803
 6159TIP3    H240113   2.865   1.382   7.864 -1.2537 -2.8988 -0.3418
 6160TIP3   OH240114   5.956   2.476   8.336 -0.0173 -0.2435 -0.2710
 6160TIP3    H140115   5.879   2.421   8.351 -1.0568  0.9582 -1.0576
 6160TIP3    H240116   5.997   2.440   8.257  0.2944 -0.9213  0.1840
 6161TIP3   OH240117   0.370   3.074   1.392  0.3603 -0.1009  0.2168
 6161TIP3    H140118   0.430   3.083   1.466  1.5951  0.5111 -0.8084
 6161TIP3    H240119   0.365   3.162   1.355  2.9785 -1.0020 -2.7807
 6162TIP3   OH240120   1.185   3.730   1.791 -0.1923 -0.3511  0.5880
 6162TIP3    H140121   1.242   3.805   1.807 -0.2833 -0.2457  0.4345
 6162TIP3    H240122   1.145   3.711   1.876 -0.0186 -0.3497  0.6687
 6163TIP3   OH240123   4.376   4.727   0.493 -0.1287  0.0822  0.0970
 6163TIP3    H140124   4.350   4.819   0.482 -0.3203 -0.0327 -0.4881
 6163TIP3    H240125   4.444   4.714   0.427 -0.1239 -0.2018  0.1562
 6164TIP3   OH240126   0.253   3.405   6.707 -0.1827  0.1260  0.0581
 6164TIP3    H140127   0.346   3.414   6.683  0.2888 -0.8317  1.3447
 6164TIP3    H240128   0.252   3.420   6.802 -1.4123  0.4827  0.0013
 6165TIP3   OH240129   0.805   6.804   1.405  0.4474 -0.0967  0.3788
 6165TIP3    H140130   0.772   6.876   1.350  0.3386 -1.1781 -1.0274
 6165TIP3    H240131   0.727   6.767   1.446  0.3832 -0.0496  0.3000
 6166TIP3   OH240132   4.729   1.538   1.023  0.1750 -0.2864  0.0728
 6166TIP3    H140133   4.702   1.581   1.104 -2.3276 -2.2795  0.4145
 6166TIP3    H240134   4.801   1.592   0.990 -0.8945  2.4624  1.8928
 6167TIP3   OH240135   2.173   6.894   7.337  0.1695  0.4547  0.0435
 6167TIP3    H140136   2.169   6.827   7.268  0.4555  1.4483 -0.9667
 6167TIP3    H240137   2.156   6.846   7.418 -1.4882 -0.5427 -0.8358
 6168TIP3   OH240138   4.718   2.478   8.403  0.3504  0.3830  0.0686
 6168TIP3    H140139   4.684   2.450   8.487 -0.7291 -0.3466 -0.5902
 6168TIP3    H240140   4.701   2.405   8.344  1.7910  0.5668 -0.6219
 6169TIP3   OH240141   6.059   2.371   8.115  0.4690  0.0902 -0.1461
 6169TIP3    H140142   6.137   2.316   8.115 -0.2569 -1.0060 -0.7708
 6169TIP3    H240143   6.039   2.384   8.022 -0.4543 -0.2354 -0.0136
 6170TIP3   OH240144   1.431   2.890   8.255 -0.0144  0.7866  0.0907
 6170TIP3    H140145   1.524   2.912   8.249  0.1459 -0.0570 -0.8904
 6170TIP3    H240146   1.393   2.922   8.173 -0.1906 -0.5413 -0.3768
 6171TIP3   OH240147   3.638   3.242   0.498  0.8467 -0.0789  0.1601
 6171TIP3    H140148   3.580   3.168   0.478 -0.8941  0.9121  1.2540
 6171TIP3    H240149   3.634   3.297   0.420 -0.4881  0.4342  0.5523
 6172TIP3   OH240150   2.952   3.637   0.824 -0.7614 -0.4774 -0.4504
 6172TIP3    H140151   3.046   3.654   0.835 -0.7917 -1.3170  1.3233
 6172TIP3    H240152   2.911   3.723   0.831 -0.1999 -0.2122 -0.3691
 6173TIP3   OH240153   2.770   0.188   1.348 -0.3397 -0.0854  0.3251
 6173TIP3    H140154   2.819   0.256   1.394 -1.1361 -1.3588  3.3291
 6173TIP3    H240155   2.799   0.195   1.257  2.0358  2.0887  1.1121
 6174TIP3   OH240156   1.597   5.651   1.735 -0.3199 -0.2006  0.1549
 6174TIP3    H140157   1.592   5.673   1.828  1.9533  1.9039 -0.0828
 6174TIP3    H240158   1.529   5.705   1.694 -0.3775 -0.0363  0.4617
 6175TIP3   OH240159   6.174   2.295   7.184 -0.3322 -0.2516 -0.4913
 6175TIP3    H140160   6.168   2.340   7.099 -0.6495  1.1154  0.2193
 6175TIP3    H240161   6.208   2.362   7.244 -1.1447 -0.8630  0.6928
 6176TIP3   OH240162   0.907   5.751   1.639 -0.2406  0.8053 -0.4108
 6176TIP3    H140163   0.834   5.689   1.644  0.7838 -0.4617 -0.6212
 6176TIP3    H240164   0.951   5.729   1.558  2.0123 -0.3816  1.0395
 6177TIP3   OH240165   1.706   5.427   7.349 -0.6327 -0.0605 -0.2964
 6177TIP3    H140166   1.688   5.373   7.426  1.4299 -0.5974 -0.1376
 6177TIP3    H240167   1.738   5.510   7.384 -3.0236  1.0656 -0.5624
 6178TIP3   OH240168   2.619   4.764   1.290  0.0191 -0.4889  0.1216
 6178TIP3    H140169   2.578   4.847   1.314 -1.2759 -1.0911  0.1186
 6178TIP3    H240170   2.667   4.782   1.210 -1.3339 -0.0180 -0.6156
 6179TIP3   OH240171   5.836   0.404   7.048 -0.4558  0.3058  0.0255
 6179TIP3    H140172   5.909   0.344   7.032 -1.1533 -0.5650  0.0668
 6179TIP3    H240173   5.794   0.414   6.962 -0.3610  0.7149  0.0251
 6180TIP3   OH240174   2.881   5.158   6.641 -0.3031 -0.1677 -0.1680
 6180TIP3    H140175   2.811   5.099   6.613  0.3745 -2.3290  2.3140
 6180TIP3    H240176   2.961   5.107   6.632  0.6747  1.3495 -0.4645
 6181TIP3   OH240177   5.172   2.036   1.403  0.0050 -0.3265  0.6317
 6181TIP3    H140178   5.255   2.025   1.355 -0.8763  2.1617 -1.7466
 6181TIP3    H240179   5.196   2.084   1.482  1.0464 -1.0970  0.7936
 6182TIP3   OH240180   4.341   1.870   6.459  0.3492 -0.2277  0.1676
 6182TIP3    H140181   4.391   1.922   6.396  0.1820 -0.5235 -0.2070
 6182TIP3    H240182   4.296   1.804   6.406  0.3052 -0.5527  0.6070
 6183TIP3   OH240183   1.058   2.572   6.889  0.1165 -0.1109 -0.2598
 6183TIP3    H140184   1.122   2.641   6.905  1.0056 -0.5127 -1.8371
 6183TIP3    H240185   1.012   2.600   6.810 -0.6728 -0.5200  0.0437
 6184TIP3   OH240186   3.111   1.502   1.149  0.4544 -0.0080  0.5923
 6184TIP3    H140187   3.044   1.462   1.203  0.4465 -1.2908 -0.3311
 6184TIP3    H240188   3.098   1.596   1.160  1.6764 -0.1087  4.3340
 6185TIP3   OH240189   6.125   0.568   0.787  0.6838  0.3337 -0.4308
 6185TIP3    H140190   6.107   0.488   0.837 -0.8814  0.1352 -1.2435
 6185TIP3    H240191   6.160   0.536   0.704  2.4944  0.6368  0.1508
 6186TIP3   OH240192   6.254   2.144   8.174 -0.2942  0.5698 -0.1936
 6186TIP3    H140193   6.349   2.138   8.158 -0.6598 -1.2204 -2.2211
 6186TIP3    H240194   6.247   2.165   8.267  2.1027 -0.0916  0.2280
 6187TIP3   OH240195   0.607   5.835   7.632 -0.5428 -0.6144 -0.0330
 6187TIP3    H140196   0.622   5.806   7.542  1.0277 -1.8089  0.5439
 6187TIP3    H240197   0.675   5.901   7.647 -0.4827 -0.7761  0.4123
 6188TIP3   OH240198   2.794   5.464   7.574  0.2371 -0.2592  0.0851
 6188TIP3    H140199   2.760   5.497   7.492 -0.7435  1.3116  1.0814
 6188TIP3    H240200   2.750   5.380   7.587  1.3456 -1.1588 -1.5517
 6189TIP3   OH240201   1.561   3.861   6.908 -0.1536  0.0524 -1.2525
 6189TIP3    H140202   1.521   3.879   6.823 -0.6348  0.9125 -0.8493
 6189TIP3    H240203   1.655   3.862   6.891 -0.2233  0.9986 -1.6338
 6190TIP3   OH240204   6.014   5.543   7.433 -0.4628  0.4959  0.3625
 6190TIP3    H140205   5.982   5.453   7.421 -1.5384  0.9638 -0.4251
 6190TIP3    H240206   6.072   5.537   7.509 -0.2532 -0.9256  0.1307
 6191TIP3   OH240207   2.732   4.257   7.729  0.8301 -0.4624 -0.2200
 6191TIP3    H140208   2.702   4.343   7.696  0.1158 -0.8686 -0.6639
 6191TIP3    H240209   2.654   4.201   7.723  1.0887 -0.9418  0.7987
 6192TIP3   OH240210   2.121   1.864   1.123 -0.4886 -0.1195 -0.0431
 6192TIP3    H140211   2.057   1.909   1.179 -3.0481 -1.5382 -1.6205
 6192TIP3    H240212   2.107   1.901   1.036  1.2413 -0.1374 -0.3669
 6193TIP3   OH240213   6.178   0.066   1.736 -0.4373  0.0932  0.3905
 6193TIP3    H140214   6.108   0.131   1.729 -1.1585 -0.5960  1.0425
 6193TIP3    H240215   6.163   0.008   1.662 -0.1023  0.3648  0.1055
 6194TIP3   OH240216   1.738   0.591   2.428  0.4165  0.1434  0.1632
 6194TIP3    H140217   1.764   0.502   2.404  2.4376  0.8705 -0.6155
 6194TIP3    H240218   1.704   0.583   2.517 -2.0274 -1.7875 -0.8218
 6195TIP3   OH240219   2.673   2.548   0.228  0.4172  0.3160  0.2206
 6195TIP3    H140220   2.623   2.506   0.298  0.4371  0.9306  0.6159
 6195TIP3    H240221   2.617   2.541   0.151  0.3433 -0.2614  0.3252
 6196TIP3   OH240222   5.521   1.496   1.717 -0.4653 -0.4025  0.2234
 6196TIP3    H140223   5.428   1.471   1.723 -0.6407  0.4085  1.2944
 6196TIP3    H240224   5.568   1.413   1.719 -1.1461 -0.7910  0.7686
 6197TIP3   OH240225   3.727   5.753   7.045 -0.0083 -0.1825  0.3803
 6197TIP3    H140226   3.633   5.771   7.044  0.1097  0.4754  0.2666
 6197TIP3    H240227   3.749   5.743   7.137 -0.3506 -1.2772  0.3554
 6198TIP3   OH240228   0.364   6.495   0.666  0.3008 -0.0833 -0.2243
 6198TIP3    H140229   0.292   6.432   0.670 -0.0392  0.3089 -0.1263
 6198TIP3    H240230   0.364   6.536   0.752  0.4067  0.1774 -0.3492
 6199TIP3   OH240231   3.765   5.811   1.019  0.2803  0.0806 -0.6361
 6199TIP3    H140232   3.695   5.853   1.069  0.4806 -1.2353  0.8132
 6199TIP3    H240233   3.844   5.863   1.039  0.0819  0.4541 -0.8080
 6200TIP3   OH240234   6.420   0.162   6.992  0.3204  0.1674 -0.4603
 6200TIP3    H140235   6.453   0.251   6.989 -2.8152  1.4474 -2.3285
 6200TIP3    H240236   6.378   0.154   7.077  3.3124 -0.8029  1.0883
 6201TIP3   OH240237   3.594   1.799   8.620 -0.0134  0.5397 -0.4038
 6201TIP3    H140238   3.679   1.832   8.591  0.5106 -1.2710 -1.1077
 6201TIP3    H240239   3.581   1.719   8.568  0.3276 -2.1334  3.2253
 6202TIP3   OH240240   5.283   2.346   8.528  0.7135  0.2521 -0.2172
 6202TIP3    H140241   5.275   2.426   8.476 -0.9481 -1.1024 -2.2225
 6202TIP3    H240242   5.262   2.275   8.466  0.9537 -1.6496  1.7639
 6203TIP3   OH240243   6.046   4.759   1.937 -0.0642  0.0379 -0.0959
 6203TIP3    H140244   6.138   4.785   1.939 -0.0366 -0.0524 -0.1581
 6203TIP3    H240245   5.997   4.840   1.954  0.0719 -0.3151  2.3798
 6204TIP3   OH240246   5.302   2.922   8.198  0.3466 -0.3380 -0.1426
 6204TIP3    H140247   5.302   2.875   8.282  1.5137  0.0354  0.0900
 6204TIP3    H240248   5.349   3.004   8.217  0.6692 -0.2741 -1.1719
 6205TIP3   OH240249   0.329   5.023   6.521 -0.2111  0.1861  0.2508
 6205TIP3    H140250   0.336   4.929   6.539 -1.0226  0.0138 -0.2981
 6205TIP3    H240251   0.239   5.035   6.492 -0.3750  1.2860  1.1551
 6206TIP3   OH240252   6.460   3.419   8.135  0.0473  0.3262  0.8429
 6206TIP3    H140253   6.536   3.370   8.104  0.6681  2.3771 -1.1250
 6206TIP3    H240254   6.398   3.352   8.163  2.6991 -1.4301  3.0493
 6207TIP3   OH240255   3.788   3.049   8.172  0.5236 -0.6521 -0.0511
 6207TIP3    H140256   3.843   3.089   8.240  1.6346 -0.2678 -1.1330
 6207TIP3    H240257   3.845   3.045   8.095 -1.6881  2.2518 -2.0617
 6208TIP3   OH240258   2.338   0.326   6.759 -0.4181  0.2378 -0.2221
 6208TIP3    H140259   2.431   0.324   6.781 -0.6271 -1.9582  0.6267
 6208TIP3    H240260   2.337   0.335   6.663  0.6217  0.9660 -0.1887
 6209TIP3   OH240261   0.273   3.596   7.460 -0.0991 -0.1168  0.3093
 6209TIP3    H140262   0.332   3.532   7.419 -0.1283  0.7820 -1.2272
 6209TIP3    H240263   0.297   3.595   7.553 -1.0742 -3.3794  0.6496
 6210TIP3   OH240264   0.411   6.845   1.303  0.2413 -0.3006 -0.2303
 6210TIP3    H140265   0.461   6.786   1.359 -1.3447 -1.2025  0.2938
 6210TIP3    H240266   0.434   6.933   1.333 -0.7060 -0.7573  2.0068
 6211TIP3   OH240267   6.040   6.020   6.783 -0.5012 -0.2900 -0.2148
 6211TIP3    H140268   6.069   6.043   6.695 -0.9354  0.6526 -0.1178
 6211TIP3    H240269   6.041   5.924   6.784  1.1340 -0.3155 -0.6996
 6212TIP3   OH240270   2.798   5.395   6.741  0.3214 -0.6744 -0.8008
 6212TIP3    H140271   2.710   5.377   6.774  0.1483  1.0451 -0.1970
 6212TIP3    H240272   2.832   5.310   6.714 -0.5374 -1.7876  1.3807
 6213TIP3   OH240273   2.933   3.591   1.493 -0.1409 -0.2015  0.1298
 6213TIP3    H140274   2.983   3.509   1.496 -0.2075 -0.2237  1.4643
 6213TIP3    H240275   2.874   3.585   1.568  0.5165  1.4618  0.8424
 6214TIP3   OH240276   1.831   3.843   0.911 -0.2397  0.3716  0.1528
 6214TIP3    H140277   1.887   3.773   0.877  0.4031  0.9586 -0.0065
 6214TIP3    H240278   1.743   3.804   0.912  0.1331 -0.4943  0.2254
 6215TIP3   OH240279   6.602   4.875   1.118  0.4908 -0.2411  0.3169
 6215TIP3    H140280   6.681   4.910   1.161  1.8404 -1.8699 -0.6950
 6215TIP3    H240281   6.612   4.780   1.124 -0.4037 -0.5010 -1.5842
 6216TIP3   OH240282   6.006   0.820   0.367 -0.4266  0.3662  0.5455
 6216TIP3    H140283   5.932   0.784   0.318 -0.8491 -0.1533  1.5345
 6216TIP3    H240284   5.989   0.794   0.458  1.8397 -1.2676  0.5715
 6217TIP3   OH240285   2.424   6.660   2.079 -0.2608  0.2988  0.5312
 6217TIP3    H140286   2.492   6.592   2.087 -1.2158 -0.8372 -0.4297
 6217TIP3    H240287   2.468   6.741   2.104  0.6212 -0.8049  2.8838
 6218TIP3   OH240288   3.655   0.734   0.342  0.0326 -0.0471 -0.0575
 6218TIP3    H140289   3.635   0.656   0.290  0.1844 -0.3992  0.4162
 6218TIP3    H240290   3.569   0.768   0.368 -0.0130 -0.3810  0.2239
 6219TIP3   OH240291   1.162   5.475   7.299 -0.8164 -0.6587 -0.8441
 6219TIP3    H140292   1.134   5.426   7.375  0.2133 -1.3741 -0.9108
 6219TIP3    H240293   1.222   5.542   7.334 -3.6447  1.9292 -0.4786
 6220TIP3   OH240294   4.776   6.190   1.802 -0.0091 -0.0573  0.0191
 6220TIP3    H140295   4.838   6.210   1.733 -0.1561 -0.2943 -0.1820
 6220TIP3    H240296   4.815   6.227   1.881 -0.5437  1.5523 -0.4310
 6221TIP3   OH240297   0.365   5.829   1.172 -0.4592 -0.0992 -0.3161
 6221TIP3    H140298   0.312   5.790   1.104  0.8932 -0.3611 -1.2641
 6221TIP3    H240299   0.375   5.760   1.238  0.4305 -0.7799 -1.1365
 6222TIP3   OH240300   5.705   6.076   7.240 -0.0597  0.3654  0.2296
 6222TIP3    H140301   5.609   6.069   7.236 -0.0021 -0.7707  0.2942
 6222TIP3    H240302   5.724   6.165   7.211 -0.9994 -0.1606 -2.3098
 6223TIP3   OH240303   2.885   2.014   0.495  0.3622 -0.3451  0.3179
 6223TIP3    H140304   2.793   2.004   0.472 -0.0906  2.5778  0.4727
 6223TIP3    H240305   2.919   1.924   0.501 -2.2426 -1.4635 -0.5412
 6224TIP3   OH240306   4.510   5.335   2.040  0.0776 -0.1983  0.0972
 6224TIP3    H140307   4.425   5.378   2.056  0.9173  1.4487  0.4166
 6224TIP3    H240308   4.525   5.283   2.119 -1.1958 -1.5467 -0.5045
 6225TIP3   OH240309   0.585   3.522   6.458  0.3297 -0.2165  0.0095
 6225TIP3    H140310   0.522   3.519   6.386 -0.4320  0.6730  0.6136
 6225TIP3    H240311   0.562   3.447   6.513 -0.5535  0.3840  0.4892
 6226TIP3   OH240312   2.090   0.713   6.712 -0.5337 -0.0712  0.1635
 6226TIP3    H140313   2.113   0.737   6.622  0.7335  0.0281  0.4926
 6226TIP3    H240314   1.995   0.704   6.711 -0.7405  1.6729 -0.7753
 6227TIP3   OH240315   4.404   3.862   6.519  0.0084  0.1903  0.4587
 6227TIP3    H140316   4.402   3.857   6.614  0.0073  0.2248  0.4603
 6227TIP3    H240317   4.367   3.948   6.498  0.5181  0.4134  0.4527
 6228TIP3   OH240318   1.504   2.254   8.424  0.5768 -0.5866  0.0508
 6228TIP3    H140319   1.598   2.236   8.433  0.7787 -0.3163 -1.3051
 6228TIP3    H240320   1.463   2.167   8.425  0.9512 -0.7725 -0.4763
 6229TIP3   OH240321   6.744   3.258   1.903 -0.6232 -0.2982  0.1130
 6229TIP3    H140322   6.748   3.274   1.998  0.5185 -1.8713  0.3711
 6229TIP3    H240323   6.820   3.304   1.868  0.2332 -1.4961  0.3007
 6230TIP3   OH240324   0.580   3.483   1.810  0.3035 -0.4962 -0.1713
 6230TIP3    H140325   0.574   3.550   1.742  1.2731  1.4937  1.6105
 6230TIP3    H240326   0.514   3.508   1.875  1.6156 -0.4360  1.1818
 6231TIP3   OH240327   0.751   3.533   0.119  0.4854  0.4195  0.3714
 6231TIP3    H140328   0.837   3.506   0.087  0.1595  0.0405 -0.2124
 6231TIP3    H240329   0.723   3.461   0.176 -0.0914 -0.1753 -0.6451
 6232TIP3   OH240330   6.162   5.896   8.321  0.2770 -0.3666  0.1445
 6232TIP3    H140331   6.120   5.872   8.403  1.5888  1.0857  1.3068
 6232TIP3    H240332   6.130   5.985   8.303  0.7009 -0.3276 -0.4296
 6233TIP3   OH240333   0.825   4.927   2.469  0.2717  0.0350  0.2350
 6233TIP3    H140334   0.808   5.015   2.433  0.5593  0.0574  0.1477
 6233TIP3    H240335   0.754   4.873   2.434 -0.0050  0.2696  0.4272
 6234TIP3   OH240336   5.571   4.407   6.729 -0.0972  0.5953  0.3108
 6234TIP3    H140337   5.557   4.330   6.784  0.4886  0.4725  0.2988
 6234TIP3    H240338   5.484   4.446   6.718 -0.3316  0.1729  0.6653
 6235TIP3   OH240339   4.060   0.592   1.608  0.1559 -0.0677 -0.0430
 6235TIP3    H140340   3.998   0.646   1.656  0.3588 -0.3875  0.5992
 6235TIP3    H240341   4.023   0.584   1.520 -0.5632 -0.0219  0.2538
 6236TIP3   OH240342   1.440   1.112   0.986  0.0609  0.3292 -0.5483
 6236TIP3    H140343   1.390   1.032   1.003 -0.3064  1.0656  2.3011
 6236TIP3    H240344   1.373   1.177   0.963  0.0143  0.5276  0.1195
 6237TIP3   OH240345   2.697   0.976   2.298  0.2523  0.1387 -0.2429
 6237TIP3    H140346   2.791   0.971   2.282  0.0924  0.3360 -1.2756
 6237TIP3    H240347   2.663   1.033   2.229 -0.6130  0.1695  0.1889
 6238TIP3   OH240348   0.243   4.681   0.224 -0.2876 -0.0486 -0.6104
 6238TIP3    H140349   0.273   4.592   0.210 -1.3323 -0.5780  0.3912
 6238TIP3    H240350   0.252   4.723   0.138  1.5739 -0.6613 -0.7677
 6239TIP3   OH240351   0.795   4.755   0.305 -0.1894  0.1010  0.1338
 6239TIP3    H140352   0.871   4.749   0.362 -0.1894 -2.3885 -0.0164
 6239TIP3    H240353   0.779   4.849   0.295  2.1788  0.6531  1.0303
 6240TIP3   OH240354   6.134   6.839   8.187  0.1947  0.6140 -0.3297
 6240TIP3    H140355   6.145   6.890   8.107  1.3315  0.5009 -0.2628
 6240TIP3    H240356   6.222   6.834   8.225 -0.3481  0.8303  1.0260
 6241TIP3   OH240357   4.846   2.392   1.135 -0.3362  0.1031  1.0386
 6241TIP3    H140358   4.813   2.316   1.087 -1.4217 -0.6194  2.8150
 6241TIP3    H240359   4.941   2.381   1.133 -0.3690 -0.1593 -0.4768
 6242TIP3   OH240360   6.705   2.075   7.223 -0.1986 -0.2928  0.5287
 6242TIP3    H140361   6.755   2.023   7.160  0.0497 -0.2098  0.6583
 6242TIP3    H240362   6.624   2.025   7.236 -0.5563  0.0238 -0.3785
 6243TIP3   OH240363   1.593   1.887   7.170  0.5243 -0.0273  0.5320
 6243TIP3    H140364   1.574   1.954   7.104  0.8435 -0.2290  0.2282
 6243TIP3    H240365   1.574   1.804   7.125  0.1428 -0.1361  0.9009
 6244TIP3   OH240366   6.903   4.797   6.308 -0.1164 -0.6064  0.2521
 6244TIP3    H140367   6.837   4.748   6.358 -0.4720 -1.0486 -0.6100
 6244TIP3    H240368   6.905   4.753   6.223 -0.5661  0.9889 -0.6256
 6245TIP3   OH240369   5.679   1.554   0.821 -0.4904 -0.1544 -0.2070
 6245TIP3    H140370   5.724   1.524   0.899  1.8292  0.6374 -1.1565
 6245TIP3    H240371   5.699   1.488   0.754 -0.1305  0.5579 -0.8191
 6246TIP3   OH240372   1.325   0.341   1.503  0.2270 -0.9110  0.1907
 6246TIP3    H140373   1.395   0.395   1.466 -1.3270  1.9274  1.0255
 6246TIP3    H240374   1.277   0.309   1.427 -0.8839  1.9463 -0.4347
 6247TIP3   OH240375   4.622   2.277   7.905 -0.5529 -0.0875  0.0087
 6247TIP3    H140376   4.693   2.261   7.842 -0.2439 -0.1836  0.3789
 6247TIP3    H240377   4.552   2.315   7.852 -0.1785  0.1255 -0.3441
 6248TIP3   OH240378   2.483   2.494   0.730  0.4686  0.1189  0.3734
 6248TIP3    H140379   2.389   2.475   0.735  0.4622  0.2730  0.9777
 6248TIP3    H240380   2.502   2.498   0.637 -0.0339 -0.3632  0.2466
 6249TIP3   OH240381   5.126   1.959   0.335  0.4937  0.3449 -0.7707
 6249TIP3    H140382   5.087   2.046   0.333 -1.1410 -0.3671 -1.3237
 6249TIP3    H240383   5.141   1.942   0.428 -1.3939  0.2881 -0.4428
 6250TIP3   OH240384   0.022   2.875   2.424 -0.2297 -0.0152  0.0054
 6250TIP3    H140385   0.011   2.965   2.454  0.7402  0.4331 -0.8938
 6250TIP3    H240386  -0.037   2.868   2.348  0.8938  0.4017 -0.9336
 6251TIP3   OH240387   3.827   0.314   1.051  0.0836  0.6783 -0.2747
 6251TIP3    H140388   3.905   0.300   0.997  0.2412  0.1408  0.0810
 6251TIP3    H240389   3.772   0.238   1.032 -0.6132  1.3359 -0.9526
 6252TIP3   OH240390   4.299   3.435   7.864 -0.2168 -0.6958  0.5494
 6252TIP3    H140391   4.250   3.357   7.837 -0.6698 -0.5300  0.8722
 6252TIP3    H240392   4.278   3.501   7.798  0.8249 -1.0780 -0.1917
 6253TIP3   OH240393   0.898   5.160   0.181  0.2115 -0.2028 -0.2675
 6253TIP3    H140394   0.948   5.189   0.104 -0.5558 -4.0482 -2.4586
 6253TIP3    H240395   0.807   5.162   0.152 -0.3429  0.4437  1.4119
 6254TIP3   OH240396   0.398   4.361   2.391 -0.7653 -0.3358  0.0736
 6254TIP3    H140397   0.338   4.288   2.403  0.1796 -1.1410  0.0775
 6254TIP3    H240398   0.485   4.321   2.394 -0.2591  0.4473 -2.0554
 6255TIP3   OH240399   0.862   1.071   0.214 -0.2653 -0.1392 -0.1585
 6255TIP3    H140400   0.769   1.090   0.223 -0.4579 -0.9377 -0.4265
 6255TIP3    H240401   0.888   1.118   0.135 -0.7343 -0.9400 -0.8010
 6256TIP3   OH240402   1.444   3.721   6.072 -0.4811 -0.0294  0.3545
 6256TIP3    H140403   1.490   3.737   5.990  0.0603  0.5000  0.7600
 6256TIP3    H240404   1.393   3.801   6.088  0.5041  0.4431  1.2426
 6257TIP3   OH240405   6.392   5.056   1.490 -0.4860  0.1188  0.1725
 6257TIP3    H140406   6.384   5.070   1.585 -1.7580 -1.0449  0.2719
 6257TIP3    H240407   6.458   4.987   1.482  0.2326  0.7954  0.1427
 6258TIP3   OH240408   3.683   6.515   0.595  0.1947  0.3996  0.0946
 6258TIP3    H140409   3.753   6.531   0.658  0.5250  0.0320 -0.1743
 6258TIP3    H240410   3.722   6.535   0.510  0.2386 -0.6060 -0.1359
 6259TIP3   OH240411   3.878   0.870   0.082  0.1362 -0.4379 -0.6023
 6259TIP3    H140412   3.913   0.940   0.027  0.1957 -1.3182 -1.7205
 6259TIP3    H240413   3.792   0.901   0.108  1.7533  1.9824  2.5686
 6260TIP3   OH240414   1.308   2.766   1.530  0.3509  0.1341  0.3198
 6260TIP3    H140415   1.243   2.832   1.553 -2.0058 -1.2987 -1.6703
 6260TIP3    H240416   1.258   2.700   1.481  3.2661 -1.2631 -0.9969
 6261TIP3   OH240417   0.719   2.653   7.978 -0.2561 -0.1604  0.0379
 6261TIP3    H140418   0.669   2.583   8.019  0.4247 -0.0133  1.1699
 6261TIP3    H240419   0.733   2.623   7.888 -2.2479 -0.2497 -0.2980
 6262TIP3   OH240420   4.230   5.622   7.838 -0.1396 -0.7371 -0.0596
 6262TIP3    H140421   4.302   5.566   7.808 -1.3487 -2.0852 -0.5619
 6262TIP3    H240422   4.165   5.561   7.873 -1.1888  0.4129  0.0738
 6263TIP3   OH240423   0.334   0.891   6.924 -0.5904  0.3385  0.1398
 6263TIP3    H140424   0.357   0.901   7.017 -0.0843  0.6891 -0.0185
 6263TIP3    H240425   0.242   0.918   6.919 -1.0288 -0.9732  0.7643
 6264TIP3   OH240426   3.424   4.127   8.048  0.1412 -0.1281 -0.5243
 6264TIP3    H140427   3.403   4.133   8.141  0.1851  1.0572 -0.5767
 6264TIP3    H240428   3.505   4.076   8.045 -0.3547 -0.9733  0.0014
 6265TIP3   OH240429   2.381   6.485   7.293 -0.5790  0.0237 -0.4290
 6265TIP3    H140430   2.345   6.552   7.236  1.3091  0.2654 -1.4136
 6265TIP3    H240431   2.475   6.500   7.292 -0.2560 -1.6157  0.6565
 6266TIP3   OH240432   1.673   4.626   0.700  0.0242  0.1008  0.3156
 6266TIP3    H140433   1.656   4.534   0.724 -1.8794  0.0674 -0.9748
 6266TIP3    H240434   1.759   4.624   0.659  0.1821 -1.0474  0.6475
 6267TIP3   OH240435   5.073   6.036   7.815  0.5349 -0.1291  0.6548
 6267TIP3    H140436   4.994   6.090   7.807  1.1842  0.7341 -0.0204
 6267TIP3    H240437   5.100   6.019   7.724  0.9904 -0.6411  0.8754
 6268TIP3   OH240438   0.893   3.676   6.499  0.1879  0.4611  0.3224
 6268TIP3    H140439   0.808   3.706   6.467  0.4536  2.2594  1.1393
 6268TIP3    H240440   0.872   3.610   6.565 -0.5081 -0.1094 -0.4548
 6269TIP3   OH240441   2.900   1.290   0.754 -0.3415  0.5000  0.2292
 6269TIP3    H140442   2.878   1.203   0.722 -1.2628  0.5258  0.7528
 6269TIP3    H240443   2.953   1.274   0.832  1.8582  0.4381 -1.2035
 6270TIP3   OH240444   6.772   3.479   7.823  0.3027  0.5870 -0.1779
 6270TIP3    H140445   6.805   3.557   7.867 -1.6112  0.6371  1.2652
 6270TIP3    H240446   6.814   3.481   7.737  1.6981  2.1957  0.4813
 6271TIP3   OH240447   4.286   2.274   0.208  0.0536 -0.4024 -0.1877
 6271TIP3    H140448   4.359   2.294   0.148  0.9370 -1.8219  0.3614
 6271TIP3    H240449   4.228   2.349   0.200  0.3582 -0.3292 -2.4890
 6272TIP3   OH240450   5.729   6.254   1.839 -0.0527  0.1189  0.9436
 6272TIP3    H140451   5.707   6.314   1.910  2.4898  0.6903  1.3292
 6272TIP3    H240452   5.708   6.167   1.874  0.3880  0.4559  2.1036
 6273TIP3   OH240453   5.148   5.835   7.967  0.0547  0.2897  0.2639
 6273TIP3    H140454   5.115   5.900   7.906  0.5211  0.3060  0.0203
 6273TIP3    H240455   5.171   5.759   7.913 -0.1916  0.0384  0.5054
 6274TIP3   OH240456   6.721   0.572   7.151 -0.6739 -0.1631  0.1575
 6274TIP3    H140457   6.791   0.595   7.212  0.0014  0.6837 -0.8940
 6274TIP3    H240458   6.755   0.497   7.102 -0.5163  0.2258 -0.3301
 6275TIP3   OH240459   4.091   1.399   7.125 -0.2372 -0.2363  0.0941
 6275TIP3    H140460   4.174   1.371   7.164 -0.5769 -0.1362  0.9119
 6275TIP3    H240461   4.036   1.421   7.200 -1.0917 -0.5404 -0.4295
 6276TIP3   OH240462   2.391   5.648   0.725  0.2655  0.5175  0.1973
 6276TIP3    H140463   2.387   5.617   0.815 -0.8720  1.7841  0.6159
 6276TIP3    H240464   2.322   5.599   0.679  0.6842  0.0496  0.0532
 6277TIP3   OH240465   2.677   5.263   7.121  0.5102  0.2820 -0.1202
 6277TIP3    H140466   2.678   5.181   7.170  1.9154  0.5900  0.4033
 6277TIP3    H240467   2.595   5.260   7.072  0.1069 -1.0197  0.5789
 6278TIP3   OH240468   0.536   2.387   6.936 -0.1737  0.3385 -0.4363
 6278TIP3    H140469   0.532   2.374   7.031  1.0818  0.1534 -0.3988
 6278TIP3    H240470   0.552   2.300   6.900 -1.7319  0.2166 -0.9283
 6279TIP3   OH240471   4.208   1.494   8.224  0.1560 -0.7283  0.4177
 6279TIP3    H140472   4.158   1.435   8.168 -0.2511 -0.2619  0.2825
 6279TIP3    H240473   4.152   1.508   8.301  0.0235 -0.1328  0.2228
 6280TIP3   OH240474   5.954   0.788   8.523  0.7848 -0.5550  0.4101
 6280TIP3    H140475   5.872   0.766   8.479  0.7575 -2.2078  1.2134
 6280TIP3    H240476   5.984   0.868   8.479 -0.7558 -0.4485 -0.5301
 6281TIP3   OH240477   1.956   6.291   1.267  0.7439 -0.1501 -0.5173
 6281TIP3    H140478   1.891   6.361   1.261  1.3381  0.3769 -0.9135
 6281TIP3    H240479   1.907   6.215   1.300  0.4853  0.9861  1.9595
 6282TIP3   OH240480   5.935   2.873   1.437  0.7203 -0.7859  0.4455
 6282TIP3    H140481   5.914   2.786   1.471 -1.2376 -0.0808  1.1772
 6282TIP3    H240482   5.870   2.888   1.368  1.4055 -0.1256 -0.0794
 6283TIP3   OH240483   5.662   2.992   0.337  0.0128 -0.0211 -0.3725
 6283TIP3    H140484   5.720   3.062   0.370  2.9086 -0.7714 -3.3712
 6283TIP3    H240485   5.589   3.039   0.297 -0.8757  1.0020  2.1947
 6284TIP3   OH240486   1.474   2.900   6.246  0.1514  0.0413 -0.5119
 6284TIP3    H140487   1.551   2.879   6.298 -0.4456  2.1836  1.3663
 6284TIP3    H240488   1.420   2.821   6.250  1.4488 -0.8757 -0.4469
 6285TIP3   OH240489   5.042   0.411   1.375 -0.0233  0.1249 -0.4557
 6285TIP3    H140490   5.000   0.473   1.434 -1.6786  1.0051 -2.4423
 6285TIP3    H240491   5.060   0.334   1.429 -0.9268  1.0809  1.2894
 6286TIP3   OH240492   2.256   5.963   0.627 -0.2169 -0.3502  0.8023
 6286TIP3    H140493   2.175   6.012   0.640 -0.9505 -0.8058 -1.6172
 6286TIP3    H240494   2.279   5.931   0.714 -3.1531 -1.0212  1.4385
 6287TIP3   OH240495   6.596   1.128   8.280 -0.0541 -0.1909  0.0350
 6287TIP3    H140496   6.624   1.217   8.260  0.3019 -0.3188 -0.0416
 6287TIP3    H240497   6.518   1.115   8.226 -0.8471  0.5045  0.9865
 6288TIP3   OH240498   5.492   0.447   6.955 -0.4566  0.2494  0.2755
 6288TIP3    H140499   5.478   0.538   6.927  1.5007  0.6791  0.5332
 6288TIP3    H240500   5.479   0.450   7.050  1.3345  0.6820  0.5377
 6289TIP3   OH240501   2.604   5.483   8.546 -0.2338  0.2490 -1.0691
 6289TIP3    H140502   2.607   5.391   8.521 -0.8879  0.1021 -0.6326
 6289TIP3    H240503   2.616   5.531   8.464 -2.3816 -0.2196 -1.7100
 6290TIP3   OH240504   3.600   4.956   7.363  0.0969  0.0580 -0.0957
 6290TIP3    H140505   3.694   4.939   7.362 -0.1503 -1.9693  1.7687
 6290TIP3    H240506   3.561   4.874   7.334 -1.1158  0.3259  0.7085
 6291TIP3   OH240507   4.885   4.121   7.350  0.1184 -0.6357  0.2959
 6291TIP3    H140508   4.801   4.134   7.394 -0.1388 -0.7351 -0.1624
 6291TIP3    H240509   4.864   4.066   7.275  0.1178  1.4338 -1.3002
 6292TIP3   OH240510   4.909   1.704   1.729 -0.3950  0.2737 -0.3960
 6292TIP3    H140511   4.925   1.612   1.706  0.3807  0.0105  1.0428
 6292TIP3    H240512   4.979   1.752   1.685  0.6680 -0.1402  0.7543
 6293TIP3   OH240513   1.755   6.224   0.736 -0.8833 -0.2861  0.3645
 6293TIP3    H140514   1.707   6.305   0.722  0.0567  0.3482  0.7018
 6293TIP3    H240515   1.745   6.175   0.654  0.1877  1.0534 -0.6038
 6294TIP3   OH240516   5.774   1.441   1.364 -0.1840 -0.1524  0.2502
 6294TIP3    H140517   5.692   1.468   1.406  0.0160  1.3159 -0.2419
 6294TIP3    H240518   5.841   1.459   1.429 -0.1046  0.0374  0.1174
 6295TIP3   OH240519   0.233   1.960   7.204  0.6598  0.2230 -0.3886
 6295TIP3    H140520   0.279   1.876   7.208  1.5855  0.6421 -1.5817
 6295TIP3    H240521   0.267   2.009   7.279  0.0756 -0.4666  0.3474
 6296TIP3   OH240522   3.975   4.406   8.551  0.2226  0.2261 -0.1945
 6296TIP3    H140523   3.982   4.328   8.605  0.7594  0.5509  0.2165
 6296TIP3    H240524   3.968   4.478   8.614 -2.2646  0.3786 -0.5433
 6297TIP3   OH240525   6.546   6.596   2.175 -0.5384 -1.1395 -0.3103
 6297TIP3    H140526   6.459   6.636   2.169 -1.2181 -2.0896  2.0960
 6297TIP3    H240527   6.530   6.502   2.173  0.6334 -1.3368 -1.5829
 6298TIP3   OH240528   2.844   3.289   2.285 -0.1083 -0.8805 -0.0147
 6298TIP3    H140529   2.855   3.384   2.293  0.2182 -0.8489 -0.7334
 6298TIP3    H240530   2.808   3.277   2.197 -3.0193 -1.2108  1.0813
 6299TIP3   OH240531   0.112   5.723   0.916 -0.8082  0.1225 -0.4783
 6299TIP3    H140532   0.027   5.704   0.875 -0.5444  0.7152 -1.3197
 6299TIP3    H240533   0.162   5.769   0.848  0.0281  0.1766  0.1591
 6300TIP3   OH240534   5.281   3.219   6.438 -0.5532 -0.4213 -0.0890
 6300TIP3    H140535   5.339   3.291   6.462 -0.5315 -0.8367  1.1586
 6300TIP3    H240536   5.193   3.256   6.444 -0.4714  0.0708 -1.5065
 6301TIP3   OH240537   6.053   3.106   0.806  0.1333 -0.3784 -0.0573
 6301TIP3    H140538   6.015   3.029   0.765 -2.2586  1.1311 -0.8806
 6301TIP3    H240539   6.041   3.091   0.900 -0.2987 -1.0080 -0.2034
 6302TIP3   OH240540   3.058   5.202   7.441 -0.1680 -0.0565  1.2894
 6302TIP3    H140541   2.967   5.171   7.441 -0.4440  0.7140  2.0855
 6302TIP3    H240542   3.111   5.124   7.427 -0.9870 -0.3940 -0.1760
 6303TIP3   OH240543   1.971   6.421   6.615  0.3754  0.2424 -0.0562
 6303TIP3    H140544   2.036   6.457   6.555  0.0448  0.2413 -0.4183
 6303TIP3    H240545   1.929   6.498   6.653  1.4166  0.2662  1.1081
 6304TIP3   OH240546   5.860   4.715   0.736  0.2999  0.2888  0.1285
 6304TIP3    H140547   5.873   4.648   0.669  1.7113  0.9357 -0.2737
 6304TIP3    H240548   5.935   4.773   0.727 -1.5824  2.8029 -0.5213
 6305TIP3   OH240549   1.103   2.247   0.637 -0.7621 -0.5635 -0.0942
 6305TIP3    H140550   1.086   2.234   0.544 -0.2718  1.4498 -0.5282
 6305TIP3    H240551   1.154   2.328   0.640 -0.6791 -0.6449  1.9319
 6306TIP3   OH240552   4.112   6.249   7.435 -0.5054  0.6730 -0.0970
 6306TIP3    H140553   4.120   6.165   7.389  0.1855  1.4272 -1.3862
 6306TIP3    H240554   4.018   6.267   7.436 -0.6493 -0.0505  0.0865
 6307TIP3   OH240555   3.606   3.738   0.935 -0.5117  0.0243 -0.3527
 6307TIP3    H140556   3.564   3.732   0.849 -1.5588  0.4702  0.1145
 6307TIP3    H240557   3.535   3.760   0.995 -0.0222 -1.4687  0.8343
 6308TIP3   OH240558   3.281   3.944   6.800  0.6055  0.0133 -0.7093
 6308TIP3    H140559   3.248   3.857   6.780  1.1163 -0.8945  2.0776
 6308TIP3    H240560   3.203   3.993   6.830  0.2863  0.6360 -2.4300
 6309TIP3   OH240561   6.877   2.649   8.192 -0.0393 -0.5705 -0.5436
 6309TIP3    H140562   6.895   2.655   8.098  0.3795  0.2007 -0.4220
 6309TIP3    H240563   6.790   2.609   8.197  0.1009 -0.9919 -1.2424
 6310TIP3   OH240564   2.225   6.110   6.041 -0.3739  0.0395 -0.6355
 6310TIP3    H140565   2.138   6.146   6.056  0.1652  0.9212  0.6007
 6310TIP3    H240566   2.285   6.182   6.062  0.6589 -0.5122 -1.5541
 6311TIP3   OH240567   2.089   0.411   0.075 -0.3064  0.5482  0.2976
 6311TIP3    H140568   2.175   0.451   0.083 -0.1347 -0.1499  3.2031
 6311TIP3    H240569   2.027   0.483   0.087 -0.1020  0.7751 -0.0092
 6312TIP3   OH240570   2.555   0.171   0.230 -0.1855 -0.7405  0.7388
 6312TIP3    H140571   2.489   0.105   0.250  1.3981 -2.4933  0.5290
 6312TIP3    H240572   2.573   0.212   0.315 -0.2665 -1.5239  1.1519
 6313TIP3   OH240573   5.845   4.125   7.842  0.3493  0.0907 -0.2456
 6313TIP3    H140574   5.750   4.125   7.856  0.4344 -0.5779  0.3620
 6313TIP3    H240575   5.860   4.054   7.780  0.4063  0.5588 -0.7860
 6314TIP3   OH240576   1.386   0.741   2.041 -0.6515  0.0928  0.1045
 6314TIP3    H140577   1.349   0.727   2.128 -1.7407  2.4780  0.1129
 6314TIP3    H240578   1.324   0.801   1.998  0.5546  0.0448 -1.8158
 6315TIP3   OH240579   2.499   5.965   0.229  0.5428 -0.2404  0.0690
 6315TIP3    H140580   2.532   5.923   0.150 -1.4422  0.8919 -1.4198
 6315TIP3    H240581   2.466   5.892   0.282  1.0723 -0.9301 -0.5228
 6316TIP3   OH240582   0.292   1.129   0.910 -0.6254 -0.0774  0.3059
 6316TIP3    H140583   0.332   1.076   0.979  0.4800 -0.6331 -0.7079
 6316TIP3    H240584   0.355   1.125   0.838 -0.8372  2.0779 -0.0565
 6317TIP3   OH240585   4.867   3.975   2.470 -0.9762  0.6082  0.3123
 6317TIP3    H140586   4.957   4.007   2.460 -0.4918 -0.6818  0.4486
 6317TIP3    H240587   4.827   4.038   2.530 -0.2750  1.3843 -0.0022
 6318TIP3   OH240588   2.469   4.313   0.653 -0.0219  0.2729  0.0745
 6318TIP3    H140589   2.517   4.279   0.578  0.5999 -0.9553  1.0039
 6318TIP3    H240590   2.534   4.322   0.722 -0.4791  1.9152  0.3395
 6319TIP3   OH240591   5.781   5.180   2.601  0.0907  0.3851  0.7629
 6319TIP3    H140592   5.717   5.209   2.535  0.1374  0.5238  0.7770
 6319TIP3    H240593   5.748   5.216   2.683 -0.7362 -0.9879  1.0515
 6320TIP3   OH240594   4.739   5.623   0.643 -0.3940  0.0160 -0.3627
 6320TIP3    H140595   4.759   5.683   0.570 -1.5737  1.5466  0.5327
 6320TIP3    H240596   4.799   5.650   0.713 -0.9734  0.1955  0.0666
 6321TIP3   OH240597   4.591   6.454   0.214  0.1105 -0.1763 -0.0308
 6321TIP3    H140598   4.545   6.499   0.285 -0.1907 -2.9933  1.7004
 6321TIP3    H240599   4.527   6.450   0.142 -0.6357  0.1684  0.6008
 6322TIP3   OH240600   4.274   6.651   0.642  0.5222  0.6836 -0.0244
 6322TIP3    H140601   4.302   6.726   0.693  1.5452  0.7905 -0.6967
 6322TIP3    H240602   4.193   6.679   0.600  0.7162  1.2989  0.0004
 6323TIP3   OH240603   0.551   1.693   0.762 -0.3278 -0.1942  0.3185
 6323TIP3    H140604   0.543   1.690   0.667  2.7890 -0.8335 -0.0388
 6323TIP3    H240605   0.612   1.765   0.778 -1.2383  0.2716  1.9237
 6324TIP3   OH240606   4.812   2.821   2.432  0.2043  0.0840 -0.2448
 6324TIP3    H140607   4.813   2.877   2.510 -0.7760  0.1756 -0.2912
 6324TIP3    H240608   4.858   2.871   2.365  2.4419 -0.6213  0.6749
 6325TIP3   OH240609   5.378   3.250   0.548 -0.1488  0.6700 -0.6566
 6325TIP3    H140610   5.347   3.164   0.576 -0.0475  0.7210 -0.3829
 6325TIP3    H240611   5.313   3.311   0.581 -0.5198  0.6532 -1.3415
 6326TIP3   OH240612   5.356   5.331   2.613  0.3238  0.0012  0.0992
 6326TIP3    H140613   5.290   5.373   2.558  0.3881 -2.2492 -1.8228
 6326TIP3    H240614   5.308   5.265   2.663  0.8288 -0.3014  0.1928
 6327TIP3   OH240615   0.705   6.936   7.709 -0.7557 -0.8334  0.0253
 6327TIP3    H140616   0.622   6.984   7.710 -1.7448 -2.4713 -0.5073
 6327TIP3    H240617   0.681   6.845   7.722  1.0474 -1.2707  0.6267
 6328TIP3   OH240618   4.694   0.906   6.431 -0.1368  0.1138 -0.6467
 6328TIP3    H140619   4.671   0.926   6.522 -0.8039 -1.6696 -0.3725
 6328TIP3    H240620   4.738   0.821   6.435 -0.9795 -0.4386 -2.0489
 6329TIP3   OH240621   2.040   6.724   0.347  0.4626 -0.4949 -0.3977
 6329TIP3    H140622   2.066   6.779   0.420  0.5788 -0.2085 -0.6541
 6329TIP3    H240623   1.974   6.664   0.384  2.0811 -1.8168  0.4862
 6330TIP3   OH240624   0.319   0.099   7.535  0.1744  0.2195 -0.1071
 6330TIP3    H140625   0.278   0.117   7.450 -1.4722 -1.3773  0.2748
 6330TIP3    H240626   0.285   0.168   7.593 -1.9348 -0.9603  0.1531
 6331TIP3   OH240627   2.025   5.565   7.928  0.5716 -0.5868  0.0745
 6331TIP3    H140628   1.993   5.632   7.868  1.1135 -0.6894 -0.3431
 6331TIP3    H240629   2.044   5.490   7.872 -1.0663 -1.4957  0.6678
 6332TIP3   OH240630   3.065   1.193   0.299 -0.1209  0.4622 -0.4153
 6332TIP3    H140631   3.007   1.202   0.223  0.0364 -1.3211 -0.7702
 6332TIP3    H240632   3.044   1.270   0.353 -2.2249  0.3184 -0.9299
 6333TIP3   OH240633   6.588   3.662   1.458 -0.2998  0.6727 -0.3979
 6333TIP3    H140634   6.572   3.689   1.367 -1.7245  0.2309 -0.2856
 6333TIP3    H240635   6.663   3.603   1.451 -0.7723  0.1551 -1.3762
 6334TIP3   OH240636   4.127   5.432   1.342  1.0157  0.1226  0.3626
 6334TIP3    H140637   4.035   5.428   1.369  0.9575 -0.3897  0.0992
 6334TIP3    H240638   4.168   5.491   1.405  0.5396  0.2255  0.5800
 6335TIP3   OH240639   4.900   1.928   7.903  0.4487  0.1007 -0.3596
 6335TIP3    H140640   4.923   2.008   7.950  1.2079  0.6042 -1.5263
 6335TIP3    H240641   4.873   1.867   7.971 -1.0187  1.6264  0.4902
 6336TIP3   OH240642   0.395   6.476   1.215  0.2669 -0.0663  0.3306
 6336TIP3    H140643   0.371   6.386   1.195 -1.0588  0.1448  0.9082
 6336TIP3    H240644   0.343   6.498   1.292  1.5582  0.7665  0.9941
 6337TIP3   OH240645   5.334   4.156   2.127  0.6468  0.5617 -0.7969
 6337TIP3    H140646   5.389   4.169   2.204  1.8289  0.0900 -1.5352
 6337TIP3    H240647   5.294   4.070   2.141 -0.6171  1.2593  0.1387
 6338TIP3   OH240648   4.471   4.301   7.728 -0.2334 -0.3176  0.7584
 6338TIP3    H140649   4.377   4.306   7.744 -0.2241 -0.6864  0.9525
 6338TIP3    H240650   4.510   4.347   7.803 -0.1684 -2.5674  2.2012
 6339TIP3   OH240651   5.624   0.686   0.762  0.0398  0.1065 -0.1276
 6339TIP3    H140652   5.543   0.716   0.802  0.5626  0.7762  0.4528
 6339TIP3    H240653   5.614   0.708   0.669 -0.3594  0.3721 -0.0262
 6340TIP3   OH240654   0.170   2.544   8.284  0.0723  0.3860  0.0916
 6340TIP3    H140655   0.226   2.574   8.213  0.3844 -0.5538 -0.0576
 6340TIP3    H240656   0.091   2.598   8.276  0.4547  0.8747 -0.4357
 6341TIP3   OH240657   2.819   6.361   6.571  0.5354  0.4878 -0.4978
 6341TIP3    H140658   2.865   6.398   6.496  2.2962 -0.4762  0.0459
 6341TIP3    H240659   2.744   6.316   6.534  1.6729 -0.4421 -1.7708
 6342TIP3   OH240660   1.078   5.364   0.605 -0.4317 -0.4321 -0.5221
 6342TIP3    H140661   1.097   5.321   0.521 -0.0882 -1.1582 -0.0786
 6342TIP3    H240662   1.054   5.454   0.580  1.0835 -0.2076 -1.3086
 6343TIP3   OH240663   6.536   4.481   8.480 -0.1191  0.2264 -1.3374
 6343TIP3    H140664   6.578   4.397   8.462 -2.1344 -0.9463 -0.8207
 6343TIP3    H240665   6.606   4.546   8.466  1.5058 -1.5063 -1.6817
 6344TIP3   OH240666   5.595   2.567   0.115 -0.2217  0.4615 -0.0807
 6344TIP3    H140667   5.632   2.627   0.180 -1.0190  0.3148  0.5276
 6344TIP3    H240668   5.658   2.495   0.111  0.1320  0.7546  0.0852
 6345TIP3   OH240669   3.086   3.522   8.583 -0.5066 -0.1488  0.0351
 6345TIP3    H140670   3.095   3.477   8.667 -0.6562  1.0411  0.7225
 6345TIP3    H240671   3.079   3.452   8.518 -0.0064 -1.0962  0.9688
 6346TIP3   OH240672   4.466   4.987   2.074 -0.1796 -0.1579  0.0856
 6346TIP3    H140673   4.459   4.893   2.062  0.6706 -0.3247  0.7953
 6346TIP3    H240674   4.559   5.002   2.094 -0.1666  0.9098 -0.6939
 6347TIP3   OH240675   0.534   5.071   0.291  0.3424  0.2388  0.0667
 6347TIP3    H140676   0.558   5.161   0.267 -0.7409  0.3527 -0.6369
 6347TIP3    H240677   0.587   5.016   0.233  1.4581  0.3769  0.9069
 6348TIP3   OH240678   0.794   1.055   0.758 -0.6363  0.1959 -0.2355
 6348TIP3    H140679   0.802   1.149   0.777 -1.0078  0.1173  0.3279
 6348TIP3    H240680   0.850   1.042   0.681  0.4481  0.6428  0.4457
 6349TIP3   OH240681   6.876   5.141   6.923 -0.3514  0.0967 -0.0075
 6349TIP3    H140682   6.857   5.228   6.888  0.3408  0.3707  0.2825
 6349TIP3    H240683   6.965   5.122   6.895  1.2800  1.4201  3.5803
 6350TIP3   OH240684   5.572   2.578   0.534  0.1751  0.3079 -0.5572
 6350TIP3    H140685   5.506   2.648   0.538 -0.3707 -0.2652  2.2548
 6350TIP3    H240686   5.538   2.517   0.468 -1.1532  0.9448 -0.5054
 6351TIP3   OH240687   0.051   5.884   7.879 -0.1495  0.1000 -0.5407
 6351TIP3    H140688   0.009   5.938   7.812 -0.7849  1.0510  0.5832
 6351TIP3    H240689  -0.022   5.853   7.933  0.2377 -1.6667 -0.9811
 6352TIP3   OH240690   4.533   1.739   8.314 -0.1259 -0.4077  0.5978
 6352TIP3    H140691   4.566   1.689   8.388 -0.2962 -0.8478  0.3839
 6352TIP3    H240692   4.479   1.808   8.353  0.4807 -0.1106  0.9163
 6353TIP3   OH240693   1.559   3.260   7.163 -0.6866 -0.1101  0.1188
 6353TIP3    H140694   1.606   3.177   7.172  0.2407  0.3980  0.0734
 6353TIP3    H240695   1.598   3.317   7.229 -0.6979  0.5655 -0.4430
 6354TIP3   OH240696   1.133   2.989   8.446 -0.1648  0.5280 -0.3697
 6354TIP3    H140697   1.209   3.041   8.472  0.4865 -0.3969 -0.3626
 6354TIP3    H240698   1.130   2.917   8.510 -1.4059  0.8790 -0.0105
 6355TIP3   OH240699   6.451   4.024   6.566 -0.4364 -0.2069 -0.7113
 6355TIP3    H140700   6.451   4.118   6.547  0.3293  0.2006  1.1616
 6355TIP3    H240701   6.527   3.990   6.519  0.0690  0.3488 -0.2927
 6356TIP3   OH240702   3.002   0.457   7.011 -0.0955 -0.0392 -0.0205
 6356TIP3    H140703   3.048   0.508   6.944 -0.5448 -1.2207 -1.2961
 6356TIP3    H240704   2.984   0.373   6.968 -2.0163 -0.1928  0.9605
 6357TIP3   OH240705   5.860   3.044   7.162  0.5288 -0.0215  0.1101
 6357TIP3    H140706   5.859   3.001   7.247 -0.5282 -0.4226 -0.0882
 6357TIP3    H240707   5.773   3.083   7.154  0.4708 -0.3417 -0.9579
 6358TIP3   OH240708   1.401   6.656   1.431  0.3312  0.0657 -0.3231
 6358TIP3    H140709   1.456   6.642   1.508  1.2149  0.7960 -0.8014
 6358TIP3    H240710   1.312   6.640   1.462  0.9013 -2.9129  0.0529
 6359TIP3   OH240711   5.984   0.094   7.554  0.0108 -0.6812 -0.5554
 6359TIP3    H140712   6.040   0.120   7.627 -0.7566  0.6111 -0.4027
 6359TIP3    H240713   6.000   0.160   7.487 -1.6977  0.0295 -0.3091
 6360TIP3   OH240714   0.005   4.222   1.503 -0.1866 -0.8335 -0.0188
 6360TIP3    H140715  -0.060   4.172   1.454 -1.1901  1.6680 -1.4522
 6360TIP3    H240716   0.088   4.203   1.460 -1.0312  1.2263 -2.8448
 6361TIP3   OH240717   2.970   6.163   0.624 -0.2889  0.3039 -0.3591
 6361TIP3    H140718   2.926   6.112   0.556  0.2358 -0.5767 -0.0644
 6361TIP3    H240719   3.063   6.151   0.606 -0.1011 -1.0203  1.2242
 6362TIP3   OH240720   0.637   0.498   8.026  0.0820  0.1290  0.1548
 6362TIP3    H140721   0.577   0.487   8.100  1.1931  4.0314  1.9520
 6362TIP3    H240722   0.593   0.559   7.968  1.9657  2.9327  1.4268
 6363TIP3   OH240723   4.801   3.958   7.142 -0.1000 -0.6024 -0.1694
 6363TIP3    H140724   4.717   3.936   7.101  1.1828 -0.4029 -3.1751
 6363TIP3    H240725   4.866   3.945   7.072  2.0015  2.2925  1.0509
 6364TIP3   OH240726   5.360   0.982   0.951 -0.0682 -0.7795  0.5248
 6364TIP3    H140727   5.352   0.918   0.880 -1.4583  0.6641 -0.7199
 6364TIP3    H240728   5.372   0.929   1.030  0.0243 -2.5079 -0.5855
 6365TIP3   OH240729   3.876   2.646   0.766 -0.4272 -0.2065 -0.2934
 6365TIP3    H140730   3.848   2.598   0.844 -0.2299 -0.3807 -0.3298
 6365TIP3    H240731   3.971   2.634   0.763 -0.4139 -0.0614 -0.4688
 6366TIP3   OH240732   4.494   2.947   2.437  0.3906  0.2306 -0.4840
 6366TIP3    H140733   4.511   3.007   2.365 -0.7501  0.5011 -0.5424
 6366TIP3    H240734   4.572   2.955   2.493  0.0766  2.1335 -0.2487
 6367TIP3   OH240735   2.014   0.537   7.129  0.3085  0.4650 -0.5113
 6367TIP3    H140736   1.980   0.543   7.039 -0.0146 -0.9270 -0.5146
 6367TIP3    H240737   1.938   0.514   7.182  1.0329 -2.0724 -0.4192
 6368TIP3   OH240738   2.008   3.032   1.600  0.0406  0.9749 -0.3005
 6368TIP3    H140739   2.056   2.989   1.671 -1.3336 -1.2456 -0.6556
 6368TIP3    H240740   2.077   3.074   1.548  1.2024  1.4155  1.4778
 6369TIP3   OH240741   3.344   1.208   1.131  0.2059 -0.1274  0.2471
 6369TIP3    H140742   3.323   1.254   1.050  0.0330  2.0604  1.4521
 6369TIP3    H240743   3.427   1.246   1.160 -0.7194  0.6229  2.0786
 6370TIP3   OH240744   5.766   6.011   1.026 -0.1658 -0.6372  0.4363
 6370TIP3    H140745   5.713   5.931   1.029 -4.1027  1.6321 -0.9766
 6370TIP3    H240746   5.743   6.058   1.107  0.9913 -0.2903  0.5753
 6371TIP3   OH240747   3.096   4.603   0.942  0.5012 -0.1756 -0.6780
 6371TIP3    H140748   3.055   4.576   1.024 -0.4083  1.5392 -0.5276
 6371TIP3    H240749   3.190   4.592   0.957  0.2820 -1.2139  0.0708
 6372TIP3   OH240750   5.717   5.726   7.492  0.5904  0.4628 -0.4927
 6372TIP3    H140751   5.788   5.675   7.453  1.4540  0.3612  1.1363
 6372TIP3    H240752   5.752   5.815   7.499 -0.4555  1.0584 -2.1514
 6373TIP3   OH240753   1.895   4.957   7.999 -0.0713 -0.0637 -0.0495
 6373TIP3    H140754   1.918   5.037   8.045  3.9986 -0.4077 -1.0425
 6373TIP3    H240755   1.938   4.888   8.049 -2.6254 -1.5866  0.1975
 6374TIP3   OH240756   4.934   5.468   7.511 -0.1939 -0.5721  0.1698
 6374TIP3    H140757   4.935   5.390   7.456  0.2585 -0.9207  0.6508
 6374TIP3    H240758   5.025   5.476   7.542 -0.3912 -0.2595  0.6831
 6375TIP3   OH240759   2.562   4.483   8.260  0.3734  0.5180 -0.1317
 6375TIP3    H140760   2.602   4.460   8.176  0.6099 -1.3583  0.4421
 6375TIP3    H240761   2.468   4.475   8.245  0.4062  0.4193 -0.2900
 6376TIP3   OH240762   4.131   2.183   0.880  0.4860 -0.0888 -0.2385
 6376TIP3    H140763   4.184   2.257   0.910 -0.4689  0.2835  0.5764
 6376TIP3    H240764   4.097   2.210   0.795  0.1274  0.4181  0.0630
 6377TIP3   OH240765   1.238   3.225   1.369  0.1969 -0.5643 -0.6091
 6377TIP3    H140766   1.243   3.151   1.429 -0.6613  0.9870  1.5297
 6377TIP3    H240767   1.148   3.224   1.337  0.1337 -0.3616 -0.4414
 6378TIP3   OH240768   6.706   6.680   8.530  0.0336 -0.4224  0.8711
 6378TIP3    H140769   6.699   6.584   8.534  1.9156 -0.6400  0.2351
 6378TIP3    H240770   6.796   6.698   8.558 -0.1711  1.1321  0.6010
 6379TIP3   OH240771   3.324   2.677   1.411  0.3848 -0.3223  0.6740
 6379TIP3    H140772   3.291   2.626   1.485 -0.3365 -0.6109  0.1697
 6379TIP3    H240773   3.362   2.755   1.451 -2.0949  0.6936  1.2761
 6380TIP3   OH240774   0.449   0.839   7.523 -0.5577  0.2116 -0.1510
 6380TIP3    H140775   0.435   0.760   7.471  0.5596  0.5516 -1.0116
 6380TIP3    H240776   0.544   0.841   7.537 -0.6915  0.8824  0.7100
 6381TIP3   OH240777   2.457   0.763   1.885  0.1731  0.4361  0.1774
 6381TIP3    H140778   2.476   0.856   1.896 -0.6502  0.6828 -0.3516
 6381TIP3    H240779   2.367   0.753   1.918 -0.5033  0.2383 -1.5894
 6382TIP3   OH240780   2.330   6.587   7.805 -0.5458  0.7072 -0.0875
 6382TIP3    H140781   2.401   6.618   7.861 -0.3411 -2.6169  1.7544
 6382TIP3    H240782   2.258   6.569   7.865 -1.9995  1.3531 -1.5581
 6383TIP3   OH240783   6.760   6.430   7.967 -0.2855  0.2272  0.2232
 6383TIP3    H140784   6.754   6.455   8.059 -0.7545 -0.7074  0.4537
 6383TIP3    H240785   6.842   6.470   7.937 -0.6169  1.3577  0.7756
 6384TIP3   OH240786   0.690   0.814   7.018  0.1141 -0.6319  0.3689
 6384TIP3    H140787   0.647   0.876   7.077  1.2681  1.3117 -0.7375
 6384TIP3    H240788   0.670   0.728   7.055 -1.8250  0.3449  1.7891
 6385TIP3   OH240789   2.492   6.201   6.896  0.1189  0.4157 -0.3779
 6385TIP3    H140790   2.457   6.133   6.839  0.1949  1.2704 -1.4885
 6385TIP3    H240791   2.586   6.204   6.874  0.4832 -0.3792  1.0036
 6386TIP3   OH240792   1.622   3.683   7.152 -0.3383 -0.4026 -0.3705
 6386TIP3    H140793   1.663   3.613   7.102  0.6154 -0.4761  0.4947
 6386TIP3    H240794   1.617   3.757   7.090  0.8229 -0.4877 -0.5747
 6387TIP3   OH240795   4.939   1.490   7.759  0.1459 -0.5404  0.1698
 6387TIP3    H140796   4.971   1.514   7.672  0.8854 -0.9421  0.3188
 6387TIP3    H240797   4.880   1.416   7.744 -2.0457  1.2059 -0.2768
 6388TIP3   OH240798   4.603   4.196   7.340  0.4364 -0.7588  0.1718
 6388TIP3    H140799   4.660   4.225   7.269  0.3790  1.0914  0.8137
 6388TIP3    H240800   4.620   4.258   7.412 -3.2885  0.8159 -0.0546
 6389TIP3   OH240801   5.657   2.599   1.121  0.2677 -0.2856  0.3038
 6389TIP3    H140802   5.610   2.583   1.203  0.7884  1.4945  1.0023
 6389TIP3    H240803   5.589   2.623   1.058 -0.0416 -0.6979  0.4819
 6390TIP3   OH240804   5.660   5.218   2.012  0.4427  0.0375 -0.3742
 6390TIP3    H140805   5.640   5.312   2.018  0.7939  0.3161 -2.6153
 6390TIP3    H240806   5.592   5.176   2.065 -0.5695  1.4888 -0.4461
 6391TIP3   OH240807   3.838   0.127   8.094 -0.5881 -0.0580  0.1276
 6391TIP3    H140808   3.883   0.159   8.015  1.1894 -0.1873  1.0186
 6391TIP3    H240809   3.896   0.059   8.128 -1.7643 -0.6171  1.0744
 6392TIP3   OH240810   1.989   2.382   7.254  0.2039 -0.6199 -0.1809
 6392TIP3    H140811   2.083   2.377   7.267  0.2345  0.5196  0.1466
 6392TIP3    H240812   1.970   2.475   7.246 -1.0675 -0.7160  1.1431
 6393TIP3   OH240813   1.469   1.692   0.828 -0.1777  0.0609  0.3055
 6393TIP3    H140814   1.441   1.647   0.908 -0.5446  0.2277  0.2768
 6393TIP3    H240815   1.397   1.753   0.809 -0.1480 -0.0601 -0.2162
 6394TIP3   OH240816   5.165   4.313   7.834 -0.3756 -0.2791 -0.0891
 6394TIP3    H140817   5.180   4.404   7.857  1.9101 -0.8663  1.0149
 6394TIP3    H240818   5.144   4.270   7.917 -0.0430 -0.9871 -0.3614
 6395TIP3   OH240819   5.773   0.497   0.494 -0.3260  0.5397  0.5363
 6395TIP3    H140820   5.701   0.435   0.482  0.1122  0.1959 -0.4733
 6395TIP3    H240821   5.741   0.579   0.456 -0.2065  0.3911  0.1031
 6396TIP3   OH240822   6.139   6.358   0.350  0.5606  0.1621 -0.2046
 6396TIP3    H140823   6.169   6.450   0.347  1.2345 -0.0686 -1.2387
 6396TIP3    H240824   6.179   6.318   0.273  0.1505 -0.9759  0.1583
 6397TIP3   OH240825   5.967   4.866   7.016  0.2755 -0.0300 -0.2980
 6397TIP3    H140826   5.946   4.960   7.020  0.8546  0.0699  2.0035
 6397TIP3    H240827   5.894   4.827   6.968 -0.6342  1.4371 -0.1720
 6398TIP3   OH240828   1.904   6.020   1.118  0.3771  0.0390  0.3011
 6398TIP3    H140829   1.863   5.944   1.159 -0.2905  1.0502  1.6240
 6398TIP3    H240830   1.831   6.080   1.102  0.8036  0.1489 -1.3348
 6399TIP3   OH240831   2.859   1.103   0.071  0.0011  0.4779  0.8327
 6399TIP3    H140832   2.773   1.102   0.028 -0.3016  2.2459  1.2946
 6399TIP3    H240833   2.842   1.070   0.159  0.3632 -1.8110  0.1188
 6400TIP3   OH240834   3.594   3.598   1.276  0.7937 -0.0687 -0.4191
 6400TIP3    H140835   3.621   3.689   1.283 -0.2124  0.1569  0.9341
 6400TIP3    H240836   3.498   3.601   1.273  0.4358 -1.1672  3.4955
 6401TIP3   OH240837   5.567   3.236   6.522 -0.0899 -0.2615 -0.3489
 6401TIP3    H140838   5.513   3.236   6.601 -0.0176 -0.8650 -0.3003
 6401TIP3    H240839   5.543   3.318   6.477  1.3206  1.1144  1.2672
 6402TIP3   OH240840   6.552   0.334   7.999  0.0424 -0.2783  0.2380
 6402TIP3    H140841   6.506   0.303   8.077 -1.1165 -0.2110 -0.3895
 6402TIP3    H240842   6.606   0.406   8.030 -0.2988 -0.3345  1.0018
 6403TIP3   OH240843   6.625   6.115   1.227  0.4133 -0.1165  0.3048
 6403TIP3    H140844   6.710   6.150   1.200 -1.2155  2.5189 -1.8718
 6403TIP3    H240845   6.633   6.020   1.216  2.4184  0.2263 -1.9773
 6404TIP3   OH240846   3.389   5.109   6.403 -0.0139 -0.1485  0.5922
 6404TIP3    H140847   3.413   5.198   6.429  0.3541 -0.1333  0.2115
 6404TIP3    H240848   3.435   5.052   6.465  1.5028 -0.1392 -0.4809
 6405TIP3   OH240849   4.298   2.162   0.440 -0.4565 -0.2664  0.2554
 6405TIP3    H140850   4.356   2.234   0.464 -0.5251  1.1630 -3.2795
 6405TIP3    H240851   4.242   2.198   0.371 -1.6067 -3.2649 -0.5341
 6406TIP3   OH240852   3.126   6.776   0.455 -0.4116  0.1671 -0.3107
 6406TIP3    H140853   3.109   6.805   0.366 -0.6819  2.4888  0.4061
 6406TIP3    H240854   3.221   6.773   0.462 -0.3859 -1.1075 -0.9545
 6407TIP3   OH240855   5.409   1.032   2.120  0.3616 -0.1422  0.2587
 6407TIP3    H140856   5.490   1.032   2.170  0.4127  0.5612  0.1849
 6407TIP3    H240857   5.368   0.948   2.140  1.4112 -0.7840 -0.1958
 6408TIP3   OH240858   2.665   6.515   7.079  0.2713  0.6544  0.2073
 6408TIP3    H140859   2.688   6.463   7.001 -0.2813 -1.3733  1.3199
 6408TIP3    H240860   2.584   6.559   7.056  0.2627  0.2973 -0.4686
 6409TIP3   OH240861   6.473   4.181   0.233  0.4251  0.0966 -0.1014
 6409TIP3    H140862   6.431   4.260   0.267 -2.2409 -1.3674  0.2886
 6409TIP3    H240863   6.416   4.153   0.161  1.5308 -1.2511 -0.4836
 6410TIP3   OH240864   4.502   1.902   8.532 -0.2445  0.6673 -0.3752
 6410TIP3    H140865   4.486   1.905   8.626  0.2558  1.0499 -0.3002
 6410TIP3    H240866   4.417   1.921   8.492 -0.4734  0.4336 -0.0058
 6411TIP3   OH240867   2.695   6.237   8.263  0.1991  0.4306 -0.3614
 6411TIP3    H140868   2.748   6.176   8.316  0.9393  0.6456 -0.8359
 6411TIP3    H240869   2.613   6.190   8.248  0.7302 -0.4332 -0.6676
 6412TIP3   OH240870   2.822   5.256   2.012  0.5458  0.1714  0.2885
 6412TIP3    H140871   2.736   5.246   1.971  1.5210  0.8632 -2.0872
 6412TIP3    H240872   2.807   5.237   2.105 -2.2401  0.7205  0.0213
 6413TIP3   OH240873   2.371   1.368   7.236 -0.2099 -0.6925  0.8197
 6413TIP3    H140874   2.342   1.321   7.158 -0.5538 -0.7063  0.9518
 6413TIP3    H240875   2.405   1.300   7.294 -0.3881 -0.7366  0.8719
 6414TIP3   OH240876   2.961   5.448   1.151 -0.2307  0.5993  0.0399
 6414TIP3    H140877   2.987   5.357   1.135  0.1529  0.4192  1.5468
 6414TIP3    H240878   2.869   5.444   1.174 -0.3916  0.6803 -0.5784
 6415TIP3   OH240879   1.864   3.586   1.863 -0.3412  0.3950  0.0180
 6415TIP3    H140880   1.788   3.578   1.807 -1.1762  1.3727  0.9644
 6415TIP3    H240881   1.828   3.593   1.951  0.8782  0.2129  0.5507
 6416TIP3   OH240882   3.312   0.683   1.055  0.4355 -0.6188 -0.6185
 6416TIP3    H140883   3.352   0.624   0.992  0.0760 -0.1069 -1.3339
 6416TIP3    H240884   3.360   0.765   1.045 -1.1911  0.2317 -1.9825
 6417TIP3   OH240885   3.943   6.851   7.425  0.4354 -0.0832  0.0150
 6417TIP3    H140886   3.907   6.940   7.432  0.2265 -0.2045  0.5436
 6417TIP3    H240887   3.978   6.833   7.512  0.4671 -0.5244 -0.0871
 6418TIP3   OH240888   1.845   4.818   0.140  0.4297 -0.4338 -0.1135
 6418TIP3    H140889   1.792   4.863   0.074  1.0332 -0.3732 -0.5602
 6418TIP3    H240890   1.797   4.833   0.222 -0.0670 -0.0929 -0.4557
 6419TIP3   OH240891   1.367   4.664   7.618  0.1010 -0.1899  0.1237
 6419TIP3    H140892   1.446   4.717   7.631 -0.5677  0.7925  0.3494
 6419TIP3    H240893   1.350   4.669   7.524 -0.9620  1.5287  0.3741
 6420TIP3   OH240894   1.420   5.676   0.760  0.0770  0.0229 -0.0279
 6420TIP3    H140895   1.371   5.636   0.688  1.7794 -0.3434 -1.0489
 6420TIP3    H240896   1.487   5.611   0.782 -0.6317 -0.0426  2.1877
 6421TIP3   OH240897   6.131   2.665   8.186 -0.0496  0.0234  0.2256
 6421TIP3    H140898   6.219   2.661   8.222  0.3821 -0.6726 -0.8907
 6421TIP3    H240899   6.084   2.595   8.232  0.2545 -0.2710  0.0926
 6422TIP3   OH240900   2.459   1.441   8.235 -0.4926  0.1678  0.2477
 6422TIP3    H140901   2.445   1.357   8.279 -0.5311 -0.0955 -0.2481
 6422TIP3    H240902   2.374   1.485   8.238  0.0175  1.1183  2.3415
 6423TIP3   OH240903   0.022   3.285   6.574  0.0095 -0.0022 -0.2681
 6423TIP3    H140904   0.002   3.279   6.668 -0.1147 -0.2416 -0.3081
 6423TIP3    H240905   0.112   3.317   6.571 -0.3728  1.1243 -0.0855
 6424TIP3   OH240906   1.340   5.184   7.312  0.7620 -0.3268  0.2716
 6424TIP3    H140907   1.318   5.233   7.391  0.4702  2.6360 -1.5099
 6424TIP3    H240908   1.387   5.246   7.257  0.1560 -1.9673 -2.2757
 6425TIP3   OH240909   5.711   5.214   7.457 -0.0335 -0.2217 -0.2148
 6425TIP3    H140910   5.732   5.132   7.413 -1.8582 -0.3683 -0.8517
 6425TIP3    H240911   5.797   5.250   7.482  0.8488 -1.7297 -0.9614
 6426TIP3   OH240912   4.808   5.014   8.342 -0.5397 -0.2492  1.1336
 6426TIP3    H140913   4.817   4.962   8.421  0.5361  1.8154  2.4386
 6426TIP3    H240914   4.720   5.051   8.347 -0.1651  0.5672  1.8283
 6427TIP3   OH240915   0.645   1.830   8.403  0.1977 -0.4970  0.1518
 6427TIP3    H140916   0.568   1.774   8.394  0.3665 -0.6016 -0.7196
 6427TIP3    H240917   0.614   1.905   8.454 -0.8435  0.1112 -1.3073
 6428TIP3   OH240918   1.363   4.060   7.254  0.5749  0.0029 -0.6139
 6428TIP3    H140919   1.393   4.107   7.177  1.6736  1.5670  0.7193
 6428TIP3    H240920   1.441   4.017   7.289  0.2444 -0.1100  0.0189
 6429TIP3   OH240921   6.336   1.558   6.820  0.2736  0.1840 -0.0772
 6429TIP3    H140922   6.330   1.649   6.849 -0.2526 -0.5035  2.0906
 6429TIP3    H240923   6.266   1.512   6.866  1.0101 -1.4777 -0.5180
 6430TIP3   OH240924   5.348   1.162   7.869  0.0933  0.5716  0.0570
 6430TIP3    H140925   5.274   1.107   7.842  0.5098  0.2107 -0.3652
 6430TIP3    H240926   5.318   1.252   7.854  0.5070  0.3920 -2.2271
 6431TIP3   OH240927   0.041   2.286   8.316 -0.0562 -0.4776 -0.0956
 6431TIP3    H140928   0.077   2.375   8.317 -0.5297 -0.2716 -0.6533
 6431TIP3    H240929   0.094   2.238   8.378  1.3694 -0.2594 -1.0967
 6432TIP3   OH240930   6.617   3.259   7.023 -1.0865  0.6418  0.1239
 6432TIP3    H140931   6.529   3.292   7.009 -0.8655  1.5567  0.8113
 6432TIP3    H240932   6.674   3.334   7.002 -0.4102 -0.2541 -1.3872
 6433TIP3   OH240933   6.190   6.867   0.285 -0.0505 -0.5577  0.5881
 6433TIP3    H140934   6.232   6.783   0.270  0.3512 -0.6349  2.0079
 6433TIP3    H240935   6.258   6.922   0.323 -0.4082  0.3046  0.0187
 6434TIP3   OH240936   6.927   3.954   7.411 -0.1295 -0.2843  0.3893
 6434TIP3    H140937   6.892   3.911   7.488 -1.3350  1.8694  1.1367
 6434TIP3    H240938   6.890   4.042   7.414  1.9911  0.7519 -1.1468
 6435TIP3   OH240939   0.760   5.096   8.325  0.1529  0.0460 -0.0908
 6435TIP3    H140940   0.790   5.012   8.359 -1.4272 -0.8849 -0.8677
 6435TIP3    H240941   0.755   5.082   8.230  1.3646  1.5470 -0.4176
 6436TIP3   OH240942   5.986   3.912   8.055 -0.2306  0.0508  0.4310
 6436TIP3    H140943   6.041   3.910   8.133 -0.0105 -0.6810  0.2701
 6436TIP3    H240944   5.982   4.004   8.030 -0.5624  0.3288  1.4840
 6437TIP3   OH240945   0.040   3.853   2.125  0.0298  0.1427 -0.2997
 6437TIP3    H140946   0.045   3.759   2.143  1.9269  0.2156 -0.2558
 6437TIP3    H240947   0.006   3.892   2.206  1.8319 -0.2551  0.7041
 6438TIP3   OH240948   5.613   0.188   0.088  0.3446 -0.2024 -0.2347
 6438TIP3    H140949   5.530   0.222   0.119  0.5757  1.4672 -1.2882
 6438TIP3    H240950   5.667   0.179   0.167 -1.6675 -4.2952  0.9697
 6439TIP3   OH240951   1.548   6.088   1.095  0.8393 -0.1624  0.0605
 6439TIP3    H140952   1.506   6.055   1.016 -2.2436 -0.0018  1.5029
 6439TIP3    H240953   1.610   6.155   1.063 -1.5574  1.1782 -2.1457
 6440TIP3   OH240954   5.745   2.789   0.521  0.2686 -0.7145 -0.0519
 6440TIP3    H140955   5.717   2.699   0.504  2.2297 -1.3880  0.0544
 6440TIP3    H240956   5.749   2.830   0.434 -2.4282 -0.0898  0.0265
 6441TIP3   OH240957   6.298   3.508   0.907 -0.1912  0.0003 -0.3313
 6441TIP3    H140958   6.373   3.492   0.964 -0.7113 -1.5877 -0.0174
 6441TIP3    H240959   6.224   3.467   0.953 -1.3377  1.8002 -0.4637
 6442TIP3   OH240960   1.874   1.821   0.644  0.4055 -0.1145  0.3822
 6442TIP3    H140961   1.805   1.857   0.588  1.0534  1.6440  0.6278
 6442TIP3    H240962   1.848   1.845   0.733  0.4572 -1.0037  0.6459
 6443TIP3   OH240963   0.400   1.704   8.412 -0.0049  0.6923  0.1286
 6443TIP3    H140964   0.410   1.613   8.440  0.3675  0.6274 -0.2090
 6443TIP3    H240965   0.396   1.700   8.316  2.8449  1.2432 -0.1160
 6444TIP3   OH240966   4.738   2.974   0.042  0.8532  0.5087  0.0118
 6444TIP3    H140967   4.824   3.013   0.057  2.0609 -2.3391  1.1523
 6444TIP3    H240968   4.738   2.950  -0.050  1.5431 -0.0198  0.1426
 6445TIP3   OH240969   4.951   4.663   6.190  0.2141 -0.8206 -0.2241
 6445TIP3    H140970   4.915   4.733   6.244 -0.6253  0.0408 -1.8255
 6445TIP3    H240971   5.045   4.680   6.190 -0.0150  0.6364 -0.9699
 6446TIP3   OH240972   4.708   1.175   6.397  0.8635 -0.0985  1.4376
 6446TIP3    H140973   4.720   1.088   6.434  0.5282 -0.8086 -0.0226
 6446TIP3    H240974   4.640   1.163   6.331  0.3187  1.4292  1.6913
 6447TIP3   OH240975   1.992   6.347   2.528  0.0726 -0.4373  0.3101
 6447TIP3    H140976   1.930   6.284   2.564  2.1283 -1.7372  1.7525
 6447TIP3    H240977   1.937   6.423   2.504 -1.9160 -1.0076  2.6428
 6448TIP3   OH240978   6.287   2.984   6.558 -0.0223  0.0439  0.6196
 6448TIP3    H140979   6.193   2.995   6.543  0.1674 -0.2787 -0.9387
 6448TIP3    H240980   6.297   2.992   6.653 -1.7767 -1.0348  0.9460
 6449TIP3   OH240981   1.132   6.914   6.669  0.0575  0.0815 -0.0351
 6449TIP3    H140982   1.063   6.873   6.617  1.2834  0.1843 -1.8444
 6449TIP3    H240983   1.099   7.001   6.688  0.3018  0.7790 -2.3918
 6450TIP3   OH240984   1.070   2.569   6.143  0.3248  0.1766  0.3540
 6450TIP3    H140985   1.081   2.659   6.175  1.3854 -0.2063  1.0971
 6450TIP3    H240986   1.125   2.516   6.200 -0.2577 -0.9553 -0.1070
 6451TIP3   OH240987   2.691   3.210   8.321  0.0007  0.2977 -0.1862
 6451TIP3    H140988   2.613   3.214   8.267  0.4749  2.4663 -0.8237
 6451TIP3    H240989   2.757   3.168   8.266 -0.1916  0.2215 -0.3575
 6452TIP3   OH240990   6.670   1.912   1.939  0.0504  0.6215 -0.4281
 6452TIP3    H140991   6.685   1.822   1.911 -0.6913  0.1453  0.6438
 6452TIP3    H240992   6.739   1.928   2.004  0.6537  1.1028 -1.1700
 6453TIP3   OH240993   4.718   2.239   1.570  0.1876 -0.6857 -0.3279
 6453TIP3    H140994   4.782   2.295   1.615  0.0713 -1.6688  1.1210
 6453TIP3    H240995   4.767   2.160   1.549 -0.2063 -0.9088 -0.4050
 6454TIP3   OH240996   2.770   0.897   2.558  0.4742 -0.4003  0.0860
 6454TIP3    H140997   2.735   0.944   2.483  0.5627 -1.6953 -0.7893
 6454TIP3    H240998   2.864   0.913   2.555  0.4069  0.0791  0.3208
 6455TIP3   OH240999   1.218   5.204   6.711 -0.2944 -0.3238  0.2949
 6455TIP3    H141000   1.141   5.153   6.686 -0.1255 -0.8366  0.7931
 6455TIP3    H241001   1.271   5.209   6.631 -1.0496  0.4353 -0.1842
 6456TIP3   OH241002   6.477   2.986   8.533 -0.2035 -0.5122  0.2815
 6456TIP3    H141003   6.549   3.048   8.529 -0.0601 -0.5300  1.9054
 6456TIP3    H241004   6.486   2.944   8.618 -0.9067 -2.0262 -0.3514
 6457TIP3   OH241005   0.785   5.068   0.823  0.4084 -0.2433  0.1672
 6457TIP3    H141006   0.724   5.127   0.779  1.0306 -1.3756 -2.3993
 6457TIP3    H241007   0.745   4.981   0.817  1.2120 -0.6599  0.4996
 6458TIP3   OH241008   1.676   2.865   1.780  0.2619 -0.3287  0.0325
 6458TIP3    H141009   1.695   2.791   1.838 -1.4803 -1.4552 -0.7529
 6458TIP3    H241010   1.616   2.919   1.831 -0.2079 -0.6245 -0.1964
 6459TIP3   OH241011   1.376   2.037   7.491  0.1182 -0.0940 -0.0781
 6459TIP3    H141012   1.310   1.980   7.529  0.5739 -1.1612 -0.8287
 6459TIP3    H241013   1.404   1.991   7.411 -1.3236  2.3546 -2.1378
 6460TIP3   OH241014   0.652   6.212   8.041 -0.2758  0.3507 -0.1933
 6460TIP3    H141015   0.590   6.139   8.047 -1.6944  1.5864  1.4357
 6460TIP3    H241016   0.737   6.171   8.030 -0.9554 -1.5993  1.2019
 6461TIP3   OH241017   2.503   6.714   7.595  0.1760 -0.2189  0.1008
 6461TIP3    H141018   2.446   6.701   7.671 -1.7120  2.7388 -0.6291
 6461TIP3    H241019   2.539   6.801   7.607  1.8329 -0.6791 -1.2165
 6462TIP3   OH241020   6.877   1.180   1.238  0.0093  0.3420 -0.4576
 6462TIP3    H141021   6.814   1.246   1.209 -1.8868 -2.0027 -2.0507
 6462TIP3    H241022   6.931   1.163   1.161  2.1160  1.6763  0.6412
 6463TIP3   OH241023   6.697   3.987   0.821  0.2838  0.5793 -0.3926
 6463TIP3    H141024   6.659   3.900   0.819 -2.6999  1.7719 -1.0657
 6463TIP3    H241025   6.791   3.972   0.825 -0.0772 -2.6296 -1.2226
 6464TIP3   OH241026   6.295   2.747   0.900 -0.2457  0.0480  0.7417
 6464TIP3    H141027   6.387   2.742   0.874 -0.6629 -0.9443 -0.6701
 6464TIP3    H241028   6.276   2.841   0.904  1.2983  0.3513  2.9889
 6465TIP3   OH241029   1.695   1.895   8.015  0.1999 -0.3290  0.1197
 6465TIP3    H141030   1.707   1.834   7.942  1.2231 -0.7240  0.5926
 6465TIP3    H241031   1.664   1.840   8.087  0.6483 -0.2177  0.4041
 6466TIP3   OH241032   3.229   0.094   6.811 -0.1686  0.1681 -0.0494
 6466TIP3    H141033   3.276   0.133   6.884 -2.7531  1.1998  1.2177
 6466TIP3    H241034   3.247   0.000   6.818  1.6050  0.5014  0.3591
 6467TIP3   OH241035   3.298   6.403   5.776  0.1020 -0.0191 -0.0702
 6467TIP3    H141036   3.213   6.388   5.818  0.7658  1.3256  1.8881
 6467TIP3    H241037   3.276   6.445   5.693 -1.1715 -0.2423  0.1277
 6468TIP3   OH241038   2.021   4.166   1.256  0.3663 -0.2738  0.3161
 6468TIP3    H141039   2.065   4.084   1.282 -0.3135 -1.7939 -2.8378
 6468TIP3    H241040   1.931   4.140   1.240  0.0825  1.1566 -0.5522
 6469TIP3   OH241041   5.084   0.701   7.658  0.5564  0.5517  0.7341
 6469TIP3    H141042   5.083   0.770   7.592  1.0701  0.5673  0.7402
 6469TIP3    H241043   4.999   0.709   7.701 -0.0957  0.0472 -0.4253
 6470TIP3   OH241044   2.187   2.420   7.775 -0.0633  0.1881 -0.1150
 6470TIP3    H141045   2.269   2.439   7.728  0.4781  1.8854  1.4005
 6470TIP3    H241046   2.121   2.471   7.729 -0.2105 -0.7382 -0.9890
 6471TIP3   OH241047   2.880   4.430   8.361  0.2707  0.1568  0.1547
 6471TIP3    H141048   2.915   4.343   8.380  4.7039  1.6040 -0.2733
 6471TIP3    H241049   2.894   4.441   8.267 -1.0866  1.0362  0.0411
 6472TIP3   OH241050   6.566   3.788   1.203 -0.0261  0.2524  0.5039
 6472TIP3    H141051   6.636   3.812   1.143 -1.7902  0.8178 -1.4664
 6472TIP3    H241052   6.547   3.868   1.252  0.7516  0.0669  1.1191
 6473TIP3   OH241053   5.603   4.395   0.234 -0.2004  0.0933 -0.6182
 6473TIP3    H141054   5.557   4.342   0.169  0.0845  0.8010 -1.4063
 6473TIP3    H241055   5.622   4.477   0.190  1.1211  0.1238 -0.0507
 6474TIP3   OH241056   5.910   5.318   0.792 -0.2141  1.0763  0.3985
 6474TIP3    H141057   5.834   5.331   0.735 -0.2074  3.7946  0.8888
 6474TIP3    H241058   5.915   5.398   0.844  3.0597  1.0486  0.2983
 6475TIP3   OH241059   3.259   5.589   0.878  0.4815  0.1527 -0.2913
 6475TIP3    H141060   3.239   5.619   0.967  1.4935 -0.9601  0.3559
 6475TIP3    H241061   3.186   5.618   0.825 -1.9385 -2.0876  1.5603
 6476TIP3   OH241062   2.174   6.727   6.671  0.4717  0.0800  0.0315
 6476TIP3    H141063   2.126   6.736   6.589 -0.0676  3.0713  0.5593
 6476TIP3    H241064   2.251   6.675   6.648  0.6754  1.3504 -2.5375
 6477TIP3   OH241065   1.128   2.276   1.299  0.5850  0.2081  0.6024
 6477TIP3    H141066   1.082   2.194   1.280  0.0092  0.5714  0.4100
 6477TIP3    H241067   1.060   2.333   1.336  1.1250  0.3802  1.3553
 6478TIP3   OH241068   2.554   4.556   6.349  0.2610 -0.1757  0.4442
 6478TIP3    H141069   2.593   4.637   6.383 -1.6077 -0.0709  2.5659
 6478TIP3    H241070   2.467   4.583   6.319 -0.1869 -1.3034  0.7034
 6479TIP3   OH241071   5.284   5.529   8.598  0.1534 -0.1888  0.2389
 6479TIP3    H141072   5.287   5.453   8.655  1.4406 -1.0153 -0.8794
 6479TIP3    H241073   5.345   5.509   8.528  1.3490  2.3258  0.4512
 6480TIP3   OH241074   0.983   4.070   7.273 -0.6811  0.1136 -0.1314
 6480TIP3    H141075   0.985   4.097   7.181  1.4250  0.8263  0.0585
 6480TIP3    H241076   0.947   4.146   7.319 -0.7187  0.1782 -0.2669
 6481TIP3   OH241077   3.738   1.802   7.679  0.1634  0.1370 -0.1988
 6481TIP3    H141078   3.697   1.724   7.642 -0.9554  1.3773 -1.6691
 6481TIP3    H241079   3.666   1.862   7.697  0.9349  0.6257  1.5651
 6482TIP3   OH241080   6.037   0.471   8.411 -0.5090  0.6114  0.4009
 6482TIP3    H141081   6.000   0.547   8.457  0.9790  0.6621  1.5835
 6482TIP3    H241082   5.961   0.430   8.369 -1.7965  1.1764  2.0332
 6483TIP3   OH241083   2.883   5.259   0.228 -0.0509 -0.0371  0.1907
 6483TIP3    H141084   2.909   5.225   0.143  0.5191  2.8806 -0.9356
 6483TIP3    H241085   2.931   5.206   0.291  1.7952 -0.4163 -1.4442
 6484TIP3   OH241086   2.972   3.635   7.605  0.6115  0.2422 -0.6547
 6484TIP3    H141087   2.940   3.600   7.689 -1.5293 -1.2315 -1.9720
 6484TIP3    H241088   2.930   3.720   7.597  0.7786  0.3648 -0.2608
 6485TIP3   OH241089   3.137   0.836   6.968  0.2036 -0.5797  0.2875
 6485TIP3    H141090   3.153   0.776   6.896  0.3895  0.8143 -0.8659
 6485TIP3    H241091   3.045   0.859   6.960  0.9224  2.1271 -1.6186
 6486TIP3   OH241092   6.482   0.852   2.648 -0.0611 -0.1029  0.5439
 6486TIP3    H141093   6.540   0.875   2.720  1.6012 -0.8602 -0.4984
 6486TIP3    H241094   6.532   0.873   2.569 -1.0607 -1.0970 -0.3892
 6487TIP3   OH241095   5.636   5.242   1.730 -0.2470  0.2706 -0.3981
 6487TIP3    H141096   5.719   5.288   1.742 -1.8928  3.4870 -0.1953
 6487TIP3    H241097   5.610   5.216   1.819 -0.0902  0.4395 -0.3013
 6488TIP3   OH241098   0.301   3.580   0.013  0.5193  0.2865  0.1299
 6488TIP3    H141099   0.254   3.565  -0.069 -0.1409  0.2315  0.5056
 6488TIP3    H241100   0.275   3.507   0.069  2.3410 -0.6518 -0.1783
 6489TIP3   OH241101   0.986   2.245   7.149 -0.5793 -0.0372 -0.4099
 6489TIP3    H141102   1.004   2.336   7.125  0.8594 -0.0628  0.4264
 6489TIP3    H241103   0.969   2.201   7.066  0.8803  0.5719 -1.0749
 6490TIP3   OH241104   0.638   3.247   7.251  0.4408 -0.4193  0.0329
 6490TIP3    H141105   0.580   3.171   7.247 -0.1730  0.0230  0.3368
 6490TIP3    H241106   0.726   3.210   7.262  0.1198 -1.0789  0.4181
 6491TIP3   OH241107   6.256   2.323   6.152 -0.3153 -0.3180  0.1087
 6491TIP3    H141108   6.215   2.386   6.211  0.0590 -0.9115  1.0220
 6491TIP3    H241109   6.194   2.249   6.150  0.7371 -1.2917  1.6299
 6492TIP3   OH241110   5.045   1.484   6.701 -0.1313 -0.4912 -0.4979
 6492TIP3    H141111   5.098   1.433   6.762  1.3059 -0.2482 -1.4997
 6492TIP3    H241112   5.052   1.437   6.618  0.1414  0.6180 -1.1216
 6493TIP3   OH241113   1.221   2.642   7.651 -0.1848  0.0268  0.1633
 6493TIP3    H141114   1.137   2.670   7.616 -1.4384 -2.5918  0.7880
 6493TIP3    H241115   1.284   2.662   7.581 -1.8062 -0.5348 -1.5526
 6494TIP3   OH241116   5.264   3.168   7.708  0.7629  0.0592  0.3244
 6494TIP3    H141117   5.280   3.261   7.726  0.0475  0.1092  0.7412
 6494TIP3    H241118   5.301   3.122   7.783  0.2322  0.0835  0.6098
 6495TIP3   OH241119   0.655   4.036   1.712  0.0593 -0.0517 -0.4060
 6495TIP3    H141120   0.608   3.954   1.695 -0.5573  0.0638  0.6455
 6495TIP3    H241121   0.733   4.010   1.761 -0.4571  0.0248  0.4883
 6496TIP3   OH241122   3.054   0.474   7.279  0.0599  0.2725 -0.4523
 6496TIP3    H141123   3.056   0.459   7.184  1.2013 -0.1281 -0.3755
 6496TIP3    H241124   3.101   0.400   7.316 -0.4303  0.3934  0.4458
 6497TIP3   OH241125   2.690   0.376   8.112 -0.0321  0.0650  0.1538
 6497TIP3    H141126   2.661   0.467   8.102  0.2905  0.3557  1.6089
 6497TIP3    H241127   2.717   0.370   8.204 -1.3918 -1.9107  0.4678
 6498TIP3   OH241128   3.075   1.172   6.436  0.1396  0.8035  0.4044
 6498TIP3    H141129   3.101   1.154   6.345  2.4125 -0.9564  1.3002
 6498TIP3    H241130   2.987   1.135   6.444  0.0040  0.7629 -0.9981
 6499TIP3   OH241131   3.394   3.875   1.046  0.1978 -0.0468 -0.8206
 6499TIP3    H141132   3.371   3.826   1.125 -0.7255 -0.2190 -1.1790
 6499TIP3    H241133   3.336   3.952   1.048  1.3966  0.8838 -0.4359
 6500TIP3   OH241134   3.936   0.182   0.514  0.3891 -0.0434 -0.2009
 6500TIP3    H141135   3.976   0.176   0.428 -0.5589  2.1698 -0.8785
 6500TIP3    H241136   3.965   0.267   0.547 -2.1506  0.7876  0.0783
 6501TIP3   OH241137   2.181   6.659   0.080  0.3265 -0.0197 -0.1511
 6501TIP3    H141138   2.139   6.702   0.005 -0.7693  1.1144  1.0579
 6501TIP3    H241139   2.123   6.678   0.154  0.9379 -1.8240  0.8462
 6502TIP3   OH241140   4.173   5.604   7.127 -0.5540  0.7370 -0.1643
 6502TIP3    H141141   4.219   5.556   7.196 -1.8900  0.9904  0.9349
 6502TIP3    H241142   4.212   5.571   7.045  0.4102 -0.2484  0.6606
 6503TIP3   OH241143   3.529   6.895   1.475 -0.0981 -0.6120  0.5656
 6503TIP3    H141144   3.584   6.830   1.519  1.4363  0.5905  0.5368
 6503TIP3    H241145   3.577   6.978   1.487 -0.6695  0.0914 -1.5772
 6504TIP3   OH241146   3.845   4.892   7.310 -0.3041 -0.5444 -0.1349
 6504TIP3    H141147   3.873   4.801   7.298 -0.8653 -0.7112 -0.2197
 6504TIP3    H241148   3.835   4.926   7.222  1.5972  0.1488 -0.1185
 6505TIP3   OH241149   6.278   4.883   2.011 -0.7737 -0.2567  0.0027
 6505TIP3    H141150   6.306   4.974   2.002  1.2896 -0.7608  0.8943
 6505TIP3    H241151   6.324   4.851   2.089 -2.3582 -1.7570  0.4037
 6506TIP3   OH241152   0.139   2.058   8.028  0.5481 -0.1685  0.0160
 6506TIP3    H141153   0.230   2.063   8.055  0.6159  0.9250 -0.3836
 6506TIP3    H241154   0.137   2.098   7.941 -0.4323  0.5067  0.3369
 6507TIP3   OH241155   2.030   1.039   0.162 -0.1182  0.3129 -0.2766
 6507TIP3    H141156   2.063   1.098   0.230 -2.7173 -0.7977  2.1390
 6507TIP3    H241157   1.946   1.076   0.138 -0.8983 -1.3015 -0.1455
 6508TIP3   OH241158   4.669   1.656   2.036  0.0375 -0.6970 -0.1080
 6508TIP3    H141159   4.657   1.713   1.960  0.3421 -3.0380 -2.0207
 6508TIP3    H241160   4.685   1.569   1.999  1.2940 -1.7516  2.6372
 6509TIP3   OH241161   3.293   4.728   7.916 -0.0443  0.7338 -0.4014
 6509TIP3    H141162   3.374   4.679   7.905  0.1430  1.1377 -0.8814
 6509TIP3    H241163   3.257   4.698   7.999  1.2890  1.5303  0.5083
 6510TIP3   OH241164   0.689   1.584   7.921 -0.1498 -0.2403  0.2501
 6510TIP3    H141165   0.767   1.639   7.932  0.8088 -0.9470 -2.2287
 6510TIP3    H241166   0.635   1.632   7.858 -0.0348 -1.3645 -0.7304
 6511TIP3   OH241167   0.697   4.465   1.625  0.0245 -0.3626 -0.0544
 6511TIP3    H141168   0.653   4.500   1.703  0.2294  0.0726 -0.1331
 6511TIP3    H241169   0.696   4.370   1.638 -1.7267 -0.4363 -0.4565
 6512TIP3   OH241170   0.184   2.343   8.022 -0.3414  0.3080  0.0633
 6512TIP3    H141171   0.277   2.339   8.001 -0.1031 -0.4281  1.1783
 6512TIP3    H241172   0.180   2.356   8.116 -1.3720  0.7119 -0.0149
 6513TIP3   OH241173   4.401   4.856   8.076  0.4789 -0.0655  0.9360
 6513TIP3    H141174   4.468   4.925   8.078  0.2904  0.1217  0.8704
 6513TIP3    H241175   4.406   4.820   7.988  0.3604  0.0811  0.8693
 6514TIP3   OH241176   2.750   0.493   7.355 -0.5709 -0.1506  0.1354
 6514TIP3    H141177   2.745   0.535   7.269 -1.0233  0.4075  0.4233
 6514TIP3    H241178   2.843   0.498   7.378 -0.5637  0.4033  0.0148
 6515TIP3   OH241179   5.489   2.674   0.928 -0.2487 -0.3524  0.1914
 6515TIP3    H141180   5.464   2.765   0.908  0.7751  0.0696  0.7646
 6515TIP3    H241181   5.428   2.621   0.877 -1.7278  0.6423  0.8364
 6516TIP3   OH241182   0.872   1.203   8.215 -0.7177 -0.1747 -0.4139
 6516TIP3    H141183   0.929   1.280   8.219 -0.5935 -0.3119  0.6667
 6516TIP3    H241184   0.807   1.225   8.148  0.1565  0.2871 -1.1306
 6517TIP3   OH241185   0.283   6.347   7.909 -0.3328  0.7125 -0.0410
 6517TIP3    H141186   0.377   6.361   7.899 -0.3258  0.5610 -0.1887
 6517TIP3    H241187   0.276   6.256   7.941 -0.4558  0.5489 -0.5357
 6518TIP3   OH241188   2.228   6.410   8.594  0.1500 -0.3029  0.3161
 6518TIP3    H141189   2.316   6.448   8.601  0.7222 -1.7296  1.4891
 6518TIP3    H241190   2.183   6.439   8.673  0.2810 -1.2044  0.7460
 6519TIP3   OH241191   2.049   2.308   8.588  0.6337  1.0012  0.4471
 6519TIP3    H141192   2.030   2.234   8.647 -3.1538  2.0900  0.8418
 6519TIP3    H241193   2.097   2.268   8.516 -0.3410 -1.6798  1.1469
 6520TIP3   OH241194   3.088   1.292   8.531 -0.3429 -0.2021 -0.3834
 6520TIP3    H141195   3.019   1.306   8.467  0.5166  1.4346 -1.0432
 6520TIP3    H241196   3.101   1.198   8.534 -1.2841 -0.3933 -1.6732
 6521TIP3   OH241197   6.482   5.945   0.029  0.8425  0.1064  0.0860
 6521TIP3    H141198   6.395   5.918   0.058  0.9917 -1.2482 -0.6577
 6521TIP3    H241199   6.530   5.863   0.018  2.5873  0.8676  1.5634
 6522TIP3   OH241200   6.598   6.736   1.543 -0.2302  0.5045 -0.1202
 6522TIP3    H141201   6.632   6.825   1.550 -0.4692  0.6313 -0.5405
 6522TIP3    H241202   6.654   6.694   1.477 -2.0708  1.3089 -2.3301
 6523TIP3   OH241203   5.074   6.532   1.219 -0.4852  0.1691  0.1333
 6523TIP3    H141204   5.026   6.604   1.179  0.4519  1.8548  1.8703
 6523TIP3    H241205   5.043   6.529   1.310 -1.8467 -2.8967 -0.3063
 6524TIP3   OH241206   3.578   2.649   7.394 -0.1840 -0.3536  0.6875
 6524TIP3    H141207   3.514   2.587   7.431 -0.2899  0.4881  1.9881
 6524TIP3    H241208   3.594   2.711   7.465  3.0059 -1.1865  0.8657
 6525TIP3   OH241209   2.087   6.460   8.338 -0.5628 -0.0654  0.4581
 6525TIP3    H141210   2.071   6.373   8.301  0.9033  0.4567 -1.5619
 6525TIP3    H241211   2.139   6.443   8.416  1.2378 -0.9871 -0.8614
 6526TIP3   OH241212   4.460   6.305   5.920 -0.1718 -0.0788 -0.0884
 6526TIP3    H141213   4.434   6.332   5.833 -1.9432  0.3836  0.5480
 6526TIP3    H241214   4.403   6.231   5.941  1.3327 -1.2557  0.0912
 6527TIP3   OH241215   3.548   4.978   8.251 -0.0759  0.2574 -0.2504
 6527TIP3    H141216   3.503   5.061   8.268  2.2682  1.4992  0.2912
 6527TIP3    H241217   3.517   4.950   8.165 -1.0507  1.5793 -0.3457
 6528TIP3   OH241218   4.361   2.033   0.799  0.0044 -0.1447  0.0203
 6528TIP3    H141219   4.365   1.951   0.847  3.3432  0.4242  0.9518
 6528TIP3    H241220   4.283   2.077   0.833 -0.2151 -1.6726  1.6056
 6529TIP3   OH241221   0.898   2.581   6.675 -0.3284  0.3700 -0.3912
 6529TIP3    H141222   0.943   2.550   6.597 -0.9946  1.2712 -1.1626
 6529TIP3    H241223   0.807   2.595   6.647 -0.7394  0.0842  0.7159
 6530TIP3   OH241224   0.508   1.073   0.676 -0.4347 -0.0465 -0.1537
 6530TIP3    H141225   0.497   1.156   0.630  1.4344  0.3962  0.1263
 6530TIP3    H241226   0.595   1.078   0.715  0.6202 -2.9408 -1.8022
 6531TIP3   OH241227   5.050   3.686   7.981 -0.5070  0.0016 -0.2365
 6531TIP3    H141228   5.034   3.777   7.954 -2.2715 -0.9200 -2.6629
 6531TIP3    H241229   5.076   3.642   7.900 -2.0649 -2.1418  0.3637
 6532TIP3   OH241230   0.994   3.929   1.246  0.0301  0.0232  0.2824
 6532TIP3    H141231   0.949   3.968   1.172  2.5073 -0.4404 -1.5888
 6532TIP3    H241232   0.964   3.980   1.322 -1.2259  1.6860 -1.2476
 6533TIP3   OH241233   2.263   2.060   0.680 -0.0608  0.0195 -0.2693
 6533TIP3    H141234   2.267   2.046   0.585 -1.2933  1.1849 -0.5302
 6533TIP3    H241235   2.309   1.985   0.717  0.0763 -0.6858 -1.7732
 6534TIP3   OH241236   1.952   2.600   2.266 -0.8457  0.5083  0.0797
 6534TIP3    H141237   2.019   2.607   2.334 -0.6187  0.3001 -0.1227
 6534TIP3    H241238   1.956   2.510   2.236 -2.3544  0.0141  1.2221
 6535TIP3   OH241239   1.896   4.957   1.309  0.0244 -0.0669 -0.0147
 6535TIP3    H141240   1.875   4.865   1.293  0.5700 -0.2187  0.1242
 6535TIP3    H241241   1.872   5.001   1.227 -0.0105 -0.3705 -0.1693
 6536TIP3   OH241242   6.856   2.089   1.817  0.1030 -0.0308  0.2664
 6536TIP3    H141243   6.818   2.169   1.851 -1.4033 -0.4385 -0.3806
 6536TIP3    H241244   6.808   2.019   1.861  1.4452 -0.6088  0.8813
 6537TIP3   OH241245   0.812   0.079   6.697 -0.5395 -0.4205 -0.4356
 6537TIP3    H141246   0.906   0.097   6.701 -0.4704 -0.9674  1.0741
 6537TIP3    H241247   0.805   0.001   6.642  0.1107 -1.5232  0.9719
 6538TIP3   OH241248   1.351   6.765   7.649  0.6191  0.6829 -0.0421
 6538TIP3    H141249   1.418   6.699   7.636 -0.4607 -0.4482 -0.0610
 6538TIP3    H241250   1.379   6.840   7.597  1.2985 -0.1735 -0.9223
 6539TIP3   OH241251   4.606   3.588   2.085 -0.2647  0.5407  0.0919
 6539TIP3    H141252   4.561   3.519   2.134 -0.0184  0.4502  0.1909
 6539TIP3    H241253   4.698   3.562   2.085 -0.5248 -0.6727 -2.3596
 6540TIP3   OH241254   4.915   1.433   1.644  0.0435 -0.2459  0.1938
 6540TIP3    H141255   4.891   1.341   1.657  2.1268 -0.9164 -0.3215
 6540TIP3    H241256   4.941   1.438   1.552  1.4177  0.4702  0.5978
 6541TIP3   OH241257   4.899   5.684   1.769 -0.1047 -0.1692 -0.4254
 6541TIP3    H141258   4.887   5.775   1.739 -2.2111  0.1616  1.1595
 6541TIP3    H241259   4.973   5.689   1.829 -0.0199  0.4587 -0.5681
 6542TIP3   OH241260   0.976   6.080   6.036  0.5559 -0.3843  0.3935
 6542TIP3    H141261   0.980   6.083   6.132  0.9349 -0.0341  0.3716
 6542TIP3    H241262   1.068   6.080   6.009  0.4961  1.6867 -0.0240
 6543TIP3   OH241263   6.485   2.602   7.738 -0.6880 -0.2510  0.1239
 6543TIP3    H141264   6.427   2.668   7.778  0.3757  0.5379  0.4051
 6543TIP3    H241265   6.536   2.651   7.674 -1.5117 -1.2756 -1.3693
 6544TIP3   OH241266   1.857   0.414   8.257 -0.6638  0.1033 -0.4634
 6544TIP3    H141267   1.890   0.366   8.333  1.0608  0.8885 -0.6618
 6544TIP3    H241268   1.766   0.385   8.247 -0.8214 -0.2869  1.6732
 6545TIP3   OH241269   1.970   0.586   1.966  0.0444 -0.0840 -0.0965
 6545TIP3    H141270   2.063   0.609   1.959  0.0179  0.9201  2.0881
 6545TIP3    H241271   1.967   0.516   2.032 -0.8622  1.1023  1.1727
 6546TIP3   OH241272   3.831   3.192   7.878 -0.4730 -0.4398 -0.1933
 6546TIP3    H141273   3.899   3.226   7.936  0.3563  0.2908 -1.5623
 6546TIP3    H241274   3.804   3.267   7.825 -0.7386 -1.2360 -1.2162
 6547TIP3   OH241275   4.643   5.629   7.953  0.0182  0.3749 -0.0861
 6547TIP3    H141276   4.568   5.605   7.898 -0.1660 -1.8394  1.0002
 6547TIP3    H241277   4.605   5.676   8.026 -0.3547 -0.6820  0.4252
 6548TIP3   OH241278   1.920   1.154   7.812  0.6167 -0.2189  0.1237
 6548TIP3    H141279   1.827   1.130   7.814  0.5778 -0.0736  0.0365
 6548TIP3    H241280   1.956   1.107   7.737  0.7921 -0.9313  0.6445
 6549TIP3   OH241281   0.453   3.810   8.538 -0.4323 -0.6611  0.5905
 6549TIP3    H141282   0.399   3.744   8.582 -1.0465 -0.7606 -0.2897
 6549TIP3    H241283   0.509   3.759   8.479 -1.2809 -0.3888 -0.4913
 6550TIP3   OH241284   1.876   2.248   8.274 -0.0891  0.4396 -0.3205
 6550TIP3    H141285   1.808   2.189   8.240 -0.6514 -0.0428  1.5283
 6550TIP3    H241286   1.946   2.190   8.303 -1.2906  0.3975  2.9719
 6551TIP3   OH241287   3.494   4.365   6.751 -0.1600  0.4019  0.1964
 6551TIP3    H141288   3.561   4.371   6.819  0.0984  2.7440 -0.1688
 6551TIP3    H241289   3.503   4.277   6.716  0.2340 -0.6108  2.6262
 6552TIP3   OH241290   1.097   6.188   6.729  0.2440 -0.3431 -0.0613
 6552TIP3    H141291   1.061   6.269   6.692  0.5173 -0.2479 -0.1208
 6552TIP3    H241292   1.076   6.120   6.665  1.0568 -0.1136 -0.5883
 6553TIP3   OH241293   5.568   5.863   2.392 -0.0734  0.3487 -0.0750
 6553TIP3    H141294   5.587   5.941   2.340  1.5560 -0.2979 -0.5033
 6553TIP3    H241295   5.527   5.896   2.472  1.9076  1.8124  0.4132
 6554TIP3   OH241296   2.394   3.494   1.010  0.7129 -0.4764 -0.3256
 6554TIP3    H141297   2.361   3.510   1.098 -1.5122 -2.5831 -0.6723
 6554TIP3    H241298   2.330   3.535   0.952  0.8314 -1.1752 -0.9732
 6555TIP3   OH241299   4.006   1.091   1.429  0.8184  0.1527 -0.4906
 6555TIP3    H141300   4.094   1.083   1.467 -0.1890 -1.5010  1.7586
 6555TIP3    H241301   3.948   1.095   1.505 -1.0065  3.4794 -1.8624
 6556TIP3   OH241302   6.651   2.448   1.689  0.1487 -0.1383  0.2078
 6556TIP3    H141303   6.558   2.433   1.673 -0.6253  0.8077  3.1808
 6556TIP3    H241304   6.667   2.409   1.775  1.8934  1.8796  0.8806
 6557TIP3   OH241305   2.910   4.616   1.158 -0.6054  0.4744  0.2727
 6557TIP3    H141306   2.834   4.649   1.110 -1.4854 -0.6458  0.8436
 6557TIP3    H241307   2.875   4.545   1.211  0.6128  0.7710  1.5127
 6558TIP3   OH241308   0.320   5.522   0.203  0.2473 -0.0944  0.3076
 6558TIP3    H141309   0.329   5.610   0.166  0.4764  0.1396  0.9037
 6558TIP3    H241310   0.343   5.533   0.295  0.0136 -0.7295  0.4443
 6559TIP3   OH241311   1.364   5.180   8.522 -0.4796  0.1320  0.2598
 6559TIP3    H141312   1.361   5.153   8.430 -1.8337 -0.7873  0.5569
 6559TIP3    H241313   1.413   5.110   8.566  0.8429  0.9437  0.1519
 6560TIP3   OH241314   3.835   0.971   8.362  0.0615  0.4098  0.4480
 6560TIP3    H141315   3.750   1.005   8.390 -0.1911  0.6043 -0.5050
 6560TIP3    H241316   3.899   1.028   8.404 -0.3441  1.7434 -0.6541
 6561TIP3   OH241317   0.814   5.864   7.311  0.0509  0.2352  0.5684
 6561TIP3    H141318   0.731   5.820   7.296 -0.4068  1.6766 -1.6754
 6561TIP3    H241319   0.806   5.901   7.399 -2.4196  1.6805 -0.1520
 6562TIP3   OH241320   6.163   2.967   1.148 -0.0606  0.7624 -0.1570
 6562TIP3    H141321   6.145   3.006   1.234  1.1057  1.6852 -0.3043
 6562TIP3    H241322   6.077   2.960   1.107 -0.7670 -0.6435  1.4595
 6563TIP3   OH241323   4.546   3.684   8.539 -0.3315  0.2063 -0.4058
 6563TIP3    H141324   4.550   3.780   8.540 -1.5699  0.2847 -1.2790
 6563TIP3    H241325   4.505   3.663   8.456  0.9540 -1.1449 -0.7263
 6564TIP3   OH241326   3.224   5.061   8.342 -0.0258  0.0195  0.0506
 6564TIP3    H141327   3.295   5.123   8.360  0.7664 -0.5902 -0.8516
 6564TIP3    H241328   3.263   4.975   8.360 -0.9710 -0.2427  0.8716
 6565TIP3   OH241329   4.833   6.174   7.742  0.0971  1.0078 -0.1967
 6565TIP3    H141330   4.777   6.248   7.720 -1.4232  0.4047  1.3548
 6565TIP3    H241331   4.819   6.111   7.671  1.2988  2.1059 -1.4552
 6566TIP3   OH241332   5.895   4.716   0.429 -0.1153  0.5152 -0.0134
 6566TIP3    H141333   5.847   4.634   0.441 -1.3365  1.4226  1.7447
 6566TIP3    H241334   5.853   4.757   0.353  1.8391 -1.3105 -2.2376
 6567TIP3   OH241335   4.870   4.948   7.573 -0.2086 -1.0444  0.3318
 6567TIP3    H141336   4.810   5.017   7.599 -0.6101 -1.6334  0.9990
 6567TIP3    H241337   4.957   4.989   7.576 -0.6470  0.3198 -2.3234
 6568TIP3   OH241338   1.395   3.579   2.427 -0.3743  0.0852 -0.3175
 6568TIP3    H141339   1.468   3.548   2.373 -0.1397 -0.3324  0.2296
 6568TIP3    H241340   1.395   3.674   2.415 -1.3434 -0.1058 -2.3224
 6569TIP3   OH241341   6.224   4.636   1.274 -0.3399 -0.2845  0.1618
 6569TIP3    H141342   6.243   4.727   1.249  0.3038 -0.1595  1.0743
 6569TIP3    H241343   6.235   4.634   1.369  2.5386 -1.9626 -0.0791
 6570TIP3   OH241344   4.404   3.646   6.178 -0.3456  0.6494  0.1948
 6570TIP3    H141345   4.471   3.714   6.167 -0.4630  0.7400  0.0340
 6570TIP3    H241346   4.444   3.567   6.144  0.3345  0.3044  1.6864
 6571TIP3   OH241347   1.285   1.670   0.499 -0.3404  0.3906 -0.5074
 6571TIP3    H141348   1.201   1.643   0.461 -0.4918  0.4324 -0.2031
 6571TIP3    H241349   1.315   1.741   0.443 -0.3608  0.1708 -0.7995
 6572TIP3   OH241350   6.138   2.356   6.865 -0.1801  0.2283  0.2429
 6572TIP3    H141351   6.091   2.370   6.782 -1.5564  0.9719  1.1141
 6572TIP3    H241352   6.101   2.275   6.900 -0.0531  0.2524  0.4372
 6573TIP3   OH241353   3.201   6.732   7.299 -0.7687 -0.1187  0.1076
 6573TIP3    H141354   3.220   6.821   7.269  1.4763 -1.0962 -1.7331
 6573TIP3    H241355   3.135   6.699   7.238 -0.9453  0.0133  0.2299
 6574TIP3   OH241356   3.946   3.276   7.550  0.2569  0.1310  0.2821
 6574TIP3    H141357   3.869   3.304   7.599  0.3516  0.6305  0.1614
 6574TIP3    H241358   3.977   3.357   7.508 -0.2414 -0.4167 -1.1806
 6575TIP3   OH241359   0.388   5.527   1.230  0.6568  0.3406  0.1013
 6575TIP3    H141360   0.378   5.486   1.144 -4.0132 -1.5514  1.2392
 6575TIP3    H241361   0.463   5.482   1.269 -0.1874 -2.4326 -1.2223
 6576TIP3   OH241362   5.090   5.409   8.301 -0.1544 -0.0805  0.2397
 6576TIP3    H141363   5.179   5.442   8.296  0.0125 -0.6198 -0.5002
 6576TIP3    H241364   5.094   5.321   8.263 -0.9553 -0.2068  0.4106
 6577TIP3   OH241365   1.774   1.698   7.810 -0.5006 -0.1075  0.1611
 6577TIP3    H141366   1.763   1.616   7.859 -1.9037  0.5238  0.9435
 6577TIP3    H241367   1.752   1.675   7.720  3.1035 -1.5366 -0.5554
 6578TIP3   OH241368   2.294   1.252   7.006 -0.1642 -0.0790  0.1620
 6578TIP3    H141369   2.211   1.212   7.032 -1.1849  1.6964 -0.2015
 6578TIP3    H241370   2.332   1.190   6.943 -0.0397 -2.0355  2.0778
 6579TIP3   OH241371   1.595   1.757   0.588 -0.5387 -0.3027  0.6296
 6579TIP3    H141372   1.540   1.836   0.582  0.4128  0.4218  1.1182
 6579TIP3    H241373   1.571   1.718   0.672  0.4797  0.6460  1.3897
 6580TIP3   OH241374   5.403   4.192   0.765  0.1307  0.0710 -0.5167
 6580TIP3    H141375   5.477   4.134   0.746 -0.0759 -0.8866  1.3717
 6580TIP3    H241376   5.419   4.224   0.854 -1.5959  0.0098 -0.1457
 6581TIP3   OH241377   2.153   5.160   0.705  0.1366 -0.4373 -0.3946
 6581TIP3    H141378   2.195   5.108   0.638 -0.5730  1.1205 -2.1366
 6581TIP3    H241379   2.165   5.251   0.677  0.7213  0.3654  2.1416
 6582TIP3   OH241380   3.076   0.608   6.767 -0.1245 -0.2325 -0.2004
 6582TIP3    H141381   3.000   0.631   6.713  0.2031  0.1323 -0.5150
 6582TIP3    H241382   3.096   0.518   6.742 -0.4929 -0.3548 -0.0674
 6583TIP3   OH241383   6.028   2.703   0.820  0.2994  0.1113 -0.1866
 6583TIP3    H141384   6.025   2.620   0.772  1.3523  0.1236 -0.3000
 6583TIP3    H241385   6.120   2.714   0.843  0.4282  1.9475 -1.4063
 6584TIP3   OH241386   2.033   4.521   0.768 -0.3422  0.3842 -0.4436
 6584TIP3    H141387   2.040   4.586   0.838  0.3963  0.8052 -0.8976
 6584TIP3    H241388   2.118   4.523   0.725 -0.0761 -1.3567 -0.0746
 6585TIP3   OH241389   5.689   4.516   0.492  0.1037  0.1662 -0.1575
 6585TIP3    H141390   5.644   4.463   0.426  1.6241  0.6191 -1.6072
 6585TIP3    H241391   5.648   4.489   0.575 -2.7793  0.5178 -1.3352
 6586TIP3   OH241392   6.730   6.151   1.646  0.5175  0.4543  0.0363
 6586TIP3    H141393   6.669   6.217   1.614 -0.8572 -0.7630  0.0362
 6586TIP3    H241394   6.815   6.195   1.648 -0.0075  1.6461 -1.7774
 6587TIP3   OH241395   5.867   5.642   0.373 -0.2806 -0.7104 -0.2589
 6587TIP3    H141396   5.820   5.702   0.316  1.6914 -0.1803 -1.4350
 6587TIP3    H241397   5.801   5.609   0.434 -1.5329  2.3423  0.2197
 6588TIP3   OH241398   1.104   5.896   0.286 -0.1669  0.1720 -0.3933
 6588TIP3    H141399   1.072   5.879   0.197  2.2110 -2.8497 -0.8305
 6588TIP3    H241400   1.188   5.940   0.274  0.4692 -0.8011  0.2626
 6589TIP3   OH241401   2.067   1.230   0.931  0.2897  0.6250 -0.6278
 6589TIP3    H141402   1.976   1.201   0.941  0.3713  0.7979  0.8104
 6589TIP3    H241403   2.066   1.287   0.854 -0.6185 -0.1247 -1.1950
 6590TIP3   OH241404   0.371   5.596   8.173  0.3104 -0.6750  0.2718
 6590TIP3    H141405   0.460   5.562   8.163  0.1661 -0.9428 -0.1314
 6590TIP3    H241406   0.339   5.557   8.254  0.2022 -1.3758 -0.1082
 6591TIP3   OH241407   4.039   0.351   8.367 -0.0609 -0.5873 -0.5917
 6591TIP3    H141408   4.085   0.270   8.346  0.3728 -0.2401 -0.9758
 6591TIP3    H241409   3.992   0.331   8.448  1.2008 -0.7839  0.1243
 6592TIP3   OH241410   6.253   4.832   7.080  0.0327 -0.2510 -0.1187
 6592TIP3    H141411   6.301   4.757   7.046  0.3735 -0.3438  0.5474
 6592TIP3    H241412   6.164   4.821   7.046  1.1855  1.9130 -4.5941
 6593TIP3   OH241413   4.405   1.562   7.271  0.6413 -0.1033 -0.4642
 6593TIP3    H141414   4.350   1.545   7.348 -0.3325  1.3497 -0.7959
 6593TIP3    H241415   4.482   1.507   7.284  0.3888 -0.0847  1.4209
 6594TIP3   OH241416   3.387   2.709   7.713  0.0602  0.8615 -0.1200
 6594TIP3    H141417   3.342   2.793   7.726  0.3501  1.0346 -0.2075
 6594TIP3    H241418   3.381   2.693   7.619  2.1198  2.0232 -0.5168
 6595TIP3   OH241419   4.163   4.893   6.704 -0.5887  0.2715  0.2797
 6595TIP3    H141420   4.087   4.848   6.669 -0.8691 -0.3357  1.6066
 6595TIP3    H241421   4.127   4.967   6.753 -0.3034  0.2873  0.4698
 6596TIP3   OH241422   2.447   1.457   6.843 -0.2492 -0.0024 -0.0586
 6596TIP3    H141423   2.398   1.427   6.919 -2.6127  2.2785 -0.5495
 6596TIP3    H241424   2.394   1.430   6.768  1.1302 -0.6479 -0.8367
 6597TIP3   OH241425   6.707   3.852   7.236 -0.1427 -0.3120 -0.7093
 6597TIP3    H141426   6.796   3.823   7.216 -0.9012 -1.4719 -2.6435
 6597TIP3    H241427   6.665   3.776   7.275 -1.5370 -1.3822 -3.9369
 6598TIP3   OH241428   5.774   2.752   0.219  0.1679  0.0887 -0.2047
 6598TIP3    H141429   5.835   2.781   0.151  1.5806  0.7115  1.2724
 6598TIP3    H241430   5.721   2.829   0.239  0.4873  0.2235  0.1414
 6599TIP3   OH241431   5.998   0.259   7.328  0.1321  0.4516 -0.1715
 6599TIP3    H141432   5.934   0.209   7.277 -0.1144 -0.3704  0.9006
 6599TIP3    H241433   6.068   0.279   7.266 -0.6832  0.4804 -1.1099
 6600TIP3   OH241434   5.548   0.021   7.831 -0.3565 -0.1317 -0.2833
 6600TIP3    H141435   5.465   0.035   7.876  0.5182 -0.0758  1.3628
 6600TIP3    H241436   5.589   0.108   7.828  0.1632 -0.3683 -0.0383
 6601TIP3   OH241437   1.992   1.841   7.855 -0.0442  0.0123 -0.3984
 6601TIP3    H141438   1.923   1.785   7.817  0.0446 -1.7007  1.7527
 6601TIP3    H241439   1.945   1.917   7.888 -0.5861 -0.0829 -0.9303
 6602TIP3   OH241440   4.226   6.562   8.238  0.0813  0.1663 -0.0478
 6602TIP3    H141441   4.232   6.467   8.244 -0.9736 -0.0051 -1.1447
 6602TIP3    H241442   4.133   6.580   8.250  0.2825  1.0697  0.2046
 6603TIP3   OH241443   6.446   3.243   7.738  0.2830 -0.4508 -0.0304
 6603TIP3    H141444   6.419   3.165   7.689 -0.4393 -0.5422  0.4967
 6603TIP3    H241445   6.399   3.236   7.822  0.7315  0.2073  0.2813
 6604TIP3   OH241446   3.580   5.412   0.981  0.0284 -0.5492 -0.3964
 6604TIP3    H141447   3.541   5.494   0.951 -1.2242 -0.3588  1.5917
 6604TIP3    H241448   3.509   5.366   1.026  1.5090 -1.1805  1.4356
 6605TIP3   OH241449   1.130   6.505   7.035 -0.1447  0.2406  0.5807
 6605TIP3    H141450   1.124   6.600   7.030 -0.6822  0.2262  0.8934
 6605TIP3    H241451   1.043   6.474   7.011 -0.1461 -0.1476  1.0662
 6606TIP3   OH241452   3.487   6.708   0.663  0.2846 -0.2140  0.1545
 6606TIP3    H141453   3.416   6.663   0.616  0.9224  0.6228 -1.6894
 6606TIP3    H241454   3.551   6.639   0.681  0.0559 -0.5535 -0.2886
 6607TIP3   OH241455   6.396   5.849   7.308 -0.5115  0.0955 -0.6827
 6607TIP3    H141456   6.318   5.867   7.361 -0.4742 -1.8502  0.1020
 6607TIP3    H241457   6.361   5.818   7.225 -0.5502  0.4777 -0.8155
 6608TIP3   OH241458   2.473   5.877   1.162 -0.2161  0.5082  0.3285
 6608TIP3    H141459   2.395   5.831   1.195 -0.5161  1.2186  0.6187
 6608TIP3    H241460   2.447   5.909   1.076 -0.4788  1.3262  0.7046
 6609TIP3   OH241461   5.343   4.037   0.105  0.1925 -0.1896 -0.3772
 6609TIP3    H141462   5.303   4.075   0.027  0.5211  0.6525 -0.1518
 6609TIP3    H241463   5.296   4.078   0.178  0.9047  0.2017 -0.1220
 6610TIP3   OH241464   2.357   0.917   8.599 -0.4353 -0.2930  0.2215
 6610TIP3    H141465   2.348   0.928   8.694  2.5161 -2.1200  0.8349
 6610TIP3    H241466   2.325   0.829   8.582 -2.4004  0.5520 -0.8345
 6611TIP3   OH241467   1.667   3.465   8.111 -0.1962 -0.0567 -0.1436
 6611TIP3    H141468   1.604   3.523   8.067 -0.1135 -0.6885 -1.1290
 6611TIP3    H241469   1.621   3.437   8.191 -1.0074 -0.1695 -0.6331
 6612TIP3   OH241470   2.475   4.017   0.669  0.3836 -0.2076 -0.2864
 6612TIP3    H141471   2.456   4.107   0.694 -1.6821 -1.1366  1.8419
 6612TIP3    H241472   2.564   4.001   0.701 -0.9207 -0.2848  3.7960
 6613TIP3   OH241473   6.127   4.232   1.155  0.3208 -0.1022  0.3198
 6613TIP3    H141474   6.043   4.187   1.170  0.2101 -0.0549 -0.1446
 6613TIP3    H241475   6.102   4.322   1.134  0.4412 -0.3061 -0.7065
 6614TIP3   OH241476   5.772   2.738   8.368 -0.6352  0.1881  0.0299
 6614TIP3    H141477   5.690   2.692   8.386 -0.0800 -0.9157 -0.1456
 6614TIP3    H241478   5.839   2.684   8.410 -0.0508  1.4313  0.7459
 6615TIP3   OH241479   4.959   4.881   0.396 -0.3056 -0.2325 -0.3335
 6615TIP3    H141480   5.037   4.838   0.361 -0.6092  0.0248 -1.3845
 6615TIP3    H241481   4.886   4.837   0.352 -0.9749 -2.2028  2.4629
 6616TIP3   OH241482   0.019   3.071   1.302 -0.0148  0.2919 -0.2934
 6616TIP3    H141483   0.073   3.124   1.362  2.0662 -1.5490 -0.4442
 6616TIP3    H241484   0.068   3.070   1.220 -2.4223  2.0594 -1.9109
 6617TIP3   OH241485   4.775   2.746   0.200 -0.0097 -0.4116  0.6191
 6617TIP3    H141486   4.865   2.730   0.172 -0.7077 -3.2551 -0.3726
 6617TIP3    H241487   4.748   2.823   0.149  2.6733  2.5485  3.2323
 6618TIP3   OH241488   2.304   4.679   8.563 -0.0076 -0.9336 -0.2475
 6618TIP3    H141489   2.250   4.754   8.538 -1.0431 -2.1840 -1.9587
 6618TIP3    H241490   2.394   4.712   8.559 -0.4699  1.5287  3.7151
 6619TIP3   OH241491   4.506   3.644   7.813  0.0476 -0.1014  0.8648
 6619TIP3    H141492   4.485   3.552   7.793 -0.1569  0.4141 -1.4974
 6619TIP3    H241493   4.483   3.692   7.734 -1.4384  2.2896  2.6106
 6620TIP3   OH241494   2.967   5.965   7.625  0.3665 -0.7469  0.2510
 6620TIP3    H141495   2.898   6.023   7.658  0.7932  1.8439 -2.9647
 6620TIP3    H241496   2.922   5.904   7.567  0.6881  2.5372 -3.9195
 6621TIP3   OH241497   0.411   6.558   0.938 -0.2295  0.4318  0.1442
 6621TIP3    H141498   0.496   6.594   0.913 -0.3961  1.1817  0.6468
 6621TIP3    H241499   0.429   6.507   1.017 -0.5354  2.0852  1.3302
 6622TIP3   OH241500   2.958   0.522   7.984 -0.0691 -0.3806 -0.1522
 6622TIP3    H141501   2.928   0.595   8.038 -0.0150  0.3082 -1.0329
 6622TIP3    H241502   3.036   0.488   8.030 -0.1669  0.0335  0.3221
 6623TIP3   OH241503   2.632   4.321   6.480  0.1262  0.6649  0.1072
 6623TIP3    H141504   2.625   4.407   6.439  0.3307  0.9098  0.5779
 6623TIP3    H241505   2.679   4.337   6.562  0.9371 -0.0279 -0.2081
 6624TIP3   OH241506   4.660   6.425   7.002  0.1345  0.1080  0.1774
 6624TIP3    H141507   4.708   6.366   7.059  0.4051  0.3640  0.2211
 6624TIP3    H241508   4.616   6.368   6.939  1.8006 -0.0784 -0.8748
 6625TIP3   OH241509   0.102   3.852   0.549  0.4622 -0.3511 -0.0232
 6625TIP3    H141510   0.020   3.896   0.569  1.0446  0.6463  0.2611
 6625TIP3    H241511   0.080   3.789   0.481 -0.4823  0.1158 -0.1616
 6626TIP3   OH241512   6.573   5.296   1.219  0.2620 -0.0306  0.1460
 6626TIP3    H141513   6.651   5.247   1.248  0.6500  1.0448  0.9703
 6626TIP3    H241514   6.566   5.368   1.281 -1.8432 -0.5199  0.5323
 6627TIP3   OH241515   3.669   6.712   7.596 -0.0692  0.6966  0.2768
 6627TIP3    H141516   3.624   6.687   7.677  0.8291  2.9681  1.5666
 6627TIP3    H241517   3.755   6.670   7.602 -0.5674 -0.4829 -0.3513
 6628TIP3   OH241518   6.533   6.151   8.471  0.2034  0.2488 -0.5156
 6628TIP3    H141519   6.510   6.124   8.382 -3.7304 -1.8882  0.9190
 6628TIP3    H241520   6.538   6.069   8.520  2.8242  1.3423  1.2186
 6629TIP3   OH241521   2.159   1.332   8.094  0.6227  0.0209 -0.1305
 6629TIP3    H141522   2.206   1.334   8.011  2.2048  0.8593  0.7294
 6629TIP3    H241523   2.159   1.240   8.120  1.1720 -0.0791 -0.4834
 6630TIP3   OH241524   5.479   2.751   1.384  0.5731 -0.0608 -0.2248
 6630TIP3    H141525   5.453   2.812   1.453  0.1720 -1.3525  0.7942
 6630TIP3    H241526   5.474   2.665   1.424  1.7873 -0.7383 -1.4461
 6631TIP3   OH241527   1.915   3.119   6.650 -0.3044 -0.4756  0.2954
 6631TIP3    H141528   1.988   3.125   6.588  0.4703  3.1295  1.2984
 6631TIP3    H241529   1.838   3.144   6.599  0.3988  2.9506  0.6578
 6632TIP3   OH241530   5.074   2.003   0.016 -0.6039  0.4723  0.3963
 6632TIP3    H141531   4.992   2.006   0.066 -0.0206  0.8672  1.3645
 6632TIP3    H241532   5.064   2.072  -0.050 -1.0550  0.5291  0.5217
 6633TIP3   OH241533   1.482   1.531   8.509  0.2128  0.3507  0.5781
 6633TIP3    H141534   1.533   1.535   8.428 -2.5675 -1.2757 -1.4380
 6633TIP3    H241535   1.546   1.514   8.578  2.5068 -0.0066 -1.5171
 6634TIP3   OH241536   1.060   5.415   8.410  0.8961  0.2752 -0.3115
 6634TIP3    H141537   1.112   5.462   8.475  2.3654  0.5780 -1.6468
 6634TIP3    H241538   1.109   5.425   8.329 -0.7560 -0.3111 -1.4266
 6635TIP3   OH241539   3.614   0.708   8.246  0.2226  0.8013 -0.6115
 6635TIP3    H141540   3.550   0.775   8.223 -0.9447 -0.2824 -0.6673
 6635TIP3    H241541   3.563   0.627   8.250  1.3234  0.1257  0.7924
 6636TIP3   OH241542   3.046   0.700   7.459  0.1254 -0.2247 -0.6331
 6636TIP3    H141543   3.028   0.639   7.387 -1.5939  1.6236 -1.8793
 6636TIP3    H241544   2.995   0.665   7.533 -1.5661  0.0855 -1.5900
 6637TIP3   OH241545   6.938   1.213   8.011 -0.4129  0.5058  0.1190
 6637TIP3    H141546   6.854   1.183   8.045 -0.5060 -0.2484 -0.7443
 6637TIP3    H241547   6.942   1.305   8.035 -0.6777  0.1219  1.7415
 6638TIP3   OH241548   6.878   5.455   7.653 -0.5220  0.3917  0.3195
 6638TIP3    H141549   6.918   5.538   7.628 -1.3425  1.1041  1.2870
 6638TIP3    H241550   6.786   5.477   7.669 -0.5777 -0.5246  1.3880
 6639TIP3   OH241551   3.609   3.426   2.328  0.3190 -0.9731 -0.0328
 6639TIP3    H141552   3.545   3.438   2.258  0.5143 -0.0345 -0.0559
 6639TIP3    H241553   3.670   3.499   2.318  0.4039 -0.8845  1.0582
 6640TIP3   OH241554   4.312   5.231   1.341  0.1230  0.0977 -0.0054
 6640TIP3    H141555   4.225   5.269   1.329 -0.1272 -0.2847  0.5394
 6640TIP3    H241556   4.373   5.302   1.320 -0.3188  0.3818 -0.3414
 6641TIP3   OH241557   4.065   6.736   0.073 -0.0242 -0.1718 -0.0932
 6641TIP3    H141558   4.116   6.745   0.154  0.2906 -0.6599 -0.2279
 6641TIP3    H241559   3.992   6.796   0.083  0.8798  0.9598 -0.1398
 6642TIP3   OH241560   0.691   0.636   6.746 -0.7124  0.2234 -0.2368
 6642TIP3    H141561   0.677   0.648   6.652 -1.1113 -0.5790 -0.2856
 6642TIP3    H241562   0.678   0.724   6.783 -0.8148  0.4950 -0.8941
 6643TIP3   OH241563   3.651   4.800   0.463 -0.4338  0.2405  0.4268
 6643TIP3    H141564   3.660   4.895   0.452  1.9986  0.2924  2.1485
 6643TIP3    H241565   3.741   4.768   0.465 -1.1631 -1.8981  1.6586
 6644TIP3   OH241566   0.032   1.100   1.024  0.9397  0.2631 -0.0602
 6644TIP3    H141567   0.033   1.006   1.011  2.4570 -0.0388  1.7493
 6644TIP3    H241568   0.103   1.133   0.970 -0.6285  0.6528 -2.0039
 6645TIP3   OH241569   0.281   6.680   2.067  0.2118 -0.0183  0.2462
 6645TIP3    H141570   0.208   6.692   2.128 -0.2919 -0.0963 -0.3241
 6645TIP3    H241571   0.284   6.761   2.016 -0.7455 -0.7539 -1.0432
 6646TIP3   OH241572   3.924   4.847   8.525 -0.6625  0.0070 -0.1801
 6646TIP3    H141573   3.963   4.925   8.487  2.0502 -1.0318  0.2215
 6646TIP3    H241574   3.873   4.809   8.453  2.6670 -0.8170 -2.3749
 6647TIP3   OH241575   4.160   0.006   7.612  0.7415  0.0204 -0.1100
 6647TIP3    H141576   4.134  -0.020   7.700  0.1386  2.5934  0.5484
 6647TIP3    H241577   4.254  -0.013   7.607  0.7834 -0.1162  1.0870
 6648TIP3   OH241578   4.966   1.360   1.361 -0.2240 -0.2289  0.2392
 6648TIP3    H141579   5.013   1.280   1.385 -0.7600 -0.4905  0.4456
 6648TIP3    H241580   5.006   1.388   1.279  1.8881  0.8730  1.5564
 6649TIP3   OH241581   1.315   2.280   0.928  0.2475  0.4859 -0.5928
 6649TIP3    H141582   1.393   2.299   0.980  0.7533  1.7125 -1.7166
 6649TIP3    H241583   1.306   2.185   0.931 -0.5333  0.5560  2.7442
 6650TIP3   OH241584   1.446   6.530   2.129 -0.1384 -0.1123 -0.2363
 6650TIP3    H141585   1.471   6.445   2.094 -2.2966 -2.2894  2.9968
 6650TIP3    H241586   1.350   6.531   2.123 -0.1936  1.8658  0.3324
 6651TIP3   OH241587   4.874   0.421   2.142 -0.4649  0.1422 -0.4269
 6651TIP3    H141588   4.781   0.429   2.160 -0.2825  1.8656 -0.1054
 6651TIP3    H241589   4.897   0.332   2.171 -1.4890  0.5634  1.8783
 6652TIP3   OH241590   1.833   2.749   7.729 -0.3324 -0.0559 -0.2234
 6652TIP3    H141591   1.822   2.711   7.816 -0.4976 -2.7832 -1.3500
 6652TIP3    H241592   1.749   2.791   7.710 -0.1583  0.9337  1.0360
 6653TIP3   OH241593   1.483   0.603   8.620  0.3537  0.2646  0.3842
 6653TIP3    H141594   1.562   0.562   8.655  0.5333  2.0927  2.3287
 6653TIP3    H241595   1.512   0.648   8.540  0.5987 -1.4483 -0.5427
 6654TIP3   OH241596   1.494   5.743   1.970 -0.1938  0.1226  0.1940
 6654TIP3    H141597   1.401   5.730   1.991  0.2581 -0.2373  2.2390
 6654TIP3    H241598   1.539   5.674   2.018  1.2846  1.4782  0.8576
 6655TIP3   OH241599   5.690   4.753   8.204  0.1795  0.0586  0.6806
 6655TIP3    H141600   5.671   4.792   8.119  0.1303 -0.1127  0.6144
 6655TIP3    H241601   5.771   4.704   8.191  0.4215  0.4031  0.8470
 6656TIP3   OH241602   3.268   2.322   0.906  0.1604  0.3845 -0.5615
 6656TIP3    H141603   3.198   2.320   0.841 -2.6798  1.7295  2.2001
 6656TIP3    H241604   3.275   2.413   0.932  0.7185 -0.1826  1.4658
 6657TIP3   OH241605   5.820   5.610   6.573 -0.4310 -0.2253  0.5905
 6657TIP3    H141606   5.760   5.551   6.619 -0.7053 -0.8260 -0.5120
 6657TIP3    H241607   5.824   5.576   6.484  2.0842 -0.6302  0.7670
 6658TIP3   OH241608   2.889   1.366   8.354 -0.2823 -0.3030  0.3090
 6658TIP3    H141609   2.930   1.370   8.268 -0.7324 -2.0523 -0.0287
 6658TIP3    H241610   2.829   1.440   8.355 -1.6010 -1.2585 -1.6413
 6659TIP3   OH241611   2.301   3.328   7.816  0.0652  0.0196  0.1760
 6659TIP3    H141612   2.289   3.246   7.768  0.5457 -0.3859  0.7395
 6659TIP3    H241613   2.340   3.388   7.752 -0.2612 -0.1952 -0.2294
 6660TIP3   OH241614   0.110   5.545   0.387 -0.2944  0.0302 -0.4346
 6660TIP3    H141615   0.084   5.471   0.332  0.4734 -0.6974  0.1514
 6660TIP3    H241616   0.198   5.521   0.418 -1.0389  0.0005  1.8075
 6661TIP3   OH241617   6.595   2.464   7.098 -0.0374  0.2814 -0.9769
 6661TIP3    H141618   6.601   2.376   7.060  0.3887  0.0908 -0.4748
 6661TIP3    H241619   6.654   2.517   7.043 -0.3540  0.2745 -1.3277
 6662TIP3   OH241620   4.728   5.212   1.238  0.1002  0.4174 -0.4190
 6662TIP3    H141621   4.707   5.304   1.252 -0.0910  0.3568 -0.2969
 6662TIP3    H241622   4.769   5.184   1.319  2.8221  1.1229 -1.4415
 6663TIP3   OH241623   3.573   3.157   8.379 -0.0974  0.0592  0.2977
 6663TIP3    H141624   3.567   3.237   8.432  0.0917 -0.0898  0.5439
 6663TIP3    H241625   3.659   3.162   8.337 -0.7764  0.8498 -1.0864
 6664TIP3   OH241626   6.374   3.801   1.756  0.3372 -0.1880 -0.5256
 6664TIP3    H141627   6.299   3.820   1.699  0.9358  0.6563 -1.0547
 6664TIP3    H241628   6.389   3.707   1.747 -0.1373 -0.2141 -1.0609
 6665TIP3   OH241629   4.716   5.990   7.202 -0.2976  0.0815 -0.1071
 6665TIP3    H141630   4.761   5.912   7.236  1.4311  0.8002 -0.6479
 6665TIP3    H241631   4.644   5.954   7.149 -0.3195 -1.1195  0.6965
 6666TIP3   OH241632   4.368   0.007   8.125 -0.4062 -0.3016  0.0019
 6666TIP3    H141633   4.386   0.090   8.080 -1.9623 -0.5516 -1.1597
 6666TIP3    H241634   4.441  -0.050   8.101  0.5361  0.6215  0.5952
 6667TIP3   OH241635   6.304   0.507   8.339  0.3474 -0.2756  0.1341
 6667TIP3    H141636   6.227   0.483   8.391  0.7642 -1.2010  0.3451
 6667TIP3    H241637   6.378   0.478   8.392  0.8919  1.4639  0.3721
 6668TIP3   OH241638   2.466   3.780   7.730  0.3656  0.7639  0.0538
 6668TIP3    H141639   2.445   3.732   7.650  0.0248 -0.2705  0.7414
 6668TIP3    H241640   2.384   3.823   7.754 -0.7445 -2.0443  1.9008
 6669TIP3   OH241641   2.541   0.611   0.993  0.1240 -0.2846 -0.4335
 6669TIP3    H141642   2.535   0.519   1.022  3.0635 -0.1248  1.0327
 6669TIP3    H241643   2.479   0.657   1.050 -1.0006 -1.2600 -0.8271
 6670TIP3   OH241644   0.492   0.838   1.565 -0.0359 -0.1855 -0.7258
 6670TIP3    H141645   0.427   0.908   1.561  0.7126  0.4943 -1.4090
 6670TIP3    H241646   0.458   0.777   1.630 -0.6139  0.9019  0.0120
 6671TIP3   OH241647   0.611   1.001   7.216 -0.0302 -0.1220  0.2414
 6671TIP3    H141648   0.690   1.041   7.253 -0.4978 -0.4681  1.6982
 6671TIP3    H241649   0.544   1.016   7.283 -1.0727 -0.3086 -0.7303
 6672TIP3   OH241650   6.503   0.762   2.006 -0.1571 -0.4575  0.0533
 6672TIP3    H141651   6.426   0.818   1.998  1.3485  1.9686  1.1192
 6672TIP3    H241652   6.494   0.721   2.093 -0.0551  0.1885  0.3775
 6673TIP3   OH241653   5.139   2.775   6.961  0.6046 -0.5966  0.0819
 6673TIP3    H141654   5.147   2.691   7.007  0.7450 -1.0145 -0.6986
 6673TIP3    H241655   5.071   2.761   6.896  1.0776 -0.3014 -0.4872
 6674TIP3   OH241656   0.417   2.242   8.364  0.7558  0.1724 -0.4358
 6674TIP3    H141657   0.390   2.329   8.395  0.3129  0.4908 -1.6470
 6674TIP3    H241658   0.423   2.189   8.443 -1.3973  0.6510  0.1160
 6675TIP3   OH241659   4.066   4.816   7.634 -0.4302 -0.0176  0.0598
 6675TIP3    H141660   4.014   4.894   7.655 -0.7827 -0.7697  2.2145
 6675TIP3    H241661   4.003   4.744   7.639  0.5279 -0.7943  1.3612
 6676TIP3   OH241662   2.515   2.468   6.487 -0.0745 -0.2296  0.7523
 6676TIP3    H141663   2.531   2.421   6.405 -0.6310 -0.1980  0.6189
 6676TIP3    H241664   2.473   2.403   6.544  1.4540 -0.6314  1.4795
 6677TIP3   OH241665   0.158   4.423   1.268  0.1547 -0.0037  0.1566
 6677TIP3    H141666   0.181   4.364   1.340  0.5066  1.1782  1.0565
 6677TIP3    H241667   0.071   4.395   1.240  1.0648 -2.1417 -0.7360
 6678TIP3   OH241668   2.365   0.904   0.247 -0.0095  0.4783 -0.5227
 6678TIP3    H141669   2.316   0.828   0.277 -1.2244  0.9357 -1.2843
 6678TIP3    H241670   2.346   0.972   0.312  1.0930  0.1591  0.1704
 6679TIP3   OH241671   4.361   2.494   0.692 -0.3322 -0.5185 -0.1928
 6679TIP3    H141672   4.268   2.498   0.669  0.0220 -0.8881 -1.8395
 6679TIP3    H241673   4.406   2.487   0.608  1.1646 -0.8714  0.6014
 6680TIP3   OH241674   2.337   3.729   7.490 -0.3356  0.4609 -0.7660
 6680TIP3    H141675   2.248   3.695   7.491 -0.2694  0.2451 -1.5739
 6680TIP3    H241676   2.376   3.693   7.411  0.6129  0.2030 -0.2042
 6681TIP3   OH241677   0.282   5.233   8.617 -0.2439 -0.1814  0.0485
 6681TIP3    H141678   0.283   5.173   8.692 -0.7340 -0.6814 -0.3365
 6681TIP3    H241679   0.339   5.191   8.552 -0.8028 -0.3800 -0.3245
 6682TIP3   OH241680   3.485   6.412   6.793  0.3382 -0.2927  0.0102
 6682TIP3    H141681   3.537   6.488   6.767  2.0821 -1.2611  0.5477
 6682TIP3    H241682   3.520   6.340   6.741  0.0513 -1.1249  0.9390
 6683TIP3   OH241683   4.767   5.986   7.562 -0.7478  0.0405  0.2822
 6683TIP3    H141684   4.723   5.963   7.643 -0.3269 -0.1146  0.4681
 6683TIP3    H241685   4.698   5.987   7.496 -1.0887  0.1717  0.6433
 6684TIP3   OH241686   4.637   5.213   6.566 -0.6470 -0.1119  0.2420
 6684TIP3    H141687   4.703   5.267   6.524  0.8158 -1.7023  0.3475
 6684TIP3    H241688   4.568   5.274   6.592  0.5371  1.5441 -0.3366
 6685TIP3   OH241689   2.029   2.866   7.468 -0.4331  0.5146 -0.6181
 6685TIP3    H141690   1.935   2.853   7.455 -0.3962 -1.2301  0.5734
 6685TIP3    H241691   2.041   2.864   7.563  1.0647 -1.8189 -0.7628
 6686TIP3   OH241692   2.598   1.812   8.219  0.1346  0.1839  0.1558
 6686TIP3    H141693   2.581   1.830   8.126 -0.1116 -0.3787  0.0860
 6686TIP3    H241694   2.650   1.887   8.249  0.6775  0.1153 -0.5729
 6687TIP3   OH241695   6.711   1.376   8.151  0.0716 -0.0382  0.3469
 6687TIP3    H141696   6.689   1.462   8.115 -0.2374 -0.4503 -0.4519
 6687TIP3    H241697   6.784   1.394   8.211  1.0168  0.5760 -0.9433
 6688TIP3   OH241698   5.395   5.423   1.131 -0.1664 -0.6585 -0.3580
 6688TIP3    H141699   5.391   5.514   1.101 -0.6498 -0.8400 -0.8787
 6688TIP3    H241700   5.488   5.400   1.128  0.2174  0.4064  1.6519
 6689TIP3   OH241701   1.598   3.612   0.904 -0.0538 -0.8248 -0.0047
 6689TIP3    H141702   1.633   3.582   0.820 -1.5733  0.1183 -1.0246
 6689TIP3    H241703   1.517   3.562   0.916 -0.8712  0.4260 -0.0995
 6690TIP3   OH241704   1.482   0.012   8.182 -0.4734  0.3381 -0.5415
 6690TIP3    H141705   1.475   0.052   8.095  0.7104  1.2147 -0.2573
 6690TIP3    H241706   1.426  -0.065   8.178 -1.7615  1.2942 -1.5430
 6691TIP3   OH241707   2.318   2.946   1.713 -0.6049 -0.5681 -0.1066
 6691TIP3    H141708   2.396   2.908   1.753  1.2061  2.5722 -0.2736
 6691TIP3    H241709   2.246   2.919   1.770  1.4916  1.5592  4.0271
 6692TIP3   OH241710   5.217   2.269   7.612 -0.6558  0.2840 -0.4249
 6692TIP3    H141711   5.183   2.179   7.605 -2.5313  0.8821  0.3520
 6692TIP3    H241712   5.288   2.272   7.549  0.0795 -2.0238  0.1801
 6693TIP3   OH241713   4.542   1.380   1.243 -0.1300 -0.6775  0.2008
 6693TIP3    H141714   4.572   1.471   1.238  1.1203 -1.1217 -1.1380
 6693TIP3    H241715   4.498   1.365   1.159 -1.8635 -0.8375  1.0880
 6694TIP3   OH241716   6.866   2.475   0.255  0.4521  0.4148 -0.0925
 6694TIP3    H141717   6.785   2.526   0.245 -0.1097 -0.5475 -0.6412
 6694TIP3    H241718   6.843   2.406   0.318  0.8035  0.0565 -0.3505
 6695TIP3   OH241719   6.270   5.752   7.062 -0.4171 -0.3642 -0.7788
 6695TIP3    H141720   6.306   5.749   6.973  0.3510 -0.7240 -0.4668
 6695TIP3    H241721   6.261   5.660   7.087  0.8226 -0.2709  0.0820
 6696TIP3   OH241722   3.356   4.549   1.017  0.2148 -0.0015 -0.0461
 6696TIP3    H141723   3.435   4.501   0.992  0.7798  1.4892 -1.3066
 6696TIP3    H241724   3.385   4.606   1.088  0.2219  0.3842 -0.3569
 6697TIP3   OH241725   5.330   2.012   7.004 -0.3560  0.3747 -0.4624
 6697TIP3    H141726   5.290   2.077   6.947 -2.0537 -0.1294  0.1099
 6697TIP3    H241727   5.309   1.928   6.963  0.8531  0.1160 -0.5902
 6698TIP3   OH241728   1.590   4.236   6.085 -0.1105  0.4641 -0.0629
 6698TIP3    H141729   1.553   4.152   6.057 -0.2816  0.4099  0.3160
 6698TIP3    H241730   1.616   4.221   6.176  1.4222  0.3132 -0.4879
 6699TIP3   OH241731   3.163   1.996   7.402  0.4073  0.3911 -0.1745
 6699TIP3    H141732   3.100   2.067   7.416 -0.5674 -0.2918 -0.9705
 6699TIP3    H241733   3.143   1.932   7.471 -0.9810 -0.6329 -1.4796
 6700TIP3   OH241734   6.027   5.074   8.496  0.0925 -0.0270  0.8097
 6700TIP3    H141735   5.978   5.003   8.456  0.5607  0.6210 -1.0412
 6700TIP3    H241736   5.964   5.146   8.502 -0.1387 -0.3009  1.8474
 6701TIP3   OH241737   4.638   1.429   7.938  0.2934  0.2634 -0.8261
 6701TIP3    H141738   4.592   1.489   7.997 -0.0263 -1.7693  1.1117
 6701TIP3    H241739   4.632   1.470   7.852 -1.4586  2.1040  0.1050
 6702TIP3   OH241740   3.678   3.121   7.073  0.3392 -0.1251  0.0408
 6702TIP3    H141741   3.646   3.042   7.117 -1.4184 -0.2020 -1.2882
 6702TIP3    H241742   3.691   3.094   6.982 -0.1100  1.0789 -0.3948
 6703TIP3   OH241743   5.489   5.109   0.229  0.6567  0.0163 -0.3358
 6703TIP3    H141744   5.569   5.158   0.209  0.8074 -0.6335 -1.4052
 6703TIP3    H241745   5.507   5.020   0.198  0.4316 -0.7950  1.6768
 6704TIP3   OH241746   6.525   2.959   8.020  0.0045 -0.5871 -0.3258
 6704TIP3    H141747   6.545   3.002   8.103 -1.8947  1.2981 -0.7678
 6704TIP3    H241748   6.577   3.007   7.955 -0.5456 -0.2990 -0.5570
 6705TIP3   OH241749   6.290   2.691   7.510 -0.0295  0.1090 -0.6188
 6705TIP3    H141750   6.373   2.688   7.557  0.0207  2.9600 -0.3508
 6705TIP3    H241751   6.314   2.676   7.419  0.1684 -3.1401 -0.1416
 6706TIP3   OH241752   2.305   0.386   6.369  0.4466 -0.4097 -0.2997
 6706TIP3    H141753   2.361   0.463   6.368  0.1370 -0.1808 -0.4100
 6706TIP3    H241754   2.216   0.421   6.362  0.3278 -0.7999 -0.8537
 6707TIP3   OH241755   2.396   2.013   1.040 -0.4982  0.3150 -0.8415
 6707TIP3    H141756   2.317   2.062   1.066 -0.3491 -0.0213  0.3010
 6707TIP3    H241757   2.375   1.978   0.954 -2.1083 -0.8176 -0.0466
 6708TIP3   OH241758   2.825   1.098   6.409  0.0605 -0.2155  0.2774
 6708TIP3    H141759   2.736   1.131   6.426 -0.6719 -2.0460  0.2099
 6708TIP3    H241760   2.812   1.023   6.352  1.7465 -0.0551 -0.3562
 6709TIP3   OH241761   6.059   0.067   8.394 -0.3585  0.5417 -0.2740
 6709TIP3    H141762   6.019   0.151   8.372  0.8839  1.1934 -0.1195
 6709TIP3    H241763   6.067   0.021   8.310  1.0398  1.5355 -0.7256
 6710TIP3   OH241764   1.007   2.491   8.211  0.3234  0.0433  0.5202
 6710TIP3    H141765   0.949   2.544   8.266  0.6394  0.7928  0.1542
 6710TIP3    H241766   1.092   2.534   8.219  0.3700  0.1775 -0.5712
 6711TIP3   OH241767   1.966   3.603   1.600  0.4139  0.0740 -0.4248
 6711TIP3    H141768   1.947   3.609   1.693  3.8580  0.5855  0.3786
 6711TIP3    H241769   1.957   3.509   1.580  1.7250 -0.3911  0.9928
 6712TIP3   OH241770   4.757   4.299   0.595  0.3917 -0.0025  0.4262
 6712TIP3    H141771   4.793   4.213   0.617 -0.8580 -0.6626 -0.0244
 6712TIP3    H241772   4.783   4.355   0.668  0.8004 -0.8801  0.9715
 6713TIP3   OH241773   0.201   3.057   1.901  0.4965 -0.1060 -0.2192
 6713TIP3    H141774   0.219   3.127   1.964 -1.3281  0.3754 -0.1650
 6713TIP3    H241775   0.151   2.992   1.951 -1.2783  0.4388 -1.2057
 6714TIP3   OH241776   0.684   0.335   2.440 -0.4344  0.5373  0.0913
 6714TIP3    H141777   0.703   0.273   2.510  2.4775  0.9284 -0.2391
 6714TIP3    H241778   0.589   0.326   2.425 -0.2750 -3.4099  0.4200
 6715TIP3   OH241779   5.981   5.797   7.333 -0.3597 -0.7977 -0.1635
 6715TIP3    H141780   5.957   5.797   7.240  2.6928 -0.4316 -1.0888
 6715TIP3    H241781   5.999   5.705   7.353  0.6110 -0.6933 -0.4796
 6716TIP3   OH241782   5.015   1.982   0.745  0.0813  0.0586 -0.6183
 6716TIP3    H141783   4.924   1.951   0.741  0.2710 -1.2776  2.6072
 6716TIP3    H241784   5.067   1.905   0.726  0.6021  0.7452 -2.1078
 6717TIP3   OH241785   1.240   4.221   8.569  0.4296  0.0165 -0.0658
 6717TIP3    H141786   1.233   4.125   8.575  0.7118  0.0420  0.7775
 6717TIP3    H241787   1.151   4.250   8.550 -0.0796 -0.2873  1.6535
 6718TIP3   OH241788   2.756   4.805   1.030  0.5018 -0.2825  0.3108
 6718TIP3    H141789   2.695   4.880   1.028  1.0538  0.1789  0.5203
 6718TIP3    H241790   2.829   4.832   0.976  0.8559 -0.5412  0.6547
 6719TIP3   OH241791   0.953   6.733   6.552 -0.0271  0.2543  1.1601
 6719TIP3    H141792   0.996   6.748   6.468  1.4905  0.9213  2.0109
 6719TIP3    H241793   0.860   6.728   6.531  0.4115 -0.9657 -0.7273
 6720TIP3   OH241794   1.373   3.268   0.754 -0.1282  0.5046  0.3674
 6720TIP3    H141795   1.369   3.339   0.818  0.9335  0.4859  0.4746
 6720TIP3    H241796   1.319   3.299   0.681  0.2873  1.4051  0.4317
 6721TIP3   OH241797   1.353   4.666   7.313 -0.4744  0.0946 -0.1602
 6721TIP3    H141798   1.380   4.755   7.293 -1.9134  0.7212  0.5643
 6721TIP3    H241799   1.419   4.611   7.270  1.9320  1.4984  1.4752
 6722TIP3   OH241800   0.707   2.816   8.325  0.2467 -0.1456  0.1831
 6722TIP3    H141801   0.616   2.787   8.329 -0.5706  2.1219 -0.5136
 6722TIP3    H241802   0.752   2.765   8.393 -1.1910 -2.3197 -0.3763
 6723TIP3   OH241803   4.519   1.915   6.693 -0.1042 -0.1629  0.2643
 6723TIP3    H141804   4.441   1.899   6.640  0.4549  0.5324 -0.7947
 6723TIP3    H241805   4.578   1.963   6.635  1.9094 -2.3242  0.4022
 6724TIP3   OH241806   5.965   5.778   2.427  0.1595  0.0248 -0.0516
 6724TIP3    H141807   6.027   5.840   2.465  1.2274 -0.2955 -1.2342
 6724TIP3    H241808   5.914   5.829   2.364  2.0857 -0.5620 -2.1807
 6725TIP3   OH241809   2.350   6.323   6.561  0.6306  0.6463  0.9411
 6725TIP3    H141810   2.431   6.273   6.556 -0.4932 -1.2973  0.8304
 6725TIP3    H241811   2.301   6.282   6.633 -0.9906  0.5335 -0.1609
 6726TIP3   OH241812   2.955   3.818   1.183  0.0109  0.0583  0.9461
 6726TIP3    H141813   2.997   3.886   1.235 -0.3361 -0.5880  2.1139
 6726TIP3    H241814   2.917   3.759   1.248 -0.8677 -0.5103 -0.0606
 6727TIP3   OH241815   4.895   6.931   6.789 -0.2074  0.0930  1.0135
 6727TIP3    H141816   4.938   6.876   6.723  1.3912 -0.1797  2.2284
 6727TIP3    H241817   4.871   7.010   6.742 -1.4849 -1.1233 -0.5034
 6728TIP3   OH241818   6.482   2.467   0.881  0.2635 -0.0957  0.0492
 6728TIP3    H141819   6.535   2.522   0.938  0.2239  0.7266 -0.6803
 6728TIP3    H241820   6.498   2.377   0.911  1.5983  0.1869  0.2047
 6729TIP3   OH241821   3.889   6.282   0.777  0.5476 -0.8507 -0.0694
 6729TIP3    H141822   3.846   6.199   0.758 -0.2267 -0.5885  0.4757
 6729TIP3    H241823   3.978   6.271   0.745 -0.1129 -1.1453 -1.9521
 6730TIP3   OH241824   6.335   1.858   0.942  0.0674 -0.2370 -0.0425
 6730TIP3    H141825   6.242   1.873   0.926  0.0682  1.3508  1.1857
 6730TIP3    H241826   6.361   1.792   0.877 -1.2428  1.4082 -2.3734
 6731TIP3   OH241827   2.898   6.428   7.571 -0.2143 -0.3179 -0.0856
 6731TIP3    H141828   2.805   6.426   7.597 -0.7642 -0.4470 -1.9395
 6731TIP3    H241829   2.908   6.512   7.526  0.7187 -0.0748  0.5487
 6732TIP3   OH241830   2.155   3.436   0.862  0.4290 -0.4396 -0.3501
 6732TIP3    H141831   2.222   3.369   0.852  0.7332 -0.2412  0.3225
 6732TIP3    H241832   2.074   3.388   0.873 -0.0909 -0.7483 -4.0602
 6733TIP3   OH241833   6.222   6.612   0.327 -0.5398  0.3814  0.5136
 6733TIP3    H141834   6.304   6.587   0.285 -1.1581 -1.1823  0.1809
 6733TIP3    H241835   6.241   6.608   0.421  0.0948  1.2709  0.4385
 6734TIP3   OH241836   3.271   1.429   7.203  0.0951  0.2763  0.4429
 6734TIP3    H141837   3.263   1.372   7.126  1.1366  2.6106 -1.5399
 6734TIP3    H241838   3.300   1.370   7.273  0.8540 -1.6832 -1.3814
 6735TIP3   OH241839   2.681   6.817   6.786  0.0313 -0.0234  0.2460
 6735TIP3    H141840   2.688   6.745   6.723 -1.7927  0.2905 -0.3873
 6735TIP3    H241841   2.601   6.798   6.835 -1.6049  2.4659 -1.2250
 6736TIP3   OH241842   4.542   1.314   8.345  0.1404 -0.5213  0.1157
 6736TIP3    H141843   4.498   1.381   8.292 -0.0388  0.6406  1.6640
 6736TIP3    H241844   4.546   1.237   8.288  2.2183  1.3442 -2.5550
 6737TIP3   OH241845   3.092   2.113   1.701  0.8101  0.2049  0.0505
 6737TIP3    H141846   3.037   2.050   1.746  0.4572 -0.2741 -1.0085
 6737TIP3    H241847   3.050   2.126   1.616  1.0921  1.5684  0.0851
 6738TIP3   OH241848   2.723   4.176   6.832  0.0552 -0.4342 -0.5120
 6738TIP3    H141849   2.761   4.186   6.919  0.3422 -0.8705 -0.5837
 6738TIP3    H241850   2.736   4.261   6.790 -1.1294  0.1598  0.2683
 6739TIP3   OH241851   6.232   5.809   0.595 -0.1033  0.2462  0.1611
 6739TIP3    H141852   6.217   5.791   0.688 -1.3411  0.7511  0.0719
 6739TIP3    H241853   6.326   5.795   0.583 -0.4456 -3.1991  0.7250
 6740TIP3   OH241854   4.275   0.697   0.987 -0.2511  0.3006 -0.3544
 6740TIP3    H141855   4.189   0.694   0.946 -1.0722  0.7765  1.2225
 6740TIP3    H241856   4.295   0.606   1.009 -1.6267  0.3978  1.6408
 6741TIP3   OH241857   6.271   0.709   8.150 -0.0027 -0.1369 -0.0580
 6741TIP3    H141858   6.175   0.705   8.151 -0.2348  2.9589 -1.2726
 6741TIP3    H241859   6.298   0.627   8.191 -3.1590 -0.9225  0.7270
 6742TIP3   OH241860   3.190   1.277   6.952  0.3770 -0.1366  0.0506
 6742TIP3    H141861   3.261   1.246   6.895  2.2645  0.7952  1.7644
 6742TIP3    H241862   3.125   1.314   6.892  1.2932 -1.0634 -1.5896
 6743TIP3   OH241863   4.545   5.810   1.516 -0.5638  0.2839 -0.1312
 6743TIP3    H141864   4.587   5.727   1.539 -1.9457 -0.9593 -1.7475
 6743TIP3    H241865   4.479   5.822   1.584 -1.0418 -0.5190 -0.4299
 6744TIP3   OH241866   0.479   3.494   0.989  0.0105 -0.0181  0.3138
 6744TIP3    H141867   0.542   3.434   1.028 -0.0735 -0.0920  0.3366
 6744TIP3    H241868   0.405   3.439   0.965  0.0445  0.0353  0.0896
 6745TIP3   OH241869   6.279   2.267   1.126 -0.0400  0.1790 -0.2179
 6745TIP3    H141870   6.347   2.257   1.192 -1.2084 -2.5069  0.7252
 6745TIP3    H241871   6.253   2.359   1.131  1.5496  0.5821  1.3629
 6746TIP3   OH241872   3.391   5.683   2.052 -0.1851 -0.0444  0.7691
 6746TIP3    H141873   3.328   5.736   2.101  1.5616 -0.0051  3.1049
 6746TIP3    H241874   3.372   5.593   2.077 -2.6473 -0.6683 -2.6132
 6747TIP3   OH241875   4.092   1.789   1.568  0.1212 -0.0980 -0.0619
 6747TIP3    H141876   4.049   1.791   1.483 -0.8195 -0.9965  0.3634
 6747TIP3    H241877   4.185   1.781   1.548 -0.1177 -0.7140 -1.0089
 6748TIP3   OH241878   1.597   2.521   8.415 -0.3751 -0.0110 -0.2250
 6748TIP3    H141879   1.555   2.436   8.399  1.0875 -0.6312 -0.9253
 6748TIP3    H241880   1.549   2.557   8.490 -1.2581 -1.2886 -0.1327
 6749TIP3   OH241881   2.579   3.038   8.521  0.3800 -0.1186  0.2471
 6749TIP3    H141882   2.523   3.109   8.552 -2.0761 -1.4839 -0.7632
 6749TIP3    H241883   2.629   3.075   8.449  0.3844  1.0020  0.8142
 6750TIP3   OH241884   5.256   3.361   1.521 -0.3873  0.2343 -0.0865
 6750TIP3    H141885   5.307   3.433   1.558 -0.9818 -0.1335  1.5414
 6750TIP3    H241886   5.169   3.371   1.560 -0.3296 -1.6591  0.6275
 6751TIP3   OH241887   5.987   6.198   7.687 -0.6896 -0.9542  0.2068
 6751TIP3    H141888   5.915   6.213   7.625 -0.5868 -1.2679  0.0095
 6751TIP3    H241889   5.954   6.232   7.770 -0.8178 -0.5022 -0.0256
 6752TIP3   OH241890   3.182   0.984   0.461  0.4304 -0.6656  0.1590
 6752TIP3    H141891   3.185   1.045   0.534 -0.0799 -1.0860  0.5374
 6752TIP3    H241892   3.140   1.033   0.390  0.0920 -0.5494  0.4371
 6753TIP3   OH241893   2.636   3.727   0.601 -0.2171 -0.7849 -0.8924
 6753TIP3    H141894   2.672   3.639   0.613  2.1184  0.0348 -1.4157
 6753TIP3    H241895   2.541   3.713   0.593 -0.1930 -2.9720  1.4535
 6754TIP3   OH241896   5.073   6.792   7.335  0.0140 -0.0209 -0.1036
 6754TIP3    H141897   5.107   6.754   7.416 -0.3175 -1.8017 -0.7720
 6754TIP3    H241898   5.130   6.758   7.266 -0.5012  0.4433 -0.7681
 6755TIP3   OH241899   1.272   5.644   1.414 -0.4501 -0.0981  0.0365
 6755TIP3    H141900   1.227   5.602   1.341  1.4226  0.0405 -1.2524
 6755TIP3    H241901   1.303   5.571   1.468  0.8265 -0.3299 -0.9785
 6756TIP3   OH241902   3.892   0.355   0.005  0.3464 -0.1521  0.2016
 6756TIP3    H141903   3.817   0.318   0.051 -0.1171 -0.3929 -0.7058
 6756TIP3    H241904   3.871   0.448  -0.004  0.1907 -0.2027  0.0274
 6757TIP3   OH241905   3.573   3.745   8.193  0.0241 -0.0182  0.0909
 6757TIP3    H141906   3.481   3.763   8.213 -0.4757 -1.3344 -0.9086
 6757TIP3    H241907   3.578   3.650   8.185  1.2938  0.0883 -0.7145
 6758TIP3   OH241908   6.553   2.510   0.158  0.0431 -0.3100 -0.1734
 6758TIP3    H141909   6.637   2.507   0.113  0.3247 -1.2484  0.3901
 6758TIP3    H241910   6.565   2.577   0.226  0.3153 -0.3992 -0.1315
 6759TIP3   OH241911   2.545   0.972   6.335  0.4272 -0.0718  0.9924
 6759TIP3    H141912   2.614   0.924   6.380  0.3799 -0.2782  0.8453
 6759TIP3    H241913   2.539   1.055   6.382  0.6750 -0.1121  1.0953
 6760TIP3   OH241914   0.486   1.307   7.147 -1.0872  0.0874  0.6057
 6760TIP3    H141915   0.489   1.249   7.223  1.3895  0.0825  0.5776
 6760TIP3    H241916   0.431   1.380   7.174  1.6280  1.3232  3.4049
 6761TIP3   OH241917   4.778   3.281   7.267 -0.1307 -0.5298  0.8064
 6761TIP3    H141918   4.858   3.236   7.240 -0.6828 -0.4414 -1.0966
 6761TIP3    H241919   4.734   3.217   7.324  1.1892 -0.6239  1.7919
 6762TIP3   OH241920   6.200   0.235   1.061  0.2752  0.2035 -0.1832
 6762TIP3    H141921   6.153   0.164   1.106  2.2879 -1.5358 -0.6337
 6762TIP3    H241922   6.287   0.234   1.100  0.8678  1.3035 -1.4073
 6763TIP3   OH241923   0.975   2.797   8.005 -0.4125  0.6843  0.9695
 6763TIP3    H141924   0.970   2.825   8.096  0.0785  0.6676  1.0074
 6763TIP3    H241925   0.897   2.743   7.991 -1.2276  1.8255  0.9753
 6764TIP3   OH241926   2.618   6.456   7.628  0.2271  0.1477 -0.6155
 6764TIP3    H141927   2.581   6.545   7.629  0.2860  0.1939  1.0417
 6764TIP3    H241928   2.569   6.410   7.560  0.3387  1.4960 -1.6441
 6765TIP3   OH241929   6.317   6.858   1.039  0.6899 -0.8649 -0.3511
 6765TIP3    H141930   6.358   6.797   0.978  0.1165 -1.0882 -0.5262
 6765TIP3    H241931   6.231   6.819   1.056 -0.6040  0.9858 -2.1806
 6766TIP3   OH241932   0.911   2.880   2.289  0.0702  0.2259 -0.4778
 6766TIP3    H141933   0.915   2.791   2.326  0.2485 -0.2088 -1.5204
 6766TIP3    H241934   1.000   2.897   2.258  0.6148  1.6579  1.6778
 6767TIP3   OH241935   1.007   4.290   0.108  0.7964  0.4930 -0.2013
 6767TIP3    H141936   0.962   4.307   0.191  0.2233  2.3839 -0.8548
 6767TIP3    H241937   0.941   4.248   0.053  0.1782  2.0706 -0.7149
 6768TIP3   OH241938   1.001   6.463   6.097 -0.3688  0.3841  0.1909
 6768TIP3    H141939   0.960   6.437   6.180 -1.6406  1.4153 -0.0787
 6768TIP3    H241940   0.958   6.408   6.032 -2.5072  2.4499 -0.2820
 6769TIP3   OH241941   3.324   0.449   0.845  0.1631  0.5610 -0.3356
 6769TIP3    H141942   3.328   0.377   0.782  2.5122  0.3326 -0.0106
 6769TIP3    H241943   3.318   0.527   0.791 -2.0750  0.2011 -0.6995
 6770TIP3   OH241944   1.004   3.185   1.866 -0.0314 -0.2356  0.4566
 6770TIP3    H141945   0.962   3.141   1.940  0.4092 -0.8092  0.3696
 6770TIP3    H241946   0.938   3.247   1.834 -0.8935 -1.2518  0.2080
 6771TIP3   OH241947   3.373   1.538   7.824  0.2344  0.1247 -0.6274
 6771TIP3    H141948   3.394   1.631   7.825  1.7262 -0.1781  0.5758
 6771TIP3    H241949   3.341   1.520   7.913 -0.8719 -0.3413 -1.1104
 6772TIP3   OH241950   4.322   3.882   1.032  0.3276 -0.0243 -0.2947
 6772TIP3    H141951   4.232   3.910   1.019 -0.4321 -1.7069  0.9302
 6772TIP3    H241952   4.367   3.960   1.067 -0.3245  1.1513 -1.9644
 6773TIP3   OH241953   3.118   5.511   0.449 -0.7603  0.1437  0.0001
 6773TIP3    H141954   3.042   5.489   0.396 -1.1853  0.6698  0.3852
 6773TIP3    H241955   3.193   5.484   0.395 -1.2003  0.0604 -0.5833
 6774TIP3   OH241956   4.896   3.284   0.188 -0.3501  0.5821 -0.1647
 6774TIP3    H141957   4.923   3.198   0.156 -0.0827  1.0316 -1.1854
 6774TIP3    H241958   4.807   3.270   0.221  0.0950 -0.3112  0.6848
 6775TIP3   OH241959   2.835   0.377   6.505 -0.0928  0.0034 -0.5466
 6775TIP3    H141960   2.897   0.304   6.511  1.2798  1.1394 -0.3392
 6775TIP3    H241961   2.762   0.343   6.454 -0.4059 -2.1092  1.1930
 6776TIP3   OH241962   5.216   5.464   1.687 -0.0707  0.0251  0.2906
 6776TIP3    H141963   5.123   5.447   1.699  0.0797 -2.2969 -1.0055
 6776TIP3    H241964   5.222   5.504   1.600  0.1725 -0.6203  0.0012
 6777TIP3   OH241965   2.875   5.165   8.072  0.1913  0.2563  0.6233
 6777TIP3    H141966   2.914   5.187   8.157  1.7595  1.6602 -0.3797
 6777TIP3    H241967   2.922   5.086   8.044 -0.5071 -0.3557  1.1612
 6778TIP3   OH241968   4.091   0.527   0.691 -0.6747 -0.0492  0.6689
 6778TIP3    H141969   4.027   0.488   0.630  0.0710 -0.1275 -0.0834
 6778TIP3    H241970   4.143   0.585   0.636 -0.4899  0.4834  1.4034
 6779TIP3   OH241971   5.500   3.536   7.390 -0.4135  0.3957  0.0585
 6779TIP3    H141972   5.540   3.459   7.348 -0.0939  0.7124 -0.2179
 6779TIP3    H241973   5.407   3.514   7.395 -0.9035  1.3499 -3.0830
 6780TIP3   OH241974   1.931   0.417   1.321 -0.1507  0.2348  0.4204
 6780TIP3    H141975   1.908   0.482   1.387  0.7260 -0.5127  1.5031
 6780TIP3    H241976   2.002   0.366   1.361  1.5217  0.7489 -1.6941
 6781TIP3   OH241977   4.112   1.955   6.968 -0.0989  0.2575 -0.0015
 6781TIP3    H141978   4.177   1.945   6.898 -1.7322  0.8842 -1.6968
 6781TIP3    H241979   4.033   1.914   6.932 -0.4799 -1.1603  2.2965
 6782TIP3   OH241980   5.010   6.227   7.141  0.0118 -0.2207 -0.0816
 6782TIP3    H141981   4.935   6.257   7.192  0.4111  3.0500 -1.2027
 6782TIP3    H241982   5.001   6.271   7.057  3.4264  0.7282 -0.0871
 6783TIP3   OH241983   5.767   2.287   7.334  0.4466  0.2537 -0.0008
 6783TIP3    H141984   5.748   2.237   7.414 -1.8200  0.9990  0.0155
 6783TIP3    H241985   5.830   2.234   7.286 -0.0724 -1.4580  1.1251
 6784TIP3   OH241986   1.140   2.969   0.123  0.1842 -0.4662  0.6777
 6784TIP3    H141987   1.089   2.907   0.070 -0.6244  0.4345  0.3445
 6784TIP3    H241988   1.190   2.915   0.184 -0.5257 -1.4322  0.4254
 6785TIP3   OH241989   3.553   5.766   2.323 -0.7973  0.4799 -0.1125
 6785TIP3    H141990   3.544   5.850   2.368 -1.7141  0.5995 -0.4940
 6785TIP3    H241991   3.465   5.728   2.326 -0.6056 -0.0346 -0.7904
 6786TIP3   OH241992   3.468   5.473   6.795 -0.2019  0.5579  0.0056
 6786TIP3    H141993   3.449   5.470   6.701 -0.4235  0.5943  0.0470
 6786TIP3    H241994   3.392   5.430   6.835  0.2347 -0.1047  0.1236
 6787TIP3   OH241995   1.105   1.473   7.000 -0.5547  0.2821  0.0714
 6787TIP3    H141996   1.069   1.388   7.027 -0.5672 -0.3872 -1.8881
 6787TIP3    H241997   1.088   1.477   6.906  2.7498  0.8128 -0.6123
 6788TIP3   OH241998   2.891   5.996   6.897 -0.0697 -0.1230 -0.7267
 6788TIP3    H141999   2.979   5.967   6.870  0.5782  0.7143  0.3930
 6788TIP3    H242000   2.836   5.919   6.882  1.5562 -2.0414  1.9717
 6789TIP3   OH242001   2.748   3.592   8.529  0.3217  0.4095  0.2825
 6789TIP3    H142002   2.793   3.507   8.525  0.0895  0.3538 -1.6460
 6789TIP3    H242003   2.655   3.570   8.522  0.0937  0.7101  1.8791
 6790TIP3   OH242004   1.635   1.397   0.505 -0.4723 -0.3423 -0.3290
 6790TIP3    H142005   1.684   1.321   0.534  0.0539  0.0041 -0.2916
 6790TIP3    H242006   1.665   1.412   0.415 -0.5854 -0.1925 -0.3426
 6791TIP3   OH242007   1.467   5.939   0.825  0.0263 -0.3644  0.0944
 6791TIP3    H142008   1.460   5.848   0.797 -0.2617 -0.1181 -0.6884
 6791TIP3    H242009   1.559   5.951   0.847  0.6753 -0.1495 -2.4194
 6792TIP3   OH242010   4.670   2.127   1.884 -0.7416  0.1359  0.0091
 6792TIP3    H142011   4.619   2.170   1.815  0.8301  1.9961 -0.0826
 6792TIP3    H242012   4.627   2.152   1.965 -0.5473  0.8996 -0.1172
 6793TIP3   OH242013   3.959   1.348   2.156 -0.0334 -0.5281 -0.0629
 6793TIP3    H142014   4.035   1.350   2.213  0.7754  1.2556 -1.1223
 6793TIP3    H242015   3.956   1.258   2.123  0.9858 -0.8895  0.7803
 6794TIP3   OH242016   5.026   1.390   8.077  0.0685  0.8211 -0.3922
 6794TIP3    H142017   4.988   1.306   8.050  1.4746  0.5299 -1.5635
 6794TIP3    H242018   5.057   1.375   8.166  4.0662 -1.3228 -1.9076
 6795TIP3   OH242019   5.544   3.869   1.751  0.0541  0.5736 -0.3034
 6795TIP3    H142020   5.587   3.794   1.792  0.8396  0.7965 -0.7064
 6795TIP3    H242021   5.572   3.944   1.803  0.8892  0.8312 -1.1078
 6796TIP3   OH242022   1.513   3.471   7.689  0.7769  0.4629  0.0728
 6796TIP3    H142023   1.446   3.413   7.654 -0.0471  2.3175 -1.6169
 6796TIP3    H242024   1.571   3.413   7.739  0.9839 -2.0804 -2.8283
 6797TIP3   OH242025   3.658   0.029   7.095 -0.5629 -0.2815 -0.4357
 6797TIP3    H142026   3.654  -0.036   7.165 -0.2711 -0.8014 -0.9023
 6797TIP3    H242027   3.749   0.028   7.067 -0.6467  0.0413 -0.7280
 6798TIP3   OH242028   2.873   1.133   6.750 -0.3641 -0.2566  0.7012
 6798TIP3    H142029   2.897   1.092   6.834  0.2730  0.0527  0.6758
 6798TIP3    H242030   2.789   1.092   6.727 -0.5492 -0.3444  1.4889
 6799TIP3   OH242031   5.491   4.435   7.837  0.3062 -0.1761  0.1704
 6799TIP3    H142032   5.460   4.524   7.852 -1.8889 -0.8571  0.1403
 6799TIP3    H242033   5.583   4.444   7.815 -0.4199  2.3723 -2.4476
 6800TIP3   OH242034   2.863   0.751   0.371 -0.0726  0.4482  0.3180
 6800TIP3    H142035   2.801   0.755   0.298 -0.6599  0.4654  0.8170
 6800TIP3    H242036   2.949   0.758   0.329 -0.3783 -0.0667 -0.4242
 6801TIP3   OH242037   4.611   3.111   0.239  0.4816 -0.4622  0.2548
 6801TIP3    H142038   4.649   3.072   0.161  0.1536 -0.0871 -0.1002
 6801TIP3    H242039   4.521   3.131   0.214  0.1223 -1.0973  0.9974
 6802TIP3   OH242040   6.001   0.742   8.160  0.0267  0.4427  0.0995
 6802TIP3    H142041   5.975   0.709   8.074  1.0588 -0.0007 -0.0556
 6802TIP3    H242042   5.925   0.725   8.216 -0.0608 -0.7439 -0.3521
 6803TIP3   OH242043   4.952   3.199   1.941  0.3230 -0.1838  0.0945
 6803TIP3    H142044   4.980   3.186   2.032 -0.4317 -0.6765  0.2663
 6803TIP3    H242045   4.870   3.248   1.948  0.3571 -0.0651 -0.3332
 6804TIP3   OH242046   5.782   4.489   2.328 -0.3394 -0.3142 -0.6267
 6804TIP3    H142047   5.814   4.482   2.418 -0.3844 -0.3971 -0.6175
 6804TIP3    H242048   5.800   4.403   2.289  0.9248  0.1530 -1.1040
 6805TIP3   OH242049   6.528   0.171   7.276  0.0697  0.5981  0.2236
 6805TIP3    H142050   6.581   0.123   7.340  0.6508  0.9554  0.0144
 6805TIP3    H242051   6.572   0.157   7.192 -0.7692  0.0121 -0.1357
 6806TIP3   OH242052   1.834   0.228   1.749  0.1824 -0.0920  0.6288
 6806TIP3    H142053   1.927   0.251   1.755 -0.2253  1.3216  2.8109
 6806TIP3    H242054   1.809   0.207   1.839 -1.5506 -0.8013  0.0179
 6807TIP3   OH242055   4.593   5.106   8.479 -0.0227 -0.8724  0.3380
 6807TIP3    H142056   4.648   5.153   8.542 -0.3468 -0.7998  0.5689
 6807TIP3    H242057   4.505   5.107   8.518 -0.1937 -0.9644 -0.0391
 6808TIP3   OH242058   2.192   5.035   1.125 -1.1971  0.8525 -0.3967
 6808TIP3    H142059   2.204   4.970   1.195 -0.5351 -0.3936 -1.6157
 6808TIP3    H242060   2.225   5.117   1.163  2.6974 -0.4888 -0.3631
 6809TIP3   OH242061   1.426   5.948   0.545 -0.3735  0.1774 -0.2882
 6809TIP3    H142062   1.444   5.941   0.639  1.0383  0.2781 -0.5358
 6809TIP3    H242063   1.349   5.891   0.531 -0.3555 -0.1498  0.8514
 6810TIP3   OH242064   6.131   2.043   6.751 -0.3705 -0.1494 -0.0162
 6810TIP3    H142065   6.165   1.975   6.693  1.1130  0.2766  0.2991
 6810TIP3    H242066   6.052   2.005   6.789 -0.6885 -0.9060 -1.3631
 6811TIP3   OH242067   4.143   2.315   1.660  0.2347  0.3979 -0.0979
 6811TIP3    H142068   4.172   2.224   1.665 -0.8433  0.0235 -0.3587
 6811TIP3    H242069   4.056   2.315   1.701  0.8339  1.6005  1.2727
 6812TIP3   OH242070   5.234   3.292   0.156 -0.0009 -0.1495  0.5381
 6812TIP3    H142071   5.191   3.374   0.132  0.5689 -0.1438 -0.5767
 6812TIP3    H242072   5.181   3.255   0.226 -0.7620  0.7421  0.4396
 6813TIP3   OH242073   2.196   0.095   8.264 -0.4714  0.2399 -0.3598
 6813TIP3    H142074   2.271   0.127   8.213  1.3274 -2.0624  0.6707
 6813TIP3    H242075   2.223   0.106   8.355 -2.2047  1.0958  0.0805
 6814TIP3   OH242076   1.744   4.354   0.328  0.2240 -0.4613  0.1423
 6814TIP3    H142077   1.789   4.373   0.410 -0.8215 -0.9341  0.8529
 6814TIP3    H242078   1.811   4.314   0.272  0.8158 -0.6405  0.9625
 6815TIP3   OH242079   5.073   6.640   0.871  0.0409 -0.2256  0.0510
 6815TIP3    H142080   5.138   6.688   0.922 -1.0076  0.7529  0.5289
 6815TIP3    H242081   5.120   6.566   0.834  1.5143  0.7116  0.0042
 6816TIP3   OH242082   6.295   3.664   6.412  0.5917  1.0683 -0.1169
 6816TIP3    H142083   6.269   3.573   6.425  1.1877  1.0036  0.7481
 6816TIP3    H242084   6.385   3.659   6.379 -0.0327  1.3141 -1.9722
 6817TIP3   OH242085   5.735   6.121   6.908 -0.8281  0.0420  0.0498
 6817TIP3    H142086   5.816   6.105   6.860  0.3416 -1.4408  2.3585
 6817TIP3    H242087   5.669   6.070   6.861  0.3959 -1.8533  0.3025
 6818TIP3   OH242088   6.344   6.606   2.494  0.1104  0.5740  0.0456
 6818TIP3    H142089   6.264   6.637   2.536 -0.8353 -0.5713 -0.8478
 6818TIP3    H242090   6.323   6.601   2.401  0.9921 -0.4054 -0.1284
 6819TIP3   OH242091   0.693   0.465   1.697 -0.0484 -0.1237  0.5629
 6819TIP3    H142092   0.764   0.486   1.636  0.2526 -1.4682  0.4039
 6819TIP3    H242093   0.616   0.456   1.642 -0.5167  1.9149  0.8018
 6820TIP3   OH242094   3.895   2.569   1.777 -0.1670 -0.1960  0.3670
 6820TIP3    H142095   3.804   2.577   1.806 -0.2048  1.9276 -0.1717
 6820TIP3    H242096   3.946   2.557   1.857 -0.7665  0.2723  0.8229
 6821TIP3   OH242097   6.389   5.421   0.462 -0.1990 -0.4280  0.4938
 6821TIP3    H142098   6.319   5.485   0.475 -2.2798 -2.3138 -0.8120
 6821TIP3    H242099   6.398   5.377   0.547 -0.1376  0.2426  0.8404
 6822TIP3   OH242100   6.561   1.630   1.264  0.4266  0.1828  0.2734
 6822TIP3    H142101   6.545   1.595   1.176  1.6479 -0.7512  0.3997
 6822TIP3    H242102   6.483   1.682   1.283  0.6165  1.3756 -1.8256
 6823TIP3   OH242103   1.728   5.979   0.891  0.2516  0.3272  0.2805
 6823TIP3    H142104   1.780   5.934   0.957  1.7417  1.4912 -0.0375
 6823TIP3    H242105   1.780   6.057   0.868 -0.8903  0.7087 -1.2177
 6824TIP3   OH242106   3.434   1.314   0.082  0.4403 -0.7524 -0.1633
 6824TIP3    H142107   3.442   1.382   0.015 -0.6705  0.7760  1.2082
 6824TIP3    H242108   3.460   1.234   0.036  2.4936  0.6496 -1.6247
 6825TIP3   OH242109   3.248   2.803   8.054 -0.6748  0.4208 -0.2251
 6825TIP3    H142110   3.294   2.767   8.130  0.3200 -0.9611 -1.4192
 6825TIP3    H242111   3.179   2.739   8.036  0.0823 -0.0832 -1.4019
 6826TIP3   OH242112   0.555   2.261   7.709  0.0588  0.1695  0.1025
 6826TIP3    H142113   0.485   2.320   7.735 -0.3562  0.4097 -1.4719
 6826TIP3    H242114   0.521   2.174   7.728 -0.3504  0.3170  0.0447
 6827TIP3   OH242115   1.071   2.075   7.675  0.1155 -0.3823 -0.0459
 6827TIP3    H142116   1.063   2.032   7.760 -1.2158 -0.2220 -0.0683
 6827TIP3    H242117   1.083   2.003   7.613 -0.9649 -0.6689  0.0518
 6828TIP3   OH242118   4.979   0.118   0.571 -0.3639 -0.1415 -0.4860
 6828TIP3    H142119   4.897   0.167   0.558 -0.5812 -0.8459 -1.8320
 6828TIP3    H242120   4.952   0.039   0.618 -0.4288 -0.2978 -0.7876
 6829TIP3   OH242121   1.544   0.787   0.899 -0.1683  0.2290 -0.3533
 6829TIP3    H142122   1.453   0.805   0.923  0.1939  1.6747  0.0694
 6829TIP3    H242123   1.559   0.840   0.820  0.2703 -0.0772 -0.4792
 6830TIP3   OH242124   0.919   2.861   8.616  0.5877 -0.2304 -0.0786
 6830TIP3    H142125   0.907   2.956   8.614  1.4916 -0.0683  1.2085
 6830TIP3    H242126   0.832   2.826   8.635  0.4077  0.3947  0.2851
 6831TIP3   OH242127   4.190   2.832   0.159 -0.0738 -0.1406  0.5981
 6831TIP3    H142128   4.148   2.813   0.243 -1.2506 -3.1577 -0.4902
 6831TIP3    H242129   4.141   2.906   0.124 -0.4014  0.3432  2.0093
 6832TIP3   OH242130   1.113   2.797   2.500  0.1401 -0.0045  0.1826
 6832TIP3    H142131   1.172   2.844   2.442  0.9026  2.4977  2.7634
 6832TIP3    H242132   1.148   2.708   2.504  3.7169  1.3040  1.4029
 6833TIP3   OH242133   1.665   6.486   0.791 -0.3814  0.5940 -0.2365
 6833TIP3    H142134   1.616   6.521   0.717  0.5448  1.9893 -0.2466
 6833TIP3    H242135   1.718   6.560   0.821  1.0761 -0.5983  0.2865
 6834TIP3   OH242136   6.773   4.336   7.731 -0.0784 -0.0732 -0.5812
 6834TIP3    H142137   6.684   4.372   7.731 -0.5127 -0.9889  1.4739
 6834TIP3    H242138   6.830   4.413   7.737 -0.8129  0.4621 -0.3413
 6835TIP3   OH242139   3.940   4.492   7.362 -0.1439  0.3260 -0.5762
 6835TIP3    H142140   3.945   4.566   7.422  0.5372 -0.7549  0.7310
 6835TIP3    H242141   3.872   4.518   7.298 -1.4159  1.2024  1.0529
 6836TIP3   OH242142   3.735   2.411   7.834 -0.0485 -0.5705  0.7792
 6836TIP3    H142143   3.795   2.336   7.836 -0.1370 -0.7989 -1.6626
 6836TIP3    H242144   3.714   2.421   7.741 -2.4819  0.5782  1.3966
 6837TIP3   OH242145   4.855   4.107   7.874  0.3364  0.6118  0.0881
 6837TIP3    H142146   4.843   4.175   7.940 -1.4522 -1.5298  2.2007
 6837TIP3    H242147   4.938   4.065   7.897  0.2003  0.4972  0.3787
 6838TIP3   OH242148   1.481   4.748   0.206  0.4365 -0.0247 -0.3294
 6838TIP3    H142149   1.506   4.656   0.209 -0.7589 -0.4038 -1.2344
 6838TIP3    H242150   1.430   4.762   0.287  1.5843  0.1711  0.3879
 6839TIP3   OH242151   1.499   3.857   0.344  0.1557 -0.3070 -0.1420
 6839TIP3    H142152   1.523   3.941   0.382  0.6134 -0.6173  0.2668
 6839TIP3    H242153   1.456   3.879   0.261  1.0465  0.2993 -0.4532
 6840TIP3   OH242154   6.060   6.075   8.056 -0.3432 -0.4414 -0.0924
 6840TIP3    H142155   6.125   6.144   8.047 -0.5976  0.1091  1.8103
 6840TIP3    H242156   6.099   5.999   8.015  0.2641  0.6132 -1.5634
 6841TIP3   OH242157   6.639   1.366   0.804  0.0400  0.0813 -0.5023
 6841TIP3    H142158   6.649   1.291   0.746  2.1998 -0.3871  0.3918
 6841TIP3    H242159   6.678   1.439   0.756 -1.0654  0.4295 -0.9122
 6842TIP3   OH242160   3.370   4.069   1.375 -0.4711 -0.3450 -0.2412
 6842TIP3    H142161   3.459   4.100   1.391 -0.2420 -0.5776 -1.0152
 6842TIP3    H242162   3.351   4.011   1.448 -0.9584  1.6647  1.3369
 6843TIP3   OH242163   1.900   0.475   6.805 -0.1791  0.6492  0.3956
 6843TIP3    H142164   1.924   0.396   6.757  3.9562  1.4649  0.7526
 6843TIP3    H242165   1.862   0.533   6.739 -0.5152 -0.5356 -0.4771
 6844TIP3   OH242166   5.065   3.844   0.233 -0.1006 -0.0551  0.2761
 6844TIP3    H142167   5.062   3.843   0.137 -0.6053 -0.0428  0.2882
 6844TIP3    H242168   4.987   3.794   0.259  0.5725 -0.9160  0.6724
 6845TIP3   OH242169   5.760   6.376   0.401  0.6217 -0.0673 -0.4806
 6845TIP3    H142170   5.817   6.366   0.477 -0.9340  0.4226  0.7904
 6845TIP3    H242171   5.686   6.427   0.432  0.1344  0.5320 -2.4455
 6846TIP3   OH242172   4.976   3.609   8.224 -0.3058  0.4353  0.0511
 6846TIP3    H142173   4.980   3.618   8.129  1.2425  1.9309  0.2123
 6846TIP3    H242174   4.882   3.603   8.243 -0.6032 -1.6435 -1.6536
 6847TIP3   OH242175   4.356   1.801   0.951 -0.7009  0.3005  0.8051
 6847TIP3    H142176   4.447   1.812   0.981  0.2843 -1.2014 -1.3953
 6847TIP3    H242177   4.335   1.711   0.972 -1.0454  0.1248 -0.2609
 6848TIP3   OH242178   2.730   0.991   7.431 -0.2061 -0.4449  0.4078
 6848TIP3    H142179   2.824   1.009   7.424 -0.3241  0.3195  0.6757
 6848TIP3    H242180   2.710   0.936   7.355  0.4498 -0.5811  0.3313
 6849TIP3   OH242181   6.589   3.886   8.013  0.0670 -0.5852 -0.1552
 6849TIP3    H142182   6.495   3.874   8.023 -0.0491  0.0081 -0.4899
 6849TIP3    H242183   6.627   3.852   8.094 -0.5282  0.2265  0.4813
 6850TIP3   OH242184   3.284   5.890   1.123 -0.1469  0.0757 -0.4946
 6850TIP3    H142185   3.227   5.814   1.137 -1.4774  1.1107  0.0053
 6850TIP3    H242186   3.223   5.964   1.113  1.1102  1.4244  1.1874
 6851TIP3   OH242187   4.058   0.916   7.958 -0.1966 -0.1158 -0.4086
 6851TIP3    H142188   4.150   0.899   7.976 -0.3688 -1.1788 -0.4873
 6851TIP3    H242189   4.011   0.849   8.008 -1.0008  1.1242  0.5828
 6852TIP3   OH242190   2.423   4.698   6.938  0.1059  0.5824  0.2044
 6852TIP3    H142191   2.359   4.730   6.875  0.2611 -0.8385 -0.7204
 6852TIP3    H242192   2.378   4.700   7.023 -0.4751  1.4608 -0.1142
 6853TIP3   OH242193   5.307   6.015   1.079  0.4143 -0.5459 -0.0061
 6853TIP3    H142194   5.350   6.100   1.083 -0.0496 -0.3287  0.4015
 6853TIP3    H242195   5.331   5.972   1.161 -0.0811 -0.4551  0.1881
 6854TIP3   OH242196   5.668   3.129   8.616 -0.2557  0.5685 -0.2555
 6854TIP3    H142197   5.635   3.077   8.690  1.8647 -1.5419 -0.6561
 6854TIP3    H242198   5.591   3.176   8.583 -1.9706 -1.0687  1.1889
 6855TIP3   OH242199   1.561   4.923   2.097  0.0487 -0.1403 -0.1954
 6855TIP3    H142200   1.567   4.830   2.076 -4.7338 -0.3277 -1.9876
 6855TIP3    H242201   1.521   4.925   2.184  0.4908  0.2677  0.0034
 6856TIP3   OH242202   0.790   3.385   6.175  0.8491  0.5814  0.0867
 6856TIP3    H142203   0.823   3.311   6.225 -1.0638 -0.6128 -0.3472
 6856TIP3    H242204   0.756   3.445   6.241 -2.2084 -1.2484  0.3373
 6857TIP3   OH242205   3.337   4.392   0.021 -0.3948 -0.2686 -0.2660
 6857TIP3    H142206   3.333   4.297   0.034  1.6141 -0.3956 -0.2486
 6857TIP3    H242207   3.284   4.428   0.092 -0.2683 -1.3508  0.4067
 6858TIP3   OH242208   3.228   6.020   7.763 -0.3793  0.0302  0.0931
 6858TIP3    H142209   3.158   6.003   7.698 -0.3150  0.5434 -0.1153
 6858TIP3    H242210   3.291   5.950   7.748 -1.1094 -0.7680  0.6560
 6859TIP3   OH242211   3.747   2.990   2.120  0.2945  0.1474 -0.3903
 6859TIP3    H142212   3.765   2.928   2.049 -0.0932  0.2905 -0.6202
 6859TIP3    H242213   3.749   3.076   2.078  3.6812  0.6154  0.4311
 6860TIP3   OH242214   0.752   1.464   0.088 -0.5088 -0.0954  0.1334
 6860TIP3    H142215   0.785   1.411   0.015 -0.0997  0.7174 -0.2871
 6860TIP3    H242216   0.726   1.547   0.048 -0.6412  0.2257  0.8583
 6861TIP3   OH242217   5.613   4.533   2.045  0.6580  0.0755  0.8076
 6861TIP3    H142218   5.617   4.442   2.015  2.7779  0.2727  0.3032
 6861TIP3    H242219   5.697   4.548   2.089  0.3587  1.7956  0.8907
 6862TIP3   OH242220   0.486   3.399   7.414 -0.4972  0.0395  0.2137
 6862TIP3    H142221   0.468   3.344   7.489  0.9162  0.2797  0.7631
 6862TIP3    H242222   0.537   3.344   7.355 -0.8908  0.1106 -0.1994
 6863TIP3   OH242223   4.461   2.264   1.487  0.4607  0.2752  0.7731
 6863TIP3    H142224   4.496   2.317   1.415  0.1750  1.8392  1.7434
 6863TIP3    H242225   4.538   2.235   1.536  0.5758  0.4992  0.7226
 6864TIP3   OH242226   2.688   0.527   1.840  0.6173 -0.2612  0.7277
 6864TIP3    H142227   2.689   0.573   1.756  0.2477  0.2900  1.0184
 6864TIP3    H242228   2.780   0.522   1.867  0.6873  0.0029  0.5301
 6865TIP3   OH242229   4.429   0.890   6.338 -0.1588  0.6891  0.7717
 6865TIP3    H142230   4.454   0.980   6.319  1.5094  0.0304 -0.4202
 6865TIP3    H242231   4.509   0.848   6.368 -1.0430 -0.2835  1.8900
 6866TIP3   OH242232   1.780   4.110   0.880  0.2610  0.0317  0.0033
 6866TIP3    H142233   1.777   4.014   0.884  2.0179 -0.0837 -0.6629
 6866TIP3    H242234   1.873   4.131   0.876 -0.1171  1.7008 -1.0391
 6867TIP3   OH242235   2.149   6.826   1.502  0.6185  0.3401 -0.4317
 6867TIP3    H142236   2.117   6.738   1.522 -1.0726  0.7224 -1.2619
 6867TIP3    H242237   2.244   6.820   1.513  0.4173 -1.1902  0.9613
 6868TIP3   OH242238   0.636   2.068   0.063  0.3031  0.4259  0.1973
 6868TIP3    H142239   0.632   1.994   0.124  2.6808 -0.6729 -0.8125
 6868TIP3    H242240   0.714   2.117   0.091 -0.0370  1.3393 -0.4348
 6869TIP3   OH242241   1.680   2.605   0.338  0.3101 -0.7884  0.1360
 6869TIP3    H142242   1.719   2.524   0.306  0.3912 -0.3621 -0.8906
 6869TIP3    H242243   1.667   2.658   0.260  0.1864  0.1602  0.7771
 6870TIP3   OH242244   4.300   6.640   7.996  0.2061  0.7014  0.6431
 6870TIP3    H142245   4.299   6.619   8.089  0.3479  1.3620  0.7945
 6870TIP3    H242246   4.329   6.559   7.954  3.1146  1.2670  1.3910
 6871TIP3   OH242247   1.280   6.057   1.272 -0.2508  0.2852 -0.1563
 6871TIP3    H142248   1.252   6.020   1.189  0.4028 -1.8255  0.4954
 6871TIP3    H242249   1.348   6.121   1.248  1.4670 -1.8018 -1.2029
 6872TIP3   OH242250   1.047   1.019   8.383  0.1498  0.1812  0.2112
 6872TIP3    H142251   0.986   1.087   8.354 -0.4268 -0.5531 -0.3328
 6872TIP3    H242252   1.070   1.044   8.473 -0.6239  0.6934  0.2744
 6873TIP3   OH242253   4.762   4.645   8.214 -0.3887  0.3353  0.3695
 6873TIP3    H142254   4.799   4.598   8.140  0.8186  0.7909  0.6562
 6873TIP3    H242255   4.693   4.699   8.177  0.6699  1.0978 -0.5614
 6874TIP3   OH242256   4.463   6.346   1.725 -0.4329 -0.5194  0.2881
 6874TIP3    H142257   4.466   6.399   1.805  0.3391 -2.8584  1.9282
 6874TIP3    H242258   4.379   6.368   1.685 -0.0608  2.0452  0.7496
 6875TIP3   OH242259   0.040   1.220   7.740  0.2358  0.0826  0.6975
 6875TIP3    H142260  -0.025   1.153   7.718 -0.9467  0.9826  1.3290
 6875TIP3    H242261   0.053   1.210   7.834  0.0386  0.7532  0.7953
 6876TIP3   OH242262   1.725   1.614   2.152 -0.3614 -0.4392 -0.1626
 6876TIP3    H142263   1.811   1.630   2.113 -0.6482  1.8501  0.0326
 6876TIP3    H242264   1.741   1.605   2.245 -0.3277  0.0197 -0.1229
 6877TIP3   OH242265   4.826   4.256   8.076  0.4802 -0.4755  0.3729
 6877TIP3    H142266   4.896   4.304   8.121  1.8790 -0.7041 -1.4423
 6877TIP3    H242267   4.746   4.281   8.122  1.7508 -0.3637  2.6617
 6878TIP3   OH242268   3.927   2.154   0.298 -0.2596 -0.2866  0.1080
 6878TIP3    H142269   3.870   2.155   0.374 -1.4843  0.8985 -0.7819
 6878TIP3    H242270   3.867   2.152   0.223  0.9039 -1.0608 -0.8409
 6879TIP3   OH242271   2.248   2.350   0.741  0.3753 -0.3906 -0.2028
 6879TIP3    H142272   2.199   2.364   0.822 -1.8623  0.4388 -1.6099
 6879TIP3    H242273   2.272   2.257   0.744  2.7945  0.1757  2.5994
 6880TIP3   OH242274   5.244   4.574   6.469  0.4897  0.3034 -0.0799
 6880TIP3    H142275   5.248   4.617   6.383 -2.6956  0.1370 -0.4204
 6880TIP3    H242276   5.182   4.627   6.519  1.1613 -0.4728  1.6479
 6881TIP3   OH242277   4.684   3.373   0.373 -0.2674  0.5781  0.4323
 6881TIP3    H142278   4.628   3.440   0.334  1.0612  0.8798 -1.0854
 6881TIP3    H242279   4.630   3.294   0.374 -1.0487  1.0917 -0.0607
 6882TIP3   OH242280   4.305   5.130   2.816 -0.5132 -0.0402 -0.5715
 6882TIP3    H142281   4.293   5.121   2.910 -0.6572  0.1205 -0.5736
 6882TIP3    H242282   4.343   5.046   2.788 -1.0980 -0.3391 -0.4724
 6883TIP3   OH242283   2.094   4.888   0.221 -0.7814 -0.0900  0.4817
 6883TIP3    H142284   2.006   4.852   0.219 -0.3020 -1.6222  2.8334
 6883TIP3    H242285   2.152   4.812   0.217  0.3763  0.7000  1.3904
 6884TIP3   OH242286   1.629   3.364   1.516  0.3883  0.5792 -0.1605
 6884TIP3    H142287   1.558   3.304   1.537  0.6794  0.2895  0.0163
 6884TIP3    H242288   1.609   3.396   1.428  1.5915 -1.8248 -1.4294
 6885TIP3   OH242289   3.826   6.222   1.971 -0.0395 -0.5879  0.2153
 6885TIP3    H142290   3.805   6.237   1.879 -1.0114 -0.9104  0.3717
 6885TIP3    H242291   3.920   6.204   1.972  0.3868  1.3762 -0.4679
 6886TIP3   OH242292   2.293   3.191   1.948 -0.0360  0.2200 -0.5884
 6886TIP3    H142293   2.232   3.246   1.898 -1.5768 -1.3241 -0.4736
 6886TIP3    H242294   2.308   3.115   1.892  0.1130 -0.4099  0.2914
 6887TIP3   OH242295   4.291   3.266   6.614  0.6404 -0.0931  0.2980
 6887TIP3    H142296   4.360   3.278   6.548  0.6168 -0.3851  0.2202
 6887TIP3    H242297   4.292   3.348   6.663  0.4511  0.2488 -0.2568
 6888TIP3   OH242298   2.947   0.491   0.809 -0.2309  0.1563 -0.0471
 6888TIP3    H142299   2.995   0.506   0.890  0.2009 -1.4088  0.0161
 6888TIP3    H242300   2.892   0.569   0.799  0.1239  0.6310  1.4383
 6889TIP3   OH242301   3.688   2.578   1.437  0.9890  0.3711 -0.2331
 6889TIP3    H142302   3.680   2.581   1.342 -1.7402 -3.5310 -0.3759
 6889TIP3    H242303   3.641   2.655   1.468  0.9530  1.0962 -1.9946
 6890TIP3   OH242304   5.490   3.950   6.950 -0.0838 -0.3830 -0.1509
 6890TIP3    H142305   5.492   4.040   6.917  0.4337 -0.5603 -0.6096
 6890TIP3    H242306   5.483   3.895   6.872 -1.6569 -0.7028  0.1906
 6891TIP3   OH242307   4.393   4.510   7.524 -0.5663 -0.4623 -0.5281
 6891TIP3    H142308   4.465   4.468   7.572  0.8209  0.9256 -1.2810
 6891TIP3    H242309   4.314   4.478   7.566  0.5224 -1.3122  0.9745
 6892TIP3   OH242310   1.658   5.876   7.056 -0.1034  0.0176 -0.1337
 6892TIP3    H142311   1.699   5.793   7.032  2.7250  1.6196 -1.3228
 6892TIP3    H242312   1.679   5.888   7.149 -1.5129 -1.0495  0.3613
 6893TIP3   OH242313   6.622   0.142   8.419  0.3971 -0.0162  0.3239
 6893TIP3    H142314   6.701   0.127   8.367 -0.4536  0.1823 -1.0802
 6893TIP3    H242315   6.642   0.102   8.504  2.1758  0.4577  0.1811
 6894TIP3   OH242316   6.727   4.314   8.125 -0.0007  0.2846 -0.6005
 6894TIP3    H142317   6.821   4.294   8.131  0.0555  0.8827  1.5978
 6894TIP3    H242318   6.721   4.382   8.058  1.1738  0.4342 -0.5831
 6895TIP3   OH242319   0.592   5.215   1.368  0.2975 -0.2740  0.0904
 6895TIP3    H142320   0.680   5.180   1.380  0.6674  0.0761 -1.3504
 6895TIP3    H242321   0.552   5.156   1.304 -0.9252 -1.0758  1.5510
 6896TIP3   OH242322   4.631   1.059   7.835 -0.4413  0.0858 -0.7642
 6896TIP3    H142323   4.591   0.984   7.791 -0.4906 -0.7290  0.6243
 6896TIP3    H242324   4.558   1.107   7.872 -0.2628 -0.6078  0.5349
 6897TIP3   OH242325   6.876   1.966   6.607  0.2000 -0.5076 -0.0131
 6897TIP3    H142326   6.904   1.881   6.641  1.3042 -0.0694  0.1909
 6897TIP3    H242327   6.849   1.947   6.517  0.1507 -1.1216  0.1252
 6898TIP3   OH242328   3.328   0.065   8.351  0.3629 -0.4676 -0.4000
 6898TIP3    H142329   3.287  -0.002   8.406  0.7960  0.3387  0.9376
 6898TIP3    H242330   3.413   0.027   8.326  1.0432 -0.0485  1.1811
 6899TIP3   OH242331   4.670   0.378   1.183 -0.2867 -0.0868  0.0541
 6899TIP3    H142332   4.662   0.468   1.215 -1.1188 -0.2135  0.2474
 6899TIP3    H242333   4.764   0.364   1.171 -0.0957  0.5646  0.7303
 6900TIP3   OH242334   0.042   5.186   1.689 -0.1118 -0.5868 -0.1319
 6900TIP3    H142335  -0.047   5.179   1.655  0.3752 -0.5080 -1.5036
 6900TIP3    H242336   0.096   5.136   1.627  0.6958 -1.3392  1.1371
 6901TIP3   OH242337   3.073   6.269   6.646 -0.0770 -0.9658 -0.5819
 6901TIP3    H142338   3.107   6.233   6.728  1.1465 -0.4653 -0.8404
 6901TIP3    H242339   2.979   6.277   6.660  0.2695  0.4568  1.3166
 6902TIP3   OH242340   6.587   3.298   0.847  0.1078  0.4873  0.1573
 6902TIP3    H142341   6.608   3.360   0.916  1.2973 -0.2538  0.4764
 6902TIP3    H242342   6.623   3.215   0.876 -2.0153 -0.5497  0.0454
 6903TIP3   OH242343   0.374   4.448   0.195  0.3240  0.6683 -0.5144
 6903TIP3    H142344   0.301   4.399   0.156 -1.0003  1.3989  0.9397
 6903TIP3    H242345   0.434   4.464   0.122 -0.5527 -0.6969 -1.5738
 6904TIP3   OH242346   4.547   3.449   1.109 -0.5905  0.4021  0.3004
 6904TIP3    H142347   4.545   3.355   1.129 -0.7848  0.5842  1.1446
 6904TIP3    H242348   4.558   3.452   1.014 -1.8664 -0.5010  0.0850
 6905TIP3   OH242349   4.617   2.457   1.319  0.8186 -0.4786 -0.2479
 6905TIP3    H142350   4.697   2.416   1.285  1.4016 -0.3507  0.9474
 6905TIP3    H242351   4.643   2.495   1.403 -0.3386  0.1517 -0.1605
 6906TIP3   OH242352   3.654   5.855   1.544  0.4661  1.1012 -0.1635
 6906TIP3    H142353   3.619   5.767   1.560 -0.4065  1.2655 -1.0065
 6906TIP3    H242354   3.743   5.853   1.578  0.2683  0.0559  0.3208
 6907TIP3   OH242355   4.070   0.076   2.090 -0.4900  0.1093  0.8174
 6907TIP3    H142356   4.061   0.099   2.182 -1.1402  0.2336  0.7270
 6907TIP3    H242357   4.104  -0.014   2.092  0.6861  0.5355  1.1636
 6908TIP3   OH242358   0.013   0.453   8.465 -0.1427  0.0292  0.3868
 6908TIP3    H142359   0.065   0.461   8.545 -0.1339  1.1885  0.2898
 6908TIP3    H242360   0.065   0.398   8.408 -0.3029 -1.1023  1.2901
 6909TIP3   OH242361   6.057   1.201   0.116 -0.0063  0.1168  0.1391
 6909TIP3    H142362   6.055   1.204   0.212 -1.4799  0.5629  0.1200
 6909TIP3    H242363   5.967   1.179   0.091 -0.1367  1.9381 -1.1726
 6910TIP3   OH242364   6.122   1.465   8.032 -0.4043 -0.1541 -0.6369
 6910TIP3    H142365   6.155   1.385   7.989  0.4213 -0.2756  0.1936
 6910TIP3    H242366   6.185   1.533   8.007 -0.9537  0.1837 -1.1172
 6911TIP3   OH242367   1.722   1.058   0.086 -0.5645 -0.3375 -0.6141
 6911TIP3    H142368   1.731   0.963   0.091 -2.2417 -0.7243 -3.0696
 6911TIP3    H242369   1.631   1.075   0.108 -0.1267  0.8165  0.4354
 6912TIP3   OH242370   6.140   1.236   1.467  0.3491 -0.7789 -0.1948
 6912TIP3    H142371   6.222   1.285   1.458  0.1453 -0.4161 -0.0923
 6912TIP3    H242372   6.087   1.263   1.392 -0.2264  0.0626  0.5002
 6913TIP3   OH242373   1.572   5.429   0.747  0.1862  0.2465  0.1270
 6913TIP3    H142374   1.611   5.425   0.660 -1.3007 -0.8621 -0.5250
 6913TIP3    H242375   1.521   5.349   0.754 -0.8346  0.9774  1.4807
 6914TIP3   OH242376   5.361   1.413   8.593 -0.2107  0.3556  0.0916
 6914TIP3    H142377   5.364   1.424   8.688  0.2173  0.6935  0.0407
 6914TIP3    H242378   5.268   1.411   8.572 -0.3048  0.8771  0.4495
 6915TIP3   OH242379   1.526   6.449   1.087  0.0458  0.0655 -0.0885
 6915TIP3    H142380   1.543   6.358   1.066 -0.4806 -0.1582  0.4400
 6915TIP3    H242381   1.572   6.463   1.170  1.6525  0.7900 -1.0485
 6916TIP3   OH242382   3.550   2.378   1.635 -0.0945 -0.1190 -0.2935
 6916TIP3    H142383   3.605   2.413   1.565  0.6808 -0.4928  0.1134
 6916TIP3    H242384   3.586   2.417   1.715 -0.8712  0.1778 -0.0815
 6917TIP3   OH242385   1.556   2.256   1.634  0.2806 -0.1919 -0.5437
 6917TIP3    H142386   1.574   2.273   1.727 -0.1652 -1.0745 -0.2843
 6917TIP3    H242387   1.531   2.342   1.599 -1.4903 -0.1786  0.6204
 6918TIP3   OH242388   6.078   2.998   2.010  0.0681  0.3565  0.2102
 6918TIP3    H142389   6.047   2.908   2.013  0.5872  0.1388 -0.7416
 6918TIP3    H242390   6.153   2.996   1.951  1.8410  0.9070  2.3315
 6919TIP3   OH242391   0.565   2.865   0.595 -0.0058  0.1480  0.0544
 6919TIP3    H142392   0.600   2.909   0.672  0.9617 -1.6936  0.7289
 6919TIP3    H242393   0.624   2.790   0.581 -2.0545 -1.4411 -0.4982
 6920TIP3   OH242394   0.983   3.232   7.302 -0.4746 -0.0531 -0.3077
 6920TIP3    H142395   0.945   3.316   7.326 -0.0261  0.3594 -1.0056
 6920TIP3    H242396   1.077   3.242   7.321 -0.4851 -0.5701  0.0632
 6921TIP3   OH242397   3.113   6.460   1.691 -0.2941 -0.1353 -0.1892
 6921TIP3    H142398   3.198   6.424   1.664  0.6459 -0.6993  3.1259
 6921TIP3    H242399   3.050   6.391   1.668  0.6941 -1.3677  0.6416
 6922TIP3   OH242400   6.795   6.428   6.524  0.7930 -0.5249 -0.1145
 6922TIP3    H142401   6.774   6.362   6.591 -0.1848  0.7543  0.8814
 6922TIP3    H242402   6.798   6.511   6.572  2.0447  0.1804 -1.3362
 6923TIP3   OH242403   6.126   4.661   7.994 -0.4527 -0.0468  0.4146
 6923TIP3    H142404   6.108   4.649   7.901 -0.5195  0.0923  0.4104
 6923TIP3    H242405   6.166   4.748   8.000 -3.3435  1.3427  0.9038
 6924TIP3   OH242406   1.687   6.670   1.289 -0.4489  0.3447 -0.2101
 6924TIP3    H142407   1.734   6.594   1.325 -2.5927 -0.3928  1.2643
 6924TIP3    H242408   1.683   6.731   1.362 -1.0167  0.7458 -0.5725
 6925TIP3   OH242409   3.509   4.782   0.757 -0.0321  0.5958  0.6859
 6925TIP3    H142410   3.503   4.701   0.807 -0.0887  0.1460 -0.0330
 6925TIP3    H242411   3.491   4.756   0.666  0.2216  1.3632  0.4040
 6926TIP3   OH242412   3.365   2.491   7.460 -0.3466 -0.3542  0.4069
 6926TIP3    H142413   3.407   2.430   7.399 -1.6013 -1.2908  0.4358
 6926TIP3    H242414   3.275   2.499   7.428  0.1613  2.7813 -0.5396
 6927TIP3   OH242415   5.110   3.087   1.144 -0.1766 -0.2364 -0.0684
 6927TIP3    H142416   5.198   3.125   1.142  0.3691 -1.4770 -1.9921
 6927TIP3    H242417   5.099   3.057   1.235 -0.2768  3.4847  1.3195
 6928TIP3   OH242418   3.082   6.863   7.525  0.4602  0.1352 -0.5046
 6928TIP3    H142419   3.138   6.790   7.497 -0.6459 -1.3130  0.8869
 6928TIP3    H242420   2.997   6.823   7.541 -0.0179  1.6231  0.8953
 6929TIP3   OH242421   3.086   5.864   6.756 -0.3534  0.1538  0.7620
 6929TIP3    H142422   3.166   5.871   6.704 -1.1763 -0.4318 -0.6420
 6929TIP3    H242423   3.018   5.904   6.701 -1.2285 -0.3275  1.4635
 6930TIP3   OH242424   0.220   0.312   7.703  0.1956 -0.1013  0.1494
 6930TIP3    H142425   0.149   0.376   7.707  0.2031 -0.0986  0.2452
 6930TIP3    H242426   0.185   0.234   7.747 -0.7463 -1.0782 -2.1605
 6931TIP3   OH242427   3.215   3.912   2.344  0.0918 -0.5159 -0.5100
 6931TIP3    H142428   3.127   3.934   2.315 -0.6320 -1.2479  1.0249
 6931TIP3    H242429   3.238   3.983   2.404  0.3409 -0.6093 -0.4958
 6932TIP3   OH242430   6.071   1.629   0.247 -0.0415 -0.1049 -0.1837
 6932TIP3    H142431   6.108   1.549   0.285 -1.5703 -0.1290  1.4053
 6932TIP3    H242432   5.977   1.612   0.242 -0.0690  0.4382 -2.8382
 6933TIP3   OH242433   5.032   5.992   1.025  0.3556  0.3934  0.1905
 6933TIP3    H142434   5.123   6.012   1.048  1.0280  1.0210 -2.6889
 6933TIP3    H242435   5.026   6.009   0.931 -2.3385 -1.1904 -0.0330
 6934TIP3   OH242436   0.518   2.597   6.325 -0.4319  0.1119 -0.6211
 6934TIP3    H142437   0.437   2.556   6.356  0.2991 -0.5043  0.5425
 6934TIP3    H242438   0.583   2.526   6.327  0.9539  1.3266  1.7904
 6935TIP3   OH242439   0.976   5.970   1.128  0.5739  0.8592 -0.3711
 6935TIP3    H142440   0.997   6.048   1.179  0.5349  0.6615 -0.0442
 6935TIP3    H242441   0.994   5.897   1.188 -1.4454  0.6797  0.0905
 6936TIP3   OH242442   3.049   3.929   8.430  0.3442 -0.4532  0.6846
 6936TIP3    H142443   2.964   3.922   8.473  0.8759 -2.8290  1.4821
 6936TIP3    H242444   3.056   3.849   8.377  1.6490  0.2104 -0.2114
 6937TIP3   OH242445   4.849   1.790   7.308  0.4176 -0.0574 -0.3611
 6937TIP3    H142446   4.831   1.700   7.335  2.2046 -0.8172 -1.5246
 6937TIP3    H242447   4.804   1.800   7.225  0.3987  0.0500 -0.3384
 6938TIP3   OH242448   0.760   2.196   0.399  0.7110 -0.1273  0.1438
 6938TIP3    H142449   0.792   2.124   0.454  2.1838  0.9922  0.8452
 6938TIP3    H242450   0.742   2.267   0.461  1.5868  0.8766 -0.7149
 6939TIP3   OH242451   1.145   5.865   1.766 -0.1612 -0.4151  0.1214
 6939TIP3    H142452   1.057   5.852   1.730 -0.3592  1.1740 -0.0616
 6939TIP3    H242453   1.198   5.890   1.690  0.2130 -0.3953  0.3870
 6940TIP3   OH242454   2.452   6.695   8.016  0.6106 -0.1471 -0.2622
 6940TIP3    H142455   2.436   6.717   8.108  1.6208 -0.3148 -0.0352
 6940TIP3    H242456   2.540   6.658   8.015  0.6925  0.0395 -1.3351
 6941TIP3   OH242457   4.738   6.071   0.551  0.1949  0.0907 -0.2336
 6941TIP3    H142458   4.819   6.090   0.504  0.0724 -0.2562 -0.5981
 6941TIP3    H242459   4.679   6.143   0.528 -0.0284 -0.3288 -1.0216
 6942TIP3   OH242460   4.953   3.075   0.908 -0.7171 -0.2697 -0.4876
 6942TIP3    H142461   5.011   3.035   0.973 -0.9000  1.1231  0.5613
 6942TIP3    H242462   4.867   3.073   0.949 -0.8768  0.4112 -0.7770
 6943TIP3   OH242463   2.046   1.920   7.569  0.1982  0.2507  1.0534
 6943TIP3    H142464   2.030   1.944   7.660 -0.0739 -0.6675  1.2514
 6943TIP3    H242465   1.961   1.929   7.526  0.5936  2.0644  0.5413
 6944TIP3   OH242466   0.029   0.582   6.909 -0.3001 -0.5240  0.6564
 6944TIP3    H142467   0.079   0.519   6.857 -0.5318 -1.6348  1.7316
 6944TIP3    H242468   0.043   0.666   6.866  1.8514 -0.9335  0.4723
 6945TIP3   OH242469   0.707   1.983   2.262  0.5763 -0.0796  0.3459
 6945TIP3    H142470   0.631   2.036   2.286  0.3124 -0.1117 -0.4012
 6945TIP3    H242471   0.766   2.044   2.217  1.2652  0.0823  1.4295
 6946TIP3   OH242472   3.398   5.972   0.229  0.0541 -0.5815  0.3953
 6946TIP3    H142473   3.441   5.892   0.259 -0.5202 -0.3983  1.7939
 6946TIP3    H242474   3.464   6.041   0.245 -0.1782 -0.5122  1.0931
 6947TIP3   OH242475   6.585   5.610   2.867  0.6450  0.0235 -0.1285
 6947TIP3    H142476   6.490   5.601   2.858  0.5935 -0.5811  0.8901
 6947TIP3    H242477   6.599   5.701   2.891  0.5263  0.7516 -2.5405
 6948TIP3   OH242478   0.428   2.073   1.600  0.1543  0.1456  0.2099
 6948TIP3    H142479   0.380   2.097   1.521  0.1408  0.8712  0.4254
 6948TIP3    H242480   0.360   2.052   1.664  0.1644 -0.4051  0.0414
 6949TIP3   OH242481   5.787   1.643   0.204 -0.5108 -0.0702 -0.0142
 6949TIP3    H142482   5.786   1.735   0.177  0.2814 -0.1480 -0.3354
 6949TIP3    H242483   5.787   1.645   0.299  2.7326  0.3798  0.1042
 6950TIP3   OH242484   6.033   5.958   0.489 -0.4650  0.0038  0.2302
 6950TIP3    H142485   6.103   5.902   0.522  0.3976  0.2918 -1.0170
 6950TIP3    H242486   6.033   5.943   0.394 -2.2987 -0.2074  0.2320
 6951TIP3   OH242487   1.348   0.088   1.937 -0.1173  0.2623 -0.8076
 6951TIP3    H142488   1.322   0.158   1.878  0.6284  0.0749 -1.3660
 6951TIP3    H242489   1.283   0.018   1.922 -1.8383  1.3943  0.9026
 6952TIP3   OH242490   5.604   4.000   0.752 -0.2537 -0.0143 -0.3788
 6952TIP3    H142491   5.665   3.951   0.697 -0.5245 -0.1864 -0.5294
 6952TIP3    H242492   5.647   4.005   0.838  0.1897  0.2962 -0.6152
 6953TIP3   OH242493   2.818   3.859   0.947 -0.1411 -0.6276  0.1724
 6953TIP3    H142494   2.856   3.825   1.028 -2.2643 -2.0443  0.6334
 6953TIP3    H242495   2.809   3.953   0.962  1.7275 -0.4709  0.5889
 6954TIP3   OH242496   3.311   6.495   7.000 -0.5847  0.2206  0.0928
 6954TIP3    H142497   3.316   6.588   7.022 -0.3025  0.0379  0.8440
 6954TIP3    H242498   3.386   6.480   6.943 -0.4853  0.4039  0.1747
 6955TIP3   OH242499   4.427   2.457   1.759 -0.2390  0.0261  0.0522
 6955TIP3    H142500   4.381   2.413   1.831  0.5038  0.5130  0.8372
 6955TIP3    H242501   4.389   2.418   1.680 -1.3280 -0.2604  0.6881
 6956TIP3   OH242502   6.541   3.387   7.481 -0.7698  0.4778 -0.6161
 6956TIP3    H142503   6.523   3.348   7.566 -0.0770  1.8429  0.1966
 6956TIP3    H242504   6.482   3.462   7.475 -1.3415 -0.0336 -1.6833
 6957TIP3   OH242505   6.516   3.085   0.587 -0.2778  0.3129  0.1046
 6957TIP3    H142506   6.437   3.051   0.629  0.4385 -0.5686  0.7676
 6957TIP3    H242507   6.566   3.125   0.659  1.4560 -2.1265  0.3654
 6958TIP3   OH242508   4.266   5.614   7.487 -0.1948  0.0039  0.4424
 6958TIP3    H142509   4.178   5.599   7.452 -0.7236  2.1264  0.7118
 6958TIP3    H242510   4.317   5.538   7.459 -2.1763 -1.4263  0.5296
 6959TIP3   OH242511   6.107   3.096   7.512  0.6375  0.2243  0.2313
 6959TIP3    H142512   6.030   3.051   7.547  0.1146 -1.8367 -3.1073
 6959TIP3    H242513   6.076   3.183   7.491 -1.0835 -0.7572 -1.6343
 6960TIP3   OH242514   0.264   1.170   8.486 -0.4060  0.1218  0.3121
 6960TIP3    H142515   0.328   1.123   8.433 -2.0176 -0.7142 -0.9948
 6960TIP3    H242516   0.255   1.255   8.443  1.7044  1.3263  2.0451
 6961TIP3   OH242517   4.681   2.688   7.390  0.2681  0.8296  0.0788
 6961TIP3    H142518   4.691   2.615   7.330 -1.1720 -1.3269  2.2656
 6961TIP3    H242519   4.629   2.752   7.341 -1.0660 -0.9415 -0.9408
 6962TIP3   OH242520   3.157   3.457   1.193  0.3078  0.4956  0.0954
 6962TIP3    H142521   3.099   3.412   1.132 -0.2453  0.0623  0.9158
 6962TIP3    H242522   3.131   3.425   1.279  1.6875  0.3776  0.5028
 6963TIP3   OH242523   1.556   6.243   7.334 -0.3538 -0.1797 -0.3487
 6963TIP3    H142524   1.591   6.262   7.248  1.8120 -1.8589  0.0723
 6963TIP3    H242525   1.504   6.164   7.322  0.7753 -1.0008  0.0207
 6964TIP3   OH242526   6.644   5.963   6.207  0.0262  0.0534  0.4845
 6964TIP3    H142527   6.549   5.969   6.195 -0.1293 -1.3830  0.7731
 6964TIP3    H242528   6.673   6.054   6.214 -1.3525  0.5161  0.5970
 6965TIP3   OH242529   4.429   4.919   0.955  0.0129 -0.2536 -0.4121
 6965TIP3    H142530   4.523   4.900   0.950  0.2859  0.9965 -0.5122
 6965TIP3    H242531   4.406   4.905   1.047  0.7328  1.2311  0.0175
 6966TIP3   OH242532   2.346   4.134   0.989 -0.0905 -0.3031 -0.2358
 6966TIP3    H142533   2.279   4.200   1.005  0.4279 -0.1934  1.7005
 6966TIP3    H242534   2.298   4.057   0.960 -0.6814  0.9518 -2.8546
 6967TIP3   OH242535   2.893   3.227   7.383 -0.3738 -0.5617  0.3041
 6967TIP3    H142536   2.969   3.213   7.440  0.5353  2.3245  0.0198
 6967TIP3    H242537   2.923   3.199   7.296  0.5680  0.8337  0.1348
 6968TIP3   OH242538   0.742   3.195   8.062  0.1596 -0.3971 -0.0697
 6968TIP3    H142539   0.796   3.177   8.139 -1.2924 -0.6992  0.9043
 6968TIP3    H242540   0.697   3.113   8.045 -0.6156  0.0805 -0.3585
 6969TIP3   OH242541   3.894   0.622   7.384  0.2993  0.1885 -0.1662
 6969TIP3    H142542   3.902   0.527   7.374  0.9260  0.0410  1.4681
 6969TIP3    H242543   3.856   0.651   7.301  0.2073 -1.4647 -0.7503
 6970TIP3   OH242544   1.818   2.573   1.043  0.2416 -0.2021 -0.0132
 6970TIP3    H142545   1.727   2.546   1.044  0.4119 -0.8782  1.6697
 6970TIP3    H242546   1.815   2.666   1.068  0.0703 -0.7194  2.1503
 6971TIP3   OH242547   0.587   1.469   8.176  0.4179 -0.1792  0.1132
 6971TIP3    H142548   0.597   1.412   8.100 -1.5866 -0.4371 -0.0065
 6971TIP3    H242549   0.564   1.554   8.139  3.2900  0.7609  0.2961
 6972TIP3   OH242550   2.075   3.855   0.330  0.3296  0.2470 -0.2896
 6972TIP3    H142551   2.097   3.867   0.238  0.0004 -0.5067 -0.4741
 6972TIP3    H242552   2.140   3.906   0.377  1.5693 -0.7409 -0.8819
 6973TIP3   OH242553   5.783   6.385   6.734 -0.4582 -0.0544 -0.6798
 6973TIP3    H142554   5.698   6.349   6.708 -0.8573  0.6485 -0.3590
 6973TIP3    H242555   5.783   6.378   6.829 -0.4911  0.6869 -0.6233
 6974TIP3   OH242556   0.234   0.201   8.497 -0.5573 -0.0538  0.0229
 6974TIP3    H142557   0.311   0.145   8.507  1.3010  2.3443  0.0779
 6974TIP3    H242558   0.221   0.207   8.402 -1.6241 -1.5688  0.0319
 6975TIP3   OH242559   6.235   2.478   1.603  0.0039 -0.5212 -0.2285
 6975TIP3    H142560   6.291   2.403   1.582 -1.8233 -1.7429 -0.9453
 6975TIP3    H242561   6.169   2.479   1.534 -1.2824  0.4629  0.9654
 6976TIP3   OH242562   6.268   0.112   7.249 -0.1241  0.0694 -0.3088
 6976TIP3    H142563   6.355   0.093   7.284 -0.7462 -0.9191  0.7920
 6976TIP3    H242564   6.230   0.173   7.312  0.3103  1.7598 -1.6136
 6977TIP3   OH242565   1.315   3.459   1.473 -0.0105  0.4521 -0.5553
 6977TIP3    H142566   1.305   3.367   1.449 -0.1135  0.3601 -0.1595
 6977TIP3    H242567   1.329   3.458   1.567  1.6365  0.7208 -0.7667
 6978TIP3   OH242568   3.568   2.801   1.557  0.4499  0.5351  0.2277
 6978TIP3    H142569   3.574   2.822   1.650  0.8359 -0.5563  0.4582
 6978TIP3    H242570   3.630   2.861   1.515  1.5953 -0.1538  0.8856
 6979TIP3   OH242571   6.455   1.631   1.869 -0.2923  0.0393  0.1861
 6979TIP3    H142572   6.392   1.590   1.928 -1.0904 -0.3247 -0.8900
 6979TIP3    H242573   6.540   1.598   1.898 -0.8793 -2.2732 -0.5336
 6980TIP3   OH242574   5.537   2.023   7.247 -0.4398  0.0958  0.3947
 6980TIP3    H142575   5.583   2.011   7.330 -0.7547 -0.8762  0.4447
 6980TIP3    H242576   5.486   1.943   7.236 -2.1265  1.1142  0.3390
 6981TIP3   OH242577   3.778   0.057   6.501  0.1166 -0.4353 -0.3583
 6981TIP3    H142578   3.748   0.082   6.413  0.0195 -0.3549 -0.3029
 6981TIP3    H242579   3.706   0.005   6.537 -1.1324  1.9330  0.7816
 6982TIP3   OH242580   1.541   5.788   0.041 -0.4086 -0.0546 -0.0487
 6982TIP3    H142581   1.460   5.799  -0.009  0.1601 -1.3447 -1.3321
 6982TIP3    H242582   1.572   5.877   0.056 -0.9236  0.3930 -1.4974
 6983TIP3   OH242583   1.510   1.959   6.277  0.0763 -0.4758 -0.0003
 6983TIP3    H142584   1.455   2.037   6.264 -0.3314 -0.6947  0.4093
 6983TIP3    H242585   1.590   1.994   6.315  0.7431  0.0064 -1.7403
 6984TIP3   OH242586   6.222   0.916   2.482  0.0622 -0.1214 -0.4025
 6984TIP3    H142587   6.302   0.908   2.430 -0.6996 -0.6927 -1.5278
 6984TIP3    H242588   6.252   0.915   2.573  1.3433 -0.2040 -0.8107
 6985TIP3   OH242589   0.021   6.595   1.218  0.1471 -0.4062 -0.6471
 6985TIP3    H142590   0.050   6.592   1.126  0.1419  2.2407 -0.8130
 6985TIP3    H242591   0.098   6.624   1.266 -0.0391 -1.1452  0.1054
 6986TIP3   OH242592   0.228   1.650   0.716 -0.1573 -0.4632 -0.1096
 6986TIP3    H142593   0.313   1.690   0.701  0.4160 -1.5929 -0.0227
 6986TIP3    H242594   0.204   1.611   0.632  0.2641 -1.6662  0.2966
 6987TIP3   OH242595   2.427   4.774   0.783 -0.2003  0.0789 -0.3346
 6987TIP3    H142596   2.508   4.723   0.785  0.3046  0.8646 -0.3272
 6987TIP3    H242597   2.444   4.847   0.843 -1.2819 -0.2859  0.4308
 6988TIP3   OH242598   3.768   5.999   6.614  0.2728  0.1458 -0.1169
 6988TIP3    H142599   3.831   6.043   6.671 -0.4403  0.8780  0.1217
 6988TIP3    H242600   3.728   5.932   6.668 -0.4188  0.8540  0.2686
 6989TIP3   OH242601   3.424   5.702   6.994  0.0996 -0.4026  0.1560
 6989TIP3    H142602   3.334   5.733   6.982 -0.3201 -2.0826 -1.4194
 6989TIP3    H242603   3.436   5.635   6.926  1.3268 -2.8628  2.6169
 6990TIP3   OH242604   5.138   4.423   2.405  0.2194  0.1942 -0.1139
 6990TIP3    H142605   5.093   4.508   2.403  0.2180  0.2692  1.6509
 6990TIP3    H242606   5.230   4.444   2.394  0.2636  0.4824  0.7531
 6991TIP3   OH242607   4.216   4.644   6.904 -0.2420  0.2223 -0.2492
 6991TIP3    H142608   4.156   4.664   6.976 -0.2082 -0.8639  0.0885
 6991TIP3    H242609   4.232   4.550   6.911  0.9994  0.3797 -0.7144
 6992TIP3   OH242610   4.361   3.709   7.100  0.2527  0.1382 -0.5166
 6992TIP3    H142611   4.278   3.758   7.102  0.9410  1.4427 -1.5121
 6992TIP3    H242612   4.397   3.720   7.188 -0.4259 -0.1054 -0.1935
 6993TIP3   OH242613   5.009   2.211   7.862 -0.8273 -0.1472  0.3580
 6993TIP3    H142614   5.005   2.290   7.916 -0.2952 -0.1310  0.3876
 6993TIP3    H242615   4.940   2.222   7.797 -0.3737  0.6298 -0.0109
 6994TIP3   OH242616   1.463   3.348   8.622  0.4582  0.3421  0.5931
 6994TIP3    H142617   1.559   3.351   8.625  0.4297  2.3576  0.7336
 6994TIP3    H242618   1.435   3.430   8.663 -1.3649 -0.6080  1.3482
 6995TIP3   OH242619   4.667   6.937   8.307  0.3191  0.2842 -0.1296
 6995TIP3    H142620   4.606   6.886   8.254 -0.7256  0.2274  1.0816
 6995TIP3    H242621   4.614   7.007   8.344  1.3417  1.1740 -0.2908
 6996TIP3   OH242622   0.190   5.080   0.778 -0.3140 -0.4207  0.0130
 6996TIP3    H142623   0.216   5.168   0.805  2.4051 -1.2182  0.3291
 6996TIP3    H242624   0.134   5.093   0.701 -1.8811  1.6076  1.3738
 6997TIP3   OH242625   3.966   5.123   1.154 -0.1181  0.5536 -0.8287
 6997TIP3    H142626   3.959   5.218   1.146 -1.8886  0.3903 -1.8838
 6997TIP3    H242627   3.901   5.099   1.220  1.0084  0.1400  0.1578
 6998TIP3   OH242628   1.737   6.064   1.825 -0.3234 -0.3108 -0.8742
 6998TIP3    H142629   1.688   6.146   1.817  0.4006  0.2548  0.3672
 6998TIP3    H242630   1.733   6.042   1.918  0.9339 -0.7844 -0.9178
 6999TIP3   OH242631   1.372   6.533   2.441  0.0325 -0.5202  0.1267
 6999TIP3    H142632   1.365   6.482   2.360  0.2417 -2.5815  1.3274
 6999TIP3    H242633   1.293   6.509   2.490  2.2922 -3.5548  2.7191
 7000TIP3   OH242634   5.686   6.100   7.827  0.0308 -0.0466 -0.4200
 7000TIP3    H142635   5.627   6.093   7.752  0.3439 -1.2689 -0.5802
 7000TIP3    H242636   5.752   6.032   7.811  0.5714  0.2382  0.5521
 7001TIP3   OH242637   5.677   6.527   1.292 -0.3333 -0.4238 -0.4043
 7001TIP3    H142638   5.743   6.546   1.359 -1.1789  2.4735 -0.2790
 7001TIP3    H242639   5.597   6.510   1.341 -0.3167 -1.2602 -0.6429
 7002TIP3   OH242640   5.987   1.278   1.255  0.3523 -0.1050 -0.3331
 7002TIP3    H142641   5.982   1.258   1.162 -0.2259 -1.1669 -0.0882
 7002TIP3    H242642   5.897   1.296   1.282  0.7252  2.0256 -0.3352
 7003TIP3   OH242643   6.304   3.444   8.425  0.4123  0.0883  0.2659
 7003TIP3    H142644   6.333   3.391   8.351  3.7314 -1.5458  2.4948
 7003TIP3    H242645   6.222   3.404   8.453  0.5626 -1.0349 -0.8341
 7004TIP3   OH242646   0.096   0.615   8.203  0.0335  0.4228  0.2942
 7004TIP3    H142647   0.067   0.535   8.247 -0.7753  1.0050  0.8615
 7004TIP3    H242648   0.191   0.613   8.208 -0.0228  0.1548  1.5229
 7005TIP3   OH242649   4.833   2.716   7.645 -0.2114  0.2013  0.5537
 7005TIP3    H142650   4.786   2.715   7.562  0.9916  0.2780 -0.1613
 7005TIP3    H242651   4.907   2.657   7.631 -0.4220 -0.3933  1.8518
 7006TIP3   OH242652   0.647   0.913   6.559 -0.0444 -0.5702 -0.1464
 7006TIP3    H142653   0.696   0.834   6.537 -0.8225 -1.1679  0.2475
 7006TIP3    H242654   0.555   0.888   6.552 -0.3154  0.5507 -0.9258
 7007TIP3   OH242655   0.296   5.731   7.248  0.7933  0.2123  0.1727
 7007TIP3    H142656   0.278   5.640   7.272  0.4594  0.6093  1.5069
 7007TIP3    H242657   0.216   5.761   7.205  0.9837 -0.1792 -0.4676
 7008TIP3   OH242658   1.207   1.322   0.980 -0.4053 -0.0502 -0.7543
 7008TIP3    H142659   1.181   1.414   0.978  0.6254  0.2409 -1.4398
 7008TIP3    H242660   1.247   1.311   1.066 -1.7384 -0.2235 -0.1314
 7009TIP3   OH242661   6.869   6.021   7.704 -0.0913  0.0020 -0.0627
 7009TIP3    H142662   6.788   6.056   7.742 -0.9953 -1.0836 -0.9235
 7009TIP3    H242663   6.920   6.099   7.682 -1.7009  0.8160 -1.1647
 7010TIP3   OH242664   2.135   2.926   2.479 -0.0445  0.1603 -0.4779
 7010TIP3    H142665   2.167   2.836   2.490  3.2174  1.4904  2.9888
 7010TIP3    H242666   2.193   2.964   2.412  2.4850  1.0727  2.0392
 7011TIP3   OH242667   5.216   4.511   8.520  0.2409  0.2886  0.4325
 7011TIP3    H142668   5.187   4.556   8.440 -1.1039  0.9761  1.2541
 7011TIP3    H242669   5.210   4.418   8.498  0.4821  0.4718 -0.4634
 7012TIP3   OH242670   5.465   4.644   8.293  0.3344  0.7015 -0.4491
 7012TIP3    H142671   5.553   4.667   8.264  0.4206  0.5214 -0.3311
 7012TIP3    H242672   5.455   4.552   8.269 -0.2942  1.0539 -1.6143
 7013TIP3   OH242673   5.848   6.663   7.684  0.2949  0.2577 -0.4123
 7013TIP3    H142674   5.934   6.650   7.644  0.4948 -0.2171  0.1575
 7013TIP3    H242675   5.789   6.676   7.610  0.5138 -1.4057 -0.9186
 7014TIP3   OH242676   3.351   3.470   0.996 -0.2879 -0.1445  0.0826
 7014TIP3    H142677   3.420   3.407   1.015  0.0023  1.1572  4.1930
 7014TIP3    H242678   3.301   3.477   1.077 -2.4120  2.4017 -1.2833
 7015TIP3   OH242679   1.281   1.520   7.985  0.0440  0.0637  0.1451
 7015TIP3    H142680   1.255   1.431   7.962 -1.5685  0.2575  1.0754
 7015TIP3    H242681   1.247   1.533   8.073 -1.7477  2.3224 -0.7729
 7016TIP3   OH242682   2.265   5.692   1.293 -0.0709  0.5925 -0.8871
 7016TIP3    H142683   2.205   5.765   1.298 -1.6741 -0.5731 -2.0054
 7016TIP3    H242684   2.233   5.629   1.358  0.7506  0.5082 -0.5524
 7017TIP3   OH242685   6.899   2.513   7.330 -0.4444  0.0210 -1.1802
 7017TIP3    H142686   6.815   2.471   7.311 -0.6475 -0.3569  0.3561
 7017TIP3    H242687   6.903   2.515   7.426  0.7326  1.2001 -1.2246
 7018TIP3   OH242688   2.565   3.820   2.181 -0.7684  0.4247  0.0046
 7018TIP3    H142689   2.625   3.860   2.244 -1.3616 -0.5307  1.2194
 7018TIP3    H242690   2.617   3.752   2.139 -1.0164 -0.5220  1.1828
 7019TIP3   OH242691   4.675   0.139   7.585  0.3986  0.3554  0.1954
 7019TIP3    H142692   4.753   0.129   7.530 -0.8379 -0.9399 -1.4277
 7019TIP3    H242693   4.694   0.089   7.664  0.8190 -0.8678 -0.6575
 7020TIP3   OH242694   0.880   4.603   8.303 -0.3259 -0.2508 -0.0733
 7020TIP3    H142695   0.966   4.574   8.273 -0.1814  0.2141 -0.1223
 7020TIP3    H242696   0.868   4.560   8.388  0.3010  0.2973  0.3000
 7021TIP3   OH242697   3.873   0.778   1.677 -0.4974  0.1983 -0.8194
 7021TIP3    H142698   3.855   0.871   1.687 -0.3461  0.1603 -0.1504
 7021TIP3    H242699   3.832   0.736   1.753  2.3070  0.1150  0.8071
 7022TIP3   OH242700   3.668   0.342   8.393  0.1034  0.5325 -0.1382
 7022TIP3    H142701   3.695   0.373   8.307  2.3301  1.2771  0.7567
 7022TIP3    H242702   3.653   0.248   8.381 -1.7695  0.9817 -1.7622
 7023TIP3   OH242703   6.423   0.647   0.212 -0.0020 -0.0489  0.1401
 7023TIP3    H142704   6.369   0.635   0.134  0.2690 -0.6052  0.0390
 7023TIP3    H242705   6.377   0.714   0.263  0.1220  0.7383 -0.7661
 7024TIP3   OH242706   4.180   6.221   6.884 -0.5970  0.5873  0.1114
 7024TIP3    H142707   4.121   6.208   6.958  0.8857  0.0172  1.2315
 7024TIP3    H242708   4.231   6.140   6.878 -1.3223  0.2135 -2.1788
 7025TIP3   OH242709   5.373   6.526   8.213 -0.0323 -0.1943  0.0361
 7025TIP3    H142710   5.446   6.470   8.240 -0.2759 -0.9705 -0.8748
 7025TIP3    H242711   5.315   6.468   8.163 -0.5563  0.7415 -0.4708
 7026TIP3   OH242712   6.348   3.753   8.159 -0.1766 -0.1736  0.2763
 7026TIP3    H142713   6.281   3.818   8.180 -1.8260 -2.0459  1.0332
 7026TIP3    H242714   6.391   3.734   8.242  0.8309  0.4816 -0.0799
 7027TIP3   OH242715   3.973   2.825   0.351 -0.1167  0.2089  0.2609
 7027TIP3    H142716   3.900   2.873   0.311 -0.7653  0.0051  1.1661
 7027TIP3    H242717   3.956   2.734   0.329 -0.6422  0.0631  1.2370
 7028TIP3   OH242718   1.399   1.448   0.599  0.1761  0.4451 -0.5144
 7028TIP3    H142719   1.490   1.471   0.579  0.2657  0.6746  0.1499
 7028TIP3    H242720   1.348   1.512   0.550  0.3759  0.4431 -0.7297
 7029TIP3   OH242721   4.164   0.290   0.044 -0.2099 -0.4442 -0.0766
 7029TIP3    H142722   4.091   0.348   0.021  2.1871  2.5535 -0.8140
 7029TIP3    H242723   4.230   0.349   0.081  2.4790 -2.7252 -0.9301
 7030TIP3   OH242724   0.082   6.751   0.232 -0.0765  0.2596  0.2956
 7030TIP3    H142725   0.004   6.798   0.204 -0.1886  0.4100  0.8485
 7030TIP3    H242726   0.097   6.780   0.322  1.6993  1.6718 -0.3801
 7031TIP3   OH242727   1.639   1.666   8.283 -0.7802 -0.0663  0.1639
 7031TIP3    H142728   1.659   1.572   8.277  0.2961  0.0571  1.4191
 7031TIP3    H242729   1.714   1.704   8.327 -0.6934  1.5966 -1.3039
 7032TIP3   OH242730   2.165   1.620   7.781 -0.3640  0.2492  0.0288
 7032TIP3    H142731   2.127   1.686   7.840 -0.8808 -0.4357  0.4758
 7032TIP3    H242732   2.094   1.557   7.767  0.4475 -0.7944  0.4902
 7033TIP3   OH242733   1.361   3.192   8.247 -0.2106 -0.0813 -0.1059
 7033TIP3    H142734   1.296   3.135   8.206  1.2297 -0.9736 -1.2496
 7033TIP3    H242735   1.444   3.163   8.211  0.6300  2.5781 -0.5222
 7034TIP3   OH242736   3.784   1.282   2.427 -0.1508  0.1716 -0.0189
 7034TIP3    H142737   3.874   1.251   2.416  0.4359  1.5550  0.6067
 7034TIP3    H242738   3.742   1.263   2.343  0.5442 -1.0190 -0.1203
 7035TIP3   OH242739   1.632   4.840   8.439 -0.1477  0.4781 -0.0653
 7035TIP3    H142740   1.648   4.846   8.345 -1.5287  1.3168 -0.2781
 7035TIP3    H242741   1.697   4.777   8.471 -0.7608 -1.1554 -1.8670
 7036TIP3   OH242742   1.638   1.194   1.145 -0.2050 -0.4098 -0.1123
 7036TIP3    H142743   1.573   1.168   1.079 -1.5245 -1.3031  1.4575
 7036TIP3    H242744   1.697   1.119   1.150 -0.7658 -0.8148  0.5063
 7037TIP3   OH242745   1.243   6.093   2.217  0.3950 -0.0455 -0.5894
 7037TIP3    H142746   1.264   6.124   2.305  1.0793  0.1707 -0.8233
 7037TIP3    H242747   1.217   6.172   2.169 -0.9427 -0.3060 -0.3141
 7038TIP3   OH242748   2.668   2.903   0.970 -0.1152  0.0129 -0.3804
 7038TIP3    H142749   2.584   2.949   0.982  0.6275  0.9811  1.6146
 7038TIP3    H242750   2.666   2.833   1.036  2.0671  2.3198  2.3635
 7039TIP3   OH242751   4.408   1.505   7.006  0.3403 -0.0440 -0.2414
 7039TIP3    H142752   4.504   1.506   7.007  0.3364  0.9467  0.7501
 7039TIP3    H242753   4.383   1.527   7.095 -0.8278 -1.5350 -0.1729
 7040TIP3   OH242754   5.639   5.645   8.112  0.6507 -0.2704 -0.2008
 7040TIP3    H142755   5.689   5.723   8.136  0.1465  0.1951 -0.6300
 7040TIP3    H242756   5.701   5.591   8.062  0.7554  0.2569 -0.6519
 7041TIP3   OH242757   5.349   3.267   1.800  0.5221  0.2438 -0.0687
 7041TIP3    H142758   5.312   3.271   1.888 -1.1910 -2.2837 -0.5718
 7041TIP3    H242759   5.319   3.348   1.758 -0.0999  0.6557  1.1224
 7042TIP3   OH242760   3.042   4.721   0.373 -0.0559 -0.0931  0.0057
 7042TIP3    H142761   3.010   4.721   0.463  1.2462 -2.4718  0.5641
 7042TIP3    H242762   3.130   4.756   0.378 -0.3505  0.7406 -0.5298
 7043TIP3   OH242763   5.613   5.488   1.422 -0.5135  0.5100  0.3467
 7043TIP3    H142764   5.530   5.521   1.386  0.2290  1.9452 -0.1487
 7043TIP3    H242765   5.606   5.504   1.516 -0.3133  1.8682  0.1617
 7044TIP3   OH242766   5.326   3.320   1.241 -0.3513 -0.3227  0.2019
 7044TIP3    H142767   5.320   3.414   1.222  0.4703 -0.2080  0.5112
 7044TIP3    H242768   5.285   3.310   1.327 -1.1777 -0.3818 -0.1790
 7045TIP3   OH242769   6.577   1.743   7.888 -0.0554 -0.5911 -0.5373
 7045TIP3    H142770   6.616   1.714   7.971  3.4623  0.8344 -1.4759
 7045TIP3    H242771   6.558   1.836   7.903  1.7447  0.0008 -1.5676
 7046TIP3   OH242772   6.699   6.124   0.409  0.5430  0.0333 -0.2574
 7046TIP3    H142773   6.741   6.077   0.337  0.3182 -1.5012  0.5631
 7046TIP3    H242774   6.653   6.197   0.367  0.6502 -0.6579 -1.6301
 7047TIP3   OH242775   3.788   4.361   7.636  0.1819  0.8747 -0.7529
 7047TIP3    H142776   3.841   4.308   7.576  0.0462  1.0438 -1.0256
 7047TIP3    H242777   3.817   4.336   7.723 -0.4352 -0.2256 -0.8515
 7048TIP3   OH242778   2.962   1.476   7.287 -0.6156 -0.0857  0.4999
 7048TIP3    H142779   2.868   1.459   7.284 -0.7677  0.7652  0.1216
 7048TIP3    H242780   3.001   1.405   7.237 -1.2556  0.8063 -1.3896
 7049TIP3   OH242781   0.287   1.761   6.947 -0.0933  0.0635  0.1008
 7049TIP3    H142782   0.292   1.708   6.868 -0.9887 -0.7299  0.5577
 7049TIP3    H242783   0.321   1.846   6.921  0.4560 -0.4483 -0.9008
 7050TIP3   OH242784   3.281   4.108   7.490  0.0180 -1.1591 -0.3787
 7050TIP3    H142785   3.235   4.119   7.407 -0.9824  1.4870  0.4370
 7050TIP3    H242786   3.223   4.146   7.556  1.2018 -2.2805  1.4230
 7051TIP3   OH242787   3.917   5.788   1.343  0.0537  0.2246 -0.2690
 7051TIP3    H142788   3.838   5.842   1.349  0.1873  0.2341  2.2402
 7051TIP3    H242789   3.935   5.783   1.249 -2.0497  1.4790 -0.8047
 7052TIP3   OH242790   6.681   3.449   0.572 -0.0867 -0.0484 -0.2415
 7052TIP3    H142791   6.756   3.393   0.555  3.5573  2.7190  4.3120
 7052TIP3    H242792   6.645   3.416   0.655 -1.6887  0.8107 -0.5584
 7053TIP3   OH242793   6.882   1.204   0.269  0.6092  0.0849 -0.2888
 7053TIP3    H142794   6.947   1.180   0.335  1.0793  0.8383 -0.4591
 7053TIP3    H242795   6.872   1.299   0.278 -1.3039 -0.1357  0.4710
 7054TIP3   OH242796   6.567   0.537   6.779  0.1516 -0.0409 -0.7502
 7054TIP3    H142797   6.493   0.491   6.739 -1.5552  1.4956  0.5130
 7054TIP3    H242798   6.644   0.495   6.740 -1.3172 -2.4646 -1.2899
 7055TIP3   OH242799   4.559   4.594   0.324  0.1390 -0.4673  0.9192
 7055TIP3    H142800   4.560   4.508   0.366 -1.8457 -0.0382  2.0264
 7055TIP3    H242801   4.517   4.579   0.239 -0.8645 -0.5152  1.4074
 7056TIP3   OH242802   4.274   5.093   1.560  0.2915 -0.0630 -0.2367
 7056TIP3    H142803   4.320   5.138   1.490  0.7607 -0.1441  0.0123
 7056TIP3    H242804   4.217   5.160   1.599 -0.7519 -0.2755 -1.3478
 7057TIP3   OH242805   2.680   1.443   7.568 -0.2188 -0.5249  0.0636
 7057TIP3    H142806   2.598   1.429   7.614  0.8327 -0.4904  2.1006
 7057TIP3    H242807   2.675   1.533   7.536 -1.3036 -0.8156 -0.6328
 7058TIP3   OH242808   5.005   4.295   8.316  0.0367 -0.7797  0.2517
 7058TIP3    H142809   5.059   4.257   8.386 -0.4472 -0.0199  1.0630
 7058TIP3    H242810   5.013   4.390   8.329 -3.2339 -0.5854  1.8599
 7059TIP3   OH242811   3.076   2.407   0.692 -0.5544  0.4909  0.3958
 7059TIP3    H142812   3.010   2.476   0.690 -2.5078 -1.2780 -1.6804
 7059TIP3    H242813   3.148   2.442   0.640 -1.7270  0.8396 -1.0709
 7060TIP3   OH242814   6.684   0.638   7.684  0.1499 -0.3945 -0.4610
 7060TIP3    H142815   6.598   0.656   7.722 -0.1801  2.2898 -2.1982
 7060TIP3    H242816   6.669   0.644   7.590  2.1369 -0.4698 -0.8076
 7061TIP3   OH242817   3.074   3.391   0.809 -0.0641 -0.7881 -0.0709
 7061TIP3    H142818   3.069   3.342   0.891  0.0467 -0.3938  0.1768
 7061TIP3    H242819   3.009   3.460   0.818  1.1171  0.3044  0.4097
 7062TIP3   OH242820   0.144   4.695   2.308 -0.0931  0.6527 -0.1976
 7062TIP3    H142821   0.053   4.727   2.305 -1.8558 -3.5507  0.8708
 7062TIP3    H242822   0.151   4.637   2.231  0.8969 -0.7599  0.9151
 7063TIP3   OH242823   6.921   5.334   1.374  0.2724  0.2284 -0.0708
 7063TIP3    H142824   6.970   5.376   1.444 -1.2214  1.5004  0.2631
 7063TIP3    H242825   6.988   5.295   1.318  1.5104 -1.9886  2.6983
 7064TIP3   OH242826   5.009   0.720   0.819  0.4139  0.0258 -0.6694
 7064TIP3    H142827   5.021   0.808   0.784 -0.5637  0.9472  1.1389
 7064TIP3    H242828   5.000   0.664   0.742  1.3755  1.4431 -1.8662
 7065TIP3   OH242829   1.310   1.779   8.509  0.2741  0.6698 -0.2623
 7065TIP3    H142830   1.357   1.697   8.527  2.7928  2.1024  0.1679
 7065TIP3    H242831   1.262   1.797   8.590  2.8298  1.5026  1.1925
 7066TIP3   OH242832   3.651   0.747   7.858 -0.4117  0.1941 -0.0807
 7066TIP3    H142833   3.706   0.726   7.782  0.0996  0.4478  0.2109
 7066TIP3    H242834   3.639   0.663   7.902 -0.8987  0.0057 -0.5603
 7067TIP3   OH242835   5.022   1.041   1.706  0.2241  0.8603 -0.2125
 7067TIP3    H142836   5.039   1.039   1.800  1.7355 -0.1191 -0.4669
 7067TIP3    H242837   4.967   0.963   1.691 -1.3910  1.8971  0.0504
 7068TIP3   OH242838   1.602   6.716   1.028  0.2388  0.2195 -0.2179
 7068TIP3    H142839   1.595   6.623   1.007 -0.1787  0.0698  0.5423
 7068TIP3    H242840   1.648   6.718   1.112 -1.0506  0.6130  0.4998
 7069TIP3   OH242841   6.863   3.126   8.177 -0.3934 -0.6435 -0.6985
 7069TIP3    H142842   6.812   3.199   8.143 -1.0676 -1.1001 -0.7005
 7069TIP3    H242843   6.952   3.160   8.185 -0.3767 -0.2774 -2.1385
 7070TIP3   OH242844   6.763   6.414   7.655  0.5403  0.4780 -0.2869
 7070TIP3    H142845   6.725   6.458   7.731  1.3403  1.8374 -0.6433
 7070TIP3    H242846   6.831   6.357   7.691 -0.7632 -0.8280  0.2125
 7071TIP3   OH242847   2.444   5.765   8.214 -0.2090 -0.0760 -0.0699
 7071TIP3    H142848   2.360   5.755   8.171 -0.2592 -1.8026  0.3498
 7071TIP3    H242849   2.506   5.717   8.158  0.3505  0.5388  0.0127
 7072TIP3   OH242850   5.322   1.820   7.219 -0.4927  0.5759  0.1040
 7072TIP3    H142851   5.240   1.799   7.263 -1.8922  2.3890 -1.5040
 7072TIP3    H242852   5.309   1.908   7.184  1.5344  0.2718 -1.5818
 7073TIP3   OH242853   6.805   0.965   8.430 -0.3393  0.1350 -0.2071
 7073TIP3    H142854   6.760   1.019   8.364 -1.3890  2.3809  2.1926
 7073TIP3    H242855   6.740   0.951   8.498  0.6767 -2.2588  0.3581
 7074TIP3   OH242856   2.938   3.730   0.080  0.3587 -0.2975  0.3591
 7074TIP3    H142857   3.031   3.715   0.065  0.4864  1.0146 -0.2016
 7074TIP3    H242858   2.895   3.699   0.000  0.3871 -0.0769  0.2596
 7075TIP3   OH242859   3.302   6.769   8.579  0.4629  0.1465  0.4025
 7075TIP3    H142860   3.370   6.704   8.557  0.3414 -0.0648  0.6486
 7075TIP3    H242861   3.223   6.717   8.592 -0.5594  0.6078 -3.0286
 7076TIP3   OH242862   1.778   0.685   8.481  0.3932 -0.0205  0.1945
 7076TIP3    H142863   1.701   0.716   8.432  1.4193  0.5261 -1.1285
 7076TIP3    H242864   1.763   0.591   8.492  0.2544 -0.2127 -1.4247
 7077TIP3   OH242865   6.427   5.153   7.986 -0.3744 -0.4607  0.0811
 7077TIP3    H142866   6.436   5.208   7.908  0.1977  0.1441  0.5618
 7077TIP3    H242867   6.440   5.213   8.059 -2.0977 -0.7809  0.6964
 7078TIP3   OH242868   4.397   4.776   7.422  0.0631 -0.3359  0.2556
 7078TIP3    H142869   4.409   4.704   7.485  1.5144 -0.2350  0.1275
 7078TIP3    H242870   4.476   4.774   7.369  1.3987  2.9532  1.8469
 7079TIP3   OH242871   1.329   5.837   8.513 -0.0219 -0.6437 -0.1383
 7079TIP3    H142872   1.304   5.924   8.545 -0.5119 -0.8966  0.1801
 7079TIP3    H242873   1.286   5.829   8.428  1.0609 -0.0787 -0.7594
 7080TIP3   OH242874   0.467   5.061   8.175  0.3326 -0.7996 -0.3955
 7080TIP3    H142875   0.562   5.059   8.164  0.4533  0.3779  0.2334
 7080TIP3    H242876   0.442   4.971   8.193  1.6248 -0.7904  1.7194
 7081TIP3   OH242877   2.388   0.340   1.227  0.4996 -0.0828  0.4035
 7081TIP3    H142878   2.354   0.265   1.276  1.1524 -0.9192 -0.3892
 7081TIP3    H242879   2.378   0.414   1.287 -0.1914 -0.7877  1.1925
 7082TIP3   OH242880   5.657   6.184   6.315 -0.3846 -0.2591 -0.5966
 7082TIP3    H142881   5.724   6.144   6.259 -1.3010 -0.0583 -1.8879
 7082TIP3    H242882   5.651   6.126   6.390  1.6817  0.0635 -0.1188
 7083TIP3   OH242883   0.616   6.073   0.824  0.4293  0.2655  0.6686
 7083TIP3    H142884   0.545   6.055   0.886 -1.3586  0.0405 -1.3228
 7083TIP3    H242885   0.649   5.986   0.800  0.6128  0.3065  0.7801
 7084TIP3   OH242886   5.858   4.228   2.295  0.0106  0.1437 -0.4500
 7084TIP3    H142887   5.784   4.169   2.309 -0.8575  1.3696  0.3038
 7084TIP3    H242888   5.922   4.202   2.361 -0.8352  0.7555  0.6365
 7085TIP3   OH242889   2.728   0.297   8.382  0.3973  0.2723  0.4319
 7085TIP3    H142890   2.767   0.210   8.374 -0.8110 -0.2045 -0.6305
 7085TIP3    H242891   2.726   0.314   8.477  0.6347 -0.8613  0.6517
 7086TIP3   OH242892   2.318   1.578   1.821 -0.2420 -0.2375  0.1411
 7086TIP3    H142893   2.305   1.536   1.906  1.3771 -0.3458  0.3597
 7086TIP3    H242894   2.235   1.565   1.776 -1.0938 -0.2772  1.6536
 7087TIP3   OH242895   4.379   1.343   8.583 -0.4504 -0.4853  0.1250
 7087TIP3    H142896   4.455   1.324   8.528  0.4499 -0.6774  1.3817
 7087TIP3    H242897   4.337   1.418   8.541 -0.1718 -1.0376 -1.1645
 7088TIP3   OH242898   0.026   2.107   0.077  0.6488  0.2654 -0.2766
 7088TIP3    H142899   0.048   2.052   0.152  0.8823 -0.7999 -1.1042
 7088TIP3    H242900   0.065   2.062   0.002  1.0384  1.6842 -0.9516
 7089TIP3   OH242901   4.524   6.153   1.084 -0.0034 -0.3242  0.3115
 7089TIP3    H142902   4.540   6.076   1.138 -0.1111 -0.0190  0.7896
 7089TIP3    H242903   4.609   6.175   1.048  0.5080  0.6968  2.0370
 7090TIP3   OH242904   6.640   5.071   2.111 -0.1109 -0.8634  0.4364
 7090TIP3    H142905   6.634   5.082   2.016  3.0090 -0.4838  0.1669
 7090TIP3    H242906   6.641   5.161   2.146  1.6267 -0.8577  0.4844
 7091TIP3   OH242907   0.508   1.872   0.198  0.7234  0.1324 -0.2547
 7091TIP3    H142908   0.545   1.785   0.215 -0.2483 -0.6869 -2.1272
 7091TIP3    H242909   0.418   1.866   0.229  0.3290  0.1196 -1.3962
 7092TIP3   OH242910   4.193   3.616   7.628 -0.0225  0.6118  0.4436
 7092TIP3    H142911   4.235   3.595   7.545 -1.2509 -1.8421  0.3749
 7092TIP3    H242912   4.099   3.615   7.609 -0.2864  1.3145  1.5902
 7093TIP3   OH242913   5.519   1.202   0.937  0.1468 -0.0872 -0.1695
 7093TIP3    H142914   5.454   1.133   0.950 -0.1292 -0.1164 -1.4966
 7093TIP3    H242915   5.558   1.182   0.852  1.1821  0.5073  0.1516
 7094TIP3   OH242916   4.639   1.851   1.852  0.6787 -0.0835 -0.0177
 7094TIP3    H142917   4.708   1.811   1.800  2.4979  1.6780  0.9183
 7094TIP3    H242918   4.649   1.945   1.837 -1.0081  0.2626  0.8006
 7095TIP3   OH242919   5.439   5.876   0.145  0.5047 -0.0617 -0.6525
 7095TIP3    H142920   5.500   5.857   0.216  0.7444  0.6554 -0.6673
 7095TIP3    H242921   5.489   5.862   0.065  0.5606  0.2212 -0.6678
 7096TIP3   OH242922   2.885   2.580   1.244  0.4520 -0.1956 -0.0521
 7096TIP3    H142923   2.830   2.650   1.209 -0.2113 -0.5067  0.3488
 7096TIP3    H242924   2.974   2.606   1.221  0.1214  0.1816 -0.9354
 7097TIP3   OH242925   2.606   0.329   6.832 -0.3142  0.1916  0.5022
 7097TIP3    H142926   2.651   0.293   6.909  3.1454 -0.2956 -1.5247
 7097TIP3    H242927   2.619   0.424   6.840  1.3528  0.0589 -0.0819
 7098TIP3   OH242928   4.063   0.866   0.329  0.4167  0.0751 -0.1889
 7098TIP3    H142929   3.992   0.865   0.264 -1.1740  0.5994  1.4553
 7098TIP3    H242930   4.079   0.959   0.345 -1.4295  0.0615  2.3649
 7099TIP3   OH242931   5.685   0.082   8.452 -0.0418 -0.1160 -0.2350
 7099TIP3    H142932   5.635   0.129   8.519 -0.2471  1.4359 -1.3956
 7099TIP3    H242933   5.746   0.028   8.500 -0.6762  0.3999  1.2052
 7100TIP3   OH242934   6.149   4.113   8.439 -0.0466 -0.0599  0.1772
 7100TIP3    H142935   6.226   4.115   8.383  1.7642  0.8981  2.5223
 7100TIP3    H242936   6.100   4.193   8.416 -0.0760 -0.3951 -0.9566
 7101TIP3   OH242937   5.490   2.044   1.334  0.4078 -0.6521 -0.2430
 7101TIP3    H142938   5.556   2.052   1.404  2.5823 -2.5205 -1.8988
 7101TIP3    H242939   5.522   2.102   1.265 -1.3779  0.6955 -0.0013
 7102TIP3   OH242940   6.466   4.660   1.438  0.5966  0.0007  0.1044
 7102TIP3    H142941   6.508   4.742   1.465  1.1450 -0.3093  0.2004
 7102TIP3    H242942   6.394   4.648   1.501 -0.5202  1.2335 -0.8798
 7103TIP3   OH242943   2.141   0.904   2.004 -0.6827 -0.6290 -0.1527
 7103TIP3    H142944   2.123   0.911   1.911 -0.6240  1.0913 -0.0791
 7103TIP3    H242945   2.098   0.981   2.043  0.6096 -0.4408  1.0042
 7104TIP3   OH242946   5.849   2.919   1.798  0.5722 -0.2660  0.5816
 7104TIP3    H142947   5.801   2.857   1.743  1.4853 -0.3785 -0.1076
 7104TIP3    H242948   5.865   2.995   1.741  2.5601 -0.8611  0.2615
 7105TIP3   OH242949   1.834   6.047   6.962 -0.5240 -0.9223  0.1795
 7105TIP3    H142950   1.765   5.981   6.969 -0.5811 -0.9703 -0.7345
 7105TIP3    H242951   1.809   6.114   7.026 -0.7061 -1.5610  0.7910
 7106TIP3   OH242952   4.694   5.081   7.303 -0.1227 -0.2079 -0.2174
 7106TIP3    H142953   4.643   5.144   7.252  0.5225  0.8162  0.3778
 7106TIP3    H242954   4.773   5.128   7.327  0.5960 -1.4096 -0.1580
 7107TIP3   OH242955   2.597   1.684   6.908 -0.3206 -0.5760 -0.5069
 7107TIP3    H142956   2.599   1.653   6.998  0.3644  1.0859  0.0884
 7107TIP3    H242957   2.544   1.620   6.861  0.6460 -2.3617  0.7215
 7108TIP3   OH242958   6.381   2.237   1.624  0.1735 -0.0077 -0.0808
 7108TIP3    H142959   6.312   2.196   1.571 -0.7865 -1.4089  2.1228
 7108TIP3    H242960   6.450   2.171   1.627 -0.4757 -0.6600  1.7041
 7109TIP3   OH242961   4.878   1.144   7.258  0.1102  0.1087 -0.0437
 7109TIP3    H142962   4.966   1.109   7.253 -0.8014 -2.3336 -0.4205
 7109TIP3    H242963   4.859   1.176   7.170  0.5524  0.5543  0.0163
 7110TIP3   OH242964   4.580   2.778   1.194  0.3675 -0.0433 -0.0108
 7110TIP3    H142965   4.638   2.807   1.124 -1.1330 -0.0606 -1.3149
 7110TIP3    H242966   4.634   2.720   1.248  1.4093 -0.4856 -1.4859
 7111TIP3   OH242967   6.639   4.595   1.192 -0.6114 -0.3152 -0.3190
 7111TIP3    H142968   6.665   4.507   1.219  0.2175 -0.1746 -0.6076
 7111TIP3    H242969   6.601   4.634   1.271 -0.8316 -0.8688 -0.1436
 7112TIP3   OH242970   1.640   3.891   7.329 -0.2628 -0.0080  0.2964
 7112TIP3    H142971   1.617   3.859   7.416 -1.4854  0.3516  0.1234
 7112TIP3    H242972   1.631   3.814   7.272 -0.6380  0.0340  0.2976
 7113TIP3   OH242973   2.762   6.756   0.232 -0.0887  0.1399 -0.0396
 7113TIP3    H142974   2.744   6.847   0.207 -0.1161  0.4879  1.1858
 7113TIP3    H242975   2.733   6.750   0.323 -0.0132 -1.0815 -0.0847
 7114TIP3   OH242976   5.081   2.216   7.018 -0.1250  0.1134  0.3518
 7114TIP3    H142977   5.042   2.184   6.936  0.0602  1.2834 -0.2090
 7114TIP3    H242978   5.165   2.254   6.992 -0.7216  1.8404  0.8556
 7115TIP3   OH242979   4.319   3.994   6.906  0.1865  0.1109 -0.3383
 7115TIP3    H142980   4.265   4.052   6.851 -0.4693  0.7546  0.9346
 7115TIP3    H242981   4.361   3.934   6.844  0.2334  1.4187 -1.6173
 7116TIP3   OH242982   1.280   5.037   8.275  0.0094 -0.1975  0.0016
 7116TIP3    H142983   1.307   4.946   8.259  1.2755  0.0914  0.3558
 7116TIP3    H242984   1.206   5.051   8.216  1.4068 -0.6720 -1.9574
 7117TIP3   OH242985   0.624   1.698   1.193 -0.0926  0.3370 -0.0601
 7117TIP3    H142986   0.592   1.781   1.159  2.0852  1.1814 -0.2226
 7117TIP3    H242987   0.697   1.722   1.250  0.1804 -1.4370  0.3972
 7118TIP3   OH242988   2.446   4.967   0.237  0.6378  0.3347 -0.3768
 7118TIP3    H142989   2.513   5.033   0.215  1.6789 -0.2273  0.9790
 7118TIP3    H242990   2.399   5.005   0.311  1.1137 -0.3532  0.2827
 7119TIP3   OH242991   0.438   6.773   7.494  0.0128  0.1558 -0.0732
 7119TIP3    H142992   0.498   6.782   7.568  0.1353  1.1426 -0.2729
 7119TIP3    H242993   0.379   6.849   7.502 -1.7314 -1.2019  0.5660
 7120TIP3   OH242994   1.697   0.488   2.116  0.5524  0.3790 -0.0159
 7120TIP3    H142995   1.775   0.437   2.136 -0.2550 -0.4891  1.0253
 7120TIP3    H242996   1.731   0.568   2.075  1.8303 -1.0600 -1.9396
 7121TIP3   OH242997   0.694   4.839   7.820  0.0200 -0.2723 -0.1785
 7121TIP3    H142998   0.757   4.908   7.803  0.8042 -0.6197  1.1614
 7121TIP3    H242999   0.745   4.770   7.863 -1.0651 -0.9816  0.0117
 7122TIP3   OH243000   1.506   0.844   1.280 -0.0143  0.3049 -0.1060
 7122TIP3    H143001   1.527   0.864   1.189 -1.1592 -1.4057 -0.7962
 7122TIP3    H243002   1.411   0.842   1.283 -0.0437  1.8039  1.5056
 7123TIP3   OH243003   1.003   0.387   1.280 -0.0225 -0.1368  0.2472
 7123TIP3    H143004   1.056   0.307   1.279  0.5123  0.2228 -0.6431
 7123TIP3    H243005   0.989   0.408   1.188 -1.3143  0.0473  0.4611
 7124TIP3   OH243006   0.057   4.655   1.996  0.0283  0.6675  0.0677
 7124TIP3    H143007   0.005   4.734   1.979 -0.5528  0.6481  1.6208
 7124TIP3    H243008   0.144   4.688   2.018 -0.0745  0.8582  0.1987
 7125TIP3   OH243009   6.030   4.545   6.663 -0.2094 -0.2493  0.2469
 7125TIP3    H143010   6.020   4.594   6.581 -0.0584 -2.2987 -1.0740
 7125TIP3    H243011   6.120   4.565   6.691 -0.5237  1.0882  0.3652
 7126TIP3   OH243012   0.030   1.497   1.116  0.2329  0.6549  0.3535
 7126TIP3    H143013  -0.053   1.460   1.146  0.4754  1.1423  1.7269
 7126TIP3    H243014   0.090   1.486   1.190  1.2397  0.8086 -0.4102
 7127TIP3   OH243015   5.462   5.248   7.020 -0.1266 -0.2995  0.4153
 7127TIP3    H143016   5.410   5.268   7.098 -0.5980  0.7509 -0.1510
 7127TIP3    H243017   5.520   5.178   7.048 -1.2075 -0.8630  1.3330
 7128TIP3   OH243018   0.034   1.967   0.339  0.2710  0.2147  0.9143
 7128TIP3    H143019   0.083   1.886   0.346 -0.3867 -0.2025  0.7867
 7128TIP3    H243020   0.010   1.989   0.429 -0.3469 -0.2358  0.8633
 7129TIP3   OH243021   4.348   5.407   0.021 -1.0371  0.2002 -0.1263
 7129TIP3    H143022   4.428   5.459   0.018 -1.7841  1.3672 -0.3870
 7129TIP3    H243023   4.296   5.446   0.091 -0.2299 -2.3245  2.0198
 7130TIP3   OH243024   4.056   5.029   7.077 -0.1061 -0.5016  0.7904
 7130TIP3    H143025   3.977   4.995   7.036 -1.2039  0.9488  1.6181
 7130TIP3    H243026   4.072   5.113   7.032 -0.2262  0.1789  1.9800
 7131TIP3   OH243027   0.917   3.632   0.786 -0.1138  0.0098 -0.3072
 7131TIP3    H143028   0.888   3.585   0.864 -2.2647  2.6292  0.6516
 7131TIP3    H243029   1.003   3.667   0.810 -0.6899  0.6794  0.9365
 7132TIP3   OH243030   4.980   1.260   6.519 -0.8981  0.0670 -0.9713
 7132TIP3    H143031   4.929   1.238   6.441 -2.2496 -1.7133  0.3294
 7132TIP3    H243032   5.038   1.185   6.533  1.2836  1.5192 -1.7029
 7133TIP3   OH243033   1.925   3.827   2.071 -0.4095  0.1224  0.3220
 7133TIP3    H143034   1.851   3.771   2.095 -1.7480  1.4787 -0.3947
 7133TIP3    H243035   1.936   3.886   2.146 -0.3887  0.2285  0.2365
 7134TIP3   OH243036   2.073   2.010   8.471  0.0812  0.3603 -0.3684
 7134TIP3    H143037   2.167   1.994   8.461  0.2821  1.9193 -1.1249
 7134TIP3    H243038   2.034   1.975   8.391 -0.2633 -1.9352  0.6952
 7135TIP3   OH243039   4.755   2.275   0.550 -0.4863 -0.3136 -0.0430
 7135TIP3    H143040   4.675   2.283   0.498 -0.5279  1.4346  0.2437
 7135TIP3    H243041   4.753   2.185   0.582 -1.2722 -0.9514 -1.7230
 7136TIP3   OH243042   1.446   3.635   8.053  0.0828 -0.2118  0.5160
 7136TIP3    H143043   1.383   3.563   8.056 -0.8765  0.5986  0.3585
 7136TIP3    H243044   1.465   3.653   8.145 -1.1691  0.5845  0.6470
 7137TIP3   OH243045   5.698   6.688   2.723  0.1030 -0.3333  0.4327
 7137TIP3    H143046   5.693   6.781   2.742  0.6542 -0.2876  0.3721
 7137TIP3    H243047   5.779   6.678   2.673 -1.2705 -0.4279 -1.9396
 7138TIP3   OH243048   3.978   0.214   2.368 -0.7707 -0.4593  0.0703
 7138TIP3    H143049   3.901   0.183   2.415  0.1692 -0.9147  1.3662
 7138TIP3    H243050   3.943   0.252   2.287 -2.5556  1.3660  1.5943
 7139TIP3   OH243051   1.727   2.768   0.115 -0.6098  0.1424  0.2217
 7139TIP3    H143052   1.756   2.689   0.069 -0.2960 -0.4931  1.4680
 7139TIP3    H243053   1.656   2.802   0.060  0.2922 -0.1049 -1.1553
 7140TIP3   OH243054   4.329   2.875   0.647 -0.2613 -0.0482  0.2025
 7140TIP3    H143055   4.389   2.848   0.716  0.3227  0.7923  0.0432
 7140TIP3    H243056   4.382   2.931   0.590 -1.3814  1.4362  0.5402
 7141TIP3   OH243057   4.982   1.812   7.641  0.1732  0.0401 -0.0868
 7141TIP3    H143058   5.022   1.880   7.587  0.6348  0.6987  1.0633
 7141TIP3    H243059   4.932   1.859   7.707 -0.5291 -0.7554 -0.0296
 7142TIP3   OH243060   1.413   0.508   7.863  0.0391  0.0246  0.5485
 7142TIP3    H143061   1.450   0.570   7.926 -1.6016 -0.4798  2.1236
 7142TIP3    H243062   1.388   0.562   7.788  2.3709  0.5892  0.1232
 7143TIP3   OH243063   2.042   3.689   0.815 -0.2471  0.2068  0.5463
 7143TIP3    H143064   2.094   3.614   0.842 -1.8575 -0.6854  1.3480
 7143TIP3    H243065   2.033   3.680   0.720  2.1412  1.1516  0.1686
 7144TIP3   OH243066   5.915   1.290   8.247  0.4045 -0.5473  0.1365
 7144TIP3    H143067   5.906   1.333   8.162  1.4001  1.3650  0.9514
 7144TIP3    H243068   6.010   1.277   8.257  0.2731 -1.0507  0.8263
 7145TIP3   OH243069   0.665   0.079   0.232  0.3599  0.1982 -0.2016
 7145TIP3    H143070   0.684   0.028   0.311 -0.7325 -0.5453 -0.4044
 7145TIP3    H243071   0.580   0.119   0.248  0.4632  0.6439 -0.7121
 7146TIP3   OH243072   4.658   3.984   0.212  0.6946 -0.1399  0.5660
 7146TIP3    H143073   4.697   4.060   0.168 -0.4191 -0.0786 -0.3573
 7146TIP3    H243074   4.709   3.909   0.179  0.0218 -0.0736 -0.7153
 7147TIP3   OH243075   2.829   0.280   1.073  0.3731  0.1220  0.0243
 7147TIP3    H143076   2.833   0.375   1.075  1.2275  0.0865  1.3401
 7147TIP3    H243077   2.918   0.253   1.050  0.2647 -0.3608  0.1604
 7148TIP3   OH243078   3.135   6.490   7.404  0.2116  0.4683 -0.4184
 7148TIP3    H143079   3.172   6.575   7.381  1.5935  0.0487  0.1232
 7148TIP3    H243080   3.190   6.427   7.357 -0.7865 -0.1346 -0.8084
 7149TIP3   OH243081   4.835   6.938   8.520  0.8832  0.5958 -0.4631
 7149TIP3    H143082   4.790   6.946   8.436 -0.2800  0.1078  0.1003
 7149TIP3    H243083   4.836   6.845   8.539 -0.4954  0.8293  0.9218
 7150TIP3   OH243084   0.618   6.292   7.253 -1.1083  0.0063 -0.6488
 7150TIP3    H143085   0.645   6.365   7.197 -0.7761  0.4493  0.0621
 7150TIP3    H243086   0.696   6.273   7.306 -1.1023 -1.0703 -1.0371
 7151TIP3   OH243087   3.087   4.691   7.657 -0.0989 -0.8897  0.5225
 7151TIP3    H143088   3.112   4.780   7.680  0.1078 -1.3697  2.2998
 7151TIP3    H243089   3.157   4.660   7.600  0.8311 -0.5545  1.4534
 7152TIP3   OH243090   2.841   4.121   1.083  0.6516  0.0592 -0.3581
 7152TIP3    H143091   2.897   4.148   1.155  0.6797 -1.2968  0.1608
 7152TIP3    H243092   2.752   4.132   1.116  0.5856  1.7151 -0.9969
 7153TIP3   OH243093   1.056   5.748   7.450  0.1977 -0.3609 -0.4182
 7153TIP3    H143094   1.059   5.676   7.514  2.0616  0.4707  0.4946
 7153TIP3    H243095   0.984   5.803   7.480 -0.0727 -0.8870 -0.0645
 7154TIP3   OH243096   2.359   5.971   6.782 -0.4087 -0.2625 -0.7115
 7154TIP3    H143097   2.346   5.891   6.731 -1.9185 -1.0636  0.8054
 7154TIP3    H243098   2.279   5.979   6.834  0.9688  0.5288  1.4347
 7155TIP3   OH243099   1.795   2.524   6.977 -0.0350  0.1165 -0.1543
 7155TIP3    H143100   1.725   2.573   7.020 -0.0509 -1.7454  2.1765
 7155TIP3    H243101   1.869   2.584   6.975 -0.9516  1.2801 -0.3474
 7156TIP3   OH243102   1.402   4.902   6.458 -0.4520  0.1292 -0.3681
 7156TIP3    H143103   1.313   4.867   6.449 -0.5159  0.0228  0.5652
 7156TIP3    H243104   1.390   4.996   6.461 -0.5308  0.1189 -0.3514
 7157TIP3   OH243105   2.588   6.577   2.344 -0.0298 -0.0177 -0.2694
 7157TIP3    H143106   2.677   6.614   2.343 -0.3119  0.6584 -0.5291
 7157TIP3    H243107   2.531   6.651   2.363 -0.5121 -0.5301  0.3509
 7158TIP3   OH243108   1.029   5.576   6.953  0.1062  0.1021 -0.2901
 7158TIP3    H143109   1.081   5.620   7.021  1.1536 -0.2935 -0.8168
 7158TIP3    H243110   1.022   5.641   6.884  1.2934 -0.3713 -0.8898
 7159TIP3   OH243111   3.369   1.314   0.563 -0.5157  0.4741 -0.0071
 7159TIP3    H143112   3.413   1.316   0.648  2.3184  1.1374 -1.3759
 7159TIP3    H243113   3.327   1.399   0.555 -0.1621  0.6930  0.4236
 7160TIP3   OH243114   0.033   5.861   7.471 -0.0548 -0.2934  0.3702
 7160TIP3    H143115   0.092   5.893   7.403 -1.0387 -2.1365 -1.4842
 7160TIP3    H243116  -0.000   5.940   7.514  1.5891  0.8718 -0.4146
 7161TIP3   OH243117   3.225   5.438   6.904 -0.2858  0.1723  0.1608
 7161TIP3    H143118   3.208   5.390   6.985  1.8676  1.3692  1.4050
 7161TIP3    H243119   3.172   5.518   6.912 -1.8401 -0.7131 -0.7231
 7162TIP3   OH243120   0.222   6.154   7.646 -0.4483 -0.0862 -0.2992
 7162TIP3    H143121   0.264   6.075   7.679 -0.8911 -0.7075 -1.1825
 7162TIP3    H243122   0.275   6.181   7.571 -0.0971  0.6758  0.1997
 7163TIP3   OH243123   5.343   5.647   2.526  0.0784 -0.0874 -0.0427
 7163TIP3    H143124   5.363   5.740   2.530 -1.6950  0.2815  2.6875
 7163TIP3    H243125   5.394   5.608   2.597 -1.5790 -0.6136  0.9131
 7164TIP3   OH243126   3.398   3.807   0.319 -0.3242 -0.8053 -0.1963
 7164TIP3    H143127   3.333   3.869   0.351  0.4722  0.0303 -0.1510
 7164TIP3    H243128   3.349   3.750   0.260 -0.8994  0.5013 -1.0430
 7165TIP3   OH243129   4.059   4.647   7.147 -0.5184 -0.9105 -0.3287
 7165TIP3    H143130   4.090   4.730   7.180 -1.8086 -0.4329 -0.2463
 7165TIP3    H243131   4.091   4.582   7.209  0.8169 -0.5352 -0.5997
 7166TIP3   OH243132   0.670   2.659   6.566  0.3526 -0.1298 -0.2340
 7166TIP3    H143133   0.631   2.671   6.479 -2.2461  4.0935  1.2122
 7166TIP3    H243134   0.715   2.742   6.584 -0.6683 -0.1568  3.0656
 7167TIP3   OH243135   5.969   4.811   8.395 -0.6229 -0.1778  0.0446
 7167TIP3    H143136   5.977   4.730   8.445 -1.1548  0.1058  0.6053
 7167TIP3    H243137   5.951   4.782   8.305 -2.1488 -0.6957  0.4780
 7168TIP3   OH243138   2.202   5.525   1.505  0.2588  0.3617  0.0926
 7168TIP3    H143139   2.193   5.571   1.588 -1.0931 -2.3300  1.5707
 7168TIP3    H243140   2.112   5.508   1.477  0.7070  0.5163 -1.5428
 7169TIP3   OH243141   3.726   3.564   7.166 -0.5296 -0.2174 -0.5265
 7169TIP3    H143142   3.814   3.563   7.127 -0.3355 -0.3534 -0.0959
 7169TIP3    H243143   3.735   3.622   7.242 -0.2594 -1.8592  0.7563
 7170TIP3   OH243144   1.630   0.057   7.242 -0.1833 -0.2654  0.3657
 7170TIP3    H143145   1.627   0.149   7.268 -0.3244 -0.0154 -0.4970
 7170TIP3    H243146   1.626   0.059   7.146 -0.5810 -1.1837  0.3491
 7171TIP3   OH243147   4.256   5.668   0.209  0.1945  0.5782 -0.0982
 7171TIP3    H143148   4.304   5.750   0.195  0.6620  0.7366  2.0267
 7171TIP3    H243149   4.168   5.685   0.174  0.5388  1.6726 -0.4730
 7172TIP3   OH243150   1.506   5.284   1.348  0.5634 -0.5897 -0.0182
 7172TIP3    H143151   1.566   5.282   1.273  0.5094 -1.9284 -0.0531
 7172TIP3    H243152   1.446   5.211   1.333 -0.8031  0.4455  0.2591
 7173TIP3   OH243153   6.558   1.671   7.065 -0.3534 -0.0283  0.6173
 7173TIP3    H143154   6.529   1.737   7.002  0.0458 -1.5850 -1.3235
 7173TIP3    H243155   6.570   1.592   7.012  1.7421 -0.9803  2.3659
 7174TIP3   OH243156   5.971   5.232   1.384  0.4567  0.0013  0.5986
 7174TIP3    H143157   5.926   5.316   1.378 -2.0504 -1.1124  2.0901
 7174TIP3    H243158   5.952   5.189   1.300 -0.3171  0.0152  0.7569
 7175TIP3   OH243159   4.096   5.291   6.950 -0.3126 -0.3119  0.0779
 7175TIP3    H143160   4.064   5.269   6.862  0.5838 -1.1425 -0.0554
 7175TIP3    H243161   4.172   5.348   6.934  2.7767 -4.0319  0.0248
 7176TIP3   OH243162   2.162   6.434   6.392  0.3100 -0.8179 -0.0520
 7176TIP3    H143163   2.242   6.384   6.411  1.0841  0.8755  1.3481
 7176TIP3    H243164   2.194   6.517   6.358 -0.9537 -0.9523 -1.6867
 7177LIG     O143165   1.463   6.237   3.972  0.1241  0.3232  0.3769
 7177LIG     O243166   1.285   6.667   3.934 -0.9619 -0.0029  0.3826
 7177LIG     N143167   1.145   6.491   3.982 -0.2800  0.4397 -0.1870
 7177LIG     N243168   1.193   6.160   4.090 -0.7255 -0.5152 -0.0755
 7177LIG     N343169   1.379   6.451   3.954 -0.4746 -0.1412 -0.2240
 7177LIG     N443170   1.022   6.298   4.082  0.2071  0.3373  0.6163
 7177LIG     C143171   1.239   6.274   4.030  0.3703  0.0189 -0.9082
 7177LIG     C243172   1.134   6.364   4.036  0.5711  0.2612  0.3459
 7177LIG     C343173   1.366   6.312   3.981 -0.0801 -0.0580  0.1311
 7177LIG     C443174   1.271   6.545   3.957  0.3338  0.3643 -0.2722
 7177LIG     C543175   1.062   6.174   4.111 -0.2680 -1.3770  0.6565
 7177LIG     C643176   1.031   6.584   3.980 -0.3214 -0.9262  0.0786
 7177LIG     C743177   1.274   6.041   4.115 -0.0407  0.3788  0.2353
 7177LIG     C843178   1.515   6.500   3.921 -0.2160  0.1788 -0.6385
 7177LIG     H143179   0.997   6.099   4.155 -0.7488 -1.2167  0.2243
 7177LIG     H243180   1.058   6.682   4.023  0.3969 -0.7543 -0.7356
 7177LIG     H343181   0.932   6.552   4.018 -1.7627  1.5815 -1.2914
 7177LIG     H443182   1.015   6.618   3.875 -0.0282  0.4553  0.4624
 7177LIG     H543183   1.334   6.040   4.208 -0.6049  0.4162  0.6017
 7177LIG     H643184   1.340   6.020   4.027 -1.1825 -2.4278 -0.0669
 7177LIG     H743185   1.210   5.950   4.118  0.7391 -0.1701  2.2032
 7177LIG     H843186   1.511   6.589   3.854 -0.8016  0.9130  0.3517
 7177LIG     H943187   1.583   6.423   3.878 -0.3842 -1.3998  1.7365
 7177LIG    H1043188   1.573   6.527   4.011  0.9161  1.6104 -1.7396
   6.94332   6.94332   8.62849
